FOO
135168
    1MOL0     O    1   5.074   5.005   6.045  0.6626  0.3091 -0.1642
    1MOL0     C    2   5.064   5.014   5.925  0.5638  0.6410  0.5472
    1MOL0     O    3   4.990   5.103   5.860 -0.1157  0.4597  0.3768
    1MOL0     C    4   4.914   5.193   5.930  0.4782  0.5663 -0.0691
    1MOL0     C    5   4.922   5.320   5.895  0.2956  0.4301  0.2859
    1MOL0     C    6   4.837   5.419   5.936  0.4386 -0.0428 -0.1351
    1MOL0     C    7   4.727   5.381   6.011  0.7546 -0.8593  0.1195
    1MOL0     O    8   4.613   5.460   6.019  0.0850 -0.3261 -0.1977
    1MOL0     C    9   4.613   5.603   6.001  0.0579 -0.1055  0.0307
    1MOL0     C   10   4.493   5.653   6.072  0.2942  0.7912 -0.2211
    1MOL0     C   11   4.449   5.784   6.021 -0.1889 -0.4044  0.1983
    1MOL0     C   12   4.351   5.867   6.107 -0.5061  0.4299 -0.0952
    1MOL0     C   13   4.204   5.825   6.094  0.4768 -0.2434 -0.4757
    1MOL0     C   14   4.107   5.930   6.157 -0.0620  0.5140 -0.3989
    1MOL0     C   15   3.962   5.886   6.177  0.3714  0.5891  0.7899
    1MOL0     C   16   3.871   5.999   6.225 -0.6216  0.6180  0.0795
    1MOL0     N   17   3.749   5.956   6.290 -0.1226  0.0791  0.5192
    1MOL0     C   18   3.648   5.896   6.229  0.8127  0.3735 -0.4589
    1MOL0     C   19   3.539   5.902   6.315 -0.0896 -0.6058  1.1493
    1MOL0     C   20   3.400   5.855   6.283  0.1934  0.9443 -0.3667
    1MOL0     C   21   3.321   5.969   6.250  0.0851  0.2534  0.2599
    1MOL0     C   22   3.190   5.916   6.186 -0.3820 -0.3265  0.1727
    1MOL0     C   23   3.097   5.831   6.265 -0.7270  0.4781  0.8072
    1MOL0     O   24   2.971   5.891   6.304 -0.1222 -0.4778 -0.4267
    1MOL0     C   25   2.871   5.919   6.212 -0.0708  0.0801 -0.3402
    1MOL0     C   26   2.766   6.003   6.252 -0.8362  0.8564  0.2938
    1MOL0     C   27   2.657   6.036   6.168 -0.6795 -1.1281 -0.4358
    1MOL0     C   28   2.659   6.000   6.039  0.7593  0.5551  0.3209
    1MOL0     C   29   2.538   6.025   5.956  0.3947 -1.0701  0.4293
    1MOL0     O   30   2.464   6.139   5.976 -0.5805 -0.0133 -0.7457
    1MOL0     C   31   2.359   6.156   5.889 -0.5679 -0.1328  0.6601
    1MOL0     C   32   2.368   6.228   5.775 -0.1453  0.3977 -0.1112
    1MOL0     C   33   2.269   6.227   5.675  0.4624  0.7522 -0.3606
    1MOL0     C   34   2.147   6.172   5.711 -0.2783  0.3387  0.6976
    1MOL0     O   35   2.053   6.200   5.621  0.2303  0.2841 -0.5385
    1MOL0     C   36   1.910   6.208   5.660 -0.8461 -0.6425  0.5312
    1MOL0     C   37   1.841   6.172   5.526  0.3040 -0.1876  0.1708
    1MOL0     C   38   1.866   6.025   5.485  1.1558  0.3163 -0.2182
    1MOL0     C   39   1.803   5.981   5.347  0.0499 -0.0052 -0.6000
    1MOL0     C   40   1.653   6.007   5.342 -0.0910 -0.3115 -0.2489
    1MOL0     C   41   1.592   5.936   5.224  0.7872  0.7816  0.5411
    1MOL0     C   42   1.443   5.958   5.191 -0.2947  0.2163  0.4403
    1MOL0     C   43   1.405   5.894   5.056  1.2315  0.2259  0.7088
    1MOL0    Cl   44   1.248   5.962   5.051 -0.0145 -0.2408 -0.0124
    1MOL0     C   45   2.136   6.110   5.840 -0.7560 -0.0078  0.0564
    1MOL0     C   46   2.246   6.092   5.924  0.4344  0.3989  0.4743
    1MOL0     O   47   2.518   5.944   5.862  0.3321 -0.2432 -0.0097
    1MOL0     C   48   2.768   5.924   5.991 -0.9127 -1.0698  0.1778
    1MOL0     C   49   2.865   5.890   6.075 -0.1965  0.4700 -1.2639
    1MOL0     N   50   3.578   5.975   6.426 -0.6943 -0.0888  0.7564
    1MOL0     N   51   3.699   6.004   6.409 -1.4542 -0.0710 -0.9104
    1MOL0     C   52   4.712   5.251   6.052 -0.0260  0.6355 -0.2831
    1MOL0     C   53   4.802   5.150   6.008  0.1447  1.0162  0.7452
    1MOL0     C   54   5.151   4.923   5.847 -0.2064 -0.3419 -0.1968
    1MOL0     C   55   5.177   4.930   5.708  0.1561  0.2458 -1.2805
    1MOL0     C   56   5.272   4.846   5.648  0.6130 -0.1614  0.4590
    1MOL0     C   57   5.346   4.742   5.721 -0.0313  0.6048 -0.7398
    1MOL0     O   58   5.437   4.662   5.657  0.0712  0.2375 -0.0270
    1MOL0     C   59   5.487   4.554   5.735  0.6578  0.2323  0.6206
    1MOL0     C   60   5.595   4.473   5.656 -0.8706 -0.6200  0.3482
    1MOL0     C   61   5.714   4.569   5.619  0.1674  0.3391 -0.3579
    1MOL0     C   62   5.828   4.495   5.552 -0.9120  0.0781  0.9341
    1MOL0     C   63   5.916   4.415   5.632  0.2530 -0.0305 -0.3176
    1MOL0     C   64   5.993   4.367   5.711 -0.3523 -0.1096  0.2252
    1MOL0     C   65   5.301   4.723   5.852 -0.3716 -0.5220 -0.4572
    1MOL0     C   66   5.212   4.812   5.907  0.5514 -0.8911  0.4410
    1MOL0     H   67   5.005   5.345   5.830 -0.9115 -0.2419 -1.6094
    1MOL0     H   68   4.862   5.517   5.897  0.9523 -0.5108 -1.0156
    1MOL0     H   69   4.608   5.630   5.895 -0.1806  0.8493  0.2761
    1MOL0     H   70   4.704   5.645   6.043  1.0883 -1.4827 -0.7372
    1MOL0     H   71   4.515   5.653   6.179 -2.1718 -1.0425  0.3733
    1MOL0     H   72   4.404   5.593   6.048  1.3670  0.7870 -5.2719
    1MOL0     H   73   4.405   5.792   5.921  0.3113  0.8121  0.0691
    1MOL0     H   74   4.543   5.839   6.013  1.1280 -2.6659 -1.1161
    1MOL0     H   75   4.369   5.872   6.215  2.5446  1.8655 -0.5671
    1MOL0     H   76   4.371   5.963   6.058  1.1268 -0.0233 -0.3797
    1MOL0     H   77   4.210   5.734   6.155 -0.0399 -0.0584 -0.1392
    1MOL0     H   78   4.171   5.798   5.993  1.2781  2.1816 -1.4682
    1MOL0     H   79   4.110   6.023   6.101 -1.6339  2.0094  1.8226
    1MOL0     H   80   4.146   5.954   6.257  1.0062 -1.5379 -0.2601
    1MOL0     H   81   3.926   5.854   6.079  0.1685  1.7425  0.4791
    1MOL0     H   82   3.952   5.800   6.243 -0.4487  0.9094  1.1004
    1MOL0     H   83   3.848   6.062   6.139  1.8243  0.6927 -0.6026
    1MOL0     H   84   3.923   6.058   6.302  0.9887 -1.7102  0.9023
    1MOL0     H   85   3.648   5.853   6.129  4.8693  0.0638 -0.4706
    1MOL0     H   86   3.355   5.808   6.370  0.5093 -1.4515 -1.4280
    1MOL0     H   87   3.400   5.780   6.203  0.1451  0.5085  0.0441
    1MOL0     H   88   3.372   6.028   6.173  4.5997 -3.4064  0.0153
    1MOL0     H   89   3.302   6.022   6.344  0.1287  1.9682 -0.6646
    1MOL0     H   90   3.148   6.012   6.157  1.7004  1.6132  3.0248
    1MOL0     H   91   3.226   5.866   6.095  0.0884 -1.1505  0.8035
    1MOL0     H   92   3.143   5.816   6.363  0.7399  0.6112  0.1615
    1MOL0     H   93   3.095   5.737   6.209  3.3530  0.7710 -0.0964
    1MOL0     H   94   2.775   6.034   6.356  0.9576 -3.5692  1.7006
    1MOL0     H   95   2.570   6.084   6.212  0.8455 -0.9552  2.7008
    1MOL0     H   96   2.463   6.276   5.751  0.6912 -1.6828 -1.1843
    1MOL0     H   97   2.280   6.272   5.577  0.0313  0.0162 -0.7541
    1MOL0     H   98   1.884   6.310   5.689  2.0939  0.6989 -1.0736
    1MOL0     H   99   1.887   6.138   5.741  0.5976 -0.0430  1.4923
    1MOL0     H  100   1.879   6.228   5.440  0.9488 -0.5402  0.2176
    1MOL0     H  101   1.734   6.187   5.542  0.1036 -0.8270 -0.5563
    1MOL0     H  102   1.824   5.965   5.566  2.2507  1.0229  0.9110
    1MOL0     H  103   1.974   6.008   5.486  1.1192  0.0689 -0.3168
    1MOL0     H  104   1.853   6.030   5.263  0.3737 -0.5656 -0.7377
    1MOL0     H  105   1.819   5.873   5.337 -1.8658 -0.4184  0.2680
    1MOL0     H  106   1.615   6.110   5.342 -0.8998 -0.5940 -0.6926
    1MOL0     H  107   1.603   5.964   5.430 -0.1118  1.0514  0.4299
    1MOL0     H  108   1.607   5.829   5.242 -2.7266 -0.5227 -2.7717
    1MOL0     H  109   1.657   5.964   5.140 -1.3560  0.2692 -1.3773
    1MOL0     H  110   1.391   5.905   5.271 -0.9086 -0.6607 -0.5052
    1MOL0     H  111   1.428   6.066   5.202 -4.7324 -0.3968  2.5417
    1MOL0     H  112   1.405   5.785   5.066 -0.3723  0.2024  0.7355
    1MOL0     H  113   1.478   5.931   4.985  2.7768  0.8976  2.5589
    1MOL0     H  114   2.034   6.093   5.874 -0.0272 -0.8701  2.0075
    1MOL0     H  115   2.236   6.039   6.018  1.6717  0.2002  0.5051
    1MOL0     H  116   2.776   5.902   5.885  2.4495  0.1372  0.0630
    1MOL0     H  117   2.962   5.853   6.043  1.4511  2.4061  1.0551
    1MOL0     H  118   4.624   5.234   6.114  0.8525  2.6420  1.6340
    1MOL0     H  119   4.794   5.044   6.033  2.7917  0.9153  1.4908
    1MOL0     H  120   5.114   5.001   5.654  0.6046 -0.5021 -2.8719
    1MOL0     H  121   5.286   4.866   5.542  0.2498 -0.0467  0.4301
    1MOL0     H  122   5.407   4.487   5.767 -0.7590  1.1082 -0.9550
    1MOL0     H  123   5.534   4.571   5.833  0.0468 -0.8692  1.1208
    1MOL0     H  124   5.627   4.401   5.731 -2.5293 -0.6215  1.0999
    1MOL0     H  125   5.546   4.421   5.573 -0.1710 -1.1994  0.2826
    1MOL0     H  126   5.743   4.600   5.720  2.6415  0.3118 -1.0025
    1MOL0     H  127   5.685   4.661   5.568 -1.0189 -0.2598 -0.7889
    1MOL0     H  128   5.776   4.423   5.489 -0.4235  0.6605 -0.1650
    1MOL0     H  129   5.891   4.565   5.495 -1.0075 -0.8014 -0.2829
    1MOL0     H  130   6.066   4.329   5.779  2.1700  1.7040 -1.2891
    1MOL0     H  131   5.361   4.652   5.909  2.9495  1.1298 -1.6496
    1MOL0     H  132   5.192   4.783   6.009 -0.0738 -3.1150 -0.2425
    2MOL0     O  133   8.892   9.319   9.507 -1.0346 -0.2619  0.2764
    2MOL0     C  134   8.886   9.235   9.592  0.0780  0.8003 -0.1072
    2MOL0     O  135   8.770   9.175   9.642  0.2452 -0.1141 -0.5285
    2MOL0     C  136   8.649   9.216   9.580  0.2786  0.2988  0.0412
    2MOL0     C  137   8.614   9.167   9.456  0.5612  0.0581 -0.5489
    2MOL0     C  138   8.500   9.210   9.388  0.6486 -0.5843 -0.2388
    2MOL0     C  139   8.422   9.315   9.448 -0.2919 -0.0900 -0.4125
    2MOL0     O  140   8.306   9.356   9.383  0.3689  0.3459 -0.3759
    2MOL0     C  141   8.216   9.467   9.417  0.3388 -0.1442  0.4488
    2MOL0     C  142   8.086   9.440   9.498 -0.8294  0.4500  0.0552
    2MOL0     C  143   7.970   9.507   9.432  1.1574  0.7126  0.2235
    2MOL0     C  144   7.840   9.499   9.515  0.5965  0.1625 -0.4290
    2MOL0     C  145   7.743   9.613   9.475  0.6804 -0.4428  1.6262
    2MOL0     C  146   7.692   9.593   9.331  0.2841  0.8332  0.3713
    2MOL0     C  147   7.539   9.641   9.317 -0.4299 -0.2955 -0.0114
    2MOL0     C  148   7.433   9.532   9.341  0.0553  0.9719 -0.9236
    2MOL0     N  149   7.299   9.587   9.365 -0.4254  0.1825 -0.4091
    2MOL0     C  150   7.245   9.691   9.432  0.1266  0.1127 -0.1188
    2MOL0     C  151   7.110   9.686   9.421 -0.4315  0.2169 -0.1257
    2MOL0     C  152   7.007   9.769   9.485  0.7317 -0.7368  0.4977
    2MOL0     C  153   6.966   9.722   9.633  0.8474  0.3155  0.2093
    2MOL0     C  154   6.927   9.576   9.646  0.0970  0.7431  0.0980
    2MOL0     C  155   6.913   9.531   9.791 -0.5364 -0.0106 -0.2619
    2MOL0     O  156   6.784   9.562   9.853  0.0519  0.5154 -0.5916
    2MOL0     C  157   6.665   9.506   9.806 -0.6430  0.4285 -0.3036
    2MOL0     C  158   6.538   9.556   9.853  0.0641 -0.7891 -0.3468
    2MOL0     C  159   6.419   9.509   9.803  0.0353  0.0885  0.2044
    2MOL0     C  160   6.412   9.398   9.713 -0.8101 -0.7646 -0.2783
    2MOL0     C  161   6.288   9.335   9.667  0.3756  0.2575  0.5782
    2MOL0     O  162   6.177   9.404   9.695  0.6739  0.0565 -0.5634
    2MOL0     C  163   6.055   9.343   9.657  0.3329  0.3892 -0.3487
    2MOL0     C  164   5.946   9.378   9.740 -0.1823  0.3676  0.4175
    2MOL0     C  165   5.813   9.347   9.706  0.5421  0.2458  0.1219
    2MOL0     C  166   5.779   9.268   9.602  0.5038  0.6084 -0.3452
    2MOL0     O  167   5.646   9.226   9.588  0.0871  0.2433 -0.1153
    2MOL0     C  168   5.605   9.170   9.461 -1.4382  0.3469  0.0723
    2MOL0     C  169   5.458   9.145   9.475  0.0145  0.0657  0.1829
    2MOL0     C  170   5.429   9.025   9.571  0.2434  0.2306  0.9647
    2MOL0     C  171   5.292   9.039   9.616 -0.0539  0.3752 -0.6145
    2MOL0     C  172   5.270   8.954   9.744 -0.5259 -0.5690 -0.5435
    2MOL0     C  173   5.129   8.955   9.799 -0.2511 -0.4876 -0.3539
    2MOL0     C  174   5.065   9.092   9.795 -0.0016 -0.1542 -0.6898
    2MOL0     C  175   4.943   9.099   9.888  0.2515  0.6468  0.0737
    2MOL0    Cl  176   4.805   8.992   9.829  0.1192 -0.0357 -0.2494
    2MOL0     C  177   5.883   9.233   9.511 -0.7710  0.8176 -0.3686
    2MOL0     C  178   6.019   9.266   9.546 -0.1382  0.5977 -0.5796
    2MOL0     O  179   6.292   9.217   9.618  0.4920 -0.4970 -0.3032
    2MOL0     C  180   6.537   9.340   9.679 -0.7708 -0.0675  1.5634
    2MOL0     C  181   6.663   9.392   9.723 -0.8667 -0.2610  0.2890
    2MOL0     N  182   7.090   9.579   9.329  0.0438  0.4270 -0.2724
    2MOL0     N  183   7.199   9.522   9.299 -0.0978  0.4706 -0.4993
    2MOL0     C  184   8.457   9.366   9.574 -0.3979 -0.6031  0.1659
    2MOL0     C  185   8.567   9.308   9.647 -0.7437 -0.4577 -0.4954
    2MOL0     C  186   9.015   9.191   9.651  0.0867 -0.2168 -0.2380
    2MOL0     C  187   9.027   9.056   9.694  0.1695 -0.1216 -0.4427
    2MOL0     C  188   9.137   9.017   9.769  0.8290 -0.1671  0.3288
    2MOL0     C  189   9.246   9.102   9.796  0.9290  0.4590  0.0986
    2MOL0     O  190   9.351   9.041   9.867 -0.2182  0.3976  0.2421
    2MOL0     C  191   9.441   9.126   9.935 -0.9048  0.0413  0.5447
    2MOL0     C  192   9.577   9.052   9.967 -0.3042 -0.1394  0.2614
    2MOL0     C  193   9.634   9.000   9.831  0.1804 -0.5283 -0.0360
    2MOL0     C  194   9.760   8.917   9.845  0.1758  0.2523  0.2153
    2MOL0     C  195   9.869   8.991   9.793  0.4963 -0.4389 -0.0877
    2MOL0     C  196   9.976   9.054   9.763 -0.3788  0.3836 -0.1582
    2MOL0     C  197   9.231   9.236   9.745 -0.4770 -0.4297  0.5186
    2MOL0     C  198   9.127   9.277   9.665 -0.6255  0.5934 -0.0698
    2MOL0     H  199   8.658   9.078   9.412 -0.0325 -0.0496 -0.9291
    2MOL0     H  200   8.479   9.174   9.288  1.2635 -1.2058 -0.1554
    2MOL0     H  201   8.188   9.520   9.325 -0.4254 -2.0519 -0.4571
    2MOL0     H  202   8.273   9.544   9.469  1.3950 -0.8900  0.4301
    2MOL0     H  203   8.098   9.480   9.599  0.3794 -2.7916  1.3139
    2MOL0     H  204   8.080   9.332   9.508 -2.1085  0.5512  0.5784
    2MOL0     H  205   7.948   9.461   9.336 -0.2120  0.0122  0.8416
    2MOL0     H  206   7.987   9.611   9.402 -0.2963  0.7616 -0.4972
    2MOL0     H  207   7.792   9.400   9.512  2.1777 -0.6705  0.3365
    2MOL0     H  208   7.865   9.517   9.620 -0.8192  1.6484 -0.3022
    2MOL0     H  209   7.786   9.711   9.494 -1.5125  0.4678  2.2495
    2MOL0     H  210   7.656   9.608   9.541 -0.9100  1.5335 -0.1929
    2MOL0     H  211   7.700   9.486   9.308 -1.5853  0.7726 -0.1888
    2MOL0     H  212   7.761   9.642   9.262 -0.0349 -0.9400 -1.3250
    2MOL0     H  213   7.518   9.722   9.387 -0.2137 -0.8685  0.7335
    2MOL0     H  214   7.527   9.682   9.217  0.0853 -0.1165 -0.0032
    2MOL0     H  215   7.461   9.471   9.427 -0.5717 -2.1800 -2.7896
    2MOL0     H  216   7.426   9.470   9.251 -0.4666  0.1196 -0.3111
    2MOL0     H  217   7.308   9.757   9.491  1.5894 -1.3905  0.0683
    2MOL0     H  218   6.917   9.771   9.423  0.9610  1.7779  0.1153
    2MOL0     H  219   7.050   9.870   9.485  2.0310 -1.2725 -0.2486
    2MOL0     H  220   6.883   9.785   9.666  2.1313  1.4542  1.3899
    2MOL0     H  221   7.061   9.731   9.685  0.8886 -2.3937  0.7173
    2MOL0     H  222   6.830   9.571   9.597 -0.9386 -0.7590  2.1368
    2MOL0     H  223   7.011   9.521   9.601 -1.2175 -1.5752  0.3110
    2MOL0     H  224   6.994   9.566   9.855  1.3148 -0.9897 -1.9356
    2MOL0     H  225   6.922   9.422   9.798  0.3450  0.0421 -0.4480
    2MOL0     H  226   6.540   9.640   9.921  1.3246 -0.5695 -0.6348
    2MOL0     H  227   6.325   9.550   9.838  0.2908  1.8185 -1.0302
    2MOL0     H  228   5.963   9.437   9.830 -0.4975  3.4683 -1.3949
    2MOL0     H  229   5.735   9.402   9.758 -0.9276  1.4199 -3.1085
    2MOL0     H  230   5.656   9.075   9.441 -0.8547  0.8891 -1.0672
    2MOL0     H  231   5.630   9.234   9.376 -0.0097 -1.0767 -0.6422
    2MOL0     H  232   5.413   9.120   9.379  1.2305 -1.8651  0.0557
    2MOL0     H  233   5.424   9.240   9.516 -1.1392 -1.2722  2.5121
    2MOL0     H  234   5.499   9.046   9.652 -1.2177  2.4566  1.7266
    2MOL0     H  235   5.436   8.927   9.522  0.9842  0.9521 -0.4488
    2MOL0     H  236   5.271   9.143   9.643  0.0416  0.6188 -1.4323
    2MOL0     H  237   5.220   9.013   9.537 -1.0404  1.5041 -0.1181
    2MOL0     H  238   5.338   8.977   9.827  1.7082 -0.9176 -2.1557
    2MOL0     H  239   5.292   8.850   9.717  1.6625 -0.2070 -0.4053
    2MOL0     H  240   5.145   8.931   9.904 -1.2624 -2.4805 -0.6128
    2MOL0     H  241   5.056   8.886   9.755 -2.8884  2.2676 -0.6498
    2MOL0     H  242   5.142   9.161   9.830 -0.3093  0.9197 -2.0348
    2MOL0     H  243   5.044   9.114   9.690 -3.3417 -0.8642 -0.2875
    2MOL0     H  244   4.907   9.202   9.889 -4.0067 -0.6272 -0.7465
    2MOL0     H  245   4.971   9.066   9.989 -0.0092 -2.2297 -0.6874
    2MOL0     H  246   5.863   9.161   9.433 -0.2747 -0.5143  0.6953
    2MOL0     H  247   6.096   9.244   9.473  0.8370  0.6743  0.3979
    2MOL0     H  248   6.527   9.246   9.625 -1.4794  0.7007  0.2912
    2MOL0     H  249   6.758   9.344   9.703 -0.1372  0.0242  2.7320
    2MOL0     H  250   8.391   9.432   9.627 -1.1408 -1.4164  0.2736
    2MOL0     H  251   8.596   9.349   9.743  0.5533  0.4803 -1.2512
    2MOL0     H  252   8.953   8.979   9.675 -0.0252  0.6931 -3.5358
    2MOL0     H  253   9.142   8.913   9.799  0.6433 -0.6849 -1.3484
    2MOL0     H  254   9.405   9.170  10.028 -0.2986  1.3423  0.1891
    2MOL0     H  255   9.474   9.212   9.876  0.2316 -0.7672 -0.0395
    2MOL0     H  256   9.650   9.116  10.017 -2.3293  2.4498  0.1349
    2MOL0     H  257   9.556   8.968  10.034  2.3920 -1.5443 -0.5407
    2MOL0     H  258   9.652   9.082   9.760 -3.2021 -0.6536 -1.2077
    2MOL0     H  259   9.564   8.922   9.801 -0.3668 -0.2214  0.4318
    2MOL0     H  260   9.782   8.893   9.949  1.4195 -2.2158 -0.5255
    2MOL0     H  261   9.749   8.827   9.784 -0.5861  0.0555  0.6251
    2MOL0     H  262  10.068   9.100   9.731  0.2869 -2.0818 -2.1915
    2MOL0     H  263   9.309   9.310   9.759 -2.6054  2.0934 -0.2849
    2MOL0     H  264   9.117   9.375   9.618  1.2534  0.7411 -0.2504
    3MOL0     O  265   0.442   3.770   6.629 -0.6396 -0.5151 -0.3592
    3MOL0     C  266   0.460   3.759   6.749  0.3820  0.0281 -0.2482
    3MOL0     O  267   0.363   3.723   6.842 -0.6554 -0.3597 -0.1254
    3MOL0     C  268   0.240   3.674   6.798  0.1538 -0.3522 -0.3655
    3MOL0     C  269   0.178   3.581   6.875  0.0507  0.6712 -0.0222
    3MOL0     C  270   0.059   3.516   6.836  0.1519 -0.4996  0.7966
    3MOL0     C  271  -0.008   3.566   6.722 -0.6540  0.2475 -0.9005
    3MOL0     O  272  -0.119   3.511   6.669  0.6472  0.5606  0.4621
    3MOL0     C  273  -0.195   3.402   6.735  0.6513 -0.6234  0.0463
    3MOL0     C  274  -0.339   3.403   6.681  0.0150  0.0102 -0.1374
    3MOL0     C  275  -0.412   3.269   6.712 -0.5157  0.1675  0.5106
    3MOL0     C  276  -0.544   3.254   6.636  0.7432 -0.2197 -0.2187
    3MOL0     C  277  -0.657   3.342   6.685 -0.3726 -0.7391  0.1083
    3MOL0     C  278  -0.774   3.338   6.587 -0.2158  0.2975  0.1932
    3MOL0     C  279  -0.916   3.374   6.649  0.0073 -0.0657 -0.1127
    3MOL0     C  280  -0.969   3.255   6.722  0.8870  0.3134 -0.3889
    3MOL0     N  281  -1.079   3.282   6.805 -0.0251  0.0371 -0.1284
    3MOL0     C  282  -1.202   3.240   6.779  0.6514  0.1583 -0.0864
    3MOL0     C  283  -1.276   3.266   6.894 -0.6678 -0.4767 -0.3723
    3MOL0     C  284  -1.419   3.228   6.927  0.4363 -0.5415 -1.0555
    3MOL0     C  285  -1.419   3.072   6.956 -0.2858  0.2025  0.4254
    3MOL0     C  286  -1.459   2.978   6.841 -0.5889 -0.5206  0.3685
    3MOL0     C  287  -1.602   3.003   6.798  0.1787 -0.1552  0.3201
    3MOL0     O  288  -1.650   2.884   6.720  0.1896 -0.1039 -0.6852
    3MOL0     C  289  -1.780   2.852   6.708  0.5624  0.6547 -0.3215
    3MOL0     C  290  -1.888   2.944   6.718 -0.3132  0.1487 -1.5557
    3MOL0     C  291  -2.018   2.895   6.696  0.1740 -0.4796 -0.1692
    3MOL0     C  292  -2.048   2.757   6.662  0.4852 -0.2589 -0.4661
    3MOL0     C  293  -2.191   2.712   6.640  1.1795 -1.5150  0.2991
    3MOL0     O  294  -2.280   2.809   6.613 -0.6014 -1.4883 -0.6632
    3MOL0     C  295  -2.409   2.768   6.575 -1.0512 -0.1770  0.1469
    3MOL0     C  296  -2.443   2.672   6.477 -0.5354 -0.4835  0.1043
    3MOL0     C  297  -2.575   2.638   6.451 -0.1956 -1.2666  0.2768
    3MOL0     C  298  -2.676   2.717   6.513 -0.6680  0.5378  0.3874
    3MOL0     O  299  -2.801   2.675   6.477 -0.2926 -0.1926 -0.7331
    3MOL0     C  300  -2.916   2.761   6.504 -0.2375  0.6301  0.7064
    3MOL0     C  301  -2.982   2.728   6.635  0.7827  0.7219 -0.3508
    3MOL0     C  302  -3.059   2.597   6.632 -0.8150 -0.1280 -0.3486
    3MOL0     C  303  -3.191   2.604   6.558 -0.2271  0.6660 -0.1075
    3MOL0     C  304  -3.307   2.540   6.625 -0.2855  0.3535  0.0077
    3MOL0     C  305  -3.439   2.540   6.538  0.1454  0.8593 -0.0811
    3MOL0     C  306  -3.558   2.490   6.611 -0.1021  0.4716 -0.5639
    3MOL0     C  307  -3.683   2.480   6.518 -0.5865 -0.3112  0.4772
    3MOL0    Cl  308  -3.842   2.457   6.611 -0.1006 -0.0560  0.2703
    3MOL0     C  309  -2.645   2.814   6.608 -0.1307  0.0210 -0.6902
    3MOL0     C  310  -2.511   2.837   6.637 -0.4328 -0.6099  0.7618
    3MOL0     O  311  -2.218   2.597   6.666 -0.7665 -0.4505  0.1233
    3MOL0     C  312  -1.940   2.668   6.664 -0.1499 -0.6233 -0.8413
    3MOL0     C  313  -1.809   2.714   6.679  0.2918 -0.2207 -0.4868
    3MOL0     N  314  -1.189   3.319   6.989  0.3680  0.3804  0.0188
    3MOL0     N  315  -1.070   3.320   6.935 -0.0654 -0.2982 -0.4516
    3MOL0     C  316   0.038   3.682   6.656 -1.1135  0.0211  0.2214
    3MOL0     C  317   0.164   3.731   6.693  0.5877 -0.3363 -0.4880
    3MOL0     C  318   0.597   3.775   6.794  0.2807  0.1718 -0.6007
    3MOL0     C  319   0.703   3.793   6.713 -0.9089 -0.0726  0.0608
    3MOL0     C  320   0.845   3.782   6.750 -0.2334  0.0605 -0.8628
    3MOL0     C  321   0.873   3.761   6.884  0.2383  0.1358  0.2556
    3MOL0     O  322   0.997   3.755   6.940  0.4371  0.4472  0.4646
    3MOL0     C  323   1.100   3.727   6.849  0.7356 -0.0822  0.2254
    3MOL0     C  324   1.224   3.680   6.936 -0.2763  0.1443 -0.0221
    3MOL0     C  325   1.270   3.783   7.034 -0.5471 -0.1460  0.3041
    3MOL0     C  326   1.397   3.733   7.124 -0.2356  0.2757  0.4233
    3MOL0     C  327   1.499   3.655   7.057 -0.1126  0.5572 -0.0488
    3MOL0     C  328   1.571   3.586   6.988 -0.1307  0.8570  0.2816
    3MOL0     C  329   0.767   3.740   6.973 -0.4713  0.2324  0.7740
    3MOL0     C  330   0.632   3.754   6.931  0.6053  0.0807  0.1378
    3MOL0     H  331   0.220   3.552   6.970  3.5312  0.1198 -1.5865
    3MOL0     H  332   0.006   3.444   6.898  0.3022  0.7032  2.3796
    3MOL0     H  333  -0.185   3.406   6.843 -0.3012 -0.5106  0.1375
    3MOL0     H  334  -0.148   3.307   6.706  1.4846 -0.3567  0.4781
    3MOL0     H  335  -0.325   3.429   6.576 -0.0829  2.4787  0.3907
    3MOL0     H  336  -0.395   3.489   6.721  0.0502 -0.6395  1.3866
    3MOL0     H  337  -0.428   3.255   6.819 -0.5558 -0.8968  0.3753
    3MOL0     H  338  -0.345   3.187   6.684 -3.9970 -1.7912 -3.0281
    3MOL0     H  339  -0.535   3.303   6.539 -0.1038 -0.4138 -0.4005
    3MOL0     H  340  -0.574   3.149   6.633 -0.9291  0.1707  1.3483
    3MOL0     H  341  -0.611   3.441   6.682  0.8781 -1.3315 -0.9180
    3MOL0     H  342  -0.682   3.319   6.789 -1.7011  0.7667  0.1561
    3MOL0     H  343  -0.770   3.243   6.532 -0.7287  0.3373  0.0834
    3MOL0     H  344  -0.755   3.415   6.512  0.6433 -1.8128 -1.9294
    3MOL0     H  345  -0.903   3.463   6.711 -0.5341 -0.7793  1.0651
    3MOL0     H  346  -0.979   3.391   6.562 -1.0070 -0.5073  0.5246
    3MOL0     H  347  -0.886   3.214   6.780  1.8993  0.2727 -1.8293
    3MOL0     H  348  -0.995   3.179   6.649  0.1799 -0.0248  0.2018
    3MOL0     H  349  -1.247   3.207   6.686  0.2001 -0.3435  0.3046
    3MOL0     H  350  -1.485   3.260   6.846  2.1444 -0.4725 -2.5015
    3MOL0     H  351  -1.449   3.283   7.016  2.7537 -2.1576  0.8833
    3MOL0     H  352  -1.496   3.045   7.029 -2.4618  0.7345 -1.5193
    3MOL0     H  353  -1.323   3.036   6.994 -1.1307 -1.8304  0.7876
    3MOL0     H  354  -1.397   3.009   6.756 -1.4912 -1.3590 -0.6196
    3MOL0     H  355  -1.450   2.872   6.866  2.2748 -0.6773 -0.8655
    3MOL0     H  356  -1.597   3.091   6.733  2.3510 -0.1526  0.4136
    3MOL0     H  357  -1.672   3.029   6.879  0.3298  2.3147 -0.2485
    3MOL0     H  358  -1.861   3.047   6.736  1.1631 -0.6684  1.6274
    3MOL0     H  359  -2.102   2.963   6.691 -0.7003 -1.6208 -2.5664
    3MOL0     H  360  -2.361   2.630   6.420  1.3210  3.4444 -0.4872
    3MOL0     H  361  -2.604   2.571   6.371  1.0180  0.3750 -1.6645
    3MOL0     H  362  -2.985   2.747   6.421  1.7255 -0.5024 -0.8256
    3MOL0     H  363  -2.896   2.868   6.504 -1.8156  0.9959  2.7202
    3MOL0     H  364  -3.040   2.813   6.672  0.3876  0.6540 -0.8135
    3MOL0     H  365  -2.896   2.733   6.702  0.4555  1.5956  0.0197
    3MOL0     H  366  -3.072   2.563   6.735 -2.4460 -0.7261 -0.7102
    3MOL0     H  367  -3.008   2.511   6.586 -3.1660 -2.9985  1.9933
    3MOL0     H  368  -3.221   2.709   6.545 -1.0542  0.4708  0.1656
    3MOL0     H  369  -3.172   2.558   6.461  1.7810 -1.7949  1.3141
    3MOL0     H  370  -3.316   2.597   6.718 -0.7993 -0.1219  0.2515
    3MOL0     H  371  -3.282   2.436   6.646 -0.9792  0.0377 -0.6916
    3MOL0     H  372  -3.438   2.483   6.444 -1.1387  0.6846  0.0030
    3MOL0     H  373  -3.461   2.643   6.508  0.4547  1.2128  0.8812
    3MOL0     H  374  -3.536   2.394   6.658  2.2373  2.7098  3.4281
    3MOL0     H  375  -3.576   2.559   6.694  0.2696 -0.3577  0.2308
    3MOL0     H  376  -3.675   2.401   6.443  2.1775  1.1767 -0.9658
    3MOL0     H  377  -3.695   2.567   6.452  0.4987 -1.6832 -1.6021
    3MOL0     H  378  -2.724   2.861   6.665  0.6557  0.0538  0.4206
    3MOL0     H  379  -2.484   2.918   6.705 -0.7423 -1.5805  2.0877
    3MOL0     H  380  -1.942   2.564   6.636  1.0171 -0.7588 -0.4929
    3MOL0     H  381  -1.722   2.651   6.669  2.2115  1.9431  1.5223
    3MOL0     H  382  -0.011   3.735   6.575  0.7823 -0.2828 -1.2076
    3MOL0     H  383   0.201   3.819   6.641  1.7615 -0.0523  0.7611
    3MOL0     H  384   0.686   3.819   6.609  0.8399 -0.1552 -0.2730
    3MOL0     H  385   0.920   3.801   6.674 -0.8852  2.0203 -1.0788
    3MOL0     H  386   1.126   3.820   6.796 -1.4774 -0.9024 -2.4982
    3MOL0     H  387   1.070   3.649   6.779  1.4499 -0.2513  0.0918
    3MOL0     H  388   1.204   3.587   6.990  3.6224  0.5626  2.4808
    3MOL0     H  389   1.299   3.667   6.858  1.1418  3.7209  0.5438
    3MOL0     H  390   1.189   3.819   7.097 -1.9405  1.2380 -2.1206
    3MOL0     H  391   1.301   3.876   6.985 -0.5223 -0.6397 -0.6466
    3MOL0     H  392   1.448   3.815   7.175  2.7319 -1.0243 -0.2514
    3MOL0     H  393   1.357   3.666   7.201 -3.7802  0.8788 -0.7158
    3MOL0     H  394   1.625   3.530   6.914 -0.3445 -2.2361  2.3008
    3MOL0     H  395   0.792   3.720   7.077 -1.2050 -0.2277  0.8623
    3MOL0     H  396   0.555   3.763   7.007  1.3156  2.5966  0.6677
    4MOL0     O  397   4.334   4.847   3.950 -0.2117  0.4873  0.5686
    4MOL0     C  398   4.336   4.953   4.012 -0.5562 -0.3397  0.7095
    4MOL0     O  399   4.438   4.991   4.094  0.2380  0.5251 -0.2339
    4MOL0     C  400   4.571   4.959   4.060 -0.4287 -0.3195 -0.8334
    4MOL0     C  401   4.619   4.926   3.931  0.4306  0.0877  0.3528
    4MOL0     C  402   4.759   4.917   3.915  0.1725  0.2421 -0.2084
    4MOL0     C  403   4.853   4.945   4.010  0.1645 -1.1231  0.6014
    4MOL0     O  404   4.990   4.932   3.986  0.5121  0.2240 -0.0347
    4MOL0     C  405   5.070   5.049   3.994 -0.6973  0.7495  0.6472
    4MOL0     C  406   5.208   4.997   3.960 -0.3290  0.4214 -0.0570
    4MOL0     C  407   5.292   5.104   3.907 -0.6930 -0.7688  0.4301
    4MOL0     C  408   5.444   5.059   3.903 -0.3888 -0.7191  0.3350
    4MOL0     C  409   5.542   5.167   3.849 -0.0874 -0.3890 -0.2544
    4MOL0     C  410   5.681   5.100   3.839 -0.3538  0.4792 -0.5802
    4MOL0     C  411   5.796   5.194   3.820  0.1704  0.9226  0.1129
    4MOL0     C  412   5.814   5.279   3.692 -0.4919  0.1485 -0.0527
    4MOL0     N  413   5.797   5.215   3.562  0.0183 -0.2508  0.2545
    4MOL0     C  414   5.863   5.101   3.525  0.0823  0.2104  0.3252
    4MOL0     C  415   5.799   5.061   3.404  0.0307 -0.5820 -0.4843
    4MOL0     C  416   5.840   4.941   3.323  0.6070  0.1627  0.5050
    4MOL0     C  417   5.724   4.893   3.249  0.1074 -0.6235  0.2121
    4MOL0     C  418   5.758   4.762   3.164  0.2522 -0.3606 -0.6926
    4MOL0     C  419   5.626   4.720   3.097 -0.5443  0.5156 -0.0358
    4MOL0     O  420   5.666   4.628   2.991 -0.2543  0.5009  0.9348
    4MOL0     C  421   5.569   4.554   2.941  0.0572  0.5277  0.6873
    4MOL0     C  422   5.431   4.589   2.938 -0.0396 -0.9370  0.6439
    4MOL0     C  423   5.338   4.501   2.885  0.2802  0.6828  0.3519
    4MOL0     C  424   5.383   4.374   2.841  0.0018 -0.3262  0.6561
    4MOL0     C  425   5.284   4.276   2.789 -0.2612 -0.5359  1.1790
    4MOL0     O  426   5.173   4.332   2.727  0.0094 -0.5960  0.2594
    4MOL0     C  427   5.058   4.266   2.710 -0.1654 -0.0771  1.0730
    4MOL0     C  428   5.056   4.151   2.626  0.4867 -0.0487 -0.0497
    4MOL0     C  429   4.936   4.089   2.611  1.0179  0.6810  0.1393
    4MOL0     C  430   4.819   4.125   2.676  1.3925  0.6565  0.5345
    4MOL0     O  431   4.707   4.046   2.655 -0.4175 -0.8507 -0.7765
    4MOL0     C  432   4.578   4.084   2.709 -0.2771 -0.2455 -0.6744
    4MOL0     C  433   4.479   3.979   2.648 -0.6275 -0.1621 -0.5608
    4MOL0     C  434   4.325   4.000   2.664  0.1807 -0.8183  0.4015
    4MOL0     C  435   4.246   3.869   2.641 -0.2432  0.7301  0.0187
    4MOL0     C  436   4.095   3.892   2.631  0.2170  0.6782  0.6188
    4MOL0     C  437   4.025   3.793   2.534  0.5782  1.1406  0.2124
    4MOL0     C  438   3.870   3.820   2.539  0.3377 -0.0001 -0.2855
    4MOL0     C  439   3.799   3.703   2.468  0.0513 -1.7617 -0.0273
    4MOL0    Cl  440   3.850   3.736   2.305 -0.4537  0.6355 -0.5731
    4MOL0     C  441   4.827   4.232   2.766  0.4850  0.0064  0.3110
    4MOL0     C  442   4.939   4.308   2.781 -0.0637 -0.6089  0.3327
    4MOL0     O  443   5.314   4.158   2.791  0.4261 -0.5358 -0.3991
    4MOL0     C  444   5.523   4.339   2.849 -0.0124 -0.0007 -1.2716
    4MOL0     C  445   5.617   4.428   2.893 -0.2382 -0.0355  0.3792
    4MOL0     N  446   5.691   5.148   3.394 -0.5732 -0.6672  0.0114
    4MOL0     N  447   5.695   5.243   3.477 -0.0123  0.0861 -0.3102
    4MOL0     C  448   4.803   4.965   4.141 -0.8412 -0.2983 -0.0644
    4MOL0     C  449   4.670   4.978   4.164  0.7434  0.1271  0.0613
    4MOL0     C  450   4.220   5.036   4.004 -0.5233  0.1021  0.8992
    4MOL0     C  451   4.136   5.025   3.893  0.0495 -0.0237 -0.1945
    4MOL0     C  452   4.033   5.120   3.871  0.5325  0.2859 -0.4337
    4MOL0     C  453   4.012   5.218   3.973 -0.4839  0.4783  0.8090
    4MOL0     O  454   3.919   5.311   3.972  0.2789 -0.5510 -0.3681
    4MOL0     C  455   3.829   5.311   3.858  0.9268 -1.0520 -0.2472
    4MOL0     C  456   3.730   5.432   3.885  0.1867 -0.3842  0.2365
    4MOL0     C  457   3.623   5.395   3.994 -0.5187 -0.1347  0.2411
    4MOL0     C  458   3.540   5.516   4.037  0.0989  0.0192  0.3846
    4MOL0     C  459   3.430   5.481   4.130  0.1454  0.7112 -0.0235
    4MOL0     C  460   3.343   5.457   4.204  0.5956 -0.6147  0.2237
    4MOL0     C  461   4.094   5.223   4.083 -0.0897  0.0262 -0.1028
    4MOL0     C  462   4.199   5.133   4.100  1.3378 -0.7073 -0.2757
    4MOL0     H  463   4.547   4.910   3.851  1.5242 -3.4484 -0.1204
    4MOL0     H  464   4.794   4.884   3.818  1.6462 -1.4671  0.8490
    4MOL0     H  465   5.072   5.102   4.090 -1.2107  0.6580  0.7094
    4MOL0     H  466   5.037   5.122   3.919  0.7250 -0.5823 -1.3921
    4MOL0     H  467   5.200   4.916   3.886  0.1013 -0.4518  0.8337
    4MOL0     H  468   5.252   4.945   4.045 -1.2196 -1.9884 -0.9791
    4MOL0     H  469   5.289   5.189   3.977 -0.1088 -0.2835 -0.1254
    4MOL0     H  470   5.254   5.121   3.807  0.6192 -1.7258 -0.2677
    4MOL0     H  471   5.485   5.025   3.999 -1.2610 -0.2110  0.9016
    4MOL0     H  472   5.435   4.972   3.839  0.2313 -2.5031  2.5427
    4MOL0     H  473   5.555   5.249   3.920  1.5765  0.8885 -1.9350
    4MOL0     H  474   5.498   5.217   3.762  1.2371 -0.1619 -0.8089
    4MOL0     H  475   5.684   5.028   3.758  0.1453 -1.4095  1.0432
    4MOL0     H  476   5.704   5.054   3.935  2.4812  0.9381 -0.9692
    4MOL0     H  477   5.805   5.261   3.906 -1.5565 -0.0900  1.1395
    4MOL0     H  478   5.884   5.129   3.829 -0.3983  0.3749  2.6596
    4MOL0     H  479   5.904   5.341   3.695  0.0748 -0.7068  1.8291
    4MOL0     H  480   5.739   5.359   3.695 -1.5852 -0.8751  0.9587
    4MOL0     H  481   5.945   5.046   3.570  0.4942 -0.1380 -0.8166
    4MOL0     H  482   5.894   4.860   3.372  1.7302  1.5077  1.5726
    4MOL0     H  483   5.917   4.975   3.252 -0.7373  2.0418 -0.1478
    4MOL0     H  484   5.686   4.973   3.184  0.2030  1.4688  2.6108
    4MOL0     H  485   5.646   4.873   3.324  0.7748  2.1371  1.7605
    4MOL0     H  486   5.822   4.792   3.081 -0.0851  2.8006  0.0524
    4MOL0     H  487   5.796   4.676   3.220 -1.4089 -1.0063 -0.4904
    4MOL0     H  488   5.580   4.807   3.049 -0.7233  0.4785  0.0714
    4MOL0     H  489   5.555   4.667   3.161 -1.6622  1.4445 -0.4813
    4MOL0     H  490   5.397   4.691   2.952 -1.8543 -1.5746  1.1245
    4MOL0     H  491   5.232   4.522   2.879 -0.1198 -1.4093 -0.6867
    4MOL0     H  492   5.147   4.103   2.591  1.7481  1.0119  1.5468
    4MOL0     H  493   4.938   3.999   2.550  0.1424  0.5589  0.2821
    4MOL0     H  494   4.549   4.188   2.688 -2.2559 -0.4308  0.8764
    4MOL0     H  495   4.587   4.082   2.818 -1.3411  1.3215 -0.5236
    4MOL0     H  496   4.509   3.889   2.702  0.8377  1.4789  1.5205
    4MOL0     H  497   4.511   3.965   2.544  1.9215  0.9490 -0.0105
    4MOL0     H  498   4.294   4.071   2.588  0.3330  0.0514  1.1323
    4MOL0     H  499   4.313   4.041   2.765  0.7898 -1.7520  0.8737
    4MOL0     H  500   4.270   3.821   2.546 -4.3516 -2.1969  0.1863
    4MOL0     H  501   4.264   3.809   2.730 -0.1925  2.5529  1.2792
    4MOL0     H  502   4.077   3.998   2.609 -0.3903  0.0578 -2.1572
    4MOL0     H  503   4.043   3.871   2.725 -1.3839 -3.0981 -0.8853
    4MOL0     H  504   4.047   3.691   2.567 -0.3779  1.1405  0.8900
    4MOL0     H  505   4.057   3.801   2.429 -0.8912  0.1506 -0.3307
    4MOL0     H  506   3.838   3.820   2.643  2.2477 -1.5875  0.3603
    4MOL0     H  507   3.849   3.913   2.484  1.2882 -0.6703 -1.8466
    4MOL0     H  508   3.690   3.709   2.477  0.3236  0.9577  3.4860
    4MOL0     H  509   3.835   3.607   2.507 -0.5679 -1.6440  0.8469
    4MOL0     H  510   4.736   4.250   2.822  0.4004 -1.7429  0.7732
    4MOL0     H  511   4.951   4.385   2.856  1.4804 -0.1879 -0.3087
    4MOL0     H  512   5.554   4.244   2.806 -2.1001 -0.4651 -1.8851
    4MOL0     H  513   5.721   4.433   2.864 -0.5769  2.3777 -0.7513
    4MOL0     H  514   4.877   4.970   4.220 -0.8167 -2.2327  0.0894
    4MOL0     H  515   4.642   5.000   4.266  4.0901  0.1334  1.0961
    4MOL0     H  516   4.143   4.947   3.818  2.5695  0.2368 -0.3193
    4MOL0     H  517   3.979   5.109   3.778 -0.1403  1.7760 -0.2558
    4MOL0     H  518   3.766   5.222   3.849  1.9139 -1.5855 -2.4103
    4MOL0     H  519   3.883   5.313   3.763  0.3571  1.1639 -0.5768
    4MOL0     H  520   3.797   5.513   3.916 -1.5152  2.0097 -1.8792
    4MOL0     H  521   3.682   5.457   3.790  2.6988 -1.5301 -1.4414
    4MOL0     H  522   3.678   5.354   4.079  0.0570 -0.6162 -0.3565
    4MOL0     H  523   3.552   5.324   3.951 -3.3215  2.7119 -0.1753
    4MOL0     H  524   3.599   5.591   4.090  0.5138 -0.1294  0.1378
    4MOL0     H  525   3.500   5.572   3.952  2.7139  2.0769  0.4010
    4MOL0     H  526   3.263   5.438   4.273  1.9986 -0.1705  2.0636
    4MOL0     H  527   4.089   5.298   4.161 -1.1478  0.2526 -0.3764
    4MOL0     H  528   4.249   5.146   4.195  2.2454 -1.6562 -0.6112
    5MOL0     O  529   6.809   2.322   9.990  0.3456 -0.5482  0.0143
    5MOL0     C  530   6.734   2.252  10.054 -0.4264  0.1805 -0.0447
    5MOL0     O  531   6.769   2.137  10.130 -0.3581  0.6188  0.2221
    5MOL0     C  532   6.902   2.119  10.164 -0.7683  1.0687 -0.3453
    5MOL0     C  533   7.011   2.126  10.079 -0.6894  1.5199 -1.4914
    5MOL0     C  534   7.144   2.105  10.126  0.0324 -0.9902  0.2973
    5MOL0     C  535   7.174   2.069  10.252 -0.4199 -0.4122 -1.0842
    5MOL0     O  536   7.304   2.041  10.287 -0.2864 -0.0685 -0.1876
    5MOL0     C  537   7.411   2.032  10.194 -0.0494 -0.0210  0.3278
    5MOL0     C  538   7.532   1.976  10.273 -0.5242  0.5242  0.2533
    5MOL0     C  539   7.624   2.080  10.343  0.8840  0.2363 -0.3671
    5MOL0     C  540   7.693   2.030  10.471  0.8690 -0.0910  0.0321
    5MOL0     C  541   7.801   2.124  10.526 -0.5988  0.0003  0.4210
    5MOL0     C  542   7.752   2.263  10.568  0.3747 -0.1553  0.4930
    5MOL0     C  543   7.666   2.275  10.697 -0.7532  0.4133  0.6378
    5MOL0     C  544   7.510   2.293  10.674 -0.0089  0.0707 -0.0681
    5MOL0     N  545   7.456   2.400  10.588  0.2379 -0.1526 -0.3564
    5MOL0     C  546   7.404   2.381  10.466 -0.1118  0.8173 -0.1884
    5MOL0     C  547   7.332   2.485  10.426  0.0452 -0.3248 -0.5495
    5MOL0     C  548   7.251   2.500  10.303 -0.5102 -0.2336  0.2662
    5MOL0     C  549   7.110   2.482  10.336  0.1578  0.2153 -0.1623
    5MOL0     C  550   7.013   2.471  10.219 -0.0301  0.5109 -0.6902
    5MOL0     C  551   7.015   2.595  10.132 -0.2697 -0.5171 -0.5161
    5MOL0     O  552   7.004   2.720  10.203 -0.3086 -0.2915 -0.3155
    5MOL0     C  553   6.882   2.764  10.245  1.1316  0.5965 -0.2416
    5MOL0     C  554   6.759   2.706  10.211  0.3309 -1.2288 -1.0757
    5MOL0     C  555   6.643   2.766  10.249  0.5708  0.6558 -0.9427
    5MOL0     C  556   6.642   2.899  10.287  0.8121  0.4164  0.9546
    5MOL0     C  557   6.506   2.967  10.270 -0.1616 -0.0313 -0.1936
    5MOL0     O  558   6.508   3.111  10.270  0.2101 -0.0959 -0.4535
    5MOL0     C  559   6.389   3.181  10.274 -1.0341  0.2555 -0.4366
    5MOL0     C  560   6.371   3.273  10.376  0.2661 -0.5598 -0.0101
    5MOL0     C  561   6.259   3.347  10.383 -1.0326 -0.3518 -1.2953
    5MOL0     C  562   6.152   3.332  10.285  0.7043  0.2488 -0.5798
    5MOL0     O  563   6.033   3.416  10.293  0.1602 -0.0750  0.5508
    5MOL0     C  564   6.017   3.521  10.386  0.2097  0.2923  0.4736
    5MOL0     C  565   5.869   3.550  10.395 -1.1797  0.7774 -0.6496
    5MOL0     C  566   5.816   3.591  10.266  0.3361  0.1517  0.0094
    5MOL0     C  567   5.663   3.595  10.271 -0.0627  0.3718  0.0789
    5MOL0     C  568   5.612   3.642  10.133  0.7912  0.5720 -0.5700
    5MOL0     C  569   5.465   3.660  10.116 -0.0944 -0.4293 -0.1328
    5MOL0     C  570   5.403   3.521  10.118 -0.1985  0.1180 -0.0460
    5MOL0     C  571   5.264   3.514  10.052  0.4867  0.2118 -0.5161
    5MOL0    Cl  572   5.152   3.612  10.152 -0.2474  0.0274 -0.1337
    5MOL0     C  573   6.173   3.242  10.181 -0.5107  0.3965  0.7671
    5MOL0     C  574   6.300   3.177  10.176 -0.7466  0.3253  0.6416
    5MOL0     O  575   6.406   2.893  10.247  0.5820 -0.1688 -0.1872
    5MOL0     C  576   6.763   2.963  10.323  0.2050  0.0430 -0.0340
    5MOL0     C  577   6.882   2.892  10.290  0.5218 -0.4546 -0.6451
    5MOL0     N  578   7.349   2.579  10.525  0.6181  0.0104 -0.9833
    5MOL0     N  579   7.430   2.527  10.616  0.0092 -0.4808  0.0922
    5MOL0     C  580   7.069   2.054  10.344 -0.0306 -1.3254  0.0830
    5MOL0     C  581   6.935   2.089  10.304 -0.4999  0.4396 -0.5625
    5MOL0     C  582   6.595   2.290  10.063 -0.0678 -0.2183  0.2725
    5MOL0     C  583   6.515   2.223  10.161 -0.5450 -0.6377 -0.2088
    5MOL0     C  584   6.380   2.249  10.167 -0.7686 -1.0849 -0.1192
    5MOL0     C  585   6.320   2.345  10.078  0.4144  0.0188 -0.5333
    5MOL0     O  586   6.193   2.395  10.074  0.1893 -0.1934  0.0985
    5MOL0     C  587   6.093   2.293  10.076 -0.2147  1.0976 -0.9376
    5MOL0     C  588   5.961   2.347  10.026 -0.0752 -0.3901 -0.5955
    5MOL0     C  589   5.890   2.432  10.128  0.2011 -0.5366 -0.8836
    5MOL0     C  590   5.748   2.452  10.099  0.7492  0.3535  0.6568
    5MOL0     C  591   5.706   2.539  10.209  0.2272  0.8178  0.1213
    5MOL0     C  592   5.674   2.617  10.290 -0.2202 -1.0168 -0.2499
    5MOL0     C  593   6.398   2.404   9.985  0.3331 -0.5725 -0.1557
    5MOL0     C  594   6.535   2.381   9.971  0.0097 -0.2566 -0.1661
    5MOL0     H  595   6.991   2.142   9.973 -2.2346 -0.7937 -1.6343
    5MOL0     H  596   7.216   2.129  10.048 -1.3412  1.2528 -0.3439
    5MOL0     H  597   7.445   2.128  10.156 -2.3003  0.6970  0.0343
    5MOL0     H  598   7.380   1.962  10.116 -1.6598  0.1032  0.8252
    5MOL0     H  599   7.597   1.925  10.201  0.8564  3.1579 -0.5282
    5MOL0     H  600   7.499   1.904  10.348 -1.8877  1.0161  0.1562
    5MOL0     H  601   7.568   2.167  10.379  2.7293  0.3397  2.5467
    5MOL0     H  602   7.693   2.123  10.270  0.7647 -0.6585 -1.0305
    5MOL0     H  603   7.614   2.025  10.547  1.3786 -0.7221  0.5329
    5MOL0     H  604   7.736   1.930  10.463  3.0244  0.6275  1.6990
    5MOL0     H  605   7.881   2.134  10.451 -2.8782  1.7988 -1.9673
    5MOL0     H  606   7.837   2.072  10.615 -1.9286 -0.7441  0.5399
    5MOL0     H  607   7.700   2.311  10.485 -1.0727 -0.4700  1.1817
    5MOL0     H  608   7.837   2.328  10.592  1.8787 -2.3190  1.3430
    5MOL0     H  609   7.672   2.189  10.765  0.0494 -0.7520 -0.8495
    5MOL0     H  610   7.704   2.361  10.752  0.9012 -0.7550  1.3993
    5MOL0     H  611   7.467   2.305  10.774 -2.8183  0.6171 -1.2576
    5MOL0     H  612   7.458   2.203  10.639  0.2300  0.0506 -0.3704
    5MOL0     H  613   7.415   2.297  10.398  1.4240  1.0346 -0.2501
    5MOL0     H  614   7.283   2.421  10.234 -0.9426 -2.8174  2.8012
    5MOL0     H  615   7.278   2.600  10.268  0.4167 -0.7600 -0.6011
    5MOL0     H  616   7.060   2.556  10.400 -0.2139 -0.7436  0.6755
    5MOL0     H  617   7.112   2.384  10.384  2.3687  0.1408 -0.3147
    5MOL0     H  618   7.040   2.372  10.181 -1.5384 -0.9865  1.9217
    5MOL0     H  619   6.910   2.456  10.254 -1.1721  0.3420 -3.7505
    5MOL0     H  620   6.933   2.581  10.062 -0.5956  0.0525 -0.2498
    5MOL0     H  621   7.112   2.587  10.082  0.4920 -0.7519  0.9533
    5MOL0     H  622   6.754   2.605  10.170  1.1065 -2.0085  0.6531
    5MOL0     H  623   6.544   2.722  10.238  0.2612  1.8362 -3.5935
    5MOL0     H  624   6.451   3.285  10.449  1.7551  0.6141 -1.7511
    5MOL0     H  625   6.261   3.421  10.462  1.1892  0.4292 -2.0319
    5MOL0     H  626   6.073   3.612  10.362  0.1908  0.5727  1.4519
    5MOL0     H  627   6.058   3.495  10.484 -0.5940 -3.1610  0.0458
    5MOL0     H  628   5.853   3.633  10.464  0.3448  0.4916  0.0981
    5MOL0     H  629   5.814   3.458  10.416 -1.1120  0.7414 -0.6270
    5MOL0     H  630   5.847   3.523  10.186  0.4088 -2.6745  2.2761
    5MOL0     H  631   5.854   3.692  10.246 -2.2976  1.4292  1.0385
    5MOL0     H  632   5.625   3.496  10.301 -0.3640  0.2028 -0.8101
    5MOL0     H  633   5.639   3.668  10.349 -1.8244  0.2434 -0.3107
    5MOL0     H  634   5.651   3.576  10.055  0.7056 -0.1837  0.0110
    5MOL0     H  635   5.660   3.739  10.121  1.0447  0.8628  2.0631
    5MOL0     H  636   5.452   3.699  10.014 -1.1862 -1.3758 -0.3796
    5MOL0     H  637   5.413   3.731  10.181  0.0279 -0.8431  0.4229
    5MOL0     H  638   5.464   3.442  10.072 -0.5446 -1.4621  2.0632
    5MOL0     H  639   5.401   3.493  10.224  0.1662 -0.8469 -0.2812
    5MOL0     H  640   5.238   3.412  10.023 -3.9420  1.4492 -1.7241
    5MOL0     H  641   5.270   3.565   9.956  0.6191  0.4835 -0.3645
    5MOL0     H  642   6.102   3.234  10.099  0.4302  1.7773 -0.2182
    5MOL0     H  643   6.319   3.117  10.087  1.6410  1.7202  0.1117
    5MOL0     H  644   6.780   3.068  10.346  2.7641 -0.3156  0.0499
    5MOL0     H  645   6.980   2.934  10.309  0.3677 -0.6243  0.5997
    5MOL0     H  646   7.096   2.027  10.446  2.1455  0.9190  0.1935
    5MOL0     H  647   6.862   2.103  10.383  3.1863  0.9650  3.1247
    5MOL0     H  648   6.555   2.150  10.231 -2.4889 -1.7480 -0.1818
    5MOL0     H  649   6.326   2.204  10.250 -2.0606  0.0425 -0.3114
    5MOL0     H  650   6.089   2.250  10.176  3.8462 -5.5492 -2.9983
    5MOL0     H  651   6.121   2.206  10.017  2.0878  1.4048 -0.3823
    5MOL0     H  652   5.987   2.411   9.941  2.2815  2.5845  2.1023
    5MOL0     H  653   5.897   2.266   9.989  1.7330 -2.8570  1.2926
    5MOL0     H  654   5.943   2.528  10.128 -2.9398  1.3049 -0.1930
    5MOL0     H  655   5.903   2.394  10.230  1.0534 -0.3437 -0.9119
    5MOL0     H  656   5.729   2.493   9.999  0.8621 -0.4626  0.2929
    5MOL0     H  657   5.690   2.359  10.110 -2.5207  2.0670 -0.7546
    5MOL0     H  658   5.641   2.702  10.346 -1.0786 -0.2679 -1.8029
    5MOL0     H  659   6.342   2.474   9.924  1.4056 -0.6981 -1.3038
    5MOL0     H  660   6.587   2.427   9.888 -0.5006  0.6580  0.0130
    6MOL0     O  661   3.822   4.958   3.654  0.0501  0.2749  0.1141
    6MOL0     C  662   3.811   4.872   3.571 -0.2691  0.8755 -0.5086
    6MOL0     O  663   3.913   4.814   3.506  0.1393  0.4867 -0.6244
    6MOL0     C  664   4.044   4.854   3.524  0.4227 -0.6034 -0.1678
    6MOL0     C  665   4.134   4.765   3.555  0.0832  0.1096 -0.2439
    6MOL0     C  666   4.267   4.801   3.579 -0.3261 -0.7619  0.2976
    6MOL0     C  667   4.306   4.941   3.573 -0.1978  0.0452  0.5560
    6MOL0     O  668   4.434   4.985   3.598 -0.5557 -0.1050  0.0280
    6MOL0     C  669   4.545   4.890   3.583  0.6418 -0.2096  0.4407
    6MOL0     C  670   4.669   4.966   3.566  0.0393  1.0368 -0.1523
    6MOL0     C  671   4.790   4.869   3.551 -0.7442 -0.6647 -0.3176
    6MOL0     C  672   4.916   4.959   3.559 -0.5027 -0.0998  0.4109
    6MOL0     C  673   5.049   4.877   3.545  0.5036 -0.6705 -0.9310
    6MOL0     C  674   5.169   4.969   3.562 -0.7298 -0.2912  0.0317
    6MOL0     C  675   5.310   4.916   3.566 -0.6774  0.4593  0.0515
    6MOL0     C  676   5.378   4.895   3.426 -0.3434 -0.6175  0.4827
    6MOL0     N  677   5.307   4.818   3.327  0.3367  0.2006  0.0835
    6MOL0     C  678   5.248   4.692   3.345  0.0388 -0.3215 -0.3485
    6MOL0     C  679   5.201   4.660   3.223 -0.1799 -0.8541 -0.3566
    6MOL0     C  680   5.139   4.531   3.186  0.4571  0.4452  0.7605
    6MOL0     C  681   4.985   4.532   3.174  0.4284  0.4317 -0.0203
    6MOL0     C  682   4.908   4.593   3.297  0.1332 -0.2648 -0.3653
    6MOL0     C  683   4.752   4.572   3.294 -0.5939 -0.1729 -0.2835
    6MOL0     O  684   4.708   4.438   3.272  0.3474  0.0028  0.7279
    6MOL0     C  685   4.574   4.425   3.279 -0.3374 -1.1986  0.1429
    6MOL0     C  686   4.529   4.298   3.282  0.4981  0.5003  0.6728
    6MOL0     C  687   4.390   4.267   3.298 -0.0809  0.4443  0.0472
    6MOL0     C  688   4.297   4.372   3.310  0.6241 -1.1514  0.4549
    6MOL0     C  689   4.159   4.339   3.329  0.2452  0.2618  0.2458
    6MOL0     O  690   4.078   4.450   3.348  0.1312 -0.2578  0.2500
    6MOL0     C  691   3.953   4.420   3.374 -0.4878  0.0318  0.9004
    6MOL0     C  692   3.868   4.353   3.277  0.0388 -0.0612 -0.6308
    6MOL0     C  693   3.746   4.291   3.318 -0.5594  0.4105  0.6017
    6MOL0     C  694   3.704   4.300   3.446  0.1839 -0.1505 -0.3888
    6MOL0     O  695   3.581   4.227   3.460 -0.3721 -0.1220 -0.5654
    6MOL0     C  696   3.600   4.119   3.554  0.2352  0.6370  0.0903
    6MOL0     C  697   3.488   4.012   3.541 -0.0432  0.9827  0.0563
    6MOL0     C  698   3.362   4.065   3.611 -0.3178  0.8577  0.7707
    6MOL0     C  699   3.255   3.941   3.618 -0.3530 -0.0749 -0.2060
    6MOL0     C  700   3.130   3.979   3.697  0.5389  0.3156  0.9419
    6MOL0     C  701   3.153   4.007   3.846  0.5054 -0.5144  0.3043
    6MOL0     C  702   3.031   4.069   3.910 -0.6327 -0.7069  0.3837
    6MOL0     C  703   3.039   4.080   4.061 -0.5441 -0.0690  0.3944
    6MOL0    Cl  704   3.032   3.912   4.118 -0.1049  0.5928 -0.4365
    6MOL0     C  705   3.789   4.355   3.541  0.3894 -1.2298 -0.0648
    6MOL0     C  706   3.913   4.416   3.512  0.5635  0.0526  0.3420
    6MOL0     O  707   4.124   4.219   3.324  0.8170  0.7283  0.5039
    6MOL0     C  708   4.342   4.504   3.306  0.0282 -0.2266  0.6656
    6MOL0     C  709   4.481   4.535   3.292 -0.6043  0.1684 -0.0861
    6MOL0     N  710   5.223   4.765   3.136 -0.2142  0.2835  0.1372
    6MOL0     N  711   5.286   4.861   3.204  0.0489 -0.1109  0.5327
    6MOL0     C  712   4.208   5.037   3.552 -0.2644 -0.4929  0.1369
    6MOL0     C  713   4.080   4.993   3.524  0.7985 -0.3912  0.4227
    6MOL0     C  714   3.676   4.823   3.545 -0.8510  0.4734  0.3313
    6MOL0     C  715   3.557   4.897   3.577 -1.1077  0.0480  0.2768
    6MOL0     C  716   3.436   4.828   3.563 -0.2240 -0.0843  0.2440
    6MOL0     C  717   3.421   4.702   3.515 -0.0452 -0.5921 -0.0264
    6MOL0     O  718   3.291   4.648   3.515 -0.4158  0.4283  0.3526
    6MOL0     C  719   3.277   4.514   3.480 -0.6480 -0.3964  0.1861
    6MOL0     C  720   3.129   4.471   3.479 -0.6703  0.0448  0.4089
    6MOL0     C  721   3.071   4.458   3.623 -0.0609  1.4217  0.7209
    6MOL0     C  722   2.939   4.384   3.603  0.0511 -0.1586 -0.0987
    6MOL0     C  723   2.856   4.380   3.731  0.2200  0.1417  1.1647
    6MOL0     C  724   2.783   4.367   3.828 -0.2890  0.1620  0.0856
    6MOL0     C  725   3.545   4.632   3.483 -0.7039 -0.2573 -0.3603
    6MOL0     C  726   3.670   4.700   3.488 -0.3069  0.0031 -0.5005
    6MOL0     H  727   4.108   4.659   3.563 -0.1191  0.1299 -0.6058
    6MOL0     H  728   4.348   4.731   3.592 -1.4530 -2.4332 -1.2421
    6MOL0     H  729   4.547   4.837   3.487  2.5132  1.9520 -0.8168
    6MOL0     H  730   4.543   4.810   3.658 -1.1518 -0.1431  0.5117
    6MOL0     H  731   4.671   5.023   3.660 -0.6078 -0.6207  0.9197
    6MOL0     H  732   4.646   5.026   3.478 -1.0102 -0.8216 -1.1912
    6MOL0     H  733   4.774   4.802   3.466 -0.2758 -2.2892  0.8080
    6MOL0     H  734   4.800   4.794   3.631 -0.4411 -1.3334 -0.9658
    6MOL0     H  735   4.895   5.030   3.479 -2.2130  0.0038  0.9192
    6MOL0     H  736   4.924   5.014   3.654  0.2070  0.3618  0.0936
    6MOL0     H  737   5.050   4.824   3.449  0.5595 -0.0847 -1.2593
    6MOL0     H  738   5.062   4.806   3.628 -0.3183  0.9722  0.6825
    6MOL0     H  739   5.142   5.030   3.649 -5.5117  0.7564 -1.8581
    6MOL0     H  740   5.166   5.048   3.486 -0.4108  0.5817  0.8893
    6MOL0     H  741   5.367   4.986   3.628  1.4122 -1.1206  0.0286
    6MOL0     H  742   5.317   4.814   3.604 -0.1745 -0.5994 -2.6670
    6MOL0     H  743   5.477   4.851   3.443 -0.0541 -0.0796  0.2223
    6MOL0     H  744   5.399   4.992   3.380 -2.0173 -1.6439 -2.8311
    6MOL0     H  745   5.254   4.623   3.428  2.5967 -1.4470 -1.3510
    6MOL0     H  746   5.154   4.454   3.262 -1.2353 -2.2342 -1.4371
    6MOL0     H  747   5.178   4.494   3.090  0.8947 -0.3533  1.2423
    6MOL0     H  748   4.945   4.432   3.156 -0.0035  1.0215 -2.7977
    6MOL0     H  749   4.961   4.597   3.090 -0.3262  2.1188  1.4231
    6MOL0     H  750   4.942   4.548   3.391 -0.7949 -1.5463 -0.6251
    6MOL0     H  751   4.946   4.695   3.305  0.2105 -0.3706  0.7299
    6MOL0     H  752   4.712   4.642   3.221 -1.9163 -1.6515 -1.0360
    6MOL0     H  753   4.725   4.594   3.398  2.5438  0.9899  0.3925
    6MOL0     H  754   4.604   4.220   3.281  0.0276 -0.0197 -1.5296
    6MOL0     H  755   4.376   4.160   3.307  0.4661  0.4882  1.8294
    6MOL0     H  756   3.886   4.342   3.170  2.9436  0.4420 -0.2728
    6MOL0     H  757   3.687   4.246   3.238  0.1168 -0.0262  0.3318
    6MOL0     H  758   3.603   4.158   3.657 -0.6625  2.7025 -0.6074
    6MOL0     H  759   3.695   4.072   3.530  0.1978 -0.2931  1.6246
    6MOL0     H  760   3.523   3.919   3.586 -1.6716  0.8445  1.1065
    6MOL0     H  761   3.471   3.996   3.434 -0.6492 -0.5881  0.3628
    6MOL0     H  762   3.317   4.153   3.563 -0.9858  1.5609  2.5928
    6MOL0     H  763   3.390   4.098   3.712 -1.5662 -1.5692  1.9825
    6MOL0     H  764   3.233   3.902   3.518  1.7870  0.1377 -0.8216
    6MOL0     H  765   3.302   3.855   3.666 -1.3249 -0.8167 -0.5587
    6MOL0     H  766   3.065   3.891   3.705  0.4129  0.5495  3.0623
    6MOL0     H  767   3.071   4.057   3.649  0.8519 -0.2052 -0.3166
    6MOL0     H  768   3.232   4.083   3.848 -1.5645  1.7565  2.2861
    6MOL0     H  769   3.191   3.913   3.890  1.9102 -1.2511 -2.2829
    6MOL0     H  770   3.011   4.170   3.873 -1.4095 -0.2188  2.0240
    6MOL0     H  771   2.942   4.009   3.885 -0.7254 -1.0633  1.4924
    6MOL0     H  772   2.950   4.133   4.097  0.5251  1.0004  1.5456
    6MOL0     H  773   3.129   4.131   4.096 -2.2719  2.2984  1.7057
    6MOL0     H  774   3.748   4.337   3.640  1.7475 -1.3204  0.5021
    6MOL0     H  775   3.983   4.464   3.579  1.3648 -2.4264  1.3680
    6MOL0     H  776   4.277   4.590   3.315 -1.4091 -1.4359  2.4708
    6MOL0     H  777   4.514   4.637   3.308  3.3337 -0.9144 -0.0681
    6MOL0     H  778   4.225   5.144   3.553 -0.8648 -0.3860 -0.4216
    6MOL0     H  779   4.013   5.063   3.474  2.4026 -0.8685 -2.6338
    6MOL0     H  780   3.554   4.997   3.619 -0.3776 -0.4704  1.6362
    6MOL0     H  781   3.343   4.876   3.592  0.2216  0.7359  0.3377
    6MOL0     H  782   3.330   4.449   3.551  0.4218  0.0594 -0.1724
    6MOL0     H  783   3.307   4.500   3.376 -0.9730 -2.2304  0.2907
    6MOL0     H  784   3.072   4.547   3.425 -1.3815  0.0112  1.0999
    6MOL0     H  785   3.120   4.374   3.429 -0.8796 -0.2377  0.9949
    6MOL0     H  786   3.053   4.557   3.665  0.5739  2.4592 -1.3367
    6MOL0     H  787   3.134   4.394   3.686 -2.1105 -0.8757  0.5867
    6MOL0     H  788   2.873   4.418   3.523  3.5764 -0.1973 -3.3046
    6MOL0     H  789   2.971   4.284   3.573  1.0748  0.0519  0.2754
    6MOL0     H  790   2.717   4.379   3.911 -0.9773  0.2952 -0.4672
    6MOL0     H  791   3.541   4.539   3.427 -0.2232 -0.1824 -0.5207
    6MOL0     H  792   3.757   4.654   3.442 -1.7722 -1.7586 -1.6579
    7MOL0     O  793   7.707   5.807   9.696 -0.3792  0.2106  0.0395
    7MOL0     C  794   7.712   5.796   9.573  0.4662 -0.3037  0.4045
    7MOL0     O  795   7.622   5.733   9.499 -0.0216  0.2599  0.3031
    7MOL0     C  796   7.517   5.665   9.553 -0.2706  0.1230  0.6642
    7MOL0     C  797   7.441   5.716   9.660 -0.5241 -0.5287  0.5145
    7MOL0     C  798   7.341   5.638   9.709 -0.2753  0.5702 -0.1845
    7MOL0     C  799   7.298   5.518   9.649 -0.2014 -0.6404  0.1221
    7MOL0     O  800   7.182   5.450   9.681 -0.0389  0.5999  0.3576
    7MOL0     C  801   7.132   5.465   9.818  0.0575  0.4371 -0.7998
    7MOL0     C  802   7.016   5.374   9.850  0.0248 -1.1088  0.8271
    7MOL0     C  803   6.904   5.396   9.758  0.5863 -1.1712  0.9283
    7MOL0     C  804   6.795   5.289   9.756 -0.1093 -0.4764 -0.1489
    7MOL0     C  805   6.686   5.341   9.666 -1.4078  0.4155 -1.3170
    7MOL0     C  806   6.590   5.238   9.619  0.0518 -0.6145 -0.2007
    7MOL0     C  807   6.447   5.305   9.611 -0.1813 -0.9354 -1.5531
    7MOL0     C  808   6.384   5.320   9.746  0.8143 -0.2045 -0.3348
    7MOL0     N  809   6.323   5.195   9.789 -0.0870  0.1316 -0.1434
    7MOL0     C  810   6.209   5.131   9.747 -0.0935  0.5597  0.0281
    7MOL0     C  811   6.198   5.022   9.824 -0.0875 -0.6622 -0.3531
    7MOL0     C  812   6.094   4.913   9.821  0.6684 -0.4209  0.1418
    7MOL0     C  813   5.967   4.949   9.890  0.3608 -0.2268  0.0316
    7MOL0     C  814   5.875   5.048   9.807 -0.2330  0.0024  0.0299
    7MOL0     C  815   5.732   5.050   9.862 -0.6701  0.2681  0.0620
    7MOL0     O  816   5.654   5.119   9.757 -0.5835 -0.1417 -0.0731
    7MOL0     C  817   5.513   5.127   9.777 -0.8169  1.2339 -0.4536
    7MOL0     C  818   5.435   5.072   9.888 -0.4207  0.9523  0.5068
    7MOL0     C  819   5.295   5.098   9.901  0.1036 -0.0177 -0.0645
    7MOL0     C  820   5.233   5.179   9.810  0.7563  0.6611 -0.0827
    7MOL0     C  821   5.095   5.223   9.822 -0.3686  0.8187 -0.6300
    7MOL0     O  822   5.033   5.190   9.940  0.7049  1.1185  0.1073
    7MOL0     C  823   4.907   5.234   9.957  0.3292  0.7890 -0.3467
    7MOL0     C  824   4.795   5.163   9.915  0.2418  0.2389  0.3099
    7MOL0     C  825   4.669   5.204   9.958  0.1739 -0.2875  0.8464
    7MOL0     C  826   4.654   5.321  10.025  0.8707 -0.4794  0.1740
    7MOL0     O  827   4.533   5.373  10.056  0.4536  0.5356 -0.0438
    7MOL0     C  828   4.432   5.282  10.107  0.1244 -0.3876 -0.4089
    7MOL0     C  829   4.312   5.366  10.166 -0.7184 -0.3779  0.9776
    7MOL0     C  830   4.179   5.292  10.164  0.2478 -0.4924  0.1112
    7MOL0     C  831   4.064   5.379  10.218  0.4841  0.1393  0.8363
    7MOL0     C  832   3.924   5.319  10.182  0.3404  0.5496 -0.4417
    7MOL0     C  833   3.897   5.187  10.261  0.2194  0.4251 -0.1631
    7MOL0     C  834   3.864   5.199  10.407 -1.0874 -0.3290  0.7491
    7MOL0     C  835   3.904   5.074  10.478 -0.2410  0.4037  0.1532
    7MOL0    Cl  836   3.837   4.929  10.388 -0.0996 -0.2814 -0.0720
    7MOL0     C  837   4.760   5.395  10.061 -0.9226  0.5357  0.2123
    7MOL0     C  838   4.889   5.355  10.030  0.2166  0.1402  1.2051
    7MOL0     O  839   5.042   5.290   9.732  0.6227 -0.2400 -0.2593
    7MOL0     C  840   5.304   5.218   9.695  0.6162 -0.9339 -0.1347
    7MOL0     C  841   5.444   5.195   9.678 -0.6952  0.1188 -0.3248
    7MOL0     N  842   6.300   5.024   9.917  0.2666  0.1329 -0.4136
    7MOL0     N  843   6.376   5.123   9.889 -0.6367 -0.4560 -0.0862
    7MOL0     C  844   7.380   5.466   9.543  0.8368 -0.6514 -0.2882
    7MOL0     C  845   7.491   5.541   9.499  0.9228 -0.4731 -0.3826
    7MOL0     C  846   7.819   5.858   9.497 -0.2114  0.5347  0.6999
    7MOL0     C  847   7.884   5.973   9.545 -0.4209 -0.4230  0.6527
    7MOL0     C  848   8.000   6.020   9.470  0.6839 -0.2024  0.2953
    7MOL0     C  849   8.037   5.962   9.353  0.3179  0.9242  0.4605
    7MOL0     O  850   8.134   6.003   9.274  0.2388 -0.9904  0.7114
    7MOL0     C  851   8.265   6.027   9.333 -0.4535  0.0483  0.6611
    7MOL0     C  852   8.324   5.892   9.377  0.0495  0.2889 -0.3714
    7MOL0     C  853   8.336   5.802   9.250 -0.0202  0.1174  0.1362
    7MOL0     C  854   8.384   5.653   9.250  0.3663 -0.4344 -0.0615
    7MOL0     C  855   8.285   5.570   9.314 -0.5645 -0.5497  0.3338
    7MOL0     C  856   8.190   5.506   9.345  0.6469 -0.4750 -0.8451
    7MOL0     C  857   7.965   5.855   9.316  0.2089  0.1977  0.3141
    7MOL0     C  858   7.864   5.798   9.378 -0.1658 -0.4935 -0.5615
    7MOL0     H  859   7.458   5.815   9.701  1.5235 -0.9051  0.6725
    7MOL0     H  860   7.276   5.684   9.783 -0.2013  2.2233 -1.1118
    7MOL0     H  861   7.104   5.570   9.833  1.5802  0.7939 -0.2249
    7MOL0     H  862   7.216   5.446   9.885 -0.1580 -0.6934 -0.8403
    7MOL0     H  863   6.982   5.369   9.954 -0.9697  1.5788  0.7081
    7MOL0     H  864   7.051   5.273   9.826  4.3375 -0.0799  1.9470
    7MOL0     H  865   6.932   5.415   9.654 -3.1515  0.3877  0.0264
    7MOL0     H  866   6.865   5.493   9.790  1.0360 -0.2181 -1.2153
    7MOL0     H  867   6.835   5.189   9.740  0.7174 -0.7584  3.0330
    7MOL0     H  868   6.746   5.273   9.853 -0.1065 -3.0053 -0.4960
    7MOL0     H  869   6.734   5.369   9.571  0.2334 -0.4410 -0.7905
    7MOL0     H  870   6.626   5.421   9.711 -2.4759  0.2617 -2.4090
    7MOL0     H  871   6.599   5.149   9.682  2.1255  0.9968  1.9696
    7MOL0     H  872   6.614   5.210   9.515 -1.4983  4.0981 -2.0792
    7MOL0     H  873   6.443   5.405   9.566 -5.1381 -0.3935 -0.5693
    7MOL0     H  874   6.381   5.238   9.555 -1.9666  0.3343 -1.0847
    7MOL0     H  875   6.303   5.394   9.740 -0.6848 -1.8491 -1.4988
    7MOL0     H  876   6.447   5.349   9.830  1.0750  1.7771 -1.1458
    7MOL0     H  877   6.133   5.163   9.676 -1.4291 -0.2521  1.0309
    7MOL0     H  878   6.128   4.829   9.883  0.7066  0.1373  0.8791
    7MOL0     H  879   6.067   4.889   9.717 -0.0273 -1.8556  0.6261
    7MOL0     H  880   5.990   4.987   9.990  5.5286 -0.7419 -0.6669
    7MOL0     H  881   5.904   4.862   9.910  1.1408 -0.1073  3.5586
    7MOL0     H  882   5.908   5.152   9.805  1.9024 -0.6359 -0.3557
    7MOL0     H  883   5.879   5.018   9.703 -1.0858 -0.5386  0.1389
    7MOL0     H  884   5.730   5.106   9.956  3.9521  1.0081 -0.0634
    7MOL0     H  885   5.700   4.945   9.866 -0.2419 -0.0835 -2.9569
    7MOL0     H  886   5.494   5.012   9.957 -2.0443 -1.7923 -0.3397
    7MOL0     H  887   5.236   5.051   9.978  2.3855 -2.1646  0.4929
    7MOL0     H  888   4.816   5.065   9.875 -0.1619  1.0327 -2.0229
    7MOL0     H  889   4.582   5.141   9.938  0.2613 -0.6863  1.6700
    7MOL0     H  890   4.465   5.216  10.188 -0.1245  1.7470  1.5027
    7MOL0     H  891   4.402   5.228  10.016  2.4348  0.8935 -2.0409
    7MOL0     H  892   4.304   5.459  10.109  0.7234 -0.3008  0.8542
    7MOL0     H  893   4.327   5.402  10.268  0.7294  4.0785 -0.5213
    7MOL0     H  894   4.185   5.210  10.236  0.6959 -1.8054 -1.3977
    7MOL0     H  895   4.156   5.266  10.061 -0.8186  1.9955 -0.3622
    7MOL0     H  896   4.068   5.385  10.327  2.5393 -0.4706  0.8322
    7MOL0     H  897   4.080   5.479  10.177  0.7211 -0.4881 -0.6880
    7MOL0     H  898   3.922   5.305  10.073 -0.7113  0.7483 -0.4565
    7MOL0     H  899   3.849   5.395  10.205 -0.7750 -0.9131  0.9818
    7MOL0     H  900   3.977   5.115  10.246  0.8494  1.3027 -1.1753
    7MOL0     H  901   3.812   5.142  10.207  0.7308 -1.3973  0.4833
    7MOL0     H  902   3.908   5.289  10.451 -1.3833 -0.9036  2.2638
    7MOL0     H  903   3.756   5.215  10.414 -1.2789  0.3404 -2.3345
    7MOL0     H  904   3.861   5.065  10.579 -1.4086 -1.9586 -0.4712
    7MOL0     H  905   4.012   5.065  10.489 -0.4548 -2.0437  0.9842
    7MOL0     H  906   4.746   5.488  10.115  2.3916 -0.0107  2.3105
    7MOL0     H  907   4.979   5.411  10.051  1.7649 -1.6810 -0.2874
    7MOL0     H  908   5.252   5.275   9.619 -0.9968  1.4617  2.5258
    7MOL0     H  909   5.490   5.231   9.587 -0.3694 -2.0731 -1.0906
    7MOL0     H  910   7.345   5.372   9.502  1.0342 -1.2924  0.9527
    7MOL0     H  911   7.558   5.506   9.421  0.3028 -1.5319 -0.4637
    7MOL0     H  912   7.856   6.011   9.642  0.4714 -2.6707  1.8694
    7MOL0     H  913   8.072   6.095   9.503  0.6209 -0.7436  1.7278
    7MOL0     H  914   8.256   6.104   9.410 -3.9200  2.5482 -1.9243
    7MOL0     H  915   8.338   6.074   9.266 -0.6523 -0.0356  0.3836
    7MOL0     H  916   8.421   5.904   9.426  0.9344 -2.7907 -1.0913
    7MOL0     H  917   8.250   5.863   9.452 -1.2256  1.4590 -1.1427
    7MOL0     H  918   8.398   5.851   9.175 -1.2452 -0.0130 -1.0048
    7MOL0     H  919   8.240   5.801   9.197  0.1231  0.3346 -0.1318
    7MOL0     H  920   8.377   5.621   9.146  0.4411 -2.9273  0.6498
    7MOL0     H  921   8.485   5.635   9.288  0.9868  1.5769 -0.6028
    7MOL0     H  922   8.114   5.443   9.385  0.5467  0.6888  0.8649
    7MOL0     H  923   8.002   5.805   9.227  0.0640 -1.0167  0.9144
    7MOL0     H  924   7.820   5.704   9.345  0.0621 -1.8769  2.7165
    8MOL0     O  925   5.282   9.972   1.947 -0.4955 -0.3203 -0.9112
    8MOL0     C  926   5.372  10.051   1.916 -0.4354  0.4923 -0.5480
    8MOL0     O  927   5.381  10.176   1.962  0.1418 -0.0383 -0.0501
    8MOL0     C  928   5.271  10.233   2.022 -0.1671  0.4338 -0.9773
    8MOL0     C  929   5.204  10.340   1.957 -1.0621  0.1208 -0.2768
    8MOL0     C  930   5.092  10.393   2.025  0.3836  0.0646 -0.2847
    8MOL0     C  931   5.049  10.348   2.148 -0.2573  0.9358 -0.0329
    8MOL0     O  932   4.942  10.390   2.213 -0.3102  0.0702  0.5147
    8MOL0     C  933   4.917  10.532   2.218  0.0112  0.5770  0.3733
    8MOL0     C  934   4.787  10.560   2.144  0.2181  0.4981  0.5596
    8MOL0     C  935   4.661  10.480   2.176  0.4561 -0.0229 -0.2790
    8MOL0     C  936   4.549  10.527   2.096 -0.0278 -0.4856  0.4686
    8MOL0     C  937   4.428  10.500   2.184  0.7246 -0.3994  0.4695
    8MOL0     C  938   4.303  10.541   2.099  0.4580 -0.3528 -0.1927
    8MOL0     C  939   4.173  10.520   2.184  0.3266  0.2361  0.6923
    8MOL0     C  940   4.049  10.580   2.105 -0.2743 -0.5410  0.6769
    8MOL0     N  941   3.933  10.524   2.166  0.4911 -0.0962  1.4788
    8MOL0     C  942   3.855  10.584   2.260  0.4573  0.4138 -0.1515
    8MOL0     C  943   3.746  10.503   2.279  0.3043  0.2162  0.0287
    8MOL0     C  944   3.641  10.524   2.384 -0.2429 -0.3731  1.1213
    8MOL0     C  945   3.576  10.402   2.439  0.9172 -0.3616  0.1687
    8MOL0     C  946   3.461  10.445   2.532  0.6551  0.2788 -0.9114
    8MOL0     C  947   3.361  10.325   2.545 -0.1550  0.1441 -0.4631
    8MOL0     O  948   3.318  10.296   2.415  0.7577 -0.3224 -0.1214
    8MOL0     C  949   3.190  10.242   2.393  0.1386  0.1603  0.1956
    8MOL0     C  950   3.117  10.166   2.485 -1.6800  0.4328 -0.1345
    8MOL0     C  951   3.002  10.103   2.450  0.5147  0.4552  0.3241
    8MOL0     C  952   2.945  10.123   2.325  0.2514 -0.7175 -0.1198
    8MOL0     C  953   2.810  10.073   2.296  0.3184  0.6261 -0.1180
    8MOL0     O  954   2.746   9.991   2.391 -0.2262 -0.2744  0.4989
    8MOL0     C  955   2.624   9.928   2.368  0.9887  0.8499 -0.2999
    8MOL0     C  956   2.531   9.937   2.472 -0.1102 -0.5751 -0.6240
    8MOL0     C  957   2.396   9.897   2.457  0.3502 -0.1925  0.6371
    8MOL0     C  958   2.349   9.852   2.329  0.0234 -0.0682 -0.3619
    8MOL0     O  959   2.210   9.822   2.313  0.0173  0.2106 -0.1862
    8MOL0     C  960   2.182   9.759   2.184  0.1967 -0.8170 -0.0032
    8MOL0     C  961   2.031   9.749   2.159  0.5841  0.3968 -0.1686
    8MOL0     C  962   1.962   9.640   2.247 -0.1872 -0.3677  0.8414
    8MOL0     C  963   1.816   9.637   2.200 -0.6763  0.5823 -0.1741
    8MOL0     C  964   1.734   9.521   2.267 -0.4825  0.1825 -0.0557
    8MOL0     C  965   1.589   9.508   2.230 -0.7117  0.1502 -0.1086
    8MOL0     C  966   1.524   9.392   2.301 -0.1023 -0.2346 -1.1047
    8MOL0     C  967   1.403   9.443   2.396 -0.1355 -0.3651  0.9068
    8MOL0    Cl  968   1.296   9.301   2.417 -0.4184  0.0606 -0.2363
    8MOL0     C  969   2.446   9.850   2.226  0.5306  0.2075  0.4994
    8MOL0     C  970   2.575   9.883   2.246 -0.0057  0.5424  0.3630
    8MOL0     O  971   2.764  10.106   2.191 -0.7795  0.7600 -0.0239
    8MOL0     C  972   3.017  10.203   2.231 -0.8054  0.4903  0.4691
    8MOL0     C  973   3.148  10.259   2.268 -0.4096  0.5180  0.3816
    8MOL0     N  974   3.756  10.399   2.200 -1.0131  0.2929 -0.5528
    8MOL0     N  975   3.866  10.407   2.125  0.1737 -0.1677  0.0807
    8MOL0     C  976   5.126  10.253   2.216 -0.7029  0.2446  0.3736
    8MOL0     C  977   5.234  10.193   2.153 -0.7720  0.2352 -0.7317
    8MOL0     C  978   5.481   9.988   1.840 -0.3291  0.0028  0.1016
    8MOL0     C  979   5.502   9.854   1.829 -0.2538  1.1724 -0.4408
    8MOL0     C  980   5.603   9.796   1.756  0.5403 -0.8933  0.3123
    8MOL0     C  981   5.698   9.884   1.704 -0.0856 -0.4237 -0.5455
    8MOL0     O  982   5.807   9.854   1.627 -0.2431 -0.5421 -0.4494
    8MOL0     C  983   5.853   9.716   1.626 -0.2388  0.5426  0.7266
    8MOL0     C  984   5.992   9.708   1.568 -0.8658  0.0703 -0.5067
    8MOL0     C  985   6.043   9.566   1.536  0.2582 -0.1869  0.5600
    8MOL0     C  986   6.105   9.482   1.645  0.8826 -0.1008 -0.6607
    8MOL0     C  987   6.198   9.557   1.734 -0.5677  0.9204 -0.0930
    8MOL0     C  988   6.268   9.617   1.822  0.5808 -0.6586  0.1198
    8MOL0     C  989   5.683  10.028   1.716 -0.0189  0.1949 -0.9984
    8MOL0     C  990   5.580  10.081   1.790 -0.5709  0.4068  0.1528
    8MOL0     H  991   5.238  10.386   1.865  2.4432  0.0104  0.8167
    8MOL0     H  992   5.045  10.475   1.972  0.0777 -0.0091 -0.1300
    8MOL0     H  993   5.009  10.583   2.186  2.7634 -1.4767  4.1842
    8MOL0     H  994   4.909  10.558   2.324 -0.6814 -1.3263  0.8161
    8MOL0     H  995   4.802  10.527   2.041 -0.8825  4.5627 -1.1185
    8MOL0     H  996   4.758  10.665   2.146 -1.4808  0.0837  0.1357
    8MOL0     H  997   4.642  10.500   2.282 -1.4880  1.0614 -0.7886
    8MOL0     H  998   4.675  10.373   2.163 -1.7076 -0.3107 -0.6380
    8MOL0     H  999   4.555  10.637   2.095 -1.3983 -0.3127  2.5950
    8MOL0     H 1000   4.550  10.503   1.990 -1.1321 -0.3050  0.4006
    8MOL0     H 1001   4.431  10.550   2.281  0.1199 -2.8085  1.8256
    8MOL0     H 1002   4.412  10.393   2.199  1.3403 -0.9248 -2.1350
    8MOL0     H 1003   4.305  10.478   2.009  0.0883  1.5630 -1.6079
    8MOL0     H 1004   4.315  10.649   2.089  1.5151 -0.2697  1.6135
    8MOL0     H 1005   4.161  10.411   2.192  2.2339 -0.2895 -2.1762
    8MOL0     H 1006   4.184  10.553   2.287 -2.5118 -1.7748  1.7953
    8MOL0     H 1007   4.054  10.553   1.999 -2.3422  0.7269  0.1897
    8MOL0     H 1008   4.064  10.688   2.093  0.1078 -0.3004  2.8582
    8MOL0     H 1009   3.882  10.679   2.306 -0.6451  0.2357  0.8938
    8MOL0     H 1010   3.564  10.563   2.317  0.8000 -1.5747 -0.8745
    8MOL0     H 1011   3.681  10.598   2.453  1.4425  1.0493 -1.2208
    8MOL0     H 1012   3.649  10.349   2.501  2.6286  1.6085 -0.0684
    8MOL0     H 1013   3.549  10.331   2.361  0.1489  0.8120 -0.6715
    8MOL0     H 1014   3.497  10.474   2.632  0.6852  0.1037 -0.8698
    8MOL0     H 1015   3.417  10.538   2.496  0.4839 -0.1090 -1.7142
    8MOL0     H 1016   3.270  10.359   2.595 -1.0720 -0.6566 -1.5277
    8MOL0     H 1017   3.401  10.234   2.591 -0.3396 -0.0949 -0.7727
    8MOL0     H 1018   3.152  10.158   2.587 -3.1932  0.4420  0.4196
    8MOL0     H 1019   2.950  10.042   2.523 -1.7645 -1.6675 -2.8051
    8MOL0     H 1020   2.565   9.972   2.568 -1.2957 -0.8739 -0.0759
    8MOL0     H 1021   2.330   9.914   2.541 -0.9494  0.1053 -0.4214
    8MOL0     H 1022   2.230   9.663   2.165  1.6797  0.0133 -0.6424
    8MOL0     H 1023   2.228   9.820   2.106  2.3710 -1.6248  0.5592
    8MOL0     H 1024   2.017   9.725   2.054 -0.8230  0.3935  0.0028
    8MOL0     H 1025   1.992   9.849   2.179 -0.8212 -0.5913  2.6020
    8MOL0     H 1026   1.989   9.647   2.353  2.0515  2.8413  0.2121
    8MOL0     H 1027   2.005   9.542   2.223 -1.6672 -0.7405 -0.4206
    8MOL0     H 1028   1.770   9.731   2.228 -1.1416  0.1399  0.5713
    8MOL0     H 1029   1.826   9.633   2.091  1.8900 -2.0275  0.0112
    8MOL0     H 1030   1.738   9.537   2.375  0.7761  0.7817 -0.1754
    8MOL0     H 1031   1.798   9.434   2.249  0.9104  0.3975  3.1766
    8MOL0     H 1032   1.576   9.490   2.123 -0.2393  1.6165 -0.4435
    8MOL0     H 1033   1.547   9.606   2.255  0.2484  0.3751  0.6953
    8MOL0     H 1034   1.476   9.325   2.229 -0.0884 -0.8180 -0.5759
    8MOL0     H 1035   1.593   9.327   2.354  1.1326 -0.8954 -3.3875
    8MOL0     H 1036   1.349   9.524   2.346 -0.0343  0.5079  2.1610
    8MOL0     H 1037   1.436   9.477   2.495  1.1560  2.9321 -0.5059
    8MOL0     H 1038   2.435   9.815   2.124  2.2135  1.1999 -0.0665
    8MOL0     H 1039   2.654   9.878   2.172 -1.6405 -0.7219 -1.3563
    8MOL0     H 1040   2.987  10.226   2.129  0.4206  3.6811  0.7245
    8MOL0     H 1041   3.211  10.316   2.201 -2.0503  0.5067 -1.2293
    8MOL0     H 1042   5.096  10.223   2.315  0.7256  0.3335  0.8398
    8MOL0     H 1043   5.289  10.110   2.197  0.6411  1.9367  0.8809
    8MOL0     H 1044   5.443   9.785   1.888  2.7726  0.2933  1.8103
    8MOL0     H 1045   5.609   9.688   1.748  0.4997 -0.8500 -0.2934
    8MOL0     H 1046   5.776   9.659   1.575 -3.5020  1.7190  3.9038
    8MOL0     H 1047   5.861   9.684   1.731  0.4369  2.0275  1.1603
    8MOL0     H 1048   5.993   9.767   1.477  4.7098  3.2965  1.1828
    8MOL0     H 1049   6.063   9.765   1.629 -0.6752  0.1638 -0.8161
    8MOL0     H 1050   6.118   9.580   1.457 -0.8483  0.1705 -0.4403
    8MOL0     H 1051   5.970   9.506   1.482 -0.0629  2.1064 -1.7402
    8MOL0     H 1052   6.018   9.450   1.702  0.5008 -0.0626 -1.2094
    8MOL0     H 1053   6.159   9.397   1.602  1.4375 -0.3883  0.5564
    8MOL0     H 1054   6.311   9.678   1.898 -1.6981 -0.2233  1.1479
    8MOL0     H 1055   5.754  10.102   1.680 -0.7027  0.8328 -1.0693
    8MOL0     H 1056   5.589  10.186   1.816 -0.8487 -0.1156  2.5909
    9MOL0     O 1057  10.472   8.417   8.442 -0.6397  0.5385 -0.5441
    9MOL0     C 1058  10.495   8.378   8.328 -0.3907  0.6269  0.2861
    9MOL0     O 1059  10.417   8.400   8.217  0.0916 -0.1189 -0.2266
    9MOL0     C 1060  10.297   8.462   8.208  0.6090  0.2028 -0.1378
    9MOL0     C 1061  10.207   8.424   8.108  0.1001  0.1565 -0.6332
    9MOL0     C 1062  10.094   8.505   8.075 -0.5663  0.8500 -0.0548
    9MOL0     C 1063  10.074   8.633   8.140 -0.1391  0.2172  0.6890
    9MOL0     O 1064   9.979   8.711   8.081  0.2690 -0.0546  1.0052
    9MOL0     C 1065   9.931   8.819   8.155  0.1320 -0.0402 -0.2568
    9MOL0     C 1066   9.795   8.879   8.097 -0.6165  1.0108 -0.2098
    9MOL0     C 1067   9.831   9.010   8.020 -0.0228  0.6013 -0.5424
    9MOL0     C 1068   9.895   8.966   7.887 -0.6654  0.4673 -0.6192
    9MOL0     C 1069   9.927   9.091   7.800  0.1662  0.4857 -0.7039
    9MOL0     C 1070   9.807   9.174   7.767  0.2602  0.0302  0.5971
    9MOL0     C 1071   9.837   9.260   7.645 -0.4764  0.4798 -0.9055
    9MOL0     C 1072   9.721   9.356   7.604 -0.1624 -0.3192  0.6203
    9MOL0     N 1073   9.585   9.317   7.641 -0.6315 -0.3081  0.6011
    9MOL0     C 1074   9.524   9.220   7.565 -0.8812 -0.3781 -0.9697
    9MOL0     C 1075   9.408   9.194   7.626 -0.2615 -0.2604 -0.5078
    9MOL0     C 1076   9.302   9.102   7.576 -0.0776  0.1781  0.8706
    9MOL0     C 1077   9.208   9.169   7.479  0.7050  0.1202 -0.2319
    9MOL0     C 1078   9.148   9.302   7.526  0.0328  0.2435  0.1743
    9MOL0     C 1079   9.014   9.325   7.455 -0.1882 -0.2610 -0.0714
    9MOL0     O 1080   8.985   9.469   7.468  0.2267 -0.5120 -0.5977
    9MOL0     C 1081   8.863   9.519   7.429  0.2290 -0.6168  0.0277
    9MOL0     C 1082   8.822   9.635   7.490  0.2889 -0.0666  0.2091
    9MOL0     C 1083   8.705   9.695   7.456  0.8058 -0.6415  0.8224
    9MOL0     C 1084   8.610   9.629   7.372  0.4749  1.1246 -1.0844
    9MOL0     C 1085   8.472   9.687   7.352  0.2447  0.2350  0.4495
    9MOL0     O 1086   8.410   9.636   7.244 -0.7433  0.3356  0.2415
    9MOL0     C 1087   8.300   9.693   7.194  0.2921  0.2155  0.2475
    9MOL0     C 1088   8.179   9.691   7.262 -0.4621 -0.0012 -0.2783
    9MOL0     C 1089   8.060   9.754   7.224  0.4332 -0.6721 -0.2538
    9MOL0     C 1090   8.059   9.810   7.092  0.4380  0.2615 -0.9425
    9MOL0     O 1091   7.939   9.833   7.016  0.6916  0.7247  0.6116
    9MOL0     C 1092   7.807   9.804   7.075  0.2123  0.1152 -0.5088
    9MOL0     C 1093   7.761   9.931   7.160 -0.2917  0.2667 -0.2295
    9MOL0     C 1094   7.630   9.899   7.237 -0.2935 -0.2829  0.0924
    9MOL0     C 1095   7.521   9.845   7.146 -0.3973 -0.8254 -0.4262
    9MOL0     C 1096   7.383   9.834   7.212  0.5063 -0.2036  0.5208
    9MOL0     C 1097   7.281   9.762   7.117 -0.5402 -0.2557  1.0188
    9MOL0     C 1098   7.129   9.751   7.169  0.5609 -0.7314 -0.0655
    9MOL0     C 1099   7.042   9.671   7.078 -0.1764  0.8114 -0.5546
    9MOL0    Cl 1100   7.114   9.502   7.057 -0.3449 -0.1305  0.1322
    9MOL0     C 1101   8.180   9.812   7.022 -0.4750 -0.3689  0.4945
    9MOL0     C 1102   8.304   9.764   7.070 -0.2115 -0.1365 -1.1176
    9MOL0     O 1103   8.442   9.789   7.404  0.1044 -0.0764  0.8819
    9MOL0     C 1104   8.656   9.513   7.308  0.2408  0.1766  0.0193
    9MOL0     C 1105   8.773   9.450   7.339  0.3318 -0.1064 -0.4182
    9MOL0     N 1106   9.397   9.278   7.733  0.2851 -0.7335 -0.0929
    9MOL0     N 1107   9.512   9.350   7.750  0.5039 -0.2229  0.2639
    9MOL0     C 1108  10.161   8.669   8.250  0.2864  0.4992  1.0956
    9MOL0     C 1109  10.267   8.585   8.273 -0.0508  0.5245 -0.4111
    9MOL0     C 1110  10.620   8.297   8.306 -0.0027  0.3035 -0.4325
    9MOL0     C 1111  10.713   8.260   8.406 -0.0771 -0.3595  0.9613
    9MOL0     C 1112  10.830   8.183   8.384  0.6913  0.7575 -0.1535
    9MOL0     C 1113  10.862   8.144   8.253 -0.1394  0.6442 -0.7827
    9MOL0     O 1114  10.980   8.085   8.215 -0.2322  0.0002 -0.5214
    9MOL0     C 1115  11.079   8.039   8.313  0.1357 -0.3203  0.5126
    9MOL0     C 1116  11.165   7.922   8.268 -0.0406  0.3593 -0.2188
    9MOL0     C 1117  11.258   7.888   8.382  1.0630 -0.3901  1.1118
    9MOL0     C 1118  11.366   7.801   8.334  0.7487 -0.7923  0.1869
    9MOL0     C 1119  11.455   7.762   8.435 -0.3962  0.0716 -0.8193
    9MOL0     C 1120  11.531   7.716   8.521 -0.3114 -1.0424  0.4401
    9MOL0     C 1121  10.770   8.171   8.152 -0.4311 -0.0194 -0.2027
    9MOL0     C 1122  10.643   8.226   8.186  0.4806 -0.0303  0.4531
    9MOL0     H 1123  10.228   8.334   8.052  4.2814  1.4380 -1.4928
    9MOL0     H 1124  10.020   8.464   8.007  0.2752  0.9512 -1.0521
    9MOL0     H 1125  10.010   8.894   8.163  1.5462 -1.6771  4.5440
    9MOL0     H 1126   9.908   8.792   8.259  1.2536  2.1030  0.6152
    9MOL0     H 1127   9.726   8.899   8.179  0.2652 -0.7451  1.0378
    9MOL0     H 1128   9.743   8.810   8.029 -1.5361 -0.5322  1.9533
    9MOL0     H 1129   9.903   9.072   8.075  2.4767 -3.1128  0.7352
    9MOL0     H 1130   9.736   9.060   7.999 -1.4097 -1.3219  0.8468
    9MOL0     H 1131   9.988   8.915   7.913 -0.3585  1.5081  0.4503
    9MOL0     H 1132   9.827   8.902   7.831 -1.1588 -0.9834  1.5012
    9MOL0     H 1133   9.977   9.049   7.713 -0.7682  1.7795 -1.8979
    9MOL0     H 1134   9.997   9.165   7.840 -0.3173  0.8858 -0.5956
    9MOL0     H 1135   9.786   9.231   7.857 -0.0179 -0.1543  0.6498
    9MOL0     H 1136   9.730   9.108   7.726  1.6294 -2.2885  1.5542
    9MOL0     H 1137   9.931   9.311   7.666 -0.7474 -0.6739  4.8104
    9MOL0     H 1138   9.848   9.187   7.564  0.1946 -1.6590  0.9885
    9MOL0     H 1139   9.732   9.364   7.496  1.1279 -2.9834  0.4629
    9MOL0     H 1140   9.741   9.455   7.647  1.9741  0.7959 -2.5404
    9MOL0     H 1141   9.555   9.163   7.478 -0.3104 -4.1779  1.4812
    9MOL0     H 1142   9.240   9.080   7.663 -1.8513 -2.0664 -0.8614
    9MOL0     H 1143   9.352   9.010   7.544  1.7428  1.9672 -1.8716
    9MOL0     H 1144   9.119   9.107   7.464 -0.5266  1.6444  0.3992
    9MOL0     H 1145   9.262   9.181   7.385  1.1669 -2.1806 -0.3280
    9MOL0     H 1146   9.131   9.299   7.634  0.5142 -2.2204  0.2433
    9MOL0     H 1147   9.214   9.389   7.514  2.2238 -0.8939  2.9270
    9MOL0     H 1148   8.937   9.262   7.502 -0.2088 -0.9147 -0.9627
    9MOL0     H 1149   9.023   9.283   7.355 -0.4392 -0.6373  0.0604
    9MOL0     H 1150   8.882   9.666   7.575 -0.0020  0.7733  0.1241
    9MOL0     H 1151   8.680   9.781   7.518 -1.5476 -0.7752  0.1624
    9MOL0     H 1152   8.189   9.650   7.362  1.1565  1.0801  0.0540
    9MOL0     H 1153   7.972   9.744   7.286  0.3972 -1.3643 -0.4165
    9MOL0     H 1154   7.807   9.713   7.136 -1.3401  0.8979  0.7145
    9MOL0     H 1155   7.736   9.780   6.995 -1.2823 -2.0856  1.3571
    9MOL0     H 1156   7.763  10.011   7.084 -0.2830  0.3736 -0.1177
    9MOL0     H 1157   7.848   9.945   7.225 -0.4324 -0.1538  0.0478
    9MOL0     H 1158   7.596   9.989   7.289  0.7918 -1.7247  3.5928
    9MOL0     H 1159   7.653   9.823   7.312  0.2744 -0.4189 -0.2110
    9MOL0     H 1160   7.506   9.907   7.057 -1.1193 -0.7908 -0.2879
    9MOL0     H 1161   7.553   9.744   7.118  1.0792 -0.1086 -1.3986
    9MOL0     H 1162   7.335   9.927   7.241 -0.8323 -1.0004  0.9542
    9MOL0     H 1163   7.390   9.758   7.290  2.4568 -1.8054 -1.1089
    9MOL0     H 1164   7.313   9.660   7.092  0.7607  0.6865 -1.5014
    9MOL0     H 1165   7.278   9.824   7.027 -1.2387 -1.1028  0.4301
    9MOL0     H 1166   7.127   9.707   7.269 -2.0724 -2.1603 -0.6627
    9MOL0     H 1167   7.088   9.851   7.178  0.7996 -0.3967 -2.1935
    9MOL0     H 1168   7.018   9.707   6.977 -3.1311  1.4923  0.3037
    9MOL0     H 1169   6.946   9.658   7.129 -0.1737  2.3596 -0.0997
    9MOL0     H 1170   8.170   9.852   6.921 -1.0773 -0.9196  0.3299
    9MOL0     H 1171   8.399   9.777   7.020  0.2351  0.8177 -0.0775
    9MOL0     H 1172   8.582   9.459   7.250  1.8282 -1.7621 -0.2814
    9MOL0     H 1173   8.798   9.355   7.292 -2.1589 -0.7214 -0.6091
    9MOL0     H 1174  10.152   8.761   8.307 -0.0184  1.7378 -0.8701
    9MOL0     H 1175  10.344   8.608   8.346 -2.0545 -2.5616  3.0179
    9MOL0     H 1176  10.692   8.307   8.501 -4.2935 -0.0231  0.0296
    9MOL0     H 1177  10.898   8.166   8.467  0.6276 -0.6410 -0.3735
    9MOL0     H 1178  11.034   8.006   8.407 -2.2151 -1.5685 -0.9439
    9MOL0     H 1179  11.135   8.132   8.330 -3.3487  2.1507 -0.4759
    9MOL0     H 1180  11.104   7.833   8.250  0.8274 -0.5772  1.2826
    9MOL0     H 1181  11.219   7.944   8.175  2.2028 -2.9298  0.1686
    9MOL0     H 1182  11.203   7.821   8.450  1.0746 -2.6252 -0.9280
    9MOL0     H 1183  11.290   7.984   8.424  2.0651 -0.4648  0.5525
    9MOL0     H 1184  11.318   7.708   8.303 -1.9446 -0.5844  3.1867
    9MOL0     H 1185  11.424   7.846   8.253 -0.3327  0.3793  0.0175
    9MOL0     H 1186  11.594   7.670   8.595  0.9838 -0.8817 -0.5178
    9MOL0     H 1187  10.798   8.131   8.055 -0.7015 -1.4107  0.2614
    9MOL0     H 1188  10.572   8.240   8.105  2.3319 -1.8812 -1.6101
   10MOL0     O 1189   6.040   2.117   6.726 -0.2085 -0.0141  0.3375
   10MOL0     C 1190   6.132   2.066   6.659 -0.2909 -0.4222  0.2188
   10MOL0     O 1191   6.164   1.931   6.658  0.0440 -0.4699 -0.0598
   10MOL0     C 1192   6.067   1.850   6.697  0.0500  0.7703 -0.3770
   10MOL0     C 1193   6.079   1.775   6.814 -0.4746  0.2432 -0.3663
   10MOL0     C 1194   5.974   1.697   6.862  0.6693 -0.5859  0.8216
   10MOL0     C 1195   5.853   1.696   6.790 -0.3887  0.3900  0.0882
   10MOL0     O 1196   5.753   1.628   6.845  0.0666 -0.1787  0.6484
   10MOL0     C 1197   5.694   1.525   6.759  0.6408  0.7013  0.0230
   10MOL0     C 1198   5.648   1.401   6.839  0.2850  0.2930  0.9959
   10MOL0     C 1199   5.558   1.432   6.961  0.2850  0.0912 -0.7344
   10MOL0     C 1200   5.528   1.310   7.060 -0.2525  0.0817 -0.1414
   10MOL0     C 1201   5.480   1.183   6.978 -0.0479  0.3794 -0.5577
   10MOL0     C 1202   5.437   1.063   7.075  0.6578 -0.2124  0.4513
   10MOL0     C 1203   5.409   0.933   6.993  0.6491 -0.1776 -0.9331
   10MOL0     C 1204   5.410   0.810   7.072  0.0809 -0.7970  0.4348
   10MOL0     N 1205   5.286   0.795   7.147  0.1533  0.1372  0.1283
   10MOL0     C 1206   5.160   0.760   7.106 -0.9844 -0.4279  0.0226
   10MOL0     C 1207   5.083   0.739   7.211  0.4095 -0.9268 -0.0224
   10MOL0     C 1208   4.934   0.702   7.201 -0.8425 -0.4544 -0.4718
   10MOL0     C 1209   4.847   0.826   7.214 -0.0182  0.2058 -0.0143
   10MOL0     C 1210   4.812   0.856   7.362 -0.3880 -0.0304 -0.4087
   10MOL0     C 1211   4.704   0.759   7.415 -0.5009 -0.8534  0.1016
   10MOL0     O 1212   4.583   0.782   7.340  0.6939  0.5074 -0.1068
   10MOL0     C 1213   4.470   0.723   7.388 -1.3635  0.4886  1.0400
   10MOL0     C 1214   4.463   0.625   7.493  0.1668 -0.1703 -0.3003
   10MOL0     C 1215   4.342   0.595   7.547 -0.4140 -0.6526 -0.0765
   10MOL0     C 1216   4.227   0.653   7.504  1.5288 -0.9738  1.2501
   10MOL0     C 1217   4.089   0.623   7.555  0.1238  0.1734  0.3172
   10MOL0     O 1218   4.082   0.559   7.679  0.2567 -0.3370  0.2286
   10MOL0     C 1219   3.974   0.488   7.714  0.4211 -0.4897  0.9374
   10MOL0     C 1220   3.956   0.352   7.676 -0.2194  0.0701 -0.2112
   10MOL0     C 1221   3.843   0.281   7.708  0.1157  0.1230  0.7688
   10MOL0     C 1222   3.739   0.349   7.777  0.1184  0.2117  0.1365
   10MOL0     O 1223   3.636   0.264   7.791 -0.0882 -0.1585 -0.6166
   10MOL0     C 1224   3.508   0.309   7.835 -0.6607 -0.1962 -0.2564
   10MOL0     C 1225   3.394   0.205   7.844 -1.3578  0.0434  0.6124
   10MOL0     C 1226   3.274   0.263   7.908  0.5453 -0.6866  0.1135
   10MOL0     C 1227   3.145   0.187   7.869 -0.1913  0.5263 -0.3802
   10MOL0     C 1228   3.023   0.231   7.933 -0.2651  0.3484 -0.7546
   10MOL0     C 1229   2.919   0.113   7.947  0.5936 -0.1686  0.8906
   10MOL0     C 1230   2.788   0.164   8.025 -0.1951  0.0203  0.1657
   10MOL0     C 1231   2.739   0.306   8.000 -0.2426 -0.3601 -0.1500
   10MOL0    Cl 1232   2.588   0.311   8.092 -0.1173  0.2383 -0.1999
   10MOL0     C 1233   3.749   0.484   7.814 -0.0437 -0.4752 -0.0238
   10MOL0     C 1234   3.866   0.553   7.784  0.1658  0.5165  0.0510
   10MOL0     O 1235   3.990   0.663   7.487  0.1709  0.2133 -0.1582
   10MOL0     C 1236   4.230   0.745   7.392 -0.4630 -0.4034 -0.0031
   10MOL0     C 1237   4.354   0.771   7.330 -0.0630  0.0196 -0.6178
   10MOL0     N 1238   5.153   0.769   7.325  0.1558 -0.3233  0.1621
   10MOL0     N 1239   5.280   0.810   7.282  0.6641 -0.3187 -0.9511
   10MOL0     C 1240   5.847   1.763   6.665  0.2997 -0.1239  0.7454
   10MOL0     C 1241   5.950   1.837   6.625 -0.5252  0.8656  0.0748
   10MOL0     C 1242   6.215   2.159   6.581  0.1677  0.0597 -0.5741
   10MOL0     C 1243   6.340   2.109   6.541 -0.0680  0.8082  0.4362
   10MOL0     C 1244   6.420   2.186   6.454 -0.5063  0.1808 -0.3779
   10MOL0     C 1245   6.374   2.314   6.414 -0.1303  0.3976 -1.5809
   10MOL0     O 1246   6.436   2.383   6.322 -0.2747  0.5299 -0.8384
   10MOL0     C 1247   6.516   2.316   6.216  1.2786 -0.2582 -0.1684
   10MOL0     C 1248   6.671   2.352   6.233  0.4235  0.2582 -0.3732
   10MOL0     C 1249   6.768   2.297   6.126  0.7614  0.5290  0.0399
   10MOL0     C 1250   6.884   2.395   6.105 -0.2970 -0.6910 -0.8779
   10MOL0     C 1251   6.978   2.359   5.999 -0.6994 -0.3330 -0.2463
   10MOL0     C 1252   7.054   2.323   5.910  0.5408  0.4038  0.0293
   10MOL0     C 1253   6.255   2.365   6.469 -0.1395  0.0855 -0.4097
   10MOL0     C 1254   6.173   2.289   6.543 -0.8951 -0.0593  0.3908
   10MOL0     H 1255   6.168   1.789   6.874 -0.4772  1.1195 -0.5465
   10MOL0     H 1256   5.969   1.640   6.954 -0.9045  0.5212  1.4526
   10MOL0     H 1257   5.767   1.495   6.683 -0.2653 -1.1124 -0.2081
   10MOL0     H 1258   5.613   1.576   6.706  0.5830  2.4540  1.7144
   10MOL0     H 1259   5.734   1.345   6.876 -0.5471 -1.5327  0.2831
   10MOL0     H 1260   5.592   1.333   6.773 -2.3549  1.0121  2.3750
   10MOL0     H 1261   5.461   1.464   6.921 -0.2636 -0.7674 -0.1456
   10MOL0     H 1262   5.594   1.517   7.019  0.8052  1.2349 -2.6306
   10MOL0     H 1263   5.618   1.284   7.118 -1.3336 -1.0736  1.0918
   10MOL0     H 1264   5.447   1.330   7.130  1.1059 -3.4403  2.7999
   10MOL0     H 1265   5.570   1.134   6.939 -0.2980 -0.6303  0.0860
   10MOL0     H 1266   5.393   1.201   6.915 -0.2652 -0.2627 -0.4426
   10MOL0     H 1267   5.347   1.101   7.125  1.5803  1.5831  0.8233
   10MOL0     H 1268   5.526   1.050   7.138  1.0774 -0.0908 -0.1071
   10MOL0     H 1269   5.314   0.942   6.939  1.8682  0.1591 -3.1072
   10MOL0     H 1270   5.483   0.925   6.914  1.9984 -1.7159  0.3990
   10MOL0     H 1271   5.492   0.830   7.141  0.9693 -0.4929 -0.6798
   10MOL0     H 1272   5.433   0.723   7.010  0.6129  1.0817 -2.1685
   10MOL0     H 1273   5.137   0.751   7.000 -0.7952 -2.0203  0.1009
   10MOL0     H 1274   4.919   0.631   7.283  0.7005  0.4837  0.7024
   10MOL0     H 1275   4.920   0.646   7.109  2.3554  0.0833 -1.4003
   10MOL0     H 1276   4.757   0.807   7.156  0.3664 -0.5521 -0.3806
   10MOL0     H 1277   4.910   0.906   7.173  1.3279 -1.0145 -0.4254
   10MOL0     H 1278   4.897   0.861   7.431 -1.9775  0.3538  1.6137
   10MOL0     H 1279   4.776   0.959   7.364  1.9161  0.8889 -2.1717
   10MOL0     H 1280   4.693   0.792   7.519  1.2941  1.5332 -0.3678
   10MOL0     H 1281   4.740   0.656   7.418 -0.2008 -0.7669 -0.4080
   10MOL0     H 1282   4.546   0.593   7.554  0.0655  1.5464  0.8050
   10MOL0     H 1283   4.332   0.522   7.627  1.3640 -0.1742  0.6313
   10MOL0     H 1284   4.038   0.307   7.622  0.2178  1.8338 -1.1045
   10MOL0     H 1285   3.827   0.179   7.673 -0.4279  0.9673 -1.5792
   10MOL0     H 1286   3.473   0.387   7.766  3.0982 -3.0999 -6.3238
   10MOL0     H 1287   3.534   0.347   7.935  2.1165  2.4040 -1.7780
   10MOL0     H 1288   3.425   0.117   7.902  0.8272  0.2896 -0.1077
   10MOL0     H 1289   3.371   0.151   7.751 -0.8223  0.3227  0.3088
   10MOL0     H 1290   3.269   0.366   7.873 -0.1404 -0.5397  0.6274
   10MOL0     H 1291   3.288   0.269   8.017  2.1621  1.8371 -0.1455
   10MOL0     H 1292   3.139   0.199   7.760 -1.6521  0.3986 -0.3336
   10MOL0     H 1293   3.166   0.081   7.879  0.8210  0.6039 -1.4354
   10MOL0     H 1294   2.984   0.320   7.882  0.6899  2.2476  1.6204
   10MOL0     H 1295   3.046   0.261   8.035 -0.3347 -0.0617 -0.6170
   10MOL0     H 1296   2.961   0.032   8.007  0.9974 -1.8644 -1.5792
   10MOL0     H 1297   2.894   0.068   7.851  3.1494  0.3598 -0.0885
   10MOL0     H 1298   2.706   0.101   7.990 -0.5108 -0.4036  1.5873
   10MOL0     H 1299   2.807   0.150   8.132  2.4669  0.0456 -0.2362
   10MOL0     H 1300   2.719   0.319   7.893  1.2359 -1.3820 -0.5812
   10MOL0     H 1301   2.808   0.389   8.016  0.9789 -0.7318 -2.9458
   10MOL0     H 1302   3.665   0.530   7.865  1.9270  1.3462  1.8151
   10MOL0     H 1303   3.877   0.656   7.816  2.1194  0.1535  0.7129
   10MOL0     H 1304   4.140   0.798   7.363  0.8623  0.7676 -2.2759
   10MOL0     H 1305   4.360   0.822   7.234  0.1148 -1.2450 -1.3049
   10MOL0     H 1306   5.760   1.760   6.601  0.1715 -1.5734  0.9631
   10MOL0     H 1307   5.946   1.879   6.525  1.6311  0.1328 -0.3671
   10MOL0     H 1308   6.377   2.015   6.579  1.1926  2.4851  3.7252
   10MOL0     H 1309   6.519   2.150   6.427 -0.3889  0.9053 -0.9515
   10MOL0     H 1310   6.480   2.359   6.123  0.0940 -2.0829 -0.6123
   10MOL0     H 1311   6.491   2.210   6.206 -0.8392  0.3628 -2.2434
   10MOL0     H 1312   6.672   2.461   6.242  2.1812  0.2132  0.5369
   10MOL0     H 1313   6.707   2.312   6.329  1.0279  2.7267  0.4953
   10MOL0     H 1314   6.717   2.277   6.030  0.0210 -0.8386  0.6765
   10MOL0     H 1315   6.803   2.201   6.166  2.3059  1.9723  2.3706
   10MOL0     H 1316   6.836   2.485   6.066  0.7675 -0.6148 -2.0935
   10MOL0     H 1317   6.934   2.437   6.193  0.3264  0.2617 -1.6534
   10MOL0     H 1318   7.107   2.288   5.823  0.9493  0.2329  0.3392
   10MOL0     H 1319   6.224   2.469   6.460 -0.5411  0.0144  0.0587
   10MOL0     H 1320   6.083   2.339   6.575 -1.2575 -1.1769  1.1623
   11MOL0     O 1321  10.621  10.159   0.996  0.2841  0.2728 -0.9441
   11MOL0     C 1322  10.553  10.071   0.942  0.2597 -0.5851 -0.1436
   11MOL0     O 1323  10.602   9.992   0.846 -0.4199  0.2765  0.1571
   11MOL0     C 1324  10.697  10.046   0.770  0.0375 -0.8868  0.0375
   11MOL0     C 1325  10.820  10.102   0.807 -0.2745 -0.3221 -0.4000
   11MOL0     C 1326  10.906  10.158   0.713 -0.8861 -0.3551 -0.2463
   11MOL0     C 1327  10.869  10.159   0.582 -0.1393  0.1826  0.5613
   11MOL0     O 1328  10.978  10.205   0.502  0.4097 -0.5661  0.3072
   11MOL0     C 1329  10.988  10.166   0.367  0.2206  0.1141  0.9049
   11MOL0     C 1330  11.013  10.010   0.364 -0.3550  0.1148 -0.6910
   11MOL0     C 1331  11.052   9.979   0.225 -0.4568 -0.7513  0.2044
   11MOL0     C 1332  11.084   9.831   0.201 -0.3568 -0.0519  0.6418
   11MOL0     C 1333  11.223   9.795   0.257 -1.1515 -0.8030  0.1844
   11MOL0     C 1334  11.236   9.638   0.266 -0.5556  0.1012 -0.3058
   11MOL0     C 1335  11.353   9.589   0.352  0.6146 -0.6537  0.2967
   11MOL0     C 1336  11.344   9.617   0.506 -0.4343 -0.2401  0.3113
   11MOL0     N 1337  11.468   9.557   0.572  0.1040  0.6975  0.4247
   11MOL0     C 1338  11.534   9.434   0.535  0.4457 -0.5868 -0.2631
   11MOL0     C 1339  11.652   9.448   0.606 -0.3114 -0.2180  1.2245
   11MOL0     C 1340  11.779   9.370   0.578 -0.2741  0.0590 -0.3909
   11MOL0     C 1341  11.774   9.243   0.668 -0.2537  1.0966  0.1239
   11MOL0     C 1342  11.757   9.109   0.583  0.0095 -0.1072  0.5181
   11MOL0     C 1343  11.896   9.086   0.513 -0.7061  0.4898  0.1530
   11MOL0     O 1344  11.933   9.167   0.396  0.0176 -1.0190 -0.2655
   11MOL0     C 1345  11.867   9.147   0.280  0.8111  0.5170  0.2602
   11MOL0     C 1346  11.767   9.050   0.257  0.0927  0.1396 -0.7519
   11MOL0     C 1347  11.712   9.028   0.137 -0.7485  0.7389 -0.1736
   11MOL0     C 1348  11.754   9.088   0.022  0.6792 -0.4876  1.1284
   11MOL0     C 1349  11.687   9.086  -0.098  0.6418 -0.0782  0.3425
   11MOL0     O 1350  11.749   9.115  -0.216  0.0810 -1.0481 -0.5675
   11MOL0     C 1351  11.673   9.114  -0.329 -0.0733 -0.8597  0.3025
   11MOL0     C 1352  11.645   9.238  -0.386 -0.6741 -0.7576  0.0708
   11MOL0     C 1353  11.568   9.253  -0.502  0.1501  0.4528  0.1439
   11MOL0     C 1354  11.535   9.135  -0.577 -0.0436  0.0642  0.4109
   11MOL0     O 1355  11.452   9.140  -0.687 -0.0825  0.5883  0.9174
   11MOL0     C 1356  11.387   9.264  -0.727  0.1042 -0.1457 -0.3607
   11MOL0     C 1357  11.298   9.246  -0.851 -0.1761  0.0432 -0.2018
   11MOL0     C 1358  11.215   9.370  -0.866  0.3852 -1.0796  0.2208
   11MOL0     C 1359  11.170   9.397  -1.018  0.4015 -0.8090 -0.2559
   11MOL0     C 1360  11.105   9.534  -1.032  0.5700  0.2548  0.3109
   11MOL0     C 1361  10.971   9.552  -0.948 -0.9501 -0.1522  0.5599
   11MOL0     C 1362  10.905   9.682  -0.993 -0.4378 -0.7359  0.5713
   11MOL0     C 1363  10.769   9.704  -0.933  0.4216  0.5977 -0.1970
   11MOL0    Cl 1364  10.643   9.572  -0.966 -0.4079  0.2290 -0.0388
   11MOL0     C 1365  11.557   9.011  -0.518 -0.2748  0.7100  0.3077
   11MOL0     C 1366  11.624   8.998  -0.388 -0.4108  0.1977  0.2490
   11MOL0     O 1367  11.569   9.054  -0.092  0.7979 -0.1846 -0.4125
   11MOL0     C 1368  11.865   9.177   0.028  0.4725  0.8205 -1.3073
   11MOL0     C 1369  11.906   9.211   0.158 -0.5254  0.4751 -1.1266
   11MOL0     N 1370  11.648   9.558   0.692  0.1116 -0.0057 -0.4012
   11MOL0     N 1371  11.541   9.629   0.656  0.0249  0.1621 -0.1989
   11MOL0     C 1372  10.755  10.096   0.535 -0.8677  0.4689 -0.3214
   11MOL0     C 1373  10.674  10.043   0.630  0.6853  0.5814  0.7610
   11MOL0     C 1374  10.414  10.036   0.995 -0.4297  0.9171 -0.0762
   11MOL0     C 1375  10.362  10.107   1.106  0.5921  0.4881 -0.3943
   11MOL0     C 1376  10.229  10.076   1.147 -0.1860 -0.4939  0.3835
   11MOL0     C 1377  10.147   9.978   1.085  0.1476 -1.2169  0.0526
   11MOL0     O 1378  10.021   9.943   1.120  0.1268 -0.4404 -0.5024
   11MOL0     C 1379   9.956   9.995   1.241  0.5587  0.5821 -0.6863
   11MOL0     C 1380   9.835   9.898   1.271 -0.0934  0.0394 -0.5568
   11MOL0     C 1381   9.746   9.873   1.149  0.2017 -0.0465 -0.4901
   11MOL0     C 1382   9.597   9.891   1.180  1.1871 -0.2226 -0.1110
   11MOL0     C 1383   9.518   9.854   1.063  0.3104  0.4570 -0.3464
   11MOL0     C 1384   9.447   9.826   0.977 -0.1931  0.2871 -0.1134
   11MOL0     C 1385  10.202   9.914   0.965  0.1386  0.5099 -0.1354
   11MOL0     C 1386  10.337   9.947   0.927  0.7434 -0.8031  0.6160
   11MOL0     H 1387  10.835  10.111   0.915 -1.4084 -2.2166 -0.0311
   11MOL0     H 1388  10.994  10.207   0.754 -2.0275  0.0327  1.9345
   11MOL0     H 1389  11.077  10.209   0.320 -0.5154 -1.1743 -1.9464
   11MOL0     H 1390  10.901  10.202   0.310  1.9012  1.2789 -1.0690
   11MOL0     H 1391  10.921   9.954   0.385 -0.5995 -0.4496 -2.9409
   11MOL0     H 1392  11.089   9.988   0.440 -0.0956  1.7568 -0.4411
   11MOL0     H 1393  11.134  10.044   0.194 -0.0999 -1.2635  0.0542
   11MOL0     H 1394  10.963   9.996   0.163  0.1540 -2.0667 -1.0960
   11MOL0     H 1395  11.002   9.771   0.243  0.9259 -2.1028  0.3585
   11MOL0     H 1396  11.088   9.791   0.100 -1.3568 -1.8774  1.2719
   11MOL0     H 1397  11.243   9.825   0.360  0.2334 -2.4434  0.4415
   11MOL0     H 1398  11.303   9.838   0.195 -1.5467  3.3075  2.1937
   11MOL0     H 1399  11.237   9.606   0.161  0.5293  2.0766 -0.9294
   11MOL0     H 1400  11.146   9.594   0.313 -1.0149  0.2870 -0.9974
   11MOL0     H 1401  11.373   9.483   0.335  1.7914 -0.3793 -0.1180
   11MOL0     H 1402  11.434   9.648   0.310 -0.3647  0.1698 -0.5046
   11MOL0     H 1403  11.254   9.576   0.552 -0.7161 -1.1889 -1.0141
   11MOL0     H 1404  11.340   9.724   0.530 -0.6680  0.6270 -2.9938
   11MOL0     H 1405  11.519   9.360   0.457  0.4722 -0.6496 -0.2088
   11MOL0     H 1406  11.873   9.417   0.608  1.3115 -2.3535 -1.3181
   11MOL0     H 1407  11.790   9.353   0.471 -3.3981  3.8133 -1.5760
   11MOL0     H 1408  11.695   9.243   0.744  0.7198 -0.8955  1.2316
   11MOL0     H 1409  11.866   9.235   0.727 -0.5643 -0.3050  0.4478
   11MOL0     H 1410  11.738   9.030   0.655 -2.3459  1.4233  1.6857
   11MOL0     H 1411  11.666   9.113   0.523 -2.6306 -3.3866  3.9039
   11MOL0     H 1412  11.898   8.981   0.483 -0.8673  0.5301  0.0013
   11MOL0     H 1413  11.972   9.088   0.592 -1.0006  0.7654  0.4282
   11MOL0     H 1414  11.735   8.991   0.342 -1.9315  1.6269 -0.4118
   11MOL0     H 1415  11.644   8.945   0.133 -1.3692  1.2793 -1.9157
   11MOL0     H 1416  11.674   9.324  -0.327 -2.2430 -2.0422  2.9623
   11MOL0     H 1417  11.526   9.347  -0.537  0.4375  0.1303 -1.1138
   11MOL0     H 1418  11.461   9.343  -0.740 -0.3815  0.0070 -2.7315
   11MOL0     H 1419  11.319   9.311  -0.655  0.0575 -2.6490  1.3500
   11MOL0     H 1420  11.238   9.156  -0.838  0.0054 -0.0643 -0.0945
   11MOL0     H 1421  11.353   9.246  -0.946 -0.9513  0.3459 -0.6579
   11MOL0     H 1422  11.271   9.462  -0.845  2.2053 -2.0942  0.0375
   11MOL0     H 1423  11.132   9.374  -0.795  0.8297  0.6097  0.6891
   11MOL0     H 1424  11.256   9.386  -1.085  0.5590 -1.1864 -0.0047
   11MOL0     H 1425  11.099   9.315  -1.033  0.9571 -1.3093 -0.1909
   11MOL0     H 1426  11.079   9.542  -1.138  1.6755 -0.1841 -0.0081
   11MOL0     H 1427  11.179   9.614  -1.024  0.9799 -0.0599 -0.2711
   11MOL0     H 1428  10.988   9.547  -0.840 -2.8889  0.4346  0.9284
   11MOL0     H 1429  10.906   9.468  -0.973 -1.7883  0.3754  0.9115
   11MOL0     H 1430  10.964   9.771  -0.971  0.2173 -0.3047 -2.4948
   11MOL0     H 1431  10.894   9.674  -1.101  3.1275 -0.4135  0.0613
   11MOL0     H 1432  10.726   9.795  -0.977  0.0196  0.0371 -0.9922
   11MOL0     H 1433  10.767   9.723  -0.825 -1.9966  1.0688 -0.2741
   11MOL0     H 1434  11.542   8.915  -0.565  1.7228 -0.9461  2.7511
   11MOL0     H 1435  11.642   8.903  -0.339 -0.9812  0.8561  1.8470
   11MOL0     H 1436  11.901   9.228  -0.061 -0.4161  1.8955 -1.0708
   11MOL0     H 1437  11.986   9.283   0.169  0.2132 -0.5221  0.3753
   11MOL0     H 1438  10.734  10.072   0.431 -1.9511  0.3795 -0.0947
   11MOL0     H 1439  10.582  10.003   0.590 -1.5842  4.0127  2.0648
   11MOL0     H 1440  10.418  10.167   1.177 -0.2616  0.4673  0.3164
   11MOL0     H 1441  10.190  10.137   1.227 -1.9755 -1.2825  0.1520
   11MOL0     H 1442   9.914  10.095   1.223  0.9419  0.7294 -0.7601
   11MOL0     H 1443  10.023   9.997   1.327  2.3452  0.8822 -2.0437
   11MOL0     H 1444   9.875   9.809   1.321  0.2724  0.7203  0.3902
   11MOL0     H 1445   9.773   9.941   1.350  1.0303 -0.3970  0.5968
   11MOL0     H 1446   9.758   9.767   1.124  0.0364 -0.5925  1.5332
   11MOL0     H 1447   9.771   9.940   1.066 -1.4648  0.9637 -0.2191
   11MOL0     H 1448   9.562   9.834   1.266 -0.2212  1.3772  0.4381
   11MOL0     H 1449   9.575   9.993   1.214 -1.1241 -0.2048 -1.5191
   11MOL0     H 1450   9.389   9.791   0.894 -0.8994 -1.2764  0.9731
   11MOL0     H 1451  10.143   9.847   0.903  3.9290 -1.3944 -1.9596
   11MOL0     H 1452  10.358   9.916   0.825 -1.0356 -2.7304  0.7587
   12MOL0     O 1453   7.523   5.441   9.119  0.2288 -0.0192 -0.7762
   12MOL0     C 1454   7.534   5.540   9.049 -0.3920 -0.5937 -0.8234
   12MOL0     O 1455   7.437   5.613   8.993  0.0029 -0.7429 -0.0730
   12MOL0     C 1456   7.300   5.596   9.025  0.9898  0.2751  0.2682
   12MOL0     C 1457   7.207   5.647   8.931  0.3153 -0.5060  0.3064
   12MOL0     C 1458   7.071   5.637   8.955  0.3329  0.2119 -0.8879
   12MOL0     C 1459   7.019   5.579   9.071 -0.3753  0.1861  0.4303
   12MOL0     O 1460   6.892   5.560   9.116 -0.2958  0.1413 -0.1250
   12MOL0     C 1461   6.790   5.576   9.015  0.2258  1.0757  0.1872
   12MOL0     C 1462   6.659   5.557   9.093  0.4339  0.5119 -0.2406
   12MOL0     C 1463   6.636   5.673   9.195  0.4482  0.5453 -0.6199
   12MOL0     C 1464   6.504   5.641   9.283  0.4711  0.2421  0.1530
   12MOL0     C 1465   6.385   5.596   9.206  1.3122  0.2627  0.5818
   12MOL0     C 1466   6.259   5.614   9.288  0.3277 -0.0344 -0.0390
   12MOL0     C 1467   6.154   5.514   9.239 -0.1752 -0.5340 -0.1244
   12MOL0     C 1468   6.024   5.537   9.312 -0.4159 -1.3925 -0.1464
   12MOL0     N 1469   5.953   5.406   9.309 -0.3875  0.1666  0.5638
   12MOL0     C 1470   5.998   5.295   9.368 -0.1377  0.4597  0.0696
   12MOL0     C 1471   5.913   5.196   9.314 -0.2650 -1.1212  0.4751
   12MOL0     C 1472   5.908   5.055   9.361  0.7804  0.4997 -0.1117
   12MOL0     C 1473   5.764   5.015   9.405 -0.0029  0.6789 -0.1985
   12MOL0     C 1474   5.773   4.864   9.436 -0.0534  0.5448 -0.8196
   12MOL0     C 1475   5.659   4.804   9.515  0.6087  0.4460 -0.4025
   12MOL0     O 1476   5.528   4.855   9.475  0.5287 -0.0890 -0.7361
   12MOL0     C 1477   5.412   4.831   9.538  0.4817 -0.0556  1.0373
   12MOL0     C 1478   5.401   4.772   9.665 -0.0699 -0.5226  0.6408
   12MOL0     C 1479   5.278   4.767   9.729  0.3601 -0.4501 -0.1004
   12MOL0     C 1480   5.159   4.840   9.680 -0.4380 -0.2362 -0.5042
   12MOL0     C 1481   5.042   4.876   9.762  0.4155  0.1983  0.3878
   12MOL0     O 1482   5.056   4.861   9.890 -0.0289 -0.6720 -0.3582
   12MOL0     C 1483   4.943   4.854   9.972  0.1264  0.3465  0.1219
   12MOL0     C 1484   4.975   4.879  10.108 -0.2988  0.1652 -0.2961
   12MOL0     C 1485   4.888   4.839  10.209  0.2403 -0.2658 -0.6551
   12MOL0     C 1486   4.762   4.785  10.177  0.0504  0.8919 -0.1936
   12MOL0     O 1487   4.671   4.744  10.266 -0.6592 -0.4372 -0.3266
   12MOL0     C 1488   4.694   4.751  10.405 -0.0154 -0.1142  0.0334
   12MOL0     C 1489   4.564   4.716  10.478  0.1025 -0.1828  1.2526
   12MOL0     C 1490   4.527   4.564  10.462 -0.8569  0.0401 -0.9634
   12MOL0     C 1491   4.410   4.514  10.552  0.3204  0.1057  0.2912
   12MOL0     C 1492   4.441   4.371  10.596 -0.1257  0.1018  0.0227
   12MOL0     C 1493   4.500   4.358  10.736  0.1400  0.1705  0.5441
   12MOL0     C 1494   4.449   4.241  10.821  0.1623 -0.4623 -0.3425
   12MOL0     C 1495   4.481   4.107  10.764  0.5424  0.2966  0.8820
   12MOL0    Cl 1496   4.353   4.061  10.650 -0.1795  0.3518 -0.0401
   12MOL0     C 1497   4.726   4.770  10.040 -0.0213  0.5802  0.2311
   12MOL0     C 1498   4.820   4.801   9.938  0.1236  0.6899  0.0248
   12MOL0     O 1499   4.939   4.924   9.703 -0.2232 -1.0069 -0.2632
   12MOL0     C 1500   5.177   4.905   9.556  0.5563  0.9950 -0.7784
   12MOL0     C 1501   5.293   4.894   9.486 -0.1776  0.3071 -0.5119
   12MOL0     N 1502   5.825   5.253   9.230  0.5036 -1.4623  0.1522
   12MOL0     N 1503   5.849   5.383   9.230  0.0781  0.0290  0.7619
   12MOL0     C 1504   7.115   5.530   9.165 -0.8998 -0.1184 -0.1044
   12MOL0     C 1505   7.251   5.534   9.140  0.3337 -1.0277  0.8298
   12MOL0     C 1506   7.669   5.587   9.004  0.3409  0.0664  0.3660
   12MOL0     C 1507   7.681   5.647   8.873  0.4345  0.1030 -0.4618
   12MOL0     C 1508   7.804   5.672   8.818 -0.6795  0.2262 -0.2503
   12MOL0     C 1509   7.924   5.634   8.886 -1.4784  0.1764 -0.2878
   12MOL0     O 1510   8.055   5.638   8.833 -0.2139 -0.1218 -0.8868
   12MOL0     C 1511   8.064   5.634   8.695 -0.1961 -1.0442 -0.0716
   12MOL0     C 1512   8.190   5.558   8.676  1.0101  0.4788  0.5102
   12MOL0     C 1513   8.189   5.485   8.544  0.6627 -0.7242 -0.2849
   12MOL0     C 1514   8.304   5.385   8.528 -0.1255 -0.8991  0.6023
   12MOL0     C 1515   8.424   5.467   8.553 -0.1705  1.1514  0.3239
   12MOL0     C 1516   8.532   5.528   8.572  0.5668  0.2492 -0.3906
   12MOL0     C 1517   7.917   5.576   9.013 -0.1907 -0.7979 -0.1355
   12MOL0     C 1518   7.790   5.554   9.072  0.5438 -1.2007  0.7551
   12MOL0     H 1519   7.247   5.699   8.844  0.7107 -0.9560  0.2133
   12MOL0     H 1520   7.003   5.665   8.875 -1.9764 -1.1175  0.4821
   12MOL0     H 1521   6.802   5.515   8.925 -2.5052  1.5171 -0.5477
   12MOL0     H 1522   6.786   5.682   8.987  1.3137  0.8409 -0.9530
   12MOL0     H 1523   6.660   5.464   9.151  1.5792 -0.0292 -1.1015
   12MOL0     H 1524   6.573   5.547   9.026 -0.6193 -0.9421  1.2227
   12MOL0     H 1525   6.617   5.767   9.143 -0.5056 -0.0491 -1.3920
   12MOL0     H 1526   6.712   5.684   9.273  0.8765 -0.4422 -0.8819
   12MOL0     H 1527   6.517   5.563   9.359 -1.6758  0.2599  0.5949
   12MOL0     H 1528   6.489   5.734   9.338  2.7770  0.4289  0.5416
   12MOL0     H 1529   6.403   5.489   9.197 -0.0977  0.1316 -1.3172
   12MOL0     H 1530   6.379   5.647   9.110  0.8974 -2.7993 -1.1264
   12MOL0     H 1531   6.219   5.715   9.274 -0.7172 -0.3649  0.4288
   12MOL0     H 1532   6.271   5.593   9.395 -3.0339 -0.2052  0.4312
   12MOL0     H 1533   6.140   5.535   9.132 -0.9588 -1.0008 -0.1212
   12MOL0     H 1534   6.189   5.410   9.247  1.5266 -0.0790 -1.1364
   12MOL0     H 1535   5.967   5.617   9.264  1.2846 -0.9121 -1.4404
   12MOL0     H 1536   6.051   5.561   9.415  1.9323 -1.2349 -0.7323
   12MOL0     H 1537   6.086   5.285   9.430 -2.0140 -2.4390  2.5411
   12MOL0     H 1538   5.980   5.040   9.443 -0.4491  0.8228  1.0647
   12MOL0     H 1539   5.944   4.994   9.278  0.8322 -1.8695  1.5496
   12MOL0     H 1540   5.689   5.035   9.328  0.8281 -1.3878 -1.6232
   12MOL0     H 1541   5.731   5.072   9.492 -2.5050 -0.9385  0.0132
   12MOL0     H 1542   5.780   4.816   9.338  2.8748 -0.4455 -0.1988
   12MOL0     H 1543   5.867   4.839   9.486 -2.5862 -2.6456  2.8931
   12MOL0     H 1544   5.670   4.834   9.620 -3.2860  1.8114 -0.2239
   12MOL0     H 1545   5.668   4.695   9.508 -1.7735  0.2869 -2.2859
   12MOL0     H 1546   5.477   4.706   9.706 -1.6176 -3.1411 -0.4245
   12MOL0     H 1547   5.285   4.718   9.825 -1.0120  1.4157  1.0331
   12MOL0     H 1548   5.070   4.923  10.139 -0.7752  0.2785  1.0514
   12MOL0     H 1549   4.920   4.856  10.312 -0.4246  0.0670 -0.4984
   12MOL0     H 1550   4.713   4.856  10.430 -1.9339  0.5552 -1.0363
   12MOL0     H 1551   4.778   4.688  10.434 -0.3642 -1.1138 -1.0497
   12MOL0     H 1552   4.494   4.779  10.422  1.3292 -1.4119 -1.9281
   12MOL0     H 1553   4.561   4.760  10.578 -1.3521 -0.0920  1.1924
   12MOL0     H 1554   4.612   4.510  10.504 -1.0797 -0.5063 -1.2092
   12MOL0     H 1555   4.522   4.543  10.355  2.6074  1.9240 -1.6310
   12MOL0     H 1556   4.392   4.586  10.632  0.4076  1.6371 -1.0000
   12MOL0     H 1557   4.323   4.519  10.486  0.8831  0.1244 -0.4635
   12MOL0     H 1558   4.508   4.317  10.529 -0.6505 -1.4641  0.7127
   12MOL0     H 1559   4.341   4.326  10.589 -2.3643  4.6289 -0.3720
   12MOL0     H 1560   4.483   4.445  10.799 -0.8148 -0.0386  0.5898
   12MOL0     H 1561   4.607   4.338  10.727  0.2808 -0.1317  2.4887
   12MOL0     H 1562   4.492   4.247  10.922 -0.6308 -0.5204 -0.0004
   12MOL0     H 1563   4.341   4.235  10.831  0.2543 -0.1956  1.1728
   12MOL0     H 1564   4.459   4.032  10.841 -0.7452 -1.4116 -1.0384
   12MOL0     H 1565   4.584   4.095  10.728  0.6682  0.6246  1.1325
   12MOL0     H 1566   4.622   4.744  10.026  0.0185 -0.3957  1.5612
   12MOL0     H 1567   4.796   4.777   9.835  2.4992  1.7510 -0.8539
   12MOL0     H 1568   5.090   4.949   9.508 -0.5707 -0.6982 -0.3568
   12MOL0     H 1569   5.309   4.932   9.385  0.2392  0.6660 -0.3137
   12MOL0     H 1570   7.073   5.484   9.254 -1.0349 -0.9517 -0.5815
   12MOL0     H 1571   7.313   5.484   9.213 -1.3576 -4.4489  0.1107
   12MOL0     H 1572   7.599   5.687   8.813  0.1847  2.3572  1.2490
   12MOL0     H 1573   7.817   5.732   8.728  2.0980  0.1002 -0.0334
   12MOL0     H 1574   8.071   5.736   8.656 -1.0449  0.1164  2.6007
   12MOL0     H 1575   7.976   5.586   8.652 -0.4879  0.3558 -1.1271
   12MOL0     H 1576   8.271   5.630   8.693 -0.1251  2.0535 -0.4339
   12MOL0     H 1577   8.193   5.480   8.753 -0.0736  0.0383  0.1131
   12MOL0     H 1578   8.181   5.561   8.466 -1.5189 -3.0047 -2.4644
   12MOL0     H 1579   8.089   5.442   8.536 -1.4965  3.7798 -0.6127
   12MOL0     H 1580   8.294   5.300   8.597 -0.7312 -0.5961  0.8960
   12MOL0     H 1581   8.304   5.342   8.427 -0.2390  2.2674 -0.8378
   12MOL0     H 1582   8.626   5.578   8.586  1.3799 -0.8776 -1.4769
   12MOL0     H 1583   8.001   5.544   9.073  0.4700  0.2455 -0.4896
   12MOL0     H 1584   7.769   5.497   9.162  0.6626 -0.8147  1.0331
   13MOL0     O 1585   7.580   2.117   4.072 -0.0757 -0.5231 -0.2359
   13MOL0     C 1586   7.521   2.186   3.987  0.0464 -0.3106  0.2433
   13MOL0     O 1587   7.391   2.234   3.985 -0.6501 -0.5531  0.2446
   13MOL0     C 1588   7.322   2.221   4.104  0.1026 -0.1992  0.0677
   13MOL0     C 1589   7.233   2.110   4.100  0.3630  0.7776 -0.6551
   13MOL0     C 1590   7.176   2.068   4.218 -0.0260  0.1955  0.7024
   13MOL0     C 1591   7.186   2.144   4.336  0.0279 -0.8602  1.4161
   13MOL0     O 1592   7.136   2.109   4.459  0.1863 -0.1957  0.6837
   13MOL0     C 1593   7.035   2.009   4.472  0.7056  0.7940 -0.5438
   13MOL0     C 1594   6.951   2.061   4.588  0.1903 -0.0076 -0.1529
   13MOL0     C 1595   6.830   1.966   4.632 -0.2363  0.5479  0.4096
   13MOL0     C 1596   6.751   2.030   4.746  0.2104 -0.0488  0.7456
   13MOL0     C 1597   6.630   1.962   4.792 -0.3683 -0.2877 -0.1889
   13MOL0     C 1598   6.562   2.046   4.902 -0.8229  0.0763 -0.0722
   13MOL0     C 1599   6.431   1.975   4.955 -0.3536  0.6616  0.3442
   13MOL0     C 1600   6.362   2.056   5.064  0.3577  0.0746  0.3412
   13MOL0     N 1601   6.250   1.979   5.119  0.4366  0.0239 -0.0187
   13MOL0     C 1602   6.159   1.939   5.033 -0.0691  1.1899 -0.1046
   13MOL0     C 1603   6.049   1.893   5.103  0.1619  1.0190 -0.8134
   13MOL0     C 1604   5.917   1.843   5.059  0.4053 -0.3872 -0.1151
   13MOL0     C 1605   5.794   1.919   5.115  0.1995 -0.1802 -0.3485
   13MOL0     C 1606   5.740   1.850   5.247  1.3805 -0.8597 -0.1384
   13MOL0     C 1607   5.593   1.878   5.283 -0.1544 -0.1854  0.5473
   13MOL0     O 1608   5.521   1.786   5.197  0.2018  0.2269  0.7498
   13MOL0     C 1609   5.386   1.767   5.207 -0.4655 -0.4724  0.0273
   13MOL0     C 1610   5.290   1.842   5.280 -0.2620  0.8372  0.5897
   13MOL0     C 1611   5.153   1.804   5.286  0.4355  0.8049 -0.6814
   13MOL0     C 1612   5.118   1.684   5.216  0.0382 -0.1619 -0.4283
   13MOL0     C 1613   4.977   1.631   5.229 -0.4834  0.0844 -0.3416
   13MOL0     O 1614   4.914   1.692   5.326  0.4605 -0.4056 -0.3035
   13MOL0     C 1615   4.785   1.655   5.353  0.0975 -0.1756  0.1250
   13MOL0     C 1616   4.758   1.536   5.419 -0.3651  0.0854  0.7053
   13MOL0     C 1617   4.623   1.498   5.451 -0.1686 -1.0203  0.1025
   13MOL0     C 1618   4.520   1.577   5.415  0.5182  0.3324 -0.0723
   13MOL0     O 1619   4.392   1.529   5.435  0.2191 -0.2939 -0.7269
   13MOL0     C 1620   4.305   1.617   5.502  0.6221 -0.3570  0.3390
   13MOL0     C 1621   4.197   1.533   5.570 -0.1873 -0.5965  0.0819
   13MOL0     C 1622   4.086   1.611   5.643  0.0374  0.2159  0.6428
   13MOL0     C 1623   4.129   1.705   5.747 -0.3589  0.4338  0.0423
   13MOL0     C 1624   4.004   1.787   5.805 -0.8255  0.8885 -0.3257
   13MOL0     C 1625   4.059   1.893   5.904 -0.9713 -0.3024 -0.0429
   13MOL0     C 1626   3.938   1.987   5.931 -0.1110 -0.4354 -0.1973
   13MOL0     C 1627   3.976   2.087   6.033 -0.4907 -0.6118 -0.6754
   13MOL0    Cl 1628   4.018   1.995   6.188 -0.1727 -0.4674  0.0621
   13MOL0     C 1629   4.550   1.706   5.361 -0.4180  0.4449 -0.6840
   13MOL0     C 1630   4.679   1.741   5.332  0.0764 -0.5826 -0.0318
   13MOL0     O 1631   4.937   1.535   5.159 -0.0559  0.1615  0.5877
   13MOL0     C 1632   5.209   1.620   5.135  0.0649 -0.5709 -0.3641
   13MOL0     C 1633   5.342   1.661   5.131  0.1821 -0.5396 -0.2034
   13MOL0     N 1634   6.086   1.916   5.241  0.9137 -0.0693  1.0292
   13MOL0     N 1635   6.201   1.965   5.249 -0.4001  1.0693  0.2180
   13MOL0     C 1636   7.267   2.265   4.328  0.3407 -0.0098 -0.3949
   13MOL0     C 1637   7.331   2.303   4.212  0.1407 -0.0018 -0.2824
   13MOL0     C 1638   7.604   2.217   3.873  1.0322  0.1726 -0.1361
   13MOL0     C 1639   7.548   2.289   3.763 -0.8730 -0.6022 -0.0227
   13MOL0     C 1640   7.634   2.324   3.657  0.2257  0.1261 -0.3795
   13MOL0     C 1641   7.764   2.272   3.647  0.5778  0.0624  0.4754
   13MOL0     O 1642   7.834   2.301   3.533  1.0001  0.3636  0.5460
   13MOL0     C 1643   7.980   2.261   3.522  0.2756  0.1168  0.0581
   13MOL0     C 1644   8.060   2.371   3.589 -0.2200 -0.1963 -0.2712
   13MOL0     C 1645   8.208   2.368   3.561 -0.3225 -0.3487  0.8636
   13MOL0     C 1646   8.268   2.255   3.635  0.3710  0.5114  0.0243
   13MOL0     C 1647   8.413   2.263   3.629 -1.0869 -0.5921 -0.6079
   13MOL0     C 1648   8.535   2.248   3.629  0.3583 -0.0486  0.1166
   13MOL0     C 1649   7.819   2.208   3.760 -0.1870  0.2763 -0.1206
   13MOL0     C 1650   7.740   2.184   3.869 -0.2582 -0.3593 -0.9835
   13MOL0     H 1651   7.202   2.055   4.012 -1.6935  0.6169  0.1156
   13MOL0     H 1652   7.113   1.980   4.227 -2.2655  1.6509  0.2089
   13MOL0     H 1653   7.084   1.913   4.493 -0.4554 -0.4577 -3.0629
   13MOL0     H 1654   6.971   1.996   4.384 -0.8698  2.7217  0.2320
   13MOL0     H 1655   6.920   2.160   4.554 -1.9642 -1.0192 -1.2524
   13MOL0     H 1656   7.021   2.073   4.672 -0.8274  3.4907  0.3543
   13MOL0     H 1657   6.870   1.867   4.655 -0.2109  0.6030  0.6080
   13MOL0     H 1658   6.759   1.943   4.552 -0.9154 -3.5220  1.9713
   13MOL0     H 1659   6.815   2.057   4.830  0.4748 -0.3685  0.6489
   13MOL0     H 1660   6.715   2.128   4.712  0.1333 -0.1054  0.6651
   13MOL0     H 1661   6.648   1.861   4.830 -0.5485  0.3227  1.6608
   13MOL0     H 1662   6.559   1.950   4.710 -0.4379 -0.4144 -0.1116
   13MOL0     H 1663   6.546   2.149   4.868  0.3710  0.3864  0.2504
   13MOL0     H 1664   6.626   2.060   4.990 -1.9325  1.0383  0.6168
   13MOL0     H 1665   6.368   1.961   4.867 -0.6616  0.9093  0.5260
   13MOL0     H 1666   6.438   1.876   5.001  0.0358 -0.8503 -2.7020
   13MOL0     H 1667   6.328   2.156   5.037  0.6588  0.4565  1.3570
   13MOL0     H 1668   6.427   2.087   5.147  1.5210 -0.9463 -0.1560
   13MOL0     H 1669   6.155   1.930   4.925  1.6412  0.2495 -0.1215
   13MOL0     H 1670   5.905   1.736   5.079 -1.5582 -0.2812 -0.5140
   13MOL0     H 1671   5.903   1.854   4.951 -5.4284  4.2701  0.6061
   13MOL0     H 1672   5.712   1.919   5.043 -2.0671 -3.6217  1.9128
   13MOL0     H 1673   5.822   2.024   5.128  0.9391  0.0273 -3.0616
   13MOL0     H 1674   5.761   1.743   5.246  1.2960 -0.8775 -0.0122
   13MOL0     H 1675   5.787   1.891   5.338  1.3689 -0.2765 -0.3896
   13MOL0     H 1676   5.563   1.982   5.270 -2.3116 -0.8445 -0.1185
   13MOL0     H 1677   5.566   1.850   5.385 -1.5217  0.7704  0.4733
   13MOL0     H 1678   5.324   1.937   5.319  0.8332 -0.0997  2.0194
   13MOL0     H 1679   5.078   1.862   5.339 -0.8660 -0.6946 -0.8097
   13MOL0     H 1680   4.835   1.466   5.450  0.7827  1.4302  1.0565
   13MOL0     H 1681   4.617   1.402   5.501 -0.1969 -0.6172  0.8889
   13MOL0     H 1682   4.259   1.692   5.438  0.3331 -1.6259 -0.9903
   13MOL0     H 1683   4.356   1.686   5.570  0.7532  2.0707 -2.0446
   13MOL0     H 1684   4.250   1.466   5.638 -1.1834 -2.3876 -0.8574
   13MOL0     H 1685   4.160   1.483   5.481 -2.1385  1.7402 -0.5240
   13MOL0     H 1686   4.019   1.539   5.691 -2.3933  1.6374 -0.4146
   13MOL0     H 1687   4.025   1.660   5.567 -1.7380 -0.6007  1.4761
   13MOL0     H 1688   4.176   1.656   5.833 -0.6194  1.8687  1.0480
   13MOL0     H 1689   4.201   1.773   5.700  0.4692 -0.0969  0.5089
   13MOL0     H 1690   3.941   1.710   5.850  0.5641 -1.2814 -1.8701
   13MOL0     H 1691   3.944   1.835   5.727  1.6367  1.1890 -2.1635
   13MOL0     H 1692   4.134   1.952   5.851  1.1914 -2.1201  0.8302
   13MOL0     H 1693   4.087   1.843   5.997 -1.7640  0.6953  0.7633
   13MOL0     H 1694   3.917   2.037   5.835 -2.2368  1.2623  1.0548
   13MOL0     H 1695   3.849   1.933   5.963 -0.1803  0.5075  1.2812
   13MOL0     H 1696   3.896   2.158   6.058  0.3067  0.2407 -0.4625
   13MOL0     H 1697   4.071   2.131   5.999  0.1604  0.3902  2.1646
   13MOL0     H 1698   4.466   1.770   5.335 -0.3108  0.1215 -1.9064
   13MOL0     H 1699   4.708   1.832   5.281 -0.9318 -0.0992  0.2445
   13MOL0     H 1700   5.183   1.533   5.076 -0.2409  0.2562 -1.4850
   13MOL0     H 1701   5.408   1.593   5.078  0.6346 -1.0308  0.9489
   13MOL0     H 1702   7.287   2.326   4.416  0.9549 -0.2423 -0.3712
   13MOL0     H 1703   7.401   2.385   4.201  2.2334 -1.5466  0.6618
   13MOL0     H 1704   7.449   2.333   3.756 -0.8077 -0.2413  1.1452
   13MOL0     H 1705   7.583   2.385   3.583 -3.4863 -0.8366  1.1655
   13MOL0     H 1706   8.021   2.256   3.421 -0.0702 -3.0476 -0.0333
   13MOL0     H 1707   7.991   2.156   3.552  0.7290  0.9135  3.0197
   13MOL0     H 1708   8.025   2.462   3.540  1.9212  0.2482 -1.0496
   13MOL0     H 1709   8.043   2.369   3.697  1.5947 -0.2722  0.0389
   13MOL0     H 1710   8.251   2.459   3.602  0.8338 -0.7120  0.4870
   13MOL0     H 1711   8.229   2.355   3.455 -0.3562  2.3901  0.4581
   13MOL0     H 1712   8.242   2.246   3.741 -1.0718 -1.1585 -0.4327
   13MOL0     H 1713   8.238   2.156   3.601  0.4682  0.0983  1.0807
   13MOL0     H 1714   8.641   2.233   3.626  0.2405 -0.7748 -1.3126
   13MOL0     H 1715   7.923   2.179   3.759 -0.1179  0.4807  0.5424
   13MOL0     H 1716   7.790   2.130   3.949  0.9895 -2.0061 -2.7642
   14MOL0     O 1717   5.985   0.937   0.836  0.5820  0.4008  1.4846
   14MOL0     C 1718   5.985   0.964   0.953  0.3961 -0.0938 -0.5088
   14MOL0     O 1719   5.881   0.986   1.038  0.2745  0.0061 -0.0151
   14MOL0     C 1720   5.754   0.958   0.993  0.2124  0.1704 -0.4602
   14MOL0     C 1721   5.650   1.029   1.061 -0.1234 -0.7820  0.4537
   14MOL0     C 1722   5.513   1.014   1.017 -0.4764  0.0755  0.5205
   14MOL0     C 1723   5.479   0.949   0.906  0.7917  0.5580  0.3466
   14MOL0     O 1724   5.349   0.941   0.861 -0.2130 -0.5361 -0.8656
   14MOL0     C 1725   5.254   1.030   0.918  0.5646  0.5165 -0.3036
   14MOL0     C 1726   5.116   0.995   0.860 -0.5006 -0.0789  0.2681
   14MOL0     C 1727   5.011   1.112   0.882  0.2412 -0.3519 -0.1248
   14MOL0     C 1728   4.870   1.067   0.835 -0.7050 -0.8183 -0.1612
   14MOL0     C 1729   4.754   1.131   0.904 -0.0971  0.1605 -0.0440
   14MOL0     C 1730   4.620   1.081   0.851  0.1562  0.3563  0.5355
   14MOL0     C 1731   4.504   1.158   0.910  1.0672 -0.7340  0.4039
   14MOL0     C 1732   4.366   1.111   0.861  0.2916  0.0122  0.0551
   14MOL0     N 1733   4.248   1.185   0.923 -0.6204 -0.0233  0.0781
   14MOL0     C 1734   4.226   1.320   0.907 -0.4255 -0.1371 -0.2412
   14MOL0     C 1735   4.117   1.347   0.985  0.8625 -0.3834  0.2136
   14MOL0     C 1736   4.045   1.479   1.011  0.2447  0.6671 -0.3339
   14MOL0     C 1737   3.966   1.526   0.888  0.4471 -0.2830 -0.2612
   14MOL0     C 1738   3.850   1.425   0.851 -0.1364 -0.5513 -0.4129
   14MOL0     C 1739   3.887   1.312   0.752 -0.4384  0.7505 -0.0333
   14MOL0     O 1740   3.779   1.261   0.674 -0.1144  0.0924  0.3789
   14MOL0     C 1741   3.675   1.198   0.732  0.9960  0.1167  0.2568
   14MOL0     C 1742   3.670   1.163   0.869 -0.1966 -0.0794  0.3224
   14MOL0     C 1743   3.559   1.093   0.917 -0.4686  0.5388 -0.5389
   14MOL0     C 1744   3.446   1.065   0.845 -0.6482 -0.2506  0.7428
   14MOL0     C 1745   3.325   0.995   0.896  0.1910 -0.5532 -0.3443
   14MOL0     O 1746   3.251   0.931   0.801 -0.5366 -0.3088  0.1196
   14MOL0     C 1747   3.116   0.905   0.824  0.4437  0.3419  0.2155
   14MOL0     C 1748   3.048   0.811   0.747  0.8457  0.3003 -0.0693
   14MOL0     C 1749   2.907   0.778   0.764  0.3840  0.2757 -0.2574
   14MOL0     C 1750   2.835   0.841   0.865  0.1787 -0.5855 -0.3873
   14MOL0     O 1751   2.708   0.796   0.900 -0.2022 -0.4100 -0.4292
   14MOL0     C 1752   2.670   0.782   1.037 -0.5168  0.7219  0.6578
   14MOL0     C 1753   2.565   0.676   1.067  0.1715  0.7498  0.1334
   14MOL0     C 1754   2.436   0.701   0.993 -0.2526 -0.2570  0.9033
   14MOL0     C 1755   2.324   0.656   1.089 -0.3235  0.5164 -0.1845
   14MOL0     C 1756   2.185   0.666   1.025 -0.4544  0.6230  0.2926
   14MOL0     C 1757   2.148   0.569   0.921 -0.6610  0.4201 -0.1251
   14MOL0     C 1758   2.004   0.601   0.888 -0.4384 -1.1812  0.1909
   14MOL0     C 1759   1.947   0.508   0.787 -0.1893  0.7439 -0.0683
   14MOL0    Cl 1760   1.765   0.534   0.787 -0.2976  0.0472  0.0838
   14MOL0     C 1761   2.902   0.943   0.940 -0.0268  1.3076 -0.0649
   14MOL0     C 1762   3.035   0.974   0.918  0.0652 -0.5443 -0.1479
   14MOL0     O 1763   3.296   1.007   1.019 -0.1933  0.4672  0.0078
   14MOL0     C 1764   3.453   1.105   0.707 -0.6606 -0.4030  1.1646
   14MOL0     C 1765   3.563   1.171   0.649 -0.0387  0.2551 -1.0016
   14MOL0     N 1766   4.074   1.224   1.040  0.8193 -0.3242 -0.0812
   14MOL0     N 1767   4.153   1.127   1.005 -0.1912 -0.1623  0.3712
   14MOL0     C 1768   5.576   0.874   0.845  0.0594  0.1001  0.5074
   14MOL0     C 1769   5.709   0.874   0.889  0.4911  0.1406  0.3488
   14MOL0     C 1770   6.121   0.965   1.011  0.2436 -0.0557  0.3573
   14MOL0     C 1771   6.151   0.934   1.147  0.3019 -1.1208  0.1268
   14MOL0     C 1772   6.286   0.925   1.184  0.3514  0.2358 -0.7069
   14MOL0     C 1773   6.393   0.925   1.085 -0.0118  0.1781  0.2845
   14MOL0     O 1774   6.523   0.910   1.110 -0.0746  0.0703  1.1822
   14MOL0     C 1775   6.565   0.868   1.244 -0.2543  1.0246 -0.1922
   14MOL0     C 1776   6.717   0.841   1.255  0.5970  0.1043 -0.1834
   14MOL0     C 1777   6.765   0.767   1.380  0.4970 -0.9000  0.4024
   14MOL0     C 1778   6.906   0.731   1.373 -0.5238  0.0570 -0.6913
   14MOL0     C 1779   6.988   0.804   1.477 -0.0945 -0.6372 -1.1058
   14MOL0     C 1780   7.065   0.846   1.560  0.7361 -0.6538 -0.1942
   14MOL0     C 1781   6.361   0.963   0.954  0.2665  0.7006  0.2830
   14MOL0     C 1782   6.231   0.991   0.914  0.4779  0.3471 -0.3467
   14MOL0     H 1783   5.669   1.104   1.138 -1.7787 -0.1654  0.2993
   14MOL0     H 1784   5.442   1.076   1.072  0.6560  2.7056 -0.7688
   14MOL0     H 1785   5.268   1.135   0.890 -2.4518  0.0777 -4.3907
   14MOL0     H 1786   5.252   1.010   1.025 -0.0820  0.8469 -0.2463
   14MOL0     H 1787   5.073   0.904   0.905  0.1910  1.5515  4.6978
   14MOL0     H 1788   5.114   0.975   0.752 -0.9516 -4.6649  0.9001
   14MOL0     H 1789   5.030   1.210   0.838 -2.8410  0.2208 -0.4434
   14MOL0     H 1790   5.004   1.128   0.990 -3.2817  3.1184 -0.6221
   14MOL0     H 1791   4.863   1.070   0.726 -4.5378 -4.4534 -0.2817
   14MOL0     H 1792   4.859   0.960   0.855  0.7349 -1.3782 -2.0799
   14MOL0     H 1793   4.755   1.240   0.888  0.9327  0.1523 -0.1190
   14MOL0     H 1794   4.751   1.104   1.010  0.8848 -0.5711 -0.1926
   14MOL0     H 1795   4.614   0.978   0.886  1.3390  0.2820  0.5413
   14MOL0     H 1796   4.616   1.081   0.742 -1.6163  1.2124  0.5651
   14MOL0     H 1797   4.506   1.140   1.018 -2.2752  3.4833  1.4610
   14MOL0     H 1798   4.510   1.265   0.889 -3.2142 -0.2794  0.5554
   14MOL0     H 1799   4.338   1.006   0.870 -2.5259  0.8307  2.5583
   14MOL0     H 1800   4.373   1.129   0.753  0.2131 -0.1104  0.0283
   14MOL0     H 1801   4.299   1.380   0.852 -1.5186 -0.1881 -1.8029
   14MOL0     H 1802   4.123   1.554   1.025 -0.7913  2.1587 -2.0388
   14MOL0     H 1803   3.984   1.480   1.102  0.8935 -2.0627  0.2245
   14MOL0     H 1804   4.027   1.554   0.802 -0.6422  1.5860 -0.4781
   14MOL0     H 1805   3.922   1.623   0.912  1.3863  0.1826 -0.3562
   14MOL0     H 1806   3.811   1.380   0.943 -1.5591 -0.0640 -0.7431
   14MOL0     H 1807   3.772   1.486   0.804  0.8969  0.0031 -1.4545
   14MOL0     H 1808   3.947   1.234   0.800 -2.2836 -1.8607 -1.7339
   14MOL0     H 1809   3.952   1.358   0.676  0.0747  2.6323  1.4610
   14MOL0     H 1810   3.758   1.186   0.927 -2.3482  4.8318  2.1220
   14MOL0     H 1811   3.566   1.068   1.022  0.8788  1.8527 -0.2855
   14MOL0     H 1812   3.104   0.753   0.675 -1.2725 -1.9848 -0.0323
   14MOL0     H 1813   2.857   0.705   0.701  1.1698 -0.3603 -0.1696
   14MOL0     H 1814   2.641   0.878   1.081  1.2674  0.6387  2.1330
   14MOL0     H 1815   2.754   0.751   1.100 -1.2675  0.6837  1.6716
   14MOL0     H 1816   2.540   0.673   1.173 -1.6558 -1.8688 -0.2500
   14MOL0     H 1817   2.601   0.575   1.044  1.8573  1.0349  1.3909
   14MOL0     H 1818   2.432   0.662   0.891  0.4443 -0.1431  0.8292
   14MOL0     H 1819   2.420   0.809   0.990 -0.4381 -0.2841  0.8921
   14MOL0     H 1820   2.351   0.554   1.117  3.5455  1.6174  0.6166
   14MOL0     H 1821   2.323   0.713   1.182 -0.3278 -2.5774  1.8383
   14MOL0     H 1822   2.173   0.765   0.981  1.2994  0.8706  0.2885
   14MOL0     H 1823   2.118   0.668   1.111 -2.4884 -0.6497 -1.1730
   14MOL0     H 1824   2.176   0.470   0.956  0.0378 -0.6683 -3.4207
   14MOL0     H 1825   2.207   0.599   0.833 -1.0526  0.8945 -0.2311
   14MOL0     H 1826   1.948   0.587   0.982  0.0910  0.0446  0.7107
   14MOL0     H 1827   1.996   0.706   0.860 -0.7221 -1.3453 -0.3568
   14MOL0     H 1828   1.975   0.406   0.810  0.5534  1.2369  1.3052
   14MOL0     H 1829   1.986   0.534   0.688  1.6884  0.4420  0.5699
   14MOL0     H 1830   2.844   0.985   1.022 -2.9041 -2.0322 -0.1326
   14MOL0     H 1831   3.066   1.062   0.974 -0.3672 -0.4428 -0.0659
   14MOL0     H 1832   3.371   1.102   0.636  0.1304 -1.4590  0.2612
   14MOL0     H 1833   3.568   1.201   0.545 -0.2873  2.4695 -0.4332
   14MOL0     H 1834   5.549   0.814   0.759 -1.4863  0.0664  0.9884
   14MOL0     H 1835   5.771   0.806   0.831  0.2965  0.7498 -0.6077
   14MOL0     H 1836   6.073   0.925   1.221  1.6091  1.5856  1.9854
   14MOL0     H 1837   6.316   0.906   1.287  4.6959 -0.1626 -1.8758
   14MOL0     H 1838   6.508   0.776   1.262 -1.6285  2.1040  1.2172
   14MOL0     H 1839   6.528   0.941   1.316 -1.8145 -1.2871  1.5179
   14MOL0     H 1840   6.744   0.798   1.158  0.9831 -2.1695  0.8699
   14MOL0     H 1841   6.769   0.937   1.267 -1.1176  0.9196  1.1684
   14MOL0     H 1842   6.704   0.679   1.405  0.2123 -0.6375  0.6362
   14MOL0     H 1843   6.754   0.830   1.469  0.8194 -1.8297  1.1168
   14MOL0     H 1844   6.916   0.623   1.361 -1.9630  0.0769 -2.5528
   14MOL0     H 1845   6.949   0.779   1.285  1.2737  2.2521  1.2459
   14MOL0     H 1846   7.129   0.866   1.643  0.4352  1.0194 -0.3322
   14MOL0     H 1847   6.448   0.963   0.888 -1.2463  1.4394 -1.8072
   14MOL0     H 1848   6.206   1.027   0.815  1.0958  2.3866  0.1757
   15MOL0     O 1849  10.975   8.182   3.746 -0.2277 -0.0588  0.8283
   15MOL0     C 1850  10.942   8.174   3.858  0.9552 -0.7033  0.5667
   15MOL0     O 1851  10.814   8.210   3.899  0.2120 -0.0183 -0.1364
   15MOL0     C 1852  10.720   8.246   3.808 -0.4774 -1.1498  0.5367
   15MOL0     C 1853  10.692   8.379   3.802  0.5733  0.3845 -1.4175
   15MOL0     C 1854  10.597   8.430   3.704 -0.8025 -0.2946  0.3114
   15MOL0     C 1855  10.520   8.344   3.620 -0.1577 -0.4679 -0.7926
   15MOL0     O 1856  10.434   8.401   3.528  0.1326 -0.2702 -0.2664
   15MOL0     C 1857  10.331   8.327   3.466  0.2340 -0.1619 -0.3388
   15MOL0     C 1858  10.229   8.423   3.404  0.5653  0.3540 -0.4388
   15MOL0     C 1859  10.135   8.495   3.510 -0.2845 -0.4811 -0.3985
   15MOL0     C 1860  10.033   8.388   3.560 -0.7831 -0.0215 -0.2261
   15MOL0     C 1861   9.908   8.436   3.641  0.9622  0.0388  0.5318
   15MOL0     C 1862   9.824   8.312   3.683 -0.1800  0.0606 -0.3091
   15MOL0     C 1863   9.682   8.342   3.726  0.7101 -0.1602 -0.5927
   15MOL0     C 1864   9.606   8.208   3.759  0.3494  0.0909  0.1299
   15MOL0     N 1865   9.466   8.215   3.753  0.4610 -0.0416 -0.0697
   15MOL0     C 1866   9.402   8.319   3.813 -1.1734 -0.9878  0.8138
   15MOL0     C 1867   9.268   8.287   3.795  0.3835 -0.1902  0.4282
   15MOL0     C 1868   9.141   8.361   3.837  0.2121  0.2387 -0.4863
   15MOL0     C 1869   9.117   8.325   3.987 -0.2469  0.0940  0.4170
   15MOL0     C 1870   8.995   8.390   4.043 -0.7415 -0.5697 -0.3311
   15MOL0     C 1871   8.870   8.330   3.995 -1.2623 -0.2174  0.1908
   15MOL0     O 1872   8.861   8.196   4.025 -0.1251  0.0089  0.5538
   15MOL0     C 1873   8.741   8.124   4.010 -0.3590 -1.0624 -0.1379
   15MOL0     C 1874   8.621   8.187   3.971 -0.3352 -0.0001 -0.8652
   15MOL0     C 1875   8.502   8.117   3.976 -0.9432  0.4917 -0.0180
   15MOL0     C 1876   8.497   7.975   4.017 -0.1063 -0.4623 -0.6074
   15MOL0     C 1877   8.375   7.891   4.006 -0.1793 -0.0931 -0.2944
   15MOL0     O 1878   8.377   7.768   4.068  0.1883  1.1623  0.2062
   15MOL0     C 1879   8.266   7.687   4.078 -0.0736  0.1735  0.4878
   15MOL0     C 1880   8.130   7.735   4.067  0.2961 -0.0905 -0.2558
   15MOL0     C 1881   8.021   7.651   4.055  0.2579 -0.1053 -0.2656
   15MOL0     C 1882   8.039   7.518   4.045  0.1311  0.0517 -0.3825
   15MOL0     O 1883   7.935   7.423   4.048 -0.5163 -0.0474 -0.6477
   15MOL0     C 1884   7.809   7.464   4.000  0.0290 -0.5300  0.2751
   15MOL0     C 1885   7.709   7.349   3.994  0.5910 -0.5038 -0.9345
   15MOL0     C 1886   7.741   7.250   3.881  0.7459  0.2337 -0.8297
   15MOL0     C 1887   7.648   7.129   3.895 -0.0818 -0.1807 -0.4101
   15MOL0     C 1888   7.656   7.038   3.777  0.3035 -0.2859  0.8346
   15MOL0     C 1889   7.538   6.940   3.778 -0.3382 -0.1740 -1.1941
   15MOL0     C 1890   7.404   6.989   3.720 -1.1343 -0.3159 -0.5517
   15MOL0     C 1891   7.294   6.886   3.739 -0.4913 -0.8503  0.1611
   15MOL0    Cl 1892   7.336   6.724   3.654 -0.0106 -0.0949  0.1789
   15MOL0     C 1893   8.167   7.459   4.055 -0.5213 -0.0712 -0.2518
   15MOL0     C 1894   8.277   7.550   4.074 -0.4249  0.8853 -0.8537
   15MOL0     O 1895   8.284   7.929   3.926 -0.2414 -0.5817  0.0763
   15MOL0     C 1896   8.621   7.916   4.044  0.5096  0.4129  0.1358
   15MOL0     C 1897   8.739   7.989   4.044 -0.3404 -0.2926 -0.5054
   15MOL0     N 1898   9.260   8.168   3.739 -0.4568  0.4471  1.2207
   15MOL0     N 1899   9.382   8.124   3.702  0.1670  0.2863  0.4592
   15MOL0     C 1900  10.533   8.203   3.648  0.0954  0.3247  0.6793
   15MOL0     C 1901  10.637   8.161   3.736  0.0735  0.0113  0.4191
   15MOL0     C 1902  11.035   8.120   3.955 -0.7357  1.5968 -0.1010
   15MOL0     C 1903  11.165   8.078   3.927  0.3581 -0.3088 -0.7557
   15MOL0     C 1904  11.256   8.022   4.029  0.0597  0.0321 -0.1165
   15MOL0     C 1905  11.215   8.015   4.167 -0.2805  0.0002 -0.0090
   15MOL0     O 1906  11.290   7.972   4.272 -0.0237  0.4443 -0.8613
   15MOL0     C 1907  11.411   7.905   4.241 -0.4599  0.0213  0.3804
   15MOL0     C 1908  11.488   7.916   4.364 -0.3126  0.6584 -0.1583
   15MOL0     C 1909  11.633   7.865   4.365 -0.3163 -0.0800  0.1612
   15MOL0     C 1910  11.672   7.798   4.497 -0.2957 -0.3469  0.4201
   15MOL0     C 1911  11.764   7.687   4.488 -0.2288  0.2063 -0.0640
   15MOL0     C 1912  11.833   7.590   4.494  0.0603 -0.1635 -0.6721
   15MOL0     C 1913  11.091   8.071   4.194 -0.4465 -0.6729  0.4450
   15MOL0     C 1914  11.006   8.106   4.086  0.3239 -0.8449 -1.2670
   15MOL0     H 1915  10.754   8.440   3.868 -0.3016  0.1201 -0.3182
   15MOL0     H 1916  10.586   8.538   3.694 -3.2838 -0.5491 -0.3352
   15MOL0     H 1917  10.285   8.257   3.536  2.8413 -1.6984 -0.0388
   15MOL0     H 1918  10.382   8.264   3.392  0.1253 -3.3798  2.1076
   15MOL0     H 1919  10.162   8.380   3.329 -0.4665  0.5803  0.3233
   15MOL0     H 1920  10.290   8.498   3.354 -0.6185  1.5666 -0.1320
   15MOL0     H 1921  10.069   8.568   3.461 -1.1218 -0.0202  1.3374
   15MOL0     H 1922  10.185   8.546   3.593 -2.5046 -1.7367  1.8691
   15MOL0     H 1923  10.012   8.324   3.474  1.4188 -0.9543 -0.1204
   15MOL0     H 1924  10.091   8.324   3.627  0.8078  1.8093  0.2533
   15MOL0     H 1925   9.843   8.510   3.593 -0.3290  0.0157  2.1695
   15MOL0     H 1926   9.951   8.476   3.733  3.6002 -3.7720  1.1701
   15MOL0     H 1927   9.889   8.250   3.745 -1.3090 -1.3659 -0.4910
   15MOL0     H 1928   9.810   8.257   3.590 -2.6577 -0.1899  0.1316
   15MOL0     H 1929   9.681   8.407   3.814  2.0261 -2.4633  1.2292
   15MOL0     H 1930   9.640   8.401   3.644  0.1397 -0.2155 -0.3424
   15MOL0     H 1931   9.627   8.170   3.859 -0.9648 -1.7540 -0.2449
   15MOL0     H 1932   9.631   8.129   3.687 -0.8871 -1.9717  1.8677
   15MOL0     H 1933   9.455   8.403   3.858  0.5503 -1.9744  0.7045
   15MOL0     H 1934   9.060   8.325   3.772  1.6179 -0.7151 -1.7807
   15MOL0     H 1935   9.143   8.469   3.820 -2.4507  0.6840  1.3946
   15MOL0     H 1936   9.205   8.360   4.042 -0.8410  0.4252  1.1787
   15MOL0     H 1937   9.127   8.216   3.995  3.2559  0.1771 -0.9298
   15MOL0     H 1938   8.982   8.381   4.152 -0.3188 -0.3884 -0.2645
   15MOL0     H 1939   9.000   8.497   4.020 -2.6872 -0.6218 -1.2227
   15MOL0     H 1940   8.863   8.339   3.886  1.0730 -3.9658 -0.4227
   15MOL0     H 1941   8.793   8.393   4.040  0.5632  1.0853  1.6417
   15MOL0     H 1942   8.626   8.294   3.955 -1.4511  0.1622 -0.2558
   15MOL0     H 1943   8.408   8.164   3.950 -1.0414 -1.4479 -3.9484
   15MOL0     H 1944   8.116   7.843   4.071  1.9502  0.2753 -2.4698
   15MOL0     H 1945   7.924   7.701   4.051  0.8675  1.0414 -1.2768
   15MOL0     H 1946   7.818   7.514   3.902  2.7878 -0.9366  0.2441
   15MOL0     H 1947   7.776   7.545   4.066  2.0974  2.9454 -2.5540
   15MOL0     H 1948   7.604   7.380   3.985  0.3204 -0.3613  2.0282
   15MOL0     H 1949   7.712   7.304   4.093  1.6387 -0.2914 -0.8589
   15MOL0     H 1950   7.839   7.209   3.906 -0.3710 -1.2982  1.3487
   15MOL0     H 1951   7.733   7.308   3.788  1.8910 -1.7250 -2.2366
   15MOL0     H 1952   7.695   7.072   3.976 -0.3611 -2.0898 -1.5334
   15MOL0     H 1953   7.547   7.149   3.932 -0.5671 -0.1052 -1.7156
   15MOL0     H 1954   7.747   6.979   3.772 -0.3483 -1.3064  0.6596
   15MOL0     H 1955   7.662   7.090   3.681 -0.7370  0.7554  1.3124
   15MOL0     H 1956   7.534   6.906   3.882  0.9885  0.1084 -1.0368
   15MOL0     H 1957   7.568   6.857   3.714 -2.0997 -0.2614 -1.9430
   15MOL0     H 1958   7.373   7.084   3.764 -1.1655 -0.4339 -0.3142
   15MOL0     H 1959   7.417   7.002   3.612 -4.4076 -2.4735 -1.3568
   15MOL0     H 1960   7.196   6.921   3.706 -0.9267 -1.4088  0.8282
   15MOL0     H 1961   7.276   6.878   3.846  0.0606 -3.4685  0.1304
   15MOL0     H 1962   8.168   7.351   4.042 -2.1317 -0.1573  0.0448
   15MOL0     H 1963   8.378   7.511   4.080 -0.6063  0.5790  0.5709
   15MOL0     H 1964   8.631   7.810   4.063  1.4344  0.8124  2.1801
   15MOL0     H 1965   8.829   7.930   4.061 -0.8450 -1.0895 -0.5476
   15MOL0     H 1966  10.466   8.133   3.600  2.6784 -1.0528 -1.2280
   15MOL0     H 1967  10.658   8.055   3.750 -0.0026 -0.4134 -2.2299
   15MOL0     H 1968  11.206   8.091   3.827  1.0355  0.5652 -0.3832
   15MOL0     H 1969  11.356   7.989   4.001 -0.2699 -1.9989  0.9373
   15MOL0     H 1970  11.466   7.969   4.170  1.1869 -0.5974  1.0358
   15MOL0     H 1971  11.393   7.801   4.212 -0.8722 -0.0313  0.8292
   15MOL0     H 1972  11.489   8.023   4.385 -0.9817  0.7072 -0.3518
   15MOL0     H 1973  11.429   7.871   4.445 -1.3321  0.0403 -1.2059
   15MOL0     H 1974  11.713   7.940   4.356 -0.3382  0.0799  1.1638
   15MOL0     H 1975  11.653   7.798   4.281 -3.3330  3.3958 -3.7819
   15MOL0     H 1976  11.716   7.879   4.557  0.7894 -1.4203  1.1099
   15MOL0     H 1977  11.584   7.767   4.554  0.9311 -0.1090  2.5632
   15MOL0     H 1978  11.886   7.497   4.499  0.4926  0.1426  2.7211
   15MOL0     H 1979  11.069   8.083   4.300 -2.2933 -0.5822  0.0885
   15MOL0     H 1980  10.907   8.145   4.106  0.3461 -1.0224 -0.8029
   16MOL0     O 1981  10.781  10.469  10.783 -0.3155  0.2400  0.1406
   16MOL0     C 1982  10.789  10.573  10.726 -1.5159  0.1196  0.4372
   16MOL0     O 1983  10.733  10.692  10.754  0.5311 -0.0717 -0.1904
   16MOL0     C 1984  10.663  10.696  10.876  0.5508  0.5888  0.2426
   16MOL0     C 1985  10.723  10.705  10.999 -0.8237 -0.4952  0.5909
   16MOL0     C 1986  10.659  10.699  11.121 -0.2257  0.3354 -1.2671
   16MOL0     C 1987  10.519  10.684  11.116 -0.8868 -0.0018 -0.0459
   16MOL0     O 1988  10.439  10.668  11.228 -0.5607 -0.2743 -0.4071
   16MOL0     C 1989  10.422  10.542  11.286  0.7040  0.0800  0.0955
   16MOL0     C 1990  10.324  10.453  11.202 -0.2088 -0.4051  0.4004
   16MOL0     C 1991  10.187  10.511  11.176 -0.1040  0.6835  0.2411
   16MOL0     C 1992  10.089  10.411  11.100 -0.2417 -0.2525 -0.5377
   16MOL0     C 1993   9.954  10.478  11.097  0.6120  0.9204 -0.8015
   16MOL0     C 1994   9.869  10.481  11.227 -0.4089 -0.8271  0.1694
   16MOL0     C 1995   9.715  10.493  11.208 -0.6363 -0.2362  0.1638
   16MOL0     C 1996   9.666  10.641  11.208 -0.5292 -0.1039  0.4804
   16MOL0     N 1997   9.533  10.646  11.264  0.4860 -0.3703 -0.5637
   16MOL0     C 1998   9.420  10.591  11.215  0.6022  0.5198  0.2441
   16MOL0     C 1999   9.317  10.667  11.267  0.7335  0.0802 -0.0243
   16MOL0     C 2000   9.176  10.634  11.238  0.6167 -0.5538  0.3293
   16MOL0     C 2001   9.111  10.716  11.131 -0.1128  0.4486  0.1753
   16MOL0     C 2002   9.020  10.634  11.052  0.3462 -0.1323 -0.4361
   16MOL0     C 2003   8.946  10.726  10.944  0.2801  0.3438 -0.2518
   16MOL0     O 2004   8.960  10.659  10.814 -0.2237 -0.3514 -0.3874
   16MOL0     C 2005   8.867  10.572  10.762 -0.0627 -0.1974  0.4950
   16MOL0     C 2006   8.774  10.506  10.838 -0.4581  0.0639 -0.1301
   16MOL0     C 2007   8.680  10.418  10.779 -0.3107 -0.9122 -0.0121
   16MOL0     C 2008   8.681  10.389  10.646 -1.0341 -0.6330 -0.1402
   16MOL0     C 2009   8.584  10.306  10.578 -0.1575 -0.0134  0.3980
   16MOL0     O 2010   8.633  10.229  10.474  0.0757  0.0920 -0.1412
   16MOL0     C 2011   8.549  10.136  10.414 -0.4427  0.2808  0.4866
   16MOL0     C 2012   8.598  10.001  10.401  1.0752 -0.0428 -0.0222
   16MOL0     C 2013   8.515   9.890  10.367 -0.0067  0.4058 -0.3902
   16MOL0     C 2014   8.377   9.911  10.345 -0.1559 -0.5501  0.2997
   16MOL0     O 2015   8.311   9.796  10.309 -0.3058  0.2114 -0.7985
   16MOL0     C 2016   8.224   9.819  10.199  0.3536 -0.9016 -0.4679
   16MOL0     C 2017   8.156   9.681  10.165 -0.9707 -0.3942 -0.7008
   16MOL0     C 2018   8.031   9.709  10.090 -0.2858 -0.7367 -0.0776
   16MOL0     C 2019   7.937   9.588  10.057  0.2380 -0.5539  0.6183
   16MOL0     C 2020   7.797   9.627   9.997 -0.1831 -0.0689  0.0831
   16MOL0     C 2021   7.710   9.512   9.964  0.2455  0.2184  0.2326
   16MOL0     C 2022   7.575   9.557   9.906 -0.0873 -0.0118  0.0406
   16MOL0     C 2023   7.497   9.436   9.867 -0.3259  0.1484  0.1877
   16MOL0    Cl 2024   7.351   9.485   9.782 -0.0036  0.0840 -0.1307
   16MOL0     C 2025   8.334  10.052  10.354 -0.3529  0.3337 -0.4502
   16MOL0     C 2026   8.418  10.161  10.375  0.3542  0.6621  0.0183
   16MOL0     O 2027   8.474  10.299  10.631 -1.1315  0.4498 -0.2416
   16MOL0     C 2028   8.787  10.447  10.575  0.0209  0.4898  0.1906
   16MOL0     C 2029   8.878  10.532  10.630  0.1448 -0.5442 -0.3816
   16MOL0     N 2030   9.379  10.739  11.366 -1.0577  0.5516  0.5808
   16MOL0     N 2031   9.504  10.742  11.351 -0.1326 -0.4859  0.2196
   16MOL0     C 2032  10.453  10.679  10.991 -0.5753  0.4984 -0.0320
   16MOL0     C 2033  10.528  10.674  10.872 -0.2551 -0.6077  0.8048
   16MOL0     C 2034  10.874  10.576  10.607  0.7065 -0.1037 -0.3360
   16MOL0     C 2035  10.955  10.473  10.568  0.1956  0.3586  0.1860
   16MOL0     C 2036  11.040  10.480  10.457  0.6937 -0.3397 -0.8283
   16MOL0     C 2037  11.042  10.596  10.379 -0.3744  0.2126  1.0246
   16MOL0     O 2038  11.123  10.612  10.265  0.4666  0.2604  0.7996
   16MOL0     C 2039  11.132  10.506  10.171  0.8619 -0.1175  0.2758
   16MOL0     C 2040  10.990  10.463  10.117 -0.5516  0.1152 -0.0367
   16MOL0     C 2041  10.910  10.573  10.052 -1.3653  0.9355  0.3152
   16MOL0     C 2042  10.785  10.592  10.137 -0.5557  0.2490  0.2358
   16MOL0     C 2043  10.707  10.699  10.087 -1.2077 -0.5479 -0.6430
   16MOL0     C 2044  10.630  10.789  10.051 -0.2053  0.2797  0.7960
   16MOL0     C 2045  10.968  10.704  10.420  1.0396 -0.3865  1.0138
   16MOL0     C 2046  10.878  10.692  10.529 -0.0950 -0.6604  0.6815
   16MOL0     H 2047  10.831  10.712  11.001 -0.9064  1.3436 -0.1537
   16MOL0     H 2048  10.704  10.697  11.220 -5.8890 -1.1125  1.6544
   16MOL0     H 2049  10.381  10.563  11.385  1.7140 -1.0221  0.7706
   16MOL0     H 2050  10.517  10.489  11.281  1.0843  0.8678 -1.6193
   16MOL0     H 2051  10.307  10.356  11.249  0.0899 -1.4725 -1.6031
   16MOL0     H 2052  10.364  10.446  11.100 -1.1880  2.5490 -0.2895
   16MOL0     H 2053  10.199  10.603  11.118 -3.2325  0.3471 -1.1686
   16MOL0     H 2054  10.154  10.531  11.278  0.0671 -1.1024  0.6742
   16MOL0     H 2055  10.127  10.408  10.998 -0.6155  1.2024 -0.7369
   16MOL0     H 2056  10.090  10.313  11.150  0.6714 -0.1470 -0.3289
   16MOL0     H 2057   9.902  10.423  11.018  0.6340 -1.3516  0.6680
   16MOL0     H 2058   9.966  10.579  11.056 -0.3018  0.8318 -1.2928
   16MOL0     H 2059   9.899  10.551  11.305  2.4463  1.1068 -2.4262
   16MOL0     H 2060   9.885  10.382  11.270  0.8785  0.1895  2.1707
   16MOL0     H 2061   9.685  10.455  11.110  0.7223 -0.6462 -0.1193
   16MOL0     H 2062   9.663  10.434  11.284 -3.9217  1.5159 -0.5707
   16MOL0     H 2063   9.671  10.675  11.105  1.0056 -4.3844 -1.0797
   16MOL0     H 2064   9.731  10.706  11.267 -0.2640  0.2778 -0.2261
   16MOL0     H 2065   9.390  10.527  11.133 -1.8819  1.9045 -0.0222
   16MOL0     H 2066   9.121  10.639  11.333  1.8860  0.5841  1.0359
   16MOL0     H 2067   9.178  10.529  11.208  2.4277 -0.5278  0.2769
   16MOL0     H 2068   9.196  10.739  11.066 -1.5680 -0.8263 -2.3633
   16MOL0     H 2069   9.063  10.805  11.173  1.4388  0.7712  1.3624
   16MOL0     H 2070   9.092  10.564  11.008 -0.7073 -0.9824 -0.8527
   16MOL0     H 2071   8.950  10.582  11.118 -1.0795 -0.8126 -2.3923
   16MOL0     H 2072   8.992  10.825  10.944  1.0098  0.0739  2.1023
   16MOL0     H 2073   8.844  10.741  10.979 -0.2560 -0.9472 -1.1631
   16MOL0     H 2074   8.773  10.532  10.943 -2.6188  1.5506 -0.4479
   16MOL0     H 2075   8.606  10.368  10.841 -0.6360  1.7290  1.8713
   16MOL0     H 2076   8.703   9.986  10.424  0.7420 -0.8898  1.0277
   16MOL0     H 2077   8.561   9.795  10.342  0.5591  0.9380 -1.4340
   16MOL0     H 2078   8.276   9.857  10.110  1.3818 -0.6597  0.2071
   16MOL0     H 2079   8.152   9.899  10.218  2.0994  1.1472 -1.9921
   16MOL0     H 2080   8.135   9.634  10.261  1.1263  3.5028  1.9464
   16MOL0     H 2081   8.219   9.629  10.092 -2.9925 -2.2349 -1.2369
   16MOL0     H 2082   8.045   9.775  10.004  1.5959  0.6545  1.2331
   16MOL0     H 2083   7.970   9.773  10.154  1.5686 -1.7003  2.8037
   16MOL0     H 2084   7.989   9.522   9.986 -3.1325 -1.7861 -0.8878
   16MOL0     H 2085   7.918   9.528  10.147 -1.0182 -0.2004  0.6056
   16MOL0     H 2086   7.808   9.697   9.914  2.7306  1.7084  1.7877
   16MOL0     H 2087   7.750   9.684  10.076  2.1702 -0.8829  2.2188
   16MOL0     H 2088   7.691   9.471  10.064 -1.4804  2.9474  1.1173
   16MOL0     H 2089   7.763   9.449   9.891 -0.5651 -2.0011  1.4532
   16MOL0     H 2090   7.532   9.623   9.982 -0.1838  2.1232 -1.7544
   16MOL0     H 2091   7.595   9.622   9.821  2.4539 -0.1391  0.4628
   16MOL0     H 2092   7.474   9.382   9.959  1.7907 -0.0778  0.6240
   16MOL0     H 2093   7.545   9.365   9.799 -1.1528 -0.7068  0.4782
   16MOL0     H 2094   8.233  10.084  10.328 -0.6439  0.1292  0.4111
   16MOL0     H 2095   8.373  10.259  10.377  1.5071  1.2369 -1.0240
   16MOL0     H 2096   8.806  10.416  10.472  0.8691 -0.4283  0.5992
   16MOL0     H 2097   8.968  10.576  10.590  0.5181  1.8084  2.7032
   16MOL0     H 2098  10.345  10.676  10.975 -0.5219 -0.6606 -0.2535
   16MOL0     H 2099  10.485  10.635  10.780 -1.5963 -0.4077  1.3156
   16MOL0     H 2100  10.932  10.385  10.627 -3.5199  1.2574  0.3342
   16MOL0     H 2101  11.113  10.409  10.421  2.3753 -0.0679  1.7925
   16MOL0     H 2102  11.176  10.414  10.212 -0.1594 -0.2461  1.1211
   16MOL0     H 2103  11.193  10.545  10.089 -0.7767  0.6303 -0.6598
   16MOL0     H 2104  10.995  10.384  10.041 -0.0191  2.6452 -2.8554
   16MOL0     H 2105  10.943  10.420  10.206  2.5871  0.7149  2.0733
   16MOL0     H 2106  10.884  10.533   9.954 -2.5124  0.7398  0.6778
   16MOL0     H 2107  10.974  10.660  10.033  1.7581 -1.1004  0.8077
   16MOL0     H 2108  10.716  10.508  10.130 -0.7671  0.5072 -1.1694
   16MOL0     H 2109  10.813  10.614  10.240  2.8331 -1.2333 -0.2269
   16MOL0     H 2110  10.571  10.873  10.020 -1.9672 -1.1989 -0.0797
   16MOL0     H 2111  10.985  10.803  10.379  0.7396  0.5079  2.9262
   16MOL0     H 2112  10.818  10.782  10.539  1.3799  0.6704 -1.4777
   17MOL0     O 2113   8.003   8.703   6.207  0.0515  0.0522  0.4909
   17MOL0     C 2114   8.094   8.732   6.128 -0.3425  0.6887 -0.0957
   17MOL0     O 2115   8.073   8.783   6.008  0.1428 -0.2177  0.6799
   17MOL0     C 2116   7.943   8.783   5.967  1.1227  1.0443  0.3565
   17MOL0     C 2117   7.858   8.882   6.024 -0.2018 -0.5015 -0.3364
   17MOL0     C 2118   7.733   8.900   5.982  1.2774  0.2837  0.5532
   17MOL0     C 2119   7.685   8.818   5.873  0.4856  0.9157 -0.0129
   17MOL0     O 2120   7.548   8.824   5.848  0.6594 -0.3057 -0.2863
   17MOL0     C 2121   7.493   8.749   5.735 -0.4000  0.4560  0.2658
   17MOL0     C 2122   7.360   8.806   5.700 -0.1247  0.0960 -0.7193
   17MOL0     C 2123   7.282   8.718   5.611 -0.6366  0.4324  0.1618
   17MOL0     C 2124   7.129   8.766   5.598 -0.0127 -0.0115 -0.1746
   17MOL0     C 2125   7.040   8.682   5.507 -0.2513  0.6641 -0.2822
   17MOL0     C 2126   6.897   8.762   5.503 -0.2109  0.8640  0.7762
   17MOL0     C 2127   6.820   8.767   5.632 -0.3593  0.4325  0.1722
   17MOL0     C 2128   6.810   8.635   5.705 -0.5994 -0.1772  0.6884
   17MOL0     N 2129   6.685   8.642   5.777  0.0999 -0.0075  0.6876
   17MOL0     C 2130   6.679   8.695   5.903  0.1765  0.2986 -0.1412
   17MOL0     C 2131   6.565   8.642   5.959  0.1340  0.4941 -0.1081
   17MOL0     C 2132   6.499   8.649   6.095  0.1647  0.5957 -0.9614
   17MOL0     C 2133   6.580   8.743   6.186  0.4956  0.0115  0.0246
   17MOL0     C 2134   6.500   8.768   6.318 -0.6056  0.0403 -0.0493
   17MOL0     C 2135   6.549   8.891   6.390 -0.1963 -0.6229  0.0693
   17MOL0     O 2136   6.504   9.006   6.305 -1.3633 -0.2090  0.2723
   17MOL0     C 2137   6.584   9.108   6.262 -0.2844  0.2282  0.0833
   17MOL0     C 2138   6.523   9.230   6.212 -0.0631 -0.4485 -0.0396
   17MOL0     C 2139   6.601   9.332   6.161  0.1386 -0.3540 -0.5738
   17MOL0     C 2140   6.741   9.321   6.146 -0.5063 -0.1359  0.0576
   17MOL0     C 2141   6.822   9.432   6.088 -0.8299 -0.8327 -0.6148
   17MOL0     O 2142   6.957   9.410   6.083 -0.2042  0.4419  0.4012
   17MOL0     C 2143   7.035   9.495   6.010  0.2291 -0.6054  0.8536
   17MOL0     C 2144   7.159   9.524   6.060 -0.1023  0.8436  0.7920
   17MOL0     C 2145   7.243   9.611   5.996 -0.5772 -0.3038  0.3868
   17MOL0     C 2146   7.210   9.682   5.889 -0.1775  1.3234 -0.1364
   17MOL0     O 2147   7.307   9.766   5.849 -0.2336 -0.4811 -0.2704
   17MOL0     C 2148   7.271   9.882   5.783  0.0323  0.2320  0.2767
   17MOL0     C 2149   7.390   9.961   5.744  0.7902  0.6481 -0.1011
   17MOL0     C 2150   7.486   9.972   5.861 -0.1888  0.5501  0.5350
   17MOL0     C 2151   7.609  10.055   5.808 -0.4719 -0.6427  0.3749
   17MOL0     C 2152   7.731  10.055   5.909  0.7414 -0.2788  0.4734
   17MOL0     C 2153   7.821  10.168   5.884 -0.0810 -0.7625 -0.0287
   17MOL0     C 2154   7.940  10.170   5.980 -0.8823  0.5487 -0.2887
   17MOL0     C 2155   8.070  10.232   5.923  0.3075 -0.3486 -0.8490
   17MOL0    Cl 2156   8.209  10.239   6.043 -0.1923  0.4660  0.0543
   17MOL0     C 2157   7.090   9.653   5.827  1.0479  0.4536 -0.2233
   17MOL0     C 2158   6.998   9.563   5.888 -0.4894  0.1756  0.2936
   17MOL0     O 2159   6.762   9.524   6.034 -0.0272 -0.5747 -0.0564
   17MOL0     C 2160   6.802   9.206   6.192  0.1500  0.8525 -0.4873
   17MOL0     C 2161   6.727   9.098   6.240  0.4671 -0.5758 -0.7663
   17MOL0     N 2162   6.504   8.560   5.865  0.5773 -0.4455 -1.0027
   17MOL0     N 2163   6.577   8.560   5.754 -1.1388  0.0605 -0.1440
   17MOL0     C 2164   7.770   8.726   5.819 -0.7904  0.6804  0.0051
   17MOL0     C 2165   7.903   8.702   5.863  0.2065 -1.0237 -0.5793
   17MOL0     C 2166   8.239   8.701   6.166  0.2789 -0.6305  0.1459
   17MOL0     C 2167   8.340   8.720   6.072  0.3251  0.5152  0.3176
   17MOL0     C 2168   8.472   8.695   6.105 -0.4918  0.0282 -0.2552
   17MOL0     C 2169   8.505   8.647   6.236  0.2759 -1.4110 -0.1278
   17MOL0     O 2170   8.634   8.633   6.285  0.0835  0.3561 -0.8061
   17MOL0     C 2171   8.732   8.722   6.244 -0.0882 -0.3729 -0.1619
   17MOL0     C 2172   8.765   8.782   6.377 -0.8273  0.2857 -0.0298
   17MOL0     C 2173   8.687   8.887   6.447  0.4805 -0.2570 -0.6463
   17MOL0     C 2174   8.647   9.010   6.363 -0.2355  0.4083 -0.6749
   17MOL0     C 2175   8.764   9.090   6.319 -0.6781  0.2483 -0.2304
   17MOL0     C 2176   8.860   9.152   6.272  0.4250  0.1573  0.2022
   17MOL0     C 2177   8.408   8.617   6.325  0.8028  0.1365  1.2616
   17MOL0     C 2178   8.275   8.644   6.290  1.4004 -0.2244  0.3497
   17MOL0     H 2179   7.894   8.940   6.108  0.6110 -2.5239  0.7884
   17MOL0     H 2180   7.670   8.977   6.025 -0.4851 -1.6463  1.6537
   17MOL0     H 2181   7.485   8.646   5.772 -0.9667  0.6657  0.7474
   17MOL0     H 2182   7.570   8.753   5.658  1.5048 -4.6272  1.5071
   17MOL0     H 2183   7.374   8.906   5.656  0.7067  0.6837  0.8124
   17MOL0     H 2184   7.305   8.806   5.794  1.3538  1.1973  0.1934
   17MOL0     H 2185   7.285   8.617   5.653  1.4539  0.8316  1.1092
   17MOL0     H 2186   7.325   8.714   5.510 -1.0678 -1.7757  0.0132
   17MOL0     H 2187   7.087   8.760   5.699 -0.1797  3.6268  0.1111
   17MOL0     H 2188   7.125   8.873   5.578 -0.6478  0.7053  3.1440
   17MOL0     H 2189   7.041   8.584   5.556  0.3714  0.7619 -0.0926
   17MOL0     H 2190   7.085   8.688   5.407 -0.8492  2.7013 -0.4845
   17MOL0     H 2191   6.842   8.708   5.425  1.2937 -0.5143  0.6071
   17MOL0     H 2192   6.912   8.864   5.466 -1.4625  0.9479  0.4305
   17MOL0     H 2193   6.866   8.840   5.698  0.7855  1.5565 -1.7872
   17MOL0     H 2194   6.720   8.799   5.599 -0.8883 -0.6219  0.7058
   17MOL0     H 2195   6.887   8.636   5.782  0.5175  1.8664 -0.3508
   17MOL0     H 2196   6.813   8.545   5.643  0.1153  0.8672 -0.8873
   17MOL0     H 2197   6.746   8.763   5.956 -1.6972  3.3156 -1.3983
   17MOL0     H 2198   6.506   8.549   6.141  1.2522  0.8158 -0.6205
   17MOL0     H 2199   6.392   8.674   6.091 -0.6369 -2.4196 -1.3113
   17MOL0     H 2200   6.592   8.837   6.132 -0.1914 -0.5641 -1.1438
   17MOL0     H 2201   6.680   8.700   6.201  1.0497  1.1356 -0.3034
   17MOL0     H 2202   6.395   8.780   6.292 -1.3653  3.1209  3.5976
   17MOL0     H 2203   6.504   8.682   6.385 -2.1813 -0.0758 -0.0649
   17MOL0     H 2204   6.657   8.880   6.405 -0.3323 -1.7335  0.3063
   17MOL0     H 2205   6.502   8.906   6.488 -1.5844 -1.0342 -0.5186
   17MOL0     H 2206   6.416   9.245   6.212 -0.3679 -2.4232 -0.3824
   17MOL0     H 2207   6.549   9.422   6.131 -0.4282 -0.4661  0.0558
   17MOL0     H 2208   7.189   9.477   6.153  1.6828 -0.2216 -0.2651
   17MOL0     H 2209   7.345   9.622   6.033  0.5979  0.7593 -2.8250
   17MOL0     H 2210   7.215   9.949   5.849 -0.9764 -1.2743  1.0069
   17MOL0     H 2211   7.205   9.856   5.700  0.2928 -0.8676  0.3863
   17MOL0     H 2212   7.363  10.053   5.692  0.7831 -0.5437 -2.2982
   17MOL0     H 2213   7.445   9.908   5.667  3.8496  1.2391  1.5128
   17MOL0     H 2214   7.514   9.871   5.890 -0.5956 -0.6132 -2.7243
   17MOL0     H 2215   7.444  10.032   5.942  1.6039  0.8765  1.2626
   17MOL0     H 2216   7.646  10.020   5.712 -0.3669 -1.0013  0.5437
   17MOL0     H 2217   7.582  10.161   5.800  0.0341 -0.4983  0.5293
   17MOL0     H 2218   7.775   9.955   5.908 -1.4919 -1.3318 -1.0563
   17MOL0     H 2219   7.696  10.071   6.011 -2.0593 -1.2527 -0.2216
   17MOL0     H 2220   7.767  10.260   5.906  0.9419 -0.5322  1.6203
   17MOL0     H 2221   7.855  10.171   5.780  2.1038 -0.6207  0.6460
   17MOL0     H 2222   7.920  10.230   6.070 -0.6151  1.2852 -0.7133
   17MOL0     H 2223   7.972  10.069   6.009  1.1522  1.4871  0.9389
   17MOL0     H 2224   8.052  10.336   5.894  1.5731  0.4627  1.0528
   17MOL0     H 2225   8.091  10.183   5.828 -0.9130  0.9820 -1.8391
   17MOL0     H 2226   7.063   9.706   5.736 -1.1421 -1.4963 -0.7852
   17MOL0     H 2227   6.898   9.545   5.850 -1.0141 -0.4438  1.8785
   17MOL0     H 2228   6.910   9.195   6.196  0.0164 -0.2177  1.5989
   17MOL0     H 2229   6.779   9.009   6.273  3.6817  0.3383 -2.8906
   17MOL0     H 2230   7.745   8.653   5.743 -1.5733 -0.9445  1.7401
   17MOL0     H 2231   7.961   8.627   5.810  0.4093 -1.5711  0.4116
   17MOL0     H 2232   8.306   8.762   5.978  2.6652 -0.6009 -1.1108
   17MOL0     H 2233   8.547   8.723   6.031  1.5642  0.7866  1.9991
   17MOL0     H 2234   8.697   8.790   6.167 -0.0047 -2.0100 -1.7172
   17MOL0     H 2235   8.824   8.679   6.202 -0.5786  0.5044 -2.2715
   17MOL0     H 2236   8.785   8.704   6.450 -0.4352  1.2776  0.9575
   17MOL0     H 2237   8.864   8.829   6.366  0.3725 -2.5611 -2.9590
   17MOL0     H 2238   8.734   8.925   6.538 -2.1978  0.4614  0.5468
   17MOL0     H 2239   8.594   8.839   6.479  1.5651 -2.0734 -0.0635
   17MOL0     H 2240   8.597   8.988   6.268 -0.4679  0.1204 -0.4884
   17MOL0     H 2241   8.578   9.068   6.424  0.8626  0.5805  0.4426
   17MOL0     H 2242   8.947   9.202   6.234  0.6839 -0.4742 -0.0573
   17MOL0     H 2243   8.442   8.570   6.417  2.3007 -2.7889 -0.6318
   17MOL0     H 2244   8.187   8.625   6.352  0.4498 -1.7197 -1.3500
   18MOL0     O 2245   4.704   1.955   9.827  0.5789 -0.6508  0.6759
   18MOL0     C 2246   4.781   1.965   9.732  0.2784 -0.8594  0.0734
   18MOL0     O 2247   4.751   1.949   9.598  0.0763  0.4870 -0.2838
   18MOL0     C 2248   4.624   1.975   9.559 -0.8726 -0.7031 -0.5415
   18MOL0     C 2249   4.512   1.909   9.611 -0.0751 -0.1307  0.9654
   18MOL0     C 2250   4.383   1.947   9.577  0.5520 -0.6339 -0.2075
   18MOL0     C 2251   4.365   2.049   9.481  0.1973  0.4015  0.2023
   18MOL0     O 2252   4.239   2.074   9.428  0.2160  0.1513  0.2351
   18MOL0     C 2253   4.172   2.182   9.500 -1.2113  0.4490 -0.6576
   18MOL0     C 2254   4.096   2.122   9.620  0.2256 -0.4050 -0.7517
   18MOL0     C 2255   3.982   2.030   9.593  0.2435 -0.7724 -0.0250
   18MOL0     C 2256   3.851   2.096   9.557  0.5563 -0.0369 -0.4591
   18MOL0     C 2257   3.733   2.000   9.551 -0.2787 -0.2622 -0.4449
   18MOL0     C 2258   3.709   1.911   9.680  0.2201  0.7336 -0.5421
   18MOL0     C 2259   3.763   1.764   9.673 -0.3406 -0.1830 -0.3929
   18MOL0     C 2260   3.763   1.690   9.811  0.2374 -0.8480  0.1600
   18MOL0     N 2261   3.621   1.677   9.852 -0.1655  0.1109 -1.5131
   18MOL0     C 2262   3.549   1.770   9.917  0.1547  1.0323  0.2038
   18MOL0     C 2263   3.441   1.715   9.963  0.0126 -0.1153 -0.4570
   18MOL0     C 2264   3.340   1.787  10.058  0.6611  0.0536  0.1425
   18MOL0     C 2265   3.218   1.850   9.992  0.0209 -0.6168  0.5364
   18MOL0     C 2266   3.112   1.753   9.947 -0.2623  0.5979 -0.4310
   18MOL0     C 2267   3.077   1.648  10.058 -0.2848  0.3233 -0.3768
   18MOL0     O 2268   3.048   1.716  10.174 -0.0637 -0.2159  0.5405
   18MOL0     C 2269   2.925   1.772  10.192  0.2203 -0.5572  0.1375
   18MOL0     C 2270   2.917   1.865  10.289  0.4849 -0.0461 -0.3559
   18MOL0     C 2271   2.798   1.926  10.325  0.3071 -0.2072  0.1511
   18MOL0     C 2272   2.673   1.892  10.266  0.1041 -0.4733 -0.9227
   18MOL0     C 2273   2.539   1.944  10.309  0.4173  0.1701  0.3832
   18MOL0     O 2274   2.527   1.989  10.439  0.5157 -0.1236 -0.5350
   18MOL0     C 2275   2.403   2.005  10.495  0.1562  0.1510  0.1516
   18MOL0     C 2276   2.300   1.913  10.469  0.7810  0.7326 -0.1354
   18MOL0     C 2277   2.175   1.932  10.526 -0.0673  0.0099  0.0457
   18MOL0     C 2278   2.147   2.040  10.615 -0.1753  0.3016 -0.9468
   18MOL0     O 2279   2.045   2.055  10.701  0.5683  0.5030 -0.1360
   18MOL0     C 2280   1.963   2.162  10.652 -0.4726  0.5817  0.1415
   18MOL0     C 2281   1.821   2.174  10.701  0.9190  0.1832 -0.6689
   18MOL0     C 2282   1.723   2.059  10.656  0.5231 -0.4663  0.5493
   18MOL0     C 2283   1.574   2.107  10.681 -0.7531 -0.2425  0.3634
   18MOL0     C 2284   1.484   1.979  10.675 -0.4522  0.7027  0.6807
   18MOL0     C 2285   1.335   2.013  10.625 -0.0598  0.1816  0.6367
   18MOL0     C 2286   1.259   1.877  10.576 -0.3331  0.2188 -0.0622
   18MOL0     C 2287   1.189   1.804  10.695 -0.2938  0.8942  0.1462
   18MOL0    Cl 2288   1.098   1.661  10.636 -0.0336 -0.1034  0.3539
   18MOL0     C 2289   2.253   2.136  10.633  0.5669  0.4985  0.7740
   18MOL0     C 2290   2.374   2.113  10.574 -0.1952  0.1138  0.6220
   18MOL0     O 2291   2.449   1.935  10.232  0.0052  0.2531  0.9530
   18MOL0     C 2292   2.685   1.794  10.166 -0.4898 -0.3676 -0.4183
   18MOL0     C 2293   2.809   1.739  10.125  0.8046 -0.5681  0.2056
   18MOL0     N 2294   3.433   1.585   9.918 -0.0578 -0.2848 -1.3220
   18MOL0     N 2295   3.548   1.558   9.854  0.1146 -0.2907 -0.2222
   18MOL0     C 2296   4.477   2.123   9.443  0.4898  0.0665 -0.2462
   18MOL0     C 2297   4.602   2.086   9.477  0.9155  0.1786 -0.7447
   18MOL0     C 2298   4.922   1.990   9.767 -0.8753  0.6204  0.5572
   18MOL0     C 2299   4.964   1.994   9.901 -0.1985 -0.3211  0.2673
   18MOL0     C 2300   5.105   2.016   9.933 -0.3478 -0.1592  1.0817
   18MOL0     C 2301   5.192   2.041   9.828 -1.0602  0.0155 -0.2298
   18MOL0     O 2302   5.321   2.059   9.874  0.5081 -0.6114 -0.5173
   18MOL0     C 2303   5.440   2.038   9.791  0.8252  0.3098  0.6967
   18MOL0     C 2304   5.562   1.974   9.861 -0.4251  0.0450  0.4408
   18MOL0     C 2305   5.592   2.047   9.987  0.1595  0.7397  0.5544
   18MOL0     C 2306   5.701   1.966  10.062 -0.2966  0.2811 -1.1512
   18MOL0     C 2307   5.748   2.043  10.180 -0.4732 -0.2134  0.0158
   18MOL0     C 2308   5.800   2.075  10.279 -0.4531  0.2270  0.0216
   18MOL0     C 2309   5.151   2.060   9.696  0.1599  0.2074 -0.0138
   18MOL0     C 2310   5.019   2.025   9.666  0.3928  0.0395 -0.1018
   18MOL0     H 2311   4.536   1.829   9.681 -0.2126  0.3960  1.6179
   18MOL0     H 2312   4.297   1.891   9.612 -1.8875  1.9667 -1.5719
   18MOL0     H 2313   4.100   2.234   9.436 -0.9887  1.6152  0.0060
   18MOL0     H 2314   4.247   2.253   9.536 -0.6423 -0.2936 -0.3535
   18MOL0     H 2315   4.054   2.201   9.682 -0.6202 -1.7443  0.4486
   18MOL0     H 2316   4.165   2.069   9.686 -1.0905 -2.9307 -1.2568
   18MOL0     H 2317   3.977   1.957   9.674  2.1884  0.3567  1.2009
   18MOL0     H 2318   4.020   1.968   9.511 -0.5848 -1.8083  0.3531
   18MOL0     H 2319   3.826   2.174   9.631  0.3093 -1.5361  1.1090
   18MOL0     H 2320   3.858   2.145   9.460  1.7679 -0.7296 -0.7348
   18MOL0     H 2321   3.754   1.935   9.466 -0.7541 -0.2736 -0.5547
   18MOL0     H 2322   3.649   2.066   9.529 -0.6471 -0.8356 -0.7879
   18MOL0     H 2323   3.601   1.901   9.694  0.3991 -1.2757 -0.2386
   18MOL0     H 2324   3.744   1.973   9.763  0.1213  0.3422 -0.2026
   18MOL0     H 2325   3.704   1.703   9.604 -0.6141  1.5732 -1.7773
   18MOL0     H 2326   3.868   1.760   9.641 -0.3720  0.4311 -0.5834
   18MOL0     H 2327   3.800   1.753   9.892 -0.9644 -1.2582  1.0597
   18MOL0     H 2328   3.808   1.591   9.798 -0.8358 -1.2015 -1.0547
   18MOL0     H 2329   3.581   1.873   9.932  1.3907  1.5590 -4.3678
   18MOL0     H 2330   3.397   1.872  10.098  1.0160  0.6517 -1.5650
   18MOL0     H 2331   3.302   1.723  10.138 -1.6242  0.3976 -0.6005
   18MOL0     H 2332   3.251   1.911   9.908  1.0724 -2.4082 -0.3947
   18MOL0     H 2333   3.175   1.914  10.070 -0.6185  2.4519 -2.1127
   18MOL0     H 2334   3.026   1.786   9.888 -0.5811  1.6321  0.5698
   18MOL0     H 2335   3.167   1.690   9.877  0.1738 -0.6909  1.0108
   18MOL0     H 2336   3.167   1.594  10.087 -0.9268 -0.0313  1.0870
   18MOL0     H 2337   2.994   1.584  10.027  0.8686 -0.9965 -0.8231
   18MOL0     H 2338   3.000   1.899  10.350 -0.0008 -1.3930  1.1618
   18MOL0     H 2339   2.796   1.999  10.405  0.6334 -0.8634  0.7741
   18MOL0     H 2340   2.314   1.827  10.405  0.9127  0.2012  0.5843
   18MOL0     H 2341   2.099   1.858  10.505 -0.8853  0.6553  0.6489
   18MOL0     H 2342   1.948   2.152  10.544 -2.1820  2.7368  0.1216
   18MOL0     H 2343   2.011   2.258  10.674 -0.6093  0.3690  1.4089
   18MOL0     H 2344   1.786   2.269  10.660  2.7100  0.4148 -1.7527
   18MOL0     H 2345   1.812   2.184  10.810 -1.0013 -0.4102 -0.7332
   18MOL0     H 2346   1.741   1.973  10.721  1.8850  0.4110  1.3815
   18MOL0     H 2347   1.750   2.024  10.556 -0.6133 -0.5064  0.2402
   18MOL0     H 2348   1.555   2.171  10.768 -3.5230  1.3849 -1.2723
   18MOL0     H 2349   1.547   2.175  10.599 -4.9209 -1.8624  0.1453
   18MOL0     H 2350   1.486   1.933  10.774 -1.1078  0.7094  0.7034
   18MOL0     H 2351   1.533   1.914  10.601  0.5138  0.5440  1.4464
   18MOL0     H 2352   1.329   2.077  10.537 -0.5214 -0.1131  0.4545
   18MOL0     H 2353   1.272   2.060  10.700 -1.3829 -0.0714 -0.2814
   18MOL0     H 2354   1.184   1.907  10.502  0.1923  0.3567 -0.5460
   18MOL0     H 2355   1.327   1.808  10.524 -0.3689 -2.2907  2.9189
   18MOL0     H 2356   1.118   1.874  10.739 -0.8883  1.9911 -2.3528
   18MOL0     H 2357   1.258   1.770  10.773 -0.4276  1.0641  0.3401
   18MOL0     H 2358   2.233   2.224  10.693 -3.4606  1.0563 -1.0537
   18MOL0     H 2359   2.457   2.180  10.594  1.8864 -2.2501  0.4687
   18MOL0     H 2360   2.593   1.756  10.124  0.5620 -1.9769 -1.3465
   18MOL0     H 2361   2.799   1.654  10.057  0.4005 -2.3933  2.4057
   18MOL0     H 2362   4.469   2.206   9.374  0.7848  0.1515 -0.1783
   18MOL0     H 2363   4.685   2.143   9.436  1.7000  1.1949  2.0584
   18MOL0     H 2364   4.900   1.989   9.989  0.7399  0.5063  1.0242
   18MOL0     H 2365   5.136   2.027  10.036 -0.6120  3.5081  0.9076
   18MOL0     H 2366   5.461   2.140   9.756 -2.6147  0.8416 -0.1796
   18MOL0     H 2367   5.416   1.979   9.703 -0.9185  1.7134  0.1707
   18MOL0     H 2368   5.529   1.872   9.883 -0.8195 -0.0129 -0.3930
   18MOL0     H 2369   5.652   1.970   9.798 -0.0127 -1.2832  1.0555
   18MOL0     H 2370   5.506   2.040  10.055  0.5560 -1.2366  0.9074
   18MOL0     H 2371   5.626   2.150   9.968  1.3179  0.3775  0.6017
   18MOL0     H 2372   5.662   1.872  10.102  0.3069  0.8816  0.9975
   18MOL0     H 2373   5.792   1.950  10.003  0.5204  1.3246 -0.2515
   18MOL0     H 2374   5.855   2.103  10.367 -2.0089  3.9445  0.0222
   18MOL0     H 2375   5.222   2.082   9.617  0.0462  1.3226  0.1712
   18MOL0     H 2376   4.994   2.038   9.561  0.9595  1.8264 -0.0570
   19MOL0     O 2377  10.149  10.206   9.929 -0.2394  0.5640 -0.2637
   19MOL0     C 2378  10.162  10.087   9.955  0.1092 -0.1254 -0.2509
   19MOL0     O 2379  10.133   9.982   9.870 -0.5610  0.1767  0.5882
   19MOL0     C 2380  10.075   9.993   9.749 -0.2983 -0.1056 -0.7493
   19MOL0     C 2381  10.131   9.937   9.636 -0.1158 -0.2445 -0.3508
   19MOL0     C 2382  10.057   9.938   9.515  0.3404 -0.1564  0.3937
   19MOL0     C 2383   9.926   9.993   9.512  0.5560  0.0237  0.0679
   19MOL0     O 2384   9.841   9.983   9.401  0.7712 -0.3184  0.1740
   19MOL0     C 2385   9.697   9.991   9.421 -0.1077  0.3900  0.2999
   19MOL0     C 2386   9.635   9.902   9.313 -0.2730 -0.0737 -0.5411
   19MOL0     C 2387   9.478   9.914   9.295 -0.5868 -0.1843  0.8617
   19MOL0     C 2388   9.438  10.039   9.209  0.0696 -0.8804  0.8841
   19MOL0     C 2389   9.283  10.056   9.208 -0.6873  0.3269 -0.8674
   19MOL0     C 2390   9.204   9.937   9.153 -0.4569 -0.7974 -0.0575
   19MOL0     C 2391   9.229   9.896   9.005  0.1634  0.0895  0.0061
   19MOL0     C 2392   9.130   9.786   8.966 -0.3631  0.0287  0.7022
   19MOL0     N 2393   9.004   9.836   8.914  0.4526 -0.4990 -0.6645
   19MOL0     C 2394   8.890   9.829   8.991  0.0998 -1.3238 -0.0775
   19MOL0     C 2395   8.790   9.850   8.902  0.5892 -0.6841  0.3154
   19MOL0     C 2396   8.652   9.842   8.957 -0.0421 -0.2201  0.5109
   19MOL0     C 2397   8.535   9.797   8.861  0.5907 -1.4881  0.4150
   19MOL0     C 2398   8.494   9.904   8.770 -0.4656 -0.0870  0.2956
   19MOL0     C 2399   8.372   9.862   8.691 -0.1482  0.2671  0.4072
   19MOL0     O 2400   8.270   9.841   8.781  0.2451 -0.0315  0.3356
   19MOL0     C 2401   8.146   9.835   8.727  0.3282  0.6610 -0.6447
   19MOL0     C 2402   8.054   9.808   8.829 -0.2990  0.2270  0.5050
   19MOL0     C 2403   7.923   9.784   8.804  0.0587 -0.1896 -0.3236
   19MOL0     C 2404   7.865   9.783   8.673  0.0162  0.5362 -0.0157
   19MOL0     C 2405   7.719   9.744   8.648 -0.6048  0.3846  0.6482
   19MOL0     O 2406   7.651   9.684   8.752 -0.5834  0.0928  0.2049
   19MOL0     C 2407   7.538   9.616   8.730  0.1698  0.4902  0.1826
   19MOL0     C 2408   7.438   9.603   8.833  0.2529 -0.0896 -0.4073
   19MOL0     C 2409   7.319   9.540   8.812  0.1504  0.5339  1.2413
   19MOL0     C 2410   7.289   9.484   8.685 -0.7155  0.0029 -0.9894
   19MOL0     O 2411   7.162   9.447   8.665  0.3245 -0.3809 -0.2389
   19MOL0     C 2412   7.131   9.352   8.559 -0.8702 -0.7751  0.3145
   19MOL0     C 2413   6.994   9.285   8.601 -0.3322  0.1319 -0.0228
   19MOL0     C 2414   6.979   9.144   8.541 -0.2268  0.4674 -0.1302
   19MOL0     C 2415   6.838   9.103   8.589  0.4546 -0.5391  0.4302
   19MOL0     C 2416   6.808   8.962   8.560 -0.1622  0.2543  0.5060
   19MOL0     C 2417   6.673   8.913   8.605  0.1534 -0.4620  0.3898
   19MOL0     C 2418   6.629   8.785   8.528 -0.0035 -0.9299  0.4092
   19MOL0     C 2419   6.503   8.722   8.597  0.2158  0.0111 -0.2219
   19MOL0    Cl 2420   6.551   8.603   8.726 -0.0405  0.1421 -0.0393
   19MOL0     C 2421   7.393   9.477   8.591  0.2663 -0.2904 -0.0390
   19MOL0     C 2422   7.517   9.531   8.615  0.2956  0.2092 -0.1265
   19MOL0     O 2423   7.678   9.749   8.532 -0.2310  0.2926 -0.3414
   19MOL0     C 2424   7.960   9.812   8.572 -0.3979  0.6324 -0.6828
   19MOL0     C 2425   8.093   9.838   8.598 -0.3641  1.4278 -0.0006
   19MOL0     N 2426   8.838   9.883   8.779 -0.3017  1.2600 -0.8835
   19MOL0     N 2427   8.971   9.866   8.785  0.1202 -0.5871  0.0097
   19MOL0     C 2428   9.883  10.050   9.633 -0.1866  0.2386  0.5246
   19MOL0     C 2429   9.954  10.047   9.746  0.2504 -0.0765 -0.4103
   19MOL0     C 2430  10.231  10.045  10.080 -0.1692 -0.3236  0.3666
   19MOL0     C 2431  10.256   9.915  10.116  0.2948  0.0873  0.3441
   19MOL0     C 2432  10.324   9.878  10.233  0.6011 -0.6872  1.0898
   19MOL0     C 2433  10.372   9.978  10.322  0.3493 -0.1533 -0.0121
   19MOL0     O 2434  10.422   9.947  10.451  0.5285  0.0851 -0.1122
   19MOL0     C 2435  10.415   9.817  10.505 -0.5251  0.7034 -0.4722
   19MOL0     C 2436  10.289   9.769  10.574 -0.3836  0.4254 -0.6580
   19MOL0     C 2437  10.242   9.848  10.701  0.2334 -0.3403 -0.2165
   19MOL0     C 2438  10.169   9.747  10.790  0.3291  0.2586 -0.2084
   19MOL0     C 2439  10.133   9.800  10.925  0.1402 -0.0301  0.1560
   19MOL0     C 2440  10.117   9.844  11.040  0.6867  0.1059  0.0610
   19MOL0     C 2441  10.335  10.106  10.294  0.3021  0.4383 -0.3247
   19MOL0     C 2442  10.273  10.138  10.176 -0.2626 -0.3107  0.2611
   19MOL0     H 2443  10.230   9.894   9.643  0.1227  0.5633  3.4910
   19MOL0     H 2444  10.121   9.906   9.433 -1.1481  1.6561 -1.5742
   19MOL0     H 2445   9.660  10.093   9.404 -1.8288 -0.5936 -2.6400
   19MOL0     H 2446   9.663   9.950   9.517 -1.7742 -2.3592 -1.3361
   19MOL0     H 2447   9.669   9.800   9.331 -0.6530 -0.1019  0.0325
   19MOL0     H 2448   9.675   9.933   9.215  1.7538  0.6113  0.4527
   19MOL0     H 2449   9.423   9.911   9.390 -1.3964 -1.7950  0.3786
   19MOL0     H 2450   9.444   9.828   9.236 -1.8734  0.5662  0.4888
   19MOL0     H 2451   9.484  10.119   9.268  1.4404 -0.1281 -1.0815
   19MOL0     H 2452   9.481  10.041   9.108 -0.5943 -0.1305  0.6050
   19MOL0     H 2453   9.259  10.147   9.152 -0.0189  1.2141  0.2597
   19MOL0     H 2454   9.270  10.077   9.314 -1.2328  0.8965 -1.0427
   19MOL0     H 2455   9.099   9.969   9.150 -0.1947  0.2262  1.1286
   19MOL0     H 2456   9.221   9.851   9.219  0.8993  0.0291  0.7040
   19MOL0     H 2457   9.218   9.980   8.935  1.8975  1.1200  0.8938
   19MOL0     H 2458   9.336   9.872   9.003  0.3684  0.9869 -1.1941
   19MOL0     H 2459   9.100   9.732   9.056 -0.8512  1.2661  1.3140
   19MOL0     H 2460   9.170   9.726   8.884 -2.3169 -3.1390  1.8670
   19MOL0     H 2461   8.886   9.818   9.099 -2.3443  2.2198  0.3868
   19MOL0     H 2462   8.626   9.943   8.990  0.8308  0.0832  0.3062
   19MOL0     H 2463   8.658   9.776   9.044  0.4559  0.3923  0.9451
   19MOL0     H 2464   8.455   9.764   8.928  0.4080 -0.3789  0.7596
   19MOL0     H 2465   8.560   9.702   8.813  1.2982 -1.8497  1.4598
   19MOL0     H 2466   8.459   9.982   8.839  1.0419 -1.7163  3.0438
   19MOL0     H 2467   8.566   9.945   8.699 -1.7103 -0.2564 -1.1261
   19MOL0     H 2468   8.396   9.772   8.632  0.2399 -0.2336  1.3156
   19MOL0     H 2469   8.356   9.941   8.617 -1.2281 -0.0128  0.3229
   19MOL0     H 2470   8.081   9.819   8.933 -2.3976 -1.0936  1.2536
   19MOL0     H 2471   7.864   9.748   8.888  2.1537 -1.3463  0.7065
   19MOL0     H 2472   7.452   9.667   8.921  2.9177 -2.6991  1.2521
   19MOL0     H 2473   7.247   9.533   8.893 -2.0155  2.5738 -0.3746
   19MOL0     H 2474   7.205   9.273   8.543  0.7276  1.0159 -1.7067
   19MOL0     H 2475   7.111   9.409   8.468  0.4672 -0.3996  0.2334
   19MOL0     H 2476   6.917   9.344   8.549  1.8929  2.2872 -1.0631
   19MOL0     H 2477   6.984   9.293   8.710  0.7325 -1.1018  0.1852
   19MOL0     H 2478   7.058   9.077   8.575 -1.3540 -0.1400  1.4722
   19MOL0     H 2479   6.993   9.158   8.434  3.9827  1.4871  0.3631
   19MOL0     H 2480   6.828   9.112   8.697  1.0996 -3.5160  0.8336
   19MOL0     H 2481   6.765   9.164   8.534 -0.5113 -3.9172 -2.3946
   19MOL0     H 2482   6.875   8.888   8.605 -0.5529 -2.3903 -2.8027
   19MOL0     H 2483   6.811   8.947   8.451 -0.0143 -0.1801  0.5685
   19MOL0     H 2484   6.608   8.998   8.582  1.8496  1.1689  1.3050
   19MOL0     H 2485   6.680   8.903   8.714  2.3262 -0.6170  0.2972
   19MOL0     H 2486   6.592   8.814   8.429  0.8470 -3.5607 -0.7761
   19MOL0     H 2487   6.701   8.707   8.502 -0.8674 -1.6065  0.0005
   19MOL0     H 2488   6.455   8.665   8.516 -2.7913  2.1416 -0.0931
   19MOL0     H 2489   6.422   8.787   8.630 -2.6397 -1.5598 -3.4749
   19MOL0     H 2490   7.373   9.453   8.487 -2.2911 -1.3882  0.6296
   19MOL0     H 2491   7.599   9.515   8.546  0.2075  2.0718 -0.7168
   19MOL0     H 2492   7.931   9.840   8.471  1.4131  1.9465 -0.8854
   19MOL0     H 2493   8.164   9.841   8.516  0.9161  0.4751  1.0302
   19MOL0     H 2494   9.790  10.106   9.637 -0.3667  0.0689 -0.9531
   19MOL0     H 2495   9.903  10.080   9.836  1.1394 -1.5117  0.6620
   19MOL0     H 2496  10.204   9.845  10.051 -0.2491  1.2432 -0.5010
   19MOL0     H 2497  10.339   9.772  10.249 -0.9460 -0.7481  2.4054
   19MOL0     H 2498  10.494   9.815  10.580 -2.2875  2.0786  1.5558
   19MOL0     H 2499  10.439   9.741  10.430  0.4773  1.3631 -0.8247
   19MOL0     H 2500  10.205   9.766  10.505 -1.2197  2.8376  0.1440
   19MOL0     H 2501  10.305   9.662  10.586  1.1909  0.6882 -0.1295
   19MOL0     H 2502  10.168   9.921  10.668 -3.3948 -3.7122 -0.3848
   19MOL0     H 2503  10.323   9.896  10.756 -1.2339  2.1575 -0.1047
   19MOL0     H 2504  10.085   9.698  10.739 -0.0868 -1.4545  1.9648
   19MOL0     H 2505  10.229   9.659  10.814 -0.3110  0.2426  1.5209
   19MOL0     H 2506  10.099   9.883  11.138 -1.6843 -0.3361 -0.1513
   19MOL0     H 2507  10.348  10.179  10.373  1.3549  0.0094 -0.0764
   19MOL0     H 2508  10.250  10.244  10.164 -1.2372 -0.6934 -1.7277
   20MOL0     O 2509   4.794   4.679   9.596  0.2483 -0.4243 -0.0428
   20MOL0     C 2510   4.767   4.756   9.506 -0.4490  0.8066  1.1116
   20MOL0     O 2511   4.659   4.833   9.493  0.5405  0.3846  0.0558
   20MOL0     C 2512   4.566   4.843   9.590  0.9940  1.1264  0.3448
   20MOL0     C 2513   4.510   4.725   9.654 -0.1936  0.0660 -0.7799
   20MOL0     C 2514   4.416   4.743   9.759  1.0148  0.2267  0.8536
   20MOL0     C 2515   4.369   4.868   9.793 -0.5613  0.3666  0.0806
   20MOL0     O 2516   4.279   4.903   9.889  0.0853 -0.5132  0.6871
   20MOL0     C 2517   4.220   4.805   9.979  0.2765  0.3260  0.2582
   20MOL0     C 2518   4.228   4.853  10.129  0.6027 -0.1093 -0.1804
   20MOL0     C 2519   4.126   4.776  10.215  0.0751  0.2265 -0.2580
   20MOL0     C 2520   4.163   4.628  10.237 -0.6551  0.0452 -0.4551
   20MOL0     C 2521   4.085   4.556  10.353 -0.1210 -1.1789  0.2043
   20MOL0     C 2522   4.116   4.410  10.361 -0.1312  0.1352 -0.6109
   20MOL0     C 2523   4.046   4.338  10.478  0.8110  0.6425 -0.1658
   20MOL0     C 2524   4.068   4.187  10.469  0.5046  0.6107  0.3703
   20MOL0     N 2525   3.979   4.120  10.562 -0.0249 -0.0689  0.4159
   20MOL0     C 2526   4.013   4.023  10.658 -0.6536 -0.0359  0.4975
   20MOL0     C 2527   3.893   3.967  10.699 -0.6736  0.7113 -0.1852
   20MOL0     C 2528   3.868   3.839  10.782  0.2849 -0.4026  0.5332
   20MOL0     C 2529   3.868   3.864  10.937 -0.6584 -0.6604  0.2094
   20MOL0     C 2530   3.778   3.767  11.002  1.1921  0.4764 -0.2151
   20MOL0     C 2531   3.777   3.783  11.157 -0.5683 -0.8539  0.6482
   20MOL0     O 2532   3.664   3.702  11.203  0.0975 -0.6133 -0.6566
   20MOL0     C 2533   3.538   3.742  11.196  0.3479 -0.7898  0.1772
   20MOL0     C 2534   3.501   3.870  11.165 -1.4230 -0.2653 -0.6939
   20MOL0     C 2535   3.367   3.904  11.173 -1.0159 -0.1644 -0.2758
   20MOL0     C 2536   3.270   3.818  11.216  0.0928 -0.2963  0.1031
   20MOL0     C 2537   3.134   3.862  11.244  0.0050 -0.0234 -0.5192
   20MOL0     O 2538   3.104   3.990  11.210 -0.2421 -0.2310  0.4543
   20MOL0     C 2539   2.975   4.029  11.228  0.7217  0.1324  0.4637
   20MOL0     C 2540   2.871   3.959  11.163  0.3567  0.1122  0.4792
   20MOL0     C 2541   2.736   3.984  11.173  0.2815 -0.5313  1.0839
   20MOL0     C 2542   2.694   4.088  11.260  0.9074  0.4394 -0.1566
   20MOL0     O 2543   2.567   4.118  11.297  0.0772 -0.1158 -0.4750
   20MOL0     C 2544   2.463   4.080  11.212 -0.5605  0.0697 -0.7930
   20MOL0     C 2545   2.327   4.130  11.257  1.4914 -0.5501  0.4717
   20MOL0     C 2546   2.301   4.167  11.402 -0.2641  0.0822  0.2226
   20MOL0     C 2547   2.300   4.037  11.490 -0.4824 -1.2306  0.4433
   20MOL0     C 2548   2.249   4.059  11.638  0.7833 -0.4690  0.4675
   20MOL0     C 2549   2.111   4.122  11.653 -1.0156  0.1718  0.5449
   20MOL0     C 2550   2.067   4.124  11.796 -0.2812  0.3541 -1.1268
   20MOL0     C 2551   1.928   4.050  11.817 -0.0712 -0.8616  0.7874
   20MOL0    Cl 2552   1.966   3.879  11.813 -0.0318  0.2588 -0.0091
   20MOL0     C 2553   2.789   4.158  11.324  0.1593 -0.6348 -0.8525
   20MOL0     C 2554   2.934   4.134  11.311  0.5312 -0.1726 -1.0798
   20MOL0     O 2555   3.046   3.782  11.287  0.6203 -0.5352 -0.0428
   20MOL0     C 2556   3.313   3.687  11.258  0.3292  0.3564  0.3087
   20MOL0     C 2557   3.441   3.649  11.242 -0.1208 -0.5908 -0.5051
   20MOL0     N 2558   3.793   4.031  10.625  0.7247 -0.3699  0.0067
   20MOL0     N 2559   3.846   4.119  10.546 -0.8021 -0.1031 -0.1196
   20MOL0     C 2560   4.413   4.980   9.711 -0.0372  0.4187  0.1931
   20MOL0     C 2561   4.515   4.973   9.619  0.5172  0.6102 -0.0898
   20MOL0     C 2562   4.861   4.777   9.393  0.2359 -0.4695  0.2203
   20MOL0     C 2563   4.955   4.681   9.363 -0.6661  1.1658 -0.3741
   20MOL0     C 2564   5.052   4.706   9.262  0.4822  0.3647 -0.9211
   20MOL0     C 2565   5.049   4.830   9.193 -0.6069 -0.4048 -0.6562
   20MOL0     O 2566   5.154   4.869   9.112  0.3653  0.2659  0.0013
   20MOL0     C 2567   5.276   4.787   9.102  0.9167  0.2150 -0.5210
   20MOL0     C 2568   5.384   4.852   9.012  0.0043  0.5343  0.2917
   20MOL0     C 2569   5.518   4.797   9.050  0.8734  0.2715 -0.1892
   20MOL0     C 2570   5.628   4.878   8.974  1.1381 -0.2328 -0.3565
   20MOL0     C 2571   5.730   4.782   8.927  0.2902  0.0261 -0.1998
   20MOL0     C 2572   5.824   4.725   8.888 -0.3191 -0.3085 -0.3956
   20MOL0     C 2573   4.960   4.926   9.233  0.0259 -0.3167  0.1263
   20MOL0     C 2574   4.861   4.900   9.323  0.4485 -0.6490 -0.1129
   20MOL0     H 2575   4.547   4.625   9.631 -2.4027 -0.3862 -2.6647
   20MOL0     H 2576   4.388   4.654   9.815 -0.6758  0.0183 -0.2508
   20MOL0     H 2577   4.274   4.711   9.967 -1.3068 -0.4541 -1.3275
   20MOL0     H 2578   4.116   4.790   9.949 -0.1763  0.5344  1.6502
   20MOL0     H 2579   4.199   4.958  10.136  0.1382 -0.3594  3.2833
   20MOL0     H 2580   4.329   4.850  10.172  0.6505 -4.0646 -0.2672
   20MOL0     H 2581   4.026   4.777  10.170  0.8083 -3.3134 -2.3471
   20MOL0     H 2582   4.126   4.830  10.311  0.3686  1.8486 -1.1396
   20MOL0     H 2583   4.152   4.560  10.152  0.6321 -2.1987  1.0602
   20MOL0     H 2584   4.271   4.634  10.256 -0.9822  1.7263  1.2046
   20MOL0     H 2585   3.979   4.562  10.329 -0.0610  0.2840  0.2094
   20MOL0     H 2586   4.101   4.613  10.446 -1.6324  0.9717 -0.7665
   20MOL0     H 2587   4.223   4.387  10.362 -0.2811 -0.8469  2.1825
   20MOL0     H 2588   4.074   4.364  10.271 -2.0775 -1.5993  1.0932
   20MOL0     H 2589   4.085   4.378  10.573 -0.9283  2.3672 -0.1130
   20MOL0     H 2590   3.941   4.367  10.477  1.3916  2.8478 -0.8884
   20MOL0     H 2591   4.175   4.170  10.487  0.7604  2.2085  0.5072
   20MOL0     H 2592   4.041   4.151  10.370  0.9808 -1.9311  1.0808
   20MOL0     H 2593   4.106   3.991  10.702  0.4792  1.9728 -0.2698
   20MOL0     H 2594   3.949   3.774  10.746  1.7418  0.2962  2.3777
   20MOL0     H 2595   3.778   3.792  10.742 -0.9898  0.7276  1.9642
   20MOL0     H 2596   3.840   3.963  10.975  2.0890 -0.2600  1.4340
   20MOL0     H 2597   3.973   3.852  10.964  0.1707  2.2447 -1.1969
   20MOL0     H 2598   3.676   3.783  10.966  0.5230 -0.1251  1.3201
   20MOL0     H 2599   3.803   3.668  10.962  0.1185  0.3620 -0.6291
   20MOL0     H 2600   3.754   3.889  11.167 -1.6285 -0.6808 -2.4259
   20MOL0     H 2601   3.873   3.763  11.205  0.0596  1.1570  0.3242
   20MOL0     H 2602   3.568   3.943  11.123 -1.8284 -0.1137 -1.0804
   20MOL0     H 2603   3.347   4.008  11.151  1.7424  0.9369  1.7912
   20MOL0     H 2604   2.885   3.867  11.108 -1.6172  1.0348 -1.7665
   20MOL0     H 2605   2.672   3.918  11.117  2.4241 -0.9249 -1.0980
   20MOL0     H 2606   2.450   3.971  11.205  2.7839 -0.4138 -1.0569
   20MOL0     H 2607   2.478   4.105  11.107 -3.4622 -0.1657 -1.3555
   20MOL0     H 2608   2.253   4.063  11.213  1.3041  1.2955 -2.2779
   20MOL0     H 2609   2.293   4.220  11.206 -3.5539 -0.5049  3.2360
   20MOL0     H 2610   2.208   4.225  11.403 -1.8024 -2.2223  2.1265
   20MOL0     H 2611   2.384   4.231  11.435  0.1842  0.5002 -1.5938
   20MOL0     H 2612   2.242   3.954  11.448 -2.3036  0.2658 -0.1473
   20MOL0     H 2613   2.403   4.005  11.506  0.6697  1.3051 -1.3362
   20MOL0     H 2614   2.331   4.114  11.684  2.1039 -1.1025 -1.0140
   20MOL0     H 2615   2.237   3.960  11.683  0.7394 -0.8678 -0.3995
   20MOL0     H 2616   2.037   4.071  11.591 -0.4289  0.4349 -0.3888
   20MOL0     H 2617   2.116   4.227  11.620  1.3975 -0.7203 -2.3871
   20MOL0     H 2618   2.138   4.075  11.864  1.5351  2.6967 -1.2192
   20MOL0     H 2619   2.072   4.231  11.817  2.1911  0.6350 -2.7182
   20MOL0     H 2620   1.852   4.073  11.743 -0.5196  0.8061  1.7113
   20MOL0     H 2621   1.887   4.080  11.914  0.4923  0.8845  0.5229
   20MOL0     H 2622   2.754   4.236  11.390  0.6625 -1.1602  0.0606
   20MOL0     H 2623   3.008   4.195  11.362 -0.3768  1.7854 -1.9970
   20MOL0     H 2624   3.241   3.612  11.290  0.3621 -0.3313 -1.1124
   20MOL0     H 2625   3.480   3.553  11.271 -0.5940  0.0891  2.7292
   20MOL0     H 2626   4.372   5.077   9.738  0.1231  0.4996  0.1482
   20MOL0     H 2627   4.545   5.063   9.567  0.6471  0.8667  0.4162
   20MOL0     H 2628   4.957   4.590   9.422  0.3071  0.3972 -1.5255
   20MOL0     H 2629   5.121   4.625   9.236 -2.2625 -2.5005  0.1192
   20MOL0     H 2630   5.255   4.689   9.057  1.6568 -1.0821  1.7722
   20MOL0     H 2631   5.319   4.777   9.202 -0.9169  2.9925  0.6644
   20MOL0     H 2632   5.369   4.828   8.906 -0.1873  0.6520  0.2911
   20MOL0     H 2633   5.380   4.960   9.031  1.6006  0.7968 -0.6752
   20MOL0     H 2634   5.517   4.691   9.025  2.5927  0.3478 -0.7558
   20MOL0     H 2635   5.529   4.805   9.159 -0.4343 -2.4090  0.2271
   20MOL0     H 2636   5.588   4.927   8.884 -1.4765 -0.0168  0.8475
   20MOL0     H 2637   5.673   4.947   9.046  0.1263 -1.9551  2.0481
   20MOL0     H 2638   5.919   4.689   8.853 -0.6557 -1.3430 -0.2539
   20MOL0     H 2639   4.948   5.028   9.197 -1.1504  0.6754  3.0019
   20MOL0     H 2640   4.789   4.978   9.349  2.6945  1.3892  0.2731
   21MOL0     O 2641   1.928   7.659   8.896 -0.3910 -0.6752  0.4065
   21MOL0     C 2642   1.942   7.545   8.927 -0.0860 -0.4073 -0.3477
   21MOL0     O 2643   1.847   7.445   8.921 -0.2934  0.0428  0.3382
   21MOL0     C 2644   1.736   7.458   8.839  0.6422  0.1428  0.4906
   21MOL0     C 2645   1.631   7.370   8.858  0.0830  0.7284  0.1468
   21MOL0     C 2646   1.509   7.383   8.790 -0.3333  0.4834 -0.2505
   21MOL0     C 2647   1.488   7.494   8.705 -0.0577 -0.5991  0.1777
   21MOL0     O 2648   1.372   7.512   8.632  0.1149  0.7467 -0.4552
   21MOL0     C 2649   1.308   7.394   8.586  0.5411  0.4167 -0.1147
   21MOL0     C 2650   1.185   7.417   8.493  0.0333  0.2480 -0.3250
   21MOL0     C 2651   1.100   7.296   8.470  0.0614  0.2592  0.7243
   21MOL0     C 2652   0.971   7.330   8.394 -0.8054 -0.4401  0.9058
   21MOL0     C 2653   0.897   7.213   8.339  0.4605  0.5201  0.6942
   21MOL0     C 2654   0.808   7.249   8.222  0.1808  0.4441 -0.2075
   21MOL0     C 2655   0.695   7.340   8.271 -0.9028  0.2703 -0.1925
   21MOL0     C 2656   0.572   7.328   8.177 -0.9733 -0.4241  0.2284
   21MOL0     N 2657   0.591   7.384   8.044 -0.2735  0.5220 -0.1330
   21MOL0     C 2658   0.652   7.314   7.944  0.3570  0.3702 -0.2693
   21MOL0     C 2659   0.672   7.398   7.854 -0.6530 -1.1938  0.6300
   21MOL0     C 2660   0.742   7.383   7.721 -0.3834 -0.1739 -0.0891
   21MOL0     C 2661   0.658   7.372   7.603  0.5470  0.7029 -0.2756
   21MOL0     C 2662   0.586   7.244   7.616 -0.0857  0.5880  0.4991
   21MOL0     C 2663   0.473   7.233   7.518  0.2921  0.0638  0.3721
   21MOL0     O 2664   0.410   7.100   7.527  0.0262 -0.1735  0.4038
   21MOL0     C 2665   0.271   7.109   7.505  0.4648  0.1960  0.4375
   21MOL0     C 2666   0.223   7.032   7.392 -0.1641 -0.0141  0.3471
   21MOL0     C 2667   0.086   7.033   7.354  0.0784 -0.5293  0.3246
   21MOL0     C 2668  -0.012   7.095   7.435  0.3303 -0.1565  0.0948
   21MOL0     C 2669  -0.155   7.084   7.428 -0.1773  0.0454  0.9186
   21MOL0     O 2670  -0.200   6.999   7.332  0.1192 -0.0124  0.2071
   21MOL0     C 2671  -0.336   6.983   7.320  0.3567  0.2822 -0.7330
   21MOL0     C 2672  -0.400   6.893   7.408 -0.1805 -0.2713  0.3122
   21MOL0     C 2673  -0.538   6.871   7.393  0.7424  0.3590  0.4088
   21MOL0     C 2674  -0.617   6.946   7.301  0.0583 -0.5035  0.7574
   21MOL0     O 2675  -0.750   6.918   7.284 -0.5258  0.5067 -1.4460
   21MOL0     C 2676  -0.810   6.950   7.160  0.5140 -0.4929 -0.0308
   21MOL0     C 2677  -0.941   6.887   7.149 -0.1518  0.8508  0.1889
   21MOL0     C 2678  -0.994   6.878   7.013  0.8472  0.1240  0.6535
   21MOL0     C 2679  -1.014   7.014   6.936 -0.3158  0.8956 -0.7423
   21MOL0     C 2680  -1.080   6.984   6.802 -0.2604  0.9796  0.1406
   21MOL0     C 2681  -1.118   7.120   6.725 -0.4020 -0.4300  0.5208
   21MOL0     C 2682  -1.009   7.180   6.633  0.1245 -0.5392  0.7778
   21MOL0     C 2683  -1.021   7.129   6.491  0.2124 -0.2482 -0.0650
   21MOL0    Cl 2684  -1.179   7.170   6.424 -0.3843  0.4043  0.5731
   21MOL0     C 2685  -0.550   7.046   7.219  0.1046 -0.3065 -0.0631
   21MOL0     C 2686  -0.407   7.053   7.231  0.1050 -0.5231 -0.5463
   21MOL0     O 2687  -0.234   7.140   7.507 -0.3647 -0.7489 -0.3141
   21MOL0     C 2688   0.040   7.174   7.539 -0.1760 -0.4327 -0.1108
   21MOL0     C 2689   0.168   7.188   7.577 -0.9102  0.2379  0.9486
   21MOL0     N 2690   0.623   7.520   7.895 -0.2038 -0.1779 -0.5487
   21MOL0     N 2691   0.562   7.506   8.009 -0.4545 -0.4527  0.4080
   21MOL0     C 2692   1.591   7.580   8.681 -0.3960 -0.6178 -0.5591
   21MOL0     C 2693   1.710   7.564   8.744 -0.5459  0.1502  0.7299
   21MOL0     C 2694   2.077   7.505   8.982  0.5527 -0.0134 -0.2216
   21MOL0     C 2695   2.090   7.381   9.041  0.1207 -0.4201 -0.4983
   21MOL0     C 2696   2.209   7.334   9.088 -0.0294 -0.8793 -0.3570
   21MOL0     C 2697   2.330   7.405   9.070  0.1096 -0.2938 -0.0397
   21MOL0     O 2698   2.448   7.346   9.107 -0.1674 -0.6270  0.2103
   21MOL0     C 2699   2.557   7.353   9.020  0.5338 -0.2099  0.1677
   21MOL0     C 2700   2.669   7.269   9.078 -0.9139  0.0456 -0.0467
   21MOL0     C 2701   2.807   7.261   9.014  0.2980  0.1270 -0.1094
   21MOL0     C 2702   2.898   7.159   9.084 -0.3224 -0.6740 -0.0375
   21MOL0     C 2703   3.038   7.179   9.074 -0.7490 -0.1916  0.4782
   21MOL0     C 2704   3.160   7.201   9.069 -0.2227 -0.6056  0.3726
   21MOL0     C 2705   2.316   7.535   9.020 -0.2541 -0.5757  0.7267
   21MOL0     C 2706   2.189   7.587   8.972 -0.0671  0.5616  0.7754
   21MOL0     H 2707   1.651   7.286   8.923 -3.5595 -1.2487 -1.0272
   21MOL0     H 2708   1.424   7.317   8.807 -1.8939  3.0171  3.0835
   21MOL0     H 2709   1.276   7.327   8.667 -0.0326  1.1979  0.3190
   21MOL0     H 2710   1.377   7.330   8.530  0.8534 -0.9142  1.6768
   21MOL0     H 2711   1.223   7.444   8.394  1.9970  0.0253  0.3386
   21MOL0     H 2712   1.124   7.496   8.538 -1.1967 -1.0356  0.3460
   21MOL0     H 2713   1.055   7.250   8.558 -0.4319 -2.2712 -0.7551
   21MOL0     H 2714   1.165   7.213   8.440  1.8526  1.5813  0.7590
   21MOL0     H 2715   0.902   7.399   8.443 -0.2964 -1.7067  3.6103
   21MOL0     H 2716   1.012   7.375   8.303 -0.9019 -0.8784  0.6448
   21MOL0     H 2717   0.839   7.174   8.423  1.7559  0.9620  1.8341
   21MOL0     H 2718   0.957   7.126   8.312  0.6749  0.8162  0.2017
   21MOL0     H 2719   0.762   7.156   8.189 -0.4774  1.1339 -1.2679
   21MOL0     H 2720   0.862   7.295   8.139 -0.2523  1.5194  0.0985
   21MOL0     H 2721   0.661   7.292   8.363  0.2337 -1.5010 -0.6668
   21MOL0     H 2722   0.727   7.443   8.290 -1.6667  0.1553  2.0035
   21MOL0     H 2723   0.488   7.380   8.223 -0.4485  1.6929 -1.0325
   21MOL0     H 2724   0.539   7.224   8.176 -1.9124 -0.1333  0.2653
   21MOL0     H 2725   0.651   7.206   7.934 -0.4518  0.5424 -2.5795
   21MOL0     H 2726   0.803   7.294   7.736 -1.2364 -0.7156  0.2316
   21MOL0     H 2727   0.822   7.453   7.694  1.6114 -2.2308  0.2435
   21MOL0     H 2728   0.719   7.378   7.512  0.7256  0.4712 -0.1700
   21MOL0     H 2729   0.590   7.458   7.604  1.4164  1.4323  2.1881
   21MOL0     H 2730   0.655   7.162   7.593 -1.9537 -0.5352 -1.4788
   21MOL0     H 2731   0.546   7.217   7.715 -0.1554 -0.1034  0.2900
   21MOL0     H 2732   0.491   7.272   7.418 -2.0934  2.1128  0.6434
   21MOL0     H 2733   0.403   7.313   7.547  0.2577 -0.0415  0.5831
   21MOL0     H 2734   0.292   6.966   7.340 -2.7140 -1.3068 -1.6028
   21MOL0     H 2735   0.068   6.975   7.263  1.8919 -2.1558  0.9332
   21MOL0     H 2736  -0.344   6.838   7.483  0.7335  0.8855  0.5060
   21MOL0     H 2737  -0.583   6.802   7.464 -1.5439  1.1028 -0.2230
   21MOL0     H 2738  -0.748   6.913   7.077  1.0475 -1.8205  0.9275
   21MOL0     H 2739  -0.820   7.058   7.150 -0.6319 -0.3512  2.2203
   21MOL0     H 2740  -1.011   6.956   7.196 -2.3709  0.7233 -2.6560
   21MOL0     H 2741  -0.935   6.785   7.190 -4.0607 -0.4221 -1.8515
   21MOL0     H 2742  -1.088   6.823   7.020  2.7816 -3.4533  0.5238
   21MOL0     H 2743  -0.917   6.828   6.954  0.6115  4.2107 -3.7756
   21MOL0     H 2744  -1.071   7.081   7.001 -0.0367 -0.4537  0.9557
   21MOL0     H 2745  -0.916   7.058   6.913  0.4096  1.3884  2.7617
   21MOL0     H 2746  -1.167   6.921   6.825  0.2043  0.4250  0.4209
   21MOL0     H 2747  -1.012   6.922   6.744  0.7299 -0.2228  2.4571
   21MOL0     H 2748  -1.142   7.193   6.803 -0.0680  0.5681 -0.2812
   21MOL0     H 2749  -1.209   7.103   6.666  0.6464  1.0788 -1.7180
   21MOL0     H 2750  -1.014   7.289   6.627  1.5868 -0.4234  1.1459
   21MOL0     H 2751  -0.912   7.155   6.678 -0.8172 -1.5142  2.3595
   21MOL0     H 2752  -0.995   7.023   6.490 -2.8767 -1.0933 -0.5878
   21MOL0     H 2753  -0.943   7.172   6.426  0.3498 -0.7396 -0.2295
   21MOL0     H 2754  -0.601   7.104   7.143 -0.3336 -0.6426 -0.0312
   21MOL0     H 2755  -0.362   7.132   7.172 -1.7672 -1.3647 -3.2828
   21MOL0     H 2756  -0.035   7.234   7.590 -1.1481 -2.3334  0.7951
   21MOL0     H 2757   0.206   7.247   7.660  1.6587 -1.2937  0.9823
   21MOL0     H 2758   1.594   7.658   8.606 -2.3182 -0.1932 -0.2369
   21MOL0     H 2759   1.783   7.634   8.704 -1.8658  1.0636 -0.1792
   21MOL0     H 2760   1.999   7.327   9.062 -0.5911  0.5894 -0.8917
   21MOL0     H 2761   2.217   7.236   9.134  0.3740 -0.1156  1.2699
   21MOL0     H 2762   2.597   7.454   9.011 -0.4493  0.2691  1.0016
   21MOL0     H 2763   2.529   7.323   8.918  0.0129 -1.4431  0.6453
   21MOL0     H 2764   2.698   7.308   9.175  1.1710  0.7020 -0.8907
   21MOL0     H 2765   2.633   7.166   9.085  0.3980 -0.5969 -1.9913
   21MOL0     H 2766   2.865   7.354   9.019  1.3579 -0.5482  0.5424
   21MOL0     H 2767   2.803   7.222   8.912  1.4256  0.3380 -0.2540
   21MOL0     H 2768   2.877   7.183   9.189 -0.6817  1.6239 -0.5677
   21MOL0     H 2769   2.872   7.058   9.051  0.7557 -0.8323 -0.4649
   21MOL0     H 2770   3.265   7.218   9.082 -0.7770  1.5420  2.7342
   21MOL0     H 2771   2.408   7.593   9.012  0.2426 -1.4902 -0.5541
   21MOL0     H 2772   2.181   7.680   8.916 -0.2141 -0.2719 -0.6324
   22MOL0     O 2773   5.575   1.901   3.500  0.6552  0.1937 -0.0732
   22MOL0     C 2774   5.667   1.940   3.579  0.1240 -0.1570 -1.1165
   22MOL0     O 2775   5.662   1.953   3.712  1.1087 -0.9094  0.1572
   22MOL0     C 2776   5.547   1.941   3.786  0.0779  0.0982 -0.7468
   22MOL0     C 2777   5.420   1.888   3.758  0.1521  0.1736 -0.1131
   22MOL0     C 2778   5.315   1.895   3.848 -0.4494  0.4212  0.6206
   22MOL0     C 2779   5.335   1.957   3.968  0.0754  0.6734  0.0808
   22MOL0     O 2780   5.223   1.979   4.049 -0.1115 -0.0229 -0.2150
   22MOL0     C 2781   5.086   1.948   4.010  0.3508 -0.1419  0.5862
   22MOL0     C 2782   4.979   2.023   4.076  0.5172  0.0437 -0.2393
   22MOL0     C 2783   4.987   1.999   4.233  0.0810 -0.4350  0.1217
   22MOL0     C 2784   4.871   2.080   4.314 -0.3761 -0.4017  0.3338
   22MOL0     C 2785   4.912   2.106   4.461  0.5511 -0.2970  0.2098
   22MOL0     C 2786   4.798   2.165   4.546 -0.4352  0.6242  0.2179
   22MOL0     C 2787   4.695   2.258   4.467 -1.0121  0.1613  0.0784
   22MOL0     C 2788   4.586   2.304   4.563 -0.0689  0.2445 -0.3175
   22MOL0     N 2789   4.480   2.210   4.608  0.0530  0.1132 -0.5722
   22MOL0     C 2790   4.370   2.232   4.691  0.9425  0.4525 -0.1900
   22MOL0     C 2791   4.296   2.117   4.688  0.9027 -0.1132  0.6004
   22MOL0     C 2792   4.164   2.082   4.740 -0.6199  0.4671 -0.6277
   22MOL0     C 2793   4.163   2.078   4.885 -1.0683 -0.6016 -0.0870
   22MOL0     C 2794   4.029   2.085   4.954  0.4204 -0.3667  0.1113
   22MOL0     C 2795   3.919   1.992   4.894  0.4604  0.3571  0.3137
   22MOL0     O 2796   3.804   1.990   4.976  0.3580  0.3480  0.5066
   22MOL0     C 2797   3.710   1.894   4.970  0.4848 -0.2101 -0.0760
   22MOL0     C 2798   3.654   1.854   5.093  1.6622  0.2399  0.3269
   22MOL0     C 2799   3.553   1.760   5.097 -0.1956 -0.4059 -0.2185
   22MOL0     C 2800   3.507   1.700   4.974 -0.8352  0.7812  0.5774
   22MOL0     C 2801   3.419   1.584   4.979  0.0327 -0.3069  0.1555
   22MOL0     O 2802   3.392   1.527   4.857  0.6494 -0.1882  0.5784
   22MOL0     C 2803   3.296   1.428   4.841 -0.3296 -0.4500  0.4834
   22MOL0     C 2804   3.164   1.464   4.821 -0.3509  0.0005 -0.7938
   22MOL0     C 2805   3.067   1.365   4.792  0.4021 -0.1846  0.3071
   22MOL0     C 2806   3.108   1.234   4.782 -0.7504 -0.2864  0.5439
   22MOL0     O 2807   3.007   1.151   4.746  0.0863 -0.2430  0.2071
   22MOL0     C 2808   3.036   1.014   4.716  0.3390 -0.8603 -0.5493
   22MOL0     C 2809   2.905   0.945   4.672 -0.6452  0.7278  0.0359
   22MOL0     C 2810   2.793   0.962   4.776 -0.3677  0.4470  0.6560
   22MOL0     C 2811   2.689   0.872   4.731  0.2880  0.2386 -0.2741
   22MOL0     C 2812   2.590   0.845   4.848  0.0035 -0.1256 -0.7600
   22MOL0     C 2813   2.474   0.757   4.805 -0.5425  0.4487 -0.0162
   22MOL0     C 2814   2.370   0.727   4.924 -0.1439 -0.4275 -0.5366
   22MOL0     C 2815   2.315   0.585   4.906  0.8841  0.8378  0.2756
   22MOL0    Cl 2816   2.224   0.535   5.053 -0.1521  0.1496 -0.3115
   22MOL0     C 2817   3.243   1.197   4.808 -0.1251 -0.0666  0.2984
   22MOL0     C 2818   3.338   1.297   4.837  0.3444  0.5512  0.0823
   22MOL0     O 2819   3.358   1.557   5.078  0.7702 -0.2154 -0.5472
   22MOL0     C 2820   3.563   1.743   4.854 -0.0918 -0.1904  0.0721
   22MOL0     C 2821   3.668   1.836   4.851 -0.8263 -0.6335 -0.6041
   22MOL0     N 2822   4.373   2.026   4.613 -0.3931 -0.1042  0.3530
   22MOL0     N 2823   4.472   2.084   4.560 -0.0493 -0.0179 -0.3035
   22MOL0     C 2824   5.462   2.002   4.004  0.7469 -0.2056  0.3295
   22MOL0     C 2825   5.560   2.003   3.912 -0.5695  0.2061  0.3968
   22MOL0     C 2826   5.796   1.959   3.516 -0.5936  0.5541 -0.1879
   22MOL0     C 2827   5.911   1.963   3.593 -0.6699  0.2733  0.4785
   22MOL0     C 2828   6.030   1.996   3.536  0.5076 -0.6975 -0.1540
   22MOL0     C 2829   6.039   2.013   3.396 -0.3405 -0.3335  1.3370
   22MOL0     O 2830   6.159   2.034   3.325  0.5369  0.9582 -0.6050
   22MOL0     C 2831   6.283   2.059   3.398  0.4083 -0.5019  0.3864
   22MOL0     C 2832   6.400   2.075   3.293 -0.1415 -0.8738 -0.2056
   22MOL0     C 2833   6.414   2.209   3.206  0.5129 -0.0462 -0.5661
   22MOL0     C 2834   6.346   2.187   3.078  0.1920 -0.2479 -0.0870
   22MOL0     C 2835   6.424   2.109   2.983  0.1535 -0.0847  0.3425
   22MOL0     C 2836   6.490   2.051   2.897 -0.5070  0.7750 -0.5775
   22MOL0     C 2837   5.928   1.987   3.311  0.0526 -0.4802 -1.0231
   22MOL0     C 2838   5.805   1.969   3.374  0.7181  0.4202  0.2439
   22MOL0     H 2839   5.417   1.842   3.659  0.8342 -0.7262  0.2687
   22MOL0     H 2840   5.222   1.853   3.810 -0.5791  0.9549  0.3384
   22MOL0     H 2841   5.069   1.842   4.027  2.1114 -0.5923 -0.1860
   22MOL0     H 2842   5.065   1.955   3.903 -1.2479  0.5387  0.9196
   22MOL0     H 2843   4.884   1.989   4.034 -0.9753  1.0250  2.1321
   22MOL0     H 2844   4.986   2.131   4.060 -4.8139  1.0326  1.6971
   22MOL0     H 2845   5.083   2.035   4.271  0.6695  1.6319 -2.9637
   22MOL0     H 2846   4.983   1.893   4.261  0.7835  0.0763  2.4323
   22MOL0     H 2847   4.854   2.179   4.270 -0.6660  0.7343  2.8279
   22MOL0     H 2848   4.769   2.040   4.306 -1.4845  2.0422  1.0682
   22MOL0     H 2849   4.991   2.178   4.482 -0.5142  0.7139  0.9290
   22MOL0     H 2850   4.940   2.005   4.494  2.2145 -1.4063 -4.0420
   22MOL0     H 2851   4.846   2.220   4.627  0.5985  0.8775 -0.5376
   22MOL0     H 2852   4.743   2.078   4.582 -1.9740  0.7383 -1.6860
   22MOL0     H 2853   4.743   2.346   4.424  3.4651 -1.5883  0.9367
   22MOL0     H 2854   4.646   2.201   4.388  1.3129 -0.3831 -1.0698
   22MOL0     H 2855   4.528   2.378   4.508  2.4132  1.1874 -1.8092
   22MOL0     H 2856   4.623   2.363   4.648  2.9514  0.6086 -1.7745
   22MOL0     H 2857   4.333   2.320   4.742 -0.0162  1.8520 -3.1166
   22MOL0     H 2858   4.113   1.991   4.704 -0.5568 -0.0120  0.4524
   22MOL0     H 2859   4.101   2.161   4.698  1.7555  0.9085 -3.7674
   22MOL0     H 2860   4.213   2.167   4.922  0.4486 -1.8179  0.9273
   22MOL0     H 2861   4.213   1.990   4.928  0.3591  0.7225  1.0440
   22MOL0     H 2862   4.037   2.050   5.058 -0.7367  0.2953  0.4347
   22MOL0     H 2863   3.996   2.188   4.967  1.9126 -0.1678  3.2861
   22MOL0     H 2864   3.965   1.893   4.883 -0.1960  0.1906 -1.2798
   22MOL0     H 2865   3.891   2.029   4.795  1.0570 -2.3256 -0.9568
   22MOL0     H 2866   3.678   1.913   5.181 -1.9985  0.9272  1.0194
   22MOL0     H 2867   3.511   1.728   5.192 -4.5663  0.5106 -1.6139
   22MOL0     H 2868   3.126   1.566   4.812 -0.0170  0.0488 -1.7456
   22MOL0     H 2869   2.965   1.399   4.779  0.5785  0.5842  0.8427
   22MOL0     H 2870   3.075   0.965   4.806  0.6899 -0.3840 -0.4399
   22MOL0     H 2871   3.111   1.011   4.636  2.6026 -1.3094  1.4890
   22MOL0     H 2872   2.936   0.842   4.655 -0.5299  0.8553 -0.5539
   22MOL0     H 2873   2.875   0.995   4.579 -2.2300  0.5364  0.4173
   22MOL0     H 2874   2.757   1.065   4.777  0.5261  0.8831 -2.3439
   22MOL0     H 2875   2.831   0.941   4.877  2.6924 -1.3893 -0.7247
   22MOL0     H 2876   2.626   0.911   4.651  0.0067  2.1851  0.8216
   22MOL0     H 2877   2.730   0.775   4.701  0.4422  0.5461 -1.0843
   22MOL0     H 2878   2.563   0.940   4.894  2.1937  0.4671 -0.5822
   22MOL0     H 2879   2.632   0.789   4.933 -1.9030 -1.0747 -0.3857
   22MOL0     H 2880   2.512   0.661   4.770  2.0750  1.7102 -0.8509
   22MOL0     H 2881   2.421   0.808   4.724  1.9172 -1.8984 -3.3231
   22MOL0     H 2882   2.422   0.713   5.020  0.4133  0.6700 -0.6573
   22MOL0     H 2883   2.301   0.808   4.949  1.6698  1.3005 -0.8964
   22MOL0     H 2884   2.396   0.513   4.891 -2.0354 -2.0243 -3.9173
   22MOL0     H 2885   2.261   0.574   4.811 -0.9855 -0.7763  1.4384
   22MOL0     H 2886   3.277   1.094   4.802 -0.8879 -0.4182  1.6207
   22MOL0     H 2887   3.443   1.280   4.857  0.4303  1.8221  0.7944
   22MOL0     H 2888   3.525   1.697   4.763 -1.0962 -0.1551  0.4710
   22MOL0     H 2889   3.704   1.877   4.758 -2.5866  1.2601 -0.5361
   22MOL0     H 2890   5.476   2.050   4.100 -0.6253 -1.1115  1.0277
   22MOL0     H 2891   5.660   2.038   3.933  0.4916 -1.6934 -1.2402
   22MOL0     H 2892   5.912   1.950   3.701  0.6277 -2.7560  0.1962
   22MOL0     H 2893   6.126   1.996   3.587  2.1073 -0.2387 -2.9748
   22MOL0     H 2894   6.305   1.971   3.459  2.6028 -0.9488 -0.9702
   22MOL0     H 2895   6.279   2.147   3.464 -0.4365  1.1091 -1.7248
   22MOL0     H 2896   6.491   2.075   3.354  0.9046  0.2355 -1.6913
   22MOL0     H 2897   6.405   1.984   3.232  1.8117 -2.6009  2.3128
   22MOL0     H 2898   6.516   2.245   3.191 -0.0532  3.1454  2.2305
   22MOL0     H 2899   6.373   2.288   3.269  1.6239  1.0832 -1.2010
   22MOL0     H 2900   6.245   2.147   3.092 -0.0072  0.7327  1.6630
   22MOL0     H 2901   6.340   2.284   3.027  0.5012  0.4620  1.1883
   22MOL0     H 2902   6.562   2.002   2.834  1.3720  0.1632  1.8713
   22MOL0     H 2903   5.943   1.994   3.204  1.5355  2.3759 -0.7385
   22MOL0     H 2904   5.719   1.957   3.309  1.4826  3.6882 -1.6427
   23MOL0     O 2905   7.225   7.817   6.107  0.2807  0.0963 -0.0709
   23MOL0     C 2906   7.287   7.710   6.086  0.1793 -0.8468 -0.9589
   23MOL0     O 2907   7.232   7.587   6.070  0.3642  0.0753 -0.9305
   23MOL0     C 2908   7.103   7.554   6.102 -0.2474 -0.2836 -0.5249
   23MOL0     C 2909   7.025   7.619   6.201 -0.3545 -0.5397  0.0747
   23MOL0     C 2910   6.885   7.593   6.216 -0.4981  0.8539  0.2739
   23MOL0     C 2911   6.836   7.481   6.142 -0.1013 -0.3634 -0.8058
   23MOL0     O 2912   6.705   7.431   6.173 -0.7086 -0.0431  0.5052
   23MOL0     C 2913   6.599   7.504   6.253  0.3088  0.1794  0.8663
   23MOL0     C 2914   6.545   7.613   6.162  0.6754  1.2671  0.6086
   23MOL0     C 2915   6.397   7.652   6.191  0.3358  0.7330 -0.4994
   23MOL0     C 2916   6.311   7.524   6.169  0.1007 -0.1203 -0.8434
   23MOL0     C 2917   6.167   7.555   6.174  0.8167 -0.2454 -0.1950
   23MOL0     C 2918   6.082   7.429   6.153 -0.6245 -0.4554 -0.0136
   23MOL0     C 2919   6.093   7.363   6.014  0.6813 -0.6926  0.2586
   23MOL0     C 2920   5.967   7.276   5.994 -0.9297 -0.4760  0.0414
   23MOL0     N 2921   5.952   7.164   6.086  0.5490  0.6084  0.4380
   23MOL0     C 2922   6.011   7.044   6.076 -0.0615  0.3062  1.2476
   23MOL0     C 2923   5.961   6.980   6.185 -0.5960  0.5427 -0.1463
   23MOL0     C 2924   5.986   6.838   6.231 -0.1923  0.3154  0.6815
   23MOL0     C 2925   6.133   6.829   6.271 -0.5151  0.1052 -0.1299
   23MOL0     C 2926   6.193   6.698   6.231  0.7738  0.2591  0.7275
   23MOL0     C 2927   6.334   6.683   6.279  0.4002  0.5730 -0.1249
   23MOL0     O 2928   6.345   6.695   6.420 -0.4424  0.1479  0.0725
   23MOL0     C 2929   6.272   6.611   6.503 -0.0541 -0.0175 -0.6120
   23MOL0     C 2930   6.279   6.471   6.477  0.9833 -0.1823  0.3553
   23MOL0     C 2931   6.203   6.383   6.555  0.3851 -0.3652 -0.4113
   23MOL0     C 2932   6.120   6.428   6.649 -0.1214  0.3796 -0.6828
   23MOL0     C 2933   6.052   6.330   6.736 -0.3180 -0.3076  0.6334
   23MOL0     O 2934   5.924   6.362   6.778 -0.1687 -0.5670 -0.8065
   23MOL0     C 2935   5.849   6.285   6.859 -0.5932  0.0345 -0.3913
   23MOL0     C 2936   5.863   6.146   6.863 -0.3474  0.3178  0.4412
   23MOL0     C 2937   5.781   6.070   6.955 -0.3852 -0.1134  0.2624
   23MOL0     C 2938   5.689   6.136   7.039 -0.2512  0.3094 -0.3105
   23MOL0     O 2939   5.617   6.056   7.118 -0.2841 -0.5471 -0.4697
   23MOL0     C 2940   5.583   6.113   7.254 -0.1276 -0.2788  0.5320
   23MOL0     C 2941   5.505   6.016   7.327 -0.9272  0.2464 -0.1733
   23MOL0     C 2942   5.378   5.972   7.251 -0.2462 -0.4025  0.2065
   23MOL0     C 2943   5.270   5.913   7.347  0.0320 -0.6304  0.0716
   23MOL0     C 2944   5.147   5.880   7.263 -0.0588  0.2801 -1.0387
   23MOL0     C 2945   5.047   5.791   7.344  0.3559 -0.5303 -0.1824
   23MOL0     C 2946   4.910   5.796   7.272  0.0107 -0.0459  0.0530
   23MOL0     C 2947   4.919   5.712   7.142 -0.2205 -0.8931 -0.7916
   23MOL0    Cl 2948   4.908   5.542   7.180 -0.4309  0.0576 -0.2857
   23MOL0     C 2949   5.678   6.273   7.037  0.4705  0.5889  0.8823
   23MOL0     C 2950   5.765   6.350   6.949  0.4954  0.3541 -0.1255
   23MOL0     O 2951   6.125   6.243   6.784  0.7269  0.0447  0.3158
   23MOL0     C 2952   6.087   6.565   6.663  0.4790  0.7656  0.6208
   23MOL0     C 2953   6.171   6.656   6.592 -0.2656 -0.5913 -0.3581
   23MOL0     N 2954   5.876   7.064   6.256 -0.0078  0.5242  0.8841
   23MOL0     N 2955   5.878   7.178   6.200 -0.0563  0.6336 -0.7550
   23MOL0     C 2956   6.913   7.416   6.049  0.5548  1.5276 -1.1740
   23MOL0     C 2957   7.043   7.461   6.025  0.5192  0.6775 -0.7812
   23MOL0     C 2958   7.433   7.719   6.094  0.3464  0.8221  0.8535
   23MOL0     C 2959   7.503   7.600   6.059 -0.6094 -0.1640  0.6455
   23MOL0     C 2960   7.642   7.594   6.046 -0.2131  0.5095 -0.4989
   23MOL0     C 2961   7.713   7.704   6.088 -0.4775 -0.1063  0.3593
   23MOL0     O 2962   7.845   7.680   6.097 -0.0913 -0.3803  0.1424
   23MOL0     C 2963   7.936   7.783   6.156  0.2789  0.3414  0.1891
   23MOL0     C 2964   8.080   7.716   6.178  0.8096  0.1746 -1.1974
   23MOL0     C 2965   8.144   7.688   6.031 -0.4055  0.3765  0.2348
   23MOL0     C 2966   8.290   7.636   6.026  0.6368  0.0127 -0.6796
   23MOL0     C 2967   8.384   7.744   6.034 -0.6014  0.4583 -0.1961
   23MOL0     C 2968   8.460   7.839   6.060  0.0498  0.2714 -0.0470
   23MOL0     C 2969   7.651   7.821   6.128  0.3885 -0.1347  0.2694
   23MOL0     C 2970   7.511   7.834   6.130 -0.9035 -0.3131 -0.6033
   23MOL0     H 2971   7.063   7.694   6.270  0.9077 -0.2854 -0.8693
   23MOL0     H 2972   6.838   7.658   6.289  0.4200  2.4097 -0.4673
   23MOL0     H 2973   6.625   7.538   6.354  0.2496 -0.1543  0.9946
   23MOL0     H 2974   6.524   7.426   6.271  2.8303 -1.7034  4.5536
   23MOL0     H 2975   6.543   7.565   6.064  0.3732  1.1173  0.6848
   23MOL0     H 2976   6.619   7.693   6.162 -1.5091  3.4453 -0.6516
   23MOL0     H 2977   6.355   7.726   6.122 -2.5923  2.0437  2.4352
   23MOL0     H 2978   6.399   7.685   6.295 -0.4159  0.6039 -0.4447
   23MOL0     H 2979   6.332   7.484   6.069  0.2944 -0.7747 -0.5423
   23MOL0     H 2980   6.328   7.447   6.244  0.9297  0.0185 -0.8847
   23MOL0     H 2981   6.134   7.625   6.097 -0.2978 -1.5017 -0.8937
   23MOL0     H 2982   6.134   7.597   6.269 -0.1604  2.8702 -1.7628
   23MOL0     H 2983   5.975   7.453   6.160 -0.7821 -1.1027 -0.1967
   23MOL0     H 2984   6.103   7.348   6.223  0.9452 -0.4618 -0.4701
   23MOL0     H 2985   6.095   7.434   5.931 -0.6607 -0.4892  0.3821
   23MOL0     H 2986   6.177   7.293   6.013  0.7363 -0.8599  3.6559
   23MOL0     H 2987   5.983   7.232   5.895  1.3317  1.2875 -0.4722
   23MOL0     H 2988   5.880   7.343   6.002  1.7142  3.2627  0.2105
   23MOL0     H 2989   6.080   7.007   6.001  0.0642 -1.6441  2.2810
   23MOL0     H 2990   5.961   6.763   6.155 -1.4876  0.8600  0.5423
   23MOL0     H 2991   5.930   6.812   6.321 -0.2309 -1.0197  0.2943
   23MOL0     H 2992   6.139   6.849   6.378 -2.9343 -0.4773  0.1707
   23MOL0     H 2993   6.186   6.910   6.220 -0.8647  0.1262 -0.4640
   23MOL0     H 2994   6.127   6.620   6.270 -1.6212  1.7783 -0.0595
   23MOL0     H 2995   6.199   6.684   6.123 -3.1488  1.5570  0.1884
   23MOL0     H 2996   6.401   6.765   6.253 -0.7764  1.7534  0.3934
   23MOL0     H 2997   6.364   6.588   6.236 -0.8114  1.0756 -2.2345
   23MOL0     H 2998   6.350   6.424   6.410 -1.3576 -0.9504 -1.7886
   23MOL0     H 2999   6.231   6.278   6.560  0.1852 -0.4108 -0.2072
   23MOL0     H 3000   5.928   6.088   6.799 -0.4847  0.8154 -0.1590
   23MOL0     H 3001   5.785   5.963   6.973 -2.2786 -0.3426 -0.3598
   23MOL0     H 3002   5.505   6.188   7.237  0.6688  0.7223  1.1715
   23MOL0     H 3003   5.670   6.144   7.313 -0.6987  0.0978  1.1970
   23MOL0     H 3004   5.472   6.060   7.422 -0.9648 -2.1384  0.9983
   23MOL0     H 3005   5.573   5.935   7.357 -1.8381 -0.0989  1.0334
   23MOL0     H 3006   5.409   5.891   7.183 -3.5936 -1.1527 -0.6115
   23MOL0     H 3007   5.337   6.056   7.194 -1.1905 -2.3779 -2.2328
   23MOL0     H 3008   5.298   5.823   7.402  0.5550 -0.2787  0.3897
   23MOL0     H 3009   5.253   5.991   7.422  4.0805 -0.3696  0.9178
   23MOL0     H 3010   5.181   5.825   7.175 -0.0968  0.3854 -1.1196
   23MOL0     H 3011   5.098   5.975   7.239 -1.6680  0.0042  0.9376
   23MOL0     H 3012   5.039   5.821   7.448  0.4442 -1.2390  0.0340
   23MOL0     H 3013   5.082   5.688   7.334  0.7123 -0.3128 -1.3681
   23MOL0     H 3014   4.833   5.752   7.337  1.4722  0.7111  2.4168
   23MOL0     H 3015   4.882   5.901   7.262 -3.0301 -0.7339  0.4341
   23MOL0     H 3016   5.018   5.716   7.096  0.8173 -1.0989  1.2651
   23MOL0     H 3017   4.840   5.753   7.079 -1.2782  1.3591  1.7541
   23MOL0     H 3018   5.612   6.335   7.096  1.3936  2.3789  0.1404
   23MOL0     H 3019   5.765   6.458   6.947 -0.8721  0.3698  0.0125
   23MOL0     H 3020   6.007   6.581   6.735 -0.5930  0.5762 -0.4926
   23MOL0     H 3021   6.176   6.764   6.591  2.3758 -0.6442 -1.6709
   23MOL0     H 3022   6.879   7.321   6.010 -1.3272  2.2957 -1.4746
   23MOL0     H 3023   7.103   7.393   5.966 -1.0824 -1.9043  0.4004
   23MOL0     H 3024   7.458   7.511   6.015 -0.3270  0.3410 -0.7238
   23MOL0     H 3025   7.696   7.514   5.996 -3.0764 -0.6208 -2.0088
   23MOL0     H 3026   7.888   7.831   6.242  1.2000  3.7504 -1.0153
   23MOL0     H 3027   7.946   7.859   6.078 -0.8614 -0.5080 -0.8238
   23MOL0     H 3028   8.140   7.788   6.234  0.9227 -0.3003 -0.6919
   23MOL0     H 3029   8.071   7.619   6.228 -0.4396 -0.1435 -2.0054
   23MOL0     H 3030   8.123   7.782   5.979 -0.1521  0.2552 -0.0893
   23MOL0     H 3031   8.089   7.608   5.980  1.7675 -0.1921 -1.3413
   23MOL0     H 3032   8.304   7.555   6.098 -0.3382 -0.2426 -0.7622
   23MOL0     H 3033   8.296   7.588   5.928  1.3830 -1.4848  0.0848
   23MOL0     H 3034   8.523   7.920   6.089  2.0995 -0.6376 -1.6939
   23MOL0     H 3035   7.720   7.898   6.162 -0.0057  1.6636 -2.6220
   23MOL0     H 3036   7.463   7.928   6.154 -3.0080 -1.4308 -0.1548
   24MOL0     O 3037   2.808   7.391   2.117 -0.0949 -0.3964  0.6904
   24MOL0     C 3038   2.776   7.412   2.232 -0.6403 -0.0383 -0.0499
   24MOL0     O 3039   2.855   7.446   2.333 -0.6446  0.0272 -0.1620
   24MOL0     C 3040   2.991   7.462   2.320  0.3224 -0.4940  0.3721
   24MOL0     C 3041   3.049   7.547   2.419 -0.2278 -0.8691  1.0038
   24MOL0     C 3042   3.189   7.565   2.419  0.2128  0.3982 -0.3882
   24MOL0     C 3043   3.271   7.505   2.328 -0.0470  1.0842  0.8514
   24MOL0     O 3044   3.409   7.531   2.335 -0.1359  0.7684 -0.1438
   24MOL0     C 3045   3.494   7.489   2.227 -0.7074 -0.2445  1.1683
   24MOL0     C 3046   3.490   7.583   2.110  1.0613 -0.1257  0.1481
   24MOL0     C 3047   3.625   7.631   2.063  0.5691 -0.2892  0.4438
   24MOL0     C 3048   3.619   7.743   1.956  0.5499 -0.0696  0.0979
   24MOL0     C 3049   3.756   7.804   1.936 -0.5687  0.4587  1.0081
   24MOL0     C 3050   3.782   7.897   2.049  0.2290 -0.2823 -0.0940
   24MOL0     C 3051   3.918   7.964   2.045  0.4272  0.2176  0.2094
   24MOL0     C 3052   3.948   8.070   1.929  0.4183  0.5473  0.2194
   24MOL0     N 3053   3.872   8.191   1.950  0.5029  0.4636  0.8270
   24MOL0     C 3054   3.782   8.240   1.857  0.0896 -0.5387 -0.2713
   24MOL0     C 3055   3.742   8.357   1.910 -0.5668  0.6382 -0.1322
   24MOL0     C 3056   3.665   8.470   1.865 -0.2933 -0.0840  0.6967
   24MOL0     C 3057   3.561   8.427   1.754  0.3799 -0.6844  0.8298
   24MOL0     C 3058   3.460   8.536   1.710  1.0951 -0.8318  0.0316
   24MOL0     C 3059   3.352   8.479   1.610 -0.7426 -0.2174 -0.6658
   24MOL0     O 3060   3.234   8.563   1.588 -0.3266  0.8181  0.2344
   24MOL0     C 3061   3.141   8.522   1.495 -1.0374 -0.9901  0.0877
   24MOL0     C 3062   3.101   8.391   1.479 -0.8343  0.6710 -0.2962
   24MOL0     C 3063   2.988   8.355   1.400  0.5414  0.0319  0.0559
   24MOL0     C 3064   2.913   8.458   1.337 -0.3129  0.0756 -0.3269
   24MOL0     C 3065   2.793   8.424   1.262 -0.0546 -0.0697  0.5550
   24MOL0     O 3066   2.707   8.528   1.237 -0.4620 -0.1625 -0.5461
   24MOL0     C 3067   2.607   8.504   1.150 -0.9158  0.0408  1.0510
   24MOL0     C 3068   2.620   8.539   1.009 -0.4244 -0.1387  0.1062
   24MOL0     C 3069   2.511   8.517   0.921 -0.4382 -0.1669  0.6845
   24MOL0     C 3070   2.396   8.448   0.969  0.3600  0.6467  0.1935
   24MOL0     O 3071   2.291   8.402   0.885  0.3633 -0.1073 -0.0634
   24MOL0     C 3072   2.173   8.320   0.916  0.1232  0.1136 -0.2715
   24MOL0     C 3073   2.071   8.425   0.971  0.0842  0.6694  0.6034
   24MOL0     C 3074   1.937   8.367   1.011 -0.4567  0.7832 -0.3121
   24MOL0     C 3075   1.955   8.274   1.127  0.6767 -0.7048  0.4885
   24MOL0     C 3076   1.820   8.241   1.207  1.1280 -0.4744 -0.2429
   24MOL0     C 3077   1.697   8.195   1.123  0.1898  0.7753  0.3536
   24MOL0     C 3078   1.585   8.168   1.231  0.5624  0.9529  0.7669
   24MOL0     C 3079   1.596   8.021   1.284  0.4456 -0.5516  0.1863
   24MOL0    Cl 3080   1.443   7.979   1.361  0.3181 -0.1122 -0.0226
   24MOL0     C 3081   2.387   8.419   1.106 -0.0873 -0.0068 -0.2441
   24MOL0     C 3082   2.487   8.445   1.196 -0.9071 -0.3464 -0.2354
   24MOL0     O 3083   2.787   8.307   1.209  0.4615  0.7074 -0.2232
   24MOL0     C 3084   2.964   8.592   1.346  0.2056 -0.9088 -0.1295
   24MOL0     C 3085   3.083   8.619   1.417  0.4514  0.1545 -1.2529
   24MOL0     N 3086   3.804   8.378   2.025  0.0039  0.6012  0.3223
   24MOL0     N 3087   3.883   8.278   2.057 -0.2921  1.1688  0.1610
   24MOL0     C 3088   3.211   7.424   2.233 -0.5322  0.0818  0.9163
   24MOL0     C 3089   3.075   7.401   2.234 -0.0930 -0.5262  0.0816
   24MOL0     C 3090   2.636   7.389   2.279 -0.4632 -0.7523 -0.2734
   24MOL0     C 3091   2.554   7.329   2.198  0.5087  0.0166 -0.6427
   24MOL0     C 3092   2.421   7.300   2.248 -0.7472 -0.4870 -0.1018
   24MOL0     C 3093   2.375   7.362   2.359 -0.1061  0.2237 -0.0372
   24MOL0     O 3094   2.251   7.344   2.416 -0.4956 -0.1091  0.6795
   24MOL0     C 3095   2.155   7.269   2.349 -0.4714 -0.8268  0.1445
   24MOL0     C 3096   2.093   7.361   2.240 -0.3271  0.4922 -0.3655
   24MOL0     C 3097   1.949   7.310   2.228  0.3710 -0.2447 -0.0567
   24MOL0     C 3098   1.876   7.394   2.120 -0.7027  0.1816  0.1400
   24MOL0     C 3099   1.892   7.539   2.150  0.3465 -0.1417  0.1687
   24MOL0     C 3100   1.892   7.643   2.210  0.2647  0.3499  0.5464
   24MOL0     C 3101   2.468   7.425   2.443  0.5023  0.4468 -0.1260
   24MOL0     C 3102   2.600   7.436   2.409 -0.1844  0.2087  0.1145
   24MOL0     H 3103   2.980   7.607   2.478  1.4500  0.3786  1.7980
   24MOL0     H 3104   3.238   7.614   2.503  0.7551 -2.7193  1.2707
   24MOL0     H 3105   3.492   7.384   2.196  1.8797  0.5212 -2.1525
   24MOL0     H 3106   3.592   7.498   2.274 -0.0521  2.3038 -0.4500
   24MOL0     H 3107   3.435   7.668   2.152  0.6635 -1.1284  1.7477
   24MOL0     H 3108   3.431   7.544   2.026 -0.3061  1.2724  0.4123
   24MOL0     H 3109   3.672   7.541   2.022  0.4036 -1.0262  1.8304
   24MOL0     H 3110   3.679   7.676   2.146  2.5137  2.3972 -2.0537
   24MOL0     H 3111   3.582   7.696   1.865  0.7420  1.9189 -1.0503
   24MOL0     H 3112   3.546   7.814   1.995 -1.9668 -2.1408 -0.5577
   24MOL0     H 3113   3.763   7.858   1.841  0.6088 -1.4538 -0.0604
   24MOL0     H 3114   3.836   7.729   1.938 -2.4566 -1.6976 -0.2028
   24MOL0     H 3115   3.784   7.857   2.150 -0.3168  2.4880  1.1108
   24MOL0     H 3116   3.702   7.971   2.060  0.7118 -0.1058  3.5388
   24MOL0     H 3117   3.935   8.015   2.141  0.7410  3.7529 -1.5726
   24MOL0     H 3118   3.985   7.880   2.026  1.0079  1.0363 -1.5207
   24MOL0     H 3119   3.908   8.020   1.840 -2.2536 -1.1751  2.2382
   24MOL0     H 3120   4.054   8.096   1.931  0.4285  0.4350  1.7023
   24MOL0     H 3121   3.748   8.195   1.765 -1.0544 -1.6320  0.6438
   24MOL0     H 3122   3.745   8.538   1.835 -0.9236 -0.0872 -1.1147
   24MOL0     H 3123   3.608   8.514   1.947 -1.7412  0.2805 -0.4543
   24MOL0     H 3124   3.497   8.354   1.806  1.3098 -2.0404  0.1508
   24MOL0     H 3125   3.615   8.375   1.674 -0.7715  0.9032 -1.0893
   24MOL0     H 3126   3.402   8.573   1.796 -2.0049 -2.3328 -1.2657
   24MOL0     H 3127   3.521   8.612   1.660 -0.2778 -0.2405 -0.8115
   24MOL0     H 3128   3.332   8.374   1.636  0.4764 -0.1705  0.6124
   24MOL0     H 3129   3.407   8.467   1.515  3.7632 -1.6709  1.8103
   24MOL0     H 3130   3.139   8.327   1.558 -0.4571  0.1824 -0.8661
   24MOL0     H 3131   2.954   8.252   1.396 -1.7539  0.7573 -2.2332
   24MOL0     H 3132   2.705   8.591   0.965  0.4054  1.2808  3.1547
   24MOL0     H 3133   2.519   8.546   0.817  0.2415 -4.3086 -0.6072
   24MOL0     H 3134   2.197   8.249   0.996 -0.5221 -0.0623 -0.2302
   24MOL0     H 3135   2.138   8.263   0.829  0.3457  0.1589 -0.3927
   24MOL0     H 3136   2.061   8.496   0.888 -0.7022 -2.2900 -2.0132
   24MOL0     H 3137   2.110   8.476   1.060 -0.1198 -0.3383  1.2847
   24MOL0     H 3138   1.887   8.303   0.938 -0.4801 -1.2258  1.3403
   24MOL0     H 3139   1.865   8.444   1.039 -3.3636 -1.8614 -0.0565
   24MOL0     H 3140   1.991   8.178   1.090 -1.5599 -1.4069 -0.0340
   24MOL0     H 3141   2.022   8.310   1.206  0.1450  0.0043  0.6260
   24MOL0     H 3142   1.787   8.325   1.269 -0.2249  0.2293 -1.8102
   24MOL0     H 3143   1.852   8.167   1.280  1.0769  0.6566  0.9511
   24MOL0     H 3144   1.729   8.105   1.071  1.9581  2.2981 -1.3631
   24MOL0     H 3145   1.664   8.272   1.052  1.8319  2.4933  1.3384
   24MOL0     H 3146   1.586   8.241   1.313 -0.5715  0.7842  0.9429
   24MOL0     H 3147   1.484   8.178   1.189  1.4333  2.0247 -1.2006
   24MOL0     H 3148   1.680   8.024   1.354 -0.9116 -2.1877  1.9877
   24MOL0     H 3149   1.612   7.949   1.204  1.1136 -0.9572  0.6699
   24MOL0     H 3150   2.312   8.351   1.146  0.5937 -1.8998 -2.0194
   24MOL0     H 3151   2.484   8.422   1.302  2.3736  3.8548  1.0521
   24MOL0     H 3152   2.915   8.676   1.298  0.0309  0.3587  2.1527
   24MOL0     H 3153   3.120   8.721   1.409  0.8533 -0.0233 -1.7614
   24MOL0     H 3154   3.267   7.386   2.149  0.4690 -1.4188  2.2231
   24MOL0     H 3155   3.034   7.333   2.160 -0.5402 -1.8088  1.4590
   24MOL0     H 3156   2.577   7.289   2.100 -1.5585  2.1527 -2.0972
   24MOL0     H 3157   2.351   7.246   2.184  2.6545 -3.2737 -1.8228
   24MOL0     H 3158   2.086   7.253   2.432 -1.1208  4.3909  0.9439
   24MOL0     H 3159   2.191   7.174   2.308  0.3768  0.5261 -2.5267
   24MOL0     H 3160   2.091   7.464   2.278  0.7931  1.5424 -2.9269
   24MOL0     H 3161   2.149   7.360   2.146 -0.2495 -1.7316 -0.3526
   24MOL0     H 3162   1.899   7.323   2.325 -0.6382  3.8471 -0.9332
   24MOL0     H 3163   1.946   7.206   2.195 -0.7018  0.2889 -1.7509
   24MOL0     H 3164   1.921   7.367   2.025 -0.5841 -2.5673  0.9044
   24MOL0     H 3165   1.770   7.369   2.107 -0.5914 -1.3229  1.7554
   24MOL0     H 3166   1.884   7.738   2.259 -0.9492  1.3355 -1.4383
   24MOL0     H 3167   2.432   7.466   2.538  0.7455  0.5795 -0.0895
   24MOL0     H 3168   2.664   7.496   2.474  0.3711  0.8157 -0.9598
   25MOL0     O 3169   7.746   0.117  10.891  0.1490  0.3136  0.1571
   25MOL0     C 3170   7.855   0.069  10.851 -0.8848  0.1194 -0.4549
   25MOL0     O 3171   7.901  -0.060  10.854  0.1254  0.4772  0.2461
   25MOL0     C 3172   7.822  -0.164  10.890 -0.0824  0.1665  0.6896
   25MOL0     C 3173   7.683  -0.182  10.865  0.0146 -0.6214  1.1807
   25MOL0     C 3174   7.611  -0.290  10.904 -0.2959 -0.4329 -0.3282
   25MOL0     C 3175   7.672  -0.397  10.967 -0.4915  0.8178  0.7801
   25MOL0     O 3176   7.619  -0.520  11.007  0.5124 -0.9255  0.6003
   25MOL0     C 3177   7.482  -0.541  10.969  0.6124  0.8224  0.1022
   25MOL0     C 3178   7.460  -0.685  11.007  0.5662  0.5766  0.0446
   25MOL0     C 3179   7.314  -0.727  10.982  0.1874  0.8079 -0.1437
   25MOL0     C 3180   7.310  -0.882  10.987 -0.2378  0.5104  0.3614
   25MOL0     C 3181   7.167  -0.941  11.008  0.0338 -0.3079  0.1748
   25MOL0     C 3182   7.073  -0.933  10.879 -1.0990  0.3917  0.5817
   25MOL0     C 3183   6.941  -0.994  10.917 -0.2660  0.0090 -1.2841
   25MOL0     C 3184   6.850  -1.003  10.793  0.3344  0.1847 -0.2479
   25MOL0     N 3185   6.793  -0.877  10.751 -0.4432 -0.4833 -0.8514
   25MOL0     C 3186   6.715  -0.865  10.635  0.7709 -0.9999  0.3707
   25MOL0     C 3187   6.647  -0.746  10.641  0.1744 -0.0236  0.6944
   25MOL0     C 3188   6.554  -0.680  10.546 -0.2627 -0.4508  0.1901
   25MOL0     C 3189   6.425  -0.760  10.536  0.5155 -0.5223  0.3411
   25MOL0     C 3190   6.356  -0.789  10.674  0.0619  0.7461  0.0620
   25MOL0     C 3191   6.323  -0.671  10.755 -0.2399  0.2589 -0.0527
   25MOL0     O 3192   6.241  -0.704  10.872 -0.1178  0.3237 -0.1101
   25MOL0     C 3193   6.109  -0.731  10.849 -0.3418 -0.2777 -0.7277
   25MOL0     C 3194   6.041  -0.845  10.889 -0.6122 -0.1577 -0.2723
   25MOL0     C 3195   5.904  -0.843  10.899  0.3724 -0.6909 -0.7626
   25MOL0     C 3196   5.832  -0.728  10.864  0.9109  0.8683 -0.7319
   25MOL0     C 3197   5.681  -0.719  10.890 -0.9117  0.6376  0.5617
   25MOL0     O 3198   5.621  -0.820  10.967  0.2143 -0.1581  0.3578
   25MOL0     C 3199   5.483  -0.811  10.984  0.3651  0.9938 -0.0877
   25MOL0     C 3200   5.412  -0.702  11.049  0.3644  0.1515  0.2277
   25MOL0     C 3201   5.277  -0.703  11.066  0.3355  0.2103  0.7887
   25MOL0     C 3202   5.202  -0.821  11.034  0.1955  0.1699  0.3257
   25MOL0     O 3203   5.066  -0.833  11.052  0.0337 -0.4268  0.1621
   25MOL0     C 3204   4.996  -0.712  11.066  0.3305 -0.0616 -0.5969
   25MOL0     C 3205   4.849  -0.731  11.027  0.7851 -0.0756 -0.5069
   25MOL0     C 3206   4.762  -0.811  11.121 -0.2248  0.5778  0.4203
   25MOL0     C 3207   4.612  -0.763  11.103 -0.3395  0.0010 -0.4830
   25MOL0     C 3208   4.528  -0.855  11.190  0.1388 -0.0663 -0.0980
   25MOL0     C 3209   4.378  -0.820  11.184 -0.7841  0.4262  0.3041
   25MOL0     C 3210   4.293  -0.920  11.261  0.3112 -0.5940  0.5549
   25MOL0     C 3211   4.304  -0.923  11.415 -0.5389  1.0871  0.7413
   25MOL0    Cl 3212   4.257  -0.768  11.490  0.2568 -0.5985 -0.0257
   25MOL0     C 3213   5.274  -0.938  10.988  0.0645  0.5875  0.5634
   25MOL0     C 3214   5.408  -0.925  10.961  0.2645  0.3608 -0.3914
   25MOL0     O 3215   5.628  -0.623  10.841 -0.1152  0.2992 -0.4101
   25MOL0     C 3216   5.901  -0.626  10.814  0.1014 -0.8519  0.9119
   25MOL0     C 3217   6.038  -0.623  10.808  0.7129 -0.6392 -0.0627
   25MOL0     N 3218   6.699  -0.685  10.758  0.7752 -0.4235  0.2957
   25MOL0     N 3219   6.773  -0.762  10.824 -0.1707  0.3124  0.3974
   25MOL0     C 3220   7.804  -0.377  11.006  0.5942  0.2293  0.9016
   25MOL0     C 3221   7.875  -0.257  10.969  0.5359  0.1220 -0.4210
   25MOL0     C 3222   7.948   0.171  10.795  0.1957 -0.1835  0.1316
   25MOL0     C 3223   8.037   0.132  10.698  0.4445 -0.5826 -0.0038
   25MOL0     C 3224   8.133   0.219  10.652  0.9120 -0.4107 -0.3018
   25MOL0     C 3225   8.153   0.345  10.712  1.3689 -0.3647 -0.1862
   25MOL0     O 3226   8.245   0.430  10.669  0.1511 -0.6040  0.1781
   25MOL0     C 3227   8.200   0.540  10.587  0.7329  0.0391 -0.2383
   25MOL0     C 3228   8.203   0.521  10.439 -0.1703 -0.3392 -0.7545
   25MOL0     C 3229   8.152   0.658  10.363  0.4522 -0.3978  0.3854
   25MOL0     C 3230   8.123   0.626  10.211  0.6100 -0.0969  0.7903
   25MOL0     C 3231   8.235   0.671  10.117 -0.3002  0.5221 -0.0707
   25MOL0     C 3232   8.315   0.738  10.056 -0.2873 -0.7158  0.1833
   25MOL0     C 3233   8.060   0.384  10.804  0.2483  0.0161 -0.0206
   25MOL0     C 3234   7.952   0.305  10.844 -0.0324  0.3414  0.4754
   25MOL0     H 3235   7.629  -0.095  10.829 -1.6385 -2.2750 -0.5444
   25MOL0     H 3236   7.503  -0.288  10.900 -0.5509 -2.7849  2.4685
   25MOL0     H 3237   7.479  -0.538  10.860 -0.2237  0.5456  0.1095
   25MOL0     H 3238   7.408  -0.479  11.020  0.5526  0.0492  0.9833
   25MOL0     H 3239   7.474  -0.696  11.115  3.1343  0.7033 -0.2036
   25MOL0     H 3240   7.527  -0.756  10.957 -1.7051 -0.9033 -1.0676
   25MOL0     H 3241   7.294  -0.695  10.879  0.2831 -1.1138 -0.8046
   25MOL0     H 3242   7.243  -0.677  11.048  0.6115 -0.3103  1.1920
   25MOL0     H 3243   7.358  -0.926  10.898  1.9325  0.3483  1.5334
   25MOL0     H 3244   7.376  -0.907  11.071  0.8808 -1.6521 -1.0600
   25MOL0     H 3245   7.130  -0.896  11.100 -2.4632  2.5839 -1.9967
   25MOL0     H 3246   7.178  -1.049  11.023  0.1340 -0.5901 -1.6815
   25MOL0     H 3247   7.110  -0.993  10.795  1.0642  0.7664  1.2178
   25MOL0     H 3248   7.058  -0.830  10.845 -1.7231 -0.7946 -3.2323
   25MOL0     H 3249   6.956  -1.087  10.972 -1.1441  1.5038  1.6620
   25MOL0     H 3250   6.887  -0.936  10.993  0.8759  0.6092 -0.9088
   25MOL0     H 3251   6.770  -1.073  10.821 -0.0076  0.1092 -1.3718
   25MOL0     H 3252   6.904  -1.047  10.709  1.9488  0.1329  0.7759
   25MOL0     H 3253   6.704  -0.936  10.554 -0.6968 -0.3037 -0.0835
   25MOL0     H 3254   6.602  -0.673  10.448  2.5222 -0.1337  1.4772
   25MOL0     H 3255   6.525  -0.581  10.581  1.1789 -0.5158  1.7086
   25MOL0     H 3256   6.445  -0.857  10.490  0.8805 -1.2786  2.0240
   25MOL0     H 3257   6.362  -0.698  10.472  1.1485  0.7953  0.9604
   25MOL0     H 3258   6.254  -0.827  10.659  0.3585 -0.4969  1.0181
   25MOL0     H 3259   6.412  -0.864  10.730  3.6953  0.8757 -3.0103
   25MOL0     H 3260   6.280  -0.592  10.693  0.4708  0.6955  0.0026
   25MOL0     H 3261   6.415  -0.629  10.797  0.9073  0.2207 -2.3881
   25MOL0     H 3262   6.083  -0.940  10.921 -1.6762 -0.0657  1.5722
   25MOL0     H 3263   5.842  -0.927  10.928  1.7602 -2.5050 -2.7340
   25MOL0     H 3264   5.459  -0.613  11.090 -1.8542  0.9884  1.0879
   25MOL0     H 3265   5.232  -0.616  11.114 -0.1031  1.2341 -1.3584
   25MOL0     H 3266   5.034  -0.638  10.994 -0.6751 -0.0198 -1.1024
   25MOL0     H 3267   5.012  -0.683  11.170 -3.4807  0.5597 -0.0583
   25MOL0     H 3268   4.858  -0.772  10.926 -1.4781 -0.6416 -0.5308
   25MOL0     H 3269   4.801  -0.633  11.016 -0.0289  0.0851  3.2989
   25MOL0     H 3270   4.789  -0.810  11.227  1.6220 -1.9117  0.0514
   25MOL0     H 3271   4.776  -0.912  11.083  1.8241  0.3853  1.5472
   25MOL0     H 3272   4.585  -0.665  11.143 -2.1231 -0.3813 -0.7075
   25MOL0     H 3273   4.585  -0.758  10.997 -1.4189 -0.3544 -0.2328
   25MOL0     H 3274   4.552  -0.846  11.296  0.6336  1.5297 -0.3132
   25MOL0     H 3275   4.540  -0.956  11.151  2.1552  0.0921 -0.0001
   25MOL0     H 3276   4.347  -0.815  11.079 -0.3009  1.3346  0.1845
   25MOL0     H 3277   4.369  -0.719  11.226  3.0245 -0.0257  2.6855
   25MOL0     H 3278   4.188  -0.896  11.246  0.5416 -0.0805 -0.2626
   25MOL0     H 3279   4.311  -1.024  11.231  0.5409 -1.4951  3.4646
   25MOL0     H 3280   4.406  -0.949  11.445 -0.8352 -2.4077 -0.8016
   25MOL0     H 3281   4.241  -1.006  11.448  0.8845 -0.3744 -0.0713
   25MOL0     H 3282   5.216  -1.020  10.947 -1.1949  1.9385 -0.4909
   25MOL0     H 3283   5.454  -1.011  10.912  2.5688  1.6096 -0.5858
   25MOL0     H 3284   5.850  -0.542  10.767  0.0604 -1.9049 -1.0084
   25MOL0     H 3285   6.071  -0.531  10.761 -3.6449  0.7681 -0.7935
   25MOL0     H 3286   7.860  -0.461  11.046  1.6027 -0.4332 -1.6724
   25MOL0     H 3287   7.983  -0.252  10.978  0.3947  0.7211  1.1795
   25MOL0     H 3288   8.034   0.036  10.648  0.4460  0.2462 -1.6462
   25MOL0     H 3289   8.183   0.194  10.559  1.1220  1.1621 -0.6496
   25MOL0     H 3290   8.267   0.621  10.615 -0.4857  1.2827 -0.8055
   25MOL0     H 3291   8.106   0.588  10.617  0.9631  1.6276 -1.8760
   25MOL0     H 3292   8.305   0.504  10.404  0.9488 -0.0204  2.0398
   25MOL0     H 3293   8.136   0.438  10.416 -2.6422  0.8667  1.5276
   25MOL0     H 3294   8.213   0.748  10.361 -0.8288  0.5483 -3.1644
   25MOL0     H 3295   8.053   0.687  10.401 -0.8138 -1.3182 -1.9570
   25MOL0     H 3296   8.104   0.520  10.194  0.9006  0.1025 -1.0728
   25MOL0     H 3297   8.036   0.683  10.176  1.5294  1.8487  1.5133
   25MOL0     H 3298   8.388   0.798  10.005 -1.0269 -0.0779 -0.1687
   25MOL0     H 3299   8.067   0.486  10.839 -0.2327 -0.4763  1.6185
   25MOL0     H 3300   7.896   0.329  10.933 -2.3699 -0.4274 -0.7152
   26MOL0     O 3301   2.195   7.982  10.771 -0.2587  0.8687  0.5039
   26MOL0     C 3302   2.238   8.026  10.878 -0.2024 -0.8183  0.1144
   26MOL0     O 3303   2.162   8.051  10.993  0.8228 -0.6457  0.6684
   26MOL0     C 3304   2.024   8.059  10.962 -0.1511  0.2218 -0.5241
   26MOL0     C 3305   1.975   8.155  10.882  0.2064 -0.6069  0.1118
   26MOL0     C 3306   1.841   8.192  10.883 -0.2353 -0.6280 -0.6175
   26MOL0     C 3307   1.747   8.124  10.962  0.1577 -0.6271 -0.0117
   26MOL0     O 3308   1.620   8.167  10.949 -0.0962  0.2810 -0.0143
   26MOL0     C 3309   1.544   8.148  11.067  0.3180  0.6143 -0.2586
   26MOL0     C 3310   1.452   8.027  11.050 -0.6618 -0.5057 -0.7227
   26MOL0     C 3311   1.333   8.059  10.963 -0.0927 -0.4922 -0.4287
   26MOL0     C 3312   1.266   7.933  10.933 -0.5108 -0.6998  0.2691
   26MOL0     C 3313   1.122   7.953  10.915  0.0466  0.4997  0.6266
   26MOL0     C 3314   1.028   7.833  10.882 -0.2923 -0.7185 -0.3809
   26MOL0     C 3315   0.891   7.865  10.938  0.1580 -0.5255  0.1225
   26MOL0     C 3316   0.809   7.737  10.979  0.3067  0.2033 -0.7662
   26MOL0     N 3317   0.714   7.784  11.080  0.2104  0.2369 -0.1486
   26MOL0     C 3318   0.624   7.885  11.062  0.6195  0.0029  0.1170
   26MOL0     C 3319   0.572   7.902  11.175 -0.1256 -0.0887  0.2036
   26MOL0     C 3320   0.446   7.988  11.204 -0.5472 -1.0405 -0.2142
   26MOL0     C 3321   0.479   8.112  11.291 -0.3274 -0.0876 -0.1208
   26MOL0     C 3322   0.359   8.152  11.381  0.3181  0.7071 -0.1426
   26MOL0     C 3323   0.223   8.176  11.319 -0.7691 -0.2818 -0.3972
   26MOL0     O 3324   0.132   8.190  11.431  0.0897 -0.1832 -0.8878
   26MOL0     C 3325   0.002   8.195  11.400  0.3418 -0.3047 -0.0394
   26MOL0     C 3326  -0.077   8.188  11.512 -0.3311  0.4783 -0.8044
   26MOL0     C 3327  -0.214   8.190  11.507  0.7777 -0.6373 -0.5867
   26MOL0     C 3328  -0.276   8.179  11.382  0.5754 -0.2137  1.2694
   26MOL0     C 3329  -0.428   8.158  11.383 -0.5793 -0.1909  0.2196
   26MOL0     O 3330  -0.491   8.219  11.281 -0.3509  0.0200  0.4425
   26MOL0     C 3331  -0.624   8.230  11.283 -0.6168  0.1190 -0.5857
   26MOL0     C 3332  -0.691   8.312  11.384  1.0117 -0.0385 -0.3273
   26MOL0     C 3333  -0.829   8.320  11.381  0.6279 -0.0433 -1.1525
   26MOL0     C 3334  -0.902   8.263  11.270 -0.0678 -0.6907 -0.5766
   26MOL0     O 3335  -1.043   8.261  11.276  0.3308  0.5936 -0.5095
   26MOL0     C 3336  -1.106   8.373  11.314 -0.9509 -0.5335  0.2695
   26MOL0     C 3337  -1.256   8.354  11.310 -0.1677  0.5200 -0.4554
   26MOL0     C 3338  -1.330   8.488  11.332  0.1292  0.0175 -1.1856
   26MOL0     C 3339  -1.475   8.472  11.386  0.3629  0.7357 -0.4572
   26MOL0     C 3340  -1.559   8.608  11.361 -0.6602 -0.2601 -0.5425
   26MOL0     C 3341  -1.611   8.629  11.220 -0.5835  0.0434  0.9214
   26MOL0     C 3342  -1.616   8.782  11.186  0.0876 -0.4755  0.2294
   26MOL0     C 3343  -1.726   8.820  11.088 -0.2725 -0.2245 -0.2792
   26MOL0    Cl 3344  -1.888   8.772  11.148 -0.0889 -0.0826  0.0420
   26MOL0     C 3345  -0.833   8.203  11.167  0.8558  0.4565  0.5588
   26MOL0     C 3346  -0.691   8.189  11.177  1.1587  0.6238 -0.5695
   26MOL0     O 3347  -0.482   8.098  11.473  0.0761 -0.2413 -0.7897
   26MOL0     C 3348  -0.198   8.184  11.261  0.5850  0.1752 -0.2702
   26MOL0     C 3349  -0.060   8.189  11.274 -0.8773 -0.0291  0.2455
   26MOL0     N 3350   0.647   7.837  11.275 -0.1702  0.3413  0.3483
   26MOL0     N 3351   0.737   7.769  11.213  0.1794 -0.4439  0.7416
   26MOL0     C 3352   1.796   8.017  11.037  0.7133 -0.2928  0.2769
   26MOL0     C 3353   1.935   7.986  11.041  0.6663 -0.5365  0.2009
   26MOL0     C 3354   2.381   8.047  10.872 -0.0652  0.2980  0.6594
   26MOL0     C 3355   2.457   8.042  10.750 -1.0507  0.5976 -0.0323
   26MOL0     C 3356   2.598   8.067  10.770 -0.3524 -0.6035  0.7375
   26MOL0     C 3357   2.660   8.089  10.898  0.2024  0.5902 -0.6812
   26MOL0     O 3358   2.799   8.087  10.922  0.4506  0.6565  0.4998
   26MOL0     C 3359   2.880   8.129  10.818 -0.6718 -0.6884  0.0466
   26MOL0     C 3360   3.025   8.087  10.836  0.5718 -0.7331 -0.0241
   26MOL0     C 3361   3.079   8.097  10.988  0.2684 -0.7722  0.0777
   26MOL0     C 3362   3.228   8.058  11.000 -0.1777 -0.1562  0.1228
   26MOL0     C 3363   3.309   8.137  10.903  1.0021 -0.6980 -0.9308
   26MOL0     C 3364   3.380   8.203  10.838  0.6510 -0.4637  0.6647
   26MOL0     C 3365   2.580   8.097  11.012 -0.3462  1.2606  0.4640
   26MOL0     C 3366   2.445   8.076  10.993  0.1404  0.1607 -0.0551
   26MOL0     H 3367   2.042   8.215  10.821 -1.2572  0.3807 -0.6232
   26MOL0     H 3368   1.816   8.274  10.817  1.9168 -0.2251 -1.0034
   26MOL0     H 3369   1.479   8.233  11.091  0.8607  1.0855 -0.4311
   26MOL0     H 3370   1.602   8.130  11.158 -1.0700 -0.5946  0.4336
   26MOL0     H 3371   1.414   7.994  11.147 -0.7507  1.6892  0.0303
   26MOL0     H 3372   1.506   7.945  11.001 -0.3615 -1.9881  1.9154
   26MOL0     H 3373   1.369   8.105  10.871  0.9330  0.6234  0.5012
   26MOL0     H 3374   1.276   8.143  11.004  2.1873  2.5370 -3.0044
   26MOL0     H 3375   1.310   7.891  10.842  0.0208 -2.5286  1.3022
   26MOL0     H 3376   1.276   7.866  11.020  2.1942  2.9191  3.0715
   26MOL0     H 3377   1.115   8.024  10.832 -0.3828  2.2715  2.1312
   26MOL0     H 3378   1.090   8.005  11.005  0.4025 -1.0041  1.6676
   26MOL0     H 3379   1.075   7.754  10.941  0.6315 -1.3508 -1.8793
   26MOL0     H 3380   1.034   7.805  10.776 -0.1910  0.0157 -0.5722
   26MOL0     H 3381   0.908   7.921  11.031 -2.7101  0.5522  0.0885
   26MOL0     H 3382   0.828   7.928  10.875 -2.1740 -0.5611  2.2570
   26MOL0     H 3383   0.866   7.649  11.011 -4.5768 -2.9896  0.2225
   26MOL0     H 3384   0.742   7.707  10.898 -0.0855  4.9029 -2.5060
   26MOL0     H 3385   0.588   7.933  10.972 -2.1350 -0.1857  1.0335
   26MOL0     H 3386   0.360   7.933  11.244  0.2157 -0.8451  1.8233
   26MOL0     H 3387   0.414   8.025  11.106 -2.5447 -0.6944  0.5431
   26MOL0     H 3388   0.517   8.194  11.229 -0.4838  0.0212 -0.0747
   26MOL0     H 3389   0.551   8.086  11.369 -0.3206  1.1503  0.3105
   26MOL0     H 3390   0.343   8.078  11.459  0.3434 -0.4428 -1.1979
   26MOL0     H 3391   0.385   8.250  11.422  0.0272  0.5425  0.4378
   26MOL0     H 3392   0.199   8.093  11.251 -1.2985  0.1157 -0.7036
   26MOL0     H 3393   0.225   8.263  11.253  1.8848  1.1978  1.4540
   26MOL0     H 3394  -0.028   8.202  11.608 -1.5862 -2.2413  0.3365
   26MOL0     H 3395  -0.268   8.200  11.600  1.8206 -0.3779  0.0146
   26MOL0     H 3396  -0.642   8.357  11.469 -0.3381 -2.1404  1.6728
   26MOL0     H 3397  -0.880   8.365  11.466  3.1987 -1.1601  1.1136
   26MOL0     H 3398  -1.082   8.447  11.237 -2.5631 -1.7324 -1.4712
   26MOL0     H 3399  -1.073   8.420  11.408  1.1480  1.6404 -1.4100
   26MOL0     H 3400  -1.291   8.281  11.384 -1.3099  2.4842  1.0445
   26MOL0     H 3401  -1.287   8.307  11.216 -3.3197  1.3826  0.0289
   26MOL0     H 3402  -1.329   8.534  11.233  5.5605  1.7440 -0.6528
   26MOL0     H 3403  -1.279   8.552  11.405 -0.7716  1.2408 -1.5933
   26MOL0     H 3404  -1.528   8.394  11.331 -1.8715 -0.1254  2.6537
   26MOL0     H 3405  -1.484   8.446  11.492  1.6386 -2.5277 -1.0277
   26MOL0     H 3406  -1.493   8.694  11.378 -0.4982 -0.2663 -1.1032
   26MOL0     H 3407  -1.648   8.605  11.424 -0.1514 -6.1296  0.4704
   26MOL0     H 3408  -1.703   8.574  11.201  0.8639 -1.7928 -1.3372
   26MOL0     H 3409  -1.544   8.585  11.146  0.7034  1.2383  1.3299
   26MOL0     H 3410  -1.638   8.841  11.275  0.0420  2.2658 -1.4871
   26MOL0     H 3411  -1.517   8.808  11.146 -0.8323  0.8999 -1.3001
   26MOL0     H 3412  -1.706   8.787  10.985  1.5890 -0.4620  0.1281
   26MOL0     H 3413  -1.741   8.927  11.068 -0.8318 -0.5225 -1.5830
   26MOL0     H 3414  -0.880   8.147  11.087 -1.5775  0.7998  1.6702
   26MOL0     H 3415  -0.652   8.130  11.094 -1.5098  2.0058 -3.0058
   26MOL0     H 3416  -0.252   8.183  11.167  2.7246  0.8018 -1.5876
   26MOL0     H 3417  -0.001   8.187  11.184 -2.5003 -0.1581 -0.8557
   26MOL0     H 3418   1.724   7.953  11.087 -1.5408  0.4201 -1.8739
   26MOL0     H 3419   1.973   7.916  11.114  0.1629  1.5564  2.6390
   26MOL0     H 3420   2.420   8.016  10.652 -1.3304 -0.1265  0.2632
   26MOL0     H 3421   2.649   8.055  10.675 -0.5173 -1.7546  0.7717
   26MOL0     H 3422   2.870   8.238  10.821 -3.7690 -0.6088 -4.4650
   26MOL0     H 3423   2.844   8.095  10.721 -0.3274  0.0637 -0.3513
   26MOL0     H 3424   3.029   7.983  10.803  0.3882 -0.2962 -1.4699
   26MOL0     H 3425   3.076   8.159  10.771 -0.3271 -0.0390  0.0201
   26MOL0     H 3426   3.023   8.043  11.065 -1.9273  0.7017 -0.3790
   26MOL0     H 3427   3.055   8.198  11.021  0.1427 -1.3173  1.7301
   26MOL0     H 3428   3.256   8.098  11.098 -1.0552 -0.2973  0.4430
   26MOL0     H 3429   3.252   7.951  10.996  0.8893  0.0579  0.5410
   26MOL0     H 3430   3.454   8.245  10.773  2.3637 -1.9562  1.5790
   26MOL0     H 3431   2.626   8.109  11.109 -1.7028  1.8322  1.0632
   26MOL0     H 3432   2.385   8.075  11.083  1.3966 -1.6419  0.8292
   27MOL0     O 3433   2.972   0.720   4.445 -0.1550 -0.2797  0.2868
   27MOL0     C 3434   2.971   0.814   4.364  0.4476  0.0179  0.5898
   27MOL0     O 3435   2.856   0.872   4.320  0.6032 -0.2785  0.4145
   27MOL0     C 3436   2.721   0.848   4.344  1.0303  0.0776  0.8309
   27MOL0     C 3437   2.628   0.955   4.344  0.4306 -0.3590  0.1192
   27MOL0     C 3438   2.494   0.930   4.384  0.6604  0.4804  0.2758
   27MOL0     C 3439   2.452   0.810   4.447 -0.5151  1.0357 -0.1969
   27MOL0     O 3440   2.331   0.787   4.502 -0.6322  0.0015  0.1847
   27MOL0     C 3441   2.249   0.896   4.522  0.6706  0.1729  0.6073
   27MOL0     C 3442   2.137   0.842   4.616  0.4858 -0.3560  0.3259
   27MOL0     C 3443   2.021   0.934   4.636  0.4414  0.6717 -1.0275
   27MOL0     C 3444   1.905   0.857   4.696  0.3906  0.5795  0.1412
   27MOL0     C 3445   1.805   0.944   4.771 -0.5879 -0.4845  0.5915
   27MOL0     C 3446   1.684   0.867   4.820 -0.6429  0.7337  0.2909
   27MOL0     C 3447   1.573   0.962   4.858  0.0541  0.0477  0.5619
   27MOL0     C 3448   1.447   0.899   4.921  0.5578  0.1474  0.2211
   27MOL0     N 3449   1.346   0.847   4.823  0.0240  0.4495  0.2903
   27MOL0     C 3450   1.263   0.938   4.759 -0.8320  0.2578  0.2353
   27MOL0     C 3451   1.168   0.862   4.707  0.0084 -0.3641 -0.0797
   27MOL0     C 3452   1.071   0.942   4.630 -0.1036 -0.0723  0.6705
   27MOL0     C 3453   1.118   1.005   4.493 -0.3671 -0.4532  0.3643
   27MOL0     C 3454   1.122   0.909   4.380  1.0627  0.1855  0.5016
   27MOL0     C 3455   1.210   0.949   4.252  0.8221  0.0024 -0.8184
   27MOL0     O 3456   1.174   0.870   4.140  0.0687  0.0965 -0.1190
   27MOL0     C 3457   1.041   0.884   4.102 -0.3422  0.2180 -0.1571
   27MOL0     C 3458   0.960   0.769   4.103 -0.0582 -0.0739  0.0058
   27MOL0     C 3459   0.835   0.773   4.055  0.0655 -0.6241  0.1172
   27MOL0     C 3460   0.786   0.888   4.007 -0.6132 -0.7559  1.1373
   27MOL0     C 3461   0.656   0.894   3.930 -0.3323  0.9870  0.6577
   27MOL0     O 3462   0.585   0.771   3.913  0.1102  0.5939  0.0683
   27MOL0     C 3463   0.464   0.761   3.851 -0.8720 -1.0336  0.0443
   27MOL0     C 3464   0.362   0.856   3.860 -0.2363  0.5370  0.3974
   27MOL0     C 3465   0.233   0.836   3.804 -0.3985  0.1409 -0.9696
   27MOL0     C 3466   0.208   0.735   3.718 -0.2070  0.3407 -0.1205
   27MOL0     O 3467   0.081   0.726   3.663  0.4415  1.2943  0.3366
   27MOL0     C 3468   0.048   0.607   3.574 -0.0544 -0.9496 -0.1004
   27MOL0     C 3469  -0.101   0.603   3.545 -0.2405 -0.7487  0.2914
   27MOL0     C 3470  -0.186   0.581   3.666  0.2432 -0.4993  0.8825
   27MOL0     C 3471  -0.330   0.543   3.622  0.3344  0.5477 -0.0923
   27MOL0     C 3472  -0.410   0.536   3.744  0.3247 -0.1153 -0.0670
   27MOL0     C 3473  -0.534   0.445   3.748  0.3979  0.2007  0.2670
   27MOL0     C 3474  -0.621   0.458   3.622  0.0870  0.3882 -0.0982
   27MOL0     C 3475  -0.775   0.422   3.640  0.3290 -0.2171 -0.0507
   27MOL0    Cl 3476  -0.797   0.239   3.637  0.5214 -0.0922 -0.1703
   27MOL0     C 3477   0.317   0.648   3.692 -0.4793  0.3146 -1.1859
   27MOL0     C 3478   0.441   0.659   3.758 -0.0434  0.5418  0.1498
   27MOL0     O 3479   0.621   1.001   3.875  0.6104 -0.1927  0.5165
   27MOL0     C 3480   0.859   1.005   4.025 -0.1434  0.2869  0.2236
   27MOL0     C 3481   0.992   1.004   4.072 -0.0415 -0.3577  0.3421
   27MOL0     N 3482   1.198   0.730   4.731 -0.0812  0.3873  0.1944
   27MOL0     N 3483   1.297   0.724   4.811 -0.1643 -0.4117 -0.6934
   27MOL0     C 3484   2.550   0.709   4.442 -0.1166  0.2181  0.3881
   27MOL0     C 3485   2.682   0.726   4.397 -0.0927  0.1268  0.0409
   27MOL0     C 3486   3.094   0.883   4.324 -0.2514 -0.1807 -0.0412
   27MOL0     C 3487   3.216   0.870   4.398  0.2283 -0.8355  0.6236
   27MOL0     C 3488   3.327   0.946   4.362 -0.3354 -0.1404 -0.4335
   27MOL0     C 3489   3.323   1.040   4.261  0.9634 -0.9017 -0.1274
   27MOL0     O 3490   3.430   1.120   4.230  0.1495  0.5608  0.0509
   27MOL0     C 3491   3.565   1.076   4.223 -0.6053 -0.4530  0.0471
   27MOL0     C 3492   3.653   1.177   4.138  0.0767 -0.0650  0.3474
   27MOL0     C 3493   3.799   1.171   4.173 -0.1391  0.0078  0.0334
   27MOL0     C 3494   3.882   1.255   4.084  0.0777  0.0884 -1.0535
   27MOL0     C 3495   4.030   1.237   4.127  1.3159  0.0788  0.2986
   27MOL0     C 3496   4.150   1.216   4.135  0.4523 -0.7274  0.5268
   27MOL0     C 3497   3.204   1.049   4.188 -0.3010 -0.1459 -0.2935
   27MOL0     C 3498   3.094   0.965   4.215  0.4331 -0.3924  0.7390
   27MOL0     H 3499   2.661   1.055   4.318  4.2939 -1.4207  0.2671
   27MOL0     H 3500   2.443   1.026   4.384 -0.7126 -0.2393  0.2364
   27MOL0     H 3501   2.204   0.918   4.424  1.7100 -3.5704 -0.8940
   27MOL0     H 3502   2.291   0.987   4.566  1.4101 -0.0803  0.4447
   27MOL0     H 3503   2.189   0.805   4.704  2.5483 -1.3879 -1.2267
   27MOL0     H 3504   2.076   0.768   4.562 -2.7162  3.0205 -1.1934
   27MOL0     H 3505   1.992   0.983   4.542 -1.2031 -0.7470 -1.2986
   27MOL0     H 3506   2.063   1.002   4.711  2.2688 -1.8744  0.4275
   27MOL0     H 3507   1.849   0.793   4.627 -0.1132 -0.1926  1.2142
   27MOL0     H 3508   1.943   0.782   4.766 -2.2649 -0.7585  0.3046
   27MOL0     H 3509   1.775   1.020   4.699  1.9536  0.7324  0.6887
   27MOL0     H 3510   1.862   0.994   4.850  1.5030 -2.8166  0.6816
   27MOL0     H 3511   1.711   0.820   4.915 -1.4457  0.4287  0.3724
   27MOL0     H 3512   1.652   0.791   4.748 -0.1015 -0.8531  1.6621
   27MOL0     H 3513   1.617   1.033   4.929 -0.1244  2.8264 -1.8859
   27MOL0     H 3514   1.529   1.015   4.773 -0.2956  1.4262  1.5718
   27MOL0     H 3515   1.398   0.977   4.979  2.7224  0.8144  1.2687
   27MOL0     H 3516   1.484   0.817   4.984  2.1907  1.2737  0.7895
   27MOL0     H 3517   1.278   1.045   4.772  1.0087 -0.2022  2.4722
   27MOL0     H 3518   1.029   1.021   4.693 -3.7669 -0.7372 -0.6986
   27MOL0     H 3519   0.989   0.876   4.603 -0.0055 -0.0577  0.3310
   27MOL0     H 3520   1.215   1.055   4.499  0.2654 -1.2651 -2.0962
   27MOL0     H 3521   1.045   1.081   4.464  0.4544  0.6982  1.1949
   27MOL0     H 3522   1.147   0.810   4.419 -2.8273  0.3051  3.9853
   27MOL0     H 3523   1.019   0.893   4.348  1.9842 -2.6098 -1.4460
   27MOL0     H 3524   1.307   0.922   4.294 -0.7241  1.0135  4.0477
   27MOL0     H 3525   1.193   1.052   4.220 -2.5909 -1.2676 -3.8353
   27MOL0     H 3526   0.991   0.675   4.147 -0.0927  0.7746  1.9360
   27MOL0     H 3527   0.780   0.679   4.056  0.3906 -0.8508  2.6822
   27MOL0     H 3528   0.373   0.947   3.918  0.1336  0.0701  1.0802
   27MOL0     H 3529   0.151   0.900   3.837 -1.2883 -1.6101  0.4243
   27MOL0     H 3530   0.070   0.512   3.624 -1.0061 -1.8411 -1.2979
   27MOL0     H 3531   0.116   0.615   3.489  1.8229  0.5894  1.4682
   27MOL0     H 3532  -0.120   0.522   3.474 -3.5608 -0.1498  0.3546
   27MOL0     H 3533  -0.126   0.693   3.489 -0.6944 -0.9112  0.2305
   27MOL0     H 3534  -0.195   0.666   3.734  2.3291 -2.0042  3.2145
   27MOL0     H 3535  -0.140   0.493   3.713  1.1509  0.4370  1.8019
   27MOL0     H 3536  -0.376   0.617   3.555  0.5626 -0.9930 -2.0443
   27MOL0     H 3537  -0.335   0.443   3.578 -2.6925 -0.6532  2.5285
   27MOL0     H 3538  -0.456   0.635   3.750  1.5722  0.5508 -0.9280
   27MOL0     H 3539  -0.339   0.525   3.826 -0.3485  0.1282  0.5555
   27MOL0     H 3540  -0.599   0.480   3.829  0.5664 -1.9532  1.4160
   27MOL0     H 3541  -0.501   0.342   3.764  0.6533  0.2986  0.3793
   27MOL0     H 3542  -0.619   0.566   3.600  0.2075  0.8660  2.0399
   27MOL0     H 3543  -0.587   0.399   3.536 -1.2258  1.1159 -1.1514
   27MOL0     H 3544  -0.829   0.466   3.556  0.2438  3.1627  1.5655
   27MOL0     H 3545  -0.816   0.475   3.727  2.4940  0.7216  0.4820
   27MOL0     H 3546   0.308   0.567   3.619  0.3472  0.7300 -1.7634
   27MOL0     H 3547   0.531   0.610   3.722 -0.3104  1.4901 -1.9830
   27MOL0     H 3548   0.826   1.104   3.994  2.0743  1.2685  0.8131
   27MOL0     H 3549   1.044   1.096   4.092 -3.8778  1.2618  4.6898
   27MOL0     H 3550   2.523   0.614   4.487  1.5702  0.4557  1.9925
   27MOL0     H 3551   2.738   0.632   4.394 -0.9358 -0.4376  1.2022
   27MOL0     H 3552   3.217   0.804   4.485 -1.0918 -1.0273  0.5065
   27MOL0     H 3553   3.410   0.950   4.432 -1.9378  1.5958  1.4826
   27MOL0     H 3554   3.569   0.977   4.177  4.1881 -0.8703  0.8332
   27MOL0     H 3555   3.600   1.060   4.325 -0.2788  2.7828  0.5336
   27MOL0     H 3556   3.642   1.153   4.032 -0.1604 -3.6693  1.0432
   27MOL0     H 3557   3.630   1.282   4.153  2.8616  0.8095 -0.9251
   27MOL0     H 3558   3.835   1.069   4.157  2.7844  0.9099  0.2893
   27MOL0     H 3559   3.818   1.207   4.274  2.2696  0.7888 -0.6298
   27MOL0     H 3560   3.868   1.229   3.979 -0.7815  1.9554 -1.4443
   27MOL0     H 3561   3.847   1.358   4.082 -0.9279 -0.2448 -2.1353
   27MOL0     H 3562   4.253   1.186   4.140  0.4964 -0.3427  2.7369
   27MOL0     H 3563   3.200   1.118   4.105 -1.4744 -1.1205 -1.0937
   27MOL0     H 3564   3.012   0.973   4.144  0.7172 -1.6917  0.2262
   28MOL0     O 3565   7.073   1.784   8.812  0.1513 -0.1880  0.5917
   28MOL0     C 3566   7.105   1.699   8.735 -0.0880  0.5599  0.3817
   28MOL0     O 3567   7.040   1.669   8.621  0.2883 -0.3530 -0.5917
   28MOL0     C 3568   6.923   1.731   8.589  0.3516  0.4607 -1.7852
   28MOL0     C 3569   6.932   1.793   8.470  0.1781 -0.2012  0.6440
   28MOL0     C 3570   6.817   1.857   8.424  0.1027  0.2986  0.6491
   28MOL0     C 3571   6.694   1.842   8.494  0.1818  0.0536  0.0697
   28MOL0     O 3572   6.574   1.892   8.444 -0.8593 -0.1450 -0.2700
   28MOL0     C 3573   6.583   2.008   8.364 -0.1399  0.1217  0.3246
   28MOL0     C 3574   6.439   2.062   8.339  0.6112  0.1660  0.3044
   28MOL0     C 3575   6.351   1.965   8.250 -0.8154 -0.5346  0.3551
   28MOL0     C 3576   6.237   2.025   8.188  0.0769 -0.2587 -0.1295
   28MOL0     C 3577   6.141   1.941   8.111 -0.3614 -0.3969  0.8130
   28MOL0     C 3578   6.050   1.871   8.215 -0.5172  0.3143 -0.0297
   28MOL0     C 3579   5.951   1.773   8.160  0.7112  0.5516 -0.2647
   28MOL0     C 3580   5.824   1.855   8.119 -0.7775 -0.5778  0.6285
   28MOL0     N 3581   5.749   1.764   8.040  0.3963  0.5685  0.7245
   28MOL0     C 3582   5.668   1.663   8.081  0.1611 -0.5526 -0.6918
   28MOL0     C 3583   5.633   1.595   7.967 -0.1811  0.5608 -0.3315
   28MOL0     C 3584   5.532   1.476   7.960 -0.0285  0.4154 -0.0757
   28MOL0     C 3585   5.380   1.524   7.958 -0.6905 -0.9815 -0.1907
   28MOL0     C 3586   5.296   1.429   7.874 -0.8862  0.7737 -0.2265
   28MOL0     C 3587   5.155   1.428   7.904 -0.5501  0.0415 -1.6148
   28MOL0     O 3588   5.096   1.560   7.899 -0.1698  0.0740  0.0951
   28MOL0     C 3589   4.959   1.574   7.921 -0.3971 -0.8864  0.3105
   28MOL0     C 3590   4.899   1.694   7.949  0.3175 -0.3564 -0.5209
   28MOL0     C 3591   4.763   1.710   7.950 -0.4562  0.5171 -0.5224
   28MOL0     C 3592   4.680   1.599   7.968  0.3624 -0.3752  0.0475
   28MOL0     C 3593   4.536   1.611   7.992  0.4533  0.2694 -0.6697
   28MOL0     O 3594   4.462   1.499   7.979 -0.4440  0.3819 -0.2278
   28MOL0     C 3595   4.349   1.488   8.059 -0.8158  0.3619 -0.4743
   28MOL0     C 3596   4.245   1.575   8.071 -0.3366 -1.0261  0.4327
   28MOL0     C 3597   4.138   1.545   8.155  0.2443  0.0461  0.3413
   28MOL0     C 3598   4.144   1.429   8.239  0.4231 -0.7426 -0.1139
   28MOL0     O 3599   4.049   1.396   8.331  0.0636  0.0415  0.0812
   28MOL0     C 3600   4.022   1.496   8.433  0.3056  0.4253  0.4770
   28MOL0     C 3601   3.891   1.562   8.395 -0.3170  0.0289 -0.0994
   28MOL0     C 3602   3.823   1.626   8.517  0.3817  0.3678 -0.3616
   28MOL0     C 3603   3.686   1.689   8.473 -0.0239 -0.4135 -0.1346
   28MOL0     C 3604   3.648   1.784   8.588 -0.0832 -0.0141  0.1184
   28MOL0     C 3605   3.499   1.820   8.595  0.8785 -0.2951 -0.0441
   28MOL0     C 3606   3.485   1.925   8.706 -0.5138  0.1292  0.6756
   28MOL0     C 3607   3.339   1.950   8.730 -0.0991  0.8058  0.3006
   28MOL0    Cl 3608   3.331   2.062   8.860  0.4151  0.0348 -0.0595
   28MOL0     C 3609   4.256   1.344   8.229  0.4573  0.6351  0.0269
   28MOL0     C 3610   4.354   1.377   8.137  0.5882  0.3024  0.4605
   28MOL0     O 3611   4.496   1.715   8.044 -0.0509 -0.5205  0.5520
   28MOL0     C 3612   4.740   1.481   7.936  0.3128  0.3955 -1.0063
   28MOL0     C 3613   4.876   1.462   7.914  0.4015  0.5011 -0.0829
   28MOL0     N 3614   5.692   1.659   7.857  0.4461  0.6615  0.4042
   28MOL0     N 3615   5.765   1.754   7.906  0.1597  0.4779  0.6127
   28MOL0     C 3616   6.690   1.771   8.610 -0.2614  0.3307 -0.6837
   28MOL0     C 3617   6.808   1.715   8.671 -0.2995  1.0825 -0.0824
   28MOL0     C 3618   7.221   1.616   8.767  0.1334  0.6022 -0.2238
   28MOL0     C 3619   7.288   1.627   8.894 -0.6003  0.2611  0.2262
   28MOL0     C 3620   7.416   1.572   8.915 -0.9070 -0.4239  0.3139
   28MOL0     C 3621   7.473   1.505   8.814 -1.1379 -0.2300  0.1598
   28MOL0     O 3622   7.598   1.449   8.814 -0.6569 -0.5177  0.3738
   28MOL0     C 3623   7.705   1.537   8.867  0.6662  0.4408  0.2887
   28MOL0     C 3624   7.844   1.485   8.821  1.3430 -0.0103 -0.6941
   28MOL0     C 3625   7.885   1.476   8.675  0.0344 -0.6617 -0.5133
   28MOL0     C 3626   7.848   1.341   8.609  0.1956  0.2240  0.3016
   28MOL0     C 3627   7.879   1.344   8.462  0.1028 -0.6977  0.5931
   28MOL0     C 3628   7.917   1.363   8.346  0.9493 -0.1339 -1.2418
   28MOL0     C 3629   7.409   1.489   8.687  0.5100  0.0115 -0.0602
   28MOL0     C 3630   7.281   1.540   8.667  1.0844  0.3192  0.0850
   28MOL0     H 3631   7.028   1.792   8.419 -0.9444 -0.4843 -1.5739
   28MOL0     H 3632   6.826   1.918   8.335  1.1864 -1.5764 -0.5702
   28MOL0     H 3633   6.645   2.008   8.273  3.5218  0.9014  2.5966
   28MOL0     H 3634   6.627   2.087   8.425 -1.3281  1.4918 -0.5340
   28MOL0     H 3635   6.448   2.167   8.310  1.8121 -0.0666 -0.2130
   28MOL0     H 3636   6.386   2.067   8.435 -2.7477 -4.3622 -0.9715
   28MOL0     H 3637   6.323   1.877   8.309  1.9042 -2.3526 -0.9148
   28MOL0     H 3638   6.414   1.933   8.167 -1.8413 -1.3956 -0.1253
   28MOL0     H 3639   6.183   2.082   8.264 -0.0938  0.9916 -1.1670
   28MOL0     H 3640   6.287   2.103   8.129  1.9670  0.4479  2.2166
   28MOL0     H 3641   6.198   1.871   8.049 -1.4036  0.0300 -0.6778
   28MOL0     H 3642   6.073   1.997   8.046  0.8858  0.5815  0.3102
   28MOL0     H 3643   6.000   1.943   8.280  1.0680  1.0030  0.4812
   28MOL0     H 3644   6.121   1.816   8.277 -0.6992 -0.0047 -0.1036
   28MOL0     H 3645   5.987   1.710   8.078 -0.3164 -0.2530 -0.1190
   28MOL0     H 3646   5.933   1.702   8.240  0.3617 -0.1297 -0.9372
   28MOL0     H 3647   5.848   1.939   8.053 -0.1310  0.0370  1.6152
   28MOL0     H 3648   5.768   1.890   8.206  1.9702 -0.7991  2.6511
   28MOL0     H 3649   5.625   1.648   8.179 -1.8487  0.1046 -1.4344
   28MOL0     H 3650   5.568   1.415   8.044  3.1555  1.6490 -0.3787
   28MOL0     H 3651   5.542   1.423   7.865 -2.0899 -2.1375  1.0256
   28MOL0     H 3652   5.373   1.627   7.922 -1.7897 -1.1262 -0.4092
   28MOL0     H 3653   5.342   1.507   8.059 -0.3686 -2.7432 -0.3425
   28MOL0     H 3654   5.308   1.457   7.769 -0.2722 -1.5609 -0.8436
   28MOL0     H 3655   5.332   1.326   7.872 -1.8188  0.4378 -1.7942
   28MOL0     H 3656   5.143   1.375   7.999 -0.1166  2.2332 -0.2568
   28MOL0     H 3657   5.110   1.363   7.829 -0.1537 -2.0859 -0.1186
   28MOL0     H 3658   4.953   1.788   7.942 -1.9989  1.2457  1.4592
   28MOL0     H 3659   4.710   1.804   7.948 -0.3371  0.5842 -2.9660
   28MOL0     H 3660   4.229   1.656   8.001  1.7133 -0.7182  0.2732
   28MOL0     H 3661   4.050   1.609   8.153  0.3724  0.2090 -0.4517
   28MOL0     H 3662   4.105   1.567   8.437 -1.6139  2.9250 -1.1546
   28MOL0     H 3663   4.020   1.441   8.527  0.7599  1.1968  0.9550
   28MOL0     H 3664   3.829   1.483   8.351 -0.8514  0.0895  0.5263
   28MOL0     H 3665   3.897   1.638   8.317 -0.3174  1.4823  1.2475
   28MOL0     H 3666   3.882   1.704   8.566  0.8868 -1.7988  2.7421
   28MOL0     H 3667   3.803   1.547   8.590  4.5772  0.2732  0.8958
   28MOL0     H 3668   3.687   1.750   8.383  1.1535  0.5444  0.5107
   28MOL0     H 3669   3.611   1.611   8.454 -1.2901  0.1722  2.0237
   28MOL0     H 3670   3.712   1.872   8.590 -0.8069  0.6913  5.0509
   28MOL0     H 3671   3.669   1.730   8.681 -3.1631 -0.7507  0.4899
   28MOL0     H 3672   3.447   1.726   8.616  0.9509 -0.5488 -0.9762
   28MOL0     H 3673   3.462   1.851   8.497 -1.8665 -0.3154  0.9064
   28MOL0     H 3674   3.533   1.898   8.801  0.5454  1.1483  0.4543
   28MOL0     H 3675   3.537   2.012   8.664  2.3737 -1.4249  0.7335
   28MOL0     H 3676   3.287   1.857   8.755  1.2011 -0.1970 -0.6116
   28MOL0     H 3677   3.289   1.984   8.639 -2.5741 -1.4169  0.7456
   28MOL0     H 3678   4.264   1.256   8.293  2.7143 -0.7589 -1.9893
   28MOL0     H 3679   4.447   1.320   8.134  1.5881  1.9189 -1.6856
   28MOL0     H 3680   4.671   1.398   7.926  0.5560  0.4763 -5.0364
   28MOL0     H 3681   4.907   1.362   7.885 -0.4854 -0.5919  2.5293
   28MOL0     H 3682   6.595   1.753   8.658 -0.2319 -0.3041 -0.8490
   28MOL0     H 3683   6.808   1.664   8.767  0.3345 -1.9478 -1.5944
   28MOL0     H 3684   7.244   1.704   8.957 -4.0039 -0.3909 -1.1288
   28MOL0     H 3685   7.462   1.593   9.011  0.1844 -0.1443 -0.2492
   28MOL0     H 3686   7.705   1.530   8.976 -0.3272 -1.5642  0.1885
   28MOL0     H 3687   7.696   1.645   8.848  3.3516  0.9673  1.5342
   28MOL0     H 3688   7.908   1.565   8.859  0.1690  1.5859 -1.9037
   28MOL0     H 3689   7.860   1.395   8.880 -1.7824  0.2841  0.7975
   28MOL0     H 3690   7.993   1.487   8.664  0.2396 -3.0947 -1.6348
   28MOL0     H 3691   7.838   1.554   8.613 -0.0593 -1.4142 -1.4138
   28MOL0     H 3692   7.898   1.267   8.673  1.0874  1.7904  1.5087
   28MOL0     H 3693   7.741   1.323   8.616  0.6315 -2.3095  1.2687
   28MOL0     H 3694   7.923   1.379   8.240 -0.8671  1.1076 -1.2020
   28MOL0     H 3695   7.450   1.453   8.593 -1.6857 -0.3920 -0.9089
   28MOL0     H 3696   7.254   1.524   8.563  0.9387  1.9498 -0.1553
   29MOL0     O 3697   2.212   5.745   4.530  0.2135  0.7589 -0.5132
   29MOL0     C 3698   2.271   5.846   4.573 -0.9523 -0.3377  0.1011
   29MOL0     O 3699   2.214   5.961   4.623 -0.9030 -0.8796  0.8001
   29MOL0     C 3700   2.072   5.978   4.611  0.1964 -0.8714 -0.5930
   29MOL0     C 3701   2.004   5.995   4.728 -0.1329  0.2348 -0.8506
   29MOL0     C 3702   1.868   6.026   4.728 -0.1732 -0.6652 -0.1233
   29MOL0     C 3703   1.796   6.026   4.612 -0.2625 -0.2862 -0.2164
   29MOL0     O 3704   1.660   6.030   4.608 -0.3325  0.0587 -0.0722
   29MOL0     C 3705   1.589   6.016   4.731  0.8462  0.3367 -0.0442
   29MOL0     C 3706   1.438   6.012   4.690 -0.1134 -0.2842  0.2193
   29MOL0     C 3707   1.406   5.874   4.626 -0.4500  0.0874  0.0503
   29MOL0     C 3708   1.408   5.749   4.713  0.3002  0.1816 -0.2931
   29MOL0     C 3709   1.308   5.641   4.657 -0.0695 -0.3138 -0.1691
   29MOL0     C 3710   1.322   5.493   4.710 -0.6365  0.3124 -0.4852
   29MOL0     C 3711   1.180   5.436   4.745  0.7293  0.1135 -0.1176
   29MOL0     C 3712   1.186   5.296   4.806 -0.2405  0.5025  0.3740
   29MOL0     N 3713   1.058   5.232   4.818  0.3178 -0.2795 -0.2039
   29MOL0     C 3714   1.011   5.132   4.731  0.1595  0.9576 -0.8415
   29MOL0     C 3715   0.878   5.109   4.771  0.4799 -0.8193 -0.1481
   29MOL0     C 3716   0.785   5.012   4.700  0.1024 -0.3179  0.5069
   29MOL0     C 3717   0.635   5.053   4.705  1.0677  0.0212  0.5982
   29MOL0     C 3718   0.549   4.942   4.640  0.3561 -0.0874  0.3726
   29MOL0     C 3719   0.407   4.981   4.678  0.8688  0.8689  0.2920
   29MOL0     O 3720   0.336   4.868   4.639 -0.6142  0.4872 -0.8105
   29MOL0     C 3721   0.198   4.875   4.656 -0.5230  0.9542  0.4742
   29MOL0     C 3722   0.128   4.993   4.646  0.0027  0.6802 -0.2727
   29MOL0     C 3723  -0.015   4.990   4.646 -0.1619 -0.9519  0.1826
   29MOL0     C 3724  -0.090   4.870   4.649 -0.2352 -0.1589 -0.3028
   29MOL0     C 3725  -0.236   4.867   4.636 -0.0009 -0.5537 -0.1633
   29MOL0     O 3726  -0.303   4.982   4.645  0.9602  0.0038 -0.6711
   29MOL0     C 3727  -0.441   4.978   4.619  0.6877 -0.3013 -0.4080
   29MOL0     C 3728  -0.486   5.040   4.507  0.2496  0.9870 -0.1834
   29MOL0     C 3729  -0.619   5.033   4.462 -0.8323  0.9213 -0.9499
   29MOL0     C 3730  -0.720   4.974   4.552  0.4047  0.1072 -0.3825
   29MOL0     O 3731  -0.852   4.971   4.513  0.9788 -0.4421 -0.7382
   29MOL0     C 3732  -0.886   4.950   4.379  0.5788  0.0108  0.6401
   29MOL0     C 3733  -1.030   4.913   4.386  0.2244 -0.5447  1.0578
   29MOL0     C 3734  -1.128   5.013   4.447  0.5845  0.1412  0.1311
   29MOL0     C 3735  -1.265   4.964   4.411  0.5529 -0.0403 -1.3122
   29MOL0     C 3736  -1.372   5.031   4.494 -0.3116 -0.6567 -0.0105
   29MOL0     C 3737  -1.516   4.984   4.459  0.9907  0.1722 -0.3812
   29MOL0     C 3738  -1.630   5.062   4.516 -0.2221  0.4195 -0.3901
   29MOL0     C 3739  -1.769   5.027   4.466 -0.4269 -0.1541  0.2113
   29MOL0    Cl 3740  -1.769   5.075   4.301  0.5666  0.3101 -0.0015
   29MOL0     C 3741  -0.674   4.920   4.677 -0.2672  0.3635 -0.1429
   29MOL0     C 3742  -0.536   4.912   4.702  1.2693 -0.6186  0.3717
   29MOL0     O 3743  -0.285   4.760   4.603  0.2198 -0.0828 -0.0623
   29MOL0     C 3744  -0.014   4.748   4.662 -0.1116 -0.0682 -0.5323
   29MOL0     C 3745   0.125   4.755   4.675 -0.4815 -0.0571 -0.1951
   29MOL0     N 3746   0.858   5.188   4.886  0.2106  0.2194  0.2870
   29MOL0     N 3747   0.960   5.264   4.905  0.6397  0.7933  0.1800
   29MOL0     C 3748   1.864   5.994   4.491  0.0894  0.2496 -0.0501
   29MOL0     C 3749   2.002   5.981   4.488  0.3719 -0.0778  0.0364
   29MOL0     C 3750   2.415   5.841   4.567 -0.2011  0.4543 -0.4202
   29MOL0     C 3751   2.489   5.725   4.520 -0.2681 -0.1617 -0.0924
   29MOL0     C 3752   2.628   5.731   4.511  0.3549  0.9029  0.1631
   29MOL0     C 3753   2.700   5.835   4.561  0.1222 -0.4900 -0.0176
   29MOL0     O 3754   2.839   5.849   4.559  1.0090  0.9873  0.4713
   29MOL0     C 3755   2.925   5.761   4.483  0.5734 -0.3896  0.0613
   29MOL0     C 3756   3.075   5.807   4.465 -0.2402  1.0445 -0.3982
   29MOL0     C 3757   3.137   5.829   4.603  0.6073 -0.3820 -0.4003
   29MOL0     C 3758   3.290   5.825   4.594 -0.5587 -0.1770 -0.8134
   29MOL0     C 3759   3.351   5.917   4.690 -0.7900  0.0920  0.4720
   29MOL0     C 3760   3.393   5.990   4.777  0.1130  0.2264 -0.2821
   29MOL0     C 3761   2.630   5.943   4.621  0.4270 -0.5677  0.0184
   29MOL0     C 3762   2.490   5.942   4.622 -0.1514 -0.1441 -0.9092
   29MOL0     H 3763   2.060   5.994   4.820 -1.5443 -2.6421  0.0864
   29MOL0     H 3764   1.819   6.037   4.824 -1.0771 -1.0447 -0.5300
   29MOL0     H 3765   1.596   6.106   4.792 -2.3095 -0.4228  1.6752
   29MOL0     H 3766   1.611   5.925   4.788 -1.5359 -0.6763 -0.6340
   29MOL0     H 3767   1.420   6.090   4.615 -2.8580 -1.9722 -1.0501
   29MOL0     H 3768   1.376   6.040   4.776 -0.5190  1.9708 -0.7322
   29MOL0     H 3769   1.466   5.868   4.535  1.4398  2.5876  1.0088
   29MOL0     H 3770   1.304   5.886   4.588 -1.0639  0.5519  1.7329
   29MOL0     H 3771   1.510   5.713   4.723 -0.3085 -1.2069  1.3498
   29MOL0     H 3772   1.361   5.779   4.807 -3.7698 -1.9870 -1.3688
   29MOL0     H 3773   1.347   5.627   4.555  1.7358  0.9256  0.3000
   29MOL0     H 3774   1.205   5.678   4.655  0.3142  0.7845 -2.1052
   29MOL0     H 3775   1.387   5.481   4.797  0.1818  0.4546 -1.0534
   29MOL0     H 3776   1.368   5.435   4.629  0.4770  2.3881 -1.4371
   29MOL0     H 3777   1.136   5.505   4.817  2.9237  2.0108 -0.4489
   29MOL0     H 3778   1.114   5.422   4.659  1.4088  1.0300 -0.8141
   29MOL0     H 3779   1.226   5.307   4.907 -1.4923  1.4170  0.7920
   29MOL0     H 3780   1.263   5.239   4.753 -1.6073 -1.6568  0.5743
   29MOL0     H 3781   1.073   5.082   4.657 -0.0691  0.1548 -0.5084
   29MOL0     H 3782   0.797   4.921   4.760 -0.5476 -0.2964  0.6717
   29MOL0     H 3783   0.814   4.994   4.596 -0.9067  3.5682 -0.6240
   29MOL0     H 3784   0.626   5.148   4.651  1.6872  0.0762  0.5852
   29MOL0     H 3785   0.605   5.066   4.809  2.0266 -1.1768  1.0414
   29MOL0     H 3786   0.559   4.939   4.531 -0.1438 -1.9369  0.3429
   29MOL0     H 3787   0.574   4.844   4.680  1.9940  0.7159  1.4426
   29MOL0     H 3788   0.373   5.070   4.625 -0.3754 -1.3518 -2.9512
   29MOL0     H 3789   0.386   4.988   4.785 -4.6503  1.5548 -0.5849
   29MOL0     H 3790   0.177   5.089   4.636  0.3201  0.5329 -0.1159
   29MOL0     H 3791  -0.081   5.076   4.633 -1.6928 -1.9404  1.1287
   29MOL0     H 3792  -0.407   5.100   4.463  2.7220 -2.1281 -0.3515
   29MOL0     H 3793  -0.649   5.074   4.366 -2.0436  0.9637 -0.5638
   29MOL0     H 3794  -0.839   4.877   4.313 -3.8082 -1.0346 -1.7566
   29MOL0     H 3795  -0.893   5.047   4.328 -0.7062 -0.9240 -1.0946
   29MOL0     H 3796  -1.040   4.810   4.420 -3.1644 -0.2793  1.2297
   29MOL0     H 3797  -1.058   4.911   4.280  3.2587 -0.1000  0.1588
   29MOL0     H 3798  -1.122   5.115   4.407 -2.4246  0.5927  0.5900
   29MOL0     H 3799  -1.113   5.018   4.555 -2.4769 -0.0072  0.6434
   29MOL0     H 3800  -1.274   4.976   4.302  2.3662 -1.2529 -1.6429
   29MOL0     H 3801  -1.268   4.861   4.446 -1.1411 -0.0086 -1.2753
   29MOL0     H 3802  -1.359   5.139   4.492  0.9903 -0.7905 -2.4866
   29MOL0     H 3803  -1.352   4.995   4.595  0.9184 -1.4081 -0.4981
   29MOL0     H 3804  -1.529   4.884   4.500 -1.0558 -0.4064 -2.2527
   29MOL0     H 3805  -1.530   4.982   4.350 -1.7534  3.8937 -0.3151
   29MOL0     H 3806  -1.621   5.055   4.624 -2.2426  0.3984 -0.2024
   29MOL0     H 3807  -1.607   5.168   4.497 -2.1302  0.9511  0.0381
   29MOL0     H 3808  -1.837   5.092   4.523  0.6605  3.9705 -2.7022
   29MOL0     H 3809  -1.781   4.919   4.472  2.9013 -0.6527  0.0273
   29MOL0     H 3810  -0.745   4.864   4.736 -1.2726 -0.1066 -1.7506
   29MOL0     H 3811  -0.506   4.858   4.791  2.2691  0.5337  0.7709
   29MOL0     H 3812  -0.064   4.652   4.669  0.5529 -0.5732 -2.1911
   29MOL0     H 3813   0.178   4.665   4.704 -1.1868  0.6600  3.8048
   29MOL0     H 3814   1.800   5.982   4.405  0.9945 -1.3006 -0.5429
   29MOL0     H 3815   2.054   5.978   4.393  1.2331 -0.7803  0.5194
   29MOL0     H 3816   2.445   5.631   4.490  3.0897 -1.2995 -1.9475
   29MOL0     H 3817   2.676   5.652   4.454  1.0628  1.9119 -0.6949
   29MOL0     H 3818   2.883   5.744   4.383  1.2155 -1.4341 -0.0494
   29MOL0     H 3819   2.921   5.663   4.530  0.4364 -0.3323  0.1707
   29MOL0     H 3820   3.134   5.734   4.410 -0.7066  0.6635 -0.4043
   29MOL0     H 3821   3.087   5.896   4.403  0.9760  0.3362 -1.2158
   29MOL0     H 3822   3.108   5.743   4.662 -1.3215 -1.1721 -2.3644
   29MOL0     H 3823   3.092   5.925   4.632  3.8591  1.8985 -2.2404
   29MOL0     H 3824   3.318   5.721   4.614  0.3594  0.4818  1.7385
   29MOL0     H 3825   3.318   5.867   4.498 -0.1575 -0.0930 -0.6611
   29MOL0     H 3826   3.430   6.052   4.856 -1.4319  0.5374  0.2387
   29MOL0     H 3827   2.682   6.033   4.651  0.9517 -0.8978  0.1131
   29MOL0     H 3828   2.440   6.031   4.657  1.1941  0.6629 -0.9808
   30MOL0     O 3829   4.007   1.665   5.301 -0.3134 -0.5353 -0.1259
   30MOL0     C 3830   4.075   1.588   5.239  0.1641  1.0322 -0.5680
   30MOL0     O 3831   4.029   1.464   5.208 -0.1962 -0.6890 -0.8197
   30MOL0     C 3832   3.906   1.424   5.252 -0.3615  0.2416  0.7226
   30MOL0     C 3833   3.791   1.450   5.170 -0.2304 -0.2438  0.1752
   30MOL0     C 3834   3.667   1.400   5.213 -0.3487  0.2580  0.1291
   30MOL0     C 3835   3.655   1.320   5.323 -0.2443 -0.0214 -0.5234
   30MOL0     O 3836   3.546   1.267   5.391  0.9396 -0.1267  0.4424
   30MOL0     C 3837   3.417   1.258   5.318 -0.4426  0.0244 -0.6450
   30MOL0     C 3838   3.306   1.228   5.416 -0.2157 -0.3247  1.1736
   30MOL0     C 3839   3.303   1.094   5.493 -0.1207  0.5981 -0.1119
   30MOL0     C 3840   3.183   1.084   5.589  0.3170 -0.2100 -0.5205
   30MOL0     C 3841   3.192   0.970   5.690 -0.3608  1.0961  0.1623
   30MOL0     C 3842   3.073   0.990   5.779  0.7260  0.5817  0.5552
   30MOL0     C 3843   2.943   0.963   5.705  0.4842 -0.2298 -0.5644
   30MOL0     C 3844   2.825   0.916   5.795 -0.1116  0.2789 -0.3205
   30MOL0     N 3845   2.715   0.872   5.713 -0.4424  0.2736 -0.2309
   30MOL0     C 3846   2.644   0.954   5.629 -0.7233  0.4479 -0.5762
   30MOL0     C 3847   2.553   0.877   5.582 -0.1535 -0.3541 -0.0662
   30MOL0     C 3848   2.436   0.926   5.493  0.3080  0.1354 -0.0503
   30MOL0     C 3849   2.330   1.001   5.578  0.1619 -0.1026  0.8452
   30MOL0     C 3850   2.343   1.155   5.578 -0.3051  0.4229 -0.6976
   30MOL0     C 3851   2.241   1.204   5.671  1.0258  0.3434  0.4314
   30MOL0     O 3852   2.117   1.206   5.609 -0.3980  0.6169 -0.1922
   30MOL0     C 3853   2.016   1.274   5.656  0.4176  0.0659  0.0548
   30MOL0     C 3854   1.909   1.289   5.566 -0.7122  0.5359 -0.1799
   30MOL0     C 3855   1.796   1.368   5.590 -1.0886  0.4180  0.4215
   30MOL0     C 3856   1.783   1.433   5.707 -0.6062 -0.9280 -0.6732
   30MOL0     C 3857   1.666   1.527   5.725  0.3805  1.2035 -0.4320
   30MOL0     O 3858   1.550   1.513   5.644 -0.4761 -1.1368 -0.1792
   30MOL0     C 3859   1.443   1.583   5.697 -0.0599  0.6973 -0.2605
   30MOL0     C 3860   1.420   1.723   5.695 -0.2599  0.7763  0.2074
   30MOL0     C 3861   1.310   1.774   5.760  0.0884 -1.2466 -0.3673
   30MOL0     C 3862   1.213   1.704   5.825  0.6288  0.7674 -0.4539
   30MOL0     O 3863   1.102   1.762   5.878 -0.5686 -0.2762  0.4993
   30MOL0     C 3864   0.985   1.722   5.806  0.4591  0.5807  0.4459
   30MOL0     C 3865   0.881   1.836   5.815  0.9880  0.3749 -0.1079
   30MOL0     C 3866   0.939   1.964   5.759 -0.6660 -0.4674  0.9209
   30MOL0     C 3867   0.893   2.088   5.818  0.3204 -0.3894  0.5639
   30MOL0     C 3868   0.947   2.108   5.959 -0.0827  0.0430 -0.7683
   30MOL0     C 3869   0.935   2.258   5.998 -0.3265 -0.4007 -0.9125
   30MOL0     C 3870   1.006   2.290   6.128  0.3446  0.3637  0.2120
   30MOL0     C 3871   1.161   2.292   6.109 -0.5131 -0.4690  0.0728
   30MOL0    Cl 3872   1.219   2.369   6.249  0.0419 -0.1060  0.3292
   30MOL0     C 3873   1.233   1.562   5.825  0.0922 -0.5435  0.7377
   30MOL0     C 3874   1.343   1.506   5.757 -1.3753 -0.3213 -0.7990
   30MOL0     O 3875   1.676   1.599   5.823 -0.5469  0.2748 -0.2362
   30MOL0     C 3876   1.886   1.415   5.803  0.4034 -0.3899  0.2536
   30MOL0     C 3877   2.002   1.340   5.776 -0.6444 -0.1306 -0.6362
   30MOL0     N 3878   2.558   0.747   5.634 -0.2848 -1.0353 -0.0172
   30MOL0     N 3879   2.669   0.743   5.705  0.1186 -0.6748 -0.2001
   30MOL0     C 3880   3.767   1.284   5.395 -0.3356  0.4247 -0.0107
   30MOL0     C 3881   3.889   1.335   5.362  0.5973  0.4567 -0.1372
   30MOL0     C 3882   4.201   1.631   5.180 -0.6071 -0.3182  1.1690
   30MOL0     C 3883   4.237   1.764   5.157 -1.0535 -0.2030 -0.5505
   30MOL0     C 3884   4.346   1.803   5.079 -0.2998 -0.1968  0.2332
   30MOL0     C 3885   4.432   1.700   5.042  0.1960 -0.0595 -0.1500
   30MOL0     O 3886   4.552   1.750   4.985  0.1777 -0.0280  0.0895
   30MOL0     C 3887   4.665   1.661   4.975 -1.5485 -0.4129  0.1647
   30MOL0     C 3888   4.751   1.701   4.851 -0.4634  0.0631  0.1340
   30MOL0     C 3889   4.664   1.711   4.721 -0.1228  0.1556 -0.7142
   30MOL0     C 3890   4.757   1.768   4.609 -0.1991  0.5427  0.4368
   30MOL0     C 3891   4.856   1.663   4.570  0.1986  0.1101 -0.0136
   30MOL0     C 3892   4.921   1.571   4.525  0.5642 -0.6443  1.0563
   30MOL0     C 3893   4.400   1.565   5.068  0.2594 -0.1714  1.0336
   30MOL0     C 3894   4.296   1.530   5.143  0.0010 -0.1687  0.6632
   30MOL0     H 3895   3.797   1.502   5.075  2.9336  2.2089  1.5253
   30MOL0     H 3896   3.576   1.436   5.165  0.8304  1.7964 -1.0823
   30MOL0     H 3897   3.437   1.174   5.251  1.8011 -0.0535  0.0449
   30MOL0     H 3898   3.397   1.349   5.261  0.0566  2.2016  2.4374
   30MOL0     H 3899   3.211   1.239   5.363  1.5860  1.0635 -2.0602
   30MOL0     H 3900   3.308   1.310   5.489  3.7087  2.3986 -1.5514
   30MOL0     H 3901   3.396   1.089   5.550  0.0771 -0.0822 -0.4952
   30MOL0     H 3902   3.289   1.014   5.421  1.2898 -0.5571  0.8334
   30MOL0     H 3903   3.166   1.176   5.645  2.2031  0.1112 -0.3896
   30MOL0     H 3904   3.096   1.057   5.529 -0.0168 -2.0303  0.6804
   30MOL0     H 3905   3.284   0.974   5.750 -1.3343 -0.2969  1.8595
   30MOL0     H 3906   3.190   0.871   5.644 -1.3665  1.8443 -1.4715
   30MOL0     H 3907   3.067   1.092   5.818 -0.0169  1.1234 -0.9323
   30MOL0     H 3908   3.080   0.913   5.858 -2.1236 -1.1855 -0.7598
   30MOL0     H 3909   2.901   1.053   5.660 -1.9285 -0.3746  1.2145
   30MOL0     H 3910   2.955   0.891   5.623 -1.3701 -0.2760 -0.8485
   30MOL0     H 3911   2.797   1.000   5.859  1.3367  1.5874 -1.3405
   30MOL0     H 3912   2.853   0.832   5.860 -2.3810  0.1665  0.5888
   30MOL0     H 3913   2.666   1.057   5.605 -0.6985 -0.0735 -3.1814
   30MOL0     H 3914   2.391   0.844   5.436  0.3014 -0.9812  1.5168
   30MOL0     H 3915   2.496   0.991   5.429  2.9534 -5.2406 -3.7964
   30MOL0     H 3916   2.324   0.961   5.680 -0.6419  1.4898  1.4701
   30MOL0     H 3917   2.240   0.967   5.527  1.3020  1.0820 -2.2069
   30MOL0     H 3918   2.441   1.189   5.612  0.6852 -1.6743 -1.2514
   30MOL0     H 3919   2.326   1.195   5.477  1.1328  2.4699 -0.1757
   30MOL0     H 3920   2.269   1.309   5.689 -1.1052  0.8618  1.0293
   30MOL0     H 3921   2.249   1.151   5.766  1.4720 -0.6580 -0.1558
   30MOL0     H 3922   1.919   1.235   5.473 -1.1492 -0.2124  0.1928
   30MOL0     H 3923   1.721   1.373   5.512 -1.0760  0.2783  0.3995
   30MOL0     H 3924   1.484   1.800   5.654  1.4549 -1.0087 -0.6605
   30MOL0     H 3925   1.305   1.882   5.773  0.7361 -1.0602 -1.5503
   30MOL0     H 3926   0.941   1.630   5.844 -0.8800  1.5728  1.4132
   30MOL0     H 3927   1.008   1.699   5.702 -3.9368 -0.0396 -0.5788
   30MOL0     H 3928   0.850   1.851   5.919 -1.4470 -1.2191 -0.5124
   30MOL0     H 3929   0.793   1.799   5.761  1.3087 -2.5078  1.1374
   30MOL0     H 3930   0.932   1.958   5.650 -0.3644 -2.0857  0.9584
   30MOL0     H 3931   1.048   1.972   5.772 -0.9140  2.9315  1.9722
   30MOL0     H 3932   0.929   2.175   5.762 -1.0623 -0.7394 -0.9812
   30MOL0     H 3933   0.784   2.098   5.815  0.4337  1.1949 -2.5427
   30MOL0     H 3934   1.051   2.075   5.963 -1.3512 -4.5196  0.6565
   30MOL0     H 3935   0.900   2.044   6.034  0.6141  1.5520  1.0274
   30MOL0     H 3936   0.828   2.277   6.008 -0.0369  0.3420  1.3340
   30MOL0     H 3937   0.979   2.317   5.917  1.6483 -2.9088 -1.8369
   30MOL0     H 3938   0.975   2.386   6.170  3.1462  1.1344  0.7732
   30MOL0     H 3939   0.984   2.217   6.206  1.9829  0.8386  1.1762
   30MOL0     H 3940   1.203   2.354   6.029 -1.8530 -2.5083 -2.3695
   30MOL0     H 3941   1.203   2.194   6.083  0.8124  0.1635 -0.2549
   30MOL0     H 3942   1.176   1.495   5.888  1.9259 -2.5930  0.3298
   30MOL0     H 3943   1.370   1.401   5.765 -1.3538 -0.5448 -3.1641
   30MOL0     H 3944   1.884   1.467   5.899 -2.2532 -0.6067  0.4012
   30MOL0     H 3945   2.087   1.344   5.843  1.6044 -0.9361 -3.2453
   30MOL0     H 3946   3.766   1.222   5.484  1.0006 -1.0657 -0.9846
   30MOL0     H 3947   3.975   1.295   5.415  1.4781  1.5089 -0.7441
   30MOL0     H 3948   4.171   1.838   5.202 -3.0442 -1.3319 -1.4936
   30MOL0     H 3949   4.369   1.909   5.075 -0.8823 -0.0883 -0.9697
   30MOL0     H 3950   4.631   1.557   4.976 -0.6970 -0.7031  1.3580
   30MOL0     H 3951   4.727   1.666   5.066  0.3779 -1.0684 -1.0463
   30MOL0     H 3952   4.789   1.799   4.881  0.3172 -0.9163  2.5380
   30MOL0     H 3953   4.845   1.648   4.839  0.2596  1.6356 -1.9713
   30MOL0     H 3954   4.573   1.771   4.730 -1.3857 -1.6718 -0.9934
   30MOL0     H 3955   4.626   1.615   4.687 -1.1479  0.7414 -1.2621
   30MOL0     H 3956   4.691   1.783   4.524  1.9720 -1.3096 -1.7226
   30MOL0     H 3957   4.808   1.862   4.634  0.6678  0.1513  0.1950
   30MOL0     H 3958   4.980   1.492   4.482  1.0211  1.1210 -1.8399
   30MOL0     H 3959   4.454   1.479   5.031 -2.0178 -0.7585 -1.1629
   30MOL0     H 3960   4.266   1.429   5.167  0.0868  0.1117  2.0058
   31MOL0     O 3961   6.512  10.012   5.760  0.9766  0.0930 -0.0074
   31MOL0     C 3962   6.586   9.955   5.834 -0.0380 -0.0128  0.5499
   31MOL0     O 3963   6.561   9.844   5.895  0.2934  0.1594 -0.0004
   31MOL0     C 3964   6.439   9.783   5.892 -0.5465 -0.2101 -0.4467
   31MOL0     C 3965   6.456   9.644   5.906  0.5733  0.0689  1.5142
   31MOL0     C 3966   6.348   9.555   5.909 -1.1445  0.1943  0.3185
   31MOL0     C 3967   6.220   9.604   5.894  0.0947 -0.4871 -0.1550
   31MOL0     O 3968   6.115   9.511   5.905  0.2520 -0.6158 -0.4053
   31MOL0     C 3969   5.973   9.561   5.900  0.5592  0.1354  0.0908
   31MOL0     C 3970   5.895   9.430   5.934 -0.6088 -0.6414 -0.2763
   31MOL0     C 3971   5.738   9.450   5.923 -0.5694 -0.2470 -0.0658
   31MOL0     C 3972   5.667   9.322   5.962 -0.1734  0.1537 -0.0492
   31MOL0     C 3973   5.514   9.333   5.987  0.1469 -0.0100  0.0313
   31MOL0     C 3974   5.442   9.440   5.903  0.1338  0.9902 -0.5676
   31MOL0     C 3975   5.290   9.422   5.923 -0.2394 -0.5933 -0.1932
   31MOL0     C 3976   5.213   9.516   5.842 -0.2778  0.1150  0.0686
   31MOL0     N 3977   5.075   9.535   5.898  0.4682  0.1205 -0.6595
   31MOL0     C 3978   4.974   9.437   5.894 -1.0619  0.6964 -0.4760
   31MOL0     C 3979   4.864   9.489   5.944 -0.6522 -1.1479  0.2010
   31MOL0     C 3980   4.729   9.445   5.946 -0.0634 -0.0573  0.8668
   31MOL0     C 3981   4.651   9.452   6.074  0.0604  1.2014  0.1347
   31MOL0     C 3982   4.707   9.392   6.204 -0.2217  0.5618 -0.0945
   31MOL0     C 3983   4.698   9.234   6.201  0.0116 -0.7416 -0.3283
   31MOL0     O 3984   4.789   9.175   6.291 -0.0954 -0.1283  0.6455
   31MOL0     C 3985   4.913   9.121   6.250  0.0063 -0.0761 -0.0800
   31MOL0     C 3986   4.957   9.010   6.322  0.2947 -0.3084  0.7696
   31MOL0     C 3987   5.079   8.957   6.292 -0.3964 -0.3912  0.6171
   31MOL0     C 3988   5.166   9.011   6.199  0.1408  0.2426  0.8067
   31MOL0     C 3989   5.301   8.956   6.178  0.1847  0.6741  0.4407
   31MOL0     O 3990   5.386   9.008   6.082 -0.2946  0.7214  0.1718
   31MOL0     C 3991   5.520   8.988   6.094 -0.1034 -0.2987  1.3115
   31MOL0     C 3992   5.589   8.992   6.217 -0.3284  1.0805  0.4928
   31MOL0     C 3993   5.728   8.990   6.221  0.6819  0.1581 -0.6819
   31MOL0     C 3994   5.807   8.972   6.100 -0.1775  0.1774 -0.5788
   31MOL0     O 3995   5.944   8.956   6.119  1.0723  0.4621 -0.0670
   31MOL0     C 3996   6.019   8.996   6.012  0.0294  0.1881  0.3879
   31MOL0     C 3997   6.083   9.123   6.047 -0.8128 -0.3680 -0.0620
   31MOL0     C 3998   6.180   9.179   5.947 -0.6327  0.8376 -0.2346
   31MOL0     C 3999   6.301   9.083   5.927 -0.2624 -0.2289 -0.2128
   31MOL0     C 4000   6.418   9.123   5.840 -0.3175  1.0308  0.9017
   31MOL0     C 4001   6.557   9.066   5.878  0.5470  0.0922  0.6297
   31MOL0     C 4002   6.655   9.098   5.763  0.4742 -0.9993  0.5885
   31MOL0     C 4003   6.717   9.237   5.783  0.7319  0.4473  0.6490
   31MOL0    Cl 4004   6.853   9.262   5.667  0.2364 -0.0712  0.1900
   31MOL0     C 4005   5.741   8.951   5.977 -0.2819 -0.4874  0.9313
   31MOL0     C 4006   5.597   8.978   5.969  0.1137 -0.7226 -0.2228
   31MOL0     O 4007   5.335   8.881   6.261  0.6171  1.0582  0.0076
   31MOL0     C 4008   5.116   9.119   6.126 -0.2865 -0.5438  0.4737
   31MOL0     C 4009   4.994   9.175   6.149 -0.1059 -0.3965  0.0812
   31MOL0     N 4010   4.901   9.620   5.988  0.5955 -0.0813 -0.0090
   31MOL0     N 4011   5.033   9.647   5.969  0.1081  0.4906  0.5599
   31MOL0     C 4012   6.197   9.744   5.889  0.7656  0.9474  0.6436
   31MOL0     C 4013   6.311   9.834   5.886 -0.1413 -0.4882  0.2276
   31MOL0     C 4014   6.710  10.025   5.859  0.6449 -0.8895  0.1063
   31MOL0     C 4015   6.732  10.145   5.794  0.2027  0.2765  1.1171
   31MOL0     C 4016   6.855  10.201   5.809  0.5005 -0.2983 -0.1566
   31MOL0     C 4017   6.952  10.161   5.903 -0.1291 -0.3393 -0.2597
   31MOL0     O 4018   7.080  10.216   5.914 -0.3603  0.8384 -0.2457
   31MOL0     C 4019   7.113  10.333   5.840 -0.2719  0.0517 -0.4913
   31MOL0     C 4020   7.269  10.355   5.839  0.1393 -0.7168 -0.1906
   31MOL0     C 4021   7.336  10.346   5.982  0.5629 -0.6418 -0.0319
   31MOL0     C 4022   7.469  10.420   5.996 -0.0100 -0.4215  0.6700
   31MOL0     C 4023   7.540  10.466   5.881 -0.8147  0.4123  0.1388
   31MOL0     C 4024   7.632  10.484   5.803 -0.4716  0.2938 -0.1045
   31MOL0     C 4025   6.915  10.058   5.991 -0.7752 -0.3054  1.1904
   31MOL0     C 4026   6.795   9.984   5.957 -0.3788 -0.0342  0.1318
   31MOL0     H 4027   6.550   9.597   5.931  1.0627  0.2292  0.0679
   31MOL0     H 4028   6.373   9.451   5.927  1.6712  0.7610  0.1167
   31MOL0     H 4029   5.956   9.586   5.795  3.1445 -0.8743 -0.6396
   31MOL0     H 4030   5.943   9.635   5.975  1.1106 -1.0772  1.5508
   31MOL0     H 4031   5.908   9.407   6.040  0.0409  0.3836 -0.1262
   31MOL0     H 4032   5.927   9.353   5.863  0.6091 -0.6367  0.2532
   31MOL0     H 4033   5.706   9.469   5.820  2.5362  1.3784 -0.8720
   31MOL0     H 4034   5.703   9.533   5.986  0.4547 -0.4554  0.8023
   31MOL0     H 4035   5.673   9.256   5.875  0.0284  2.7033 -2.0912
   31MOL0     H 4036   5.717   9.277   6.048 -1.8189  2.5415  2.3305
   31MOL0     H 4037   5.483   9.349   6.091  1.1082 -1.2749  0.5327
   31MOL0     H 4038   5.463   9.238   5.966 -0.0154  0.2954 -1.0130
   31MOL0     H 4039   5.470   9.439   5.797  2.1220 -1.0548 -0.1003
   31MOL0     H 4040   5.473   9.533   5.950  1.4172  0.1906  0.2335
   31MOL0     H 4041   5.263   9.321   5.890  0.3563 -1.1900  1.0792
   31MOL0     H 4042   5.265   9.420   6.029  1.0940  1.8134  0.2228
   31MOL0     H 4043   5.193   9.474   5.743 -3.7473 -0.3258  0.8484
   31MOL0     H 4044   5.270   9.610   5.835 -0.8553  0.8136  3.4417
   31MOL0     H 4045   4.973   9.341   5.843  0.9392  1.3108 -1.8061
   31MOL0     H 4046   4.746   9.349   5.896 -0.3482  0.5701 -0.4634
   31MOL0     H 4047   4.672   9.503   5.874  1.0182 -0.8959 -0.7172
   31MOL0     H 4048   4.557   9.404   6.047  0.0772  0.8911  0.6121
   31MOL0     H 4049   4.632   9.558   6.096 -2.8568  1.1903 -1.9044
   31MOL0     H 4050   4.814   9.412   6.210 -0.4062  1.5042  0.2045
   31MOL0     H 4051   4.656   9.435   6.291  1.3358 -2.5593  2.5751
   31MOL0     H 4052   4.723   9.204   6.099 -1.0925 -1.8584 -0.2994
   31MOL0     H 4053   4.597   9.200   6.225 -1.5950  2.0467 -2.4744
   31MOL0     H 4054   4.890   8.976   6.400  0.4267  0.3668  1.1772
   31MOL0     H 4055   5.107   8.864   6.340 -5.6909 -2.3970  0.4193
   31MOL0     H 4056   5.535   8.998   6.311 -2.9281  0.5725 -0.8756
   31MOL0     H 4057   5.778   9.001   6.316 -0.6692 -1.3970  0.2631
   31MOL0     H 4058   5.969   9.013   5.917  3.6452  1.6657 -1.4481
   31MOL0     H 4059   6.083   8.910   5.992 -1.7611 -2.3041  4.1481
   31MOL0     H 4060   6.131   9.105   6.143  0.0999  0.6318 -0.3113
   31MOL0     H 4061   6.006   9.199   6.062  0.5200  0.7193  1.5844
   31MOL0     H 4062   6.217   9.274   5.985 -0.3677  0.5208  0.3057
   31MOL0     H 4063   6.121   9.187   5.855 -0.7199 -0.9927 -0.3834
   31MOL0     H 4064   6.340   9.042   6.021 -1.6452  1.4012  1.1661
   31MOL0     H 4065   6.262   8.988   5.891  0.1033 -0.5439  0.2126
   31MOL0     H 4066   6.434   9.231   5.848  2.6925  0.7591 -0.1506
   31MOL0     H 4067   6.396   9.100   5.735  0.1274  0.4392  0.9349
   31MOL0     H 4068   6.552   8.957   5.870  1.2896  0.1769 -1.6737
   31MOL0     H 4069   6.582   9.110   5.975 -1.7121  0.6420  1.0185
   31MOL0     H 4070   6.739   9.030   5.747  3.4731  2.7350 -1.2763
   31MOL0     H 4071   6.601   9.104   5.668 -0.4690 -3.3258  0.9045
   31MOL0     H 4072   6.760   9.246   5.883 -1.0906  5.0412  1.2919
   31MOL0     H 4073   6.640   9.314   5.791 -0.5087 -0.7046  0.2338
   31MOL0     H 4074   5.794   8.931   5.884  0.8884  2.0973  0.9361
   31MOL0     H 4075   5.550   8.988   5.872  1.9277  2.0534 -0.9182
   31MOL0     H 4076   5.175   9.168   6.049 -1.3918  3.6529  2.0267
   31MOL0     H 4077   4.972   9.264   6.092  0.3919 -1.5801 -2.0914
   31MOL0     H 4078   6.092   9.770   5.889 -0.2351 -2.3380 -2.2622
   31MOL0     H 4079   6.301   9.941   5.874  0.8706 -0.4065  0.0651
   31MOL0     H 4080   6.666  10.195   5.724  1.8998  0.6758 -0.2629
   31MOL0     H 4081   6.872  10.286   5.744 -1.1751 -0.0828 -0.3535
   31MOL0     H 4082   7.088  10.433   5.876  6.1490  1.9457  0.0177
   31MOL0     H 4083   7.069  10.322   5.740  3.7577  3.9928 -3.1230
   31MOL0     H 4084   7.311  10.279   5.772 -1.1610  0.7234 -2.7881
   31MOL0     H 4085   7.292  10.450   5.790 -0.7054 -1.7518 -2.7935
   31MOL0     H 4086   7.352  10.246   6.024 -1.1181 -0.4408  1.1956
   31MOL0     H 4087   7.262  10.383   6.054 -0.2223 -0.0166 -1.1085
   31MOL0     H 4088   7.444  10.501   6.065 -4.1924  1.0415 -2.1763
   31MOL0     H 4089   7.536  10.360   6.059  2.2558 -0.8999 -1.9977
   31MOL0     H 4090   7.707  10.494   5.728  0.5126  1.9627  1.0465
   31MOL0     H 4091   6.990  10.020   6.060  0.7420  1.0302  0.3303
   31MOL0     H 4092   6.775   9.892   6.012  2.1543  1.1039  3.3385
   32MOL0     O 4093   2.887   6.764   8.688  0.0327 -0.1592 -0.4179
   32MOL0     C 4094   2.939   6.843   8.759  0.1614  0.0713 -0.1877
   32MOL0     O 4095   2.895   6.898   8.874  0.5649  0.0511 -0.5007
   32MOL0     C 4096   2.766   6.882   8.900  0.8511 -0.3344  0.3648
   32MOL0     C 4097   2.725   6.830   9.025  0.6947  0.0736 -0.2958
   32MOL0     C 4098   2.589   6.833   9.060 -0.0762 -0.0051 -0.0649
   32MOL0     C 4099   2.495   6.875   8.970 -0.1598  0.2119 -0.3104
   32MOL0     O 4100   2.359   6.864   8.996 -0.5398 -0.4994 -0.2467
   32MOL0     C 4101   2.264   6.943   8.922 -0.2965 -0.1304 -0.8953
   32MOL0     C 4102   2.145   6.933   9.006  0.3715 -0.6619 -0.0100
   32MOL0     C 4103   2.026   6.991   8.934 -0.7240 -0.0792 -0.0789
   32MOL0     C 4104   1.904   7.006   9.028  0.3186  0.4164 -0.2194
   32MOL0     C 4105   1.860   6.863   9.064  0.0709  0.3477 -0.3033
   32MOL0     C 4106   1.717   6.867   9.130 -0.2913 -0.0020  0.5918
   32MOL0     C 4107   1.663   6.722   9.151  0.2552  0.2921  0.1532
   32MOL0     C 4108   1.731   6.642   9.255 -0.3589 -0.1539  0.2122
   32MOL0     N 4109   1.756   6.701   9.382  0.3516 -0.5471 -0.4395
   32MOL0     C 4110   1.874   6.752   9.428 -0.6699  0.5072 -0.3442
   32MOL0     C 4111   1.857   6.748   9.563 -0.3800 -0.0085  0.3334
   32MOL0     C 4112   1.944   6.784   9.683 -0.8503  0.0774 -0.1117
   32MOL0     C 4113   1.982   6.930   9.681 -0.9701  0.2642  0.0172
   32MOL0     C 4114   2.101   6.957   9.775 -0.4592 -0.2473 -0.2845
   32MOL0     C 4115   2.133   7.108   9.780 -0.3026  0.4432  0.2274
   32MOL0     O 4116   2.197   7.130   9.909  0.1804 -1.0736 -0.7244
   32MOL0     C 4117   2.329   7.079   9.922  0.5877  1.2191 -0.5220
   32MOL0     C 4118   2.360   7.025  10.048 -0.2441 -0.2801 -0.2335
   32MOL0     C 4119   2.493   6.976  10.086 -0.0164  0.3688 -0.7173
   32MOL0     C 4120   2.591   7.001   9.990  0.0408  0.2785 -0.3452
   32MOL0     C 4121   2.732   6.980  10.030  0.0994  0.0887 -0.5437
   32MOL0     O 4122   2.757   6.965  10.166 -0.5093  0.3057  0.5509
   32MOL0     C 4123   2.890   6.975  10.209  0.1538  0.8596  0.1300
   32MOL0     C 4124   2.984   7.067  10.163  0.3906 -0.9351 -0.4365
   32MOL0     C 4125   3.116   7.071  10.208 -0.5551 -0.4448  0.1720
   32MOL0     C 4126   3.151   6.979  10.307 -0.0557 -1.1030 -0.0001
   32MOL0     O 4127   3.274   6.967  10.358 -1.2960 -0.5662  0.2218
   32MOL0     C 4128   3.347   6.899  10.255 -0.8736  0.1405 -0.0469
   32MOL0     C 4129   3.479   6.844  10.317  0.0296  0.6549 -0.3052
   32MOL0     C 4130   3.457   6.726  10.418 -0.2794  0.4630  0.1359
   32MOL0     C 4131   3.596   6.679  10.465  0.2495  0.4286 -0.9147
   32MOL0     C 4132   3.575   6.589  10.581  0.2651  0.7237 -0.1357
   32MOL0     C 4133   3.705   6.544  10.640 -0.1907  0.5241 -1.3441
   32MOL0     C 4134   3.695   6.467  10.777 -0.2903 -0.1321  0.1255
   32MOL0     C 4135   3.825   6.406  10.815 -0.0096  0.3999 -0.1029
   32MOL0    Cl 4136   3.950   6.532  10.851  0.4260 -0.1611 -0.2224
   32MOL0     C 4137   3.068   6.884  10.355  0.2884 -0.7816 -0.7015
   32MOL0     C 4138   2.930   6.883  10.312  0.3675  0.0354 -0.2480
   32MOL0     O 4139   2.818   6.972   9.941 -0.6412 -0.1111 -0.1915
   32MOL0     C 4140   2.560   7.045   9.868 -0.7961  0.5388  0.2822
   32MOL0     C 4141   2.434   7.085   9.829  0.1886  0.3183 -0.8701
   32MOL0     N 4142   1.736   6.696   9.597 -0.9052  0.5313 -0.6652
   32MOL0     N 4143   1.675   6.665   9.488 -0.2201  0.0003 -0.3915
   32MOL0     C 4144   2.536   6.926   8.851 -0.5530  0.3246  0.1683
   32MOL0     C 4145   2.668   6.937   8.817  0.0620  0.2237  0.4619
   32MOL0     C 4146   3.081   6.882   8.726  0.0172  0.3512 -0.7915
   32MOL0     C 4147   3.134   6.834   8.606 -0.4372  0.3655  0.5534
   32MOL0     C 4148   3.265   6.874   8.560  0.2910  0.1348 -0.5517
   32MOL0     C 4149   3.352   6.949   8.646  0.5616  0.4736  0.4612
   32MOL0     O 4150   3.483   6.986   8.630  0.3680  0.0847 -0.4310
   32MOL0     C 4151   3.533   6.977   8.498 -0.5264  0.0352 -0.1560
   32MOL0     C 4152   3.677   7.024   8.492 -0.0266 -0.0061 -0.2987
   32MOL0     C 4153   3.724   7.020   8.352 -0.2078 -0.4181 -0.8761
   32MOL0     C 4154   3.882   7.003   8.338  0.1515  0.0308  0.3525
   32MOL0     C 4155   3.944   7.115   8.410  0.2041  0.4874 -0.2576
   32MOL0     C 4156   4.011   7.202   8.465 -0.0618  0.4613  0.4462
   32MOL0     C 4157   3.297   6.983   8.770 -1.2301  0.3216  1.1502
   32MOL0     C 4158   3.171   6.955   8.808  0.2639  0.1139  0.0630
   32MOL0     H 4159   2.796   6.783   9.092 -0.5271 -2.1903 -0.5004
   32MOL0     H 4160   2.550   6.797   9.154 -1.8937  1.1397 -0.3338
   32MOL0     H 4161   2.237   6.909   8.822  1.9568 -0.9372 -1.2927
   32MOL0     H 4162   2.297   7.048   8.930 -0.3871 -0.2336  2.9272
   32MOL0     H 4163   2.151   7.001   9.092 -2.4438 -0.9816  0.5239
   32MOL0     H 4164   2.129   6.834   9.050 -2.3906 -1.5687 -2.7385
   32MOL0     H 4165   1.999   6.923   8.853  2.2761  0.7447 -1.9504
   32MOL0     H 4166   2.056   7.087   8.890  0.2023 -0.0976  0.4892
   32MOL0     H 4167   1.947   7.057   9.116 -0.5482 -1.6067  1.4634
   32MOL0     H 4168   1.825   7.072   8.991  1.9783  2.6204 -0.0981
   32MOL0     H 4169   1.930   6.824   9.138  0.2858  1.5747  0.1675
   32MOL0     H 4170   1.859   6.791   8.982  0.7687 -0.9338  0.7816
   32MOL0     H 4171   1.649   6.919   9.063 -0.3784  0.1654  0.8092
   32MOL0     H 4172   1.724   6.930   9.219 -1.0486 -0.0425  0.6810
   32MOL0     H 4173   1.560   6.746   9.179  0.6613  2.8224 -0.2829
   32MOL0     H 4174   1.665   6.659   9.062  3.3024 -0.6906  0.8039
   32MOL0     H 4175   1.823   6.611   9.204 -1.9440 -1.2814 -2.1661
   32MOL0     H 4176   1.668   6.553   9.264  1.4836 -1.4416  1.2454
   32MOL0     H 4177   1.958   6.792   9.371  1.3106  2.4636  3.5457
   32MOL0     H 4178   2.035   6.725   9.670 -0.6389  0.7757 -2.1398
   32MOL0     H 4179   1.899   6.752   9.777 -0.2862 -0.5065 -0.0326
   32MOL0     H 4180   1.902   6.995   9.718 -2.0504  0.9361 -3.1979
   32MOL0     H 4181   2.013   6.953   9.579  1.0268 -0.0562  0.5242
   32MOL0     H 4182   2.064   6.938   9.876  0.2499 -0.5781 -0.0830
   32MOL0     H 4183   2.186   6.890   9.762  0.2230  0.1839  1.6407
   32MOL0     H 4184   2.051   7.177   9.758 -0.7247  0.3815  1.5301
   32MOL0     H 4185   2.202   7.124   9.696  0.4663 -0.7657  0.5984
   32MOL0     H 4186   2.288   7.038  10.128  1.3901 -0.0124  1.2684
   32MOL0     H 4187   2.499   6.943  10.189 -0.9788  1.2685 -0.3587
   32MOL0     H 4188   2.943   7.142  10.095  0.8626  1.0511  1.3848
   32MOL0     H 4189   3.188   7.144  10.172  0.0230 -0.6241  0.9451
   32MOL0     H 4190   3.379   6.969  10.177 -2.4206 -0.0773 -0.9140
   32MOL0     H 4191   3.300   6.810  10.212  2.3497 -0.0186 -3.9167
   32MOL0     H 4192   3.524   6.926  10.373  1.3962  1.0153 -1.8830
   32MOL0     H 4193   3.551   6.812  10.241 -0.6673 -0.1033 -0.6673
   32MOL0     H 4194   3.403   6.647  10.365 -1.5151  2.4853 -1.7810
   32MOL0     H 4195   3.403   6.766  10.504  0.4417 -2.4687  2.1343
   32MOL0     H 4196   3.639   6.620  10.383 -1.5663 -0.3926 -1.3142
   32MOL0     H 4197   3.660   6.760  10.499 -0.8085  0.4910  1.0861
   32MOL0     H 4198   3.520   6.505  10.538  1.3285 -0.9692  1.6391
   32MOL0     H 4199   3.516   6.634  10.662 -1.1354  0.7875 -1.1485
   32MOL0     H 4200   3.783   6.619  10.656  1.9693 -2.3467  4.8754
   32MOL0     H 4201   3.736   6.460  10.578  1.7204 -0.7186  1.1080
   32MOL0     H 4202   3.670   6.553  10.840  0.0445 -1.1664  1.7392
   32MOL0     H 4203   3.619   6.389  10.775  0.2159 -0.6394 -1.7214
   32MOL0     H 4204   3.850   6.332  10.738 -1.7584 -0.7814  0.4055
   32MOL0     H 4205   3.810   6.349  10.907 -2.6922  2.4790  0.8547
   32MOL0     H 4206   3.104   6.803  10.418  0.5107 -1.4629 -1.6606
   32MOL0     H 4207   2.862   6.814  10.361 -0.3061 -0.4013 -1.7588
   32MOL0     H 4208   2.638   7.041   9.792 -1.7751  2.2533 -0.9075
   32MOL0     H 4209   2.420   7.097   9.722  0.8282  0.1677 -0.9708
   32MOL0     H 4210   2.468   6.968   8.778 -0.5032  1.1006  0.5617
   32MOL0     H 4211   2.700   6.984   8.725 -0.7783  0.1041  0.0964
   32MOL0     H 4212   3.081   6.771   8.535 -1.1840 -0.2713  1.6469
   32MOL0     H 4213   3.298   6.862   8.457  0.4146  0.3257 -0.5347
   32MOL0     H 4214   3.471   7.042   8.436  1.5920  1.2376 -1.1263
   32MOL0     H 4215   3.534   6.873   8.462  2.6151  0.2715 -1.0543
   32MOL0     H 4216   3.689   7.126   8.531 -1.4239 -0.4173  1.3654
   32MOL0     H 4217   3.733   6.964   8.565  0.6687  2.4009  1.2726
   32MOL0     H 4218   3.701   7.117   8.307  1.3533  1.5255  2.2043
   32MOL0     H 4219   3.671   6.945   8.292  0.5095  1.5103 -4.1847
   32MOL0     H 4220   3.910   6.908   8.384  0.9260  0.4569  0.7718
   32MOL0     H 4221   3.910   6.993   8.232 -1.8515 -1.8011 -0.0895
   32MOL0     H 4222   4.069   7.279   8.513 -0.2600  1.9793 -1.6130
   32MOL0     H 4223   3.370   7.027   8.836  2.7786 -2.3223 -1.1105
   32MOL0     H 4224   3.144   7.004   8.900 -0.2135 -0.1102  0.0465
   33MOL0     O 4225  10.500   2.228   3.567  0.0111 -0.2355 -0.6953
   33MOL0     C 4226  10.500   2.205   3.692 -0.1934 -0.0148  0.2237
   33MOL0     O 4227  10.392   2.218   3.771 -0.4604 -0.9853  0.2128
   33MOL0     C 4228  10.274   2.272   3.727 -0.2612 -0.4719  0.7939
   33MOL0     C 4229  10.152   2.221   3.769 -0.5020 -0.2434 -0.2790
   33MOL0     C 4230  10.037   2.298   3.754  0.3090  0.7212 -0.1439
   33MOL0     C 4231  10.048   2.421   3.680  0.2425  0.1945 -0.2690
   33MOL0     O 4232   9.924   2.484   3.663  0.7918 -0.5214  0.0723
   33MOL0     C 4233   9.923   2.622   3.681 -0.2577  0.5763  0.3003
   33MOL0     C 4234   9.775   2.665   3.688 -0.4839 -0.0121 -0.2831
   33MOL0     C 4235   9.763   2.819   3.710 -0.1277  0.3977 -0.1970
   33MOL0     C 4236   9.616   2.875   3.708  0.3709  0.0289  0.7744
   33MOL0     C 4237   9.606   2.994   3.794 -0.4143  0.8138 -0.1328
   33MOL0     C 4238   9.472   3.065   3.803  0.2926  0.4744  0.7242
   33MOL0     C 4239   9.463   3.164   3.916  0.4396 -0.4515 -0.4020
   33MOL0     C 4240   9.327   3.194   3.972 -0.1904 -0.1409 -0.3504
   33MOL0     N 4241   9.240   3.087   4.012 -0.1354 -0.1772 -0.5480
   33MOL0     C 4242   9.233   3.039   4.138 -0.4107 -0.0869 -0.5989
   33MOL0     C 4243   9.116   2.972   4.135  0.0874  0.3458 -0.8195
   33MOL0     C 4244   9.059   2.915   4.267  0.2289 -0.4903  0.9900
   33MOL0     C 4245   8.941   2.822   4.241  0.3521  0.2714  0.1261
   33MOL0     C 4246   8.881   2.800   4.381 -0.0295  0.5114 -0.1876
   33MOL0     C 4247   8.783   2.682   4.394  0.4642  0.0634 -0.6562
   33MOL0     O 4248   8.707   2.700   4.521  0.4496  0.2387  0.3373
   33MOL0     C 4249   8.593   2.623   4.533 -0.3857 -0.0723  0.1880
   33MOL0     C 4250   8.572   2.493   4.474 -0.2199 -0.1731 -0.0490
   33MOL0     C 4251   8.456   2.419   4.508 -0.2646 -0.4101  0.2597
   33MOL0     C 4252   8.362   2.466   4.607 -0.1050 -0.1508  0.0481
   33MOL0     C 4253   8.245   2.385   4.641  1.3672  0.1359  0.6024
   33MOL0     O 4254   8.170   2.414   4.759 -0.9125 -0.4513  0.5630
   33MOL0     C 4255   8.058   2.345   4.776  0.2207  0.2042  0.2679
   33MOL0     C 4256   8.063   2.204   4.803  0.3993 -0.2831 -0.6583
   33MOL0     C 4257   7.939   2.130   4.802 -0.3447 -0.9051  0.7961
   33MOL0     C 4258   7.825   2.200   4.794 -0.8033  0.1864 -0.2665
   33MOL0     O 4259   7.705   2.119   4.804  0.1559 -0.5448 -0.1984
   33MOL0     C 4260   7.579   2.179   4.784 -0.3466 -0.5397  0.2660
   33MOL0     C 4261   7.477   2.069   4.776  0.9129  0.2094  0.3346
   33MOL0     C 4262   7.459   2.008   4.909  0.0359 -0.0452 -0.8605
   33MOL0     C 4263   7.389   2.115   5.000  0.0613 -0.5731  0.2080
   33MOL0     C 4264   7.329   2.045   5.119 -0.2766 -0.5615 -1.2070
   33MOL0     C 4265   7.262   2.162   5.214  0.4303  1.1017 -0.7118
   33MOL0     C 4266   7.213   2.089   5.343  0.8526  0.3850  0.6549
   33MOL0     C 4267   7.201   2.184   5.458  0.2912  0.6844 -0.6960
   33MOL0    Cl 4268   7.200   2.088   5.606 -0.2026  0.0292 -0.4024
   33MOL0     C 4269   7.827   2.340   4.768 -0.1988  0.1413  0.1520
   33MOL0     C 4270   7.942   2.410   4.755 -0.1805  0.2851 -0.4969
   33MOL0     O 4271   8.208   2.314   4.548  0.0156  0.4778  0.2767
   33MOL0     C 4272   8.384   2.592   4.666  0.1208  0.6968  0.2108
   33MOL0     C 4273   8.495   2.660   4.629  0.2467 -0.0622 -0.3010
   33MOL0     N 4274   9.053   2.990   4.019  0.4039  0.7410 -0.4819
   33MOL0     N 4275   9.129   3.061   3.946  0.1267  0.8938 -0.0848
   33MOL0     C 4276  10.167   2.467   3.631  0.1957  1.1834 -0.1719
   33MOL0     C 4277  10.276   2.394   3.653  0.8972  0.2084 -0.2496
   33MOL0     C 4278  10.615   2.131   3.752 -0.4255 -0.4591 -0.1763
   33MOL0     C 4279  10.723   2.092   3.673 -0.0790  0.2599 -0.4138
   33MOL0     C 4280  10.833   2.009   3.717  0.0863 -0.1477  0.3224
   33MOL0     C 4281  10.827   1.971   3.849  0.7337 -0.3333  0.4332
   33MOL0     O 4282  10.912   1.883   3.913  0.8817 -0.2335  0.1770
   33MOL0     C 4283  11.004   1.813   3.833  0.4481 -0.9146 -0.0892
   33MOL0     C 4284  11.090   1.744   3.932  0.5196 -0.2129 -0.0183
   33MOL0     C 4285  11.019   1.627   4.013 -0.5492 -0.4351 -0.1168
   33MOL0     C 4286  10.938   1.531   3.931 -0.5000  0.0786  0.4011
   33MOL0     C 4287  10.893   1.409   4.000 -0.8080  0.9881  0.2116
   33MOL0     C 4288  10.862   1.311   4.058  0.3397  0.2019 -0.5638
   33MOL0     C 4289  10.714   2.010   3.932  0.0000  0.0426  1.4750
   33MOL0     C 4290  10.611   2.089   3.887 -0.3859 -0.6141  0.0655
   33MOL0     H 4291  10.167   2.131   3.828  1.1510 -0.6360 -1.2275
   33MOL0     H 4292   9.947   2.267   3.807  0.6606  0.1268  0.1166
   33MOL0     H 4293   9.982   2.671   3.603 -0.5524  1.9107  0.8871
   33MOL0     H 4294   9.972   2.642   3.776 -1.2117 -0.7868  1.1168
   33MOL0     H 4295   9.720   2.603   3.759  0.9398  0.4390  1.3004
   33MOL0     H 4296   9.741   2.657   3.584  4.1951  0.9075 -2.1564
   33MOL0     H 4297   9.815   2.871   3.628 -1.2519 -1.3188 -2.0801
   33MOL0     H 4298   9.816   2.852   3.801 -0.7117  1.1332 -0.1165
   33MOL0     H 4299   9.581   2.883   3.605 -0.6230  0.9510  1.1604
   33MOL0     H 4300   9.548   2.802   3.752  0.6887 -1.7811 -1.5729
   33MOL0     H 4301   9.686   3.063   3.767  0.4318  0.0453  0.3981
   33MOL0     H 4302   9.635   2.967   3.896 -3.7172 -0.8132  0.5277
   33MOL0     H 4303   9.407   2.981   3.825  3.3477 -1.9522  1.2028
   33MOL0     H 4304   9.448   3.108   3.705  2.9141 -1.3593 -0.8635
   33MOL0     H 4305   9.517   3.140   4.008 -0.1897  1.4339  0.4864
   33MOL0     H 4306   9.516   3.256   3.892  0.5818 -0.9246 -2.0878
   33MOL0     H 4307   9.259   3.250   3.906 -2.4181 -1.6659  0.5057
   33MOL0     H 4308   9.348   3.252   4.062 -0.7697 -1.3365  0.5782
   33MOL0     H 4309   9.314   3.060   4.207 -1.5679  0.3720  0.6814
   33MOL0     H 4310   9.027   3.004   4.323  0.6121  0.4316 -0.2214
   33MOL0     H 4311   9.145   2.872   4.320  0.9465 -0.0405  0.2217
   33MOL0     H 4312   8.980   2.734   4.190  0.1617  0.2432  0.0301
   33MOL0     H 4313   8.880   2.881   4.172  4.8333  3.1983 -1.8394
   33MOL0     H 4314   8.955   2.791   4.461 -0.5689 -0.7071  0.2007
   33MOL0     H 4315   8.820   2.886   4.409 -3.2605 -1.3017 -1.1118
   33MOL0     H 4316   8.828   2.582   4.391 -0.7953 -0.4746 -2.4485
   33MOL0     H 4317   8.714   2.691   4.311  0.5744 -1.3687 -0.9267
   33MOL0     H 4318   8.649   2.446   4.414 -0.9999  0.7218 -1.8230
   33MOL0     H 4319   8.442   2.322   4.462 -1.7954 -0.0565 -0.0994
   33MOL0     H 4320   8.161   2.171   4.836 -0.1356 -0.9181  0.3457
   33MOL0     H 4321   7.941   2.024   4.829  0.9836 -0.5584  2.2091
   33MOL0     H 4322   7.574   2.235   4.691  2.2257  0.6562  0.7501
   33MOL0     H 4323   7.561   2.248   4.867  0.6813 -1.3082  1.1618
   33MOL0     H 4324   7.499   1.986   4.708 -3.4043 -1.3619  0.5646
   33MOL0     H 4325   7.385   2.118   4.743  1.2009  0.6234  0.1405
   33MOL0     H 4326   7.550   1.982   4.964  0.2095  1.4436 -0.4152
   33MOL0     H 4327   7.390   1.925   4.889 -3.3350  1.8141  2.0685
   33MOL0     H 4328   7.459   2.191   5.036 -1.3811  1.5580 -1.2558
   33MOL0     H 4329   7.310   2.153   4.935  1.0040 -1.2374 -1.3868
   33MOL0     H 4330   7.406   1.985   5.168 -1.2353 -1.6042 -0.9306
   33MOL0     H 4331   7.245   1.980   5.095 -0.8243 -2.1697  3.8198
   33MOL0     H 4332   7.176   2.204   5.162  1.0719  0.8664 -1.9955
   33MOL0     H 4333   7.327   2.243   5.248 -3.1937  2.5947  3.7427
   33MOL0     H 4334   7.115   2.041   5.331  0.8083  0.4128  0.8933
   33MOL0     H 4335   7.291   2.015   5.365  0.3578 -0.1195  0.7532
   33MOL0     H 4336   7.110   2.245   5.453  1.2108  2.1723 -0.1778
   33MOL0     H 4337   7.287   2.249   5.476 -0.7276  2.1129 -0.7881
   33MOL0     H 4338   7.731   2.388   4.754 -0.8400 -0.7543  1.2702
   33MOL0     H 4339   7.947   2.517   4.735  0.7069  0.7360  1.8042
   33MOL0     H 4340   8.309   2.638   4.730  0.2391  0.2653  0.6605
   33MOL0     H 4341   8.512   2.758   4.671  1.5568  0.5251 -2.0998
   33MOL0     H 4342  10.181   2.562   3.581 -5.4446  2.5070  0.1516
   33MOL0     H 4343  10.366   2.449   3.626  0.8451  0.1727 -0.4963
   33MOL0     H 4344  10.738   2.134   3.573 -1.9017  1.7198 -0.1337
   33MOL0     H 4345  10.913   1.992   3.646 -1.5233 -1.5981 -1.2540
   33MOL0     H 4346  11.060   1.871   3.760  1.2449  0.8505  1.8388
   33MOL0     H 4347  10.957   1.739   3.768  1.0642 -2.3564  1.0439
   33MOL0     H 4348  11.162   1.686   3.874 -0.0854  0.8745 -1.9501
   33MOL0     H 4349  11.144   1.814   3.996  0.7647  0.9739 -1.4701
   33MOL0     H 4350  10.948   1.672   4.083  0.3607  0.1792  0.4354
   33MOL0     H 4351  11.084   1.565   4.076  0.3822  2.5259  2.0804
   33MOL0     H 4352  10.851   1.577   3.882 -0.8187 -1.1906 -0.2778
   33MOL0     H 4353  10.999   1.493   3.848  1.0634 -0.4465  1.7443
   33MOL0     H 4354  10.828   1.236   4.126 -0.9265  3.2303  2.3603
   33MOL0     H 4355  10.707   1.983   4.037 -0.5734  2.3442  2.0793
   33MOL0     H 4356  10.527   2.111   3.952  0.9710 -1.4714  2.2381
   34MOL0     O 4357  11.153   2.290  10.214 -0.3413  0.2311  0.2784
   34MOL0     C 4358  11.233   2.193  10.219 -0.0208 -0.1762 -0.7967
   34MOL0     O 4359  11.203   2.064  10.233 -0.0783  0.3756 -0.7043
   34MOL0     C 4360  11.075   2.029  10.255  0.2957 -0.7809  0.1497
   34MOL0     C 4361  10.965   2.060  10.165  0.0850  0.8461 -0.4083
   34MOL0     C 4362  10.830   2.033  10.204 -0.6066 -0.1728  0.1654
   34MOL0     C 4363  10.809   1.981  10.333  0.5110 -0.2098 -0.0804
   34MOL0     O 4364  10.681   1.968  10.392 -0.4000 -0.2532  0.1496
   34MOL0     C 4365  10.588   2.078  10.356  0.8945  0.0683 -0.9009
   34MOL0     C 4366  10.474   2.073  10.453 -0.0427  0.0420  0.2229
   34MOL0     C 4367  10.400   1.941  10.431  0.0139  0.2817  0.1097
   34MOL0     C 4368  10.296   1.927  10.541 -0.0631  0.4818  0.3322
   34MOL0     C 4369  10.357   1.885  10.669 -1.1391  0.6339  1.0932
   34MOL0     C 4370  10.256   1.836  10.766  1.1598 -0.7139  0.4351
   34MOL0     C 4371  10.331   1.792  10.893 -0.0488 -0.2996 -0.1329
   34MOL0     C 4372  10.378   1.645  10.875 -0.0015 -0.5651  0.2286
   34MOL0     N 4373  10.448   1.614  11.003  0.2065  0.5417  0.8139
   34MOL0     C 4374  10.387   1.596  11.127 -0.9715  0.7822 -0.3648
   34MOL0     C 4375  10.490   1.541  11.200  0.5488  0.1231  0.3381
   34MOL0     C 4376  10.489   1.476  11.327  0.1974 -0.4069 -0.5142
   34MOL0     C 4377  10.356   1.513  11.401 -0.5345  0.2374 -0.8564
   34MOL0     C 4378  10.349   1.447  11.532 -0.0557  1.0295 -0.2373
   34MOL0     C 4379  10.312   1.294  11.530  0.9660 -0.8392  0.0031
   34MOL0     O 4380  10.186   1.274  11.469  0.5984  0.2579  0.3167
   34MOL0     C 4381  10.077   1.328  11.531 -0.3466 -0.5719  0.6949
   34MOL0     C 4382   9.985   1.393  11.446  0.0648  0.4509 -0.0383
   34MOL0     C 4383   9.863   1.427  11.507  0.6403 -0.0599 -0.4968
   34MOL0     C 4384   9.830   1.416  11.644  0.0419 -0.3321 -0.4619
   34MOL0     C 4385   9.697   1.462  11.709 -0.0913  0.2963  0.2249
   34MOL0     O 4386   9.576   1.434  11.647  0.1170  0.5185  0.0893
   34MOL0     C 4387   9.466   1.508  11.698 -0.1973  0.1032 -0.2309
   34MOL0     C 4388   9.389   1.450  11.803 -0.7255  0.7252 -0.7459
   34MOL0     C 4389   9.294   1.520  11.870  0.2645 -0.2834  0.6623
   34MOL0     C 4390   9.262   1.647  11.832  0.1842 -0.3950 -0.6513
   34MOL0     O 4391   9.181   1.731  11.908 -0.5026  0.4839  0.5127
   34MOL0     C 4392   9.160   1.691  12.043 -0.1212  0.1600 -0.2248
   34MOL0     C 4393   9.066   1.797  12.109  0.3229  0.1144  0.5173
   34MOL0     C 4394   8.933   1.798  12.044  0.9072  0.1445 -0.4974
   34MOL0     C 4395   8.849   1.905  12.122  0.3310 -0.4261  0.1717
   34MOL0     C 4396   8.719   1.927  12.057  0.2979 -0.2046  0.6855
   34MOL0     C 4397   8.632   2.009  12.147  0.2635  0.6200  0.0216
   34MOL0     C 4398   8.484   2.026  12.095  0.3547 -0.4810 -0.7258
   34MOL0     C 4399   8.406   2.124  12.192  0.4220 -0.5642 -0.1326
   34MOL0    Cl 4400   8.225   2.112  12.178 -0.0032 -0.0020  0.4051
   34MOL0     C 4401   9.333   1.707  11.722  0.0224 -0.1821 -0.3468
   34MOL0     C 4402   9.428   1.630  11.649 -0.3404 -0.6116  0.0366
   34MOL0     O 4403   9.713   1.524  11.815  0.0021 -0.0697  0.9553
   34MOL0     C 4404   9.930   1.369  11.729 -0.6765 -0.2716  1.3019
   34MOL0     C 4405  10.053   1.318  11.670 -0.2047 -0.3255  0.5399
   34MOL0     N 4406  10.604   1.543  11.130 -0.5060  0.1241  0.2290
   34MOL0     N 4407  10.578   1.583  11.006 -0.6446  0.8713 -0.1421
   34MOL0     C 4408  10.920   1.946  10.420 -0.4227 -0.1960  0.9105
   34MOL0     C 4409  11.048   1.965  10.375 -0.2368  0.4061  0.1453
   34MOL0     C 4410  11.378   2.241  10.233 -0.1990  0.2424 -0.7625
   34MOL0     C 4411  11.481   2.145  10.217  0.0023  0.3608  0.0015
   34MOL0     C 4412  11.615   2.185  10.219 -0.3353  0.3190 -0.6971
   34MOL0     C 4413  11.652   2.318  10.231  0.4922  0.0477 -0.6616
   34MOL0     O 4414  11.788   2.341  10.216  0.0612 -0.0712  0.2574
   34MOL0     C 4415  11.835   2.480  10.216 -0.4584 -0.3289 -0.0603
   34MOL0     C 4416  11.980   2.466  10.192 -0.2521 -0.6846 -0.9309
   34MOL0     C 4417  12.064   2.423  10.317  0.0966 -0.1439 -0.7556
   34MOL0     C 4418  12.207   2.381  10.268 -0.7745 -1.3753  0.3795
   34MOL0     C 4419  12.268   2.337  10.392  0.6145 -0.1436  1.2135
   34MOL0     C 4420  12.330   2.306  10.489 -1.0052 -0.3289  0.8384
   34MOL0     C 4421  11.554   2.411  10.252  0.8292  0.3924  0.7710
   34MOL0     C 4422  11.419   2.375  10.254  0.2832  0.0852 -0.3868
   34MOL0     H 4423  10.992   2.090  10.065  1.7054 -0.6778 -0.4747
   34MOL0     H 4424  10.745   2.057  10.141 -0.4948 -0.2307 -0.0086
   34MOL0     H 4425  10.550   2.067  10.254  1.7292 -0.6333 -1.1406
   34MOL0     H 4426  10.646   2.170  10.367  2.9077 -1.2594  0.2273
   34MOL0     H 4427  10.398   2.149  10.435  0.3047  0.0358 -1.3846
   34MOL0     H 4428  10.514   2.082  10.554  0.4902 -3.0114  0.3978
   34MOL0     H 4429  10.469   1.857  10.419  0.2927  0.5547 -0.2243
   34MOL0     H 4430  10.345   1.947  10.336 -1.1203 -2.0526  0.5411
   34MOL0     H 4431  10.243   2.018  10.570 -1.3652  0.9116 -3.0233
   34MOL0     H 4432  10.230   1.845  10.513 -0.6531  0.5018  1.6020
   34MOL0     H 4433  10.414   1.971  10.704 -2.0484  2.6960 -2.0211
   34MOL0     H 4434  10.424   1.800  10.646  0.2594  1.6386  1.3097
   34MOL0     H 4435  10.208   1.751  10.717  0.0487  1.1123 -1.8913
   34MOL0     H 4436  10.182   1.913  10.790  4.6044  3.2355 -0.4609
   34MOL0     H 4437  10.423   1.849  10.907  1.3026 -2.8813  3.0826
   34MOL0     H 4438  10.262   1.818  10.975  1.7588  0.9422  1.0789
   34MOL0     H 4439  10.447   1.635  10.790  0.5714 -0.6735  0.6998
   34MOL0     H 4440  10.291   1.582  10.855 -1.4590  1.0982  1.1031
   34MOL0     H 4441  10.287   1.615  11.164 -0.2852  2.5242  0.7057
   34MOL0     H 4442  10.568   1.509  11.395 -2.2719  2.7385  1.1376
   34MOL0     H 4443  10.499   1.368  11.314  1.6330 -0.4206  0.4474
   34MOL0     H 4444  10.273   1.490  11.333 -0.8314  1.2241 -0.8377
   34MOL0     H 4445  10.344   1.620  11.419 -1.6501 -0.0539  0.1929
   34MOL0     H 4446  10.450   1.452  11.576 -0.8079 -2.6935  2.4777
   34MOL0     H 4447  10.270   1.493  11.592  1.3835  0.2187  2.4689
   34MOL0     H 4448  10.293   1.275  11.636 -0.9289  2.1185  0.2992
   34MOL0     H 4449  10.389   1.232  11.483  2.0924  0.4744  0.0459
   34MOL0     H 4450   9.993   1.398  11.337  0.6380 -1.2766 -0.1016
   34MOL0     H 4451   9.786   1.459  11.437 -1.5106 -0.7259  1.4386
   34MOL0     H 4452   9.395   1.347  11.837  2.1861  1.0520 -0.0493
   34MOL0     H 4453   9.249   1.469  11.954  1.8859 -0.2769  1.5792
   34MOL0     H 4454   9.255   1.682  12.097 -1.2597  0.1875  1.9241
   34MOL0     H 4455   9.107   1.595  12.051 -0.0400  0.2084  1.1343
   34MOL0     H 4456   9.113   1.895  12.103 -1.4541  1.0668  1.5885
   34MOL0     H 4457   9.053   1.765  12.213 -2.2311  1.7887  0.8037
   34MOL0     H 4458   8.883   1.701  12.051  0.9252  0.2084  0.7365
   34MOL0     H 4459   8.944   1.825  11.939 -1.3729 -0.8595 -1.0432
   34MOL0     H 4460   8.841   1.888  12.229  1.4406 -0.3439  0.2768
   34MOL0     H 4461   8.901   2.000  12.106 -1.5996  0.5887 -0.5249
   34MOL0     H 4462   8.676   1.833  12.021 -2.1393  1.4265 -1.0366
   34MOL0     H 4463   8.748   1.969  11.961 -0.9497 -4.5123 -1.8460
   34MOL0     H 4464   8.688   2.102  12.161  2.2846 -0.7147  1.2040
   34MOL0     H 4465   8.615   1.958  12.242  1.9903 -1.7792 -0.8686
   34MOL0     H 4466   8.480   2.061  11.992 -0.3398 -4.5591 -2.2994
   34MOL0     H 4467   8.442   1.925  12.105  1.0045 -0.6419  0.6310
   34MOL0     H 4468   8.436   2.226  12.166 -1.0036  0.2166  1.1692
   34MOL0     H 4469   8.422   2.099  12.298  0.0020  0.1902  0.1136
   34MOL0     H 4470   9.304   1.805  11.685  0.4858  0.2736  0.4739
   34MOL0     H 4471   9.478   1.671  11.563 -1.3165 -2.7084 -1.6129
   34MOL0     H 4472   9.920   1.343  11.834  4.8290 -1.4530  1.8719
   34MOL0     H 4473  10.126   1.273  11.737  0.5881  0.9144  0.5413
   34MOL0     H 4474  10.907   1.886  10.510  0.3848 -1.6212  0.1041
   34MOL0     H 4475  11.125   1.911  10.429 -0.6305 -0.0870  0.2186
   34MOL0     H 4476  11.468   2.040  10.194  0.7922  0.4596 -0.9730
   34MOL0     H 4477  11.693   2.110  10.211 -0.5506 -0.1034  0.7671
   34MOL0     H 4478  11.823   2.529  10.313  0.3365 -1.3147  0.5634
   34MOL0     H 4479  11.775   2.544  10.151 -1.7411  0.8385  2.1524
   34MOL0     H 4480  11.998   2.390  10.116 -1.5588 -1.8017 -0.1799
   34MOL0     H 4481  12.018   2.563  10.160 -1.4174  0.6335  1.4169
   34MOL0     H 4482  12.017   2.346  10.379  2.3760 -0.0041  1.2900
   34MOL0     H 4483  12.083   2.514  10.375  3.3549  0.4314 -2.4508
   34MOL0     H 4484  12.213   2.307  10.188  1.8685 -0.8572  0.0015
   34MOL0     H 4485  12.271   2.464  10.237 -2.5718  0.9360  2.4663
   34MOL0     H 4486  12.385   2.269  10.573  2.9263  1.1969 -0.8021
   34MOL0     H 4487  11.596   2.508  10.274  0.9752 -0.3122  4.3388
   34MOL0     H 4488  11.351   2.455  10.278  1.2943  1.1206 -0.8534
   35MOL0     O 4489   1.125   4.431   8.108 -0.3687 -0.4658 -0.1555
   35MOL0     C 4490   1.208   4.485   8.030  0.7909 -0.2578 -0.4994
   35MOL0     O 4491   1.184   4.509   7.892  0.5648  0.4713  0.7108
   35MOL0     C 4492   1.052   4.526   7.855  0.1386 -0.5874  0.7465
   35MOL0     C 4493   1.008   4.650   7.819 -0.0944 -0.5798 -0.0159
   35MOL0     C 4494   0.878   4.670   7.775 -1.3483  0.1982  0.0755
   35MOL0     C 4495   0.794   4.553   7.749  0.0496  0.2820  0.0579
   35MOL0     O 4496   0.666   4.562   7.697  0.6174  0.2658 -0.0308
   35MOL0     C 4497   0.588   4.686   7.693 -0.0381  0.0123  0.4847
   35MOL0     C 4498   0.443   4.646   7.689  0.4604 -0.1341 -0.0772
   35MOL0     C 4499   0.340   4.753   7.636  0.0721  0.1484 -0.3927
   35MOL0     C 4500   0.194   4.729   7.695  0.0432 -0.4032  0.6605
   35MOL0     C 4501   0.089   4.805   7.616  0.5203 -0.0705  0.4661
   35MOL0     C 4502   0.117   4.951   7.604  0.3266  0.4537  0.1563
   35MOL0     C 4503   0.005   5.016   7.520  0.5463  0.1922 -0.2136
   35MOL0     C 4504   0.040   5.162   7.500 -0.0214  0.2114 -0.0273
   35MOL0     N 4505  -0.059   5.243   7.436 -0.0488 -0.2870  0.1073
   35MOL0     C 4506  -0.090   5.248   7.304  0.1535 -0.2990  0.0429
   35MOL0     C 4507  -0.183   5.345   7.290  0.1691 -0.1950  0.3570
   35MOL0     C 4508  -0.255   5.377   7.153  0.2792  0.1840 -0.6623
   35MOL0     C 4509  -0.365   5.475   7.170  0.6022  0.4796 -0.3763
   35MOL0     C 4510  -0.487   5.457   7.069 -0.3823 -0.6715  0.6687
   35MOL0     C 4511  -0.610   5.537   7.100 -0.6275  0.5898 -0.9620
   35MOL0     O 4512  -0.627   5.632   6.994 -0.4329 -0.0696  0.4862
   35MOL0     C 4513  -0.735   5.715   7.003 -0.2153 -0.3733 -0.0632
   35MOL0     C 4514  -0.820   5.710   7.106  1.0589 -0.4374 -1.3337
   35MOL0     C 4515  -0.928   5.800   7.114  0.0546 -0.1190 -0.7124
   35MOL0     C 4516  -0.940   5.899   7.017 -0.0098  0.8697 -0.0856
   35MOL0     C 4517  -1.054   5.992   7.003 -0.2390 -0.3469 -0.3000
   35MOL0     O 4518  -1.027   6.108   6.939  0.1386  0.2438  0.0603
   35MOL0     C 4519  -1.125   6.162   6.868  1.0562 -0.4911  0.7821
   35MOL0     C 4520  -1.138   6.121   6.730 -0.1195  0.2625  0.4159
   35MOL0     C 4521  -1.251   6.149   6.653  0.5306  0.1570 -0.1722
   35MOL0     C 4522  -1.337   6.256   6.702 -0.8800 -0.0703  0.5778
   35MOL0     O 4523  -1.440   6.316   6.629 -0.4083 -0.5381  0.1210
   35MOL0     C 4524  -1.431   6.298   6.486  0.3139 -0.1206  0.7334
   35MOL0     C 4525  -1.532   6.382   6.422  0.4126 -0.2839 -0.3115
   35MOL0     C 4526  -1.507   6.387   6.271 -0.6172 -0.5558  0.2794
   35MOL0     C 4527  -1.607   6.468   6.196  0.1717  0.0849 -0.5321
   35MOL0     C 4528  -1.542   6.491   6.057  0.6826 -0.5194 -0.0264
   35MOL0     C 4529  -1.647   6.550   5.964 -0.6129 -0.2992 -0.0334
   35MOL0     C 4530  -1.612   6.547   5.808  0.1134  0.7392  1.0828
   35MOL0     C 4531  -1.507   6.644   5.762  1.0715  0.4623 -0.2463
   35MOL0    Cl 4532  -1.450   6.588   5.619  0.2419  0.0687  0.0260
   35MOL0     C 4533  -1.315   6.307   6.829 -0.8005 -0.8127  0.5693
   35MOL0     C 4534  -1.223   6.249   6.919  0.2445  0.9358 -0.0189
   35MOL0     O 4535  -1.164   5.953   7.031  0.9587  0.2966 -0.1202
   35MOL0     C 4536  -0.839   5.910   6.925 -0.1356  0.4694  0.4302
   35MOL0     C 4537  -0.733   5.822   6.905  0.6131 -0.1874 -0.1108
   35MOL0     N 4538  -0.216   5.389   7.419 -0.1056 -0.9704 -0.9135
   35MOL0     N 4539  -0.142   5.332   7.504  0.7020 -0.3064  0.5310
   35MOL0     C 4540   0.846   4.429   7.776  1.3878  0.2915  0.4840
   35MOL0     C 4541   0.969   4.417   7.839 -0.6479  1.0172 -0.1213
   35MOL0     C 4542   1.342   4.519   8.078 -0.1380 -0.3748  0.2394
   35MOL0     C 4543   1.429   4.603   8.009  0.8140 -0.2195  0.4571
   35MOL0     C 4544   1.562   4.630   8.050 -0.3070 -0.1766  0.2941
   35MOL0     C 4545   1.617   4.560   8.149 -0.6650 -0.1564 -0.6157
   35MOL0     O 4546   1.748   4.573   8.190 -0.0380  0.3681  0.2404
   35MOL0     C 4547   1.821   4.489   8.276 -0.2478  0.1938  0.5277
   35MOL0     C 4548   1.970   4.520   8.245 -0.0172  1.1096  0.0504
   35MOL0     C 4549   2.006   4.665   8.256 -0.3086  0.6692 -0.4052
   35MOL0     C 4550   2.158   4.690   8.288 -0.2946 -0.2000 -0.2657
   35MOL0     C 4551   2.209   4.626   8.406 -1.1416 -0.7115  0.2102
   35MOL0     C 4552   2.249   4.570   8.507 -0.4428  0.4472  0.8829
   35MOL0     C 4553   1.538   4.474   8.224  0.0140  0.2159 -0.5796
   35MOL0     C 4554   1.402   4.461   8.188 -0.1993  0.4100  0.3275
   35MOL0     H 4555   1.067   4.739   7.839 -0.4588 -0.4860  0.6760
   35MOL0     H 4556   0.851   4.774   7.759  3.8677  1.3694 -3.8443
   35MOL0     H 4557   0.605   4.735   7.597 -0.5985 -0.1423  0.3078
   35MOL0     H 4558   0.610   4.748   7.781  2.0491 -0.2996  0.2387
   35MOL0     H 4559   0.403   4.607   7.783  2.4394 -1.4251  0.2948
   35MOL0     H 4560   0.438   4.563   7.618 -0.2384 -0.5023  0.3984
   35MOL0     H 4561   0.327   4.749   7.528 -1.3448 -0.4831 -0.2370
   35MOL0     H 4562   0.374   4.854   7.659  1.1768 -0.1240 -0.7745
   35MOL0     H 4563   0.175   4.622   7.694 -0.2378 -0.3634 -1.4865
   35MOL0     H 4564   0.193   4.763   7.799 -0.1593  1.8243 -0.0105
   35MOL0     H 4565  -0.007   4.772   7.657 -0.7594 -0.8585 -2.8535
   35MOL0     H 4566   0.092   4.772   7.512 -0.8804  1.0321  0.0395
   35MOL0     H 4567   0.207   4.956   7.542  1.2003 -1.6505  1.1581
   35MOL0     H 4568   0.122   4.995   7.704  0.7634  0.6880  0.0345
   35MOL0     H 4569   0.004   4.970   7.421  0.7997  0.6610 -0.4347
   35MOL0     H 4570  -0.096   5.001   7.561  1.5403  0.2544  2.4681
   35MOL0     H 4571   0.117   5.142   7.425  0.6715 -1.8792  1.1574
   35MOL0     H 4572   0.078   5.222   7.583 -0.6330  0.2266  0.2472
   35MOL0     H 4573  -0.056   5.182   7.225 -4.0102  0.7289 -2.9416
   35MOL0     H 4574  -0.297   5.282   7.116  3.0677 -1.7478  0.7440
   35MOL0     H 4575  -0.181   5.414   7.082 -0.5897  1.3590 -0.9753
   35MOL0     H 4576  -0.316   5.571   7.152 -0.2155  0.3919 -3.6935
   35MOL0     H 4577  -0.416   5.464   7.266  0.9489 -0.9910 -0.3476
   35MOL0     H 4578  -0.443   5.479   6.971  0.3599  0.7588  1.2921
   35MOL0     H 4579  -0.514   5.352   7.055 -3.1001 -0.0152  0.3554
   35MOL0     H 4580  -0.594   5.596   7.191  1.1479  2.7836 -2.5745
   35MOL0     H 4581  -0.694   5.468   7.092 -0.5920  0.3849  0.2288
   35MOL0     H 4582  -0.824   5.629   7.177 -1.6821  0.6048 -0.1489
   35MOL0     H 4583  -0.994   5.796   7.200  0.8142  2.3864  0.0788
   35MOL0     H 4584  -1.067   6.048   6.693  0.1085  1.5866 -1.9607
   35MOL0     H 4585  -1.277   6.101   6.559 -2.1847 -0.3065  0.7384
   35MOL0     H 4586  -1.434   6.195   6.450 -1.1258 -0.6999  2.3572
   35MOL0     H 4587  -1.328   6.325   6.463  0.9055 -2.2351  0.6656
   35MOL0     H 4588  -1.522   6.486   6.452  1.3571 -0.0742 -1.2751
   35MOL0     H 4589  -1.632   6.347   6.447  0.5188 -0.2778  0.1229
   35MOL0     H 4590  -1.495   6.287   6.229  1.3244 -0.5744  0.7822
   35MOL0     H 4591  -1.407   6.431   6.262 -0.7314 -0.2121  0.6891
   35MOL0     H 4592  -1.705   6.420   6.189 -1.0230  2.5188 -1.6502
   35MOL0     H 4593  -1.623   6.566   6.244 -0.9787  0.3052 -1.3253
   35MOL0     H 4594  -1.506   6.394   6.021 -0.3063 -0.2549 -1.8761
   35MOL0     H 4595  -1.459   6.562   6.061 -1.2704  1.8643  0.5986
   35MOL0     H 4596  -1.650   6.656   5.992  3.6956  0.0738 -0.2818
   35MOL0     H 4597  -1.742   6.497   5.969 -0.5819 -1.4180 -5.3272
   35MOL0     H 4598  -1.586   6.445   5.779 -1.4327  1.0231 -1.6443
   35MOL0     H 4599  -1.696   6.561   5.740  2.9150  0.3069 -2.7745
   35MOL0     H 4600  -1.422   6.652   5.830  0.9948  3.4821 -0.4135
   35MOL0     H 4601  -1.547   6.745   5.750 -0.3606 -0.1432 -0.8954
   35MOL0     H 4602  -1.369   6.397   6.857  0.1377  0.5288 -1.5985
   35MOL0     H 4603  -1.217   6.289   7.020 -1.2078  0.2356  0.3603
   35MOL0     H 4604  -0.845   5.998   6.861  2.5114 -0.3324 -1.0527
   35MOL0     H 4605  -0.673   5.821   6.815 -0.8021 -1.8372 -1.1090
   35MOL0     H 4606   0.784   4.344   7.750  1.1068 -0.3589  3.0324
   35MOL0     H 4607   1.004   4.320   7.872 -2.9635  1.1090  3.0491
   35MOL0     H 4608   1.397   4.648   7.916  0.7872 -1.0229  0.0761
   35MOL0     H 4609   1.617   4.709   8.001 -0.2189 -0.6672 -0.4012
   35MOL0     H 4610   1.801   4.382   8.261 -0.1242  0.4103 -1.4252
   35MOL0     H 4611   1.804   4.515   8.381 -1.4876 -1.8915  0.9122
   35MOL0     H 4612   2.036   4.455   8.304 -1.5300  0.6682  1.3361
   35MOL0     H 4613   1.991   4.487   8.143  1.9966  5.8294 -1.3425
   35MOL0     H 4614   1.943   4.719   8.328  0.3365  2.5250 -1.1779
   35MOL0     H 4615   1.985   4.720   8.164 -1.1905 -0.1164 -0.6991
   35MOL0     H 4616   2.208   4.644   8.202  0.4531 -1.8933  1.0260
   35MOL0     H 4617   2.180   4.797   8.284 -1.3613  0.4771  4.7956
   35MOL0     H 4618   2.294   4.525   8.593 -0.1335  1.1564  1.1010
   35MOL0     H 4619   1.580   4.405   8.297 -0.4635 -1.1209 -1.5168
   35MOL0     H 4620   1.340   4.392   8.244 -2.4111  0.6441 -1.6927
   36MOL0     O 4621  10.349   1.869   0.317 -0.0174  0.3058 -0.0256
   36MOL0     C 4622  10.313   1.911   0.205 -0.4726  0.3705 -0.1415
   36MOL0     O 4623  10.177   1.944   0.175  0.0153  0.0336 -0.2763
   36MOL0     C 4624  10.080   1.936   0.267  0.3109 -0.2604  0.4465
   36MOL0     C 4625  10.039   2.055   0.320  0.5535 -0.4409 -0.8426
   36MOL0     C 4626   9.942   2.053   0.419 -0.1668 -0.0961  0.2536
   36MOL0     C 4627   9.885   1.938   0.463 -0.2566  0.5198  0.2748
   36MOL0     O 4628   9.790   1.957   0.552  0.2820  0.4035  0.1764
   36MOL0     C 4629   9.662   1.949   0.492  0.9122  0.0538  0.4907
   36MOL0     C 4630   9.543   1.982   0.598 -0.5289  0.8959 -0.9271
   36MOL0     C 4631   9.573   2.113   0.666  0.0906 -0.7684 -0.4229
   36MOL0     C 4632   9.448   2.163   0.738  0.3124  0.7195  0.5105
   36MOL0     C 4633   9.392   2.270   0.651 -0.4450  0.1841  0.0980
   36MOL0     C 4634   9.262   2.332   0.702 -0.5592  0.4137 -0.0704
   36MOL0     C 4635   9.131   2.240   0.703 -0.7557  0.3169 -0.0983
   36MOL0     C 4636   8.999   2.317   0.712 -0.3878 -0.9815 -0.0548
   36MOL0     N 4637   8.968   2.382   0.583 -0.3307  0.5313 -0.3288
   36MOL0     C 4638   8.914   2.311   0.473 -0.1205  0.6709 -0.2698
   36MOL0     C 4639   8.915   2.396   0.367  0.6459  0.0550  0.3093
   36MOL0     C 4640   8.861   2.375   0.227 -0.1183  0.6033 -0.3158
   36MOL0     C 4641   8.777   2.489   0.170 -0.2589  0.7863  0.8486
   36MOL0     C 4642   8.640   2.474   0.231  0.0295  0.0302 -0.2361
   36MOL0     C 4643   8.567   2.607   0.213 -0.6382 -0.0153  0.2875
   36MOL0     O 4644   8.429   2.566   0.236 -0.8987  0.3311 -0.3136
   36MOL0     C 4645   8.331   2.652   0.199  0.5753 -0.4311  0.5101
   36MOL0     C 4646   8.218   2.653   0.274  0.0595  0.5064  0.9487
   36MOL0     C 4647   8.113   2.733   0.239 -0.0350  0.0175 -0.2536
   36MOL0     C 4648   8.127   2.812   0.126 -1.1090 -0.9664  0.1550
   36MOL0     C 4649   8.016   2.902   0.082 -0.8657  0.3922  0.3248
   36MOL0     O 4650   7.906   2.897   0.159  0.3548  0.2028  0.1923
   36MOL0     C 4651   7.804   2.988   0.150  1.3492 -0.3144  0.6686
   36MOL0     C 4652   7.818   3.121   0.123  0.8707 -0.4665 -1.1151
   36MOL0     C 4653   7.711   3.199   0.091  0.3423 -0.2295 -0.2861
   36MOL0     C 4654   7.581   3.149   0.099  0.8600 -0.7927  0.6085
   36MOL0     O 4655   7.491   3.243   0.051 -0.0328 -0.4986  0.6112
   36MOL0     C 4656   7.355   3.201   0.030 -0.1541 -0.1815  1.0752
   36MOL0     C 4657   7.266   3.321  -0.000  0.5127 -0.1941  0.9194
   36MOL0     C 4658   7.306   3.393  -0.132 -0.0246 -0.3770 -0.6191
   36MOL0     C 4659   7.235   3.532  -0.144  0.4520 -0.7016  0.0157
   36MOL0     C 4660   7.082   3.536  -0.153  0.5349 -0.3073 -0.3480
   36MOL0     C 4661   7.013   3.558  -0.292 -0.0401 -0.8299  0.3372
   36MOL0     C 4662   7.083   3.466  -0.398  0.3099 -0.6507 -0.2235
   36MOL0     C 4663   6.995   3.466  -0.521 -0.0761 -0.4726 -0.2875
   36MOL0    Cl 4664   6.965   3.641  -0.588 -0.5886  0.0168  0.2407
   36MOL0     C 4665   7.563   3.010   0.129  0.4276 -0.2962 -0.4954
   36MOL0     C 4666   7.672   2.935   0.164 -0.2433 -0.0197 -0.1241
   36MOL0     O 4667   8.029   2.969  -0.022  0.7102  0.5921 -0.6649
   36MOL0     C 4668   8.244   2.809   0.053  0.2643  0.0251 -0.1098
   36MOL0     C 4669   8.344   2.732   0.083 -0.1033  0.6503 -0.1248
   36MOL0     N 4670   8.971   2.519   0.417 -0.1070  0.1936 -0.4454
   36MOL0     N 4671   9.002   2.512   0.543 -0.0860  0.0106 -0.2725
   36MOL0     C 4672   9.910   1.819   0.402  0.1209 -0.0443 -0.4807
   36MOL0     C 4673  10.014   1.815   0.302  1.2268  0.1084 -0.6829
   36MOL0     C 4674  10.417   1.907   0.104  0.3382  0.3860  0.2010
   36MOL0     C 4675  10.541   1.841   0.135  0.3882 -1.1726 -0.2428
   36MOL0     C 4676  10.642   1.852   0.042  0.0127  0.8707 -0.4366
   36MOL0     C 4677  10.626   1.910  -0.084 -0.5229 -0.0658  0.1050
   36MOL0     O 4678  10.720   1.924  -0.189  0.6629 -0.0638 -0.2789
   36MOL0     C 4679  10.835   1.836  -0.177 -0.2009 -0.0661 -0.2206
   36MOL0     C 4680  10.917   1.802  -0.304 -0.1051 -0.1113 -0.0047
   36MOL0     C 4681  10.829   1.756  -0.421  0.1051  0.2400 -0.1585
   36MOL0     C 4682  10.914   1.673  -0.530  1.2220 -0.9213 -0.8728
   36MOL0     C 4683  10.822   1.637  -0.643 -0.3304 -0.5097 -0.3494
   36MOL0     C 4684  10.743   1.614  -0.732 -0.7189 -0.4660  0.1500
   36MOL0     C 4685  10.510   1.975  -0.108 -1.0079 -0.1670  0.5003
   36MOL0     C 4686  10.400   1.968  -0.020 -1.2565 -0.4457 -0.3200
   36MOL0     H 4687  10.063   2.156   0.288 -1.2403  0.5124  0.6189
   36MOL0     H 4688   9.918   2.153   0.456  1.2859 -0.1152  1.3450
   36MOL0     H 4689   9.661   1.846   0.455  2.3917  1.1631 -2.9646
   36MOL0     H 4690   9.651   2.009   0.401 -2.8789 -1.1569 -0.0313
   36MOL0     H 4691   9.546   1.898   0.667 -2.4536  0.4065 -1.3747
   36MOL0     H 4692   9.444   1.988   0.553 -2.0559 -0.6558  1.9663
   36MOL0     H 4693   9.616   2.191   0.602  1.0570  0.8945  2.1016
   36MOL0     H 4694   9.654   2.096   0.738  1.6836 -0.7169 -2.1386
   36MOL0     H 4695   9.369   2.088   0.755  0.4451  0.5843  0.5338
   36MOL0     H 4696   9.485   2.193   0.836  1.6978  0.7115  0.0044
   36MOL0     H 4697   9.384   2.237   0.547  2.4300  4.2570 -1.7306
   36MOL0     H 4698   9.463   2.354   0.651 -1.1779  0.8963  3.1390
   36MOL0     H 4699   9.238   2.413   0.632  1.0062 -0.4245 -1.6502
   36MOL0     H 4700   9.278   2.373   0.802  0.7121 -0.2716  0.0265
   36MOL0     H 4701   9.141   2.165   0.624  0.1962 -3.0411  2.8783
   36MOL0     H 4702   9.133   2.177   0.793  2.0348 -0.7770 -0.8134
   36MOL0     H 4703   9.010   2.401   0.782 -1.0159 -0.6075 -0.3998
   36MOL0     H 4704   8.915   2.251   0.735 -1.1920 -0.6287 -1.8326
   36MOL0     H 4705   8.892   2.205   0.462 -1.4859  0.8569  0.4079
   36MOL0     H 4706   8.803   2.283   0.224  0.8639  0.0018 -1.9689
   36MOL0     H 4707   8.942   2.354   0.157 -0.0401 -2.6625  0.6164
   36MOL0     H 4708   8.768   2.472   0.063 -2.3664  1.9016  0.8124
   36MOL0     H 4709   8.818   2.588   0.190  0.0872  0.8597 -0.1699
   36MOL0     H 4710   8.589   2.387   0.189  2.1141 -0.1528 -2.6128
   36MOL0     H 4711   8.649   2.459   0.339  2.0309 -0.1178 -0.3815
   36MOL0     H 4712   8.594   2.636   0.111  2.3109  0.2047  1.0229
   36MOL0     H 4713   8.609   2.685   0.277  3.0052  0.3941 -2.2411
   36MOL0     H 4714   8.206   2.589   0.361  0.8607 -0.2285  0.5343
   36MOL0     H 4715   8.019   2.747   0.292  0.8896 -0.1037  1.4847
   36MOL0     H 4716   7.915   3.165   0.102  1.1033 -0.3667  0.1244
   36MOL0     H 4717   7.726   3.295   0.044  0.6033  0.9566  2.0595
   36MOL0     H 4718   7.321   3.150   0.121  1.2989 -2.3172  0.4839
   36MOL0     H 4719   7.356   3.124  -0.047 -1.8941 -0.2266  1.0576
   36MOL0     H 4720   7.271   3.396   0.079 -1.0386  0.6949  0.2216
   36MOL0     H 4721   7.166   3.277  -0.006  0.9730 -1.0909 -1.8968
   36MOL0     H 4722   7.280   3.331  -0.218  1.1136 -3.0313  0.8139
   36MOL0     H 4723   7.414   3.411  -0.145 -0.5713  3.0760 -1.3071
   36MOL0     H 4724   7.259   3.583  -0.050 -1.9016  1.0719 -0.2609
   36MOL0     H 4725   7.282   3.593  -0.221  3.0190 -2.3246  0.1639
   36MOL0     H 4726   7.046   3.615  -0.087  0.6721 -1.4778  1.1910
   36MOL0     H 4727   7.043   3.442  -0.113  1.7060 -1.8889 -2.6901
   36MOL0     H 4728   7.022   3.664  -0.317 -1.3460  0.4879  4.5441
   36MOL0     H 4729   6.905   3.537  -0.286 -0.6780  1.2986 -1.9478
   36MOL0     H 4730   7.189   3.492  -0.411  0.1617  1.1578  1.6191
   36MOL0     H 4731   7.074   3.362  -0.367  0.2938 -0.2135  1.3641
   36MOL0     H 4732   6.906   3.410  -0.492  1.8251 -4.0979 -0.9016
   36MOL0     H 4733   7.035   3.397  -0.597 -1.9732 -1.7439 -0.1901
   36MOL0     H 4734   7.468   2.957   0.128 -0.4413  1.1548  0.7696
   36MOL0     H 4735   7.664   2.832   0.197  0.4310 -0.2904 -0.7762
   36MOL0     H 4736   8.263   2.889  -0.018  0.1950 -0.0617 -0.2281
   36MOL0     H 4737   8.430   2.732   0.018  0.9003 -1.8069  1.0786
   36MOL0     H 4738   9.855   1.728   0.425  2.4005 -1.1970  0.8581
   36MOL0     H 4739  10.026   1.721   0.250  0.5139  2.1600 -5.0082
   36MOL0     H 4740  10.553   1.774   0.219 -1.2002 -1.2542 -0.0378
   36MOL0     H 4741  10.737   1.807   0.071  1.8011  3.8999 -1.1159
   36MOL0     H 4742  10.805   1.739  -0.136  1.3385  0.4321  2.2895
   36MOL0     H 4743  10.904   1.881  -0.104  1.3024  0.7447 -2.0492
   36MOL0     H 4744  10.990   1.878  -0.333  1.5987 -0.4848  2.9577
   36MOL0     H 4745  10.976   1.714  -0.277  0.9527  0.4647 -0.3827
   36MOL0     H 4746  10.788   1.847  -0.466 -0.3265  0.7468  1.2144
   36MOL0     H 4747  10.748   1.687  -0.398 -1.3327  0.3428 -4.0969
   36MOL0     H 4748  11.000   1.735  -0.557  0.2545  1.7324  1.5734
   36MOL0     H 4749  10.957   1.586  -0.480  2.7443  0.3901  0.2149
   36MOL0     H 4750  10.685   1.601  -0.821 -0.4014 -2.4221  0.1849
   36MOL0     H 4751  10.483   2.017  -0.204 -0.8260 -1.6380 -0.2133
   36MOL0     H 4752  10.307   2.016  -0.047 -1.4020 -0.8013 -0.4428
   37MOL0     O 4753   2.334   7.051   2.540  1.1382  0.0310  0.3387
   37MOL0     C 4754   2.403   6.981   2.607  0.2544  0.4139 -0.1315
   37MOL0     O 4755   2.356   6.889   2.697  0.1767 -0.0261  0.6287
   37MOL0     C 4756   2.224   6.879   2.713 -0.4846 -0.0805  0.3071
   37MOL0     C 4757   2.165   6.968   2.793  1.2275 -0.0729 -0.0008
   37MOL0     C 4758   2.026   6.942   2.827  0.3996  0.1340  0.5863
   37MOL0     C 4759   1.954   6.835   2.782 -0.3549 -0.7403  0.9606
   37MOL0     O 4760   1.824   6.835   2.821 -0.0582 -0.1946 -0.0381
   37MOL0     C 4761   1.749   6.724   2.805 -0.3482  0.1322  0.4514
   37MOL0     C 4762   1.624   6.719   2.902  0.0086  0.2593 -0.0480
   37MOL0     C 4763   1.540   6.594   2.892 -0.2877  0.7172 -0.1152
   37MOL0     C 4764   1.430   6.603   2.994 -0.6687 -0.4180  0.6259
   37MOL0     C 4765   1.319   6.502   2.956  0.4772  0.3090  0.2563
   37MOL0     C 4766   1.211   6.493   3.060  0.0479  0.1271 -0.1486
   37MOL0     C 4767   1.080   6.421   3.010 -0.1280  0.2150  1.6347
   37MOL0     C 4768   0.989   6.513   2.924 -0.0990 -0.1797  0.1223
   37MOL0     N 4769   0.879   6.434   2.872  0.9525  0.8652  0.3040
   37MOL0     C 4770   0.753   6.403   2.928  0.7840  0.6334 -0.2603
   37MOL0     C 4771   0.704   6.300   2.847  0.3688  0.1955 -0.6519
   37MOL0     C 4772   0.581   6.223   2.884  0.2863  0.0802  0.1808
   37MOL0     C 4773   0.451   6.289   2.820 -0.6018  0.0020 -0.4976
   37MOL0     C 4774   0.427   6.289   2.671 -0.5963  0.5061  0.2177
   37MOL0     C 4775   0.288   6.315   2.624  0.2383 -0.6605 -0.5613
   37MOL0     O 4776   0.209   6.221   2.691  0.3765  0.4052  0.8178
   37MOL0     C 4777   0.069   6.234   2.681 -0.4442 -0.0941 -0.1005
   37MOL0     C 4778   0.002   6.305   2.582 -0.4985 -0.6754 -0.7126
   37MOL0     C 4779  -0.133   6.295   2.571  0.0612 -0.0264 -0.2912
   37MOL0     C 4780  -0.214   6.220   2.662 -0.5997  0.3244 -0.4700
   37MOL0     C 4781  -0.358   6.221   2.638  0.0222  0.2109 -0.0336
   37MOL0     O 4782  -0.396   6.305   2.541 -0.4101 -0.0887  0.6097
   37MOL0     C 4783  -0.526   6.326   2.506 -0.0486 -0.1136  0.4528
   37MOL0     C 4784  -0.552   6.344   2.371  0.6040  0.0903  0.0126
   37MOL0     C 4785  -0.672   6.393   2.327 -0.2844 -0.3766  0.5768
   37MOL0     C 4786  -0.774   6.416   2.415  0.6220 -0.5489  0.1213
   37MOL0     O 4787  -0.894   6.476   2.380 -0.0913  0.2809  0.2203
   37MOL0     C 4788  -0.952   6.444   2.255 -0.4324 -0.6204 -0.0346
   37MOL0     C 4789  -1.106   6.467   2.278 -0.5554 -0.2380 -0.6161
   37MOL0     C 4790  -1.143   6.619   2.286 -0.9648  0.7564  0.2443
   37MOL0     C 4791  -1.291   6.645   2.303 -0.2482 -0.4706 -0.4014
   37MOL0     C 4792  -1.310   6.769   2.394  0.1337  0.2279 -0.2210
   37MOL0     C 4793  -1.451   6.799   2.422  0.2315  0.5151 -0.4403
   37MOL0     C 4794  -1.466   6.930   2.504 -1.2663 -0.0007 -0.3886
   37MOL0     C 4795  -1.604   6.941   2.557  0.8739  0.9720 -0.6086
   37MOL0    Cl 4796  -1.644   6.865   2.715 -0.1523 -0.4724 -0.2154
   37MOL0     C 4797  -0.752   6.398   2.557  0.3460  0.4551  0.1542
   37MOL0     C 4798  -0.628   6.351   2.602  0.0405  0.4020  0.9287
   37MOL0     O 4799  -0.431   6.145   2.697 -0.9899  0.3057 -0.4138
   37MOL0     C 4800  -0.143   6.156   2.767  0.5275  0.5267  0.0964
   37MOL0     C 4801   0.000   6.158   2.769 -0.2861 -0.0334  0.1726
   37MOL0     N 4802   0.797   6.276   2.747  0.0530  0.3064 -0.3147
   37MOL0     N 4803   0.908   6.350   2.766  0.9690  0.2843  0.2474
   37MOL0     C 4804   2.026   6.745   2.695  0.9536  0.1154 -0.4178
   37MOL0     C 4805   2.156   6.771   2.656  0.5770  0.2227  1.3913
   37MOL0     C 4806   2.553   7.003   2.608  0.1833 -0.0255 -0.0730
   37MOL0     C 4807   2.643   6.941   2.697  0.2262  0.9311 -0.7511
   37MOL0     C 4808   2.784   6.956   2.699  0.0503  0.3812 -1.5577
   37MOL0     C 4809   2.831   7.055   2.616  0.1654  0.4997  0.5411
   37MOL0     O 4810   2.969   7.066   2.619 -0.1063 -0.9715 -0.4062
   37MOL0     C 4811   3.022   7.169   2.534 -0.6038 -0.2383  0.6479
   37MOL0     C 4812   3.168   7.161   2.566 -0.2618 -0.3408 -0.0336
   37MOL0     C 4813   3.245   7.074   2.483 -0.2119 -0.2514  0.8511
   37MOL0     C 4814   3.388   7.051   2.523  0.8816 -0.0688  0.3386
   37MOL0     C 4815   3.473   7.161   2.475 -0.9321 -0.5350  0.0104
   37MOL0     C 4816   3.562   7.229   2.427  0.6287  0.4826  0.0602
   37MOL0     C 4817   2.742   7.128   2.533 -0.5870  0.3782  0.1866
   37MOL0     C 4818   2.608   7.103   2.524 -0.2802  0.2446 -0.4025
   37MOL0     H 4819   2.200   7.050   2.854 -0.2078 -0.5792  1.5654
   37MOL0     H 4820   1.983   7.010   2.900 -1.0611  1.3681 -1.3093
   37MOL0     H 4821   1.817   6.640   2.824 -0.8943 -0.6998 -1.0862
   37MOL0     H 4822   1.716   6.728   2.701 -1.4936  1.2315  0.8331
   37MOL0     H 4823   1.562   6.807   2.886 -0.9040 -0.2030  0.8569
   37MOL0     H 4824   1.671   6.726   3.000 -2.4388  1.9165  1.0906
   37MOL0     H 4825   1.602   6.505   2.907  3.8217  3.1378 -1.0257
   37MOL0     H 4826   1.500   6.577   2.792  3.1979  2.8193 -2.0903
   37MOL0     H 4827   1.475   6.582   3.091 -0.8956 -1.9234  0.4341
   37MOL0     H 4828   1.379   6.699   3.001  0.4554  0.1464  1.2717
   37MOL0     H 4829   1.360   6.402   2.937  0.0437  0.3291 -0.8059
   37MOL0     H 4830   1.280   6.538   2.861  1.3528 -1.3030 -0.7517
   37MOL0     H 4831   1.191   6.599   3.082 -0.8849  0.0902 -0.7656
   37MOL0     H 4832   1.253   6.450   3.151 -0.7945  4.2116  2.4543
   37MOL0     H 4833   1.126   6.344   2.947  0.9649 -0.3787  3.0946
   37MOL0     H 4834   1.028   6.363   3.087  0.3760 -1.7903  0.5370
   37MOL0     H 4835   1.044   6.555   2.839  0.5191 -1.8743 -0.3572
   37MOL0     H 4836   0.947   6.599   2.976  0.9126  0.9424 -0.8631
   37MOL0     H 4837   0.724   6.440   3.026 -1.1629  0.3729 -0.6956
   37MOL0     H 4838   0.570   6.216   2.993  0.1504  0.1140  0.1695
   37MOL0     H 4839   0.600   6.120   2.850  1.0053  0.9427 -2.2545
   37MOL0     H 4840   0.459   6.395   2.848  0.8990 -0.1807 -0.1194
   37MOL0     H 4841   0.365   6.244   2.869 -1.0613  3.0906  1.8500
   37MOL0     H 4842   0.500   6.359   2.628 -1.1891  2.6831  2.4822
   37MOL0     H 4843   0.449   6.193   2.624 -1.0453  2.0275 -3.3691
   37MOL0     H 4844   0.281   6.298   2.516 -2.0977 -0.8893 -0.4094
   37MOL0     H 4845   0.250   6.414   2.650 -2.0554 -1.5265 -0.4454
   37MOL0     H 4846   0.064   6.363   2.514 -0.4521 -1.3214 -1.2394
   37MOL0     H 4847  -0.174   6.355   2.491  0.8072 -1.0969 -1.5104
   37MOL0     H 4848  -0.467   6.321   2.308  1.2910 -0.3640  1.0981
   37MOL0     H 4849  -0.703   6.411   2.225 -1.3305  0.0271  0.9498
   37MOL0     H 4850  -0.922   6.340   2.239 -0.7543 -0.3151 -3.1597
   37MOL0     H 4851  -0.910   6.514   2.182  0.9793  2.8032  3.6528
   37MOL0     H 4852  -1.137   6.403   2.360 -0.3285 -0.6604 -0.8585
   37MOL0     H 4853  -1.156   6.417   2.194  2.6541 -1.6893 -1.8172
   37MOL0     H 4854  -1.112   6.679   2.200  1.7451  2.5637  2.2752
   37MOL0     H 4855  -1.094   6.662   2.374  0.2102  2.6740 -1.2549
   37MOL0     H 4856  -1.326   6.656   2.200 -0.5175 -4.3479 -0.8538
   37MOL0     H 4857  -1.328   6.555   2.353  2.2102 -1.3144  0.0500
   37MOL0     H 4858  -1.259   6.854   2.348 -0.4678  1.6500  1.6328
   37MOL0     H 4859  -1.256   6.747   2.486 -2.1576 -1.3400  0.8510
   37MOL0     H 4860  -1.501   6.719   2.479 -1.4767  2.0356  0.2834
   37MOL0     H 4861  -1.493   6.799   2.321  2.7447  0.2300 -1.5686
   37MOL0     H 4862  -1.401   6.920   2.591 -1.5274  2.5490  0.1991
   37MOL0     H 4863  -1.435   7.015   2.443  0.3940 -0.3157 -0.0153
   37MOL0     H 4864  -1.670   6.904   2.478 -0.3596  2.8416 -0.5233
   37MOL0     H 4865  -1.606   7.049   2.579  3.7032  0.7378  1.2953
   37MOL0     H 4866  -0.820   6.441   2.630  0.0385 -2.7685  1.9491
   37MOL0     H 4867  -0.602   6.324   2.704  1.7439  1.3514  0.7785
   37MOL0     H 4868  -0.199   6.097   2.839  0.2286 -2.6569 -2.5025
   37MOL0     H 4869   0.054   6.120   2.855 -1.1351 -1.8884 -0.0548
   37MOL0     H 4870   1.973   6.669   2.638  2.2267  0.4999 -2.2100
   37MOL0     H 4871   2.213   6.706   2.590 -2.4100 -0.7269 -0.4344
   37MOL0     H 4872   2.599   6.865   2.762 -2.2307  0.3331 -2.9297
   37MOL0     H 4873   2.845   6.891   2.760  1.8331  1.3007 -2.2902
   37MOL0     H 4874   2.981   7.268   2.559 -0.4026  0.5167 -1.7509
   37MOL0     H 4875   3.008   7.153   2.427  4.0604  0.4122 -0.2671
   37MOL0     H 4876   3.213   7.259   2.548  3.3377 -1.7928  0.2020
   37MOL0     H 4877   3.185   7.138   2.672 -2.5253  0.2968  0.5247
   37MOL0     H 4878   3.241   7.116   2.382  1.6280 -0.8787  0.4959
   37MOL0     H 4879   3.182   6.985   2.479 -0.3642 -0.1187 -0.0501
   37MOL0     H 4880   3.395   7.040   2.631  2.3898  0.0568  0.2694
   37MOL0     H 4881   3.424   6.960   2.474 -1.3705 -0.5092 -0.6363
   37MOL0     H 4882   3.654   7.270   2.390  1.6908 -2.8283 -1.3633
   37MOL0     H 4883   2.776   7.196   2.455  1.1089  0.3937  0.8885
   37MOL0     H 4884   2.553   7.166   2.454 -1.6978 -1.0417 -0.4956
   38MOL0     O 4885   7.989   5.400   7.600  0.0189  0.6499 -0.5426
   38MOL0     C 4886   8.032   5.491   7.666  0.0376  0.6139  0.4403
   38MOL0     O 4887   7.955   5.573   7.745 -0.2029 -0.2078  0.3329
   38MOL0     C 4888   7.823   5.585   7.726  0.8849  0.1844 -0.3626
   38MOL0     C 4889   7.750   5.663   7.820 -0.1914 -0.0743  0.1782
   38MOL0     C 4890   7.612   5.684   7.832  0.7386  0.1093  0.2254
   38MOL0     C 4891   7.534   5.633   7.730  0.4338 -0.1447 -0.2022
   38MOL0     O 4892   7.395   5.664   7.712 -0.5250 -0.0933  0.1162
   38MOL0     C 4893   7.307   5.553   7.757  0.0532  0.4138  0.3679
   38MOL0     C 4894   7.172   5.607   7.792  0.3449  0.0370  0.0564
   38MOL0     C 4895   7.186   5.699   7.920 -0.3762 -0.1712  0.0839
   38MOL0     C 4896   7.202   5.852   7.874 -0.7560  0.4553 -0.4173
   38MOL0     C 4897   7.229   5.948   7.995 -0.1044  0.2490  1.0090
   38MOL0     C 4898   7.134   5.938   8.103  0.1090  0.6149 -0.2420
   38MOL0     C 4899   7.125   6.064   8.194  0.6472 -0.7225 -0.0979
   38MOL0     C 4900   7.049   6.044   8.329 -0.2024 -0.2110  0.9799
   38MOL0     N 4901   7.038   6.170   8.408  0.2377 -0.3696  0.1772
   38MOL0     C 4902   6.977   6.290   8.367  0.8235 -0.9580  1.1387
   38MOL0     C 4903   7.014   6.379   8.458  0.5261 -1.0519  0.6116
   38MOL0     C 4904   6.976   6.526   8.475 -0.4581  0.6656  0.0013
   38MOL0     C 4905   6.853   6.536   8.570 -0.3819 -0.8686  0.4326
   38MOL0     C 4906   6.884   6.520   8.722 -0.3157  0.2993  0.2934
   38MOL0     C 4907   6.755   6.474   8.796  0.5419 -0.2668 -0.8420
   38MOL0     O 4908   6.661   6.389   8.719 -0.1347 -0.3763 -0.5263
   38MOL0     C 4909   6.533   6.370   8.761 -0.3624 -0.3463  0.7671
   38MOL0     C 4910   6.492   6.401   8.891  0.0875  0.3147  0.1859
   38MOL0     C 4911   6.356   6.383   8.937 -0.0881 -0.2663  0.4865
   38MOL0     C 4912   6.268   6.335   8.844  1.9247  0.5215 -0.1212
   38MOL0     C 4913   6.117   6.333   8.871 -0.6039 -0.7140  0.0269
   38MOL0     O 4914   6.071   6.331   9.006  0.3401  0.6142 -0.4072
   38MOL0     C 4915   5.940   6.337   9.023  0.3905 -0.4605 -0.2733
   38MOL0     C 4916   5.876   6.460   9.043  0.2794  0.0603 -0.3297
   38MOL0     C 4917   5.742   6.475   9.081  0.8058 -0.2715  0.7421
   38MOL0     C 4918   5.667   6.353   9.089 -0.2477 -0.6461 -0.6632
   38MOL0     O 4919   5.533   6.352   9.129 -0.0862  0.4467 -0.3466
   38MOL0     C 4920   5.458   6.470   9.158 -0.0011  0.7487 -0.6883
   38MOL0     C 4921   5.314   6.436   9.140 -0.3822  1.1013 -0.4512
   38MOL0     C 4922   5.239   6.571   9.160 -0.3796  0.0957  0.2059
   38MOL0     C 4923   5.086   6.542   9.152 -0.0948 -0.0295  0.7396
   38MOL0     C 4924   5.005   6.669   9.157 -0.9525  0.1804 -0.1030
   38MOL0     C 4925   4.856   6.653   9.139 -0.3490 -0.4006  0.4392
   38MOL0     C 4926   4.774   6.774   9.145  0.5491  0.4991  0.8559
   38MOL0     C 4927   4.633   6.742   9.186 -0.1134  0.4266  0.6910
   38MOL0    Cl 4928   4.530   6.881   9.138  0.2860 -0.0163 -0.4445
   38MOL0     C 4929   5.729   6.230   9.054  0.5415 -0.2784  0.4222
   38MOL0     C 4930   5.865   6.219   9.029 -0.2683  0.2828  0.1007
   38MOL0     O 4931   6.049   6.316   8.771  0.0104  0.6780  0.9012
   38MOL0     C 4932   6.313   6.290   8.711 -0.0790  0.0280 -0.0529
   38MOL0     C 4933   6.450   6.313   8.670 -0.6452  0.1158  0.4787
   38MOL0     N 4934   7.109   6.325   8.538  0.9808 -0.0855 -0.5114
   38MOL0     N 4935   7.117   6.199   8.513  0.9662  0.4599  0.8168
   38MOL0     C 4936   7.596   5.570   7.623 -0.1325  0.6923 -0.0942
   38MOL0     C 4937   7.734   5.535   7.623  0.1562  0.1822 -0.0691
   38MOL0     C 4938   8.183   5.502   7.675  0.0312 -0.4259 -0.4819
   38MOL0     C 4939   8.270   5.447   7.582  0.4281  0.0807  0.2412
   38MOL0     C 4940   8.412   5.458   7.599  0.1491 -0.2954 -0.1286
   38MOL0     C 4941   8.470   5.528   7.705  0.1018 -0.0262  0.6742
   38MOL0     O 4942   8.602   5.554   7.730 -0.1298  0.0719  0.4908
   38MOL0     C 4943   8.700   5.485   7.655  0.1708  0.0903  1.1581
   38MOL0     C 4944   8.840   5.517   7.720  0.3515  0.0661  0.2690
   38MOL0     C 4945   8.952   5.469   7.626  0.6601 -0.0940  0.4511
   38MOL0     C 4946   9.093   5.474   7.674 -0.7770  0.4976 -0.1435
   38MOL0     C 4947   9.156   5.609   7.677  0.2798  0.5284  0.1574
   38MOL0     C 4948   9.202   5.718   7.670 -0.7208 -1.5665 -0.3881
   38MOL0     C 4949   8.381   5.578   7.798  0.8444 -0.2962 -0.3550
   38MOL0     C 4950   8.241   5.571   7.788 -0.2387 -0.8027 -0.0360
   38MOL0     H 4951   7.815   5.691   7.902  0.8131 -0.7936 -0.3347
   38MOL0     H 4952   7.571   5.743   7.914  1.6300  2.5810 -1.0084
   38MOL0     H 4953   7.361   5.504   7.840  0.2115 -1.3264 -0.7184
   38MOL0     H 4954   7.289   5.478   7.679 -0.6515  2.2779 -1.3374
   38MOL0     H 4955   7.098   5.535   7.828 -0.6923  0.9117 -0.2666
   38MOL0     H 4956   7.129   5.665   7.710  0.3766  1.1486  0.8185
   38MOL0     H 4957   7.278   5.675   7.975  1.4882 -3.1365 -3.8638
   38MOL0     H 4958   7.093   5.694   7.978  0.4964  2.1130  1.8756
   38MOL0     H 4959   7.290   5.853   7.809  1.0924 -0.8259  1.9288
   38MOL0     H 4960   7.105   5.886   7.836 -0.2215 -0.6345 -2.9881
   38MOL0     H 4961   7.221   6.053   7.963 -0.7977 -0.0913  0.0293
   38MOL0     H 4962   7.327   5.921   8.033  0.2473 -0.4672 -0.3535
   38MOL0     H 4963   7.159   5.851   8.165  2.1590  2.6386  1.9955
   38MOL0     H 4964   7.030   5.930   8.068 -0.5191  1.4936  1.3317
   38MOL0     H 4965   7.224   6.110   8.206 -0.0759  0.1753  3.4698
   38MOL0     H 4966   7.070   6.137   8.135  1.5078  0.2812  0.3067
   38MOL0     H 4967   7.094   5.961   8.384  0.9501 -1.5175 -1.7398
   38MOL0     H 4968   6.954   6.014   8.284  0.1875  1.0501 -0.8241
   38MOL0     H 4969   6.915   6.309   8.280  1.4657 -0.2500  0.8234
   38MOL0     H 4970   6.945   6.562   8.377  1.6329  1.4540 -0.4256
   38MOL0     H 4971   7.060   6.589   8.507 -1.0112  1.1210  0.6241
   38MOL0     H 4972   6.775   6.469   8.534 -0.2445  0.0719 -1.7833
   38MOL0     H 4973   6.800   6.631   8.560 -0.1217 -0.8356 -0.8157
   38MOL0     H 4974   6.957   6.441   8.744 -1.8444 -2.1562 -2.7237
   38MOL0     H 4975   6.923   6.615   8.760 -2.8932  2.2008 -1.5138
   38MOL0     H 4976   6.696   6.562   8.825  0.1499  0.0167 -2.3887
   38MOL0     H 4977   6.772   6.428   8.893 -1.8116  2.2726  0.9413
   38MOL0     H 4978   6.560   6.437   8.968  0.6091  0.0463 -0.1463
   38MOL0     H 4979   6.319   6.429   9.028 -3.7923  1.4335 -1.6562
   38MOL0     H 4980   5.932   6.553   9.035 -1.5089  1.1395 -0.9629
   38MOL0     H 4981   5.700   6.573   9.100  1.5833  1.0971 -3.5920
   38MOL0     H 4982   5.482   6.546   9.084 -1.1350  0.4186 -1.4165
   38MOL0     H 4983   5.481   6.494   9.262 -1.9847  2.6888 -0.6337
   38MOL0     H 4984   5.269   6.381   9.223 -3.6463  1.2066 -1.9766
   38MOL0     H 4985   5.288   6.387   9.045 -0.6551 -2.8042  1.4519
   38MOL0     H 4986   5.274   6.654   9.099 -1.9761  0.1303 -0.7215
   38MOL0     H 4987   5.264   6.608   9.260  1.5019  3.1632 -1.2461
   38MOL0     H 4988   5.065   6.499   9.053  0.2074  1.3907  0.0338
   38MOL0     H 4989   5.052   6.465   9.221 -0.4696 -1.2403 -0.7412
   38MOL0     H 4990   5.039   6.731   9.074  0.3693 -0.6294 -0.1993
   38MOL0     H 4991   5.030   6.710   9.255 -0.4562 -2.7121  1.0963
   38MOL0     H 4992   4.824   6.580   9.214 -2.3434  1.4972  1.5154
   38MOL0     H 4993   4.836   6.607   9.041 -1.2671  1.6258 -0.3801
   38MOL0     H 4994   4.813   6.829   9.231 -0.3980  2.3376  0.1470
   38MOL0     H 4995   4.780   6.830   9.052 -0.5584 -2.7376 -1.3512
   38MOL0     H 4996   4.616   6.718   9.291 -2.1416 -0.7549  0.1578
   38MOL0     H 4997   4.601   6.657   9.124 -0.2003  1.6958 -1.0543
   38MOL0     H 4998   5.657   6.149   9.045 -0.2591  0.4553  0.1194
   38MOL0     H 4999   5.918   6.128   9.001 -1.6274 -1.0022  1.4674
   38MOL0     H 5000   6.240   6.255   8.639 -1.2757  3.4427 -0.7081
   38MOL0     H 5001   6.480   6.285   8.569 -1.9128  0.2655  0.0379
   38MOL0     H 5002   7.538   5.524   7.543  0.7644 -2.5477  0.9398
   38MOL0     H 5003   7.781   5.481   7.541  1.1324  2.3390 -1.0000
   38MOL0     H 5004   8.225   5.397   7.497 -4.2294  2.3604  1.0734
   38MOL0     H 5005   8.479   5.417   7.524  0.0847 -0.8187  0.1005
   38MOL0     H 5006   8.690   5.515   7.550 -0.2936  0.6989  1.3681
   38MOL0     H 5007   8.684   5.378   7.644 -0.3652  0.1732  1.1127
   38MOL0     H 5008   8.842   5.626   7.730 -2.4675  0.1402  0.8758
   38MOL0     H 5009   8.839   5.465   7.816 -1.1846 -0.3497  0.0526
   38MOL0     H 5010   8.942   5.528   7.535 -2.0418 -1.1394 -0.0215
   38MOL0     H 5011   8.927   5.368   7.591 -0.4859  0.3208  0.0470
   38MOL0     H 5012   9.099   5.420   7.769  0.0398 -4.4483 -2.6410
   38MOL0     H 5013   9.152   5.412   7.606 -0.1198  0.0986  0.7736
   38MOL0     H 5014   9.236   5.820   7.666 -2.8730 -0.8340 -2.6133
   38MOL0     H 5015   8.416   5.621   7.892  2.3844 -3.3366  0.5886
   38MOL0     H 5016   8.175   5.619   7.860 -1.5785 -0.0404 -1.6990
   39MOL0     O 5017   3.366   6.095   9.944 -0.7324 -0.0185 -0.3738
   39MOL0     C 5018   3.390   6.216   9.933 -0.0543  0.0686 -0.4503
   39MOL0     O 5019   3.309   6.307   9.869  0.6971 -0.3720  0.7742
   39MOL0     C 5020   3.178   6.282   9.846  0.7537 -0.6352  0.5196
   39MOL0     C 5021   3.125   6.326   9.721 -0.1017  0.4796  0.4641
   39MOL0     C 5022   2.995   6.299   9.683 -0.2668 -0.3821 -0.1924
   39MOL0     C 5023   2.910   6.237   9.769  0.2650  0.6479 -0.6199
   39MOL0     O 5024   2.787   6.198   9.715  0.3250 -0.5006  0.1170
   39MOL0     C 5025   2.681   6.209   9.803 -0.0021  0.9040  0.3541
   39MOL0     C 5026   2.547   6.191   9.721  0.0860  0.9910  0.0046
   39MOL0     C 5027   2.421   6.176   9.806 -0.2236 -0.2589 -0.1532
   39MOL0     C 5028   2.294   6.188   9.723 -1.2248 -0.6843  0.6909
   39MOL0     C 5029   2.191   6.103   9.785 -0.1002 -0.5701 -0.6643
   39MOL0     C 5030   2.064   6.113   9.706  0.4378 -0.6839  0.2692
   39MOL0     C 5031   1.962   6.018   9.773 -0.4090 -0.1916  1.1081
   39MOL0     C 5032   1.849   6.006   9.672 -0.1236 -0.3893 -0.3378
   39MOL0     N 5033   1.747   5.898   9.695 -0.5645 -1.1083 -0.6688
   39MOL0     C 5034   1.702   5.810   9.591 -0.9591 -0.2998 -0.1434
   39MOL0     C 5035   1.616   5.733   9.664  0.5584 -0.8950 -0.1348
   39MOL0     C 5036   1.521   5.632   9.590  0.2737 -0.2046  0.5629
   39MOL0     C 5037   1.368   5.642   9.631  0.3381  0.0311  1.0052
   39MOL0     C 5038   1.275   5.562   9.539 -0.0566 -0.2775 -0.2532
   39MOL0     C 5039   1.129   5.596   9.570  0.1975  0.1617  1.0631
   39MOL0     O 5040   1.060   5.512   9.474 -0.8246 -0.2926  0.5500
   39MOL0     C 5041   0.926   5.534   9.452  0.7688 -0.2472  0.6582
   39MOL0     C 5042   0.850   5.630   9.512  0.0117  0.3058  1.0194
   39MOL0     C 5043   0.706   5.625   9.507  0.6630 -0.2486 -0.2178
   39MOL0     C 5044   0.645   5.521   9.436 -0.1030  0.4887 -1.0298
   39MOL0     C 5045   0.501   5.505   9.434  0.0086  0.3760 -0.1451
   39MOL0     O 5046   0.454   5.382   9.411 -0.3808  0.5215 -0.0166
   39MOL0     C 5047   0.311   5.376   9.390 -0.5651  0.2119  0.0199
   39MOL0     C 5048   0.231   5.313   9.486 -0.6017  0.1356 -0.3186
   39MOL0     C 5049   0.097   5.307   9.470 -1.0551  0.9280 -0.0767
   39MOL0     C 5050   0.030   5.361   9.364  0.3444 -0.2141 -0.1345
   39MOL0     O 5051  -0.098   5.350   9.352 -0.3042  0.0254  0.6255
   39MOL0     C 5052  -0.185   5.445   9.299 -0.2567  0.5888  0.4161
   39MOL0     C 5053  -0.313   5.441   9.376 -0.6412  0.1451 -0.3140
   39MOL0     C 5054  -0.425   5.509   9.292  0.2447  0.3421  0.0222
   39MOL0     C 5055  -0.558   5.459   9.359  0.1294 -0.1431 -0.3395
   39MOL0     C 5056  -0.684   5.524   9.307  0.4479 -0.0130 -0.3220
   39MOL0     C 5057  -0.692   5.508   9.157  1.0569 -0.4865 -0.1984
   39MOL0     C 5058  -0.836   5.518   9.101 -0.5972  0.2517  0.5901
   39MOL0     C 5059  -0.852   5.594   8.970  0.3857  0.7079 -0.0294
   39MOL0    Cl 5060  -0.807   5.765   8.975  0.2104 -0.2728  0.3165
   39MOL0     C 5061   0.106   5.426   9.268 -0.2912 -0.1301 -0.3232
   39MOL0     C 5062   0.247   5.432   9.280  0.3434 -0.4342  0.3697
   39MOL0     O 5063   0.440   5.599   9.492  0.4530  0.1674 -0.0638
   39MOL0     C 5064   0.729   5.426   9.366 -0.3518 -0.4772 -0.5433
   39MOL0     C 5065   0.861   5.425   9.387  0.0475 -1.2962  0.1277
   39MOL0     N 5066   1.612   5.776   9.798  0.7856  0.0645 -1.0035
   39MOL0     N 5067   1.687   5.881   9.814  1.2682  0.8080  0.3730
   39MOL0     C 5068   2.956   6.196   9.898  0.4447 -0.5383  0.5504
   39MOL0     C 5069   3.090   6.220   9.943 -0.3302 -0.0079  0.3368
   39MOL0     C 5070   3.511   6.265  10.010  0.1429 -0.5485 -0.2964
   39MOL0     C 5071   3.616   6.175  10.054  0.2372 -0.2327 -0.1688
   39MOL0     C 5072   3.722   6.221  10.131 -0.0873  0.6799  0.1450
   39MOL0     C 5073   3.725   6.352  10.176  0.6302  0.3020  0.3006
   39MOL0     O 5074   3.818   6.408  10.252  0.1913 -0.5275  0.3363
   39MOL0     C 5075   3.888   6.319  10.336 -0.4945 -0.9606  0.0931
   39MOL0     C 5076   4.004   6.393  10.406 -0.1958  0.2737 -0.6002
   39MOL0     C 5077   4.123   6.433  10.326  0.7386  0.1881  0.5039
   39MOL0     C 5078   4.205   6.543  10.393  0.1725 -0.3259 -0.4999
   39MOL0     C 5079   4.232   6.523  10.536  0.6286 -0.4216  0.3528
   39MOL0     C 5080   4.253   6.509  10.659  1.0866  0.2764 -0.0427
   39MOL0     C 5081   3.625   6.436  10.136  0.8764 -0.8648  0.4607
   39MOL0     C 5082   3.518   6.399  10.051  0.1402 -1.5359 -0.1477
   39MOL0     H 5083   3.182   6.376   9.643 -3.3079  0.8133 -1.8618
   39MOL0     H 5084   2.960   6.332   9.586 -0.3094  2.6959  0.7691
   39MOL0     H 5085   2.680   6.308   9.850  1.2663  0.6656  0.9259
   39MOL0     H 5086   2.686   6.141   9.889  0.7375  0.3609 -0.1077
   39MOL0     H 5087   2.560   6.110   9.648  0.9909  2.0214 -1.0135
   39MOL0     H 5088   2.533   6.279   9.658  1.7239  2.4512  1.5762
   39MOL0     H 5089   2.422   6.252   9.885  5.2450 -1.7056  1.5853
   39MOL0     H 5090   2.421   6.081   9.858  3.5500  0.8340  2.1734
   39MOL0     H 5091   2.264   6.294   9.724 -0.8986 -0.5917  1.4650
   39MOL0     H 5092   2.319   6.144   9.626  1.9873 -4.8142  3.0516
   39MOL0     H 5093   2.182   6.132   9.890  1.2717  2.9636 -1.3950
   39MOL0     H 5094   2.215   5.996   9.780 -0.5281 -0.6303 -1.6290
   39MOL0     H 5095   2.079   6.088   9.601 -3.4697  2.5412 -1.3207
   39MOL0     H 5096   2.020   6.212   9.692 -1.9500 -1.0329  3.8804
   39MOL0     H 5097   2.002   5.918   9.788 -3.5112 -1.6180  0.6395
   39MOL0     H 5098   1.921   6.058   9.866  0.0402 -2.7828  2.5134
   39MOL0     H 5099   1.884   5.978   9.572 -2.2555 -0.2342 -1.1835
   39MOL0     H 5100   1.796   6.101   9.659 -2.2095 -1.2486  1.2510
   39MOL0     H 5101   1.730   5.816   9.486 -0.7754  0.7410 -0.0521
   39MOL0     H 5102   1.560   5.532   9.606 -2.2638 -1.3123  0.3561
   39MOL0     H 5103   1.530   5.661   9.485 -1.2008  1.4496  0.8386
   39MOL0     H 5104   1.340   5.746   9.614 -2.3363 -0.7278  0.2675
   39MOL0     H 5105   1.353   5.598   9.730  1.0541 -1.5907  0.4220
   39MOL0     H 5106   1.301   5.586   9.435 -0.2583 -0.8625 -0.4437
   39MOL0     H 5107   1.289   5.455   9.556  0.6586  0.3962  5.1950
   39MOL0     H 5108   1.110   5.704   9.572 -0.8579 -0.0303  2.0809
   39MOL0     H 5109   1.105   5.571   9.674 -0.9362  1.8662  1.2374
   39MOL0     H 5110   0.898   5.720   9.549  0.1155  1.3085 -1.3625
   39MOL0     H 5111   0.643   5.704   9.546  3.2008  0.5791  2.5803
   39MOL0     H 5112   0.272   5.266   9.575 -1.6208 -3.0261 -1.3598
   39MOL0     H 5113   0.040   5.279   9.558 -1.7618  2.4940 -0.0069
   39MOL0     H 5114  -0.208   5.425   9.194  0.0074  0.1709  0.4364
   39MOL0     H 5115  -0.137   5.543   9.288 -0.0736  0.3983 -0.6220
   39MOL0     H 5116  -0.296   5.493   9.471  0.2881  2.8340 -1.8423
   39MOL0     H 5117  -0.327   5.333   9.374  2.1294 -0.2757 -1.4871
   39MOL0     H 5118  -0.427   5.476   9.188 -1.2835  1.9433 -0.5032
   39MOL0     H 5119  -0.419   5.617   9.306 -4.0356  1.2788 -3.2598
   39MOL0     H 5120  -0.552   5.353   9.333  3.7852  0.0766 -0.8813
   39MOL0     H 5121  -0.552   5.462   9.469  0.7045 -3.0617 -0.1931
   39MOL0     H 5122  -0.684   5.628   9.340  2.9877  0.1962 -0.8246
   39MOL0     H 5123  -0.769   5.473   9.354  1.0362 -1.5877 -0.8891
   39MOL0     H 5124  -0.671   5.402   9.140 -0.5060 -0.8519 -0.0212
   39MOL0     H 5125  -0.621   5.575   9.108  4.6473 -3.0654  0.9858
   39MOL0     H 5126  -0.877   5.420   9.076  0.9345 -1.0895  2.9185
   39MOL0     H 5127  -0.900   5.566   9.176  0.7804  2.5660  0.3785
   39MOL0     H 5128  -0.955   5.581   8.935  0.1603  0.9756  0.5256
   39MOL0     H 5129  -0.789   5.547   8.894  0.6299 -0.4425  0.8612
   39MOL0     H 5130   0.057   5.470   9.182  3.0248  1.4734 -1.6079
   39MOL0     H 5131   0.297   5.491   9.204 -0.2536  0.9288  0.9988
   39MOL0     H 5132   0.677   5.359   9.299 -3.7657  0.8322  0.5629
   39MOL0     H 5133   0.927   5.353   9.340 -0.3195 -1.1159 -0.6758
   39MOL0     H 5134   2.896   6.130   9.960 -1.0335  0.3238  0.0967
   39MOL0     H 5135   3.117   6.184  10.042 -3.8672 -1.3924  0.9629
   39MOL0     H 5136   3.602   6.073  10.018 -2.9522 -1.3136  3.4185
   39MOL0     H 5137   3.799   6.156  10.168 -1.0377  0.7496  2.4011
   39MOL0     H 5138   3.941   6.244  10.277 -1.9568 -0.2087 -2.3241
   39MOL0     H 5139   3.818   6.276  10.408  2.3469 -1.4807  2.7543
   39MOL0     H 5140   3.957   6.484  10.446  0.0556  0.6933 -1.2415
   39MOL0     H 5141   4.032   6.327  10.489 -3.3955  0.6922  0.9720
   39MOL0     H 5142   4.087   6.467  10.229  0.4520 -0.8364  0.2333
   39MOL0     H 5143   4.194   6.349  10.319  0.4351 -0.4879  3.7682
   39MOL0     H 5144   4.297   6.569  10.341  0.7457 -0.7779  0.2671
   39MOL0     H 5145   4.144   6.634  10.388 -0.0870 -0.5274 -1.1562
   39MOL0     H 5146   4.261   6.469  10.758  0.0947  2.9441  1.2238
   39MOL0     H 5147   3.627   6.533  10.185  0.7227 -0.9276  0.5918
   39MOL0     H 5148   3.434   6.466  10.034 -0.3941 -1.9684  0.6907
   40MOL0     O 5149   9.634   8.799   7.594  0.5268 -0.5115 -0.0631
   40MOL0     C 5150   9.686   8.723   7.676  1.1213 -0.5323  0.5666
   40MOL0     O 5151   9.632   8.690   7.797 -0.6166  0.4943  0.0612
   40MOL0     C 5152   9.508   8.737   7.836 -0.4414 -0.2189  0.3217
   40MOL0     C 5153   9.424   8.644   7.888 -0.6483  0.5813 -0.6778
   40MOL0     C 5154   9.296   8.674   7.931 -0.0802 -0.0541  0.4348
   40MOL0     C 5155   9.252   8.809   7.920  1.2505 -0.3835 -0.3243
   40MOL0     O 5156   9.138   8.860   7.983  0.2483  0.3165  0.0452
   40MOL0     C 5157   9.099   8.789   8.104 -0.7891 -0.2152  0.1476
   40MOL0     C 5158   8.998   8.865   8.184  0.5163 -0.6739  0.7518
   40MOL0     C 5159   8.865   8.861   8.108 -0.1595 -0.0733  0.0625
   40MOL0     C 5160   8.762   8.940   8.186 -0.0396  0.1934 -0.6832
   40MOL0     C 5161   8.638   8.954   8.106  0.6640 -0.5874 -0.6096
   40MOL0     C 5162   8.529   9.046   8.165  0.2164  0.6021  1.1810
   40MOL0     C 5163   8.386   9.014   8.101 -0.7405 -0.0455 -0.0914
   40MOL0     C 5164   8.363   9.088   7.962  0.1662 -0.4547  0.1049
   40MOL0     N 5165   8.219   9.102   7.932  0.8472 -0.2987  0.2026
   40MOL0     C 5166   8.127   9.201   7.972 -0.3269  0.4949  0.0891
   40MOL0     C 5167   8.012   9.181   7.906 -0.6834  1.1584  0.8178
   40MOL0     C 5168   7.894   9.269   7.929 -0.3389 -0.4363  0.2262
   40MOL0     C 5169   7.773   9.212   7.855 -0.2383 -0.9196 -0.0439
   40MOL0     C 5170   7.656   9.298   7.872 -0.0244  0.0677 -0.5946
   40MOL0     C 5171   7.550   9.228   7.792 -0.0398 -0.1435  0.0427
   40MOL0     O 5172   7.433   9.319   7.802 -0.5787 -0.0518  0.3990
   40MOL0     C 5173   7.308   9.269   7.748 -0.8698 -0.5630 -1.0233
   40MOL0     C 5174   7.192   9.328   7.798  0.6217  0.2631 -0.1949
   40MOL0     C 5175   7.066   9.284   7.749 -0.6594  0.0670  0.0547
   40MOL0     C 5176   7.058   9.181   7.653  1.0909  0.8294 -0.9460
   40MOL0     C 5177   6.916   9.149   7.606 -0.5086 -0.2979 -0.7708
   40MOL0     O 5178   6.809   9.194   7.684 -0.1475  0.3616 -0.2868
   40MOL0     C 5179   6.676   9.168   7.646 -0.6423  0.5785 -0.2220
   40MOL0     C 5180   6.589   9.126   7.758  0.5868  0.1297  0.6742
   40MOL0     C 5181   6.452   9.098   7.734 -0.2085 -0.1006 -0.7212
   40MOL0     C 5182   6.398   9.120   7.606 -0.3888  1.5719  0.9660
   40MOL0     O 5183   6.268   9.094   7.575  0.1415  0.2139 -0.3186
   40MOL0     C 5184   6.191   9.187   7.498 -0.4073 -0.0220  0.7884
   40MOL0     C 5185   6.093   9.265   7.582  0.1340  0.2843  0.4071
   40MOL0     C 5186   5.975   9.192   7.635  0.4175 -0.1364 -0.4005
   40MOL0     C 5187   5.900   9.277   7.747 -0.4044  0.9229 -0.1840
   40MOL0     C 5188   5.772   9.199   7.809 -0.9865 -0.6317 -0.8159
   40MOL0     C 5189   5.669   9.299   7.879 -0.0368  0.0341 -0.0630
   40MOL0     C 5190   5.539   9.232   7.908 -0.9598 -0.0956 -0.3824
   40MOL0     C 5191   5.455   9.297   8.008  0.7006 -0.1355  0.5915
   40MOL0    Cl 5192   5.294   9.211   8.015 -0.1740 -0.2594  0.1146
   40MOL0     C 5193   6.482   9.177   7.501  0.1682  0.9963  0.6757
   40MOL0     C 5194   6.619   9.197   7.518  0.4131 -0.4468 -0.1947
   40MOL0     O 5195   6.907   9.095   7.498  0.1773 -0.1995 -0.4685
   40MOL0     C 5196   7.179   9.126   7.608 -0.6414 -0.4562  0.6885
   40MOL0     C 5197   7.299   9.173   7.654 -0.0810  0.5999  0.5786
   40MOL0     N 5198   8.034   9.071   7.814  0.3816  0.2404 -1.2012
   40MOL0     N 5199   8.156   9.028   7.835 -0.2840  0.1262 -0.5610
   40MOL0     C 5200   9.336   8.907   7.872 -0.6818 -0.2830  0.5847
   40MOL0     C 5201   9.461   8.870   7.824 -0.5183 -0.4525 -0.5148
   40MOL0     C 5202   9.809   8.659   7.639  0.0673  1.0520  0.3701
   40MOL0     C 5203   9.875   8.573   7.732 -0.7201 -0.3802 -0.2722
   40MOL0     C 5204   9.984   8.494   7.679  0.7370 -0.1887  0.3488
   40MOL0     C 5205  10.042   8.516   7.550 -0.1784  0.1289  0.5144
   40MOL0     O 5206  10.157   8.451   7.521  0.9698 -0.0997 -0.2633
   40MOL0     C 5207  10.204   8.439   7.387 -0.3823 -1.4329 -0.0509
   40MOL0     C 5208  10.310   8.551   7.352 -0.0696 -0.5539  0.4318
   40MOL0     C 5209  10.438   8.542   7.437 -0.4743 -0.0351 -0.4454
   40MOL0     C 5210  10.558   8.626   7.390  0.1733  0.3022  0.1253
   40MOL0     C 5211  10.543   8.776   7.386 -0.1165  0.2285  0.4319
   40MOL0     C 5212  10.552   8.899   7.374 -0.0295  0.8827 -0.9436
   40MOL0     C 5213   9.967   8.594   7.453 -0.7235  0.0821  0.0450
   40MOL0     C 5214   9.850   8.656   7.498  1.3611 -0.7751 -0.0950
   40MOL0     H 5215   9.458   8.542   7.906  0.2552  1.0166  0.1630
   40MOL0     H 5216   9.237   8.596   7.978  0.1840  0.3102  1.3942
   40MOL0     H 5217   9.187   8.775   8.167  0.3784 -0.9543 -1.5480
   40MOL0     H 5218   9.061   8.692   8.071 -2.7638  0.3205  0.7322
   40MOL0     H 5219   9.012   8.973   8.197 -4.7074  0.3547  0.2995
   40MOL0     H 5220   8.979   8.817   8.281 -1.2151 -3.8163 -0.9789
   40MOL0     H 5221   8.834   8.758   8.087  0.8516 -0.4971  0.6103
   40MOL0     H 5222   8.885   8.912   8.013  0.1799 -0.8629 -0.2983
   40MOL0     H 5223   8.743   8.889   8.282 -1.9210 -1.7536 -2.0074
   40MOL0     H 5224   8.800   9.039   8.212  0.1134  0.3411 -1.4497
   40MOL0     H 5225   8.598   8.853   8.096  0.1386 -0.6924  2.0491
   40MOL0     H 5226   8.655   9.003   8.010 -1.0253  0.3476 -0.4711
   40MOL0     H 5227   8.550   9.152   8.147 -0.6015  1.1118  2.9663
   40MOL0     H 5228   8.531   9.029   8.273 -0.0814 -0.5270  1.0147
   40MOL0     H 5229   8.372   8.906   8.094 -1.5638  0.0355  0.2513
   40MOL0     H 5230   8.313   9.048   8.175  1.2627  0.8817  1.5843
   40MOL0     H 5231   8.407   9.027   7.882  1.7212  0.5302  0.1696
   40MOL0     H 5232   8.405   9.188   7.950  0.4778 -0.7747 -1.7775
   40MOL0     H 5233   8.137   9.289   8.034 -0.7402  0.6058 -0.0027
   40MOL0     H 5234   7.910   9.372   7.895 -0.7067 -0.2579  0.5989
   40MOL0     H 5235   7.891   9.279   8.038  1.4002 -2.8107  0.5784
   40MOL0     H 5236   7.757   9.110   7.892  2.1942 -0.8232  1.5063
   40MOL0     H 5237   7.797   9.204   7.748 -2.7609 -1.0607 -0.6643
   40MOL0     H 5238   7.621   9.309   7.975  0.9996  0.7269 -0.3019
   40MOL0     H 5239   7.677   9.404   7.854  1.8153  0.0415  1.0462
   40MOL0     H 5240   7.529   9.133   7.842 -0.8803 -0.9300 -1.7151
   40MOL0     H 5241   7.579   9.207   7.688  1.0459  0.0173  0.2984
   40MOL0     H 5242   7.205   9.402   7.877  2.0770 -2.1724  2.0056
   40MOL0     H 5243   6.975   9.324   7.795 -0.1849  2.8678 -1.1790
   40MOL0     H 5244   6.623   9.121   7.861 -1.6618  1.6010  1.5743
   40MOL0     H 5245   6.384   9.060   7.810 -0.9127 -0.6337 -1.5985
   40MOL0     H 5246   6.139   9.130   7.421  1.0296  0.1461 -0.3443
   40MOL0     H 5247   6.245   9.254   7.431 -0.6349 -0.9217 -0.3195
   40MOL0     H 5248   6.053   9.344   7.517  0.6585  0.3760  0.1858
   40MOL0     H 5249   6.153   9.306   7.664 -0.9401 -0.9881  1.8773
   40MOL0     H 5250   5.998   9.093   7.674 -1.2607 -0.4620 -0.1843
   40MOL0     H 5251   5.913   9.175   7.547 -1.0331  2.0275  0.1335
   40MOL0     H 5252   5.967   9.303   7.830 -0.2839  0.5239 -0.1529
   40MOL0     H 5253   5.858   9.369   7.705 -0.3714  0.8696 -0.3329
   40MOL0     H 5254   5.809   9.120   7.875  3.9582 -0.3057 -2.7832
   40MOL0     H 5255   5.713   9.150   7.731  0.6890 -3.8567 -0.2368
   40MOL0     H 5256   5.658   9.383   7.811 -0.5903  2.6407  2.9759
   40MOL0     H 5257   5.710   9.338   7.973  3.6089 -1.9283 -0.6893
   40MOL0     H 5258   5.479   9.215   7.818  0.3440  1.5571 -1.6274
   40MOL0     H 5259   5.563   9.131   7.942 -0.6952 -0.5039 -1.7200
   40MOL0     H 5260   5.424   9.398   7.977 -2.2127 -1.0327  0.2330
   40MOL0     H 5261   5.522   9.310   8.093  0.4404  0.9653  0.6438
   40MOL0     H 5262   6.433   9.196   7.406  0.4338 -2.1732 -0.2068
   40MOL0     H 5263   6.683   9.225   7.435 -3.0606  0.4547 -2.8138
   40MOL0     H 5264   7.180   9.048   7.532  1.7783 -1.8227  1.9950
   40MOL0     H 5265   7.386   9.114   7.627  0.5009  1.1611  1.2087
   40MOL0     H 5266   9.321   9.014   7.878  1.5106 -0.0132  3.5933
   40MOL0     H 5267   9.531   8.941   7.780 -0.6915  0.8123  1.1750
   40MOL0     H 5268   9.851   8.546   7.835  0.5406 -2.4635 -0.4635
   40MOL0     H 5269  10.038   8.430   7.748  1.6069  1.6152  1.4119
   40MOL0     H 5270  10.119   8.429   7.319 -1.1778 -2.5044  1.0503
   40MOL0     H 5271  10.260   8.345   7.389 -0.3623 -1.4179  0.1091
   40MOL0     H 5272  10.341   8.526   7.250 -2.1078  0.9314 -0.6248
   40MOL0     H 5273  10.263   8.650   7.343  2.1180  0.4408 -0.8279
   40MOL0     H 5274  10.473   8.439   7.447  1.1690  0.4134 -1.2935
   40MOL0     H 5275  10.411   8.582   7.535  3.9300  1.0213  0.5221
   40MOL0     H 5276  10.649   8.600   7.444  1.5208  0.9447 -1.7063
   40MOL0     H 5277  10.580   8.593   7.288  0.8790  1.2240 -0.0331
   40MOL0     H 5278  10.555   9.006   7.371 -1.6439  0.9399 -1.9563
   40MOL0     H 5279  10.002   8.605   7.351  0.7280 -1.1236  0.3614
   40MOL0     H 5280   9.792   8.715   7.428  1.1575 -0.2128  0.5320
   41MOL0     O 5281   8.111   7.208   6.318  0.4107 -0.1368  0.8632
   41MOL0     C 5282   8.138   7.317   6.366 -0.3413  0.0778  0.0972
   41MOL0     O 5283   8.047   7.411   6.420  0.2696 -0.1192  0.3519
   41MOL0     C 5284   7.910   7.376   6.426  0.5339  0.0223  0.0476
   41MOL0     C 5285   7.816   7.461   6.367  0.2267 -0.0180  0.1113
   41MOL0     C 5286   7.672   7.427   6.389 -0.0749  0.3564  0.3738
   41MOL0     C 5287   7.629   7.309   6.452 -0.4248 -0.4380 -0.9741
   41MOL0     O 5288   7.499   7.261   6.445  0.0637  0.8248  0.4239
   41MOL0     C 5289   7.394   7.356   6.406  0.1155  0.1555 -0.6600
   41MOL0     C 5290   7.240   7.335   6.437  0.6195  0.6503  0.2179
   41MOL0     C 5291   7.204   7.193   6.388 -0.0905 -0.6329 -0.2204
   41MOL0     C 5292   7.051   7.163   6.382  0.1990 -0.2727 -0.3199
   41MOL0     C 5293   7.031   7.007   6.397  0.7407 -0.6231  0.3843
   41MOL0     C 5294   6.874   6.964   6.380 -1.2800  0.0931 -0.9640
   41MOL0     C 5295   6.849   6.812   6.410  0.4578  0.3232  0.1761
   41MOL0     C 5296   6.700   6.771   6.377  0.2432  0.2471 -0.6090
   41MOL0     N 5297   6.691   6.632   6.390  0.1140 -0.0758  0.2557
   41MOL0     C 5298   6.691   6.562   6.510  0.0027 -0.3915 -0.5238
   41MOL0     C 5299   6.683   6.435   6.469  0.1720  0.0142 -0.1933
   41MOL0     C 5300   6.674   6.307   6.560 -0.0141  0.5018  0.4368
   41MOL0     C 5301   6.565   6.326   6.657  0.7147 -0.0103 -0.5063
   41MOL0     C 5302   6.560   6.221   6.775 -0.0498  0.7503  0.6350
   41MOL0     C 5303   6.529   6.077   6.717  0.0023 -0.1413 -0.3533
   41MOL0     O 5304   6.568   5.970   6.805  0.0057 -0.7786  0.8992
   41MOL0     C 5305   6.468   5.905   6.870 -0.0687 -1.0872 -0.2974
   41MOL0     C 5306   6.336   5.943   6.873  0.1747 -0.6257 -0.7103
   41MOL0     C 5307   6.233   5.870   6.926  0.6654  0.3410  0.0439
   41MOL0     C 5308   6.256   5.739   6.984  0.4629  0.1877  0.1582
   41MOL0     C 5309   6.135   5.662   7.036 -0.5530 -1.5563 -0.1256
   41MOL0     O 5310   6.012   5.725   7.052  0.1259  0.5426  0.3628
   41MOL0     C 5311   5.910   5.648   7.106 -0.3166  0.4107 -0.3107
   41MOL0     C 5312   5.844   5.714   7.203  0.2030 -0.7111 -0.0014
   41MOL0     C 5313   5.726   5.669   7.257 -0.2452 -1.0962  0.3063
   41MOL0     C 5314   5.679   5.547   7.214  0.2158  0.3310 -0.4629
   41MOL0     O 5315   5.562   5.488   7.262 -0.5827 -0.0975 -0.4596
   41MOL0     C 5316   5.480   5.557   7.351  0.3860 -0.1200 -0.4476
   41MOL0     C 5317   5.387   5.462   7.438  0.6894 -0.0848 -0.5653
   41MOL0     C 5318   5.295   5.386   7.349  0.3891 -0.4413  0.6904
   41MOL0     C 5319   5.210   5.286   7.432  0.2877  0.5868 -0.8907
   41MOL0     C 5320   5.097   5.235   7.352 -0.1420 -0.0567  0.2468
   41MOL0     C 5321   5.039   5.107   7.417  1.4060  0.4263  0.2588
   41MOL0     C 5322   4.926   5.060   7.322 -0.9832 -0.0426  0.0332
   41MOL0     C 5323   4.851   4.949   7.393 -0.2685 -0.4946 -0.4153
   41MOL0    Cl 5324   4.719   5.025   7.492 -0.3387  0.0369 -0.4063
   41MOL0     C 5325   5.749   5.476   7.117  0.0100 -0.3840  0.4308
   41MOL0     C 5326   5.864   5.525   7.062 -0.2712 -0.4593  0.4036
   41MOL0     O 5327   6.156   5.547   7.063 -0.4632 -0.5122  0.5755
   41MOL0     C 5328   6.396   5.690   6.977  0.1079  0.3466 -0.8089
   41MOL0     C 5329   6.489   5.777   6.926  1.0938  0.1816  1.7203
   41MOL0     N 5330   6.660   6.423   6.337 -0.3805  0.6603 -0.2836
   41MOL0     N 5331   6.676   6.542   6.290  0.3651  0.4266  0.5549
   41MOL0     C 5332   7.728   7.233   6.508  0.0883  0.4534  0.5081
   41MOL0     C 5333   7.862   7.258   6.482  0.4689  0.6285 -0.6005
   41MOL0     C 5334   8.284   7.359   6.360  0.2880  0.3537  0.2568
   41MOL0     C 5335   8.394   7.272   6.319  0.1684 -0.7609  0.2572
   41MOL0     C 5336   8.526   7.315   6.312  0.6280  0.2427 -1.4672
   41MOL0     C 5337   8.552   7.448   6.360 -0.0171  0.5634  0.6290
   41MOL0     O 5338   8.687   7.485   6.360 -0.7843  0.3939 -0.2893
   41MOL0     C 5339   8.745   7.615   6.382  0.2285 -0.1179  0.1186
   41MOL0     C 5340   8.751   7.712   6.258 -0.6685  0.0850 -0.4480
   41MOL0     C 5341   8.835   7.658   6.142 -0.3261  0.4627 -0.3201
   41MOL0     C 5342   8.936   7.765   6.069 -0.2249 -0.1270 -0.0307
   41MOL0     C 5343   9.013   7.703   5.963 -0.0173  0.6992 -0.2218
   41MOL0     C 5344   9.076   7.658   5.871  0.0597  0.4898 -0.2153
   41MOL0     C 5345   8.451   7.534   6.398  0.8175 -0.2695  0.8862
   41MOL0     C 5346   8.326   7.490   6.402  0.2433  0.7455  0.4424
   41MOL0     H 5347   7.844   7.546   6.306 -1.6606  0.6218  0.0655
   41MOL0     H 5348   7.598   7.485   6.334  0.5537  0.8281  0.0136
   41MOL0     H 5349   7.398   7.360   6.297 -0.3104  0.6539 -0.6565
   41MOL0     H 5350   7.422   7.454   6.446  1.4407 -1.0261  1.5839
   41MOL0     H 5351   7.172   7.412   6.400 -1.2338 -1.6044 -1.4235
   41MOL0     H 5352   7.239   7.345   6.546  0.2103  2.4399  0.0789
   41MOL0     H 5353   7.251   7.122   6.457 -0.9150  0.0944  1.1524
   41MOL0     H 5354   7.255   7.182   6.292  4.4532 -1.4710  2.0105
   41MOL0     H 5355   6.992   7.221   6.453  1.1633  1.9338 -1.2523
   41MOL0     H 5356   7.017   7.202   6.286  1.4420  1.5455 -0.0518
   41MOL0     H 5357   7.057   6.972   6.497 -0.0814  0.1007  0.8640
   41MOL0     H 5358   7.089   6.955   6.321 -0.8617 -0.3428 -1.0929
   41MOL0     H 5359   6.846   6.987   6.277 -0.9102  0.6805 -0.9391
   41MOL0     H 5360   6.820   7.023   6.454  2.2636  2.1268  0.2562
   41MOL0     H 5361   6.912   6.751   6.345 -0.2249 -0.3760  0.1508
   41MOL0     H 5362   6.880   6.782   6.510  1.2167 -1.3291 -0.5085
   41MOL0     H 5363   6.655   6.811   6.285 -0.3301  2.7974  0.6908
   41MOL0     H 5364   6.645   6.823   6.455  0.8040 -1.5397  1.0562
   41MOL0     H 5365   6.706   6.600   6.610 -0.2867 -0.3832 -0.4816
   41MOL0     H 5366   6.771   6.309   6.610  0.9903 -1.4944 -1.2293
   41MOL0     H 5367   6.665   6.218   6.496  3.0439  1.2133 -1.1793
   41MOL0     H 5368   6.467   6.322   6.610 -0.2485  0.5012  1.3344
   41MOL0     H 5369   6.573   6.429   6.694  0.4428 -0.0584 -0.3060
   41MOL0     H 5370   6.651   6.226   6.836 -0.8085 -1.7279  2.1316
   41MOL0     H 5371   6.485   6.258   6.845 -0.8025  0.7660 -0.1563
   41MOL0     H 5372   6.597   6.055   6.634  1.1966  2.1680 -0.0693
   41MOL0     H 5373   6.426   6.074   6.681 -0.1306 -0.0323  0.0165
   41MOL0     H 5374   6.310   6.044   6.844 -0.8902 -0.7532 -0.2628
   41MOL0     H 5375   6.130   5.902   6.920 -0.2085 -2.1487  0.5951
   41MOL0     H 5376   5.905   5.798   7.235  0.2589 -0.6588 -0.2442
   41MOL0     H 5377   5.683   5.728   7.336  0.3204  0.3405 -0.4237
   41MOL0     H 5378   5.414   5.616   7.287  0.5917 -0.3556 -0.8801
   41MOL0     H 5379   5.529   5.624   7.423 -0.6169 -0.1678  0.2932
   41MOL0     H 5380   5.329   5.527   7.504 -1.7644 -3.4964  0.9397
   41MOL0     H 5381   5.448   5.387   7.489 -0.1027 -2.1302 -2.4135
   41MOL0     H 5382   5.355   5.334   7.274 -0.3726 -1.6172  0.8668
   41MOL0     H 5383   5.223   5.458   7.308  2.8159  0.5128 -2.2427
   41MOL0     H 5384   5.280   5.207   7.459  1.6337  1.5253 -1.5505
   41MOL0     H 5385   5.178   5.335   7.525  2.9446  1.7523 -0.5029
   41MOL0     H 5386   5.131   5.217   7.249  0.4382  1.9386  0.0633
   41MOL0     H 5387   5.029   5.320   7.343 -1.5344 -1.2870 -1.6750
   41MOL0     H 5388   5.005   5.121   7.520 -1.5495  0.8405 -0.6886
   41MOL0     H 5389   5.114   5.027   7.412 -0.3395 -1.2358 -0.6284
   41MOL0     H 5390   4.862   5.145   7.299  2.2094  2.1514 -1.4978
   41MOL0     H 5391   4.972   5.026   7.228  1.2818  2.1648  0.2272
   41MOL0     H 5392   4.926   4.898   7.454 -1.8092 -0.0899  1.9807
   41MOL0     H 5393   4.797   4.868   7.343  0.5780 -2.8793  2.2607
   41MOL0     H 5394   5.723   5.373   7.094 -0.8483 -0.2030  0.5369
   41MOL0     H 5395   5.913   5.469   6.983  1.0650  2.4897 -1.0327
   41MOL0     H 5396   6.417   5.595   7.025  0.7228  0.4515 -0.8533
   41MOL0     H 5397   6.594   5.758   6.906  0.6850  0.5200 -1.1809
   41MOL0     H 5398   7.697   7.137   6.549  0.6070 -0.0849 -0.3207
   41MOL0     H 5399   7.923   7.180   6.526 -0.9880 -0.1342  0.1336
   41MOL0     H 5400   8.381   7.170   6.284  1.6620 -0.7659 -0.3770
   41MOL0     H 5401   8.610   7.252   6.287  1.2816  0.9889 -1.2018
   41MOL0     H 5402   8.848   7.593   6.411 -0.8995 -4.0909  1.8154
   41MOL0     H 5403   8.702   7.666   6.469  0.9145  0.1761  0.2915
   41MOL0     H 5404   8.646   7.722   6.231 -0.6177  3.7732  0.2926
   41MOL0     H 5405   8.783   7.813   6.285 -2.1729  0.5477 -0.2811
   41MOL0     H 5406   8.773   7.640   6.053  0.5511  2.7290 -1.4775
   41MOL0     H 5407   8.889   7.568   6.172 -3.0909 -1.0341  0.5449
   41MOL0     H 5408   8.892   7.859   6.035  0.3166 -0.0608 -0.5794
   41MOL0     H 5409   9.006   7.795   6.148  0.1613  2.1900 -1.1794
   41MOL0     H 5410   9.126   7.629   5.781 -0.5328 -1.1585 -0.0396
   41MOL0     H 5411   8.488   7.625   6.444  0.7844 -0.9042  2.2268
   41MOL0     H 5412   8.257   7.570   6.424  1.8124  2.3365 -0.1218
   42MOL0     O 5413   9.365   4.778   5.920  0.3995  0.1497  0.3833
   42MOL0     C 5414   9.304   4.674   5.919 -0.2444 -0.0611  0.4702
   42MOL0     O 5415   9.357   4.551   5.887 -0.6341 -0.4790 -0.0242
   42MOL0     C 5416   9.484   4.553   5.833 -0.1442  0.5650 -0.6349
   42MOL0     C 5417   9.505   4.567   5.699  0.3142 -0.2456 -0.0773
   42MOL0     C 5418   9.633   4.562   5.643  0.3183  0.2121 -0.5958
   42MOL0     C 5419   9.737   4.532   5.730  0.2401 -0.0168 -0.0266
   42MOL0     O 5420   9.869   4.533   5.686  0.2218 -0.4829 -0.2067
   42MOL0     C 5421   9.922   4.664   5.637 -0.3149 -0.3189  0.3139
   42MOL0     C 5422   9.994   4.719   5.760 -0.3303 -0.7959 -0.6652
   42MOL0     C 5423  10.107   4.621   5.802  0.3246  0.1293 -0.2746
   42MOL0     C 5424  10.189   4.676   5.916  0.5519 -0.1712  0.1222
   42MOL0     C 5425  10.303   4.576   5.942  0.7658 -0.2643  0.0729
   42MOL0     C 5426  10.379   4.612   6.063 -0.7358 -0.2684 -0.6247
   42MOL0     C 5427  10.462   4.742   6.042 -0.6281  0.2664 -0.2867
   42MOL0     C 5428  10.593   4.751   6.128  0.0828  0.2195 -0.4678
   42MOL0     N 5429  10.561   4.768   6.268 -0.0316 -0.8057 -0.6532
   42MOL0     C 5430  10.568   4.668   6.360 -0.2635  0.0435 -0.3466
   42MOL0     C 5431  10.533   4.726   6.473 -0.2420  0.0707 -0.0986
   42MOL0     C 5432  10.541   4.666   6.608 -0.3806 -0.1974 -0.6585
   42MOL0     C 5433  10.395   4.621   6.649 -0.1069 -0.1331  0.4426
   42MOL0     C 5434  10.388   4.576   6.798 -1.2646  0.3033  0.4640
   42MOL0     C 5435  10.252   4.532   6.846  0.3206 -0.7466 -0.7195
   42MOL0     O 5436  10.229   4.397   6.807 -0.2145 -0.4241  1.3503
   42MOL0     C 5437  10.110   4.339   6.815  0.3572 -0.0767  0.0005
   42MOL0     C 5438   9.997   4.404   6.771 -0.0820  0.4290 -0.1338
   42MOL0     C 5439   9.874   4.339   6.781  0.3528  0.0674  0.2469
   42MOL0     C 5440   9.871   4.205   6.828  0.3837 -0.1856 -0.3282
   42MOL0     C 5441   9.746   4.128   6.843  0.1564 -0.1076 -0.1724
   42MOL0     O 5442   9.751   3.995   6.886 -0.3092  0.3378 -0.1745
   42MOL0     C 5443   9.622   3.928   6.903 -0.3049 -0.2358  0.6668
   42MOL0     C 5444   9.534   3.980   6.997  1.0370 -0.0289  0.2766
   42MOL0     C 5445   9.408   3.911   7.008 -0.6894 -0.4343 -0.3091
   42MOL0     C 5446   9.369   3.802   6.926 -0.2013  0.0278  0.9480
   42MOL0     O 5447   9.250   3.729   6.943 -0.4089  0.8764 -0.0639
   42MOL0     C 5448   9.135   3.792   6.995 -0.7863 -0.2395  0.2387
   42MOL0     C 5449   9.006   3.708   6.984 -0.1108  0.2991  0.4298
   42MOL0     C 5450   8.960   3.622   7.098 -0.9539  0.0828  1.0480
   42MOL0     C 5451   8.822   3.570   7.086  0.3990  0.1822 -0.5417
   42MOL0     C 5452   8.709   3.676   7.110  0.2348 -0.2286  0.8215
   42MOL0     C 5453   8.586   3.600   7.152 -0.5510  0.5014 -0.1067
   42MOL0     C 5454   8.497   3.540   7.035 -0.3191  0.6965  0.5882
   42MOL0     C 5455   8.371   3.465   7.079  0.1299  0.0935  0.5861
   42MOL0    Cl 5456   8.243   3.565   7.147  0.4560  0.6179  0.0894
   42MOL0     C 5457   9.460   3.765   6.833  0.2698 -0.1076  0.5381
   42MOL0     C 5458   9.585   3.824   6.820 -0.1978  0.4865 -0.3250
   42MOL0     O 5459   9.642   4.183   6.809 -0.0228 -0.0227  0.3602
   42MOL0     C 5460   9.986   4.141   6.862  0.7345 -0.1312  0.2177
   42MOL0     C 5461  10.103   4.209   6.854 -0.6908 -0.5202 -0.2946
   42MOL0     N 5462  10.497   4.862   6.450 -0.9885 -0.4940 -0.4698
   42MOL0     N 5463  10.514   4.882   6.321 -0.0041  0.1465 -0.4251
   42MOL0     C 5464   9.721   4.517   5.872 -0.4627  0.1049  0.1256
   42MOL0     C 5465   9.592   4.525   5.924  0.7651 -1.0307 -0.5799
   42MOL0     C 5466   9.167   4.680   5.977 -0.1453  0.6391  0.0182
   42MOL0     C 5467   9.098   4.799   6.018 -1.5813  0.6842  0.8443
   42MOL0     C 5468   8.956   4.804   6.044 -0.2228 -0.6710 -0.7031
   42MOL0     C 5469   8.881   4.690   6.025 -0.8220  0.7523  0.4976
   42MOL0     O 5470   8.738   4.699   6.018  0.3185 -0.3864  0.4357
   42MOL0     C 5471   8.693   4.753   5.899  0.6897 -0.3973 -1.0633
   42MOL0     C 5472   8.658   4.904   5.918  0.0268 -0.0021  0.4635
   42MOL0     C 5473   8.563   4.941   6.033  0.2819  0.2721  0.0382
   42MOL0     C 5474   8.643   4.952   6.166  0.1478 -0.3952 -0.1555
   42MOL0     C 5475   8.563   5.008   6.274 -0.2031  0.0313 -0.4303
   42MOL0     C 5476   8.504   5.057   6.373 -0.7574 -0.3778 -0.2433
   42MOL0     C 5477   8.941   4.577   5.975 -0.1394  0.9170 -1.6476
   42MOL0     C 5478   9.081   4.566   5.963 -0.0988  0.7188 -0.6403
   42MOL0     H 5479   9.417   4.567   5.636 -0.7271  1.7101  1.2561
   42MOL0     H 5480   9.643   4.581   5.537 -0.5360  0.1679 -0.6925
   42MOL0     H 5481   9.847   4.736   5.602  1.2392  0.1237 -2.3599
   42MOL0     H 5482   9.985   4.643   5.550 -1.3040 -0.9315 -0.2750
   42MOL0     H 5483   9.926   4.740   5.843 -2.2836 -1.9395 -1.9095
   42MOL0     H 5484  10.042   4.814   5.736 -3.5604  0.3647 -3.1509
   42MOL0     H 5485  10.170   4.605   5.714  0.5501 -0.8843  0.0620
   42MOL0     H 5486  10.067   4.524   5.833  0.4238 -0.3481 -1.6092
   42MOL0     H 5487  10.225   4.774   5.884  0.7820 -0.2484  0.1412
   42MOL0     H 5488  10.121   4.687   6.001  0.7525 -3.5986  0.8591
   42MOL0     H 5489  10.363   4.569   5.851 -0.3397 -1.5841 -0.5881
   42MOL0     H 5490  10.261   4.476   5.957 -1.2043  0.4753 -0.1373
   42MOL0     H 5491  10.457   4.538   6.081 -0.3425  0.0949 -0.8075
   42MOL0     H 5492  10.320   4.618   6.155 -2.2308 -1.3111 -1.4665
   42MOL0     H 5493  10.498   4.741   5.939 -2.6872 -0.3387 -1.0425
   42MOL0     H 5494  10.396   4.826   6.064 -1.2028 -0.8886  2.9361
   42MOL0     H 5495  10.644   4.835   6.081  2.4315 -0.8529  0.0040
   42MOL0     H 5496  10.650   4.658   6.123 -2.6535 -1.6683  0.6703
   42MOL0     H 5497  10.601   4.565   6.353 -2.3126 -0.6722 -0.0448
   42MOL0     H 5498  10.570   4.752   6.669  2.2814 -0.8949 -0.8041
   42MOL0     H 5499  10.614   4.585   6.614  1.5764  1.5960  2.1158
   42MOL0     H 5500  10.368   4.531   6.592  1.2807 -1.1700  1.3524
   42MOL0     H 5501  10.321   4.699   6.629 -0.0981 -0.6978 -2.1586
   42MOL0     H 5502  10.454   4.490   6.811 -3.4870 -1.2522  2.4408
   42MOL0     H 5503  10.420   4.660   6.861  0.7034  0.3647 -0.5413
   42MOL0     H 5504  10.178   4.601   6.802  0.6396  0.1742  0.1565
   42MOL0     H 5505  10.254   4.540   6.955 -1.2541 -2.3683 -0.5131
   42MOL0     H 5506   9.998   4.504   6.728 -1.3647  0.2101 -0.7195
   42MOL0     H 5507   9.783   4.389   6.752 -1.1360 -2.7670 -0.3212
   42MOL0     H 5508   9.554   4.067   7.059 -1.5556 -0.1653  1.4392
   42MOL0     H 5509   9.336   3.945   7.081  1.4698 -0.4618  1.9578
   42MOL0     H 5510   9.125   3.888   6.943 -0.9445 -0.9127 -1.0207
   42MOL0     H 5511   9.157   3.808   7.101  0.1454  2.7635 -0.3199
   42MOL0     H 5512   9.032   3.655   6.891  3.7341  2.8234 -0.1877
   42MOL0     H 5513   8.929   3.784   6.972  0.1286  0.6544  1.1301
   42MOL0     H 5514   8.964   3.686   7.187 -0.8496 -0.7852  1.6783
   42MOL0     H 5515   9.038   3.545   7.101  0.3097  1.0768 -1.9649
   42MOL0     H 5516   8.808   3.519   6.990  0.8186  0.7732 -0.9222
   42MOL0     H 5517   8.813   3.497   7.167 -0.5837 -0.6889 -1.4083
   42MOL0     H 5518   8.681   3.722   7.014  1.4260 -3.7819 -1.4211
   42MOL0     H 5519   8.728   3.757   7.180 -1.9718 -1.2802  2.7494
   42MOL0     H 5520   8.511   3.666   7.197 -0.0375  1.5459 -0.7647
   42MOL0     H 5521   8.600   3.514   7.218 -0.1470 -0.8903 -1.9373
   42MOL0     H 5522   8.468   3.624   6.971 -1.3941  0.1463  0.3212
   42MOL0     H 5523   8.555   3.470   6.974 -2.3492 -0.6631  0.1010
   42MOL0     H 5524   8.391   3.379   7.144  0.9428  0.4859  0.8599
   42MOL0     H 5525   8.326   3.427   6.986  2.4404  1.1153 -1.0314
   42MOL0     H 5526   9.434   3.671   6.785 -1.5871  1.3694 -1.5777
   42MOL0     H 5527   9.655   3.771   6.757  1.7561 -1.0358  2.8248
   42MOL0     H 5528   9.985   4.035   6.887 -0.4663 -0.6879 -1.9756
   42MOL0     H 5529  10.192   4.149   6.868 -1.2187 -1.7702 -1.9750
   42MOL0     H 5530   9.810   4.500   5.931  1.3411  1.0645 -2.1513
   42MOL0     H 5531   9.567   4.514   6.029  0.6437 -0.6973 -0.5721
   42MOL0     H 5532   9.156   4.890   6.011  0.7194 -0.8339 -1.0741
   42MOL0     H 5533   8.906   4.899   6.060  2.3742  0.8913 -1.3321
   42MOL0     H 5534   8.597   4.707   5.876  0.4840 -0.6432  0.2085
   42MOL0     H 5535   8.767   4.739   5.819  1.8472 -2.9801  0.3233
   42MOL0     H 5536   8.750   4.963   5.918  0.6329 -0.8594 -1.6024
   42MOL0     H 5537   8.599   4.923   5.828 -0.2351 -0.4363  0.5398
   42MOL0     H 5538   8.489   4.861   6.041  0.5841  0.0893  1.0716
   42MOL0     H 5539   8.508   5.032   6.010  0.0198  0.2123  0.4226
   42MOL0     H 5540   8.690   4.860   6.203  1.5526 -0.4148 -1.8750
   42MOL0     H 5541   8.727   5.020   6.158  1.0123 -1.3858  0.2852
   42MOL0     H 5542   8.471   5.105   6.463  3.2390  0.7685  0.7702
   42MOL0     H 5543   8.880   4.490   5.951 -3.2783  2.4662  0.0150
   42MOL0     H 5544   9.110   4.475   5.911  0.1664  0.4548 -0.0449
   43MOL0     O 5545   0.990  10.506   1.716 -0.0111 -0.2515  0.8879
   43MOL0     C 5546   1.023  10.590   1.634 -0.1075  0.0146  0.3993
   43MOL0     O 5547   0.942  10.676   1.562 -0.2098  0.4110 -0.4393
   43MOL0     C 5548   0.805  10.675   1.562 -0.4734 -0.5338 -0.6880
   43MOL0     C 5549   0.718  10.599   1.643 -0.0538 -0.9643 -0.2538
   43MOL0     C 5550   0.579  10.608   1.637 -0.1027  0.5358  0.7433
   43MOL0     C 5551   0.514  10.706   1.554 -0.6521  0.0428  0.1342
   43MOL0     O 5552   0.379  10.719   1.561  0.4419 -0.0593 -0.1912
   43MOL0     C 5553   0.309  10.830   1.497 -0.1996  0.1518  0.0582
   43MOL0     C 5554   0.148  10.811   1.502 -0.9387 -0.0859  0.0209
   43MOL0     C 5555   0.113  10.675   1.445 -0.1288  0.4011  0.2267
   43MOL0     C 5556  -0.033  10.638   1.430 -0.8346  0.6048 -0.3601
   43MOL0     C 5557  -0.102  10.666   1.566 -0.0065  0.8798 -0.9730
   43MOL0     C 5558  -0.247  10.626   1.557 -0.3166  0.4151  0.2118
   43MOL0     C 5559  -0.321  10.688   1.443  1.1431  0.0713 -0.0778
   43MOL0     C 5560  -0.475  10.672   1.487 -0.1265  0.8003  0.2238
   43MOL0     N 5561  -0.524  10.758   1.589  0.1147  0.0777  0.1028
   43MOL0     C 5562  -0.541  10.894   1.581  0.7569  0.8713 -0.6007
   43MOL0     C 5563  -0.593  10.924   1.700 -0.6405  0.1857  0.1346
   43MOL0     C 5564  -0.639  11.063   1.738  0.0427  0.9301  0.4987
   43MOL0     C 5565  -0.622  11.093   1.887  0.5225 -0.6584 -0.1683
   43MOL0     C 5566  -0.651  11.241   1.924 -0.6413  0.1543  1.1083
   43MOL0     C 5567  -0.796  11.285   1.911 -1.0231  0.2322  0.1000
   43MOL0     O 5568  -0.850  11.313   2.038  0.4581  0.7523 -0.2288
   43MOL0     C 5569  -0.975  11.375   2.037  0.2720  0.2196  0.8600
   43MOL0     C 5570  -1.051  11.422   1.933 -0.4801  0.4427 -1.0242
   43MOL0     C 5571  -1.173  11.491   1.951  0.4142  0.5185  0.0134
   43MOL0     C 5572  -1.236  11.510   2.074  0.2637  0.4659 -0.1404
   43MOL0     C 5573  -1.373  11.560   2.085 -0.2520 -1.4997  0.2050
   43MOL0     O 5574  -1.453  11.573   1.965  0.1089  0.4415  0.2965
   43MOL0     C 5575  -1.580  11.622   1.972  0.8732  1.1826  0.3775
   43MOL0     C 5576  -1.610  11.749   1.930  0.1388 -0.5675 -0.2518
   43MOL0     C 5577  -1.743  11.792   1.934  0.2480 -0.0121  0.2247
   43MOL0     C 5578  -1.844  11.703   1.976 -0.6815  0.3063  0.1760
   43MOL0     O 5579  -1.969  11.754   1.975 -0.8583 -0.7344  0.0221
   43MOL0     C 5580  -2.044  11.714   2.088 -0.0793 -0.0120 -0.2243
   43MOL0     C 5581  -2.156  11.811   2.114  0.1643  0.3576  0.7457
   43MOL0     C 5582  -2.255  11.802   1.992 -0.0786  0.0755 -0.6766
   43MOL0     C 5583  -2.385  11.884   2.022  0.3661 -0.8569 -0.1455
   43MOL0     C 5584  -2.468  11.872   1.892 -0.0132 -0.4516 -0.7434
   43MOL0     C 5585  -2.608  11.920   1.935 -0.1642  0.0002 -0.2533
   43MOL0     C 5586  -2.721  11.886   1.847  0.4581 -0.0985  0.3161
   43MOL0     C 5587  -2.852  11.947   1.888  0.2841  0.4869 -0.6542
   43MOL0    Cl 5588  -2.980  11.918   1.762  0.2322  0.2162 -0.0063
   43MOL0     C 5589  -1.803  11.576   2.028  0.2249  0.0050 -0.0953
   43MOL0     C 5590  -1.671  11.531   2.016  0.0061 -0.2760 -0.4363
   43MOL0     O 5591  -1.412  11.591   2.196 -1.0324  0.4404  0.0394
   43MOL0     C 5592  -1.155  11.469   2.187  0.2858  0.2810  1.1785
   43MOL0     C 5593  -1.032  11.394   2.164 -0.3816  0.5780  0.5585
   43MOL0     N 5594  -0.608  10.813   1.777 -0.8190 -0.4721  0.5258
   43MOL0     N 5595  -0.560  10.715   1.711 -0.6959 -0.5470  0.0037
   43MOL0     C 5596   0.602  10.771   1.460  0.0356 -0.7939 -0.4851
   43MOL0     C 5597   0.741  10.760   1.473 -0.9281 -0.9652  1.0301
   43MOL0     C 5598   1.162  10.634   1.629  0.2313  0.2206  0.1424
   43MOL0     C 5599   1.190  10.775   1.620  0.4503 -0.3167  0.1606
   43MOL0     C 5600   1.322  10.816   1.628  0.9452 -0.3588  0.5860
   43MOL0     C 5601   1.423  10.726   1.661 -0.6937  1.5158  0.2780
   43MOL0     O 5602   1.549  10.763   1.679 -0.2547  0.4412  0.0356
   43MOL0     C 5603   1.587  10.898   1.651  0.2210 -0.0913 -0.1911
   43MOL0     C 5604   1.727  10.912   1.704 -0.0183 -0.1944 -0.0621
   43MOL0     C 5605   1.779  11.043   1.662  0.0289  0.0249  0.4264
   43MOL0     C 5606   1.901  11.061   1.753  1.1228  0.1209  1.0144
   43MOL0     C 5607   1.958  11.178   1.696 -0.1870 -0.6254  0.6798
   43MOL0     C 5608   2.036  11.260   1.651 -0.1101 -0.3851 -0.7701
   43MOL0     C 5609   1.392  10.589   1.671  0.0573 -0.2728 -0.4719
   43MOL0     C 5610   1.265  10.538   1.650  0.3336  0.2811  0.0477
   43MOL0     H 5611   0.752  10.526   1.715  1.9861  0.0485 -0.1395
   43MOL0     H 5612   0.513  10.544   1.695 -0.7124 -0.5505 -1.1017
   43MOL0     H 5613   0.337  10.828   1.391 -2.1775 -0.7564 -0.4988
   43MOL0     H 5614   0.338  10.928   1.535 -0.7758  0.6685 -0.7924
   43MOL0     H 5615   0.114  10.891   1.435 -2.2595 -0.2770  0.4404
   43MOL0     H 5616   0.110  10.827   1.603  1.0583  1.5563  0.5685
   43MOL0     H 5617   0.161  10.599   1.506 -1.8759 -1.3113 -0.4105
   43MOL0     H 5618   0.162  10.669   1.348 -3.5543 -2.2235 -1.5681
   43MOL0     H 5619  -0.070  10.695   1.344  1.8748  1.6693 -0.9218
   43MOL0     H 5620  -0.044  10.531   1.413  2.3105  0.0037  0.8809
   43MOL0     H 5621  -0.098  10.772   1.594  0.1173  0.3077  1.4115
   43MOL0     H 5622  -0.048  10.612   1.645 -0.1105  1.6992 -0.3118
   43MOL0     H 5623  -0.292  10.641   1.655 -0.3730 -3.1442  0.8784
   43MOL0     H 5624  -0.254  10.518   1.540  0.0146  0.5122 -0.6096
   43MOL0     H 5625  -0.298  10.793   1.427 -1.6764  0.4638 -2.2854
   43MOL0     H 5626  -0.297  10.643   1.346 -4.0345 -2.0587 -0.6883
   43MOL0     H 5627  -0.497  10.568   1.517  0.2405  0.3922 -0.8807
   43MOL0     H 5628  -0.532  10.688   1.395  0.3071  1.6471  0.1040
   43MOL0     H 5629  -0.536  10.952   1.489  0.2258  0.7033 -0.7348
   43MOL0     H 5630  -0.744  11.061   1.709 -1.4583 -2.4798  5.0096
   43MOL0     H 5631  -0.590  11.140   1.677  2.5055 -1.0718 -0.2365
   43MOL0     H 5632  -0.521  11.067   1.919  0.7281  1.3852  1.0198
   43MOL0     H 5633  -0.690  11.033   1.948 -0.3433  1.1041  0.6535
   43MOL0     H 5634  -0.617  11.262   2.026 -1.5617 -0.1457  1.4878
   43MOL0     H 5635  -0.586  11.292   1.854 -1.9468 -0.8881 -0.9539
   43MOL0     H 5636  -0.855  11.207   1.861 -2.4957 -0.0517  2.1403
   43MOL0     H 5637  -0.793  11.379   1.855  0.3126  1.2987  1.8735
   43MOL0     H 5638  -1.009  11.402   1.834  0.2406  1.4438 -0.9363
   43MOL0     H 5639  -1.228  11.526   1.863  0.0779 -2.5775 -1.1412
   43MOL0     H 5640  -1.533  11.823   1.910 -2.2285  1.5402 -2.1171
   43MOL0     H 5641  -1.777  11.888   1.896  0.4923  0.5720  1.4625
   43MOL0     H 5642  -1.985  11.699   2.179 -0.1553 -3.5228 -0.6108
   43MOL0     H 5643  -2.087  11.615   2.074  0.0626 -0.0455 -0.4244
   43MOL0     H 5644  -2.119  11.911   2.137 -0.5788  0.7702  0.2016
   43MOL0     H 5645  -2.222  11.778   2.195 -1.7376 -1.9889 -1.5844
   43MOL0     H 5646  -2.287  11.698   1.982  1.9674 -0.7971  1.1319
   43MOL0     H 5647  -2.201  11.833   1.902  0.9722 -1.4221 -0.6000
   43MOL0     H 5648  -2.440  11.835   2.103  0.7994 -3.2920 -1.2409
   43MOL0     H 5649  -2.355  11.986   2.049  1.0289 -0.5254 -1.9474
   43MOL0     H 5650  -2.471  11.773   1.847 -1.7780 -0.1950 -1.2628
   43MOL0     H 5651  -2.421  11.921   1.806  0.0215 -3.2223 -2.4099
   43MOL0     H 5652  -2.601  12.029   1.934 -3.4319  0.3073 -0.6321
   43MOL0     H 5653  -2.646  11.884   2.031 -0.8412 -1.9704 -1.2120
   43MOL0     H 5654  -2.696  11.922   1.747  3.3646  1.2592  1.3894
   43MOL0     H 5655  -2.731  11.778   1.838 -0.2032 -0.1149  1.0780
   43MOL0     H 5656  -2.848  12.051   1.919  2.4998  0.0291  0.8766
   43MOL0     H 5657  -2.885  11.899   1.980  0.0466 -1.3340 -1.6406
   43MOL0     H 5658  -1.877  11.509   2.071  1.0911 -1.8857 -1.3949
   43MOL0     H 5659  -1.648  11.429   2.044 -0.8214 -0.2440  0.4138
   43MOL0     H 5660  -1.187  11.480   2.290  1.9083 -1.5060  1.9484
   43MOL0     H 5661  -0.978  11.367   2.255  3.3602 -1.9543 -2.1002
   43MOL0     H 5662   0.556  10.842   1.392  0.0924 -0.2691  0.0112
   43MOL0     H 5663   0.798  10.810   1.394  0.2542 -0.8790  1.9111
   43MOL0     H 5664   1.116  10.854   1.609  0.7330  0.0130  0.5892
   43MOL0     H 5665   1.338  10.924   1.622 -1.3742 -0.0202 -0.6148
   43MOL0     H 5666   1.518  10.964   1.704 -1.1669 -1.8671  0.3328
   43MOL0     H 5667   1.584  10.912   1.542 -1.0186  0.9533 -0.0559
   43MOL0     H 5668   1.714  10.894   1.811  0.5190 -0.3901 -0.0260
   43MOL0     H 5669   1.778  10.828   1.655  0.9085  1.0838 -1.3962
   43MOL0     H 5670   1.696  11.114   1.657 -1.7626 -2.0286 -1.5002
   43MOL0     H 5671   1.816  11.045   1.559 -0.8501 -0.3666  0.0828
   43MOL0     H 5672   1.860  11.071   1.854  2.0591 -0.8243  1.5149
   43MOL0     H 5673   1.969  10.975   1.751 -0.8003 -1.4663 -0.6276
   43MOL0     H 5674   2.090  11.327   1.587  0.8057 -1.4591 -1.1546
   43MOL0     H 5675   1.476  10.522   1.689 -0.6453 -1.7644 -2.4153
   43MOL0     H 5676   1.241  10.432   1.653  2.0327 -0.2051 -1.4147
   44MOL0     O 5677  10.858   1.170   3.232  0.0615 -0.1987 -0.0110
   44MOL0     C 5678  10.957   1.204   3.173 -0.0725  0.2247  0.8894
   44MOL0     O 5679  10.959   1.282   3.056 -0.4618  0.7989  0.6511
   44MOL0     C 5680  10.855   1.326   2.988 -0.4951  0.1641 -0.3333
   44MOL0     C 5681  10.719   1.332   3.035 -0.0009  0.3659 -0.2931
   44MOL0     C 5682  10.621   1.384   2.956  0.3054  0.4724 -0.0789
   44MOL0     C 5683  10.648   1.433   2.832  0.5098  0.8205  0.2615
   44MOL0     O 5684  10.553   1.480   2.751 -0.6890  0.2397  0.4529
   44MOL0     C 5685  10.502   1.374   2.661 -0.2310 -0.4005  0.1926
   44MOL0     C 5686  10.369   1.413   2.610  0.0032 -0.1208  0.1673
   44MOL0     C 5687  10.259   1.425   2.717  0.6215 -0.4413  0.7660
   44MOL0     C 5688  10.266   1.558   2.791 -0.2767 -0.7501 -0.3516
   44MOL0     C 5689  10.134   1.596   2.866 -0.3139 -0.5080 -0.3895
   44MOL0     C 5690  10.155   1.715   2.955  0.0272 -0.1518  0.1239
   44MOL0     C 5691  10.047   1.734   3.051  0.9250  0.0142 -0.0050
   44MOL0     C 5692  10.075   1.844   3.149 -0.0368 -0.3392  0.4502
   44MOL0     N 5693   9.953   1.893   3.211  0.6385  0.1957  0.3843
   44MOL0     C 5694   9.940   2.008   3.284 -0.3231  0.0723  1.8385
   44MOL0     C 5695   9.816   2.005   3.341  0.3593  0.0755  0.4809
   44MOL0     C 5696   9.759   2.115   3.429  0.2981 -0.0503  0.2542
   44MOL0     C 5697   9.798   2.258   3.386 -0.3040 -0.1397  0.6909
   44MOL0     C 5698   9.727   2.375   3.454 -0.7202 -0.5064  0.0910
   44MOL0     C 5699   9.577   2.396   3.422  0.2764 -0.0358 -1.0931
   44MOL0     O 5700   9.487   2.296   3.483 -0.5279 -0.1207 -0.1720
   44MOL0     C 5701   9.353   2.312   3.472  0.8613 -0.6737  0.2406
   44MOL0     C 5702   9.262   2.211   3.498 -0.0303 -0.3749  0.2149
   44MOL0     C 5703   9.126   2.238   3.496  1.4506  0.7246  0.1716
   44MOL0     C 5704   9.065   2.362   3.473 -0.4456  0.4410  0.6535
   44MOL0     C 5705   8.917   2.389   3.469  0.2064 -0.6512 -0.3687
   44MOL0     O 5706   8.864   2.510   3.450 -0.4532  0.2100 -0.1043
   44MOL0     C 5707   8.728   2.517   3.426 -0.5762 -0.0111  1.3221
   44MOL0     C 5708   8.678   2.441   3.321  0.1661 -0.5525  0.0828
   44MOL0     C 5709   8.548   2.476   3.264 -1.4844 -0.1607 -0.7751
   44MOL0     C 5710   8.471   2.588   3.321  0.4763  0.6775  0.1076
   44MOL0     O 5711   8.347   2.629   3.286  0.0761 -0.4476 -0.3156
   44MOL0     C 5712   8.283   2.571   3.167 -0.2363  0.4076 -0.8143
   44MOL0     C 5713   8.142   2.627   3.152 -1.0460 -0.4220  0.2884
   44MOL0     C 5714   8.049   2.571   3.251 -0.2318 -0.0442 -1.1101
   44MOL0     C 5715   7.907   2.597   3.229  0.3388 -0.1407  0.5881
   44MOL0     C 5716   7.799   2.588   3.349 -0.4932 -0.1940  0.1667
   44MOL0     C 5717   7.661   2.616   3.314 -0.0148 -0.3209  0.0966
   44MOL0     C 5718   7.641   2.751   3.231  0.1892  0.6550  0.1754
   44MOL0     C 5719   7.491   2.782   3.211 -0.0547  0.3053  0.0380
   44MOL0    Cl 5720   7.408   2.677   3.098 -0.1689 -0.2309  0.1783
   44MOL0     C 5721   8.528   2.658   3.430 -0.2899  0.3587  0.4961
   44MOL0     C 5722   8.664   2.626   3.473 -0.4812  0.7899 -0.5175
   44MOL0     O 5723   8.847   2.291   3.491  0.3615  0.0535  0.4524
   44MOL0     C 5724   9.150   2.463   3.433 -1.3899 -0.6748  0.2488
   44MOL0     C 5725   9.291   2.439   3.436 -0.8064 -0.1626 -0.2191
   44MOL0     N 5726   9.762   1.886   3.300  0.4588  0.0623 -0.3375
   44MOL0     N 5727   9.840   1.821   3.221 -0.3664 -0.1566 -0.3919
   44MOL0     C 5728  10.779   1.431   2.789  0.6925 -0.4935  0.8489
   44MOL0     C 5729  10.883   1.372   2.859 -0.7458 -0.3163  0.0172
   44MOL0     C 5730  11.085   1.143   3.220  0.2995  0.7446 -0.4933
   44MOL0     C 5731  11.103   1.071   3.343 -0.1620  0.0600  0.9948
   44MOL0     C 5732  11.226   1.019   3.383  0.5231 -0.2361 -0.0918
   44MOL0     C 5733  11.333   1.036   3.299 -0.3651 -0.0146 -0.4723
   44MOL0     O 5734  11.461   0.996   3.313  0.3615  0.2416  0.1324
   44MOL0     C 5735  11.493   0.910   3.425  0.1273 -0.3266  0.4675
   44MOL0     C 5736  11.647   0.873   3.428  0.6316 -0.2309 -0.5255
   44MOL0     C 5737  11.730   1.002   3.453  0.5113 -0.8803 -0.0827
   44MOL0     C 5738  11.872   0.962   3.503  0.4446 -0.0233  0.0060
   44MOL0     C 5739  11.974   1.058   3.462  0.0045  0.5462 -0.0779
   44MOL0     C 5740  12.050   1.140   3.421 -0.0084 -0.1353  1.0000
   44MOL0     C 5741  11.316   1.111   3.182  0.3867 -0.5959  0.4652
   44MOL0     C 5742  11.192   1.169   3.144 -0.4338  0.0178 -0.4581
   44MOL0     H 5743  10.689   1.301   3.135 -1.4201  2.0182 -0.1579
   44MOL0     H 5744  10.523   1.370   3.001  1.0304 -1.5591  1.0063
   44MOL0     H 5745  10.479   1.283   2.717  1.1831 -0.1961  1.1681
   44MOL0     H 5746  10.571   1.357   2.577 -0.3104  1.9531 -0.4452
   44MOL0     H 5747  10.343   1.330   2.544  0.4035 -0.5248  0.5169
   44MOL0     H 5748  10.376   1.505   2.551 -1.3692  1.0437  1.6984
   44MOL0     H 5749  10.262   1.361   2.805 -3.5904 -0.7536  0.8972
   44MOL0     H 5750  10.159   1.405   2.677  0.0526  4.3385 -0.9117
   44MOL0     H 5751  10.340   1.543   2.871 -1.3491  1.1741  1.1100
   44MOL0     H 5752  10.295   1.637   2.720 -1.0140  2.1162  2.2949
   44MOL0     H 5753  10.101   1.512   2.928  1.7406 -2.0561 -1.2760
   44MOL0     H 5754  10.062   1.632   2.791 -2.5155 -0.2588  1.7271
   44MOL0     H 5755  10.177   1.808   2.902  0.1167 -0.6226 -0.6910
   44MOL0     H 5756  10.241   1.694   3.018 -0.0272 -2.1102 -0.3855
   44MOL0     H 5757   9.951   1.739   2.998  0.7686 -0.9633  0.1783
   44MOL0     H 5758  10.037   1.648   3.117 -1.0844 -1.9587 -2.6274
   44MOL0     H 5759  10.132   1.920   3.094 -2.3268 -0.6331 -2.5732
   44MOL0     H 5760  10.146   1.816   3.228  2.0544  2.5951 -0.2010
   44MOL0     H 5761  10.014   2.086   3.273 -0.8157  0.2699 -0.6299
   44MOL0     H 5762   9.787   2.105   3.534 -0.1889  1.9632  0.6020
   44MOL0     H 5763   9.650   2.106   3.425  0.0325  1.6565  2.1178
   44MOL0     H 5764   9.776   2.266   3.279  0.0032 -0.2051  0.6230
   44MOL0     H 5765   9.905   2.264   3.406 -0.3308  1.2408  0.5175
   44MOL0     H 5766   9.729   2.360   3.562 -1.1200  2.0163  0.5073
   44MOL0     H 5767   9.776   2.466   3.418  1.7657 -2.3386 -1.4867
   44MOL0     H 5768   9.569   2.404   3.313 -0.8392  2.3797 -0.8971
   44MOL0     H 5769   9.549   2.493   3.463 -0.2840  0.0097 -1.5691
   44MOL0     H 5770   9.309   2.122   3.540  0.4823 -0.6741 -0.9481
   44MOL0     H 5771   9.069   2.146   3.502 -0.1531  1.8096  3.2176
   44MOL0     H 5772   8.733   2.361   3.273 -0.8270 -2.3497  1.8031
   44MOL0     H 5773   8.511   2.409   3.188 -0.9633 -1.4169  0.0422
   44MOL0     H 5774   8.281   2.461   3.165 -1.9360  0.4173 -0.9229
   44MOL0     H 5775   8.342   2.614   3.085 -1.8569  0.4742 -1.9843
   44MOL0     H 5776   8.095   2.604   3.055  0.4504  0.5039 -0.6954
   44MOL0     H 5777   8.141   2.735   3.166 -1.5159 -0.1991 -1.2704
   44MOL0     H 5778   8.071   2.608   3.352 -1.6870  1.0945 -1.1621
   44MOL0     H 5779   8.058   2.463   3.264  1.8162  0.3644  1.9811
   44MOL0     H 5780   7.908   2.695   3.181 -0.6232 -1.1970 -1.7411
   44MOL0     H 5781   7.875   2.519   3.160 -2.0891  0.4260  0.9963
   44MOL0     H 5782   7.844   2.654   3.424  0.3389  1.5216 -1.7489
   44MOL0     H 5783   7.800   2.486   3.389 -0.2855 -0.2893 -0.0726
   44MOL0     H 5784   7.614   2.624   3.413  0.0052  0.5151  0.0522
   44MOL0     H 5785   7.614   2.528   3.269  2.6812 -2.2041  0.6983
   44MOL0     H 5786   7.696   2.832   3.281  3.4426 -2.0472  1.3096
   44MOL0     H 5787   7.687   2.734   3.134 -0.5337 -0.9742  0.0929
   44MOL0     H 5788   7.491   2.883   3.170  1.5797  0.3998  0.2024
   44MOL0     H 5789   7.441   2.777   3.309  0.9419  2.7125  0.7400
   44MOL0     H 5790   8.464   2.730   3.479 -1.0973  0.1635 -0.2458
   44MOL0     H 5791   8.719   2.673   3.554  1.5790 -1.2185 -0.6692
   44MOL0     H 5792   9.112   2.564   3.419  2.1868  0.7977 -0.0966
   44MOL0     H 5793   9.353   2.525   3.413 -0.4756 -0.0508  1.0326
   44MOL0     H 5794  10.794   1.470   2.689  1.4950 -0.0617  1.1289
   44MOL0     H 5795  10.980   1.376   2.812 -1.3183 -4.1309 -1.8895
   44MOL0     H 5796  11.010   1.041   3.390 -2.1310  3.1228 -0.6064
   44MOL0     H 5797  11.240   0.962   3.475  1.0062  0.0652  0.0242
   44MOL0     H 5798  11.444   0.813   3.418  1.4382 -0.9654 -0.1887
   44MOL0     H 5799  11.465   0.958   3.520 -0.3073 -1.6405  1.0238
   44MOL0     H 5800  11.670   0.800   3.506  4.8742 -1.2263 -2.4217
   44MOL0     H 5801  11.668   0.828   3.331 -3.2080 -2.2660 -0.6285
   44MOL0     H 5802  11.676   1.066   3.523  2.3161  0.2928  0.3037
   44MOL0     H 5803  11.738   1.060   3.361  0.5460  0.7662  0.9215
   44MOL0     H 5804  11.874   0.949   3.611 -1.4962 -2.0321 -0.1304
   44MOL0     H 5805  11.897   0.862   3.466  1.0470 -0.5202  1.6664
   44MOL0     H 5806  12.115   1.210   3.372  0.1635 -0.0717  1.3148
   44MOL0     H 5807  11.408   1.128   3.126 -0.9931 -1.3548 -2.2245
   44MOL0     H 5808  11.195   1.232   3.055 -1.1709 -0.0177 -0.5148
   45MOL0     O 5809   2.041   8.561   7.693  0.1524  0.2473  0.0890
   45MOL0     C 5810   2.018   8.670   7.638  0.2050  0.2276 -0.7582
   45MOL0     O 5811   2.112   8.772   7.621  0.0339  0.0752 -0.2916
   45MOL0     C 5812   2.252   8.761   7.652  0.5741 -0.4574 -0.2954
   45MOL0     C 5813   2.317   8.883   7.634 -0.3787  0.2457  0.5524
   45MOL0     C 5814   2.452   8.905   7.672 -0.9864  0.3489 -0.7135
   45MOL0     C 5815   2.529   8.784   7.716  0.6884 -0.2078  0.1795
   45MOL0     O 5816   2.663   8.780   7.757 -0.4780 -0.1772 -0.6722
   45MOL0     C 5817   2.732   8.905   7.758  1.0180  0.1977  0.4562
   45MOL0     C 5818   2.877   8.893   7.765 -0.5105  0.0311  0.7465
   45MOL0     C 5819   2.949   8.991   7.689  0.7264 -0.5568  0.6742
   45MOL0     C 5820   3.103   8.999   7.717  0.0616 -0.3422 -0.4062
   45MOL0     C 5821   3.160   9.136   7.676 -0.7337  0.0773  0.4572
   45MOL0     C 5822   3.314   9.140   7.667  0.1284 -0.4236 -1.1210
   45MOL0     C 5823   3.373   9.282   7.646  0.2895 -0.3809 -0.2681
   45MOL0     C 5824   3.364   9.324   7.499 -0.4269  0.1761  0.1486
   45MOL0     N 5825   3.227   9.348   7.446  0.4834 -0.3760 -0.0733
   45MOL0     C 5826   3.142   9.447   7.486  0.0362  0.4886  0.2100
   45MOL0     C 5827   3.028   9.439   7.408 -0.1763  0.5406  0.6782
   45MOL0     C 5828   2.910   9.526   7.408  1.4105 -0.0452 -0.5515
   45MOL0     C 5829   2.815   9.490   7.525  0.3574  0.2909 -0.0700
   45MOL0     C 5830   2.788   9.342   7.547 -1.1040  0.6886  0.4801
   45MOL0     C 5831   2.736   9.327   7.691 -0.0528 -0.1662 -0.4399
   45MOL0     O 5832   2.614   9.251   7.689  0.0664 -0.5151  0.1010
   45MOL0     C 5833   2.486   9.310   7.654  0.3003 -0.4576 -0.2592
   45MOL0     C 5834   2.415   9.248   7.557  0.0831 -0.5211  0.0920
   45MOL0     C 5835   2.292   9.308   7.511  0.5437 -0.1034 -0.5762
   45MOL0     C 5836   2.247   9.432   7.571  0.9107  0.2911  0.2981
   45MOL0     C 5837   2.116   9.490   7.527 -0.4771  0.4622 -0.1816
   45MOL0     O 5838   2.032   9.415   7.454  0.0004 -0.4446  0.0925
   45MOL0     C 5839   1.930   9.478   7.392  0.1601 -0.0001 -0.2179
   45MOL0     C 5840   1.925   9.465   7.255 -0.9028 -0.3700 -0.1194
   45MOL0     C 5841   1.842   9.534   7.173 -0.1206 -0.0142  1.2705
   45MOL0     C 5842   1.740   9.606   7.235  0.2378 -0.2757 -0.0565
   45MOL0     O 5843   1.641   9.664   7.152 -0.4194 -0.1664  0.1759
   45MOL0     C 5844   1.521   9.692   7.210 -0.4130 -0.1878  0.3619
   45MOL0     C 5845   1.433   9.723   7.090  0.0757  0.5232  0.1599
   45MOL0     C 5846   1.465   9.857   7.020  0.7156 -0.0257 -0.7585
   45MOL0     C 5847   1.444   9.980   7.105 -0.7850 -1.3519 -0.7471
   45MOL0     C 5848   1.428  10.104   7.015 -1.0345 -0.4726 -0.5309
   45MOL0     C 5849   1.548  10.139   6.922 -0.2185 -0.2934 -0.7378
   45MOL0     C 5850   1.517  10.252   6.821  0.5952  0.0555  0.7250
   45MOL0     C 5851   1.641  10.272   6.725  0.3886 -0.2940  0.2177
   45MOL0    Cl 5852   1.697  10.112   6.649 -0.0308  0.0687  0.0681
   45MOL0     C 5853   1.733   9.615   7.375  0.4318  0.5576 -0.2145
   45MOL0     C 5854   1.820   9.545   7.455  0.9353  0.2318  0.8250
   45MOL0     O 5855   2.111   9.608   7.545 -0.1741  0.3241  0.4513
   45MOL0     C 5856   2.326   9.491   7.668  0.0199  0.3132  0.1392
   45MOL0     C 5857   2.448   9.429   7.707  0.1759 -0.0293  1.0527
   45MOL0     N 5858   3.050   9.338   7.320 -0.3558  0.1667  1.2070
   45MOL0     N 5859   3.160   9.282   7.348  0.5130 -0.3217 -0.2954
   45MOL0     C 5860   2.459   8.662   7.727  0.0432 -0.2339  0.1229
   45MOL0     C 5861   2.325   8.656   7.705 -0.3274 -0.6816 -0.5007
   45MOL0     C 5862   1.892   8.669   7.562  0.0807  0.7963  0.1366
   45MOL0     C 5863   1.886   8.752   7.451  0.6948 -0.5930  0.1583
   45MOL0     C 5864   1.763   8.766   7.384 -0.5099 -0.0902  0.1113
   45MOL0     C 5865   1.648   8.686   7.417  0.5094 -0.0994 -0.0511
   45MOL0     O 5866   1.527   8.680   7.347  0.3376  0.3913  0.5977
   45MOL0     C 5867   1.474   8.801   7.287 -0.1441  0.0871 -0.0787
   45MOL0     C 5868   1.473   8.770   7.140 -0.4430 -0.1232  0.1122
   45MOL0     C 5869   1.435   8.891   7.051  1.2405  0.3405 -0.7176
   45MOL0     C 5870   1.420   8.844   6.913  0.1525  0.0071 -0.2261
   45MOL0     C 5871   1.364   8.948   6.826 -0.4972  0.4271  0.1965
   45MOL0     C 5872   1.307   9.008   6.734 -0.7232 -0.5686  0.9267
   45MOL0     C 5873   1.660   8.608   7.531  0.9808  0.1630 -0.3846
   45MOL0     C 5874   1.781   8.594   7.599  0.0640  0.7840 -0.4180
   45MOL0     H 5875   2.263   8.971   7.599 -0.6564 -1.4144 -3.7718
   45MOL0     H 5876   2.494   9.005   7.664 -2.1014  1.0610  1.5616
   45MOL0     H 5877   2.700   8.968   7.842 -0.0500  1.1636 -0.6348
   45MOL0     H 5878   2.717   8.947   7.658  4.2798  1.5715  0.4235
   45MOL0     H 5879   2.906   8.792   7.733 -2.3158 -0.7371  1.3994
   45MOL0     H 5880   2.909   8.894   7.870 -4.8597 -0.6249  2.3027
   45MOL0     H 5881   2.902   9.086   7.719 -0.7164 -0.7843 -0.7390
   45MOL0     H 5882   2.923   8.979   7.583 -1.4398  0.9034  0.9746
   45MOL0     H 5883   3.122   8.971   7.821 -0.7497  1.2666  0.2076
   45MOL0     H 5884   3.148   8.923   7.652 -1.0638 -1.6721  0.3070
   45MOL0     H 5885   3.124   9.210   7.748 -2.2547 -0.2314  0.0512
   45MOL0     H 5886   3.123   9.157   7.575  3.3223  1.1719 -0.9789
   45MOL0     H 5887   3.346   9.085   7.579 -0.4589  0.2575 -1.7776
   45MOL0     H 5888   3.361   9.091   7.752  0.6211 -0.6157 -1.5021
   45MOL0     H 5889   3.340   9.365   7.709 -2.4154  1.1904 -3.4199
   45MOL0     H 5890   3.480   9.276   7.667  0.1609 -1.8168  0.0595
   45MOL0     H 5891   3.407   9.253   7.427 -1.2997 -0.4351  0.2190
   45MOL0     H 5892   3.419   9.418   7.507 -1.1087  0.4599  1.8007
   45MOL0     H 5893   3.158   9.518   7.566  0.4247 -1.8393  2.3284
   45MOL0     H 5894   2.853   9.516   7.315  0.2521 -2.0373  0.3119
   45MOL0     H 5895   2.927   9.634   7.409  2.0926 -0.1509  0.1667
   45MOL0     H 5896   2.722   9.540   7.498 -1.2491 -0.6219  3.2831
   45MOL0     H 5897   2.859   9.529   7.617  2.8913 -3.2255  0.4196
   45MOL0     H 5898   2.715   9.308   7.473 -2.4280 -0.0348  2.0355
   45MOL0     H 5899   2.878   9.280   7.547 -0.3618  1.7225  1.6493
   45MOL0     H 5900   2.709   9.426   7.727 -1.1784  0.0601 -1.7841
   45MOL0     H 5901   2.807   9.275   7.756 -2.2122 -1.3568  1.0948
   45MOL0     H 5902   2.454   9.154   7.521  0.0368 -0.4507 -0.1450
   45MOL0     H 5903   2.248   9.255   7.427  1.4850 -0.6054 -0.7664
   45MOL0     H 5904   2.007   9.403   7.220  1.9465  2.4866  0.9614
   45MOL0     H 5905   1.840   9.540   7.065  0.3715  2.2503  1.3549
   45MOL0     H 5906   1.535   9.784   7.268  0.6987  0.5511 -0.9910
   45MOL0     H 5907   1.486   9.604   7.263  0.6858 -1.2722 -0.6472
   45MOL0     H 5908   1.329   9.727   7.122 -0.2506 -0.0047 -0.7794
   45MOL0     H 5909   1.441   9.643   7.015 -4.4165  1.8682 -2.0747
   45MOL0     H 5910   1.405   9.866   6.929  1.1035 -0.4500 -1.0615
   45MOL0     H 5911   1.569   9.852   6.986  0.4118  0.9339 -1.8891
   45MOL0     H 5912   1.367   9.979   7.182  0.8162  4.8004  1.5670
   45MOL0     H 5913   1.529   9.982   7.174 -0.3039  0.2029 -1.3336
   45MOL0     H 5914   1.411  10.191   7.078  0.0008 -0.0351 -0.8391
   45MOL0     H 5915   1.338  10.099   6.952 -1.0210  0.9433 -0.6908
   45MOL0     H 5916   1.580  10.048   6.871  2.1109 -0.7545  1.3579
   45MOL0     H 5917   1.626  10.168   6.994 -0.1253 -0.5811 -0.7234
   45MOL0     H 5918   1.426  10.238   6.763 -0.8644  1.0381  2.6906
   45MOL0     H 5919   1.500  10.340   6.883  2.1919  0.2332  0.9681
   45MOL0     H 5920   1.722  10.316   6.784  0.3018  1.7117 -1.0500
   45MOL0     H 5921   1.618  10.339   6.642  1.9925 -1.6883 -1.4402
   45MOL0     H 5922   1.649   9.664   7.423  0.1698  2.5134 -2.4508
   45MOL0     H 5923   1.814   9.553   7.563  1.5856  2.0163  0.7679
   45MOL0     H 5924   2.293   9.585   7.712 -1.4452 -1.8438  4.1875
   45MOL0     H 5925   2.508   9.483   7.780 -1.5330 -0.3114  2.7314
   45MOL0     H 5926   2.507   8.568   7.752 -0.5905 -1.4093 -2.7050
   45MOL0     H 5927   2.274   8.560   7.714 -2.4959  0.2415 -2.0766
   45MOL0     H 5928   1.963   8.823   7.421 -0.0943  0.5891  0.8229
   45MOL0     H 5929   1.757   8.817   7.288  0.8151 -3.4641 -1.9705
   45MOL0     H 5930   1.523   8.892   7.322  1.3769 -1.1491  1.1473
   45MOL0     H 5931   1.368   8.802   7.315 -0.2644 -0.1296 -0.5164
   45MOL0     H 5932   1.577   8.739   7.126  0.7342  2.4770  2.1677
   45MOL0     H 5933   1.409   8.685   7.115 -2.9591  1.0469  2.1431
   45MOL0     H 5934   1.506   8.973   7.060 -0.7964  1.9902  2.2417
   45MOL0     H 5935   1.343   8.932   7.094  1.0720 -0.7344  0.0058
   45MOL0     H 5936   1.514   8.821   6.862 -0.7826  0.2936 -2.1814
   45MOL0     H 5937   1.358   8.754   6.900 -0.5041  0.4743 -0.3675
   45MOL0     H 5938   1.241   9.064   6.670  0.1179 -1.0134 -0.3639
   45MOL0     H 5939   1.565   8.566   7.562  0.8145  0.3627 -0.6195
   45MOL0     H 5940   1.784   8.533   7.689  2.3288 -1.5312 -1.9436
   46MOL0     O 5941   0.566   7.525   8.510 -0.6822  1.2006  0.9236
   46MOL0     C 5942   0.626   7.633   8.521 -0.5525 -0.0718  0.4762
   46MOL0     O 5943   0.686   7.677   8.633 -0.2049  0.4817  0.0996
   46MOL0     C 5944   0.727   7.581   8.720 -0.0066  0.6854 -0.8623
   46MOL0     C 5945   0.647   7.538   8.823  0.0319 -0.6600 -0.4523
   46MOL0     C 5946   0.681   7.426   8.907 -0.6144  0.4899 -0.1144
   46MOL0     C 5947   0.810   7.365   8.890  0.6219 -0.0166  0.2609
   46MOL0     O 5948   0.855   7.277   8.986  0.2594 -0.1474  0.2888
   46MOL0     C 5949   0.940   7.173   8.947 -0.2316 -0.1277 -0.4747
   46MOL0     C 5950   0.944   7.059   9.059 -0.6757  0.1668 -0.4021
   46MOL0     C 5951   1.064   6.956   9.028 -0.1413 -0.6449  0.7786
   46MOL0     C 5952   1.043   6.868   8.900  0.0329  0.1174 -0.1119
   46MOL0     C 5953   1.182   6.806   8.877 -0.5874 -0.2680  0.6289
   46MOL0     C 5954   1.200   6.676   8.953  0.6964  0.4464 -0.0226
   46MOL0     C 5955   1.356   6.645   8.959  0.1818  0.1802 -0.5831
   46MOL0     C 5956   1.376   6.528   9.062  0.0360 -0.2214  0.3842
   46MOL0     N 5957   1.278   6.424   9.050  0.3005  0.1556  0.9196
   46MOL0     C 5958   1.158   6.418   9.114  1.0592 -0.0470 -0.1951
   46MOL0     C 5959   1.100   6.307   9.058 -0.8589 -0.4159 -0.4517
   46MOL0     C 5960   0.957   6.252   9.087  0.2394 -0.1311 -0.1323
   46MOL0     C 5961   0.848   6.314   9.006 -0.6641 -0.6300 -0.4746
   46MOL0     C 5962   0.809   6.451   9.066 -0.3848 -0.0710 -0.0275
   46MOL0     C 5963   0.720   6.524   8.967 -0.2076  0.2137 -0.7653
   46MOL0     O 5964   0.685   6.649   9.028 -0.3385 -0.0043  0.1439
   46MOL0     C 5965   0.614   6.736   8.954 -0.4180  0.0846 -0.7822
   46MOL0     C 5966   0.535   6.823   9.023  0.0546  0.1051 -0.4340
   46MOL0     C 5967   0.458   6.917   8.953  0.3281  0.3420 -0.3811
   46MOL0     C 5968   0.471   6.925   8.809 -1.2765  0.3204 -0.2306
   46MOL0     C 5969   0.391   7.022   8.729  0.1787 -0.5071  0.3267
   46MOL0     O 5970   0.389   7.015   8.600 -0.1733 -0.2956  0.6039
   46MOL0     C 5971   0.304   7.099   8.532 -0.0003 -0.7837  0.6471
   46MOL0     C 5972   0.313   7.242   8.521  0.5732  0.8008 -0.2081
   46MOL0     C 5973   0.207   7.310   8.457  0.5405 -0.2623  0.2455
   46MOL0     C 5974   0.093   7.247   8.403  0.4702 -0.1445  0.4391
   46MOL0     O 5975  -0.015   7.324   8.356  0.4642  0.0378  0.5957
   46MOL0     C 5976  -0.143   7.310   8.430 -0.3581 -0.4597  0.3022
   46MOL0     C 5977  -0.254   7.301   8.328 -0.4978  0.7756 -0.4728
   46MOL0     C 5978  -0.389   7.359   8.389 -0.0912 -0.4940 -0.3195
   46MOL0     C 5979  -0.506   7.348   8.282 -0.1458 -0.2602 -1.1939
   46MOL0     C 5980  -0.639   7.424   8.327 -0.0563 -0.4715  0.2216
   46MOL0     C 5981  -0.702   7.356   8.448  0.1535  0.2218 -0.2182
   46MOL0     C 5982  -0.839   7.421   8.484 -0.1133 -0.3018 -0.1431
   46MOL0     C 5983  -0.950   7.367   8.389 -0.5207 -0.8065  0.3694
   46MOL0    Cl 5984  -1.088   7.472   8.376  0.0110  0.1053  0.0354
   46MOL0     C 5985   0.083   7.107   8.421  0.6809 -0.9874  1.0206
   46MOL0     C 5986   0.190   7.036   8.477 -0.2138  0.3806 -0.4710
   46MOL0     O 5987   0.334   7.111   8.792  0.0021 -0.0182  0.2428
   46MOL0     C 5988   0.548   6.824   8.747 -0.2062  0.5382 -0.1496
   46MOL0     C 5989   0.610   6.728   8.820  0.1625 -0.0886  0.8947
   46MOL0     N 5990   1.181   6.248   8.969 -0.7170  0.7217  0.5315
   46MOL0     N 5991   1.291   6.320   8.964  0.4203 -0.4021 -0.4314
   46MOL0     C 5992   0.895   7.406   8.783  0.1534  0.2065 -0.6981
   46MOL0     C 5993   0.854   7.516   8.703 -0.3356  0.8300 -0.2996
   46MOL0     C 5994   0.601   7.729   8.408  0.3262  0.1455  0.3673
   46MOL0     C 5995   0.643   7.865   8.438 -0.2358 -0.4037 -0.8930
   46MOL0     C 5996   0.614   7.974   8.347 -0.4012  0.0618 -0.6024
   46MOL0     C 5997   0.567   7.936   8.223 -0.0887  0.3713 -0.6417
   46MOL0     O 5998   0.570   8.022   8.121 -0.2422 -0.5635  0.2352
   46MOL0     C 5999   0.467   8.011   8.020 -0.7209 -0.1352 -0.0065
   46MOL0     C 6000   0.340   8.077   8.086 -0.2356 -0.5674  0.4815
   46MOL0     C 6001   0.362   8.224   8.112 -0.3270  0.4463  0.1579
   46MOL0     C 6002   0.245   8.294   8.180 -0.1150 -0.3785  0.3741
   46MOL0     C 6003   0.276   8.436   8.170  0.4091  0.5576 -0.4118
   46MOL0     C 6004   0.314   8.548   8.162 -0.9250  0.4091  0.1483
   46MOL0     C 6005   0.523   7.799   8.197  0.0209 -0.3358  0.0765
   46MOL0     C 6006   0.541   7.694   8.288 -0.7296 -0.9460  0.0784
   46MOL0     H 6007   0.555   7.593   8.840  0.9449  0.4418  1.0367
   46MOL0     H 6008   0.618   7.408   8.993  0.7456 -0.5890  0.6991
   46MOL0     H 6009   1.047   7.197   8.941 -0.0711 -1.0492 -1.5277
   46MOL0     H 6010   0.920   7.128   8.850 -0.3001 -1.1199 -0.0172
   46MOL0     H 6011   0.846   7.013   9.072 -1.2987  2.2003  3.0104
   46MOL0     H 6012   0.963   7.112   9.152  1.7234  0.0977 -0.7873
   46MOL0     H 6013   1.068   6.889   9.115  0.7486  0.1913  1.4055
   46MOL0     H 6014   1.161   7.006   9.022  0.9316 -2.5518  1.3159
   46MOL0     H 6015   0.963   6.794   8.910  1.0096 -0.7710  1.6563
   46MOL0     H 6016   1.024   6.936   8.816  2.2222  0.8118 -0.1160
   46MOL0     H 6017   1.266   6.871   8.901 -0.5370 -0.1065  0.0378
   46MOL0     H 6018   1.196   6.779   8.772  2.2004 -0.1936  0.9009
   46MOL0     H 6019   1.140   6.597   8.906 -1.3645  1.6134  0.5356
   46MOL0     H 6020   1.160   6.688   9.054  3.3183  2.7080  0.8697
   46MOL0     H 6021   1.409   6.619   8.867 -0.2444  0.5401 -0.9345
   46MOL0     H 6022   1.408   6.733   8.997 -2.7227  1.5238  0.5612
   46MOL0     H 6023   1.360   6.566   9.163  0.7374  1.0441  0.0427
   46MOL0     H 6024   1.481   6.499   9.060  0.9732  2.8403 -1.5185
   46MOL0     H 6025   1.113   6.492   9.179 -2.2631 -1.0032 -1.2260
   46MOL0     H 6026   0.940   6.259   9.195  0.4417 -0.2103 -0.0944
   46MOL0     H 6027   0.954   6.144   9.069  2.2723 -0.1162 -0.8016
   46MOL0     H 6028   0.760   6.249   9.005 -1.5473  0.5160 -0.1001
   46MOL0     H 6029   0.896   6.324   8.908  0.2413 -2.2334 -0.2322
   46MOL0     H 6030   0.751   6.442   9.158  0.6314 -0.8867  0.5493
   46MOL0     H 6031   0.894   6.518   9.079 -0.0417 -0.5230  0.0846
   46MOL0     H 6032   0.629   6.464   8.963  0.6102 -1.4180  2.0741
   46MOL0     H 6033   0.766   6.519   8.868  0.2991 -1.1432 -0.4823
   46MOL0     H 6034   0.529   6.800   9.129 -2.0931 -0.1336 -0.5633
   46MOL0     H 6035   0.396   6.995   8.997  0.7382 -0.4666  1.7716
   46MOL0     H 6036   0.397   7.286   8.575  0.5223 -0.5844  1.0506
   46MOL0     H 6037   0.206   7.419   8.466  2.8031 -0.3766  4.1773
   46MOL0     H 6038  -0.156   7.399   8.492 -2.0243  0.0287 -0.6826
   46MOL0     H 6039  -0.133   7.218   8.489  1.3459 -0.8192 -0.4898
   46MOL0     H 6040  -0.273   7.197   8.299  0.5437  0.1929  0.8164
   46MOL0     H 6041  -0.218   7.347   8.235 -0.5734  1.0950 -0.3452
   46MOL0     H 6042  -0.370   7.464   8.415  2.0173 -0.9047 -0.0329
   46MOL0     H 6043  -0.404   7.301   8.480  4.6347 -1.0342  0.3653
   46MOL0     H 6044  -0.472   7.396   8.190  1.1987  1.1437 -0.0264
   46MOL0     H 6045  -0.529   7.243   8.264  2.1713 -1.0544  0.0144
   46MOL0     H 6046  -0.713   7.441   8.248  1.2363 -0.5578 -1.0685
   46MOL0     H 6047  -0.597   7.522   8.351  1.1263 -0.4734 -1.5576
   46MOL0     H 6048  -0.634   7.346   8.533 -0.5072  0.8135  0.3892
   46MOL0     H 6049  -0.714   7.252   8.415 -0.3149 -0.1577  1.0737
   46MOL0     H 6050  -0.874   7.401   8.586 -2.2166  1.4694 -0.4429
   46MOL0     H 6051  -0.827   7.529   8.475 -1.0053 -0.2883 -1.4605
   46MOL0     H 6052  -0.982   7.266   8.417 -0.7605 -1.1085 -0.9270
   46MOL0     H 6053  -0.911   7.348   8.288 -1.1169 -4.7118  0.6934
   46MOL0     H 6054  -0.011   7.064   8.386  1.6108 -0.2191 -2.9250
   46MOL0     H 6055   0.189   6.927   8.475 -3.1787  0.3165 -0.1119
   46MOL0     H 6056   0.540   6.813   8.639 -0.0091  1.4476 -0.2631
   46MOL0     H 6057   0.642   6.645   8.758 -2.3654 -0.6988  0.2696
   46MOL0     H 6058   0.995   7.364   8.775  0.5070  0.4790  1.5788
   46MOL0     H 6059   0.914   7.553   8.620 -0.2370 -0.4336 -0.8327
   46MOL0     H 6060   0.669   7.884   8.542 -0.1555 -4.3850 -0.0127
   46MOL0     H 6061   0.648   8.074   8.374 -0.8816  1.8635 -5.6350
   46MOL0     H 6062   0.467   7.907   7.988  2.9076 -0.0614 -0.7614
   46MOL0     H 6063   0.499   8.063   7.929 -1.1211  0.6570  0.2919
   46MOL0     H 6064   0.273   8.064   8.000  1.5609 -0.8320 -0.9506
   46MOL0     H 6065   0.302   8.029   8.176  0.6883  0.4381  1.4401
   46MOL0     H 6066   0.391   8.275   8.020  0.8163 -0.1932  0.1466
   46MOL0     H 6067   0.446   8.240   8.180 -1.2935 -1.6183  1.9862
   46MOL0     H 6068   0.146   8.282   8.136  0.5492 -1.8860 -0.7793
   46MOL0     H 6069   0.254   8.264   8.285 -0.4942  2.0772  1.1697
   46MOL0     H 6070   0.346   8.650   8.152 -0.9542  0.3528 -0.5898
   46MOL0     H 6071   0.514   7.756   8.097  0.9828 -1.7064  0.5535
   46MOL0     H 6072   0.521   7.591   8.261 -1.0352 -1.1201  0.9222
   47MOL0     O 6073   7.882  10.931   6.625 -0.6869  0.2234 -0.0384
   47MOL0     C 6074   7.936  10.941   6.734  0.2017 -0.4524 -1.1718
   47MOL0     O 6075   7.870  10.946   6.852 -0.4213 -0.0793  0.5592
   47MOL0     C 6076   7.733  10.906   6.849 -0.1637  0.2432  0.4721
   47MOL0     C 6077   7.640  10.991   6.797 -0.7627  0.3566 -0.5057
   47MOL0     C 6078   7.509  10.950   6.791  0.2653  0.3646 -0.4684
   47MOL0     C 6079   7.469  10.819   6.819 -1.1251 -0.2398 -0.4932
   47MOL0     O 6080   7.336  10.793   6.809 -0.4266 -0.1514 -0.6747
   47MOL0     C 6081   7.275  10.711   6.918 -1.7356  0.6800  0.8385
   47MOL0     C 6082   7.218  10.587   6.855  0.3660  0.0790 -0.9192
   47MOL0     C 6083   7.087  10.608   6.769  0.4679  1.1154 -0.1312
   47MOL0     C 6084   7.038  10.477   6.712  0.6820 -0.3076 -0.2981
   47MOL0     C 6085   6.906  10.489   6.635 -0.1608 -0.2145  0.1406
   47MOL0     C 6086   6.901  10.576   6.514 -0.5920  0.0409 -0.2024
   47MOL0     C 6087   6.768  10.629   6.473 -1.0565  0.2550 -0.0404
   47MOL0     C 6088   6.673  10.522   6.423 -0.7694  0.5464  0.4714
   47MOL0     N 6089   6.546  10.589   6.395 -1.1514 -0.3600 -0.1140
   47MOL0     C 6090   6.459  10.634   6.493  0.2019  0.7484 -0.4277
   47MOL0     C 6091   6.347  10.670   6.431 -0.3305  0.0210 -0.4360
   47MOL0     C 6092   6.228  10.722   6.503 -0.3642  0.1681 -0.9236
   47MOL0     C 6093   6.168  10.834   6.423 -0.3373 -0.7976 -0.4845
   47MOL0     C 6094   6.039  10.879   6.505 -0.3936  0.4305  0.7825
   47MOL0     C 6095   5.915  10.785   6.476 -0.1398 -0.1867  1.2697
   47MOL0     O 6096   5.834  10.802   6.594 -0.4155 -0.1290 -0.3982
   47MOL0     C 6097   5.697  10.763   6.592 -0.7307 -0.6017  0.5225
   47MOL0     C 6098   5.643  10.685   6.484 -0.3070  0.1876  0.5095
   47MOL0     C 6099   5.513  10.632   6.486 -0.0234  0.4165  0.5212
   47MOL0     C 6100   5.434  10.660   6.600 -0.2006 -0.2109  0.5705
   47MOL0     C 6101   5.296  10.621   6.615  0.4979  1.4125 -0.0110
   47MOL0     O 6102   5.252  10.510   6.539 -0.1030 -0.0839  0.2076
   47MOL0     C 6103   5.116  10.472   6.531 -0.6241  0.1233  0.4202
   47MOL0     C 6104   5.064  10.363   6.599  0.0272 -0.6374 -0.4123
   47MOL0     C 6105   4.931  10.316   6.569 -1.0253 -0.6264  0.1685
   47MOL0     C 6106   4.852  10.373   6.477  1.2799  0.6312  0.2711
   47MOL0     O 6107   4.734  10.319   6.439 -0.5566 -0.4131 -0.0984
   47MOL0     C 6108   4.614  10.408   6.431 -0.1979 -0.2802 -0.3143
   47MOL0     C 6109   4.535  10.406   6.560  0.7560 -0.5033  0.6575
   47MOL0     C 6110   4.482  10.270   6.597  0.1955  0.0784  0.1951
   47MOL0     C 6111   4.393  10.206   6.488  0.2753 -0.1191  0.0826
   47MOL0     C 6112   4.300  10.094   6.545 -0.9766 -0.8298 -0.7078
   47MOL0     C 6113   4.159  10.126   6.498  0.1857  0.3357  0.7110
   47MOL0     C 6114   4.061  10.018   6.528 -0.2980  0.1129 -0.3107
   47MOL0     C 6115   4.033  10.018   6.679  0.2365  0.2975  0.0010
   47MOL0    Cl 6116   3.930  10.156   6.713  0.0766 -0.1132  0.2195
   47MOL0     C 6117   4.904  10.489   6.409  0.3154  0.0334  0.2567
   47MOL0     C 6118   5.039  10.535   6.434  0.6662 -0.3869  0.5113
   47MOL0     O 6119   5.222  10.692   6.690 -0.1136  0.5233  0.5428
   47MOL0     C 6120   5.501  10.730   6.702  0.8748 -0.2409 -0.2026
   47MOL0     C 6121   5.625  10.783   6.705  0.0710  0.3717  0.8627
   47MOL0     N 6122   6.361  10.629   6.301  0.0717 -0.2781  0.3641
   47MOL0     N 6123   6.478  10.583   6.272 -0.2357  0.0313  0.3884
   47MOL0     C 6124   7.567  10.728   6.851  0.2849 -0.2680  0.2319
   47MOL0     C 6125   7.696  10.773   6.878 -0.3268  0.6826 -0.2312
   47MOL0     C 6126   8.082  10.968   6.747 -0.4619  0.5348 -0.3158
   47MOL0     C 6127   8.146  10.929   6.867 -0.6360 -0.2692  0.2359
   47MOL0     C 6128   8.283  10.943   6.880  0.2666 -0.0680  0.7999
   47MOL0     C 6129   8.357  11.016   6.788 -0.1903  0.2914  1.1889
   47MOL0     O 6130   8.487  11.039   6.818  0.8636  0.4443  0.2640
   47MOL0     C 6131   8.566  11.127   6.740 -1.0111  0.1037 -1.1169
   47MOL0     C 6132   8.715  11.121   6.792  0.3817  0.2135  0.4018
   47MOL0     C 6133   8.722  11.104   6.947  0.3425 -0.0664  0.0601
   47MOL0     C 6134   8.872  11.112   7.001  0.2027  0.0727  0.6616
   47MOL0     C 6135   8.934  11.242   6.968  0.6064 -1.0184 -0.4120
   47MOL0     C 6136   8.987  11.346   6.956 -0.0096 -0.4743 -0.5019
   47MOL0     C 6137   8.298  11.048   6.657  0.1392 -0.0794 -0.1798
   47MOL0     C 6138   8.163  11.015   6.649  0.0020 -0.0158 -0.4888
   47MOL0     H 6139   7.672  11.092   6.776  0.3872 -0.4941 -3.3694
   47MOL0     H 6140   7.441  11.032   6.770 -2.1056 -0.6317  2.5536
   47MOL0     H 6141   7.199  10.775   6.964 -2.5414 -0.5225  1.2281
   47MOL0     H 6142   7.355  10.688   6.989  3.4542  1.9460 -3.9220
   47MOL0     H 6143   7.190  10.518   6.935 -0.7003  1.8303  0.2980
   47MOL0     H 6144   7.289  10.538   6.787  0.6650  1.0387 -1.3144
   47MOL0     H 6145   7.118  10.668   6.683  1.6986 -1.1633 -1.3872
   47MOL0     H 6146   7.014  10.662   6.829 -0.3417 -0.6640  0.5683
   47MOL0     H 6147   7.116  10.440   6.645  1.6939 -0.4359  0.9170
   47MOL0     H 6148   7.021  10.404   6.792  1.1014  1.1503  1.1753
   47MOL0     H 6149   6.835  10.523   6.711 -1.2597 -0.7083 -0.6530
   47MOL0     H 6150   6.875  10.389   6.604  0.0469 -0.4783  0.7637
   47MOL0     H 6151   6.932  10.522   6.425 -0.1300  2.0587 -1.3239
   47MOL0     H 6152   6.965  10.664   6.530 -1.3223  1.6159 -4.4791
   47MOL0     H 6153   6.728  10.688   6.556  1.7623  1.0455  0.8648
   47MOL0     H 6154   6.781  10.687   6.381 -1.0137  1.2547  0.5802
   47MOL0     H 6155   6.654  10.442   6.495  1.2396 -0.1072  0.3273
   47MOL0     H 6156   6.699  10.468   6.332 -2.7567 -1.2521  0.8901
   47MOL0     H 6157   6.469  10.633   6.601 -1.1816  1.7782 -0.2589
   47MOL0     H 6158   6.250  10.772   6.598  0.8282  0.1488 -1.1743
   47MOL0     H 6159   6.154  10.645   6.525 -1.4105  2.1466  3.6661
   47MOL0     H 6160   6.142  10.808   6.320  1.6599  1.2136 -1.5645
   47MOL0     H 6161   6.234  10.921   6.412  0.3977 -0.7217  3.2249
   47MOL0     H 6162   6.061  10.887   6.612 -0.6061 -1.6029  1.0107
   47MOL0     H 6163   6.010  10.979   6.472  2.1969  0.1638 -2.8780
   47MOL0     H 6164   5.934  10.678   6.468  1.1240  0.0671  0.6465
   47MOL0     H 6165   5.879  10.818   6.377  0.8698  1.8404  1.5276
   47MOL0     H 6166   5.708  10.658   6.402 -1.3371  1.9627 -0.9692
   47MOL0     H 6167   5.469  10.571   6.407 -1.1515  1.5011  0.2842
   47MOL0     H 6168   5.125  10.300   6.664  1.2513  0.6405 -0.2870
   47MOL0     H 6169   4.877  10.241   6.625 -3.5177 -0.0696 -1.3548
   47MOL0     H 6170   4.556  10.371   6.346 -1.1682  2.2738 -0.8450
   47MOL0     H 6171   4.629  10.515   6.419 -0.1938 -0.4477 -2.1219
   47MOL0     H 6172   4.454  10.479   6.554 -0.0455 -1.0990  2.9123
   47MOL0     H 6173   4.593  10.444   6.644  0.9976  1.9866 -0.5759
   47MOL0     H 6174   4.430  10.278   6.693 -1.0649 -2.0833 -0.2362
   47MOL0     H 6175   4.574  10.211   6.602  0.2647  0.2399  1.1563
   47MOL0     H 6176   4.329  10.290   6.461 -0.1668 -0.4097  0.2092
   47MOL0     H 6177   4.450  10.180   6.398  3.2695 -2.7940  2.4808
   47MOL0     H 6178   4.299  10.098   6.654  1.2229  0.7484 -0.6933
   47MOL0     H 6179   4.334   9.992   6.524 -2.8546 -1.4712 -0.8952
   47MOL0     H 6180   4.164  10.128   6.389 -1.0340  2.2149  0.6247
   47MOL0     H 6181   4.130  10.224   6.537  0.8456 -0.6771  4.0886
   47MOL0     H 6182   3.966  10.033   6.477  0.7046 -0.4108 -2.4531
   47MOL0     H 6183   4.099   9.917   6.508 -1.3040 -0.4325  0.4216
   47MOL0     H 6184   4.128  10.016   6.734  0.0679 -3.2268  0.4182
   47MOL0     H 6185   3.976   9.928   6.704  0.7417 -0.1057 -0.2627
   47MOL0     H 6186   4.845  10.527   6.326 -1.1406  0.1056  1.2925
   47MOL0     H 6187   5.082  10.619   6.380 -0.7761  0.0234 -0.0438
   47MOL0     H 6188   5.444  10.742   6.794  0.1522  3.3481 -0.9746
   47MOL0     H 6189   5.670  10.824   6.795 -1.3073  1.9680  0.8607
   47MOL0     H 6190   7.545  10.622   6.850 -1.4697  0.0593  0.7683
   47MOL0     H 6191   7.766  10.695   6.903 -0.2722  0.3092 -1.5104
   47MOL0     H 6192   8.099  10.864   6.941 -0.0605  1.1530  1.8948
   47MOL0     H 6193   8.330  10.905   6.970  1.1727 -0.1563  0.3022
   47MOL0     H 6194   8.536  11.232   6.741  1.5858  0.9206 -0.6556
   47MOL0     H 6195   8.569  11.099   6.634  0.8732 -2.5087 -0.4843
   47MOL0     H 6196   8.770  11.036   6.751  2.4309  0.8203  1.6809
   47MOL0     H 6197   8.779  11.204   6.760 -1.8587  2.4419  1.4141
   47MOL0     H 6198   8.683  11.003   6.965 -0.9252  0.6351  1.4695
   47MOL0     H 6199   8.664  11.183   6.995  1.1071  1.4406 -1.4013
   47MOL0     H 6200   8.876  11.092   7.108  2.3380  1.2166  0.8412
   47MOL0     H 6201   8.937  11.033   6.961  0.9148  0.5229  0.9144
   47MOL0     H 6202   9.037  11.438   6.936 -4.0662  1.1413 -5.0964
   47MOL0     H 6203   8.353  11.102   6.581  3.9048 -2.4788  0.6006
   47MOL0     H 6204   8.109  11.036   6.557 -2.6216  1.4041  1.2233
   48MOL0     O 6205   8.044   6.391   4.568 -0.5892 -0.4975 -0.4456
   48MOL0     C 6206   7.976   6.482   4.521 -0.9272  0.0205  0.2652
   48MOL0     O 6207   7.847   6.480   4.479  0.7243  0.0755 -1.4157
   48MOL0     C 6208   7.766   6.382   4.535  0.0286 -0.5837  0.3808
   48MOL0     C 6209   7.772   6.346   4.672  0.0542  0.0949 -1.0471
   48MOL0     C 6210   7.686   6.249   4.731  0.5634  0.4691  0.2034
   48MOL0     C 6211   7.589   6.187   4.660 -0.4588  0.1080  0.1537
   48MOL0     O 6212   7.516   6.092   4.727  0.8549  0.4102 -0.6801
   48MOL0     C 6213   7.381   6.090   4.701 -0.1306 -0.5990 -0.0794
   48MOL0     C 6214   7.312   6.210   4.758  0.2739 -1.1635  0.5324
   48MOL0     C 6215   7.162   6.214   4.722 -0.1372 -0.3396  0.3145
   48MOL0     C 6216   7.069   6.330   4.780 -0.2539 -0.0975 -0.2913
   48MOL0     C 6217   6.933   6.306   4.730  0.5140 -0.3643  0.1496
   48MOL0     C 6218   6.835   6.379   4.832  0.6774 -0.0614 -0.2916
   48MOL0     C 6219   6.694   6.366   4.772  0.7765 -0.3896  0.5778
   48MOL0     C 6220   6.581   6.431   4.846  1.1605 -0.0462  0.6234
   48MOL0     N 6221   6.454   6.410   4.773  0.2862  0.4129 -0.3111
   48MOL0     C 6222   6.386   6.492   4.697 -0.0956  0.2749 -0.0176
   48MOL0     C 6223   6.282   6.411   4.647  0.3317 -0.9130 -0.2358
   48MOL0     C 6224   6.183   6.468   4.549  0.4118 -0.1256 -0.0637
   48MOL0     C 6225   6.052   6.377   4.539  0.0390 -0.1309 -0.1290
   48MOL0     C 6226   5.979   6.376   4.679  0.1525 -0.4024  0.5527
   48MOL0     C 6227   5.849   6.310   4.668  0.0615 -0.7891  0.1353
   48MOL0     O 6228   5.755   6.337   4.551 -0.2297 -0.7189  0.2488
   48MOL0     C 6229   5.628   6.286   4.557  1.1343  1.0334 -0.5340
   48MOL0     C 6230   5.529   6.319   4.458  0.1052 -0.6691 -0.3596
   48MOL0     C 6231   5.397   6.258   4.470 -0.8325 -0.2279 -0.1610
   48MOL0     C 6232   5.363   6.173   4.576  0.6994  0.6256 -0.6603
   48MOL0     C 6233   5.222   6.149   4.619 -0.5936 -0.1008  0.2822
   48MOL0     O 6234   5.144   6.166   4.520  0.5892  0.2269 -0.0584
   48MOL0     C 6235   5.010   6.168   4.539  0.2881  0.0248  0.7138
   48MOL0     C 6236   4.946   6.195   4.664 -0.6896  0.2571  0.4355
   48MOL0     C 6237   4.805   6.192   4.677  0.4738 -0.0534  0.4267
   48MOL0     C 6238   4.725   6.168   4.562  0.2814 -1.0480  0.2993
   48MOL0     O 6239   4.589   6.157   4.569  0.0559 -0.4069  0.3416
   48MOL0     C 6240   4.528   6.080   4.677  0.0217  0.3889 -0.1545
   48MOL0     C 6241   4.393   6.019   4.631 -0.0181 -0.2832 -0.2936
   48MOL0     C 6242   4.399   5.932   4.507  1.0289  0.3417 -0.5703
   48MOL0     C 6243   4.260   5.886   4.474  0.2289  0.1323 -0.4449
   48MOL0     C 6244   4.244   5.838   4.325  1.0150  0.0696 -1.1374
   48MOL0     C 6245   4.098   5.791   4.296  0.8556  0.2472 -0.0181
   48MOL0     C 6246   4.085   5.712   4.167  0.3086 -0.7578  1.1935
   48MOL0     C 6247   3.936   5.694   4.137 -0.0469  0.1213  0.4624
   48MOL0    Cl 6248   3.854   5.845   4.096 -0.0900 -0.0549  0.3788
   48MOL0     C 6249   4.785   6.151   4.437  0.1992 -0.4877 -0.0426
   48MOL0     C 6250   4.928   6.153   4.426 -0.3541  0.2239 -0.0847
   48MOL0     O 6251   5.206   6.076   4.719 -0.1448  0.3128  0.7627
   48MOL0     C 6252   5.465   6.133   4.661 -0.3420  0.8155  0.6597
   48MOL0     C 6253   5.597   6.187   4.657  0.3958 -0.7883  0.4486
   48MOL0     N 6254   6.284   6.288   4.703 -0.6951 -0.0044  0.5893
   48MOL0     N 6255   6.387   6.293   4.782  0.1684  0.3223  0.1184
   48MOL0     C 6256   7.581   6.227   4.529  0.0028 -0.0109  0.6035
   48MOL0     C 6257   7.670   6.313   4.464 -0.1750 -1.3067  0.0326
   48MOL0     C 6258   8.037   6.605   4.499 -0.2161 -0.7237 -0.8093
   48MOL0     C 6259   8.183   6.622   4.521  0.1031 -0.4646 -0.6891
   48MOL0     C 6260   8.251   6.744   4.527  0.2180 -0.2197 -0.7848
   48MOL0     C 6261   8.174   6.854   4.487 -0.5471  0.3608 -0.0051
   48MOL0     O 6262   8.238   6.976   4.469 -0.8807  0.3474  0.2135
   48MOL0     C 6263   8.346   7.021   4.556 -0.1235 -0.5235 -0.3599
   48MOL0     C 6264   8.372   7.173   4.559  0.1430 -0.7533 -0.5423
   48MOL0     C 6265   8.467   7.216   4.671  0.2204 -0.4922  0.3038
   48MOL0     C 6266   8.597   7.136   4.684  0.5853  0.4373 -0.2573
   48MOL0     C 6267   8.604   7.003   4.744  0.1672  0.1440  0.1289
   48MOL0     C 6268   8.618   6.905   4.810  0.2499  0.3749 -0.3335
   48MOL0     C 6269   8.037   6.841   4.440 -0.3793  0.4784 -0.6196
   48MOL0     C 6270   7.969   6.719   4.464 -0.3278  0.1216 -0.0687
   48MOL0     H 6271   7.860   6.363   4.733 -0.1799 -2.0886 -0.0101
   48MOL0     H 6272   7.723   6.215   4.827  0.9134 -1.9451 -0.7363
   48MOL0     H 6273   7.333   6.005   4.751  0.8735 -0.3537  1.3738
   48MOL0     H 6274   7.365   6.084   4.593 -0.7694 -1.3808  0.0507
   48MOL0     H 6275   7.357   6.298   4.709 -1.1586 -1.5318 -1.5912
   48MOL0     H 6276   7.320   6.216   4.867  0.9962  2.1947  0.4243
   48MOL0     H 6277   7.121   6.114   4.741  0.5229 -0.8918 -0.9663
   48MOL0     H 6278   7.158   6.219   4.612  0.7241 -1.5084  0.1987
   48MOL0     H 6279   7.067   6.315   4.889  0.4894  0.5066 -0.1830
   48MOL0     H 6280   7.105   6.430   4.755  3.5914 -1.6650 -1.9455
   48MOL0     H 6281   6.907   6.201   4.716 -3.7124  0.8007 -2.1803
   48MOL0     H 6282   6.924   6.353   4.632 -0.2091 -1.4154 -0.3005
   48MOL0     H 6283   6.861   6.485   4.833  0.9392 -0.1221 -0.6484
   48MOL0     H 6284   6.842   6.330   4.929  3.3370 -2.7561 -1.6965
   48MOL0     H 6285   6.694   6.401   4.668  0.9434 -0.1451  0.6576
   48MOL0     H 6286   6.670   6.259   4.770 -2.8168  0.2757  0.7076
   48MOL0     H 6287   6.607   6.536   4.859  1.9870  0.0759 -1.5267
   48MOL0     H 6288   6.553   6.384   4.941 -1.9868  1.5684  0.6076
   48MOL0     H 6289   6.412   6.592   4.665 -2.3571  0.6924 -0.7376
   48MOL0     H 6290   6.236   6.469   4.453 -0.3158  0.0728 -0.4721
   48MOL0     H 6291   6.154   6.566   4.587  1.7792 -0.0973  1.0075
   48MOL0     H 6292   6.079   6.275   4.508  1.3970 -1.0228  3.4336
   48MOL0     H 6293   5.988   6.413   4.458  1.3184  2.2405 -0.1599
   48MOL0     H 6294   6.040   6.328   4.756 -1.3812 -1.0803  1.3895
   48MOL0     H 6295   5.962   6.478   4.714 -0.1002 -0.2017 -0.1413
   48MOL0     H 6296   5.789   6.347   4.752  1.2396 -0.0947  0.7063
   48MOL0     H 6297   5.875   6.205   4.682 -0.2359 -0.7314  1.2447
   48MOL0     H 6298   5.553   6.391   4.381 -1.9109  0.8361  0.3281
   48MOL0     H 6299   5.323   6.302   4.404  1.2377  2.1672 -1.0971
   48MOL0     H 6300   5.012   6.217   4.747  0.6504 -2.3421  0.1968
   48MOL0     H 6301   4.763   6.213   4.775 -2.7244  0.3757 -0.9036
   48MOL0     H 6302   4.501   6.135   4.767 -0.2155 -0.3943  0.2548
   48MOL0     H 6303   4.595   5.996   4.695 -1.0490 -0.6409 -0.8722
   48MOL0     H 6304   4.321   6.101   4.623 -3.0099 -2.5926  0.9051
   48MOL0     H 6305   4.356   5.969   4.721 -0.3448  0.4999  0.0132
   48MOL0     H 6306   4.463   5.844   4.519  2.3980  1.2902 -0.5592
   48MOL0     H 6307   4.438   5.997   4.427 -0.5286  3.8225  1.2561
   48MOL0     H 6308   4.236   5.800   4.537 -0.5154  0.6904  0.0462
   48MOL0     H 6309   4.197   5.971   4.501  2.9184  1.7960  0.9355
   48MOL0     H 6310   4.315   5.760   4.296  0.7726 -0.2661 -0.8394
   48MOL0     H 6311   4.260   5.921   4.255 -1.6169  0.4245 -1.4240
   48MOL0     H 6312   4.037   5.881   4.290  0.3236  0.0368  1.6951
   48MOL0     H 6313   4.065   5.725   4.377 -0.1042  0.6918 -0.0313
   48MOL0     H 6314   4.131   5.765   4.083 -2.6493 -0.6289 -0.4798
   48MOL0     H 6315   4.146   5.622   4.179 -0.7033 -2.5112 -4.1265
   48MOL0     H 6316   3.875   5.635   4.207  0.7167 -2.5973 -1.0076
   48MOL0     H 6317   3.941   5.637   4.044 -0.0473  1.8425 -0.6336
   48MOL0     H 6318   4.717   6.136   4.354  0.4181  2.7138 -0.9480
   48MOL0     H 6319   4.973   6.153   4.328 -1.7085  2.8814 -0.8025
   48MOL0     H 6320   5.443   6.065   4.743  1.6254  0.3946  0.9050
   48MOL0     H 6321   5.662   6.152   4.736 -1.4941  1.0227  2.9750
   48MOL0     H 6322   7.502   6.188   4.465  0.5645 -1.7453  0.9159
   48MOL0     H 6323   7.652   6.314   4.357 -1.9945 -4.2117  0.1816
   48MOL0     H 6324   8.243   6.535   4.545 -3.1542 -2.8956 -0.6469
   48MOL0     H 6325   8.357   6.747   4.552 -0.0441 -0.4656  0.3955
   48MOL0     H 6326   8.436   6.983   4.507 -0.0117  0.6972 -1.1193
   48MOL0     H 6327   8.334   6.979   4.656 -1.0440  0.2963 -0.1163
   48MOL0     H 6328   8.413   7.200   4.461 -2.0137  0.9764 -1.0678
   48MOL0     H 6329   8.273   7.219   4.570  0.5732  0.7226 -2.2695
   48MOL0     H 6330   8.423   7.222   4.771 -1.3763  2.8100 -0.4653
   48MOL0     H 6331   8.498   7.318   4.645  2.0997 -1.4270 -1.4236
   48MOL0     H 6332   8.640   7.132   4.584 -0.8159  0.5325 -0.8834
   48MOL0     H 6333   8.674   7.190   4.740 -0.0461  1.9396 -0.7747
   48MOL0     H 6334   8.633   6.811   4.860 -1.1352 -1.5821 -3.2963
   48MOL0     H 6335   7.988   6.929   4.401  1.2527  2.3751  1.3114
   48MOL0     H 6336   7.861   6.717   4.457 -0.3360 -2.6626 -0.3408
   49MOL0     O 6337   6.674   8.438   2.140 -0.5568 -0.3483 -0.1757
   49MOL0     C 6338   6.707   8.480   2.254  0.4526  0.5716 -0.3563
   49MOL0     O 6339   6.643   8.570   2.332  0.6107 -0.1783  0.2480
   49MOL0     C 6340   6.508   8.579   2.336 -0.9850  0.6737 -1.0794
   49MOL0     C 6341   6.458   8.692   2.398 -0.4210 -0.9181  1.1819
   49MOL0     C 6342   6.322   8.718   2.398 -0.5644 -0.5178 -0.1498
   49MOL0     C 6343   6.230   8.618   2.350  0.0292 -0.3864 -0.0161
   49MOL0     O 6344   6.089   8.625   2.367 -0.2823  0.3817  0.3528
   49MOL0     C 6345   6.042   8.741   2.431 -0.0956  0.3012  1.2294
   49MOL0     C 6346   5.906   8.716   2.480 -0.0181  0.7984 -0.1462
   49MOL0     C 6347   5.913   8.647   2.619  0.3555 -0.2193 -0.5535
   49MOL0     C 6348   5.774   8.634   2.689 -0.5593 -0.1700 -0.0553
   49MOL0     C 6349   5.778   8.558   2.821  0.0927 -0.7295 -0.3487
   49MOL0     C 6350   5.846   8.419   2.814  0.8363  0.8210  1.1334
   49MOL0     C 6351   5.861   8.325   2.936  0.5641 -0.9028 -1.1001
   49MOL0     C 6352   5.957   8.217   2.896  0.1347  0.9149 -0.4811
   49MOL0     N 6353   5.977   8.114   3.003  0.0041  0.1789 -0.2930
   49MOL0     C 6354   5.877   8.045   3.074  0.2508 -0.1988 -0.2443
   49MOL0     C 6355   5.949   7.958   3.148 -1.3919 -1.1499  0.8438
   49MOL0     C 6356   5.888   7.836   3.209  0.4504 -0.0035 -0.3657
   49MOL0     C 6357   5.763   7.863   3.303 -0.6551 -0.2170  0.8531
   49MOL0     C 6358   5.697   7.732   3.354 -0.7667  0.5265 -0.3324
   49MOL0     C 6359   5.557   7.754   3.417 -0.4417  0.2477  0.9331
   49MOL0     O 6360   5.508   7.622   3.449  0.2140  0.2560  0.3013
   49MOL0     C 6361   5.402   7.605   3.531  0.4394 -0.2726 -1.0165
   49MOL0     C 6362   5.363   7.477   3.562  0.4278  0.1896 -0.6151
   49MOL0     C 6363   5.249   7.442   3.627 -1.0019 -0.3435  0.1830
   49MOL0     C 6364   5.166   7.541   3.681 -0.0814 -0.0905 -0.9480
   49MOL0     C 6365   5.032   7.505   3.742  1.4057 -0.4522  0.4128
   49MOL0     O 6366   4.954   7.605   3.795  0.5153  0.6842 -0.3675
   49MOL0     C 6367   4.848   7.577   3.870  0.5894  0.4501 -0.3262
   49MOL0     C 6368   4.848   7.550   4.007 -0.4113 -0.4446 -0.1785
   49MOL0     C 6369   4.730   7.533   4.079  0.2343 -0.3739  0.2167
   49MOL0     C 6370   4.607   7.521   4.008 -0.8270  0.6046 -0.2328
   49MOL0     O 6371   4.478   7.502   4.063  0.5623 -0.7972  1.4708
   49MOL0     C 6372   4.474   7.545   4.205 -0.4416  0.3783  0.1911
   49MOL0     C 6373   4.323   7.562   4.250 -0.2202 -0.2611 -0.3747
   49MOL0     C 6374   4.316   7.655   4.378  0.2882  0.3330  0.3428
   49MOL0     C 6375   4.178   7.644   4.454 -0.7658 -0.2793 -0.0965
   49MOL0     C 6376   4.150   7.752   4.551 -0.2270 -0.0146 -0.1747
   49MOL0     C 6377   4.021   7.726   4.635 -0.0369 -0.1023 -0.5406
   49MOL0     C 6378   4.057   7.644   4.769 -0.8512 -0.2146  0.3741
   49MOL0     C 6379   3.932   7.593   4.835  0.4002 -0.2575 -0.0352
   49MOL0    Cl 6380   3.869   7.438   4.758  0.2781  0.5470 -0.3783
   49MOL0     C 6381   4.613   7.538   3.865 -0.4732  0.0936  0.4316
   49MOL0     C 6382   4.727   7.564   3.793 -0.1329  0.0980 -0.6841
   49MOL0     O 6383   5.005   7.381   3.746 -0.3987  0.1693  0.6453
   49MOL0     C 6384   5.215   7.674   3.669 -0.0618  0.2771  0.4897
   49MOL0     C 6385   5.328   7.702   3.590  0.1538 -0.3887 -1.1041
   49MOL0     N 6386   6.090   7.984   3.124  1.0065 -0.6972  0.0719
   49MOL0     N 6387   6.099   8.077   3.040  0.0116  0.1237 -0.4322
   49MOL0     C 6388   6.277   8.502   2.301  0.6424  0.3259 -0.5339
   49MOL0     C 6389   6.418   8.489   2.282 -0.2196  0.1293 -0.2311
   49MOL0     C 6390   6.839   8.434   2.305  0.7342 -0.2729 -0.3641
   49MOL0     C 6391   6.907   8.342   2.231 -0.8349  0.2313  0.1654
   49MOL0     C 6392   7.028   8.291   2.261 -0.8334 -0.7088 -0.3430
   49MOL0     C 6393   7.089   8.332   2.380 -0.3575 -0.6593  0.8912
   49MOL0     O 6394   7.212   8.283   2.425 -0.0354  0.1393  0.4594
   49MOL0     C 6395   7.291   8.221   2.328 -0.4422  0.4087 -0.5965
   49MOL0     C 6396   7.425   8.213   2.385 -0.1834  0.5189 -0.3531
   49MOL0     C 6397   7.422   8.116   2.497  0.3791  0.0708  0.6566
   49MOL0     C 6398   7.562   8.110   2.575  0.7385 -0.4782  0.2196
   49MOL0     C 6399   7.594   8.240   2.628  0.0917 -0.3865  0.5588
   49MOL0     C 6400   7.625   8.347   2.659  0.3237 -0.0119 -0.5277
   49MOL0     C 6401   7.028   8.430   2.461  0.1852 -0.3363 -0.0710
   49MOL0     C 6402   6.900   8.483   2.425 -0.2825 -0.6647 -0.0482
   49MOL0     H 6403   6.528   8.757   2.450  0.1277 -2.6708  2.7211
   49MOL0     H 6404   6.299   8.814   2.444 -2.2937 -0.0117 -1.9207
   49MOL0     H 6405   6.041   8.827   2.363  0.4640 -0.7567 -0.1554
   49MOL0     H 6406   6.106   8.772   2.514  1.8910 -0.3015 -0.0254
   49MOL0     H 6407   5.841   8.663   2.410 -0.4825  3.0691 -1.5532
   49MOL0     H 6408   5.861   8.814   2.499 -1.8239 -0.0673  0.2661
   49MOL0     H 6409   5.970   8.694   2.699  0.1258 -5.7186  3.3930
   49MOL0     H 6410   5.956   8.547   2.611  0.2425 -0.6282  2.6279
   49MOL0     H 6411   5.736   8.730   2.725  1.0463  0.4390  0.0609
   49MOL0     H 6412   5.705   8.591   2.615  0.4713 -1.7327 -0.1519
   49MOL0     H 6413   5.676   8.555   2.861  1.0567  2.1261  2.8496
   49MOL0     H 6414   5.821   8.627   2.894 -0.8095 -0.6334  0.1170
   49MOL0     H 6415   5.945   8.425   2.767  0.1904  1.5304 -0.2065
   49MOL0     H 6416   5.780   8.366   2.744 -1.7744  1.1755  3.1430
   49MOL0     H 6417   5.896   8.378   3.025 -1.0393 -2.5230  0.5962
   49MOL0     H 6418   5.762   8.289   2.965 -0.8474  1.2030 -2.9058
   49MOL0     H 6419   6.059   8.253   2.877  0.0704  1.3164 -0.0716
   49MOL0     H 6420   5.918   8.172   2.804 -3.5805  2.4628  0.1803
   49MOL0     H 6421   5.769   8.054   3.072  0.4418  4.6189 -0.0128
   49MOL0     H 6422   5.973   7.786   3.255 -1.3901 -3.6433 -0.5344
   49MOL0     H 6423   5.850   7.769   3.131 -0.7519 -0.4356  0.5587
   49MOL0     H 6424   5.681   7.914   3.252 -2.3890 -0.8834  2.8162
   49MOL0     H 6425   5.797   7.927   3.385  3.3868 -3.8543  2.3876
   49MOL0     H 6426   5.680   7.661   3.271 -0.2287  0.5393 -0.4575
   49MOL0     H 6427   5.763   7.679   3.423 -0.9288  3.1155  1.9488
   49MOL0     H 6428   5.491   7.806   3.348 -0.6340 -0.9855  0.1502
   49MOL0     H 6429   5.572   7.825   3.499  1.2948 -0.1565  1.0084
   49MOL0     H 6430   5.414   7.398   3.507  2.9025  1.6102 -0.5054
   49MOL0     H 6431   5.228   7.339   3.656  0.3735  0.0304  2.8927
   49MOL0     H 6432   4.933   7.542   4.073  0.5786  0.0205 -1.3689
   49MOL0     H 6433   4.738   7.519   4.186  2.5499 -1.0960 -0.0074
   49MOL0     H 6434   4.527   7.640   4.209 -1.2412  1.0492 -2.6891
   49MOL0     H 6435   4.515   7.469   4.272  0.7677 -0.0821 -1.0245
   49MOL0     H 6436   4.288   7.462   4.277 -2.0508  0.3602 -0.2642
   49MOL0     H 6437   4.265   7.616   4.174 -1.2024 -0.0342  0.5088
   49MOL0     H 6438   4.339   7.759   4.352  0.3515  0.1170 -0.5167
   49MOL0     H 6439   4.389   7.623   4.452  0.8102 -0.5206 -0.5151
   49MOL0     H 6440   4.102   7.662   4.377  0.0605  1.5388 -0.5179
   49MOL0     H 6441   4.154   7.545   4.494 -0.8567 -0.1087  0.2803
   49MOL0     H 6442   4.150   7.846   4.494 -2.5077  0.0827 -0.1046
   49MOL0     H 6443   4.241   7.750   4.612  0.2568 -1.5611 -0.9045
   49MOL0     H 6444   3.951   7.670   4.572 -1.3351  0.6826  0.1582
   49MOL0     H 6445   3.980   7.819   4.674  2.2150  1.4253 -1.5701
   49MOL0     H 6446   4.117   7.559   4.735 -2.5982 -1.1257 -0.5521
   49MOL0     H 6447   4.103   7.712   4.841 -1.5967 -0.9584  1.5904
   49MOL0     H 6448   3.857   7.668   4.859  0.4555 -0.5179  1.0475
   49MOL0     H 6449   3.959   7.556   4.935 -2.2335 -0.0031  0.8553
   49MOL0     H 6450   4.520   7.545   3.810 -1.2716 -3.4483  1.1072
   49MOL0     H 6451   4.721   7.584   3.687 -0.2000  0.2854 -0.6455
   49MOL0     H 6452   5.150   7.758   3.690 -1.0421 -0.0672 -1.0038
   49MOL0     H 6453   5.347   7.809   3.589  0.4349 -0.4305 -0.6530
   49MOL0     H 6454   6.212   8.420   2.271 -0.9610  1.0356  0.8592
   49MOL0     H 6455   6.440   8.397   2.229  2.0867  1.3224 -1.5080
   49MOL0     H 6456   6.871   8.302   2.137  2.2403 -1.2857 -0.5012
   49MOL0     H 6457   7.063   8.205   2.205 -0.6765  0.0249 -1.4053
   49MOL0     H 6458   7.295   8.281   2.237 -2.8012 -0.7050 -1.5197
   49MOL0     H 6459   7.253   8.120   2.311 -1.1300  0.3627  0.9926
   49MOL0     H 6460   7.504   8.190   2.312 -1.3326 -3.3365 -0.6241
   49MOL0     H 6461   7.443   8.317   2.411  1.3852 -0.1701  1.5630
   49MOL0     H 6462   7.411   8.016   2.455  2.7661 -0.3860  0.9457
   49MOL0     H 6463   7.340   8.135   2.567 -1.2868  0.9079 -1.3994
   49MOL0     H 6464   7.548   8.039   2.657  0.9867 -2.1000 -1.0904
   49MOL0     H 6465   7.650   8.076   2.520  2.6635  0.6557  2.4547
   49MOL0     H 6466   7.650   8.449   2.684  0.7320  0.1571 -1.5765
   49MOL0     H 6467   7.056   8.453   2.563 -4.8526  3.1123  0.8848
   49MOL0     H 6468   6.847   8.546   2.495  1.2647  1.3111 -0.5558
   50MOL0     O 6469   0.375   5.175   3.251 -0.4255 -0.2034  0.5740
   50MOL0     C 6470   0.328   5.091   3.325  0.9646  0.0723  0.0003
   50MOL0     O 6471   0.400   4.990   3.391  0.8136 -0.3491 -0.1027
   50MOL0     C 6472   0.530   4.990   3.406 -1.3953  0.4029  0.8644
   50MOL0     C 6473   0.597   4.865   3.426  0.6190  0.0921 -0.2655
   50MOL0     C 6474   0.733   4.855   3.436 -0.0946  0.7544 -0.0308
   50MOL0     C 6475   0.809   4.977   3.424 -0.4079  0.1513 -1.3535
   50MOL0     O 6476   0.943   4.973   3.430 -0.1725  0.3830 -0.2748
   50MOL0     C 6477   1.020   4.856   3.450  0.7443  1.2026 -0.7623
   50MOL0     C 6478   1.169   4.889   3.471 -1.0685 -0.4142  0.4774
   50MOL0     C 6479   1.220   4.965   3.351  0.0762 -0.2571  0.2009
   50MOL0     C 6480   1.350   5.034   3.386  0.4826 -0.0252 -0.3394
   50MOL0     C 6481   1.384   5.141   3.285  0.2735  0.0324 -0.0663
   50MOL0     C 6482   1.444   5.262   3.345  0.1648  0.6086  0.6679
   50MOL0     C 6483   1.576   5.224   3.413  0.4778 -0.9965  0.1674
   50MOL0     C 6484   1.665   5.343   3.447  0.1199 -0.0615  0.9465
   50MOL0     N 6485   1.800   5.309   3.494 -0.1446 -0.4560 -0.2773
   50MOL0     C 6486   1.883   5.401   3.557 -0.5464  0.7341  0.0554
   50MOL0     C 6487   1.986   5.339   3.610  0.2610  1.2494 -0.6257
   50MOL0     C 6488   2.107   5.387   3.684  0.3801 -0.7361 -0.0771
   50MOL0     C 6489   2.230   5.403   3.594  0.2872 -0.2592 -0.5932
   50MOL0     C 6490   2.204   5.494   3.472 -0.4516  0.0200  0.0045
   50MOL0     C 6491   2.164   5.414   3.353  0.0109  0.0318  0.1780
   50MOL0     O 6492   2.071   5.499   3.278 -0.0957  0.1680 -0.0027
   50MOL0     C 6493   1.981   5.441   3.195 -0.0747  0.9716 -0.9666
   50MOL0     C 6494   1.969   5.308   3.171 -0.0387  0.2607  0.4921
   50MOL0     C 6495   1.865   5.264   3.085  0.1187 -0.5346  0.1988
   50MOL0     C 6496   1.776   5.361   3.032 -0.3909  0.4399 -0.3197
   50MOL0     C 6497   1.663   5.309   2.954 -0.6896 -0.0514  0.3309
   50MOL0     O 6498   1.644   5.176   2.948 -0.5522 -0.1255  0.6411
   50MOL0     C 6499   1.542   5.129   2.880 -0.5085  1.1866  0.3539
   50MOL0     C 6500   1.417   5.152   2.917  1.4463 -0.1497 -0.5142
   50MOL0     C 6501   1.303   5.079   2.857 -0.0108 -0.1298 -0.2357
   50MOL0     C 6502   1.318   4.972   2.774 -0.3729  0.0914 -0.4362
   50MOL0     O 6503   1.201   4.910   2.730 -0.5697  0.3994  0.1828
   50MOL0     C 6504   1.206   4.835   2.608 -0.4448 -0.0217  0.8178
   50MOL0     C 6505   1.070   4.830   2.554  0.5998  0.3006 -0.3517
   50MOL0     C 6506   0.982   4.728   2.622  0.3441 -0.5089  0.2221
   50MOL0     C 6507   0.848   4.725   2.557 -0.5809 -0.1517 -1.3033
   50MOL0     C 6508   0.747   4.633   2.635  0.3151  1.4450 -0.3834
   50MOL0     C 6509   0.619   4.608   2.540  0.2816 -0.4012 -0.1152
   50MOL0     C 6510   0.576   4.725   2.455 -0.7738  0.1911 -0.2600
   50MOL0     C 6511   0.530   4.848   2.530 -0.1099  0.8191  0.0692
   50MOL0    Cl 6512   0.410   4.919   2.419  0.1068  0.0088  0.1449
   50MOL0     C 6513   1.444   4.950   2.729  0.1013  0.4359 -0.2072
   50MOL0     C 6514   1.558   5.026   2.781  0.1541 -0.1673  0.4476
   50MOL0     O 6515   1.594   5.391   2.905  0.2719 -0.2616  0.6028
   50MOL0     C 6516   1.792   5.500   3.058  0.3669  1.0391  0.8899
   50MOL0     C 6517   1.887   5.536   3.145  0.2239  0.1039 -1.1152
   50MOL0     N 6518   1.967   5.201   3.585  0.8758 -0.9887 -0.5718
   50MOL0     N 6519   1.852   5.183   3.518  0.3634  0.1398  0.1874
   50MOL0     C 6520   0.744   5.099   3.416 -1.6767  0.1985  1.1767
   50MOL0     C 6521   0.611   5.108   3.416 -0.9505  0.1714 -0.2765
   50MOL0     C 6522   0.183   5.100   3.355 -0.1168  0.8775 -0.5582
   50MOL0     C 6523   0.096   5.169   3.275 -1.0161 -0.0084  0.5873
   50MOL0     C 6524  -0.036   5.175   3.307 -0.2947 -0.1142 -0.1929
   50MOL0     C 6525  -0.089   5.113   3.417 -0.3121  0.5302 -1.1177
   50MOL0     O 6526  -0.215   5.150   3.439 -0.0533  0.6492 -0.7644
   50MOL0     C 6527  -0.295   5.061   3.514  0.0975  0.0319  0.2285
   50MOL0     C 6528  -0.436   5.095   3.490 -0.3683 -0.3107  0.1375
   50MOL0     C 6529  -0.493   5.036   3.358  0.0555 -0.8063 -0.1040
   50MOL0     C 6530  -0.642   5.063   3.335 -0.5549 -0.6237  0.6081
   50MOL0     C 6531  -0.675   5.022   3.200 -0.1118  0.4757  1.4920
   50MOL0     C 6532  -0.693   4.985   3.084  1.1541  0.1378 -0.4533
   50MOL0     C 6533   0.001   5.039   3.497  1.0141 -0.6834 -0.0921
   50MOL0     C 6534   0.134   5.028   3.462  0.6539  0.6343 -0.4834
   50MOL0     H 6535   0.547   4.768   3.426  4.4513 -2.0652 -0.9442
   50MOL0     H 6536   0.793   4.765   3.450  2.1818  2.0215 -1.0604
   50MOL0     H 6537   1.020   4.780   3.371  1.3433 -1.1505  1.3357
   50MOL0     H 6538   0.987   4.815   3.546  0.8559  2.9545  0.0621
   50MOL0     H 6539   1.221   4.794   3.486  0.3167  0.3696  0.7761
   50MOL0     H 6540   1.167   4.949   3.562 -2.8989  0.2366  0.0637
   50MOL0     H 6541   1.153   5.040   3.309 -0.1346 -1.5321 -1.8813
   50MOL0     H 6542   1.239   4.898   3.267  3.0203  2.9712 -1.9975
   50MOL0     H 6543   1.335   5.074   3.486 -1.3467 -0.1505 -0.5410
   50MOL0     H 6544   1.431   4.960   3.388  0.1517 -0.3899  1.7956
   50MOL0     H 6545   1.292   5.173   3.234 -0.2454 -1.7508 -0.3224
   50MOL0     H 6546   1.441   5.096   3.203  0.5751 -1.3943  0.9136
   50MOL0     H 6547   1.380   5.326   3.407  1.7254  1.9282  0.9880
   50MOL0     H 6548   1.461   5.331   3.261 -0.4914  0.7735  0.6644
   50MOL0     H 6549   1.551   5.171   3.506  1.6968  1.2768  1.8872
   50MOL0     H 6550   1.633   5.158   3.347 -0.1578 -0.5753 -0.8111
   50MOL0     H 6551   1.614   5.402   3.523 -0.7928 -0.1253  0.4029
   50MOL0     H 6552   1.669   5.404   3.356 -0.9358 -2.6665 -1.0049
   50MOL0     H 6553   1.879   5.509   3.564 -0.2119  0.7940 -0.6114
   50MOL0     H 6554   2.143   5.331   3.770  0.2961  0.9764  1.1250
   50MOL0     H 6555   2.077   5.478   3.738 -0.8908  0.0688 -2.0051
   50MOL0     H 6556   2.260   5.303   3.562 -0.3838  0.0699 -2.3458
   50MOL0     H 6557   2.302   5.456   3.657 -0.1426 -0.2983 -0.0640
   50MOL0     H 6558   2.134   5.574   3.496  2.3630  2.1208  1.9238
   50MOL0     H 6559   2.301   5.544   3.458  0.4540 -2.1640 -2.1494
   50MOL0     H 6560   2.130   5.316   3.388 -0.6471  0.2524  0.1789
   50MOL0     H 6561   2.247   5.394   3.285  0.5459 -2.0673  1.3651
   50MOL0     H 6562   2.037   5.236   3.214 -0.8278  0.4045  2.0385
   50MOL0     H 6563   1.850   5.158   3.069  0.5413 -0.8874  1.8696
   50MOL0     H 6564   1.396   5.238   2.980 -0.9735 -0.5989 -0.6421
   50MOL0     H 6565   1.204   5.121   2.874  0.4296  1.0264 -0.3977
   50MOL0     H 6566   1.241   4.732   2.621  0.4319  0.3733  1.7085
   50MOL0     H 6567   1.269   4.893   2.540  1.5834 -0.9739  1.8066
   50MOL0     H 6568   1.076   4.814   2.446 -1.6760 -0.4379 -0.4148
   50MOL0     H 6569   1.010   4.921   2.564 -3.4097 -2.1077 -0.1760
   50MOL0     H 6570   0.973   4.762   2.726  1.8666  0.5660  0.0202
   50MOL0     H 6571   1.026   4.628   2.620 -0.5749 -0.9427  0.5767
   50MOL0     H 6572   0.816   4.829   2.550 -1.8608 -0.5759 -1.9447
   50MOL0     H 6573   0.873   4.696   2.455  1.4162  0.0523 -0.9211
   50MOL0     H 6574   0.707   4.674   2.728 -1.5722  2.3219 -1.5276
   50MOL0     H 6575   0.789   4.535   2.660  0.0919  1.0711 -1.4231
   50MOL0     H 6576   0.532   4.574   2.595  0.9592 -0.5121  0.9127
   50MOL0     H 6577   0.643   4.528   2.468  0.7955  1.4513 -2.1235
   50MOL0     H 6578   0.657   4.749   2.385  0.6766 -0.9015  0.9569
   50MOL0     H 6579   0.485   4.691   2.404 -2.3083  1.0411  1.8095
   50MOL0     H 6580   0.614   4.913   2.559  1.9007 -1.9288  0.8568
   50MOL0     H 6581   0.473   4.827   2.621  2.1993  2.4765  2.0429
   50MOL0     H 6582   1.476   4.869   2.664 -1.8386  1.2908 -2.3785
   50MOL0     H 6583   1.658   4.996   2.750 -0.3455  0.8314 -2.4303
   50MOL0     H 6584   1.724   5.570   3.012  0.7151 -0.2014 -1.7199
   50MOL0     H 6585   1.892   5.642   3.168 -1.1693  0.9684 -4.2433
   50MOL0     H 6586   0.803   5.191   3.418  0.3474 -0.9571 -0.4701
   50MOL0     H 6587   0.560   5.203   3.402 -1.4584 -0.1931 -1.0347
   50MOL0     H 6588   0.140   5.208   3.184  0.1038 -2.1766  0.1400
   50MOL0     H 6589  -0.112   5.232   3.254 -0.1565 -1.2627 -1.6947
   50MOL0     H 6590  -0.259   5.065   3.618 -0.6452  0.7778  0.4707
   50MOL0     H 6591  -0.271   4.956   3.495  3.2331  0.6428  0.3185
   50MOL0     H 6592  -0.495   5.051   3.571 -0.4119 -0.6211 -0.0612
   50MOL0     H 6593  -0.456   5.202   3.504 -1.5302 -0.6970  1.8133
   50MOL0     H 6594  -0.481   4.928   3.348  1.2300 -0.6631 -0.5431
   50MOL0     H 6595  -0.437   5.075   3.272 -2.6170 -1.0159 -2.0663
   50MOL0     H 6596  -0.711   5.009   3.400 -1.3553  0.1567  0.4264
   50MOL0     H 6597  -0.657   5.172   3.336 -1.5501 -0.6741 -1.9524
   50MOL0     H 6598  -0.712   4.952   2.984 -0.2267  1.0078 -0.5089
   50MOL0     H 6599  -0.025   4.994   3.593  1.9914 -1.4139 -0.1589
   50MOL0     H 6600   0.200   4.981   3.534  1.1531 -0.1166 -1.4195
   51MOL0     O 6601  10.305   9.190   1.334 -0.0860 -0.3472 -0.6480
   51MOL0     C 6602  10.326   9.301   1.388 -0.5581 -0.3707  1.0598
   51MOL0     O 6603  10.238   9.404   1.394  0.4536  0.0448 -0.2606
   51MOL0     C 6604  10.103   9.383   1.362  0.9365  0.6863  0.2501
   51MOL0     C 6605  10.037   9.255   1.369  0.5198 -0.6480 -0.5304
   51MOL0     C 6606   9.903   9.241   1.324 -0.3834  0.3868 -0.1618
   51MOL0     C 6607   9.833   9.354   1.275  0.8370  1.1854  0.9574
   51MOL0     O 6608   9.701   9.333   1.248 -0.0607  0.4850 -0.5986
   51MOL0     C 6609   9.610   9.438   1.219  0.5886  0.1792 -0.3773
   51MOL0     C 6610   9.477   9.354   1.214 -1.3743 -0.0584 -0.0918
   51MOL0     C 6611   9.416   9.325   1.343  0.1676 -0.0325 -0.1273
   51MOL0     C 6612   9.288   9.247   1.321  0.0992  0.2872 -0.5487
   51MOL0     C 6613   9.229   9.205   1.458 -0.8450  0.0726 -0.1513
   51MOL0     C 6614   9.130   9.088   1.452  0.7957 -0.6189  0.7096
   51MOL0     C 6615   9.012   9.108   1.351  0.7534  0.9257  0.2075
   51MOL0     C 6616   8.923   9.225   1.383  0.9085 -0.9465  1.2408
   51MOL0     N 6617   8.901   9.257   1.526  0.2289  0.4363  0.4258
   51MOL0     C 6618   8.944   9.373   1.588 -0.2128 -0.4485 -0.2781
   51MOL0     C 6619   8.885   9.370   1.711  0.2712 -0.5006  0.2145
   51MOL0     C 6620   8.885   9.478   1.833 -0.5835  0.2485  0.3872
   51MOL0     C 6621   8.741   9.536   1.841  0.1009  0.0565  0.5829
   51MOL0     C 6622   8.733   9.640   1.953  0.1047  0.3351  0.0194
   51MOL0     C 6623   8.598   9.709   1.933  0.3756  0.0742  0.1150
   51MOL0     O 6624   8.501   9.610   1.961 -0.4408  0.0287 -0.0127
   51MOL0     C 6625   8.369   9.641   1.956  0.8454 -0.5162 -0.0193
   51MOL0     C 6626   8.295   9.569   1.868  0.4070  0.2579  0.2548
   51MOL0     C 6627   8.151   9.597   1.852  0.2825  0.6393  0.6470
   51MOL0     C 6628   8.096   9.707   1.914 -0.3316 -0.0646 -0.4318
   51MOL0     C 6629   7.955   9.750   1.898  0.4433 -0.2861 -0.4434
   51MOL0     O 6630   7.878   9.675   1.815 -0.8200  0.3087  0.4300
   51MOL0     C 6631   7.741   9.684   1.814  0.3196 -0.3840 -0.3841
   51MOL0     C 6632   7.678   9.698   1.698 -0.2444  0.1676  0.0201
   51MOL0     C 6633   7.539   9.712   1.692 -0.3391  0.6482  0.3374
   51MOL0     C 6634   7.454   9.712   1.803  0.1218 -0.0186  0.2595
   51MOL0     O 6635   7.319   9.721   1.788 -0.2873  0.8725 -0.1080
   51MOL0     C 6636   7.228   9.736   1.895 -0.0741 -0.7204  0.3730
   51MOL0     C 6637   7.079   9.724   1.855 -0.2116 -0.0703 -0.3674
   51MOL0     C 6638   7.033   9.830   1.747  1.1177  0.1496  0.0016
   51MOL0     C 6639   7.034   9.972   1.811  0.2534 -0.0998  0.0972
   51MOL0     C 6640   6.962  10.084   1.733 -0.3323  0.4292  0.2968
   51MOL0     C 6641   7.044  10.125   1.604 -0.4258 -0.8050 -1.0556
   51MOL0     C 6642   6.968  10.216   1.509  0.8715 -0.0386  0.4200
   51MOL0     C 6643   7.035  10.280   1.384 -0.3662 -0.6080  0.3840
   51MOL0    Cl 6644   7.170  10.388   1.402  0.1477 -0.0204 -0.4294
   51MOL0     C 6645   7.520   9.705   1.928 -1.1057 -0.2631  0.6173
   51MOL0     C 6646   7.661   9.686   1.934  0.1376 -0.1054 -0.2118
   51MOL0     O 6647   7.922   9.856   1.956 -0.5034 -0.2536  0.3735
   51MOL0     C 6648   8.181   9.778   2.005  0.0516  0.4988 -0.7050
   51MOL0     C 6649   8.313   9.736   2.035  0.5629 -0.1262 -0.0942
   51MOL0     N 6650   8.798   9.256   1.711 -0.4550  0.2683  1.1989
   51MOL0     N 6651   8.807   9.194   1.596 -0.0062  0.0302 -0.2523
   51MOL0     C 6652   9.898   9.474   1.264 -0.4219 -0.2731  0.5644
   51MOL0     C 6653  10.033   9.499   1.313  0.1253  0.2944 -0.0489
   51MOL0     C 6654  10.468   9.337   1.426 -0.1116  0.5343  0.2179
   51MOL0     C 6655  10.568   9.243   1.451 -0.7188  0.8261  0.7278
   51MOL0     C 6656  10.699   9.282   1.498  0.0190  0.2688  0.2719
   51MOL0     C 6657  10.722   9.420   1.517  0.2883  0.7457 -0.1880
   51MOL0     O 6658  10.840   9.474   1.559 -0.1956  0.1390  0.3395
   51MOL0     C 6659  10.954   9.403   1.625 -0.0435 -0.9063 -0.5001
   51MOL0     C 6660  11.074   9.491   1.629 -0.9126 -0.0618 -0.1258
   51MOL0     C 6661  11.147   9.476   1.495 -0.2947  0.2780 -0.7820
   51MOL0     C 6662  11.264   9.573   1.502  0.5944  1.3176 -0.5369
   51MOL0     C 6663  11.345   9.570   1.384 -0.8680 -0.3222  0.1550
   51MOL0     C 6664  11.411   9.588   1.283 -0.2543  0.1121 -0.1995
   51MOL0     C 6665  10.630   9.520   1.468  0.6499  0.2457 -0.6468
   51MOL0     C 6666  10.494   9.480   1.429 -0.0863  0.2755 -0.6657
   51MOL0     H 6667  10.086   9.161   1.392  0.1868 -0.4525  1.0531
   51MOL0     H 6668   9.850   9.147   1.330  1.0531 -0.7143 -2.9011
   51MOL0     H 6669   9.634   9.486   1.124  1.6403  1.5053  0.5312
   51MOL0     H 6670   9.607   9.514   1.297  2.5698  1.8561 -1.8359
   51MOL0     H 6671   9.488   9.258   1.164  1.0340  1.1017 -2.0559
   51MOL0     H 6672   9.402   9.408   1.155 -2.2315 -1.6172 -0.4621
   51MOL0     H 6673   9.407   9.420   1.397 -3.3764  0.0380 -0.6128
   51MOL0     H 6674   9.479   9.250   1.392 -0.8164 -2.3256 -2.1825
   51MOL0     H 6675   9.221   9.322   1.280  1.4442  2.1940  0.5676
   51MOL0     H 6676   9.306   9.163   1.254  0.3861 -0.9815  1.0389
   51MOL0     H 6677   9.190   9.297   1.502  1.4522  1.2171 -0.3804
   51MOL0     H 6678   9.308   9.168   1.524  0.0781 -1.5918 -2.0801
   51MOL0     H 6679   9.092   9.061   1.550 -2.2983  3.0866  0.7578
   51MOL0     H 6680   9.190   9.003   1.417  0.0296 -1.8275  2.2366
   51MOL0     H 6681   9.062   9.122   1.255  1.8488  1.2620  0.8071
   51MOL0     H 6682   8.947   9.020   1.359  0.0058  1.3405 -1.0022
   51MOL0     H 6683   8.826   9.205   1.338 -0.5886  3.5355  1.9669
   51MOL0     H 6684   8.966   9.316   1.340 -1.5284  0.4611  1.5471
   51MOL0     H 6685   9.009   9.454   1.558  0.3899 -0.3021  1.3406
   51MOL0     H 6686   8.958   9.558   1.819  1.7452 -1.9207 -0.6938
   51MOL0     H 6687   8.917   9.423   1.922 -1.3378 -2.7262 -1.0443
   51MOL0     H 6688   8.672   9.456   1.870  0.8858 -0.8173  0.0970
   51MOL0     H 6689   8.707   9.583   1.748  1.0132  0.0160  0.2198
   51MOL0     H 6690   8.738   9.595   2.052  0.8959  1.8448  0.6923
   51MOL0     H 6691   8.806   9.721   1.944 -0.8549  1.3098  0.6744
   51MOL0     H 6692   8.582   9.752   1.834 -0.6784  1.6423  0.9273
   51MOL0     H 6693   8.602   9.783   2.013 -0.6738 -2.2585  2.4830
   51MOL0     H 6694   8.326   9.489   1.802 -1.8686 -0.9021  0.4786
   51MOL0     H 6695   8.092   9.545   1.777 -3.1873  2.6160  1.7922
   51MOL0     H 6696   7.737   9.689   1.607 -1.5305 -3.2405 -0.6152
   51MOL0     H 6697   7.493   9.724   1.595 -1.0422  2.5898  0.8675
   51MOL0     H 6698   7.237   9.835   1.941 -4.2466  1.2841 -2.4361
   51MOL0     H 6699   7.251   9.660   1.970 -3.6850 -2.0847  0.3034
   51MOL0     H 6700   7.017   9.734   1.944  1.4122 -1.2125  0.9472
   51MOL0     H 6701   7.074   9.625   1.809  2.0485 -0.9260  1.0639
   51MOL0     H 6702   6.931   9.809   1.713  1.6977 -0.3202 -1.5254
   51MOL0     H 6703   7.082   9.835   1.650 -2.4535  0.9333 -1.9642
   51MOL0     H 6704   6.992   9.965   1.911 -1.4120 -1.5154 -0.6456
   51MOL0     H 6705   7.135  10.008   1.835  0.1948 -0.2639  0.5906
   51MOL0     H 6706   6.955  10.174   1.794  0.9532  1.3112 -0.7883
   51MOL0     H 6707   6.859  10.059   1.705 -0.3015  0.9681 -0.3298
   51MOL0     H 6708   7.070  10.032   1.552  0.3677 -1.2631  0.1169
   51MOL0     H 6709   7.133  10.181   1.632 -2.6828  2.1371  0.9245
   51MOL0     H 6710   6.886  10.149   1.480  0.3379 -1.0482  3.8184
   51MOL0     H 6711   6.912  10.292   1.563 -0.3073 -1.3990  1.1700
   51MOL0     H 6712   6.960  10.340   1.332  2.1005 -0.0563 -2.8769
   51MOL0     H 6713   7.074  10.209   1.310  0.3942  1.6478 -1.4935
   51MOL0     H 6714   7.463   9.719   2.019  0.7912  2.0632  1.5340
   51MOL0     H 6715   7.710   9.670   2.029  1.5781 -1.1133 -1.0782
   51MOL0     H 6716   8.136   9.858   2.064  0.2368 -1.0372  1.6598
   51MOL0     H 6717   8.384   9.779   2.105  1.6723 -2.9300  0.6487
   51MOL0     H 6718   9.848   9.565   1.231  4.3808  3.6672  2.7380
   51MOL0     H 6719  10.099   9.584   1.321  1.3119 -0.7381  1.8063
   51MOL0     H 6720  10.538   9.140   1.436  1.0368  0.1468  1.6717
   51MOL0     H 6721  10.777   9.207   1.510  0.1121 -0.0192 -1.7502
   51MOL0     H 6722  10.970   9.304   1.582 -0.7204  0.5056 -4.3655
   51MOL0     H 6723  10.923   9.382   1.728  3.4055 -2.2037  0.4304
   51MOL0     H 6724  11.032   9.588   1.659  1.4108 -0.4953  5.8379
   51MOL0     H 6725  11.150   9.466   1.704 -1.5338 -2.0798 -0.1139
   51MOL0     H 6726  11.081   9.500   1.411 -1.7232 -0.7530 -0.0136
   51MOL0     H 6727  11.185   9.376   1.475  1.6350  0.0403  3.1128
   51MOL0     H 6728  11.236   9.678   1.513 -1.7135  0.7464 -0.4578
   51MOL0     H 6729  11.333   9.538   1.579 -1.3648 -1.2522  0.1874
   51MOL0     H 6730  11.461   9.608   1.191  0.8330  1.2161  0.6078
   51MOL0     H 6731  10.653   9.623   1.492  0.8259  0.2973 -1.0284
   51MOL0     H 6732  10.424   9.557   1.399  0.4279  0.3782 -1.6221
   52MOL0     O 6733   3.025   3.700  10.461  0.5259 -0.0624  0.6395
   52MOL0     C 6734   2.988   3.663  10.349  0.1449  0.2227  0.5134
   52MOL0     O 6735   2.868   3.660  10.290  0.3151  0.2571 -0.1748
   52MOL0     C 6736   2.747   3.682  10.353  0.6657 -0.2003  0.3042
   52MOL0     C 6737   2.723   3.656  10.486  0.3932 -0.4790  0.7313
   52MOL0     C 6738   2.602   3.681  10.545 -0.1040 -0.1503 -0.3017
   52MOL0     C 6739   2.511   3.738  10.469  0.6516 -0.2755 -0.6813
   52MOL0     O 6740   2.391   3.757  10.530  0.9736 -0.5247  0.7276
   52MOL0     C 6741   2.281   3.674  10.485 -0.2780  0.6803 -0.1774
   52MOL0     C 6742   2.167   3.650  10.591  0.0824  0.1037  0.3174
   52MOL0     C 6743   2.070   3.555  10.536 -0.1584 -0.5129 -0.7955
   52MOL0     C 6744   1.920   3.586  10.590 -0.7319  0.5263 -0.4391
   52MOL0     C 6745   1.819   3.523  10.495 -0.2132  0.2687  0.4475
   52MOL0     C 6746   1.675   3.529  10.560  0.2995  0.0360 -0.1385
   52MOL0     C 6747   1.566   3.469  10.474 -0.3484 -0.0226  0.5745
   52MOL0     C 6748   1.438   3.550  10.447 -0.5154 -0.3229 -0.5090
   52MOL0     N 6749   1.327   3.468  10.400 -0.0656  0.8903  0.1158
   52MOL0     C 6750   1.242   3.388  10.468  0.1812 -1.1534 -0.8547
   52MOL0     C 6751   1.140   3.365  10.381 -0.6993 -0.0792 -0.1740
   52MOL0     C 6752   1.009   3.285  10.388  0.0067 -0.3635 -1.0267
   52MOL0     C 6753   0.879   3.368  10.390 -1.0756 -0.0085  0.3279
   52MOL0     C 6754   0.859   3.455  10.264  0.0002 -0.3367  0.2960
   52MOL0     C 6755   0.705   3.491  10.251 -0.5343  1.1834  0.6490
   52MOL0     O 6756   0.661   3.360  10.219 -0.0842  0.5544 -0.4185
   52MOL0     C 6757   0.525   3.348  10.245 -0.5805 -0.4689 -0.6933
   52MOL0     C 6758   0.429   3.456  10.242  0.2919 -0.8785  0.5480
   52MOL0     C 6759   0.293   3.424  10.264 -0.0917 -0.2683  0.6352
   52MOL0     C 6760   0.254   3.293  10.272 -0.5097  0.4559 -0.6462
   52MOL0     C 6761   0.110   3.253  10.260  0.8701 -0.9148 -1.2522
   52MOL0     O 6762   0.029   3.345  10.196  0.2845  0.5782 -0.1021
   52MOL0     C 6763  -0.113   3.330  10.185  0.0874 -0.1113 -0.0886
   52MOL0     C 6764  -0.185   3.445  10.189  0.4082 -0.1473  0.7682
   52MOL0     C 6765  -0.327   3.433  10.174  0.2798 -0.4532 -0.9140
   52MOL0     C 6766  -0.391   3.314  10.149  1.5164 -0.5606  0.2409
   52MOL0     O 6767  -0.523   3.310  10.118  0.5051 -0.5367  0.5404
   52MOL0     C 6768  -0.572   3.192  10.044 -0.1429 -0.4595  0.4893
   52MOL0     C 6769  -0.722   3.204  10.009  0.2597 -0.3757 -0.4589
   52MOL0     C 6770  -0.805   3.209  10.148 -0.7711 -0.4076 -0.4435
   52MOL0     C 6771  -0.941   3.280  10.126  0.2564 -0.3814  0.0343
   52MOL0     C 6772  -1.016   3.246   9.996 -0.0965 -0.3490  0.1072
   52MOL0     C 6773  -1.170   3.278  10.010  0.8569 -0.1607 -0.3268
   52MOL0     C 6774  -1.243   3.213   9.882 -0.5756 -0.3243  0.3010
   52MOL0     C 6775  -1.398   3.204   9.899 -0.5491 -0.3469  0.5690
   52MOL0    Cl 6776  -1.482   3.143   9.755  0.0956  0.1001  0.5477
   52MOL0     C 6777  -0.310   3.194  10.150  0.5090 -0.5763 -0.2104
   52MOL0     C 6778  -0.171   3.204  10.167  0.0264 -0.3925  1.0419
   52MOL0     O 6779   0.080   3.141  10.307  0.9794 -0.4326  0.1377
   52MOL0     C 6780   0.352   3.190  10.287 -0.0237 -0.3643  0.0341
   52MOL0     C 6781   0.487   3.216  10.283 -0.5224 -0.0945 -0.2206
   52MOL0     N 6782   1.183   3.408  10.253 -0.6412  0.3813  0.1177
   52MOL0     N 6783   1.298   3.478  10.271 -0.3453 -0.7455  0.5053
   52MOL0     C 6784   2.526   3.769  10.336 -0.4840 -0.1305 -0.7681
   52MOL0     C 6785   2.645   3.742  10.275 -0.1519  0.5371 -0.1324
   52MOL0     C 6786   3.096   3.644  10.251  0.0342  1.1939 -0.1402
   52MOL0     C 6787   3.227   3.596  10.302 -0.0383 -0.3462 -0.1154
   52MOL0     C 6788   3.330   3.578  10.212  0.4787  0.3668 -0.4263
   52MOL0     C 6789   3.319   3.599  10.081  0.1430  0.6865 -0.0571
   52MOL0     O 6790   3.436   3.592  10.011 -0.5080  0.7734  0.0633
   52MOL0     C 6791   3.431   3.620   9.866  0.9144  0.8180  0.6924
   52MOL0     C 6792   3.567   3.627   9.796  0.3844 -0.0926 -0.5207
   52MOL0     C 6793   3.558   3.657   9.651  0.2342  0.4130 -0.3394
   52MOL0     C 6794   3.598   3.798   9.613  0.5325 -0.8009  0.3893
   52MOL0     C 6795   3.513   3.895   9.674  0.0708 -0.3622 -1.1236
   52MOL0     C 6796   3.449   3.979   9.737 -0.3636 -0.0403 -0.9624
   52MOL0     C 6797   3.189   3.625  10.026  0.0376 -0.2003  0.5816
   52MOL0     C 6798   3.077   3.647  10.110  0.2680 -0.3741 -0.9414
   52MOL0     H 6799   2.802   3.610  10.545  0.5401 -0.4636  0.5491
   52MOL0     H 6800   2.580   3.663  10.650  5.4924 -3.0831  0.7425
   52MOL0     H 6801   2.316   3.578  10.445 -0.7163  0.5278 -0.1974
   52MOL0     H 6802   2.236   3.730  10.403  0.1758 -0.4828 -1.2678
   52MOL0     H 6803   2.128   3.752  10.600 -2.1331 -0.5341 -1.1625
   52MOL0     H 6804   2.208   3.610  10.685  1.8868  0.3156 -0.3424
   52MOL0     H 6805   2.098   3.455  10.570 -1.8914 -0.9212 -0.4827
   52MOL0     H 6806   2.058   3.550  10.427 -3.5997 -1.4703 -0.4871
   52MOL0     H 6807   1.916   3.538  10.688 -1.0396 -2.8625 -1.9574
   52MOL0     H 6808   1.913   3.694  10.605  0.2225  0.3518  1.4493
   52MOL0     H 6809   1.852   3.419  10.482 -3.5096 -0.7052 -1.3629
   52MOL0     H 6810   1.810   3.574  10.399  0.1506 -0.8974 -0.2348
   52MOL0     H 6811   1.652   3.635  10.576 -1.6539 -0.0780 -1.7652
   52MOL0     H 6812   1.678   3.476  10.656  0.1969 -0.3132 -0.3247
   52MOL0     H 6813   1.602   3.439  10.375 -5.0088 -1.3808 -0.9793
   52MOL0     H 6814   1.535   3.378  10.526  1.3004 -0.5181  0.7494
   52MOL0     H 6815   1.458   3.622  10.367 -0.8963  0.0019 -0.3156
   52MOL0     H 6816   1.405   3.599  10.539 -0.7245 -0.5536 -0.4594
   52MOL0     H 6817   1.222   3.376  10.574  0.7423  1.0667 -0.4499
   52MOL0     H 6818   1.009   3.231  10.483  2.4771 -0.3109 -0.9493
   52MOL0     H 6819   1.002   3.215  10.303  1.2925  0.9675 -2.2827
   52MOL0     H 6820   0.877   3.429  10.481  2.6357  0.0342  0.5294
   52MOL0     H 6821   0.798   3.296  10.400  0.5596 -2.3199 -1.8296
   52MOL0     H 6822   0.924   3.543  10.258  2.8157 -2.1685  2.0546
   52MOL0     H 6823   0.886   3.394  10.178  1.2957 -1.2016  1.2782
   52MOL0     H 6824   0.691   3.547  10.159  1.4864 -0.8791 -1.0463
   52MOL0     H 6825   0.665   3.537  10.342 -0.3492 -2.2120  2.6430
   52MOL0     H 6826   0.447   3.562  10.224 -1.7150 -0.3824  1.2086
   52MOL0     H 6827   0.227   3.510  10.263  2.1389  1.5105 -0.4283
   52MOL0     H 6828  -0.136   3.539  10.211 -0.5922 -0.0531  2.8364
   52MOL0     H 6829  -0.390   3.521  10.181 -1.9988 -2.1308  1.4504
   52MOL0     H 6830  -0.561   3.100  10.101 -0.7841 -1.7279 -1.3494
   52MOL0     H 6831  -0.519   3.182   9.949  2.7150 -1.1177  2.0189
   52MOL0     H 6832  -0.759   3.117   9.954 -0.8579  1.2154 -2.3607
   52MOL0     H 6833  -0.736   3.295   9.950  1.2397  1.9283  2.5580
   52MOL0     H 6834  -0.750   3.262  10.225  0.5351  0.0355 -1.6400
   52MOL0     H 6835  -0.814   3.106  10.183 -0.5439 -0.7786 -1.4477
   52MOL0     H 6836  -1.011   3.256  10.207 -0.8098  2.6193  0.1385
   52MOL0     H 6837  -0.929   3.389  10.122 -1.6573 -0.1439 -3.8120
   52MOL0     H 6838  -0.980   3.153   9.952 -0.3112  0.0027 -0.8564
   52MOL0     H 6839  -0.987   3.331   9.933 -2.1598  3.4742  3.7914
   52MOL0     H 6840  -1.199   3.382  10.024 -1.8161 -1.1280  2.8335
   52MOL0     H 6841  -1.208   3.234  10.103  0.0954 -0.1075 -0.6064
   52MOL0     H 6842  -1.217   3.276   9.796  0.3788  0.7849  1.3644
   52MOL0     H 6843  -1.208   3.112   9.861  0.5484  0.3900 -1.5018
   52MOL0     H 6844  -1.436   3.303   9.925 -3.6489 -1.4068  0.4486
   52MOL0     H 6845  -1.432   3.137   9.979 -3.9324 -0.0291 -0.4465
   52MOL0     H 6846  -0.354   3.097  10.135  1.0453 -0.5157 -2.5256
   52MOL0     H 6847  -0.128   3.105  10.174 -1.8281 -1.4011 -0.5494
   52MOL0     H 6848   0.316   3.091  10.312 -0.1900  0.3333  2.9481
   52MOL0     H 6849   0.564   3.144  10.309 -0.9339 -0.0657  1.1255
   52MOL0     H 6850   2.441   3.814  10.285 -2.8223 -0.0487  2.7899
   52MOL0     H 6851   2.653   3.752  10.167 -2.5322 -1.6007 -0.6116
   52MOL0     H 6852   3.243   3.594  10.409  0.5173  0.7924 -0.1599
   52MOL0     H 6853   3.422   3.557  10.266 -1.1450  0.7316  2.6861
   52MOL0     H 6854   3.374   3.713   9.860  1.8010  1.4667  1.7867
   52MOL0     H 6855   3.370   3.549   9.809 -0.6956  1.3170  1.7356
   52MOL0     H 6856   3.620   3.715   9.833  0.2148 -0.8783  1.7086
   52MOL0     H 6857   3.625   3.536   9.814  0.2725  0.0708  0.7451
   52MOL0     H 6858   3.457   3.625   9.623  0.2800 -0.4414  0.4177
   52MOL0     H 6859   3.632   3.592   9.602  1.7432 -0.4061  2.7582
   52MOL0     H 6860   3.702   3.801   9.646  1.8155 -1.6974 -3.1327
   52MOL0     H 6861   3.590   3.807   9.505  0.2171  0.9582  0.5384
   52MOL0     H 6862   3.398   4.062   9.782 -1.3340 -0.7415 -0.7303
   52MOL0     H 6863   3.175   3.647   9.921  1.5151  1.6083  0.7108
   52MOL0     H 6864   2.983   3.672  10.063  1.3828 -0.2890 -3.2442
   53MOL0     O 6865   9.429   9.884   6.043  0.4662  0.2438 -0.4686
   53MOL0     C 6866   9.518   9.793   6.052 -0.4407  0.0150 -0.3522
   53MOL0     O 6867   9.495   9.667   6.105  0.4128 -0.6169 -0.7837
   53MOL0     C 6868   9.378   9.666   6.181  0.1662  0.2884 -0.3491
   53MOL0     C 6869   9.370   9.734   6.310 -0.2807  0.2653  0.3807
   53MOL0     C 6870   9.249   9.721   6.380 -0.5631 -0.5561  0.1493
   53MOL0     C 6871   9.143   9.658   6.334 -0.6529 -1.0767 -1.2220
   53MOL0     O 6872   9.032   9.659   6.410 -0.3671  0.7851  0.1278
   53MOL0     C 6873   8.904   9.701   6.354 -0.9010 -0.1279 -0.0488
   53MOL0     C 6874   8.874   9.853   6.362 -0.0494  0.1373  0.3285
   53MOL0     C 6875   8.741   9.880   6.289  0.1045 -0.1238  0.0517
   53MOL0     C 6876   8.718  10.031   6.267 -0.5788 -0.3504  0.3268
   53MOL0     C 6877   8.589  10.052   6.181  0.4769  0.2464  0.2045
   53MOL0     C 6878   8.572  10.199   6.142 -0.6828  0.3309  0.0904
   53MOL0     C 6879   8.681  10.234   6.039  0.5939  0.1082  0.6577
   53MOL0     C 6880   8.714  10.375   6.042  0.2875 -0.4161  0.7049
   53MOL0     N 6881   8.818  10.399   5.938 -0.1344 -0.8983 -0.2756
   53MOL0     C 6882   8.795  10.459   5.816 -0.7188  0.2369  0.1253
   53MOL0     C 6883   8.914  10.462   5.755 -0.4283 -0.1977 -0.0031
   53MOL0     C 6884   8.926  10.560   5.642 -0.0035 -0.2883  0.2474
   53MOL0     C 6885   9.054  10.544   5.565 -0.4014  0.7004 -0.4736
   53MOL0     C 6886   9.079  10.655   5.464 -0.5354  0.4432  0.0839
   53MOL0     C 6887   9.227  10.679   5.430  0.1268  1.0238  0.1044
   53MOL0     O 6888   9.297  10.551   5.423  0.1016 -0.7185  0.1987
   53MOL0     C 6889   9.429  10.544   5.381 -0.7049 -1.0945  0.4351
   53MOL0     C 6890   9.487  10.422   5.382  0.5804  0.2197  0.0302
   53MOL0     C 6891   9.610  10.388   5.338  0.7542 -0.2874  0.3658
   53MOL0     C 6892   9.695  10.490   5.279  0.3816  0.0144 -0.1581
   53MOL0     C 6893   9.834  10.472   5.231  0.0902 -0.0115  0.9782
   53MOL0     O 6894   9.885  10.561   5.144 -0.1069  0.1176  0.4985
   53MOL0     C 6895  10.022  10.562   5.123  0.2695  0.3326  0.1742
   53MOL0     C 6896  10.111  10.580   5.223  0.1797  0.0845  0.2121
   53MOL0     C 6897  10.252  10.579   5.202  0.3439  0.1643  0.3946
   53MOL0     C 6898  10.299  10.567   5.063  0.4403  0.0485 -0.9114
   53MOL0     O 6899  10.433  10.578   5.029 -0.0694 -0.0335 -0.4171
   53MOL0     C 6900  10.533  10.594   5.131  0.0663  0.3967 -0.1174
   53MOL0     C 6901  10.668  10.599   5.065 -0.2339  0.0067 -0.0867
   53MOL0     C 6902  10.785  10.559   5.154  0.2891  0.0809 -0.3222
   53MOL0     C 6903  10.906  10.526   5.069  0.3728 -0.0103 -0.8345
   53MOL0     C 6904  11.027  10.559   5.160  0.4980  0.5525 -0.2190
   53MOL0     C 6905  11.149  10.557   5.075  0.3343  0.5121 -0.7333
   53MOL0     C 6906  11.273  10.587   5.152  0.5255 -0.3030  0.3759
   53MOL0     C 6907  11.408  10.587   5.070  0.1947 -0.9238  0.8233
   53MOL0    Cl 6908  11.435  10.415   5.029  0.5095  0.0810  0.3226
   53MOL0     C 6909  10.211  10.559   4.960 -0.5387 -0.0395  0.3883
   53MOL0     C 6910  10.071  10.546   4.994  0.6628  0.2927  0.3724
   53MOL0     O 6911   9.886  10.372   5.271 -0.4117  0.3952  0.4143
   53MOL0     C 6912   9.630  10.622   5.260 -0.2541 -0.2581 -0.1355
   53MOL0     C 6913   9.495  10.645   5.313  0.3153 -0.9904 -0.4756
   53MOL0     N 6914   9.011  10.401   5.832  0.2542  0.2893  0.4844
   53MOL0     N 6915   8.951  10.366   5.941 -0.2033  0.0446 -1.1832
   53MOL0     C 6916   9.141   9.605   6.205  1.1846  0.9719  0.1069
   53MOL0     C 6917   9.260   9.608   6.127 -0.2124  0.0513  0.2826
   53MOL0     C 6918   9.659   9.823   6.022  0.0856 -0.0285  0.5767
   53MOL0     C 6919   9.689   9.930   5.947  0.1644 -0.5049  0.9541
   53MOL0     C 6920   9.820   9.960   5.909  0.1219  0.0431  0.0090
   53MOL0     C 6921   9.926   9.868   5.935  0.4018 -1.4171 -0.2892
   53MOL0     O 6922  10.060   9.881   5.907  0.0514 -0.5714  1.2786
   53MOL0     C 6923  10.089   9.999   5.825 -0.0810 -0.3376  0.4247
   53MOL0     C 6924  10.237  10.012   5.787  0.1471 -0.6195 -0.1631
   53MOL0     C 6925  10.332   9.984   5.907 -0.9794  0.0127  0.0254
   53MOL0     C 6926  10.484   9.983   5.854  0.7866 -0.3044 -0.4481
   53MOL0     C 6927  10.532  10.124   5.840 -0.5346  0.0136 -0.7556
   53MOL0     C 6928  10.567  10.242   5.824  0.1263  0.0420 -0.6429
   53MOL0     C 6929   9.894   9.756   6.002 -0.6454  0.2755  0.1549
   53MOL0     C 6930   9.766   9.734   6.060 -0.3798 -0.8608  0.3102
   53MOL0     H 6931   9.454   9.786   6.356  0.4627 -0.1995 -0.4148
   53MOL0     H 6932   9.249   9.766   6.479 -2.4883  0.9449 -0.4648
   53MOL0     H 6933   8.823   9.644   6.399 -0.5317 -0.2015  0.5356
   53MOL0     H 6934   8.895   9.680   6.247 -0.9542 -0.8946  0.1061
   53MOL0     H 6935   8.956   9.908   6.315 -0.9028  0.4624 -0.8040
   53MOL0     H 6936   8.886   9.890   6.464  1.4423  2.9362 -0.7680
   53MOL0     H 6937   8.655   9.821   6.324 -0.7747  2.4253  2.6021
   53MOL0     H 6938   8.760   9.842   6.188  2.7987 -1.9952  1.1342
   53MOL0     H 6939   8.697  10.075   6.365  0.3383  1.0867 -0.0968
   53MOL0     H 6940   8.808  10.068   6.218 -1.3897 -0.0157 -0.9722
   53MOL0     H 6941   8.504  10.007   6.235 -0.5074 -1.2456 -2.4331
   53MOL0     H 6942   8.606   9.996   6.089  1.6799 -2.4211  1.9346
   53MOL0     H 6943   8.580  10.265   6.229 -1.2957  1.5390 -0.7534
   53MOL0     H 6944   8.475  10.217   6.096 -0.4688  2.8691  0.4839
   53MOL0     H 6945   8.778  10.183   6.047  2.7463  3.4718 -1.3952
   53MOL0     H 6946   8.650  10.187   5.945  1.0896 -0.5519  0.8130
   53MOL0     H 6947   8.745  10.410   6.141 -0.6682 -1.9134  1.5661
   53MOL0     H 6948   8.624  10.430   6.016  0.5554  0.9118  2.4163
   53MOL0     H 6949   8.703  10.499   5.775 -0.8720  0.0141  0.2491
   53MOL0     H 6950   8.912  10.661   5.683 -0.1023 -0.4020  0.4942
   53MOL0     H 6951   8.845  10.539   5.572  1.2011 -1.5640 -0.8179
   53MOL0     H 6952   9.047  10.447   5.516 -1.4936  0.9630 -0.8737
   53MOL0     H 6953   9.135  10.525   5.636  0.4655  2.5676 -0.9153
   53MOL0     H 6954   9.027  10.619   5.375  0.6806 -1.3720  0.0504
   53MOL0     H 6955   9.032  10.747   5.498 -1.9415 -0.5256  0.8574
   53MOL0     H 6956   9.276  10.752   5.495  0.9961  0.6633 -0.1228
   53MOL0     H 6957   9.230  10.738   5.338 -1.7057 -0.0172 -0.6833
   53MOL0     H 6958   9.429  10.340   5.423  2.0209  0.2239  2.2500
   53MOL0     H 6959   9.635  10.283   5.349  0.9430 -0.2871 -0.0217
   53MOL0     H 6960  10.083  10.591   5.328  1.9978 -1.8661  0.9691
   53MOL0     H 6961  10.311  10.590   5.292  1.0767  0.0853 -0.0578
   53MOL0     H 6962  10.524  10.514   5.206 -0.8909 -1.7148 -2.3412
   53MOL0     H 6963  10.522  10.686   5.189 -1.0864  0.0355  0.2737
   53MOL0     H 6964  10.687  10.702   5.032  0.7496 -0.0740  0.2109
   53MOL0     H 6965  10.663  10.532   4.979  2.0702  0.9827 -1.0782
   53MOL0     H 6966  10.752  10.464   5.197 -0.7267 -0.3195 -1.9001
   53MOL0     H 6967  10.803  10.642   5.222  1.1983  3.0074 -3.8065
   53MOL0     H 6968  10.908  10.421   5.041  0.1325 -0.7198  1.5796
   53MOL0     H 6969  10.902  10.580   4.974 -0.9313  1.1004 -0.1951
   53MOL0     H 6970  11.030  10.485   5.241  0.9608 -0.6029 -1.2564
   53MOL0     H 6971  11.020  10.660   5.200 -1.9078  0.7396 -0.9723
   53MOL0     H 6972  11.140  10.624   4.989 -1.8491  0.7747 -0.3596
   53MOL0     H 6973  11.149  10.455   5.035 -0.8807 -1.4910  3.7404
   53MOL0     H 6974  11.269  10.677   5.215 -1.1701 -0.7952  1.0341
   53MOL0     H 6975  11.290  10.506   5.223  0.2194 -0.0516  0.7418
   53MOL0     H 6976  11.483  10.637   5.132 -0.6707  0.4713  0.7891
   53MOL0     H 6977  11.395  10.650   4.981 -0.0464  0.3997  1.7518
   53MOL0     H 6978  10.242  10.568   4.856 -0.4801  0.2709  0.4343
   53MOL0     H 6979  10.008  10.537   4.906  0.1158 -0.5995  0.8484
   53MOL0     H 6980   9.691  10.696   5.210  2.5543 -1.3454  1.4114
   53MOL0     H 6981   9.457  10.746   5.318 -0.4494 -1.2329 -1.1130
   53MOL0     H 6982   9.052   9.562   6.160  1.2421  1.1104 -0.1400
   53MOL0     H 6983   9.271   9.562   6.030  1.2359  1.3788 -0.2300
   53MOL0     H 6984   9.618  10.008   5.921  1.6863  0.1967 -1.3315
   53MOL0     H 6985   9.835  10.049   5.849 -2.2218 -0.2597 -1.1454
   53MOL0     H 6986  10.048  10.090   5.870 -0.4718 -0.3782  0.1551
   53MOL0     H 6987  10.048   9.981   5.725  1.2929  1.2098 -0.4561
   53MOL0     H 6988  10.265   9.940   5.709  3.9488  1.6192 -1.1126
   53MOL0     H 6989  10.259  10.114   5.754  1.9409 -1.0406 -0.3849
   53MOL0     H 6990  10.310   9.886   5.951  1.4643 -0.5065  0.2219
   53MOL0     H 6991  10.317  10.058   5.987 -2.1152  0.7535 -0.8529
   53MOL0     H 6992  10.533   9.937   5.940 -2.6526  1.5411  2.8229
   53MOL0     H 6993  10.487   9.927   5.761 -0.8564  0.6304 -1.1160
   53MOL0     H 6994  10.616  10.335   5.807  5.7654 -2.7898 -2.4309
   53MOL0     H 6995   9.973   9.683   6.019 -0.3368  0.4421 -0.5109
   53MOL0     H 6996   9.749   9.650   6.126  0.6049 -0.6192  0.8941
   54MOL0     O 6997   2.226   9.437   6.701 -0.1718  0.2770 -0.0467
   54MOL0     C 6998   2.280   9.338   6.759 -0.5519 -0.4445 -0.5965
   54MOL0     O 6999   2.211   9.217   6.796 -0.9570  0.4140 -0.0604
   54MOL0     C 7000   2.084   9.207   6.763  0.2740 -0.1447  0.3036
   54MOL0     C 7001   2.028   9.099   6.693 -0.1156  0.1350  1.1275
   54MOL0     C 7002   1.891   9.092   6.647 -0.2887  0.6119 -0.0485
   54MOL0     C 7003   1.804   9.197   6.664 -0.4247  0.5181  0.6020
   54MOL0     O 7004   1.677   9.193   6.619 -0.0191 -0.0667  1.1673
   54MOL0     C 7005   1.588   9.303   6.621  0.3440 -0.1514 -0.3585
   54MOL0     C 7006   1.472   9.299   6.523 -0.7132 -0.6887  0.8337
   54MOL0     C 7007   1.383   9.419   6.544 -0.7587  0.5208 -0.2310
   54MOL0     C 7008   1.251   9.398   6.472 -1.0832  0.3096  0.5158
   54MOL0     C 7009   1.156   9.505   6.496  0.2268 -0.5506  0.0842
   54MOL0     C 7010   1.088   9.504   6.639 -0.8501 -0.3854  0.4973
   54MOL0     C 7011   0.976   9.599   6.675 -0.1370  0.9614  0.3264
   54MOL0     C 7012   0.837   9.572   6.617 -0.1340  0.3554  0.5855
   54MOL0     N 7013   0.771   9.458   6.679  0.1335 -0.6966 -0.7513
   54MOL0     C 7014   0.709   9.355   6.612 -1.0453  1.0112 -0.3288
   54MOL0     C 7015   0.618   9.305   6.704 -1.2844  0.0688 -0.8563
   54MOL0     C 7016   0.512   9.200   6.683  0.0013 -0.3082  0.4067
   54MOL0     C 7017   0.540   9.064   6.748 -0.1178  0.0032  0.2758
   54MOL0     C 7018   0.415   9.017   6.828 -0.0517  0.2729  0.3346
   54MOL0     C 7019   0.414   8.870   6.865  0.0195  0.0468  0.1945
   54MOL0     O 7020   0.315   8.850   6.966  0.4340  0.3894 -0.0375
   54MOL0     C 7021   0.186   8.803   6.930 -1.0969 -0.4892  0.2812
   54MOL0     C 7022   0.139   8.781   6.800  0.1120 -0.2799  0.3042
   54MOL0     C 7023   0.006   8.752   6.768  0.2082  0.7425  0.0707
   54MOL0     C 7024  -0.091   8.747   6.870 -0.4620 -0.0029 -0.4883
   54MOL0     C 7025  -0.233   8.705   6.846 -0.1151 -0.5705  0.1454
   54MOL0     O 7026  -0.315   8.773   6.927  1.1436  0.1383  0.6604
   54MOL0     C 7027  -0.451   8.762   6.914  0.0233  0.5311  0.5911
   54MOL0     C 7028  -0.535   8.740   7.017 -0.4455 -0.2435 -0.5773
   54MOL0     C 7029  -0.673   8.721   6.993  0.4351 -0.5497 -0.6658
   54MOL0     C 7030  -0.738   8.734   6.865  0.1687 -0.7576 -0.2191
   54MOL0     O 7031  -0.870   8.746   6.844  0.4243 -0.2992 -0.9085
   54MOL0     C 7032  -0.952   8.749   6.962 -0.1902 -0.9914  0.9718
   54MOL0     C 7033  -1.084   8.815   6.940 -0.1729  1.1717 -0.2781
   54MOL0     C 7034  -1.174   8.769   7.057  0.1446 -0.3169  0.4688
   54MOL0     C 7035  -1.318   8.830   7.036  0.0378 -0.4705 -0.5896
   54MOL0     C 7036  -1.411   8.821   7.152 -0.1343 -0.5452  0.4296
   54MOL0     C 7037  -1.559   8.882   7.129 -0.3705 -0.4801  0.1544
   54MOL0     C 7038  -1.617   8.874   7.267  0.3978  0.1003 -0.7576
   54MOL0     C 7039  -1.773   8.905   7.269  0.2114 -0.6204 -0.6305
   54MOL0    Cl 7040  -1.850   8.911   7.114  0.1028 -0.0709  0.0923
   54MOL0     C 7041  -0.650   8.761   6.763  0.0741  1.2823  0.1198
   54MOL0     C 7042  -0.509   8.767   6.784 -0.4589 -1.6114  0.3960
   54MOL0     O 7043  -0.260   8.620   6.765  0.0631  0.1172  0.0889
   54MOL0     C 7044  -0.042   8.772   7.007  0.3901 -0.0510 -0.2989
   54MOL0     C 7045   0.096   8.808   7.027  0.1984  0.6217  0.0447
   54MOL0     N 7046   0.633   9.373   6.824 -0.7082 -0.1048  0.2120
   54MOL0     N 7047   0.737   9.452   6.809  0.1027  0.5553 -0.3497
   54MOL0     C 7048   1.852   9.298   6.746  0.0389 -0.2733 -0.4787
   54MOL0     C 7049   1.986   9.307   6.793  0.3981 -0.2612 -0.1639
   54MOL0     C 7050   2.414   9.367   6.812 -0.6026 -1.1318  0.4937
   54MOL0     C 7051   2.481   9.489   6.785  0.8033 -0.3156 -0.2287
   54MOL0     C 7052   2.605   9.517   6.853 -0.1259  0.1642  0.3787
   54MOL0     C 7053   2.661   9.427   6.938  0.1653 -0.7429  0.2376
   54MOL0     O 7054   2.774   9.473   6.996 -0.1454 -0.1773  0.0253
   54MOL0     C 7055   2.879   9.378   6.985 -0.3122  0.3116 -0.2368
   54MOL0     C 7056   3.006   9.456   6.969 -0.4927 -0.1193 -0.4238
   54MOL0     C 7057   3.041   9.506   6.841  0.0652  0.0110 -0.0045
   54MOL0     C 7058   3.128   9.629   6.831  0.1474 -0.3294  0.3995
   54MOL0     C 7059   3.263   9.616   6.891 -0.0665 -0.8235  1.1130
   54MOL0     C 7060   3.372   9.600   6.935 -0.2238  0.0577  0.1299
   54MOL0     C 7061   2.589   9.306   6.970 -0.1895  0.4550 -0.1025
   54MOL0     C 7062   2.473   9.278   6.900 -0.3088  0.1253 -0.1901
   54MOL0     H 7063   2.090   9.014   6.665 -2.5052 -1.6282  0.8353
   54MOL0     H 7064   1.846   9.006   6.598 -1.6118  1.6215 -0.6787
   54MOL0     H 7065   1.641   9.396   6.599 -0.4475  0.9360  1.9755
   54MOL0     H 7066   1.549   9.306   6.724  0.5498  1.5901 -0.2935
   54MOL0     H 7067   1.415   9.205   6.529  0.5362 -1.4176  1.9024
   54MOL0     H 7068   1.519   9.290   6.424 -0.2861 -2.9074  1.1810
   54MOL0     H 7069   1.435   9.514   6.526 -1.7573  1.7786  2.8390
   54MOL0     H 7070   1.362   9.416   6.651 -0.1143 -1.1022 -0.1308
   54MOL0     H 7071   1.274   9.398   6.365 -0.2523 -1.4402  0.6550
   54MOL0     H 7072   1.222   9.295   6.495 -0.6444 -0.8544 -3.3788
   54MOL0     H 7073   1.077   9.499   6.421 -1.2186  1.1664  1.3446
   54MOL0     H 7074   1.201   9.605   6.488 -1.2246  0.0599 -0.9008
   54MOL0     H 7075   1.167   9.532   6.709  0.4241 -2.1670 -0.1438
   54MOL0     H 7076   1.053   9.402   6.658  1.5102 -1.4343 -0.3660
   54MOL0     H 7077   0.964   9.586   6.783  2.6893 -2.2085  0.4390
   54MOL0     H 7078   1.014   9.699   6.653 -2.2213  1.5697 -0.7461
   54MOL0     H 7079   0.848   9.546   6.511 -0.2163 -2.5522  1.1950
   54MOL0     H 7080   0.785   9.667   6.635  1.5169  1.2268  0.9685
   54MOL0     H 7081   0.694   9.323   6.509  1.2571 -0.1143 -0.3642
   54MOL0     H 7082   0.501   9.177   6.577  1.9055 -1.1880  0.3703
   54MOL0     H 7083   0.413   9.240   6.708 -0.1211  1.2322 -2.1855
   54MOL0     H 7084   0.611   9.069   6.831  0.4306  2.7383 -0.2820
   54MOL0     H 7085   0.582   8.982   6.689  1.3121  2.3078 -2.0993
   54MOL0     H 7086   0.402   9.081   6.916 -2.4779 -0.0590  0.2883
   54MOL0     H 7087   0.325   9.025   6.767 -0.3887  1.1003  0.9368
   54MOL0     H 7088   0.514   8.843   6.901 -0.5579 -0.5951  1.4138
   54MOL0     H 7089   0.409   8.796   6.785 -0.7751 -0.3606  0.6027
   54MOL0     H 7090   0.200   8.797   6.712  2.9466 -2.0549  1.7786
   54MOL0     H 7091  -0.013   8.739   6.662  1.2324  2.2839 -0.3341
   54MOL0     H 7092  -0.493   8.729   7.116  2.0775  0.4872 -1.5039
   54MOL0     H 7093  -0.730   8.678   7.075  0.0436  2.3367  0.6715
   54MOL0     H 7094  -0.893   8.799   7.039  2.3678 -2.3290 -0.0100
   54MOL0     H 7095  -0.966   8.645   6.994 -2.2824 -1.0921 -0.1185
   54MOL0     H 7096  -1.122   8.791   6.840 -0.2053  1.4828 -0.3420
   54MOL0     H 7097  -1.089   8.924   6.946 -1.2980  1.0846  0.8152
   54MOL0     H 7098  -1.121   8.811   7.143  1.6136 -0.6929 -0.2277
   54MOL0     H 7099  -1.178   8.665   7.090  1.6654 -0.4919  0.1432
   54MOL0     H 7100  -1.309   8.936   7.011  1.0919  0.2604  2.4743
   54MOL0     H 7101  -1.365   8.774   6.954 -1.3398  0.0285 -0.1600
   54MOL0     H 7102  -1.367   8.886   7.228 -0.8607 -1.1553  1.4044
   54MOL0     H 7103  -1.404   8.721   7.196  0.7032 -0.4168  0.6013
   54MOL0     H 7104  -1.607   8.818   7.055 -0.1018 -1.1433  0.5311
   54MOL0     H 7105  -1.551   8.981   7.084 -4.0673 -1.2429 -2.6148
   54MOL0     H 7106  -1.596   8.769   7.291  5.9031  1.0534 -0.0827
   54MOL0     H 7107  -1.566   8.935   7.342  0.3878 -1.3165  0.4469
   54MOL0     H 7108  -1.793   9.006   7.306  1.3939 -0.3564 -0.6720
   54MOL0     H 7109  -1.835   8.837   7.327 -0.2221  0.6543  0.4590
   54MOL0     H 7110  -0.691   8.791   6.667 -0.6483  2.0342  0.6472
   54MOL0     H 7111  -0.447   8.805   6.704 -2.9304 -0.1754 -0.9713
   54MOL0     H 7112  -0.108   8.763   7.093 -0.9397 -0.0893 -1.2912
   54MOL0     H 7113   0.132   8.843   7.123  1.6416  4.6444 -1.7229
   54MOL0     H 7114   1.786   9.380   6.773 -0.1004 -0.1566 -1.1447
   54MOL0     H 7115   2.000   9.391   6.860 -2.2040  0.8602 -0.9072
   54MOL0     H 7116   2.437   9.573   6.733  1.4339 -0.3077 -0.7699
   54MOL0     H 7117   2.664   9.599   6.812  0.9069 -1.6927 -2.1014
   54MOL0     H 7118   2.869   9.293   6.917  2.7348 -0.2958 -0.0689
   54MOL0     H 7119   2.894   9.315   7.073  1.1292 -0.0886 -0.7455
   54MOL0     H 7120   3.003   9.543   7.034  1.4431 -0.6108  0.3913
   54MOL0     H 7121   3.085   9.395   7.014  1.3664  1.6723 -1.1499
   54MOL0     H 7122   2.954   9.537   6.783  0.4062 -2.0128 -1.7187
   54MOL0     H 7123   3.086   9.423   6.786 -0.0439 -0.4112  0.5391
   54MOL0     H 7124   3.149   9.624   6.724 -1.0936 -2.1253  0.2115
   54MOL0     H 7125   3.080   9.723   6.861 -0.5426 -1.4335  3.0787
   54MOL0     H 7126   3.474   9.593   6.965  0.0090  1.0295 -0.4082
   54MOL0     H 7127   2.621   9.229   7.039 -1.2974 -0.3369 -0.4500
   54MOL0     H 7128   2.408   9.198   6.934  1.3272 -0.9051  0.6916
   55MOL0     O 7129   3.120   2.359   2.507 -0.1446  0.7450 -0.1468
   55MOL0     C 7130   3.132   2.396   2.628  0.2454 -0.2743 -0.3090
   55MOL0     O 7131   3.042   2.386   2.734 -0.7207 -0.4868 -0.3366
   55MOL0     C 7132   2.929   2.319   2.718  0.4170 -0.2702  0.6164
   55MOL0     C 7133   2.919   2.181   2.730 -0.7194 -0.2874 -0.1713
   55MOL0     C 7134   2.794   2.114   2.716  0.1682  0.3819  0.2241
   55MOL0     C 7135   2.677   2.184   2.669  0.5907  0.0680  0.4289
   55MOL0     O 7136   2.553   2.126   2.643  0.8802  0.0528  0.4426
   55MOL0     C 7137   2.564   2.052   2.513 -0.3223  0.3882 -0.0371
   55MOL0     C 7138   2.483   2.110   2.401 -0.0513 -0.6923 -0.0920
   55MOL0     C 7139   2.327   2.129   2.444 -0.0452  0.0471 -0.8477
   55MOL0     C 7140   2.241   2.004   2.410 -0.5669 -0.5934  0.3352
   55MOL0     C 7141   2.094   2.032   2.436  0.1120 -0.7727 -0.6838
   55MOL0     C 7142   1.995   1.921   2.447  0.1085 -0.3173 -0.6759
   55MOL0     C 7143   1.958   1.854   2.308  0.1294  0.1245  0.2812
   55MOL0     C 7144   1.868   1.939   2.201 -0.2331 -1.1621 -0.3350
   55MOL0     N 7145   1.730   1.928   2.231 -0.0864 -0.0377  0.4402
   55MOL0     C 7146   1.629   1.910   2.141  0.6754 -0.1123  0.2749
   55MOL0     C 7147   1.516   1.906   2.221 -0.4839  0.8287 -0.2895
   55MOL0     C 7148   1.383   1.889   2.171  0.6395 -0.2164 -0.0664
   55MOL0     C 7149   1.357   2.004   2.071 -0.3202 -0.7943 -0.4062
   55MOL0     C 7150   1.218   1.994   2.012 -0.1204 -0.1276  0.2826
   55MOL0     C 7151   1.193   2.090   1.891 -0.3740  0.3249  0.0017
   55MOL0     O 7152   1.084   2.032   1.803  0.4727 -0.5815 -0.3848
   55MOL0     C 7153   0.953   2.052   1.829 -0.1733 -0.2883  0.2174
   55MOL0     C 7154   0.899   2.101   1.950  0.6053  0.3945  0.1094
   55MOL0     C 7155   0.754   2.098   1.971 -0.6821 -0.6299  0.8667
   55MOL0     C 7156   0.664   2.071   1.875 -0.1504  0.3475  1.1831
   55MOL0     C 7157   0.524   2.096   1.885  0.2230  0.7671 -0.1452
   55MOL0     O 7158   0.451   2.044   1.778 -0.0068  0.4525  0.4619
   55MOL0     C 7159   0.316   2.063   1.784  1.0460 -0.0463 -1.1430
   55MOL0     C 7160   0.251   2.186   1.804 -0.9722  0.4804  0.5823
   55MOL0     C 7161   0.114   2.194   1.841 -0.1228 -0.1079 -0.6628
   55MOL0     C 7162   0.037   2.077   1.847  0.6423 -0.2699  0.8426
   55MOL0     O 7163  -0.093   2.066   1.882 -0.0213  0.5383 -0.2516
   55MOL0     C 7164  -0.177   2.183   1.882 -0.4086  0.5285 -0.3408
   55MOL0     C 7165  -0.323   2.131   1.917  0.6201  1.1535 -1.0027
   55MOL0     C 7166  -0.397   2.258   1.951  0.1804 -0.2164  0.2032
   55MOL0     C 7167  -0.543   2.225   1.983 -0.4489  0.1322 -0.7665
   55MOL0     C 7168  -0.640   2.340   2.004 -0.9125  0.3381  0.0208
   55MOL0     C 7169  -0.667   2.433   1.884 -1.1008  0.9873 -0.2588
   55MOL0     C 7170  -0.773   2.525   1.929 -0.4854  0.3493 -0.4540
   55MOL0     C 7171  -0.800   2.639   1.837  0.3169  0.6817  0.3337
   55MOL0    Cl 7172  -0.935   2.738   1.895  0.2356  0.1022  0.6058
   55MOL0     C 7173   0.098   1.958   1.815  0.1920  0.6333 -0.0341
   55MOL0     C 7174   0.233   1.950   1.788  0.6270  0.2290 -0.8785
   55MOL0     O 7175   0.478   2.156   1.981 -0.3305 -0.2217 -0.0364
   55MOL0     C 7176   0.726   2.008   1.760  0.1790 -0.3503 -0.2143
   55MOL0     C 7177   0.863   2.005   1.735 -1.0361  0.1029 -0.5814
   55MOL0     N 7178   1.550   1.925   2.351  0.5555 -0.5416  0.1236
   55MOL0     N 7179   1.675   1.950   2.354  0.7769  0.5453 -0.6136
   55MOL0     C 7180   2.692   2.336   2.663 -0.4366 -0.6125 -0.5249
   55MOL0     C 7181   2.814   2.395   2.692 -0.1469  0.4365 -0.0250
   55MOL0     C 7182   3.259   2.462   2.670 -0.1011 -0.2202  0.0151
   55MOL0     C 7183   3.289   2.500   2.808 -0.2657  0.5272  0.7274
   55MOL0     C 7184   3.414   2.560   2.837  0.4645  0.3982 -0.2205
   55MOL0     C 7185   3.513   2.581   2.737  0.0026  0.8741  0.9564
   55MOL0     O 7186   3.634   2.632   2.761 -0.3570 -0.4808  0.1823
   55MOL0     C 7187   3.638   2.774   2.796 -0.1200 -1.3871 -0.6218
   55MOL0     C 7188   3.771   2.829   2.850 -0.1132  0.1895  0.0940
   55MOL0     C 7189   3.898   2.785   2.766 -0.1285 -0.1693  0.1452
   55MOL0     C 7190   4.019   2.829   2.841 -0.1299  1.0733 -0.9585
   55MOL0     C 7191   4.052   2.968   2.815 -0.1183 -0.1503  0.0460
   55MOL0     C 7192   4.083   3.084   2.779 -0.0395  0.8083 -0.6831
   55MOL0     C 7193   3.483   2.538   2.604  0.1406 -0.6021 -0.9138
   55MOL0     C 7194   3.360   2.480   2.571 -0.0724  0.0438  1.1970
   55MOL0     H 7195   3.006   2.123   2.761 -0.1480  1.2842  1.3340
   55MOL0     H 7196   2.803   2.006   2.726 -0.3385  0.4066  1.0631
   55MOL0     H 7197   2.517   1.954   2.524 -3.2229  1.7576  0.5713
   55MOL0     H 7198   2.671   2.041   2.490 -0.4612 -0.8197 -0.1746
   55MOL0     H 7199   2.487   2.050   2.310  1.0939 -0.1078 -0.4579
   55MOL0     H 7200   2.520   2.212   2.385 -1.6566 -0.0691 -0.0240
   55MOL0     H 7201   2.286   2.217   2.394  1.9065  1.8931  0.6159
   55MOL0     H 7202   2.315   2.151   2.551 -0.2350  0.1609 -0.8929
   55MOL0     H 7203   2.247   1.993   2.301 -0.0015  0.3688  0.2577
   55MOL0     H 7204   2.280   1.917   2.464 -0.8558  0.4633  2.3711
   55MOL0     H 7205   2.060   2.091   2.351  0.0505  0.3052  0.0757
   55MOL0     H 7206   2.090   2.091   2.528  1.3728  1.2865 -1.8662
   55MOL0     H 7207   1.902   1.952   2.494  0.5734  0.7221 -0.4209
   55MOL0     H 7208   2.040   1.840   2.507 -1.9544 -0.0415  1.3662
   55MOL0     H 7209   2.044   1.816   2.252 -0.5054  0.2481 -0.8059
   55MOL0     H 7210   1.893   1.768   2.326  1.2495 -0.3973  2.0600
   55MOL0     H 7211   1.888   1.915   2.096 -0.0158  1.3027 -0.9220
   55MOL0     H 7212   1.897   2.042   2.221  0.4143 -1.5298  0.7091
   55MOL0     H 7213   1.637   1.879   2.038 -1.3571 -0.9385  0.3251
   55MOL0     H 7214   1.303   1.888   2.245 -0.8601  2.5723 -1.4871
   55MOL0     H 7215   1.380   1.797   2.111  0.6902 -0.2149 -0.0708
   55MOL0     H 7216   1.435   1.999   1.994 -0.8391 -1.2226 -0.9124
   55MOL0     H 7217   1.357   2.103   2.118  1.8970 -0.4765 -0.9741
   55MOL0     H 7218   1.204   1.891   1.976 -7.2744 -0.1458  1.5877
   55MOL0     H 7219   1.151   2.019   2.094 -0.1930 -0.4395  0.3180
   55MOL0     H 7220   1.288   2.092   1.836  0.7909  4.1396  1.7579
   55MOL0     H 7221   1.165   2.192   1.918  2.7032  1.0130  1.0613
   55MOL0     H 7222   0.968   2.136   2.026 -2.3360  0.6300  2.9056
   55MOL0     H 7223   0.722   2.121   2.072  3.3007  1.7310  1.8174
   55MOL0     H 7224   0.305   2.280   1.801 -0.8467  0.3924 -0.7882
   55MOL0     H 7225   0.078   2.296   1.854 -0.4358  0.3255 -3.9159
   55MOL0     H 7226  -0.179   2.226   1.782 -2.7971  1.2001 -0.0818
   55MOL0     H 7227  -0.140   2.252   1.959 -1.5487  0.4908  0.2681
   55MOL0     H 7228  -0.310   2.057   1.997  3.7933  1.8036 -0.7562
   55MOL0     H 7229  -0.371   2.090   1.828 -1.0420  1.5015 -0.2981
   55MOL0     H 7230  -0.396   2.325   1.865  3.0181 -0.7605 -0.2727
   55MOL0     H 7231  -0.362   2.307   2.042 -0.9814 -2.0626  1.7527
   55MOL0     H 7232  -0.590   2.161   1.908  0.3326 -0.5273 -0.7048
   55MOL0     H 7233  -0.528   2.178   2.080  3.2417 -0.8297 -1.6502
   55MOL0     H 7234  -0.594   2.407   2.077  0.6638  3.1693 -3.2543
   55MOL0     H 7235  -0.735   2.296   2.037  0.1379 -2.3504 -0.2994
   55MOL0     H 7236  -0.702   2.372   1.800 -0.3612 -0.3148  0.3435
   55MOL0     H 7237  -0.580   2.487   1.845 -0.2107  0.2684  0.6545
   55MOL0     H 7238  -0.868   2.472   1.942  2.2324 -5.3129 -0.7969
   55MOL0     H 7239  -0.756   2.561   2.031 -2.6684  0.7410 -0.1677
   55MOL0     H 7240  -0.810   2.609   1.732  0.9621  1.3180  0.0833
   55MOL0     H 7241  -0.705   2.693   1.839 -0.2579  1.8058 -1.0971
   55MOL0     H 7242   0.040   1.866   1.817 -0.6926  1.1830  1.6985
   55MOL0     H 7243   0.275   1.859   1.746  1.0024  0.6305 -1.3858
   55MOL0     H 7244   0.666   1.961   1.683  0.9371 -1.7368  0.0216
   55MOL0     H 7245   0.902   1.968   1.640 -1.6173  1.0539 -1.2087
   55MOL0     H 7246   2.604   2.396   2.644 -0.7080  0.1853  2.7849
   55MOL0     H 7247   2.812   2.503   2.703  0.4414  0.5783 -1.0936
   55MOL0     H 7248   3.214   2.483   2.884 -0.8362  2.0191  0.5300
   55MOL0     H 7249   3.419   2.589   2.941  1.1759 -1.3311  0.2661
   55MOL0     H 7250   3.560   2.786   2.872  0.2189 -0.7989 -0.3695
   55MOL0     H 7251   3.605   2.836   2.712 -3.1638 -1.3609  0.4546
   55MOL0     H 7252   3.767   2.938   2.854  1.2220  0.3405 -1.6901
   55MOL0     H 7253   3.785   2.802   2.955  1.3282 -1.6640 -0.5268
   55MOL0     H 7254   3.908   2.810   2.660  1.8694  0.1926  0.3810
   55MOL0     H 7255   3.903   2.676   2.767 -1.6451 -0.3500 -2.3114
   55MOL0     H 7256   3.990   2.828   2.946 -3.5383 -1.2381 -1.7700
   55MOL0     H 7257   4.106   2.768   2.814 -0.2157  0.7479 -0.4980
   55MOL0     H 7258   4.102   3.186   2.750 -1.8926  1.2723 -0.3653
   55MOL0     H 7259   3.565   2.553   2.535 -0.3198 -2.0953 -1.8161
   55MOL0     H 7260   3.355   2.448   2.468  3.0409  2.1391  0.2690
   56MOL0     O 7261   6.347   6.071   7.991  0.3849  0.5122  0.2011
   56MOL0     C 7262   6.287   6.148   7.912  0.1347  0.3186  0.3323
   56MOL0     O 7263   6.156   6.169   7.907  0.1449  0.8313 -0.4978
   56MOL0     C 7264   6.060   6.077   7.967  0.2334  0.1373  0.7591
   56MOL0     C 7265   5.940   6.137   8.006 -0.8166  0.6200  0.3383
   56MOL0     C 7266   5.833   6.057   8.052  0.3505  0.4294  0.3885
   56MOL0     C 7267   5.846   5.917   8.073  0.5559 -1.0604  0.0979
   56MOL0     O 7268   5.740   5.839   8.107  0.1344 -0.3774  0.1618
   56MOL0     C 7269   5.603   5.878   8.089 -0.4067  0.3007 -1.0329
   56MOL0     C 7270   5.520   5.754   8.118  0.2160  0.3848  0.2322
   56MOL0     C 7271   5.388   5.790   8.164  0.5670 -1.3673 -0.7771
   56MOL0     C 7272   5.312   5.885   8.070  0.1008  0.0027 -0.1533
   56MOL0     C 7273   5.211   5.961   8.166 -0.0693  0.8193  0.3479
   56MOL0     C 7274   5.082   5.993   8.089  0.9677 -1.1655 -0.6688
   56MOL0     C 7275   4.997   6.092   8.171  0.6150 -0.0243 -0.8132
   56MOL0     C 7276   4.912   6.175   8.083  0.4876 -1.0007  1.1061
   56MOL0     N 7277   4.825   6.095   7.992  0.0022  0.3013  0.5549
   56MOL0     C 7278   4.860   6.031   7.878 -0.3729  0.0983  0.7089
   56MOL0     C 7279   4.744   5.961   7.846 -0.5768 -0.3792  0.2223
   56MOL0     C 7280   4.721   5.873   7.730 -0.3515  0.3893 -0.0156
   56MOL0     C 7281   4.697   5.947   7.606  1.1941 -0.1984 -0.2194
   56MOL0     C 7282   4.556   6.022   7.607 -0.0636  0.2464 -0.4661
   56MOL0     C 7283   4.448   5.920   7.637 -0.3924  0.2317  0.4700
   56MOL0     O 7284   4.322   5.992   7.637 -0.4252  1.0759  0.1515
   56MOL0     C 7285   4.212   5.909   7.628 -0.4510 -0.3165  0.2428
   56MOL0     C 7286   4.197   5.774   7.656 -0.2668  0.6575  0.3296
   56MOL0     C 7287   4.084   5.702   7.648  0.5460  0.1381  0.0519
   56MOL0     C 7288   3.967   5.778   7.606 -0.8487  1.7373 -0.4956
   56MOL0     C 7289   3.840   5.712   7.616 -0.9006  0.0716  0.3408
   56MOL0     O 7290   3.835   5.572   7.624  0.4769  0.0084 -0.0827
   56MOL0     C 7291   3.712   5.517   7.642  0.1321 -0.0707 -0.2742
   56MOL0     C 7292   3.633   5.483   7.535 -0.5585  0.4067 -0.4092
   56MOL0     C 7293   3.507   5.438   7.565  0.3865  0.1220 -0.0921
   56MOL0     C 7294   3.463   5.403   7.694 -0.1456 -0.1256  0.3356
   56MOL0     O 7295   3.329   5.377   7.699  0.1768  0.6889 -0.5202
   56MOL0     C 7296   3.271   5.369   7.833  0.2205  0.0970  0.0207
   56MOL0     C 7297   3.296   5.232   7.889  1.1719 -0.0222 -0.0742
   56MOL0     C 7298   3.201   5.131   7.832 -0.1042  0.9726 -0.1566
   56MOL0     C 7299   3.209   4.987   7.891 -0.6767  0.4275  0.3672
   56MOL0     C 7300   3.105   4.893   7.817 -0.7290 -0.0365 -0.8249
   56MOL0     C 7301   2.955   4.898   7.866  0.1529  0.0229  0.2117
   56MOL0     C 7302   2.881   4.793   7.796 -0.6341  0.1274 -1.2526
   56MOL0     C 7303   2.739   4.843   7.762  0.7133 -0.6055 -0.6072
   56MOL0    Cl 7304   2.636   4.906   7.908  0.4967  0.1621  0.1129
   56MOL0     C 7305   3.559   5.422   7.797  0.3729 -0.1465  0.3499
   56MOL0     C 7306   3.677   5.477   7.768 -0.3891  1.0325  0.5823
   56MOL0     O 7307   3.743   5.782   7.617  0.7465  0.0548 -0.2718
   56MOL0     C 7308   3.981   5.915   7.567 -0.0987 -0.4074  0.0525
   56MOL0     C 7309   4.101   5.979   7.581 -0.3834 -0.6194 -1.2635
   56MOL0     N 7310   4.649   5.987   7.943  0.4302 -0.0605 -0.2485
   56MOL0     N 7311   4.698   6.063   8.028 -0.7755  0.1542 -0.4584
   56MOL0     C 7312   5.964   5.861   8.036 -0.6779 -0.3280 -0.1542
   56MOL0     C 7313   6.077   5.936   7.987  0.2155 -0.6650 -0.0745
   56MOL0     C 7314   6.383   6.207   7.811  0.0448  0.7140  0.7342
   56MOL0     C 7315   6.339   6.265   7.692  0.8260 -0.6621 -0.0231
   56MOL0     C 7316   6.431   6.323   7.599  0.4202 -0.6384 -0.0148
   56MOL0     C 7317   6.563   6.334   7.629 -0.3696  0.3900 -0.0531
   56MOL0     O 7318   6.660   6.386   7.557  0.0510 -0.7980  0.5322
   56MOL0     C 7319   6.626   6.458   7.435 -0.4887  0.3146  0.0109
   56MOL0     C 7320   6.744   6.549   7.403 -0.6813  0.0134  0.2042
   56MOL0     C 7321   6.875   6.474   7.374 -0.1419  1.0445  0.6892
   56MOL0     C 7322   6.998   6.563   7.379 -0.0897 -0.4758  0.5293
   56MOL0     C 7323   7.121   6.485   7.380  1.1774  0.4455 -0.6526
   56MOL0     C 7324   7.220   6.417   7.386  0.8965 -0.8683 -0.6474
   56MOL0     C 7325   6.603   6.276   7.744 -0.9882  0.6778  1.0251
   56MOL0     C 7326   6.521   6.207   7.833  0.5958 -0.3825 -0.0136
   56MOL0     H 7327   5.922   6.244   8.002 -1.0456  0.5676 -0.1089
   56MOL0     H 7328   5.741   6.100   8.089 -0.1675 -1.3329  1.2311
   56MOL0     H 7329   5.584   5.895   7.982 -0.1209 -2.7396 -1.6608
   56MOL0     H 7330   5.586   5.959   8.160  2.1789 -1.8897  2.4256
   56MOL0     H 7331   5.574   5.697   8.195 -0.6232 -0.2111  0.3877
   56MOL0     H 7332   5.503   5.691   8.030 -2.1418  0.8579  0.2904
   56MOL0     H 7333   5.400   5.849   8.256 -1.7469  2.3600 -2.6304
   56MOL0     H 7334   5.318   5.710   8.191 -0.7490 -0.4140 -1.2722
   56MOL0     H 7335   5.380   5.955   8.020 -1.3118  2.7181  1.4689
   56MOL0     H 7336   5.256   5.817   8.004  0.8511  1.0886 -1.9875
   56MOL0     H 7337   5.268   6.042   8.213 -1.2262  0.0743  3.2933
   56MOL0     H 7338   5.181   5.892   8.245  0.3060  0.8433  0.5102
   56MOL0     H 7339   5.026   5.899   8.078  1.5565 -1.4447 -1.4132
   56MOL0     H 7340   5.101   6.045   7.995 -0.8664 -1.2668 -1.1339
   56MOL0     H 7341   4.937   6.021   8.228  2.8467 -2.7403 -1.6267
   56MOL0     H 7342   5.047   6.162   8.240 -3.3966  2.4712 -0.1247
   56MOL0     H 7343   4.968   6.248   8.025 -2.3456  1.8392  1.6810
   56MOL0     H 7344   4.850   6.235   8.150  1.2526 -0.1055  1.0338
   56MOL0     H 7345   4.941   6.039   7.806  0.0302  0.8259  1.2261
   56MOL0     H 7346   4.645   5.798   7.752 -1.9795  0.5862 -4.1240
   56MOL0     H 7347   4.817   5.822   7.718  1.9518  3.7060  2.3200
   56MOL0     H 7348   4.703   5.875   7.523  1.8941 -2.5483  1.7574
   56MOL0     H 7349   4.781   6.015   7.589  1.1818  0.3729  1.7912
   56MOL0     H 7350   4.555   6.096   7.687  0.1268  0.2413 -0.4600
   56MOL0     H 7351   4.545   6.080   7.515  3.5418  0.5315 -0.8313
   56MOL0     H 7352   4.451   5.875   7.736 -0.0621 -0.7140  0.0419
   56MOL0     H 7353   4.445   5.853   7.550 -1.4103  1.2950 -0.3472
   56MOL0     H 7354   4.283   5.713   7.685 -0.4019 -0.0424 -0.7085
   56MOL0     H 7355   4.081   5.601   7.689 -0.3495 -0.2046 -0.8108
   56MOL0     H 7356   3.661   5.497   7.432 -1.9472 -1.4320 -1.0844
   56MOL0     H 7357   3.434   5.426   7.484  0.0822  0.2469  0.1606
   56MOL0     H 7358   3.164   5.386   7.817  0.6392  0.1556 -3.6514
   56MOL0     H 7359   3.311   5.447   7.898  2.4075 -0.9004 -0.0255
   56MOL0     H 7360   3.273   5.251   7.994  0.0927  2.0619 -0.6426
   56MOL0     H 7361   3.397   5.191   7.876  1.0803  0.2064 -1.8463
   56MOL0     H 7362   3.232   5.113   7.728  0.3831 -0.2770  0.1899
   56MOL0     H 7363   3.097   5.160   7.814 -0.9115 -1.9276 -0.8243
   56MOL0     H 7364   3.312   4.952   7.894 -0.6934  0.2747 -0.5084
   56MOL0     H 7365   3.175   4.998   7.995  1.1096  2.2542  0.8332
   56MOL0     H 7366   3.129   4.791   7.848 -1.7003 -0.7283 -2.2075
   56MOL0     H 7367   3.101   4.902   7.708  0.3740  0.2541 -0.8524
   56MOL0     H 7368   2.908   4.993   7.839 -1.3137 -0.6123  0.4585
   56MOL0     H 7369   2.955   4.879   7.974  2.8638 -1.9827 -0.0230
   56MOL0     H 7370   2.937   4.768   7.705 -0.0823  1.2481 -1.2340
   56MOL0     H 7371   2.863   4.700   7.852 -2.3826  2.0884  1.7004
   56MOL0     H 7372   2.689   4.760   7.710 -2.7909  0.5384  0.6086
   56MOL0     H 7373   2.749   4.925   7.690 -1.7868  1.6728  1.4244
   56MOL0     H 7374   3.538   5.398   7.901 -2.6991 -0.9269 -0.3644
   56MOL0     H 7375   3.750   5.478   7.848 -2.8798 -2.0912  3.1695
   56MOL0     H 7376   3.891   5.969   7.539  0.2247 -0.4515 -1.1246
   56MOL0     H 7377   4.105   6.085   7.560 -1.0454  0.0058  1.3704
   56MOL0     H 7378   5.983   5.757   8.059 -0.8752 -0.9738 -2.6511
   56MOL0     H 7379   6.178   5.898   7.979  0.2211 -0.8816  0.8566
   56MOL0     H 7380   6.232   6.271   7.672  0.2503 -1.8918  2.3089
   56MOL0     H 7381   6.392   6.369   7.508 -0.1797 -1.8824 -0.4111
   56MOL0     H 7382   6.542   6.528   7.446  0.0938  0.8365  1.2868
   56MOL0     H 7383   6.610   6.391   7.350 -0.1611  0.9386 -0.5630
   56MOL0     H 7384   6.734   6.618   7.318  1.7995 -1.2233 -1.2270
   56MOL0     H 7385   6.761   6.602   7.497  1.6687 -0.0090 -0.1350
   56MOL0     H 7386   6.873   6.422   7.277 -2.0066  0.7524  0.8513
   56MOL0     H 7387   6.884   6.400   7.454 -1.3576  1.9107  1.6630
   56MOL0     H 7388   7.001   6.633   7.295  0.6456  0.2598  1.1470
   56MOL0     H 7389   7.014   6.611   7.476  1.4187  0.4356 -0.1391
   56MOL0     H 7390   7.316   6.375   7.407  0.4138 -1.1662  1.1251
   56MOL0     H 7391   6.710   6.277   7.762 -0.5607 -0.0262 -1.1575
   56MOL0     H 7392   6.550   6.151   7.922  1.5331 -0.2231 -0.2011
   57MOL0     O 7393   8.001   8.217   9.454  0.0483 -0.8466 -0.3519
   57MOL0     C 7394   7.972   8.186   9.569 -0.5635  0.0639 -0.1931
   57MOL0     O 7395   8.051   8.120   9.659  0.1909 -0.0749 -0.1144
   57MOL0     C 7396   8.183   8.117   9.646 -0.0459 -0.0444 -0.1463
   57MOL0     C 7397   8.252   8.025   9.723 -0.2140  0.1295 -0.2187
   57MOL0     C 7398   8.389   8.015   9.727 -0.2017 -0.0412  0.5789
   57MOL0     C 7399   8.466   8.105   9.647 -0.2863 -0.0433  0.0123
   57MOL0     O 7400   8.604   8.113   9.649 -0.2505  0.3927 -0.0311
   57MOL0     C 7401   8.680   8.019   9.729  0.0565 -0.5458  0.6383
   57MOL0     C 7402   8.827   8.050   9.696 -0.6017 -0.0948 -0.1844
   57MOL0     C 7403   8.877   8.002   9.557  0.3015  0.5438  0.2595
   57MOL0     C 7404   9.023   8.036   9.531  0.0193 -0.1779 -0.3909
   57MOL0     C 7405   9.068   8.051   9.388  0.5115  0.1887 -0.0597
   57MOL0     C 7406   9.096   7.917   9.315  0.0682 -0.3231 -0.1314
   57MOL0     C 7407   9.165   7.930   9.179 -0.3055 -0.6349 -0.0684
   57MOL0     C 7408   9.091   8.025   9.079  0.2628 -0.5433 -0.9489
   57MOL0     N 7409   8.954   7.986   9.051 -0.6857  1.1175  0.6089
   57MOL0     C 7410   8.906   7.925   8.936  0.8837 -0.9344  0.5865
   57MOL0     C 7411   8.772   7.958   8.945 -0.2861 -0.5113  0.1637
   57MOL0     C 7412   8.693   7.917   8.827  0.2275  0.2314 -0.2926
   57MOL0     C 7413   8.547   7.958   8.831 -0.6877  0.2862  0.3091
   57MOL0     C 7414   8.481   7.864   8.933  0.1271  0.4596  0.1608
   57MOL0     C 7415   8.344   7.816   8.903  0.3310  0.5742  0.9403
   57MOL0     O 7416   8.259   7.918   8.851 -0.2986 -0.2655  0.1223
   57MOL0     C 7417   8.136   7.879   8.794 -0.7434 -0.0817 -0.9402
   57MOL0     C 7418   8.084   7.964   8.698  0.1677 -0.0092  0.7414
   57MOL0     C 7419   7.956   7.939   8.652 -0.2242  0.2247 -0.4569
   57MOL0     C 7420   7.874   7.840   8.703 -0.1880  0.4367  0.2043
   57MOL0     C 7421   7.743   7.808   8.647  0.9983 -1.0683  0.1306
   57MOL0     O 7422   7.677   7.707   8.710 -0.0728 -0.2895  0.9025
   57MOL0     C 7423   7.551   7.663   8.671 -0.6011  0.2865  0.4758
   57MOL0     C 7424   7.527   7.526   8.699 -0.2021  0.0768 -0.1333
   57MOL0     C 7425   7.398   7.484   8.677  0.3774 -0.1626  0.6525
   57MOL0     C 7426   7.299   7.567   8.619  1.0528 -0.4977  0.1468
   57MOL0     O 7427   7.180   7.502   8.594 -0.3112  0.2162  0.3932
   57MOL0     C 7428   7.070   7.582   8.545  0.5091  0.1497 -0.3338
   57MOL0     C 7429   6.939   7.494   8.561 -0.6441  0.1252  0.0109
   57MOL0     C 7430   6.815   7.553   8.483 -0.4997  1.1449 -0.2547
   57MOL0     C 7431   6.693   7.451   8.488 -0.2470  0.6282  0.5999
   57MOL0     C 7432   6.606   7.466   8.366 -0.3187 -0.3638  0.2415
   57MOL0     C 7433   6.502   7.582   8.388  0.6871 -0.0863  0.2949
   57MOL0     C 7434   6.409   7.574   8.272 -0.4666  0.2084 -0.1356
   57MOL0     C 7435   6.293   7.676   8.269 -0.4153 -0.3604 -0.1584
   57MOL0    Cl 7436   6.163   7.633   8.374  0.3159 -0.0769  0.2696
   57MOL0     C 7437   7.320   7.703   8.600 -0.1726 -0.3127 -0.5093
   57MOL0     C 7438   7.447   7.746   8.628  0.3097  1.1613 -0.5927
   57MOL0     O 7439   7.698   7.869   8.546 -0.2367  0.2990  0.2195
   57MOL0     C 7440   7.931   7.756   8.802  0.3328 -0.3610 -0.8984
   57MOL0     C 7441   8.053   7.781   8.854 -0.6118 -0.0742  0.0562
   57MOL0     N 7442   8.741   8.033   9.059  0.0047  0.5254 -0.4540
   57MOL0     N 7443   8.852   8.043   9.121  0.4227 -0.5602 -0.4492
   57MOL0     C 7444   8.398   8.210   9.583  0.0949 -0.0014 -0.0396
   57MOL0     C 7445   8.261   8.218   9.581  0.4581  0.3351 -0.2053
   57MOL0     C 7446   7.826   8.210   9.609  0.6180  0.0037 -0.5462
   57MOL0     C 7447   7.733   8.275   9.531 -0.7070 -0.0909  0.5080
   57MOL0     C 7448   7.599   8.299   9.569  0.4062  0.3196  0.2929
   57MOL0     C 7449   7.551   8.248   9.696  0.1209 -0.6108 -0.0821
   57MOL0     O 7450   7.433   8.260   9.759 -0.8231 -0.1173 -0.5276
   57MOL0     C 7451   7.320   8.247   9.668 -0.0759  0.2393  0.4977
   57MOL0     C 7452   7.251   8.385   9.655  0.3326  0.0738  0.0481
   57MOL0     C 7453   7.203   8.441   9.795 -0.3101 -0.1212 -0.1885
   57MOL0     C 7454   7.096   8.552   9.785 -0.1071  0.2089  0.1905
   57MOL0     C 7455   7.124   8.658   9.692 -0.2711 -1.1235 -0.5503
   57MOL0     C 7456   7.168   8.748   9.623  0.7598  0.4065 -0.1124
   57MOL0     C 7457   7.651   8.193   9.773 -0.6650 -0.0186 -0.4643
   57MOL0     C 7458   7.784   8.168   9.734  0.8886 -0.1292  0.5660
   57MOL0     H 7459   8.201   7.943   9.773  3.1662 -1.1236  1.5104
   57MOL0     H 7460   8.432   7.944   9.797  0.4370 -0.9435 -0.6877
   57MOL0     H 7461   8.670   7.912   9.709  2.2667 -0.7633  0.3576
   57MOL0     H 7462   8.666   8.031   9.837 -1.4417 -0.4426  0.4428
   57MOL0     H 7463   8.887   8.010   9.778  0.8056 -0.0905 -1.1885
   57MOL0     H 7464   8.845   8.157   9.709  1.6202 -0.5556  1.0799
   57MOL0     H 7465   8.819   8.048   9.476 -1.3076  0.8004  1.4921
   57MOL0     H 7466   8.864   7.895   9.538  5.3080 -0.0942 -0.8217
   57MOL0     H 7467   9.054   8.132   9.574 -1.2883  1.5641 -3.0536
   57MOL0     H 7468   9.090   7.959   9.570 -0.9685 -0.9560 -0.1818
   57MOL0     H 7469   9.164   8.103   9.387  0.0644  1.0540 -1.2513
   57MOL0     H 7470   9.001   8.106   9.320  1.2952 -1.3163 -2.1636
   57MOL0     H 7471   9.006   7.855   9.313 -0.8210  0.7651  2.0080
   57MOL0     H 7472   9.167   7.863   9.379  1.0879 -1.3589 -2.0562
   57MOL0     H 7473   9.267   7.967   9.193 -0.1924 -0.7935 -0.4682
   57MOL0     H 7474   9.169   7.831   9.133  0.2543 -1.2998  1.3459
   57MOL0     H 7475   9.146   8.033   8.985  1.1893 -0.4511 -0.4040
   57MOL0     H 7476   9.081   8.128   9.116  1.3582 -0.3622 -1.1351
   57MOL0     H 7477   8.959   7.867   8.862 -1.0246 -2.0896  0.0676
   57MOL0     H 7478   8.704   7.809   8.819 -0.6338  0.1958 -1.2471
   57MOL0     H 7479   8.729   7.956   8.731 -1.8171 -0.6349 -1.4779
   57MOL0     H 7480   8.490   7.955   8.738  0.4702  0.8912 -0.4458
   57MOL0     H 7481   8.541   8.058   8.876  2.1120  0.0530  1.3784
   57MOL0     H 7482   8.539   7.772   8.943  1.8507  1.3284 -1.3362
   57MOL0     H 7483   8.473   7.910   9.031 -3.2605 -1.1315  0.7788
   57MOL0     H 7484   8.298   7.785   8.997  0.3081  2.8112  1.7314
   57MOL0     H 7485   8.356   7.730   8.836  3.3597 -1.0270  3.3009
   57MOL0     H 7486   8.152   8.043   8.669  0.0350 -0.7991 -1.9712
   57MOL0     H 7487   7.924   7.999   8.567  3.9003 -0.0524 -2.4769
   57MOL0     H 7488   7.610   7.467   8.737  0.1378  0.1567 -0.7396
   57MOL0     H 7489   7.358   7.390   8.714 -1.8605  0.3332 -0.3462
   57MOL0     H 7490   7.075   7.608   8.439 -2.0703 -1.1245 -0.8356
   57MOL0     H 7491   7.057   7.681   8.588 -0.8918  1.7265 -3.9814
   57MOL0     H 7492   6.923   7.477   8.668  1.8074 -0.8951  0.2736
   57MOL0     H 7493   6.954   7.389   8.532 -2.5387  0.1145 -1.1124
   57MOL0     H 7494   6.845   7.570   8.380  4.3075 -0.2287  0.6506
   57MOL0     H 7495   6.787   7.642   8.540  0.2978  0.7116  0.8589
   57MOL0     H 7496   6.741   7.353   8.480 -2.7035 -0.7300  1.3617
   57MOL0     H 7497   6.636   7.445   8.581 -1.1619 -0.0195  0.0116
   57MOL0     H 7498   6.550   7.374   8.347  1.4688 -1.1521 -1.5056
   57MOL0     H 7499   6.667   7.479   8.276 -1.9477  0.7855 -0.7700
   57MOL0     H 7500   6.557   7.676   8.403  2.4071 -1.2036  1.2578
   57MOL0     H 7501   6.440   7.558   8.474  0.9277 -2.7278 -0.1928
   57MOL0     H 7502   6.466   7.608   8.185 -0.2084  1.2519  0.4232
   57MOL0     H 7503   6.369   7.473   8.262  2.3478 -1.0883  0.6944
   57MOL0     H 7504   6.250   7.687   8.169 -0.5383  0.0257 -0.0645
   57MOL0     H 7505   6.329   7.775   8.298 -0.4158  1.1441 -4.5591
   57MOL0     H 7506   7.245   7.776   8.575 -0.9117 -0.8320  0.1575
   57MOL0     H 7507   7.458   7.851   8.603  1.4197  1.3341  0.5076
   57MOL0     H 7508   7.886   7.667   8.846  0.7815  0.0011  0.3465
   57MOL0     H 7509   8.097   7.726   8.937  1.7334  0.1646 -0.9474
   57MOL0     H 7510   8.450   8.287   9.527 -0.0740  2.2888  2.7786
   57MOL0     H 7511   8.219   8.302   9.526  0.7591  0.0986 -0.8134
   57MOL0     H 7512   7.772   8.306   9.435 -2.1902 -0.2869 -0.1844
   57MOL0     H 7513   7.536   8.344   9.493 -0.3629 -0.9978  0.1188
   57MOL0     H 7514   7.244   8.181   9.709  1.2956 -0.6601  1.7168
   57MOL0     H 7515   7.351   8.202   9.574 -0.0219  2.4377 -0.6084
   57MOL0     H 7516   7.309   8.458   9.599  0.2328  0.5945  0.6150
   57MOL0     H 7517   7.157   8.368   9.601 -0.9286  2.8192  1.1814
   57MOL0     H 7518   7.289   8.477   9.853 -0.5328  1.8531 -1.0004
   57MOL0     H 7519   7.161   8.365   9.861  0.2201  0.1628  0.4946
   57MOL0     H 7520   6.996   8.520   9.754 -0.6664  1.6320  0.4184
   57MOL0     H 7521   7.080   8.592   9.886  1.0612  1.9329 -0.2689
   57MOL0     H 7522   7.199   8.818   9.548 -2.3608  1.4012 -0.6149
   57MOL0     H 7523   7.622   8.161   9.873  1.3234  0.9599  0.4977
   57MOL0     H 7524   7.839   8.110   9.808  2.6257 -0.4661 -0.9155
   58MOL0     O 7525   0.384   3.521   6.325  0.1088 -0.0660  0.0091
   58MOL0     C 7526   0.467   3.470   6.395 -0.6629 -0.0482 -0.2063
   58MOL0     O 7527   0.450   3.364   6.477 -0.0126  0.3126 -0.0529
   58MOL0     C 7528   0.337   3.287   6.462 -0.0643  0.5309 -0.1029
   58MOL0     C 7529   0.350   3.153   6.416  0.0297 -0.0840  0.5424
   58MOL0     C 7530   0.243   3.070   6.395 -0.0419  0.6309 -0.6513
   58MOL0     C 7531   0.114   3.109   6.413 -0.9955  0.4246  0.7530
   58MOL0     O 7532   0.005   3.017   6.403 -0.0252 -0.1224  0.4319
   58MOL0     C 7533  -0.127   3.064   6.366 -0.4826  0.1852 -0.0036
   58MOL0     C 7534  -0.200   2.961   6.270 -0.2342  0.1090 -0.0743
   58MOL0     C 7535  -0.350   2.953   6.272 -0.1932 -0.0915 -0.8154
   58MOL0     C 7536  -0.420   2.912   6.402  0.3604  0.3407 -0.3317
   58MOL0     C 7537  -0.560   2.972   6.427 -0.4005  0.2320 -0.4432
   58MOL0     C 7538  -0.661   2.942   6.324 -1.1543  0.2383  0.7482
   58MOL0     C 7539  -0.807   2.949   6.361  0.6207 -0.3039  0.5536
   58MOL0     C 7540  -0.848   2.834   6.459 -1.0413 -0.4963  0.5032
   58MOL0     N 7541  -0.987   2.837   6.477  0.0893  0.4057 -0.0281
   58MOL0     C 7542  -1.067   2.801   6.376  0.7476  1.0870 -0.3390
   58MOL0     C 7543  -1.191   2.806   6.426  0.2610 -0.6533 -0.5915
   58MOL0     C 7544  -1.309   2.742   6.361  1.0941  0.2967 -0.3724
   58MOL0     C 7545  -1.426   2.842   6.376  0.4373  0.0769  0.8195
   58MOL0     C 7546  -1.554   2.774   6.324 -0.3122 -0.4407 -0.2911
   58MOL0     C 7547  -1.677   2.856   6.342  0.6035  0.7785  0.8535
   58MOL0     O 7548  -1.787   2.798   6.270 -0.2854  0.7312  0.9970
   58MOL0     C 7549  -1.910   2.853   6.281 -0.0806  0.0692  0.5464
   58MOL0     C 7550  -1.950   2.958   6.368  0.6319  0.0883  0.4085
   58MOL0     C 7551  -2.087   2.994   6.367  0.6383  0.0846 -0.3246
   58MOL0     C 7552  -2.179   2.935   6.283  0.4448  0.4493 -0.0219
   58MOL0     C 7553  -2.325   2.971   6.276  0.8807 -0.3562  0.1623
   58MOL0     O 7554  -2.394   2.905   6.185 -0.1960 -0.1919 -0.2983
   58MOL0     C 7555  -2.523   2.930   6.153 -0.7426  0.1727  1.0462
   58MOL0     C 7556  -2.551   2.919   6.012  0.7050 -0.2997 -0.5522
   58MOL0     C 7557  -2.688   2.945   5.976  0.2522 -0.0088  0.1245
   58MOL0     C 7558  -2.787   2.972   6.071 -0.1235 -0.1216  0.3139
   58MOL0     O 7559  -2.925   2.976   6.032 -0.8169  0.5159  0.7253
   58MOL0     C 7560  -3.031   3.029   6.114 -0.5714  0.1161 -0.2597
   58MOL0     C 7561  -3.121   2.927   6.187  0.5151  0.0323  0.4792
   58MOL0     C 7562  -3.202   2.840   6.086 -0.0473 -0.4490 -1.1454
   58MOL0     C 7563  -3.276   2.722   6.146  0.6274 -0.0553 -0.1823
   58MOL0     C 7564  -3.334   2.651   6.025 -0.1689  0.1405  0.3021
   58MOL0     C 7565  -3.442   2.549   6.064 -0.4966  0.2239  0.7046
   58MOL0     C 7566  -3.532   2.526   5.936 -0.0719 -0.3399 -0.5759
   58MOL0     C 7567  -3.650   2.443   5.984  0.1246  0.2747 -0.7705
   58MOL0    Cl 7568  -3.609   2.269   6.017 -0.0391 -0.4026  0.1200
   58MOL0     C 7569  -2.758   2.977   6.209  0.4844 -0.1434  0.1359
   58MOL0     C 7570  -2.622   2.957   6.247 -0.0886  0.8196 -0.1505
   58MOL0     O 7571  -2.365   3.070   6.339  0.1239  0.3443  0.0034
   58MOL0     C 7572  -2.136   2.838   6.196  0.5517  1.2972 -0.6697
   58MOL0     C 7573  -2.007   2.794   6.197 -0.1677  0.2939 -0.2337
   58MOL0     N 7574  -1.175   2.831   6.560 -0.2948 -0.2578  0.0385
   58MOL0     N 7575  -1.057   2.853   6.590 -0.0930 -0.2639  0.6597
   58MOL0     C 7576   0.101   3.244   6.442 -0.3865  0.1367 -0.0798
   58MOL0     C 7577   0.203   3.330   6.464 -0.9435 -0.2853 -0.0989
   58MOL0     C 7578   0.596   3.533   6.384 -1.3973 -0.7607 -0.8521
   58MOL0     C 7579   0.631   3.643   6.295  0.0878  0.2906 -0.3948
   58MOL0     C 7580   0.757   3.706   6.301  0.5130 -0.2443  0.4882
   58MOL0     C 7581   0.852   3.664   6.394  0.0417  0.3545  1.3440
   58MOL0     O 7582   0.973   3.731   6.399  0.6321  0.2906 -0.6679
   58MOL0     C 7583   1.083   3.659   6.452 -0.4527  0.2310 -0.2916
   58MOL0     C 7584   1.217   3.739   6.423  0.1505 -0.6258 -0.2072
   58MOL0     C 7585   1.336   3.685   6.503 -0.9464  0.2624 -0.2040
   58MOL0     C 7586   1.455   3.778   6.476  0.1972 -0.0819 -0.3499
   58MOL0     C 7587   1.576   3.722   6.534  0.0146  0.7550  0.2732
   58MOL0     C 7588   1.670   3.654   6.573  0.2145 -0.4768 -0.6256
   58MOL0     C 7589   0.825   3.560   6.481  0.5360  0.1184 -1.0896
   58MOL0     C 7590   0.700   3.489   6.471  0.0490 -0.1031  0.6150
   58MOL0     H 7591   0.447   3.120   6.381 -0.1422  0.0256 -0.0440
   58MOL0     H 7592   0.249   2.970   6.355 -0.3210  1.0251 -1.7062
   58MOL0     H 7593  -0.130   3.161   6.317 -0.8524  0.3712  0.3842
   58MOL0     H 7594  -0.187   3.076   6.457  0.9118  1.1691  0.8229
   58MOL0     H 7595  -0.152   2.871   6.308  0.8872  0.1347 -1.3389
   58MOL0     H 7596  -0.164   2.986   6.169 -0.5731  1.2393  0.0670
   58MOL0     H 7597  -0.383   2.884   6.194 -1.6526  1.5157 -1.6911
   58MOL0     H 7598  -0.389   3.051   6.244  0.8408  0.4061 -0.5469
   58MOL0     H 7599  -0.430   2.803   6.401 -0.1673  0.3823  0.1590
   58MOL0     H 7600  -0.368   2.946   6.492 -2.9576  2.9389  0.7733
   58MOL0     H 7601  -0.560   3.081   6.419 -0.1542  0.1374 -2.1557
   58MOL0     H 7602  -0.594   2.932   6.523  1.9919  1.9575  1.2236
   58MOL0     H 7603  -0.640   2.843   6.284 -1.1741 -0.2242  1.8300
   58MOL0     H 7604  -0.653   3.012   6.241 -1.0246 -0.0944  0.4778
   58MOL0     H 7605  -0.824   3.046   6.408 -1.1030 -0.7675  0.9613
   58MOL0     H 7606  -0.868   2.937   6.271  0.3586 -0.7101  0.7839
   58MOL0     H 7607  -0.794   2.860   6.550 -2.1422  1.7294  0.5933
   58MOL0     H 7608  -0.806   2.744   6.413 -0.8792 -0.3767  0.4169
   58MOL0     H 7609  -1.037   2.782   6.273 -3.4306 -1.6203 -1.2829
   58MOL0     H 7610  -1.338   2.655   6.421 -2.7752  1.5256 -0.1865
   58MOL0     H 7611  -1.274   2.704   6.266  1.2329 -0.4998 -0.0068
   58MOL0     H 7612  -1.404   2.938   6.329 -3.1026  0.8836  0.4961
   58MOL0     H 7613  -1.449   2.866   6.480 -0.3920 -2.0484  1.1832
   58MOL0     H 7614  -1.545   2.759   6.216 -3.4203 -1.5925 -0.5041
   58MOL0     H 7615  -1.567   2.676   6.370 -2.4053 -0.5783 -1.0605
   58MOL0     H 7616  -1.667   2.954   6.294  2.6130  0.6538  0.9553
   58MOL0     H 7617  -1.699   2.866   6.449  0.5697 -1.1556  1.0624
   58MOL0     H 7618  -1.885   2.998   6.445  2.0771 -0.4972 -0.4790
   58MOL0     H 7619  -2.118   3.064   6.444 -1.2093  0.5010 -1.4120
   58MOL0     H 7620  -2.477   2.902   5.935  1.3290  1.9943 -0.5237
   58MOL0     H 7621  -2.722   2.942   5.873 -0.8592  0.6225  0.4506
   58MOL0     H 7622  -3.110   3.085   6.064 -0.6178  0.8808  0.6490
   58MOL0     H 7623  -2.995   3.091   6.197 -2.5909  1.0069 -0.0137
   58MOL0     H 7624  -3.185   2.984   6.255 -2.0495 -0.1685 -1.5754
   58MOL0     H 7625  -3.057   2.856   6.240 -1.0280 -2.2845 -0.6009
   58MOL0     H 7626  -3.147   2.801   5.999  1.2707  1.1840 -1.0942
   58MOL0     H 7627  -3.268   2.911   6.035 -1.0499 -0.9057 -0.5224
   58MOL0     H 7628  -3.215   2.650   6.203 -0.2771 -0.3791  0.4044
   58MOL0     H 7629  -3.352   2.755   6.217  0.2356  1.1180 -1.1296
   58MOL0     H 7630  -3.251   2.599   5.977 -0.8255 -0.6963  0.0290
   58MOL0     H 7631  -3.380   2.717   5.952 -1.1676  0.6108  1.3193
   58MOL0     H 7632  -3.497   2.583   6.152 -2.2026  0.3198 -0.3626
   58MOL0     H 7633  -3.388   2.458   6.091  0.6812  0.8616  0.5927
   58MOL0     H 7634  -3.572   2.621   5.898 -1.1825 -0.4637  0.2318
   58MOL0     H 7635  -3.477   2.476   5.856 -0.0265 -0.0619 -0.7221
   58MOL0     H 7636  -3.726   2.449   5.905  0.8372 -1.7888 -1.6805
   58MOL0     H 7637  -3.701   2.479   6.073 -0.3506  1.0213 -1.3301
   58MOL0     H 7638  -2.841   2.986   6.278  0.8893  0.5466  0.5465
   58MOL0     H 7639  -2.603   2.941   6.352  2.2239 -2.9193 -0.9824
   58MOL0     H 7640  -2.205   2.788   6.129 -0.6427 -0.9673  2.0905
   58MOL0     H 7641  -1.971   2.713   6.134  1.5267  0.2768  0.6964
   58MOL0     H 7642  -0.001   3.278   6.453 -1.3709 -2.2008 -1.3495
   58MOL0     H 7643   0.178   3.435   6.478 -0.1361 -0.0635 -0.2492
   58MOL0     H 7644   0.567   3.674   6.213  1.2931 -0.6313 -1.7305
   58MOL0     H 7645   0.772   3.793   6.238 -1.6536 -0.4708 -0.4181
   58MOL0     H 7646   1.088   3.560   6.404  3.2588 -0.7019  1.5925
   58MOL0     H 7647   1.072   3.649   6.561  2.0339  1.6479  0.1748
   58MOL0     H 7648   1.240   3.741   6.316 -1.6829 -2.2122 -0.6906
   58MOL0     H 7649   1.199   3.841   6.457  1.2680 -0.2578 -0.6711
   58MOL0     H 7650   1.363   3.581   6.483  0.9363  0.6959 -0.0947
   58MOL0     H 7651   1.312   3.679   6.610  2.5627 -0.6852  0.6679
   58MOL0     H 7652   1.476   3.801   6.371  3.3781 -0.5895  0.0740
   58MOL0     H 7653   1.440   3.874   6.526  2.4780  1.5265 -2.5050
   58MOL0     H 7654   1.752   3.605   6.621 -1.1014 -1.1065  1.1106
   58MOL0     H 7655   0.902   3.528   6.550  1.0858 -0.5420 -1.9841
   58MOL0     H 7656   0.679   3.397   6.525  1.2877 -1.7862 -1.5987
   59MOL0     O 7657   8.244   0.341  11.101 -0.0606 -0.2557 -0.5161
   59MOL0     C 7658   8.348   0.283  11.068  0.3739  1.1904  0.3256
   59MOL0     O 7659   8.382   0.155  11.105 -0.8178 -0.1936  0.7029
   59MOL0     C 7660   8.291   0.095  11.195 -0.2861 -0.7150  0.1379
   59MOL0     C 7661   8.175   0.047  11.133 -0.0358 -1.3084 -0.2944
   59MOL0     C 7662   8.082  -0.021  11.202  0.7630  0.4405  0.2816
   59MOL0     C 7663   8.110  -0.049  11.338 -0.3995  0.3164 -0.3334
   59MOL0     O 7664   8.014  -0.117  11.419 -0.2051  0.5186  0.3508
   59MOL0     C 7665   7.994  -0.082  11.562  0.3605  0.2822 -0.5995
   59MOL0     C 7666   7.873  -0.143  11.622 -0.0056  0.8339  0.0444
   59MOL0     C 7667   7.856  -0.085  11.764 -0.2945 -0.4389  0.6045
   59MOL0     C 7668   7.768  -0.164  11.856  0.0641 -0.3456 -0.0920
   59MOL0     C 7669   7.740  -0.091  11.990  0.5643  0.1433 -0.9882
   59MOL0     C 7670   7.665  -0.175  12.095  1.0706  0.1299 -0.1501
   59MOL0     C 7671   7.558  -0.266  12.044 -0.0201 -0.6764  0.0658
   59MOL0     C 7672   7.476  -0.335  12.155 -0.1803 -0.2470  0.2286
   59MOL0     N 7673   7.392  -0.441  12.114 -0.1674 -0.8741  1.2936
   59MOL0     C 7674   7.286  -0.484  12.186  0.3211 -1.3901  0.7155
   59MOL0     C 7675   7.255  -0.609  12.149 -0.0032 -0.0951  0.2304
   59MOL0     C 7676   7.157  -0.701  12.215 -0.8483  0.1184  0.1955
   59MOL0     C 7677   7.229  -0.828  12.249  0.1374  0.1148  0.1270
   59MOL0     C 7678   7.358  -0.799  12.337  0.7934  0.7108 -0.2790
   59MOL0     C 7679   7.479  -0.856  12.265  0.0245 -0.4774 -0.2829
   59MOL0     O 7680   7.598  -0.839  12.343 -0.4976  0.2768  0.1355
   59MOL0     C 7681   7.684  -0.742  12.306  0.4692  0.7076  0.2822
   59MOL0     C 7682   7.810  -0.764  12.360  0.9831 -0.2032  0.0341
   59MOL0     C 7683   7.924  -0.683  12.327 -0.8218  0.7231  0.1507
   59MOL0     C 7684   7.906  -0.570  12.244  0.6636  0.8597 -0.0405
   59MOL0     C 7685   8.022  -0.490  12.199  0.3899  0.7287 -0.3158
   59MOL0     O 7686   8.125  -0.477  12.281 -0.1815  0.0274  0.3688
   59MOL0     C 7687   8.241  -0.422  12.233  0.5421 -0.3878  0.3681
   59MOL0     C 7688   8.313  -0.368  12.336 -0.0051 -0.8894 -0.1327
   59MOL0     C 7689   8.434  -0.311  12.303 -0.1535 -0.4433 -0.3709
   59MOL0     C 7690   8.481  -0.312  12.171  0.1235 -0.3617  0.2014
   59MOL0     O 7691   8.598  -0.256  12.133 -0.6624 -0.3367 -0.7116
   59MOL0     C 7692   8.711  -0.253  12.226 -0.2106  0.4904 -0.1861
   59MOL0     C 7693   8.820  -0.190  12.152  0.1345 -0.6680  0.4025
   59MOL0     C 7694   8.937  -0.170  12.250 -0.3159 -0.0434  0.0029
   59MOL0     C 7695   9.068  -0.143  12.169  1.4422  0.4146 -0.7551
   59MOL0     C 7696   9.192  -0.156  12.260  0.3089 -0.5641  0.1986
   59MOL0     C 7697   9.307  -0.167  12.159 -0.5667 -0.6447 -0.9244
   59MOL0     C 7698   9.433  -0.124  12.242 -0.9607  0.2693  0.3837
   59MOL0     C 7699   9.561  -0.118  12.157  0.3943  0.0633 -0.0942
   59MOL0    Cl 7700   9.586  -0.252  12.047 -0.0799  0.2172 -0.1139
   59MOL0     C 7701   8.406  -0.364  12.071 -0.1312 -0.5258 -1.5154
   59MOL0     C 7702   8.283  -0.421  12.100  0.1635  0.2713  0.2211
   59MOL0     O 7703   8.001  -0.425  12.093 -0.0551  0.0589  0.3143
   59MOL0     C 7704   7.776  -0.538  12.204  0.6387 -0.3406 -0.2503
   59MOL0     C 7705   7.668  -0.624  12.236  0.5217  0.8041  0.5924
   59MOL0     N 7706   7.344  -0.636  12.049 -0.1980 -0.1092 -0.1531
   59MOL0     N 7707   7.417  -0.533  12.019 -0.6821 -0.7501 -0.8908
   59MOL0     C 7708   8.234  -0.016  11.403 -1.6964  0.5230 -0.0647
   59MOL0     C 7709   8.326   0.059  11.330  0.3093 -0.6668 -0.3798
   59MOL0     C 7710   8.452   0.344  10.982  0.3668 -0.1990  0.0394
   59MOL0     C 7711   8.581   0.286  10.959  0.4783  0.9922 -0.8148
   59MOL0     C 7712   8.682   0.368  10.899  0.0400  0.7930 -0.3879
   59MOL0     C 7713   8.646   0.483  10.827 -0.0740 -0.4006 -0.4920
   59MOL0     O 7714   8.741   0.543  10.752 -0.3837 -0.1964 -0.6379
   59MOL0     C 7715   8.703   0.665  10.683 -0.4905 -0.1617  0.1177
   59MOL0     C 7716   8.802   0.680  10.570 -0.0436 -0.4079  0.8608
   59MOL0     C 7717   8.784   0.822  10.509 -0.2612  0.1374  0.3529
   59MOL0     C 7718   8.914   0.878  10.450  1.0410  0.1035  0.7809
   59MOL0     C 7719   8.894   0.984  10.356 -0.2676 -0.4512 -0.0108
   59MOL0     C 7720   8.849   1.067  10.275 -0.9724 -0.5986 -0.5033
   59MOL0     C 7721   8.519   0.540  10.858  0.1935  0.6145 -1.1980
   59MOL0     C 7722   8.417   0.476  10.935  0.1449  0.7744  0.4064
   59MOL0     H 7723   8.156   0.072  11.030  1.1989 -2.7184 -0.9075
   59MOL0     H 7724   7.988  -0.045  11.152  1.0888 -2.6657  0.9407
   59MOL0     H 7725   7.980   0.026  11.564 -1.7529  0.1365 -2.8119
   59MOL0     H 7726   8.081  -0.120  11.616 -0.9770 -2.6819 -0.3099
   59MOL0     H 7727   7.881  -0.252  11.629  0.7208  0.8607 -0.2313
   59MOL0     H 7728   7.785  -0.112  11.566 -2.9838 -1.7349  2.9420
   59MOL0     H 7729   7.827   0.019  11.745  1.9850 -0.3306 -3.2786
   59MOL0     H 7730   7.949  -0.086  11.821  0.2850 -1.2169 -0.3243
   59MOL0     H 7731   7.677  -0.194  11.805 -1.6918 -0.8836  3.1074
   59MOL0     H 7732   7.815  -0.257  11.889  0.0518  0.0632  1.1387
   59MOL0     H 7733   7.684   0.002  11.977 -0.2788  0.1470  2.0467
   59MOL0     H 7734   7.839  -0.058  12.025 -0.1407  0.5474  0.6982
   59MOL0     H 7735   7.600  -0.107  12.150 -0.2297 -0.5409 -0.8160
   59MOL0     H 7736   7.736  -0.234  12.153 -0.7871 -3.3460 -1.1594
   59MOL0     H 7737   7.486  -0.214  11.980  1.3808 -0.2041 -1.1962
   59MOL0     H 7738   7.612  -0.341  11.985 -0.3297 -2.6047  2.1238
   59MOL0     H 7739   7.429  -0.253  12.209  0.2158  2.1982 -2.8673
   59MOL0     H 7740   7.557  -0.378  12.214  0.9871 -0.1982 -1.2896
   59MOL0     H 7741   7.241  -0.432  12.270  0.4982  0.0098 -0.0272
   59MOL0     H 7742   7.067  -0.703  12.154 -1.5059  0.4680  1.1211
   59MOL0     H 7743   7.130  -0.661  12.313 -1.4750 -0.4140  0.2430
   59MOL0     H 7744   7.257  -0.885  12.160 -1.5681  0.2760 -0.5633
   59MOL0     H 7745   7.164  -0.889  12.313 -1.1468  3.8034  2.6405
   59MOL0     H 7746   7.366  -0.697  12.375 -1.5671 -0.3139  3.6422
   59MOL0     H 7747   7.349  -0.866  12.423 -0.9641 -1.2704 -1.8611
   59MOL0     H 7748   7.497  -0.805  12.170  0.1692 -1.0510 -0.5635
   59MOL0     H 7749   7.463  -0.962  12.245 -2.5459 -0.2960  0.4086
   59MOL0     H 7750   7.831  -0.838  12.437 -1.5804 -0.3751  0.6370
   59MOL0     H 7751   8.019  -0.727  12.356 -2.0481 -1.0162  1.8313
   59MOL0     H 7752   8.274  -0.357  12.436  0.6164  1.0318 -0.0769
   59MOL0     H 7753   8.508  -0.269  12.371  1.0001 -1.3573 -1.0323
   59MOL0     H 7754   8.747  -0.351  12.258  0.5431  0.8320  0.0299
   59MOL0     H 7755   8.695  -0.185  12.310 -1.0826  1.4783 -1.1140
   59MOL0     H 7756   8.801  -0.090  12.111  2.5342  1.1799  3.3703
   59MOL0     H 7757   8.841  -0.262  12.073 -0.5306  0.2410 -0.6430
   59MOL0     H 7758   8.952  -0.247  12.326  0.1207  2.3740  2.5263
   59MOL0     H 7759   8.911  -0.083  12.310 -2.6716 -0.0668 -0.8992
   59MOL0     H 7760   9.073  -0.214  12.085 -1.4293 -1.3897  0.4307
   59MOL0     H 7761   9.053  -0.044  12.126  0.1049 -0.2954 -2.0511
   59MOL0     H 7762   9.191  -0.235  12.335 -3.9067  0.7516  1.8433
   59MOL0     H 7763   9.201  -0.067  12.323 -1.3017 -0.9954  1.0995
   59MOL0     H 7764   9.303  -0.111  12.066  4.7595 -1.2129 -1.8320
   59MOL0     H 7765   9.310  -0.272  12.128 -1.2474 -0.2639 -2.3518
   59MOL0     H 7766   9.426  -0.024  12.286  1.7924 -0.6272  3.2985
   59MOL0     H 7767   9.448  -0.196  12.322 -0.6669 -2.2437 -1.7944
   59MOL0     H 7768   9.637  -0.103  12.234  0.2353  1.1115 -0.1323
   59MOL0     H 7769   9.551  -0.024  12.101 -1.1247  0.6632  1.1134
   59MOL0     H 7770   8.448  -0.361  11.971 -0.9767 -0.5662 -1.8787
   59MOL0     H 7771   8.227  -0.472  12.022  1.4713 -2.3191  0.8542
   59MOL0     H 7772   7.741  -0.447  12.156 -0.8234 -0.3727  0.6819
   59MOL0     H 7773   7.570  -0.602  12.194  1.1534 -1.5108 -2.4095
   59MOL0     H 7774   8.254  -0.062  11.499 -1.0959  0.3444 -0.2706
   59MOL0     H 7775   8.420   0.082  11.379 -0.4179 -3.3349  2.5183
   59MOL0     H 7776   8.611   0.188  10.997 -1.9597  0.7160  0.5668
   59MOL0     H 7777   8.786   0.336  10.892 -0.4343 -1.2829  0.9650
   59MOL0     H 7778   8.686   0.756  10.742  1.3413  1.6198 -1.9125
   59MOL0     H 7779   8.612   0.653  10.624  0.1335  0.8858 -1.1074
   59MOL0     H 7780   8.905   0.673  10.607  0.0754 -2.7562  0.2616
   59MOL0     H 7781   8.781   0.594  10.506 -3.5407  0.1469  1.0309
   59MOL0     H 7782   8.739   0.886  10.585 -2.6793  0.0561 -0.9194
   59MOL0     H 7783   8.709   0.811  10.430 -1.1065 -0.3881  1.2064
   59MOL0     H 7784   8.979   0.920  10.528 -0.0897  1.2551  1.1360
   59MOL0     H 7785   8.956   0.789  10.401 -4.0000 -3.0645  1.4467
   59MOL0     H 7786   8.797   1.126  10.203  2.3493  2.2549 -0.8627
   59MOL0     H 7787   8.497   0.637  10.815 -2.8345  0.9125  0.7618
   59MOL0     H 7788   8.318   0.514  10.957 -1.0904 -3.1430  2.5511
   60MOL0     O 7789   2.415   9.107   8.146  0.2723  0.0208  0.4812
   60MOL0     C 7790   2.437   8.994   8.105 -0.2781  0.7008  0.3535
   60MOL0     O 7791   2.344   8.907   8.046  0.6289 -0.5453 -1.1384
   60MOL0     C 7792   2.239   8.957   7.970 -0.1514 -0.2019  1.0102
   60MOL0     C 7793   2.241   9.084   7.909 -0.3253 -0.0216  0.3908
   60MOL0     C 7794   2.133   9.125   7.833 -0.5264  0.5521  0.0289
   60MOL0     C 7795   2.028   9.039   7.811  0.4768  0.0074  0.5054
   60MOL0     O 7796   1.916   9.087   7.739  0.4376 -0.1690  0.1261
   60MOL0     C 7797   1.793   9.013   7.745  0.5005 -0.3343  0.2439
   60MOL0     C 7798   1.694   9.123   7.705 -0.0899  0.5882  0.3760
   60MOL0     C 7799   1.557   9.071   7.662  0.5158  0.0141 -0.2170
   60MOL0     C 7800   1.509   8.944   7.737 -0.1116 -1.0800  0.0437
   60MOL0     C 7801   1.380   8.897   7.682 -0.2690 -0.1346  0.2491
   60MOL0     C 7802   1.349   8.768   7.751 -0.0270  0.3719  0.3824
   60MOL0     C 7803   1.219   8.710   7.691 -0.1082  0.6077  0.2093
   60MOL0     C 7804   1.206   8.577   7.753 -0.1916  0.2140 -0.9842
   60MOL0     N 7805   1.088   8.516   7.698 -0.4263 -0.0547  0.9594
   60MOL0     C 7806   1.087   8.437   7.587  0.3397 -0.3804  0.5431
   60MOL0     C 7807   0.961   8.408   7.554  1.6127 -0.6938 -0.2564
   60MOL0     C 7808   0.908   8.352   7.428  0.4407  0.7225 -0.4861
   60MOL0     C 7809   0.932   8.442   7.307  0.0858  0.0825  0.6926
   60MOL0     C 7810   0.867   8.581   7.326 -0.0150  1.6103 -0.1541
   60MOL0     C 7811   0.866   8.665   7.204 -0.3305  0.3485 -0.6594
   60MOL0     O 7812   0.846   8.586   7.085  0.6896  0.0193 -0.0107
   60MOL0     C 7813   0.727   8.513   7.076 -0.9429 -0.0817  0.0174
   60MOL0     C 7814   0.609   8.561   7.111 -0.2035 -0.5836 -0.4801
   60MOL0     C 7815   0.489   8.506   7.063  0.4303  0.1593 -0.0581
   60MOL0     C 7816   0.500   8.389   6.982  0.3064 -0.5281  0.8116
   60MOL0     C 7817   0.382   8.327   6.923 -0.2472 -0.2696  0.2250
   60MOL0     O 7818   0.268   8.405   6.927  0.0658  0.1802 -0.4633
   60MOL0     C 7819   0.147   8.344   6.901 -0.5105 -0.0108 -0.5432
   60MOL0     C 7820   0.056   8.413   6.825  0.6793  0.0158  0.5704
   60MOL0     C 7821  -0.062   8.352   6.777 -0.1859  0.7697  0.8460
   60MOL0     C 7822  -0.100   8.225   6.824 -0.2357  0.3548  0.4776
   60MOL0     O 7823  -0.218   8.168   6.792  0.1660 -0.4525  0.1992
   60MOL0     C 7824  -0.305   8.221   6.691  0.1849  0.1809 -0.6024
   60MOL0     C 7825  -0.408   8.125   6.644  0.1397  0.0627 -0.3335
   60MOL0     C 7826  -0.506   8.094   6.754 -0.6272 -0.2653  0.1751
   60MOL0     C 7827  -0.635   8.048   6.693  0.8706 -0.2003  0.2612
   60MOL0     C 7828  -0.724   8.007   6.813  0.2557 -0.0288  0.2900
   60MOL0     C 7829  -0.860   7.959   6.757  0.5953 -0.3079  0.0495
   60MOL0     C 7830  -0.937   7.903   6.884 -0.6894 -0.9966 -0.0056
   60MOL0     C 7831  -1.076   7.852   6.840  0.2442  0.1092 -0.7924
   60MOL0    Cl 7832  -1.192   7.985   6.840  0.1162  0.0762  0.3998
   60MOL0     C 7833  -0.009   8.161   6.903  0.5126 -0.4860 -0.3276
   60MOL0     C 7834   0.113   8.217   6.949  0.1202 -0.1612  0.6834
   60MOL0     O 7835   0.390   8.213   6.876 -0.6468 -0.3808 -0.2604
   60MOL0     C 7836   0.626   8.340   6.953 -0.9158  0.2037 -0.2480
   60MOL0     C 7837   0.742   8.397   7.000  0.7454  0.6905 -0.1267
   60MOL0     N 7838   0.887   8.470   7.654  0.5938 -0.6688 -0.5267
   60MOL0     N 7839   0.966   8.531   7.742  0.8745 -0.2336 -0.3847
   60MOL0     C 7840   2.030   8.911   7.865  0.5731  0.5168  0.8537
   60MOL0     C 7841   2.133   8.872   7.945  0.3033  0.2584 -0.2316
   60MOL0     C 7842   2.579   8.948   8.124  0.0969  0.9000  0.5639
   60MOL0     C 7843   2.617   8.815   8.083 -0.0203  0.1504  0.3174
   60MOL0     C 7844   2.746   8.769   8.120  0.1360  0.8184  0.6249
   60MOL0     C 7845   2.836   8.841   8.185 -0.4108 -0.9748 -0.6336
   60MOL0     O 7846   2.957   8.792   8.223 -0.8376  0.0353 -1.4666
   60MOL0     C 7847   3.062   8.885   8.233  0.1011  0.4554  0.8493
   60MOL0     C 7848   3.188   8.800   8.240 -0.9337 -0.0734 -0.3677
   60MOL0     C 7849   3.320   8.884   8.219  0.6722  0.3789  0.1984
   60MOL0     C 7850   3.436   8.798   8.221 -0.2564  0.1157 -0.1808
   60MOL0     C 7851   3.457   8.727   8.353  0.1948  0.3766  0.6227
   60MOL0     C 7852   3.467   8.670   8.456 -0.0047 -0.1335 -0.4360
   60MOL0     C 7853   2.801   8.971   8.223  0.4118  0.7949  0.0486
   60MOL0     C 7854   2.670   9.018   8.197 -0.5600  0.4034 -0.5253
   60MOL0     H 7855   2.323   9.154   7.922 -1.9945  1.7211  2.1410
   60MOL0     H 7856   2.128   9.226   7.792 -2.1235 -0.0347 -1.3034
   60MOL0     H 7857   1.776   8.972   7.845 -1.8942 -0.1089 -0.0304
   60MOL0     H 7858   1.784   8.933   7.671 -3.1794 -1.6485  1.8755
   60MOL0     H 7859   1.739   9.195   7.637 -1.3284  0.2252 -0.8801
   60MOL0     H 7860   1.679   9.194   7.787  0.7351  1.0388  0.1518
   60MOL0     H 7861   1.566   9.055   7.554  0.0280 -0.0032 -0.2589
   60MOL0     H 7862   1.481   9.149   7.671 -1.0031 -1.2616 -1.3803
   60MOL0     H 7863   1.584   8.870   7.707  2.7341  0.4709  2.6830
   60MOL0     H 7864   1.508   8.969   7.844 -0.3023  2.4264 -0.6362
   60MOL0     H 7865   1.383   8.878   7.574  0.0719  0.1748  0.2026
   60MOL0     H 7866   1.306   8.975   7.701 -1.2526 -0.5137 -1.7448
   60MOL0     H 7867   1.343   8.777   7.860  0.3181 -1.2231  0.5488
   60MOL0     H 7868   1.435   8.704   7.730  0.9579  1.6354  0.4207
   60MOL0     H 7869   1.129   8.761   7.727 -0.8285 -0.9448  0.6935
   60MOL0     H 7870   1.215   8.696   7.582 -1.9553 -0.7625  0.3872
   60MOL0     H 7871   1.193   8.588   7.862  0.7676  2.1406 -1.0268
   60MOL0     H 7872   1.295   8.516   7.737 -0.6841 -0.2706 -1.9399
   60MOL0     H 7873   1.173   8.418   7.523  0.0184  2.4390 -0.9027
   60MOL0     H 7874   0.804   8.336   7.457  0.4367  0.3129 -0.7173
   60MOL0     H 7875   0.960   8.257   7.413  0.4388  0.7229 -0.4929
   60MOL0     H 7876   0.896   8.384   7.222 -1.4254  0.0729  1.3106
   60MOL0     H 7877   1.040   8.458   7.294  0.2262 -0.6838  0.8144
   60MOL0     H 7878   0.764   8.566   7.363 -0.5639  1.7201 -1.5943
   60MOL0     H 7879   0.932   8.625   7.402 -0.6371 -0.0132  1.3959
   60MOL0     H 7880   0.966   8.709   7.197 -0.1004 -0.3649 -2.4894
   60MOL0     H 7881   0.793   8.743   7.227 -0.3956  0.1263 -0.0773
   60MOL0     H 7882   0.594   8.658   7.159  4.4006  0.9106 -1.5496
   60MOL0     H 7883   0.389   8.545   7.076 -0.2679 -1.0942 -1.2994
   60MOL0     H 7884   0.076   8.507   6.775 -0.9791  0.3549  0.4788
   60MOL0     H 7885  -0.125   8.410   6.710  2.7622  1.7943 -1.2599
   60MOL0     H 7886  -0.242   8.251   6.607  1.7789 -0.6183  0.2591
   60MOL0     H 7887  -0.369   8.303   6.723 -0.1426  0.2699 -1.4533
   60MOL0     H 7888  -0.371   8.040   6.586 -4.1212 -0.2117 -3.0291
   60MOL0     H 7889  -0.469   8.164   6.562  0.3432 -0.4887 -0.7500
   60MOL0     H 7890  -0.521   8.175   6.825 -0.3170  1.9258 -2.0852
   60MOL0     H 7891  -0.463   8.012   6.812  0.0443  0.3195  0.5229
   60MOL0     H 7892  -0.676   8.124   6.626 -3.0050 -2.8971 -0.7824
   60MOL0     H 7893  -0.622   7.964   6.625 -0.5859 -0.7590  0.6414
   60MOL0     H 7894  -0.746   8.098   6.870  1.4235 -0.7787  2.0127
   60MOL0     H 7895  -0.675   7.933   6.876 -0.5836  0.0555  1.0637
   60MOL0     H 7896  -0.852   7.875   6.688 -0.9858  0.7756 -1.5751
   60MOL0     H 7897  -0.907   8.045   6.707 -3.7189 -2.5044 -0.1185
   60MOL0     H 7898  -0.883   7.822   6.934 -3.7975 -4.8882 -2.2814
   60MOL0     H 7899  -0.934   7.993   6.946  2.0926 -0.0743 -1.3054
   60MOL0     H 7900  -1.117   7.782   6.913  1.4615  1.6336  1.4777
   60MOL0     H 7901  -1.070   7.791   6.750 -1.6014  0.4229 -1.1579
   60MOL0     H 7902  -0.050   8.067   6.938  1.0179 -1.2119 -1.6281
   60MOL0     H 7903   0.180   8.158   7.012  0.1504 -0.2489  0.5703
   60MOL0     H 7904   0.640   8.253   6.889  3.1864  0.2874  0.2611
   60MOL0     H 7905   0.837   8.348   6.981  0.1229 -0.5129 -0.2384
   60MOL0     H 7906   1.947   8.841   7.853 -0.0931  1.3443  0.5840
   60MOL0     H 7907   2.138   8.771   7.985  1.5111  0.2575 -0.3407
   60MOL0     H 7908   2.548   8.752   8.028  0.3486  0.0251 -0.0057
   60MOL0     H 7909   2.775   8.666   8.103  0.6458  1.2949 -1.8545
   60MOL0     H 7910   3.039   8.945   8.322 -2.0053  0.9825 -0.0090
   60MOL0     H 7911   3.067   8.950   8.145  2.0618 -2.3483 -1.3083
   60MOL0     H 7912   3.187   8.744   8.333  2.2155  0.9772  0.4334
   60MOL0     H 7913   3.178   8.727   8.159 -0.4898 -1.9208  1.1823
   60MOL0     H 7914   3.323   8.945   8.310 -1.2233 -2.5881  2.4261
   60MOL0     H 7915   3.324   8.945   8.128  1.6109  0.6115  0.3786
   60MOL0     H 7916   3.428   8.723   8.142  0.4022  0.0349 -0.1773
   60MOL0     H 7917   3.529   8.852   8.202  0.2239 -1.5351 -3.2319
   60MOL0     H 7918   3.486   8.612   8.544 -1.3205  2.5122  1.7330
   60MOL0     H 7919   2.857   9.042   8.283  2.0144 -0.6274  0.3117
   60MOL0     H 7920   2.645   9.115   8.237 -1.7499  0.1965 -0.7193
   61MOL0     O 7921   5.261   7.912   6.697  0.4809  0.6204  0.1681
   61MOL0     C 7922   5.345   7.932   6.791  0.5126 -0.5437  0.3681
   61MOL0     O 7923   5.315   7.975   6.922  0.9624 -0.3279 -0.0389
   61MOL0     C 7924   5.190   7.971   6.980  0.6508  0.4744 -0.0303
   61MOL0     C 7925   5.169   8.030   7.100 -0.1652  0.0284 -0.5171
   61MOL0     C 7926   5.051   8.016   7.165  0.4065 -0.3788 -0.5052
   61MOL0     C 7927   4.943   7.940   7.115  0.0111  0.1942  0.2075
   61MOL0     O 7928   4.832   7.938   7.184 -0.0808  0.6125 -0.8026
   61MOL0     C 7929   4.705   7.922   7.125  0.2625  0.8157  0.3156
   61MOL0     C 7930   4.600   7.888   7.238 -0.2978  0.1252 -0.3575
   61MOL0     C 7931   4.457   7.888   7.194  0.0859  0.6414  0.5404
   61MOL0     C 7932   4.364   7.821   7.300 -0.2345 -1.0008 -0.1414
   61MOL0     C 7933   4.214   7.855   7.274  0.5025  0.4185  0.3397
   61MOL0     C 7934   4.122   7.739   7.334  0.5176 -0.2909  0.2930
   61MOL0     C 7935   3.973   7.778   7.340  0.0862  0.5263  0.2334
   61MOL0     C 7936   3.891   7.784   7.203 -1.1127 -0.2699  0.1989
   61MOL0     N 7937   3.753   7.813   7.227  0.4149 -0.3396 -0.4386
   61MOL0     C 7938   3.674   7.846   7.121 -0.3286 -0.3860 -0.1361
   61MOL0     C 7939   3.560   7.890   7.173 -0.3916 -0.3693 -0.7156
   61MOL0     C 7940   3.442   7.940   7.100  1.3015 -0.0680 -0.1052
   61MOL0     C 7941   3.318   7.858   7.146  0.0478  0.6549  0.6662
   61MOL0     C 7942   3.186   7.908   7.069 -0.5077 -1.7226  0.1702
   61MOL0     C 7943   3.077   7.818   7.114 -0.0446 -0.4016  0.3936
   61MOL0     O 7944   2.962   7.830   7.029 -0.7720 -0.2677 -0.1924
   61MOL0     C 7945   2.850   7.752   7.047 -0.5435 -0.2825 -0.4688
   61MOL0     C 7946   2.815   7.694   7.170 -0.8079 -1.1566  0.2609
   61MOL0     C 7947   2.690   7.626   7.177  0.8380 -0.0148 -0.8656
   61MOL0     C 7948   2.597   7.614   7.072  0.2092 -0.3392 -0.1165
   61MOL0     C 7949   2.458   7.554   7.083 -0.5594 -0.2475 -0.4150
   61MOL0     O 7950   2.378   7.565   6.969 -0.5944 -0.1914 -0.8115
   61MOL0     C 7951   2.243   7.532   6.974  0.2631  0.0095  0.9173
   61MOL0     C 7952   2.183   7.407   6.996 -0.2588  0.6577 -0.2886
   61MOL0     C 7953   2.043   7.383   6.978 -0.4023  0.2806 -0.6475
   61MOL0     C 7954   1.955   7.487   6.934  0.2132 -0.3119  0.6420
   61MOL0     O 7955   1.829   7.451   6.926 -0.6050  0.5523  0.5494
   61MOL0     C 7956   1.750   7.512   6.824 -0.5244  0.0983 -0.1312
   61MOL0     C 7957   1.607   7.455   6.808  0.0287  0.1689 -0.2701
   61MOL0     C 7958   1.523   7.537   6.902  0.9206 -0.2707  0.0016
   61MOL0     C 7959   1.375   7.492   6.880  0.2661 -0.2005 -0.4163
   61MOL0     C 7960   1.275   7.547   6.992 -0.2049 -0.4395 -0.1154
   61MOL0     C 7961   1.134   7.547   6.938 -0.4408 -0.5571  0.1888
   61MOL0     C 7962   1.078   7.415   6.895 -0.2714  0.8721 -0.4643
   61MOL0     C 7963   1.086   7.385   6.754  0.0675 -0.6154  0.4643
   61MOL0    Cl 7964   0.971   7.489   6.667 -0.1238 -0.0888 -0.1770
   61MOL0     C 7965   2.015   7.611   6.923 -0.0051 -0.2633 -0.5438
   61MOL0     C 7966   2.151   7.634   6.938  0.1087  0.0775  0.6440
   61MOL0     O 7967   2.420   7.505   7.188  0.6797 -0.3836 -0.2471
   61MOL0     C 7968   2.633   7.683   6.953 -0.6957 -1.1184  0.8527
   61MOL0     C 7969   2.758   7.754   6.946 -0.2343  0.1456  1.4325
   61MOL0     N 7970   3.587   7.903   7.312  0.7163  0.7834  0.1533
   61MOL0     N 7971   3.700   7.861   7.344 -0.1521  0.1597 -1.4973
   61MOL0     C 7972   4.961   7.885   6.986  0.3055 -0.5419  0.1073
   61MOL0     C 7973   5.088   7.888   6.927 -0.2134 -0.7162 -0.4542
   61MOL0     C 7974   5.490   7.933   6.770  0.1432  0.3602  0.1729
   61MOL0     C 7975   5.553   7.879   6.658  0.2806  1.0619  0.1683
   61MOL0     C 7976   5.687   7.884   6.636 -0.3086  0.7275  0.0862
   61MOL0     C 7977   5.769   7.952   6.719 -0.3146  0.7748  0.2976
   61MOL0     O 7978   5.907   7.951   6.709  0.0773  0.4095 -0.3243
   61MOL0     C 7979   5.969   7.910   6.584 -0.3571  0.1636 -0.6913
   61MOL0     C 7980   6.121   7.920   6.605 -0.1325  0.4342 -0.6350
   61MOL0     C 7981   6.169   8.065   6.597 -0.3336 -0.0616  0.9238
   61MOL0     C 7982   6.180   8.138   6.731  0.3070 -0.7326  0.0850
   61MOL0     C 7983   6.313   8.109   6.791  0.0734  0.3150  0.4925
   61MOL0     C 7984   6.424   8.097   6.833 -0.3324  0.2427 -1.7723
   61MOL0     C 7985   5.717   8.018   6.827  1.6685  0.1415  0.6080
   61MOL0     C 7986   5.580   8.010   6.856  1.1634  0.6513  1.0840
   61MOL0     H 7987   5.256   8.082   7.138  1.8092 -4.2328  1.5126
   61MOL0     H 7988   5.033   8.056   7.265  1.7453 -0.8411 -0.0533
   61MOL0     H 7989   4.698   7.847   7.045  1.0895  0.6953  0.3490
   61MOL0     H 7990   4.677   8.018   7.081 -2.0936  0.8485  1.7200
   61MOL0     H 7991   4.609   7.945   7.331  2.7689  2.8209 -2.1012
   61MOL0     H 7992   4.624   7.783   7.259  2.1205  0.5247 -0.7979
   61MOL0     H 7993   4.446   7.827   7.104  0.1586  0.7907  0.4306
   61MOL0     H 7994   4.430   7.989   7.161  3.4666  2.1392  1.8943
   61MOL0     H 7995   4.389   7.714   7.298  2.9999 -0.3680 -0.2297
   61MOL0     H 7996   4.385   7.865   7.398 -0.7722 -0.1821 -0.3885
   61MOL0     H 7997   4.190   7.856   7.168  0.0501  0.7681  0.4421
   61MOL0     H 7998   4.186   7.954   7.310  2.7866  1.6115 -0.8945
   61MOL0     H 7999   4.156   7.729   7.437  0.0554  0.9258  0.5719
   61MOL0     H 8000   4.123   7.643   7.280 -1.8634 -1.0167  1.3811
   61MOL0     H 8001   3.916   7.707   7.400  0.2539 -0.5278 -0.8055
   61MOL0     H 8002   3.972   7.879   7.382  2.9117  1.8660 -2.5044
   61MOL0     H 8003   3.908   7.687   7.156 -0.2080  0.3087 -0.7153
   61MOL0     H 8004   3.937   7.855   7.133  0.1574 -3.2516 -2.2191
   61MOL0     H 8005   3.704   7.832   7.018  1.7672  2.9050 -0.1223
   61MOL0     H 8006   3.451   7.934   6.991 -0.9887  0.5604 -0.3936
   61MOL0     H 8007   3.426   8.046   7.121  3.4026  0.2454  0.0461
   61MOL0     H 8008   3.308   7.869   7.254 -0.2006  0.3778  0.6716
   61MOL0     H 8009   3.333   7.752   7.126  0.4111  0.4795  1.8169
   61MOL0     H 8010   3.144   8.006   7.096  1.7685 -1.3558  2.8339
   61MOL0     H 8011   3.199   7.919   6.961 -2.1803 -0.9085  0.0246
   61MOL0     H 8012   3.046   7.850   7.214  0.9612 -0.0791  0.6074
   61MOL0     H 8013   3.119   7.718   7.108  2.6320  0.7078 -3.4149
   61MOL0     H 8014   2.890   7.704   7.248 -0.5935  3.0469 -0.2299
   61MOL0     H 8015   2.660   7.582   7.271  1.2057  1.4795 -0.0238
   61MOL0     H 8016   2.248   7.322   7.016 -0.9464  0.2302  0.1525
   61MOL0     H 8017   2.007   7.284   7.004  0.4825  0.6407  2.3001
   61MOL0     H 8018   1.803   7.495   6.730 -2.4532 -1.1755 -1.0395
   61MOL0     H 8019   1.751   7.619   6.848  2.4628  0.1861 -0.1727
   61MOL0     H 8020   1.588   7.349   6.827  1.0853  0.0291  0.0608
   61MOL0     H 8021   1.575   7.477   6.706  1.9302 -0.5338 -1.0633
   61MOL0     H 8022   1.526   7.645   6.883 -4.7336  0.1628 -0.3107
   61MOL0     H 8023   1.558   7.515   7.004 -0.8405 -0.1520  0.6704
   61MOL0     H 8024   1.349   7.526   6.779  2.5751  0.3200 -0.8907
   61MOL0     H 8025   1.376   7.383   6.890  0.0589 -0.3410 -1.7299
   61MOL0     H 8026   1.308   7.645   7.027  0.8470 -0.5075 -0.8584
   61MOL0     H 8027   1.286   7.482   7.080  1.4411 -0.2385 -0.1313
   61MOL0     H 8028   1.133   7.624   6.861  2.8286 -0.4691  0.1042
   61MOL0     H 8029   1.071   7.578   7.022  0.5265  0.1259  0.6807
   61MOL0     H 8030   1.138   7.341   6.950 -0.8966  1.4843  1.0913
   61MOL0     H 8031   0.975   7.404   6.928 -0.1240 -3.4402 -0.9015
   61MOL0     H 8032   1.052   7.281   6.748 -0.8509 -0.3431  0.7175
   61MOL0     H 8033   1.189   7.390   6.718 -0.5129  0.5747 -1.1492
   61MOL0     H 8034   1.960   7.702   6.900  2.8881  1.0420 -3.0543
   61MOL0     H 8035   2.180   7.738   6.921 -0.4614  0.1448  0.0484
   61MOL0     H 8036   2.569   7.662   6.867 -1.4549 -0.5931  1.2821
   61MOL0     H 8037   2.774   7.813   6.856  0.3632  0.0844  1.4952
   61MOL0     H 8038   4.884   7.821   6.943 -1.6278  0.6830  1.5922
   61MOL0     H 8039   5.098   7.834   6.833 -1.4997 -1.8942  0.0310
   61MOL0     H 8040   5.495   7.816   6.592 -0.3587  0.2717  1.4312
   61MOL0     H 8041   5.722   7.836   6.545 -0.5075 -1.4895  1.1203
   61MOL0     H 8042   5.925   7.966   6.501  1.1160  1.4922 -0.6223
   61MOL0     H 8043   5.959   7.803   6.563  1.4162 -0.1272 -0.2472
   61MOL0     H 8044   6.148   7.882   6.704  1.1137  0.0826 -1.0891
   61MOL0     H 8045   6.165   7.845   6.539  0.8021 -0.8163  1.3148
   61MOL0     H 8046   6.105   8.128   6.535  2.3108  1.7438 -0.1661
   61MOL0     H 8047   6.268   8.071   6.550 -0.5386 -0.2019  0.4721
   61MOL0     H 8048   6.183   8.243   6.699 -2.4792 -1.6586 -3.8575
   61MOL0     H 8049   6.091   8.124   6.793 -1.4920  0.4897 -2.0974
   61MOL0     H 8050   6.525   8.082   6.867 -0.8783  0.1876 -0.1157
   61MOL0     H 8051   5.783   8.062   6.900  0.7830  0.8632  0.9896
   61MOL0     H 8052   5.536   8.057   6.944 -0.2869  0.3967  0.5326
   62MOL0     O 8053   3.510   4.992   5.438 -0.3290  0.3456  0.1415
   62MOL0     C 8054   3.585   4.945   5.525  0.0528  0.4037  0.1738
   62MOL0     O 8055   3.543   4.913   5.653  0.2912  0.1324  0.3772
   62MOL0     C 8056   3.416   4.865   5.657 -0.1522  0.5233 -0.0661
   62MOL0     C 8057   3.399   4.734   5.604 -0.0578 -0.0846  0.8259
   62MOL0     C 8058   3.279   4.668   5.620 -0.1724  0.0320 -0.0242
   62MOL0     C 8059   3.172   4.733   5.686 -0.4017 -0.9656 -0.2343
   62MOL0     O 8060   3.053   4.673   5.705 -0.3515 -0.3248 -0.7575
   62MOL0     C 8061   2.998   4.587   5.602  0.8749 -0.3061  0.1210
   62MOL0     C 8062   2.915   4.491   5.675 -0.0144  0.0641  0.1476
   62MOL0     C 8063   2.778   4.542   5.718  0.4938  0.1739 -0.0226
   62MOL0     C 8064   2.726   4.441   5.831 -0.6062 -0.6244  0.7132
   62MOL0     C 8065   2.584   4.473   5.869  0.6125  0.6800 -0.0897
   62MOL0     C 8066   2.546   4.398   5.992 -0.2739  0.4474  0.3374
   62MOL0     C 8067   2.414   4.447   6.027  0.4122  0.2126  0.5052
   62MOL0     C 8068   2.289   4.453   5.921 -0.0729  0.6283  0.5008
   62MOL0     N 8069   2.253   4.330   5.855 -0.7768  0.0599  1.0136
   62MOL0     C 8070   2.179   4.223   5.908 -0.5948  0.7741 -0.2140
   62MOL0     C 8071   2.173   4.135   5.808  0.3319 -0.4096  0.3488
   62MOL0     C 8072   2.091   4.005   5.819  0.9126  0.8525 -0.0875
   62MOL0     C 8073   1.954   4.023   5.741  0.4586  1.0639  0.0225
   62MOL0     C 8074   1.869   3.893   5.729 -0.9366 -1.1070  0.4065
   62MOL0     C 8075   1.747   3.903   5.635  0.3870 -0.1909 -0.1310
   62MOL0     O 8076   1.675   3.780   5.657  0.2743 -0.3695  0.9137
   62MOL0     C 8077   1.555   3.767   5.589  0.1926  0.3461 -1.0601
   62MOL0     C 8078   1.514   3.830   5.464 -0.2129  0.0497 -0.7515
   62MOL0     C 8079   1.385   3.811   5.413 -0.1033  0.0482 -0.1184
   62MOL0     C 8080   1.296   3.722   5.485 -0.5960 -0.9273  0.9044
   62MOL0     C 8081   1.166   3.684   5.420  0.4384  0.2146 -0.6563
   62MOL0     O 8082   1.108   3.575   5.481  0.4604  0.6854  0.0360
   62MOL0     C 8083   0.978   3.539   5.457  0.4242  0.1396 -0.1143
   62MOL0     C 8084   0.957   3.399   5.460 -1.1154  0.1230 -0.5011
   62MOL0     C 8085   0.825   3.349   5.456  0.3092  0.2131 -0.1002
   62MOL0     C 8086   0.717   3.440   5.460  0.6598 -0.0907 -0.2971
   62MOL0     O 8087   0.585   3.408   5.494  0.0825  0.5042 -0.1983
   62MOL0     C 8088   0.561   3.271   5.538 -0.3601  0.5535  0.2545
   62MOL0     C 8089   0.415   3.243   5.582  0.3109 -0.9191  0.0089
   62MOL0     C 8090   0.308   3.253   5.471 -0.0662  0.9700  0.2847
   62MOL0     C 8091   0.165   3.268   5.534 -0.0668  0.7316 -0.4298
   62MOL0     C 8092   0.053   3.264   5.429 -0.4990 -0.4277 -0.6081
   62MOL0     C 8093   0.003   3.118   5.408 -0.2198 -1.6746  0.4216
   62MOL0     C 8094  -0.090   3.116   5.286 -0.2279  0.5442  0.8250
   62MOL0     C 8095  -0.145   2.973   5.273  0.0417  0.0681  0.4453
   62MOL0    Cl 8096  -0.241   2.923   5.409 -0.2030 -0.0498 -0.2823
   62MOL0     C 8097   0.741   3.575   5.443 -0.7090 -0.3429 -0.6257
   62MOL0     C 8098   0.868   3.625   5.439  0.4320 -0.3978 -0.2385
   62MOL0     O 8099   1.122   3.743   5.317 -0.6192  0.0529 -0.2117
   62MOL0     C 8100   1.344   3.660   5.598  0.7703 -0.1775 -0.3409
   62MOL0     C 8101   1.467   3.687   5.657 -0.4823 -0.1123  0.1996
   62MOL0     N 8102   2.239   4.186   5.697  0.3267  0.0172  0.1448
   62MOL0     N 8103   2.287   4.296   5.726  0.0047 -0.2110 -0.3351
   62MOL0     C 8104   3.194   4.859   5.742 -0.3414 -0.6570  0.3853
   62MOL0     C 8105   3.314   4.921   5.733  0.5638 -0.0236  0.0434
   62MOL0     C 8106   3.733   4.970   5.499  1.1445  1.1976 -0.1711
   62MOL0     C 8107   3.832   4.926   5.585  0.2284  0.4917  0.1264
   62MOL0     C 8108   3.963   4.939   5.552  0.4094 -0.3714 -0.7317
   62MOL0     C 8109   4.013   5.000   5.438  0.3920 -0.0097  0.0133
   62MOL0     O 8110   4.145   5.021   5.437 -0.1332 -0.0380  0.4408
   62MOL0     C 8111   4.202   5.004   5.304  0.9943 -0.2306  0.2106
   62MOL0     C 8112   4.350   5.022   5.328  0.8409  0.4459 -0.2578
   62MOL0     C 8113   4.422   4.891   5.352 -0.4622  1.0384 -0.5451
   62MOL0     C 8114   4.370   4.829   5.488 -0.7171  0.0774 -0.0485
   62MOL0     C 8115   4.455   4.717   5.519  0.3494  0.6441  0.0181
   62MOL0     C 8116   4.516   4.623   5.552 -0.2532 -0.2270  0.6163
   62MOL0     C 8117   3.918   5.052   5.350 -0.4036 -0.0058  0.4807
   62MOL0     C 8118   3.781   5.039   5.383  0.5893 -0.8059 -0.5206
   62MOL0     H 8119   3.480   4.681   5.556  0.2610  0.5205  0.6879
   62MOL0     H 8120   3.268   4.567   5.579 -0.7299  0.2922 -0.5330
   62MOL0     H 8121   3.069   4.532   5.540  0.6294 -0.1704 -0.2863
   62MOL0     H 8122   2.943   4.650   5.531  0.4009 -0.6116  0.2174
   62MOL0     H 8123   2.969   4.447   5.760 -0.5042 -1.3782 -0.2650
   62MOL0     H 8124   2.890   4.410   5.607 -1.6076  1.2571 -0.7569
   62MOL0     H 8125   2.707   4.558   5.636 -1.8493  1.1382  2.0499
   62MOL0     H 8126   2.781   4.640   5.765 -3.5551  1.7486 -2.5451
   62MOL0     H 8127   2.741   4.340   5.792 -2.2246  0.5022 -3.3130
   62MOL0     H 8128   2.789   4.453   5.920  0.8677 -0.1932 -0.3550
   62MOL0     H 8129   2.524   4.438   5.784 -1.5702 -0.8234  1.9356
   62MOL0     H 8130   2.567   4.580   5.885 -2.7540  0.1721  0.5778
   62MOL0     H 8131   2.626   4.417   6.064  0.8277  0.0432 -0.7312
   62MOL0     H 8132   2.538   4.289   5.978 -0.1643  0.6593 -1.5619
   62MOL0     H 8133   2.385   4.375   6.104  2.1866 -0.5100  0.5575
   62MOL0     H 8134   2.424   4.545   6.074 -0.8343 -0.3724  2.0761
   62MOL0     H 8135   2.297   4.528   5.841 -2.8827 -1.1361 -1.6322
   62MOL0     H 8136   2.206   4.482   5.985 -0.9916 -2.5001  0.9062
   62MOL0     H 8137   2.131   4.197   6.002 -1.1249 -0.8911 -0.9008
   62MOL0     H 8138   2.058   3.979   5.920 -0.9338  0.5036 -0.7321
   62MOL0     H 8139   2.146   3.916   5.785 -0.6512 -0.3424  0.3429
   62MOL0     H 8140   1.965   4.062   5.640 -0.9836 -1.5576 -1.2250
   62MOL0     H 8141   1.894   4.093   5.800 -1.4386  0.3590 -1.0146
   62MOL0     H 8142   1.941   3.817   5.697  2.5190  0.8134  2.9873
   62MOL0     H 8143   1.834   3.867   5.829 -0.5047 -1.0371  0.5779
   62MOL0     H 8144   1.778   3.916   5.531  1.3654 -0.9893  0.0580
   62MOL0     H 8145   1.689   3.992   5.664  1.1957  0.7139 -1.1855
   62MOL0     H 8146   1.579   3.907   5.423  0.1363 -0.0525 -0.3868
   62MOL0     H 8147   1.357   3.866   5.324  0.1786 -0.8785 -0.7956
   62MOL0     H 8148   1.040   3.330   5.469 -1.8642 -0.6310  0.9221
   62MOL0     H 8149   0.811   3.241   5.465 -1.3854  0.2095 -2.0469
   62MOL0     H 8150   0.627   3.246   5.622  0.4864  1.8520  0.0079
   62MOL0     H 8151   0.578   3.209   5.450  1.5748  1.2443  0.0996
   62MOL0     H 8152   0.380   3.291   5.674 -2.2324 -1.8395 -0.3941
   62MOL0     H 8153   0.424   3.135   5.598  0.4983 -1.0075 -0.6579
   62MOL0     H 8154   0.309   3.171   5.399 -1.1671 -0.3526  1.7237
   62MOL0     H 8155   0.313   3.347   5.415  0.6337  1.9152  1.8834
   62MOL0     H 8156   0.138   3.189   5.605  2.6289 -1.4888 -1.6633
   62MOL0     H 8157   0.157   3.360   5.591 -0.1984  0.1628  0.4855
   62MOL0     H 8158   0.091   3.298   5.332  2.6437 -0.1713  0.6131
   62MOL0     H 8159  -0.032   3.314   5.476  0.5374  1.0825 -0.2727
   62MOL0     H 8160  -0.029   3.062   5.497  0.8298 -3.6793 -0.4073
   62MOL0     H 8161   0.096   3.066   5.383  1.9647 -0.2377  4.6243
   62MOL0     H 8162  -0.172   3.188   5.276  0.2574  0.9535 -0.4846
   62MOL0     H 8163  -0.024   3.143   5.203 -1.7232  3.4521  0.4586
   62MOL0     H 8164  -0.062   2.902   5.268 -0.1326 -0.1183  0.2041
   62MOL0     H 8165  -0.200   2.956   5.180  2.7679 -1.2580 -1.0568
   62MOL0     H 8166   0.656   3.643   5.448 -2.0062 -1.7925 -2.0969
   62MOL0     H 8167   0.885   3.732   5.443 -2.0029  0.0015  1.9365
   62MOL0     H 8168   1.287   3.586   5.653 -0.3129  1.1351  0.3583
   62MOL0     H 8169   1.487   3.634   5.749 -0.9609 -2.0199 -0.7399
   62MOL0     H 8170   3.108   4.904   5.791  0.2468 -0.7403  1.5153
   62MOL0     H 8171   3.321   5.014   5.787  0.6182 -0.2161  0.3712
   62MOL0     H 8172   3.798   4.888   5.681 -1.0388  1.8234  0.2480
   62MOL0     H 8173   4.045   4.898   5.611 -0.8118 -2.7314 -0.5590
   62MOL0     H 8174   4.154   5.069   5.230 -1.0787 -0.8034  0.9643
   62MOL0     H 8175   4.179   4.906   5.261 -0.5750 -0.8050  2.1894
   62MOL0     H 8176   4.387   5.062   5.233 -2.4183 -1.1927 -2.4301
   62MOL0     H 8177   4.364   5.092   5.411  1.4815 -2.5191  2.2953
   62MOL0     H 8178   4.531   4.897   5.356  0.0744 -3.4965 -1.9005
   62MOL0     H 8179   4.410   4.817   5.272  0.9946  0.2263 -0.0360
   62MOL0     H 8180   4.368   4.898   5.572  2.4529 -1.0100  1.0784
   62MOL0     H 8181   4.267   4.793   5.474  0.2534 -2.9246 -0.1328
   62MOL0     H 8182   4.575   4.535   5.573  1.4721  0.4004 -1.2822
   62MOL0     H 8183   3.961   5.109   5.268  3.5288 -3.0042  0.1397
   62MOL0     H 8184   3.706   5.057   5.306  0.8770 -0.8341 -0.8094
   63MOL0     O 8185   8.970   0.358   6.730 -1.0997 -0.5437 -0.1352
   63MOL0     C 8186   9.011   0.403   6.624  0.9110 -0.2585  0.3969
   63MOL0     O 8187   8.935   0.401   6.509  0.4280  0.0227  0.3027
   63MOL0     C 8188   8.805   0.362   6.515 -0.0822  0.1840 -0.2010
   63MOL0     C 8189   8.714   0.418   6.601  0.2438  0.0948  0.3426
   63MOL0     C 8190   8.580   0.392   6.590  1.0008 -0.2039  0.6148
   63MOL0     C 8191   8.533   0.311   6.483  0.2108 -0.2125 -0.3745
   63MOL0     O 8192   8.402   0.283   6.464  0.3530  0.2918 -0.0772
   63MOL0     C 8193   8.308   0.294   6.577 -0.9951 -0.3693 -0.1027
   63MOL0     C 8194   8.188   0.204   6.554  0.1403 -0.2847  0.3440
   63MOL0     C 8195   8.098   0.187   6.680 -0.5252 -0.2762 -0.1983
   63MOL0     C 8196   7.998   0.072   6.647  0.7764 -0.3310 -0.6804
   63MOL0     C 8197   7.877   0.079   6.738  0.2923  0.0009 -0.2510
   63MOL0     C 8198   7.753   0.121   6.665  0.3356  0.1161  0.0570
   63MOL0     C 8199   7.649   0.160   6.767  0.1779 -0.6864 -0.5856
   63MOL0     C 8200   7.529   0.214   6.686 -0.3248 -0.6388  0.6228
   63MOL0     N 8201   7.399   0.203   6.761 -0.0445 -0.5822  1.1818
   63MOL0     C 8202   7.350   0.087   6.826  0.2805  0.0161  0.6684
   63MOL0     C 8203   7.264   0.138   6.908 -0.7313  0.6427  0.4658
   63MOL0     C 8204   7.177   0.060   6.999  0.3858 -0.3351  0.0684
   63MOL0     C 8205   7.079   0.147   7.085  0.1074  1.2085  0.1276
   63MOL0     C 8206   7.001   0.056   7.179  0.1437  0.3550 -1.3526
   63MOL0     C 8207   6.895   0.139   7.257  0.6206  0.2017  0.3502
   63MOL0     O 8208   6.778   0.168   7.181  0.9621  0.1438  0.1459
   63MOL0     C 8209   6.676   0.078   7.178  0.6374  0.0128  0.0374
   63MOL0     C 8210   6.670  -0.043   7.256  0.7732 -0.7181  1.3915
   63MOL0     C 8211   6.560  -0.136   7.244 -0.5580  0.4580  0.0642
   63MOL0     C 8212   6.456  -0.115   7.153  0.0259  0.2049 -0.3487
   63MOL0     C 8213   6.347  -0.215   7.140 -0.5572 -0.0724  0.8373
   63MOL0     O 8214   6.375  -0.335   7.180  0.3593  0.2514 -0.1574
   63MOL0     C 8215   6.280  -0.430   7.214 -0.1404  0.7104  0.0495
   63MOL0     C 8216   6.135  -0.406   7.220  0.4932  0.8231  0.2264
   63MOL0     C 8217   6.051  -0.514   7.257  0.2491 -0.8429  0.2461
   63MOL0     C 8218   6.111  -0.638   7.293  0.1761 -0.1828  0.7505
   63MOL0     O 8219   6.037  -0.744   7.337  0.1047  0.1625  0.0711
   63MOL0     C 8220   5.949  -0.789   7.236  0.3156  0.6625  0.4042
   63MOL0     C 8221   5.858  -0.903   7.278 -0.2263 -1.2379  0.2023
   63MOL0     C 8222   5.749  -0.851   7.383 -0.1174 -0.1504 -0.1263
   63MOL0     C 8223   5.622  -0.945   7.373  0.0619  0.5198 -0.0497
   63MOL0     C 8224   5.541  -0.929   7.506  0.5550  0.0739  0.4474
   63MOL0     C 8225   5.404  -0.985   7.506 -0.4444  0.4846 -0.1802
   63MOL0     C 8226   5.323  -0.967   7.376 -0.3857 -0.5131  0.0425
   63MOL0     C 8227   5.186  -1.033   7.387 -0.3006 -0.2189  0.2984
   63MOL0    Cl 8228   5.087  -0.945   7.509  0.1719 -0.1747 -0.2489
   63MOL0     C 8229   6.249  -0.661   7.289  0.4319 -0.5576  0.4274
   63MOL0     C 8230   6.337  -0.556   7.255  0.9680 -0.4236  0.2702
   63MOL0     O 8231   6.247  -0.175   7.090  0.1899 -0.3849 -0.1547
   63MOL0     C 8232   6.458   0.012   7.082 -0.4148  0.2268 -0.4990
   63MOL0     C 8233   6.565   0.102   7.092  0.2291 -0.1353  0.2072
   63MOL0     N 8234   7.257   0.273   6.893 -0.7648  0.6484 -0.3977
   63MOL0     N 8235   7.340   0.315   6.814 -0.5380  0.1670 -1.1910
   63MOL0     C 8236   8.624   0.242   6.398  0.0813 -0.3809 -0.3102
   63MOL0     C 8237   8.756   0.270   6.423  0.5504  0.5297 -0.4463
   63MOL0     C 8238   9.157   0.418   6.608  0.0280  0.0207 -0.3571
   63MOL0     C 8239   9.250   0.416   6.727 -0.1333 -0.0114  0.7226
   63MOL0     C 8240   9.385   0.448   6.707 -0.2497  0.6051  0.2028
   63MOL0     C 8241   9.441   0.466   6.585  0.6405  1.0069  0.6979
   63MOL0     O 8242   9.577   0.469   6.588 -0.3094  0.3595 -0.6005
   63MOL0     C 8243   9.637   0.508   6.468  0.2112  0.5454  0.2419
   63MOL0     C 8244   9.784   0.532   6.480  0.3226 -0.3001  0.8270
   63MOL0     C 8245   9.863   0.418   6.525  0.2664 -0.4583  0.1488
   63MOL0     C 8246  10.015   0.440   6.559 -0.3319  0.2212  1.1898
   63MOL0     C 8247  10.093   0.470   6.442 -0.6980 -0.1534 -0.3726
   63MOL0     C 8248  10.130   0.482   6.330 -0.8834  0.5750  0.7970
   63MOL0     C 8249   9.358   0.460   6.473  0.1745 -0.8137 -0.3213
   63MOL0     C 8250   9.220   0.436   6.483  0.7120  1.0082 -0.1919
   63MOL0     H 8251   8.739   0.491   6.677 -1.4442  1.0818  0.0079
   63MOL0     H 8252   8.509   0.441   6.656 -1.2456 -2.9755  0.4055
   63MOL0     H 8253   8.271   0.396   6.588 -1.1756 -0.4418 -0.0285
   63MOL0     H 8254   8.361   0.263   6.668 -0.6317  0.8503  0.1121
   63MOL0     H 8255   8.221   0.107   6.514 -0.9491 -0.2120 -0.8039
   63MOL0     H 8256   8.122   0.257   6.485  1.9780  0.5645 -0.8398
   63MOL0     H 8257   8.038   0.277   6.692  1.3902  0.6870  3.6859
   63MOL0     H 8258   8.153   0.159   6.771 -0.7750  1.5335  0.5391
   63MOL0     H 8259   7.970   0.088   6.542 -1.1558  3.9988  0.2763
   63MOL0     H 8260   8.038  -0.030   6.645  2.8672  0.3877  0.6564
   63MOL0     H 8261   7.902   0.141   6.825 -1.6889  0.9421 -0.2874
   63MOL0     H 8262   7.856  -0.025   6.766  3.7165 -0.1240  2.6062
   63MOL0     H 8263   7.724   0.039   6.598  0.3742 -0.0876  0.2906
   63MOL0     H 8264   7.769   0.210   6.603 -2.2290 -0.0554 -0.9741
   63MOL0     H 8265   7.617   0.073   6.825 -0.0419 -0.7691 -0.8281
   63MOL0     H 8266   7.676   0.237   6.840  2.6803 -1.8613 -0.1448
   63MOL0     H 8267   7.510   0.157   6.594  0.2075 -2.1397  1.3997
   63MOL0     H 8268   7.548   0.318   6.661 -0.1009 -0.5838  1.0170
   63MOL0     H 8269   7.384  -0.015   6.810  0.5154 -0.1140  1.9167
   63MOL0     H 8270   7.240   0.007   7.072 -1.6077 -0.0024  2.1254
   63MOL0     H 8271   7.121  -0.020   6.949  0.8180  0.4644 -1.7851
   63MOL0     H 8272   7.014   0.199   7.014 -1.1123 -0.0253  0.2767
   63MOL0     H 8273   7.130   0.223   7.144  0.6992 -0.9777  2.6309
   63MOL0     H 8274   6.953  -0.022   7.119 -0.7867  0.7729 -1.1659
   63MOL0     H 8275   7.072   0.017   7.252 -0.5858 -0.0871 -0.8572
   63MOL0     H 8276   6.940   0.232   7.294 -0.7782  1.2321 -0.4589
   63MOL0     H 8277   6.873   0.100   7.357  1.2717  3.9339  2.1208
   63MOL0     H 8278   6.743  -0.073   7.330  0.0587  0.9318  2.8113
   63MOL0     H 8279   6.565  -0.236   7.287 -2.8694 -0.2780 -1.1839
   63MOL0     H 8280   6.099  -0.305   7.202 -1.2882 -0.0306 -1.3521
   63MOL0     H 8281   5.946  -0.494   7.272  0.2516  0.3533 -1.1977
   63MOL0     H 8282   6.008  -0.825   7.150  1.0941 -1.7388  1.8236
   63MOL0     H 8283   5.887  -0.711   7.193 -1.1109 -1.0494 -0.8141
   63MOL0     H 8284   5.916  -0.977   7.333  1.1110  0.6876  1.5155
   63MOL0     H 8285   5.813  -0.957   7.195  0.1203  0.0071 -0.8277
   63MOL0     H 8286   5.729  -0.745   7.368  2.3274  0.3612 -0.1854
   63MOL0     H 8287   5.784  -0.851   7.487 -0.3499 -0.8962 -0.0367
   63MOL0     H 8288   5.561  -0.915   7.288 -0.6122  0.3539  0.3612
   63MOL0     H 8289   5.675  -1.041   7.370  0.7389  0.9157 -2.8553
   63MOL0     H 8290   5.534  -0.821   7.524 -0.2432 -0.0006  0.6280
   63MOL0     H 8291   5.599  -0.970   7.589  1.0189  3.1359  1.7890
   63MOL0     H 8292   5.347  -0.922   7.575  0.9690  3.6298 -1.6909
   63MOL0     H 8293   5.410  -1.089   7.540  1.1980  0.5211 -0.2841
   63MOL0     H 8294   5.320  -0.859   7.357 -0.2123 -0.8069 -1.8603
   63MOL0     H 8295   5.380  -0.999   7.289 -0.1254  0.0286  0.0120
   63MOL0     H 8296   5.205  -1.128   7.436 -1.1157  0.3709  1.8115
   63MOL0     H 8297   5.133  -1.051   7.293 -0.1624  0.7144  0.0287
   63MOL0     H 8298   6.276  -0.763   7.313 -1.4736 -1.7455 -2.0320
   63MOL0     H 8299   6.440  -0.589   7.242  0.4831 -1.6892 -0.6589
   63MOL0     H 8300   6.374   0.031   7.016 -1.8687 -0.1821  1.1322
   63MOL0     H 8301   6.574   0.192   7.032 -2.0865 -0.9661 -1.5112
   63MOL0     H 8302   8.600   0.170   6.320 -2.9335 -2.4891  2.2901
   63MOL0     H 8303   8.841   0.248   6.359  0.8824 -1.0650  0.4729
   63MOL0     H 8304   9.214   0.399   6.828  2.4167  0.2857  1.7523
   63MOL0     H 8305   9.446   0.461   6.796  3.6037 -0.9918 -1.9565
   63MOL0     H 8306   9.587   0.599   6.433  1.8982  0.8490 -1.5334
   63MOL0     H 8307   9.616   0.436   6.388  0.0058  0.7194  0.1362
   63MOL0     H 8308   9.815   0.570   6.382 -1.5950  1.4567  0.8317
   63MOL0     H 8309   9.804   0.609   6.555  0.9611 -1.1552  1.5584
   63MOL0     H 8310   9.854   0.343   6.446  1.8842 -2.4646  1.7492
   63MOL0     H 8311   9.831   0.388   6.625  2.5886 -3.1515  0.2266
   63MOL0     H 8312  10.022   0.527   6.624  0.4091  0.3419  0.9541
   63MOL0     H 8313  10.058   0.350   6.603  0.6170 -0.0468 -0.2352
   63MOL0     H 8314  10.161   0.506   6.230 -1.9114  1.3467  0.6484
   63MOL0     H 8315   9.405   0.480   6.377 -0.4218  1.2064 -0.2422
   63MOL0     H 8316   9.162   0.436   6.391  1.4532  0.1488 -0.6710
   64MOL0     O 8317   8.925   5.335   7.276  0.9274 -0.5057 -0.0565
   64MOL0     C 8318   9.017   5.253   7.300  0.3045  0.4328  0.3084
   64MOL0     O 8319   8.996   5.121   7.329 -0.2870 -0.2444 -0.2824
   64MOL0     C 8320   8.878   5.062   7.293 -0.3373 -0.8189 -0.3718
   64MOL0     C 8321   8.782   5.095   7.190  0.2955  0.4651 -0.0269
   64MOL0     C 8322   8.674   5.006   7.158  0.2524  0.1509 -0.6509
   64MOL0     C 8323   8.644   4.893   7.225  0.0852 -0.3101 -0.1022
   64MOL0     O 8324   8.545   4.807   7.175  0.2950  0.6806 -0.0769
   64MOL0     C 8325   8.428   4.811   7.256  0.5298 -0.1349 -0.3680
   64MOL0     C 8326   8.327   4.703   7.220  0.6994  0.4461 -0.1801
   64MOL0     C 8327   8.184   4.747   7.248  0.0572  0.3377  0.5622
   64MOL0     C 8328   8.082   4.634   7.233  0.0262 -0.6045 -0.3758
   64MOL0     C 8329   7.966   4.676   7.337  0.5852  0.0119  0.3428
   64MOL0     C 8330   7.881   4.787   7.286  1.3338 -0.5403  0.6978
   64MOL0     C 8331   7.744   4.803   7.355 -0.6020  0.1393 -0.2207
   64MOL0     C 8332   7.673   4.677   7.399  0.7212  0.0305 -0.7267
   64MOL0     N 8333   7.643   4.599   7.277  0.3007 -0.5406 -0.3195
   64MOL0     C 8334   7.596   4.652   7.158  0.3016 -0.3336  0.9652
   64MOL0     C 8335   7.608   4.552   7.067  0.5936  0.1171  0.9148
   64MOL0     C 8336   7.588   4.581   6.917  0.0721 -0.2169 -0.3700
   64MOL0     C 8337   7.440   4.596   6.871  0.3940  0.1643  0.0337
   64MOL0     C 8338   7.375   4.460   6.857 -0.4643 -0.1386  0.2842
   64MOL0     C 8339   7.226   4.459   6.885  0.0658 -0.2515  0.6999
   64MOL0     O 8340   7.159   4.551   6.800 -0.1658 -0.1857 -0.3227
   64MOL0     C 8341   7.025   4.568   6.831  0.4310 -0.3735  0.6116
   64MOL0     C 8342   6.937   4.487   6.905 -1.0098 -0.3972  0.4072
   64MOL0     C 8343   6.801   4.505   6.904  1.2651 -0.4048 -1.1185
   64MOL0     C 8344   6.743   4.612   6.827  0.0472 -0.3684 -0.3667
   64MOL0     C 8345   6.600   4.638   6.827 -0.3690 -0.3257  0.1253
   64MOL0     O 8346   6.525   4.605   6.934 -0.3204  0.2962  0.0104
   64MOL0     C 8347   6.393   4.613   6.928  0.1507 -0.0064  1.3842
   64MOL0     C 8348   6.321   4.509   6.960 -0.0837  0.2331 -0.3358
   64MOL0     C 8349   6.189   4.510   6.962  0.7627 -0.1576  0.5480
   64MOL0     C 8350   6.118   4.629   6.938 -1.0561  0.1041  1.4235
   64MOL0     O 8351   5.980   4.613   6.951  0.2598  0.3491 -0.5705
   64MOL0     C 8352   5.890   4.714   6.893  0.1387 -0.7540  0.0690
   64MOL0     C 8353   5.765   4.656   6.830 -0.4443 -0.7146 -0.2449
   64MOL0     C 8354   5.697   4.755   6.732  0.6907  0.6607 -0.7133
   64MOL0     C 8355   5.573   4.682   6.669  0.7521 -0.4306 -0.5635
   64MOL0     C 8356   5.502   4.764   6.556 -0.2468 -0.8043 -0.8228
   64MOL0     C 8357   5.380   4.688   6.493 -0.1271  0.0646  0.0165
   64MOL0     C 8358   5.318   4.764   6.373  0.4307 -0.0906  0.8885
   64MOL0     C 8359   5.162   4.743   6.371  0.0672  0.4741  0.3968
   64MOL0    Cl 8360   5.116   4.573   6.360 -0.0378 -0.4117 -0.6019
   64MOL0     C 8361   6.188   4.744   6.919 -0.2662 -0.6506  0.2318
   64MOL0     C 8362   6.328   4.746   6.907 -0.5396 -0.2023 -0.2114
   64MOL0     O 8363   6.562   4.691   6.727  0.5426 -0.2796  0.2473
   64MOL0     C 8364   6.837   4.702   6.769  0.8368 -0.1928  0.1798
   64MOL0     C 8365   6.975   4.682   6.776 -0.7690  0.2540  0.2591
   64MOL0     N 8366   7.645   4.440   7.131 -0.0062  0.3033  0.3724
   64MOL0     N 8367   7.661   4.467   7.261 -0.1353 -0.3443 -0.5628
   64MOL0     C 8368   8.735   4.855   7.324  0.2691 -0.2239  0.5376
   64MOL0     C 8369   8.843   4.944   7.358  0.1578  0.7542 -0.0347
   64MOL0     C 8370   9.162   5.297   7.326 -0.3250 -0.2213  0.4573
   64MOL0     C 8371   9.194   5.430   7.353  0.4795 -0.7730  0.4020
   64MOL0     C 8372   9.325   5.474   7.370  0.1325 -0.0156  0.4749
   64MOL0     C 8373   9.431   5.381   7.348  0.3358  0.1496  0.3931
   64MOL0     O 8374   9.565   5.432   7.363  1.0906 -0.2423 -0.2920
   64MOL0     C 8375   9.646   5.363   7.460 -0.4018 -0.6083  0.0580
   64MOL0     C 8376   9.604   5.389   7.604  0.3149  0.2485  0.3590
   64MOL0     C 8377   9.596   5.537   7.628 -0.0503  0.2167  0.5743
   64MOL0     C 8378   9.520   5.543   7.757  0.0503  0.5341  0.6385
   64MOL0     C 8379   9.492   5.680   7.818  0.4613 -0.2514  0.9666
   64MOL0     C 8380   9.454   5.773   7.875 -0.5189  0.7958  0.5402
   64MOL0     C 8381   9.400   5.248   7.317 -0.2975  0.0106 -0.0564
   64MOL0     C 8382   9.267   5.208   7.299  1.0006 -0.1318 -0.0855
   64MOL0     H 8383   8.781   5.180   7.124 -1.6742  1.9297  1.7349
   64MOL0     H 8384   8.616   5.032   7.070  0.0820  0.9633 -0.3111
   64MOL0     H 8385   8.382   4.910   7.256  2.6387  0.9368  1.5305
   64MOL0     H 8386   8.449   4.794   7.362  1.1135 -1.6346 -0.7098
   64MOL0     H 8387   8.348   4.607   7.270 -1.1892  0.5148  0.8036
   64MOL0     H 8388   8.347   4.669   7.118  1.5857 -1.2919  0.5313
   64MOL0     H 8389   8.154   4.824   7.177 -0.9257  0.9198  1.5760
   64MOL0     H 8390   8.173   4.793   7.347 -2.0164 -4.3186  2.7704
   64MOL0     H 8391   8.035   4.634   7.135 -1.8221  3.3854  0.2873
   64MOL0     H 8392   8.126   4.539   7.264 -0.5917 -1.5175 -2.1664
   64MOL0     H 8393   8.017   4.690   7.433  0.0399 -1.6365  0.9010
   64MOL0     H 8394   7.909   4.583   7.344  2.0317 -0.7939  2.2705
   64MOL0     H 8395   7.859   4.767   7.181 -1.1667 -0.8307  1.2107
   64MOL0     H 8396   7.936   4.881   7.292  2.0151 -0.8862  0.0366
   64MOL0     H 8397   7.757   4.873   7.438  2.8790 -0.7782  0.1611
   64MOL0     H 8398   7.678   4.855   7.285 -0.6745 -1.7380 -1.6076
   64MOL0     H 8399   7.584   4.699   7.458  1.0970 -0.8548  0.1796
   64MOL0     H 8400   7.735   4.619   7.467 -0.1551 -3.3091 -2.5451
   64MOL0     H 8401   7.582   4.757   7.132  1.9248 -0.6933 -1.7318
   64MOL0     H 8402   7.627   4.500   6.854 -0.9835 -0.2835 -0.9543
   64MOL0     H 8403   7.648   4.670   6.894 -0.4263  0.3689  0.5514
   64MOL0     H 8404   7.436   4.644   6.772 -2.9632  0.6918  0.3001
   64MOL0     H 8405   7.380   4.651   6.945  0.6698 -0.6040  0.8388
   64MOL0     H 8406   7.385   4.416   6.757 -1.7573  0.0641  0.0541
   64MOL0     H 8407   7.427   4.389   6.922 -0.0545 -0.7075 -0.6462
   64MOL0     H 8408   7.202   4.484   6.989  0.4455  0.7007  0.5641
   64MOL0     H 8409   7.185   4.358   6.870 -1.8434  0.3607  1.4970
   64MOL0     H 8410   6.979   4.398   6.951 -1.8410  0.1686  2.3330
   64MOL0     H 8411   6.739   4.435   6.959 -0.3655  1.2541 -0.7401
   64MOL0     H 8412   6.382   4.420   6.968  0.9687  0.9503 -0.1343
   64MOL0     H 8413   6.132   4.418   6.975  1.4075 -0.6047  0.2750
   64MOL0     H 8414   5.949   4.765   6.816  0.2765  0.0324  0.6848
   64MOL0     H 8415   5.860   4.787   6.969 -0.5237 -0.8530 -0.0945
   64MOL0     H 8416   5.690   4.635   6.908 -0.0881  2.8538  1.2559
   64MOL0     H 8417   5.790   4.564   6.777 -0.0896 -0.1489 -1.0809
   64MOL0     H 8418   5.766   4.774   6.648 -1.1663 -2.7952 -3.2491
   64MOL0     H 8419   5.685   4.843   6.795 -0.9539 -0.8570  1.2044
   64MOL0     H 8420   5.608   4.587   6.627  2.3662  0.5192 -1.4623
   64MOL0     H 8421   5.504   4.667   6.753 -0.3871 -0.6300 -1.5077
   64MOL0     H 8422   5.568   4.801   6.477  1.1773 -2.0584 -0.2583
   64MOL0     H 8423   5.471   4.855   6.608 -2.5501 -1.4534 -0.9323
   64MOL0     H 8424   5.310   4.664   6.574  2.2057 -0.2465  2.0403
   64MOL0     H 8425   5.414   4.592   6.455 -2.1201 -0.4188 -0.6796
   64MOL0     H 8426   5.333   4.871   6.359  1.3671 -0.4413 -1.1745
   64MOL0     H 8427   5.359   4.730   6.277 -2.0105 -0.5142 -0.0764
   64MOL0     H 8428   5.124   4.798   6.285 -1.5936 -1.8322 -0.4422
   64MOL0     H 8429   5.114   4.783   6.461 -2.3899  0.5618 -0.8800
   64MOL0     H 8430   6.129   4.835   6.912  1.5911  0.7474  1.4568
   64MOL0     H 8431   6.390   4.832   6.886 -0.0314 -0.8527 -1.5104
   64MOL0     H 8432   6.807   4.786   6.706 -0.1460  1.5960  2.8639
   64MOL0     H 8433   7.042   4.748   6.722 -0.6237  0.8298  1.1154
   64MOL0     H 8434   8.718   4.763   7.379  2.5931 -0.4655  0.9513
   64MOL0     H 8435   8.908   4.906   7.436 -2.3420 -3.7230  0.2021
   64MOL0     H 8436   9.114   5.500   7.373  1.7179  0.5041  1.0802
   64MOL0     H 8437   9.333   5.579   7.399 -0.7291 -0.7119  3.6144
   64MOL0     H 8438   9.751   5.393   7.450  0.0701 -1.9157  0.7705
   64MOL0     H 8439   9.641   5.254   7.450  1.3960 -0.7380  0.2166
   64MOL0     H 8440   9.514   5.332   7.628 -0.2445  0.3041 -1.4255
   64MOL0     H 8441   9.687   5.364   7.670  1.4636  0.2457 -1.0310
   64MOL0     H 8442   9.548   5.601   7.553  0.3902 -0.4111 -0.2530
   64MOL0     H 8443   9.699   5.574   7.627  0.0685 -0.1117 -0.1534
   64MOL0     H 8444   9.424   5.492   7.744  0.0535  0.6429  0.1753
   64MOL0     H 8445   9.576   5.485   7.831 -2.1750 -2.7204  0.0105
   64MOL0     H 8446   9.424   5.865   7.921 -2.3879 -0.2120  1.4385
   64MOL0     H 8447   9.481   5.176   7.320 -0.3479 -0.2228 -2.2618
   64MOL0     H 8448   9.258   5.101   7.285  1.3126 -0.0494 -0.9504
   65MOL0     O 8449   4.343   2.483   5.939 -0.4743 -0.8619  0.6181
   65MOL0     C 8450   4.376   2.568   6.024 -0.3966 -0.0474 -0.4593
   65MOL0     O 8451   4.299   2.682   6.059 -0.2969  0.6553  0.0449
   65MOL0     C 8452   4.167   2.681   6.022  1.1045  1.6873 -0.1405
   65MOL0     C 8453   4.085   2.564   6.047  0.1978  0.6388 -0.3752
   65MOL0     C 8454   3.945   2.562   6.004  0.0875 -0.3712  0.6837
   65MOL0     C 8455   3.890   2.672   5.943  0.4077 -1.1722 -0.6199
   65MOL0     O 8456   3.758   2.675   5.924  0.5225 -0.4648  0.4723
   65MOL0     C 8457   3.690   2.800   5.945  0.1001  0.0033 -0.3555
   65MOL0     C 8458   3.545   2.776   5.915  0.0495 -0.8974  0.2605
   65MOL0     C 8459   3.472   2.906   5.927  0.1646  0.7945  0.3054
   65MOL0     C 8460   3.324   2.879   5.892  0.1065  0.1820 -0.5902
   65MOL0     C 8461   3.254   3.015   5.911 -0.1430  0.3881  0.5174
   65MOL0     C 8462   3.102   3.004   5.867 -0.6667 -0.1185  0.6430
   65MOL0     C 8463   3.085   2.971   5.715  0.8326  1.0074  0.1816
   65MOL0     C 8464   2.945   3.021   5.648 -0.3795  0.0821  0.1696
   65MOL0     N 8465   2.827   2.949   5.693  0.4771 -0.4851 -0.1753
   65MOL0     C 8466   2.801   2.813   5.688 -0.0014 -0.4072 -0.6265
   65MOL0     C 8467   2.675   2.808   5.754 -0.2205 -0.2226 -0.0934
   65MOL0     C 8468   2.584   2.687   5.775  0.7282  0.1687  0.8877
   65MOL0     C 8469   2.491   2.674   5.648 -0.3219  0.3791 -0.3508
   65MOL0     C 8470   2.397   2.553   5.653  0.2838  0.4565  0.0795
   65MOL0     C 8471   2.274   2.583   5.569 -0.2187  0.2969 -0.4070
   65MOL0     O 8472   2.172   2.489   5.583 -0.5226  0.1764  0.2907
   65MOL0     C 8473   2.047   2.498   5.519 -0.1820 -0.0811 -0.8416
   65MOL0     C 8474   1.988   2.379   5.478  0.0097 -0.3533  0.3978
   65MOL0     C 8475   1.869   2.369   5.404 -0.1530  0.3860 -0.2230
   65MOL0     C 8476   1.805   2.486   5.363 -0.0533  0.0642 -1.4063
   65MOL0     C 8477   1.683   2.489   5.295  0.2761  0.0058  0.3081
   65MOL0     O 8478   1.664   2.389   5.198 -0.3199  0.1781 -0.3200
   65MOL0     C 8479   1.539   2.353   5.156 -0.5418  0.1121 -0.8342
   65MOL0     C 8480   1.439   2.306   5.248  0.1612 -1.1307  0.4604
   65MOL0     C 8481   1.310   2.271   5.204 -0.2399  0.0117  0.6781
   65MOL0     C 8482   1.274   2.299   5.068 -0.3868 -0.5595 -0.1176
   65MOL0     O 8483   1.154   2.279   5.008  0.4693 -0.2720  0.4522
   65MOL0     C 8484   1.036   2.290   5.088  0.2135  0.5279  0.4124
   65MOL0     C 8485   0.909   2.238   5.013 -0.3621 -0.3408 -0.0431
   65MOL0     C 8486   0.774   2.208   5.092 -0.2883  0.7142 -0.1291
   65MOL0     C 8487   0.660   2.187   4.994 -0.0506  0.6092  0.2720
   65MOL0     C 8488   0.682   2.084   4.883 -0.3155 -0.2885 -0.1203
   65MOL0     C 8489   0.699   1.937   4.930  0.8073  0.0048 -0.5475
   65MOL0     C 8490   0.733   1.840   4.816 -0.6165  0.9890 -0.3660
   65MOL0     C 8491   0.777   1.691   4.869 -0.3897 -0.6941  0.0427
   65MOL0    Cl 8492   0.647   1.618   4.962  0.3794 -0.5539 -0.2346
   65MOL0     C 8493   1.372   2.348   4.984  0.2082 -0.0273 -0.5751
   65MOL0     C 8494   1.500   2.370   5.026  0.0509  0.6448 -0.3059
   65MOL0     O 8495   1.597   2.565   5.330 -0.0519  0.5448 -0.3332
   65MOL0     C 8496   1.864   2.605   5.405 -0.3861 -0.0447 -0.0666
   65MOL0     C 8497   1.988   2.616   5.483  0.0061  0.1066  0.3978
   65MOL0     N 8498   2.641   2.933   5.802  0.6154  0.2901 -0.6874
   65MOL0     N 8499   2.726   3.017   5.760  0.2923  0.4748  0.0097
   65MOL0     C 8500   3.976   2.780   5.919 -0.0784  0.9812  0.6190
   65MOL0     C 8501   4.109   2.781   5.956  0.3351  0.0745  0.1884
   65MOL0     C 8502   4.507   2.559   6.092 -0.1254 -0.3342 -0.5050
   65MOL0     C 8503   4.595   2.463   6.055 -0.0079  0.2167  0.3449
   65MOL0     C 8504   4.724   2.450   6.112  0.0011 -0.0009  0.1375
   65MOL0     C 8505   4.771   2.533   6.208  0.1691 -0.1470 -0.2819
   65MOL0     O 8506   4.898   2.507   6.262  0.4771  0.1551 -0.1457
   65MOL0     C 8507   4.951   2.612   6.335  0.2628 -0.2450  0.5661
   65MOL0     C 8508   5.088   2.573   6.375  0.2341  0.5197  0.4529
   65MOL0     C 8509   5.095   2.488   6.496 -0.0312 -0.4194  0.1105
   65MOL0     C 8510   5.222   2.421   6.515  0.2215 -0.0320 -0.7639
   65MOL0     C 8511   5.341   2.504   6.531  0.5253 -0.0985  0.3542
   65MOL0     C 8512   5.441   2.570   6.542 -0.7776 -0.1884  0.5244
   65MOL0     C 8513   4.678   2.633   6.254 -0.4186 -0.5456  0.1353
   65MOL0     C 8514   4.551   2.635   6.200  0.4968 -0.6947 -0.4589
   65MOL0     H 8515   4.128   2.491   6.114  0.0435  0.6261 -0.2893
   65MOL0     H 8516   3.876   2.484   6.036 -2.4668  1.5873  0.3349
   65MOL0     H 8517   3.732   2.874   5.876  1.6098  0.0795  0.5881
   65MOL0     H 8518   3.701   2.835   6.048 -1.3033  0.0751 -0.2159
   65MOL0     H 8519   3.507   2.698   5.982 -1.9836 -1.0317 -0.9845
   65MOL0     H 8520   3.531   2.744   5.811  0.9665 -0.2918 -0.0620
   65MOL0     H 8521   3.506   2.990   5.867  0.4691  0.9548  0.6994
   65MOL0     H 8522   3.480   2.948   6.027  0.4258 -0.0943  0.6723
   65MOL0     H 8523   3.307   2.837   5.792  1.7838 -0.3145 -0.6991
   65MOL0     H 8524   3.290   2.808   5.968  0.4121 -0.4478 -1.0336
   65MOL0     H 8525   3.310   3.100   5.869  0.9050  0.0763  1.2569
   65MOL0     H 8526   3.261   3.036   6.018  1.6810 -1.6983  0.8602
   65MOL0     H 8527   3.062   3.103   5.890 -2.6306 -0.1828 -2.0857
   65MOL0     H 8528   3.043   2.927   5.918  0.0476 -0.4461  0.9916
   65MOL0     H 8529   3.166   3.017   5.658 -0.1462  1.7638 -0.6416
   65MOL0     H 8530   3.097   2.864   5.696 -0.0878  0.5857  1.7572
   65MOL0     H 8531   2.964   3.006   5.541 -0.9010  1.3533 -0.1104
   65MOL0     H 8532   2.927   3.128   5.659 -0.9253  0.5546 -3.8709
   65MOL0     H 8533   2.842   2.731   5.630  1.6887 -0.1484  0.1350
   65MOL0     H 8534   2.520   2.700   5.863 -0.7761  0.1406 -0.1623
   65MOL0     H 8535   2.644   2.595   5.776 -1.3471 -1.3630 -1.7398
   65MOL0     H 8536   2.548   2.658   5.556  0.5881 -0.4030  0.3339
   65MOL0     H 8537   2.444   2.771   5.632 -1.6731 -0.6279 -3.2967
   65MOL0     H 8538   2.438   2.461   5.610 -2.8890 -1.6773  1.1778
   65MOL0     H 8539   2.367   2.530   5.756  0.5261  2.2109  0.5662
   65MOL0     H 8540   2.299   2.594   5.463 -3.1460  1.4247 -1.0576
   65MOL0     H 8541   2.242   2.676   5.617 -0.8257  0.5918 -1.3699
   65MOL0     H 8542   2.042   2.289   5.505 -0.4614 -0.2376  1.7484
   65MOL0     H 8543   1.838   2.269   5.379  1.3181  0.0502 -0.8298
   65MOL0     H 8544   1.458   2.303   5.355  1.9434 -0.1475  0.2216
   65MOL0     H 8545   1.239   2.225   5.272 -0.7041  0.2353  0.3522
   65MOL0     H 8546   1.026   2.392   5.126  0.8020  1.7280 -2.4590
   65MOL0     H 8547   1.042   2.228   5.178  0.4307 -0.5103 -0.3045
   65MOL0     H 8548   0.933   2.134   4.989 -1.8967 -0.2065 -2.4883
   65MOL0     H 8549   0.877   2.292   4.924 -3.1795  0.7359  1.4819
   65MOL0     H 8550   0.752   2.285   5.166 -1.2924 -0.6961  1.1203
   65MOL0     H 8551   0.792   2.114   5.145 -0.7675  0.6493 -0.0740
   65MOL0     H 8552   0.573   2.157   5.053  0.7015  0.8021  1.5333
   65MOL0     H 8553   0.629   2.279   4.944  0.5441  0.3393 -0.6163
   65MOL0     H 8554   0.763   2.111   4.814 -0.0802 -2.4079 -0.7405
   65MOL0     H 8555   0.594   2.086   4.819 -0.2581  1.8221 -0.2148
   65MOL0     H 8556   0.610   1.897   4.979  0.9681 -0.7613 -0.8655
   65MOL0     H 8557   0.787   1.926   4.993  0.6108  0.1228 -0.2519
   65MOL0     H 8558   0.641   1.832   4.757 -0.7993  2.4141 -0.3109
   65MOL0     H 8559   0.820   1.888   4.770  1.8715  1.8008  4.5417
   65MOL0     H 8560   0.873   1.699   4.922  0.1811 -1.8097 -0.7918
   65MOL0     H 8561   0.799   1.632   4.780 -2.6531  0.0906 -1.0987
   65MOL0     H 8562   1.359   2.377   4.880  0.5145  1.7633 -0.1349
   65MOL0     H 8563   1.567   2.426   4.960 -2.7764  3.5322 -0.9844
   65MOL0     H 8564   1.817   2.697   5.373 -1.3828  0.5685  2.8580
   65MOL0     H 8565   2.030   2.714   5.501 -2.1168  1.5399 -1.8251
   65MOL0     H 8566   3.938   2.861   5.858  0.8481 -0.4485 -1.9978
   65MOL0     H 8567   4.171   2.864   5.923  0.5796 -0.9759 -2.2309
   65MOL0     H 8568   4.572   2.402   5.968 -0.1990  0.5743  0.1414
   65MOL0     H 8569   4.790   2.375   6.069  0.2818  0.7936 -0.8388
   65MOL0     H 8570   4.894   2.641   6.423  0.0844  3.5322 -0.6180
   65MOL0     H 8571   4.969   2.700   6.272  1.9448  0.8210  2.4330
   65MOL0     H 8572   5.131   2.513   6.294 -2.8017 -2.3589  0.7521
   65MOL0     H 8573   5.154   2.659   6.390 -0.7583  1.8382 -2.0671
   65MOL0     H 8574   5.017   2.410   6.500  0.1640 -0.6717 -0.7476
   65MOL0     H 8575   5.078   2.553   6.582  0.0107  0.7820 -0.7709
   65MOL0     H 8576   5.216   2.362   6.606 -1.8332 -0.7717 -1.3380
   65MOL0     H 8577   5.239   2.347   6.436 -0.7727 -1.3902  0.2558
   65MOL0     H 8578   5.524   2.636   6.557 -0.7652  0.0882 -0.6468
   65MOL0     H 8579   4.696   2.695   6.341  0.2201  0.4004 -0.6422
   65MOL0     H 8580   4.493   2.711   6.250  0.0024 -0.4439 -1.3880
   66MOL0     O 8581   2.275   8.114   2.243  0.4814 -0.0457 -0.3038
   66MOL0     C 8582   2.305   8.145   2.124 -0.2097 -0.1166  0.7914
   66MOL0     O 8583   2.213   8.171   2.028  0.0186 -0.0298  0.4579
   66MOL0     C 8584   2.078   8.146   2.059  0.0703 -0.1061 -0.2504
   66MOL0     C 8585   2.013   8.041   1.996  0.4473  0.1460  0.0564
   66MOL0     C 8586   1.882   8.005   2.030  0.5705  0.1403  0.3556
   66MOL0     C 8587   1.801   8.072   2.127  0.5510  0.6316  0.6412
   66MOL0     O 8588   1.670   8.031   2.139  0.2042 -0.3941  0.2403
   66MOL0     C 8589   1.588   8.106   2.223  0.4483 -0.4853 -0.0204
   66MOL0     C 8590   1.450   8.037   2.232  0.0207 -0.5766  0.1789
   66MOL0     C 8591   1.342   8.139   2.289 -0.2331  1.2041 -0.2613
   66MOL0     C 8592   1.288   8.235   2.187  0.0888 -0.1392 -0.2700
   66MOL0     C 8593   1.173   8.320   2.246  0.0256  0.9517  0.1479
   66MOL0     C 8594   1.145   8.429   2.139 -0.0893  0.4279 -0.1542
   66MOL0     C 8595   1.076   8.365   2.015  0.4890  0.2593  0.4045
   66MOL0     C 8596   0.966   8.459   1.946  0.0702 -0.8808  0.6053
   66MOL0     N 8597   0.854   8.484   2.039 -0.3814 -0.4363 -0.4252
   66MOL0     C 8598   0.819   8.418   2.159  0.5491  0.6134 -0.2772
   66MOL0     C 8599   0.729   8.499   2.218 -0.2119 -0.1723 -0.3941
   66MOL0     C 8600   0.656   8.493   2.351  1.0669 -0.0690  0.0810
   66MOL0     C 8601   0.550   8.385   2.337  0.0037  1.3156  0.6193
   66MOL0     C 8602   0.468   8.378   2.462 -0.3869  0.4755 -0.2872
   66MOL0     C 8603   0.346   8.465   2.448  0.0132 -0.0500 -0.2911
   66MOL0     O 8604   0.270   8.459   2.572  0.2059 -0.1096 -0.1992
   66MOL0     C 8605   0.142   8.512   2.576 -0.0503 -1.2663  0.2194
   66MOL0     C 8606   0.052   8.453   2.669 -0.1617 -0.0959 -0.1327
   66MOL0     C 8607  -0.086   8.479   2.661  0.6028  0.2304  0.0876
   66MOL0     C 8608  -0.135   8.582   2.579  0.2520  0.6641  0.1320
   66MOL0     C 8609  -0.279   8.618   2.574  0.2189 -0.3247 -0.6171
   66MOL0     O 8610  -0.365   8.521   2.618  0.3882  0.0802 -0.8786
   66MOL0     C 8611  -0.502   8.542   2.597  0.0358  0.7214  0.0814
   66MOL0     C 8612  -0.552   8.591   2.470  0.0629 -0.3028 -0.4950
   66MOL0     C 8613  -0.689   8.573   2.446 -0.3634  0.6598  0.1188
   66MOL0     C 8614  -0.779   8.539   2.549  0.7930  0.3091  0.2474
   66MOL0     O 8615  -0.917   8.555   2.536 -0.0592  0.4091  0.1516
   66MOL0     C 8616  -0.995   8.539   2.409 -0.5150  0.3643 -0.4580
   66MOL0     C 8617  -1.132   8.622   2.403 -0.6484  0.1561 -0.5798
   66MOL0     C 8618  -1.227   8.594   2.516 -0.6769 -0.1369 -0.8258
   66MOL0     C 8619  -1.357   8.671   2.509 -1.0367 -0.2073 -0.1091
   66MOL0     C 8620  -1.438   8.645   2.628  0.3974 -0.3189  0.4550
   66MOL0     C 8621  -1.584   8.690   2.614 -0.2367  0.3120 -0.0897
   66MOL0     C 8622  -1.671   8.650   2.741 -0.3450  0.5924  0.4393
   66MOL0     C 8623  -1.818   8.683   2.719  0.0243  0.2216 -0.0405
   66MOL0    Cl 8624  -1.837   8.858   2.739 -0.0898 -0.1954 -0.2089
   66MOL0     C 8625  -0.728   8.495   2.673 -0.0443 -0.4823 -0.6727
   66MOL0     C 8626  -0.592   8.483   2.691 -0.1120 -0.5341  0.7265
   66MOL0     O 8627  -0.313   8.733   2.543  0.1062 -0.6438 -0.2303
   66MOL0     C 8628  -0.039   8.653   2.504  0.4156 -0.0357 -0.4938
   66MOL0     C 8629   0.101   8.623   2.500  0.1486  0.4977  0.0841
   66MOL0     N 8630   0.718   8.613   2.139 -0.4159 -0.4514  0.5389
   66MOL0     N 8631   0.779   8.590   2.028 -0.1540 -0.5100  0.4363
   66MOL0     C 8632   1.877   8.171   2.204 -0.1881  0.7122 -0.3811
   66MOL0     C 8633   2.005   8.204   2.161 -0.1052 -0.0888  0.0984
   66MOL0     C 8634   2.450   8.165   2.099  0.5816  0.3184  0.0303
   66MOL0     C 8635   2.495   8.207   1.971  0.2364  0.4417 -0.0015
   66MOL0     C 8636   2.635   8.215   1.947  0.2343 -0.4923  0.2801
   66MOL0     C 8637   2.722   8.179   2.049 -0.4797  0.9724 -0.4394
   66MOL0     O 8638   2.857   8.168   2.043 -0.8504 -0.0254  0.2706
   66MOL0     C 8639   2.930   8.197   1.921  0.2422 -0.1559 -0.3427
   66MOL0     C 8640   3.068   8.244   1.953  0.2025 -0.3516 -0.2700
   66MOL0     C 8641   3.158   8.118   1.997 -0.6006  0.3064  0.7581
   66MOL0     C 8642   3.306   8.144   1.968  0.5481  0.0305 -0.1717
   66MOL0     C 8643   3.368   8.256   2.054  0.0330 -0.4929 -0.0339
   66MOL0     C 8644   3.432   8.326   2.126 -0.0450  0.4017 -0.4582
   66MOL0     C 8645   2.674   8.135   2.170 -0.1465 -0.1010 -0.3452
   66MOL0     C 8646   2.541   8.135   2.202  0.8284  0.2522  0.1095
   66MOL0     H 8647   2.066   7.990   1.917  1.0634  0.9193 -0.0472
   66MOL0     H 8648   1.837   7.933   1.963 -0.9410 -0.3237  1.7822
   66MOL0     H 8649   1.584   8.205   2.177 -2.0132 -0.4257  0.2054
   66MOL0     H 8650   1.633   8.119   2.322  0.4487 -1.5094  0.1270
   66MOL0     H 8651   1.460   7.944   2.289 -1.4175 -1.3075 -0.7307
   66MOL0     H 8652   1.420   8.005   2.132  1.2367  2.8158 -1.4438
   66MOL0     H 8653   1.381   8.188   2.379 -2.9032  0.5571  1.3929
   66MOL0     H 8654   1.259   8.071   2.311 -0.0921  1.0122 -0.3207
   66MOL0     H 8655   1.367   8.300   2.147  0.4174 -0.7980 -0.7018
   66MOL0     H 8656   1.262   8.178   2.098  0.9497 -3.3063  1.3619
   66MOL0     H 8657   1.207   8.376   2.334  1.5530  2.4065 -1.2690
   66MOL0     H 8658   1.078   8.273   2.272 -0.5709  1.4389 -1.0498
   66MOL0     H 8659   1.236   8.481   2.110  0.5523 -2.0769 -3.2294
   66MOL0     H 8660   1.082   8.494   2.200  0.4603  0.6111  0.2146
   66MOL0     H 8661   1.146   8.350   1.932  1.9047  4.7926  0.4730
   66MOL0     H 8662   1.030   8.269   2.038 -0.2119  0.5308  0.1822
   66MOL0     H 8663   0.932   8.408   1.855  2.0695 -0.4022 -0.4923
   66MOL0     H 8664   1.014   8.555   1.925  0.2067 -1.5187 -2.6367
   66MOL0     H 8665   0.859   8.326   2.200  1.1767  1.7072  1.7530
   66MOL0     H 8666   0.601   8.587   2.366  0.6965 -0.0475 -1.2356
   66MOL0     H 8667   0.738   8.479   2.421  1.5627  2.3735  0.0665
   66MOL0     H 8668   0.599   8.288   2.323 -0.2698  0.6161  3.7563
   66MOL0     H 8669   0.482   8.401   2.253  0.7018 -1.3673 -0.5823
   66MOL0     H 8670   0.428   8.277   2.471 -2.4607  1.2854  0.1907
   66MOL0     H 8671   0.522   8.397   2.555 -2.1036 -1.7396  1.2441
   66MOL0     H 8672   0.283   8.426   2.368  1.1143 -1.3194 -0.5666
   66MOL0     H 8673   0.364   8.571   2.427  0.9379 -0.5233 -2.0818
   66MOL0     H 8674   0.088   8.379   2.740  2.6901  0.9329 -0.3656
   66MOL0     H 8675  -0.143   8.416   2.728  2.7677 -2.0169 -0.0036
   66MOL0     H 8676  -0.485   8.626   2.392 -0.5661  1.8274 -0.1491
   66MOL0     H 8677  -0.731   8.593   2.348  0.7060 -1.5288 -0.8647
   66MOL0     H 8678  -1.017   8.432   2.399  0.7671 -0.3138  2.7702
   66MOL0     H 8679  -0.946   8.566   2.315 -1.8774 -0.2483 -1.3835
   66MOL0     H 8680  -1.175   8.594   2.307 -1.1627  4.7382 -1.9428
   66MOL0     H 8681  -1.105   8.728   2.407 -0.7061  0.1674 -0.4716
   66MOL0     H 8682  -1.176   8.610   2.611 -2.2419  2.9317 -0.3897
   66MOL0     H 8683  -1.256   8.488   2.514  0.1144 -0.3745 -2.7825
   66MOL0     H 8684  -1.341   8.779   2.513  0.0961 -0.3855  0.8013
   66MOL0     H 8685  -1.411   8.643   2.419 -0.1124 -0.0067 -0.7370
   66MOL0     H 8686  -1.396   8.682   2.722 -0.6519 -1.4115  1.3877
   66MOL0     H 8687  -1.436   8.538   2.649  2.4276 -0.5029 -0.4322
   66MOL0     H 8688  -1.626   8.634   2.530  0.1772  1.0694 -0.8168
   66MOL0     H 8689  -1.593   8.794   2.582 -3.0587 -0.2371 -1.3603
   66MOL0     H 8690  -1.667   8.541   2.752 -2.9125  0.4274  0.3580
   66MOL0     H 8691  -1.623   8.687   2.832  1.5677 -0.1562 -0.2158
   66MOL0     H 8692  -1.871   8.628   2.797 -1.0669 -1.2367 -1.7398
   66MOL0     H 8693  -1.853   8.642   2.624  2.4092  0.5437 -1.1270
   66MOL0     H 8694  -0.807   8.469   2.742 -1.8496  0.9042 -2.0879
   66MOL0     H 8695  -0.555   8.438   2.783 -0.6143 -2.1613  0.1706
   66MOL0     H 8696  -0.070   8.734   2.439  0.4917 -0.2097 -0.7491
   66MOL0     H 8697   0.173   8.681   2.444  1.8792 -0.8317  0.8527
   66MOL0     H 8698   1.833   8.230   2.284  1.1501  0.2295  0.7726
   66MOL0     H 8699   2.050   8.285   2.218 -2.3123  1.5224 -0.3074
   66MOL0     H 8700   2.428   8.221   1.887  0.0824  0.4656  0.1240
   66MOL0     H 8701   2.672   8.245   1.849  0.8261  0.3816  0.7577
   66MOL0     H 8702   2.873   8.272   1.866 -0.2378 -1.6394 -1.9565
   66MOL0     H 8703   2.947   8.105   1.866  2.0796 -1.6382  2.4530
   66MOL0     H 8704   3.108   8.294   1.864 -0.6689  0.8379 -0.0277
   66MOL0     H 8705   3.052   8.317   2.033 -0.9465 -0.1191 -0.6798
   66MOL0     H 8706   3.124   8.025   1.952  0.5467 -1.1697  2.7484
   66MOL0     H 8707   3.152   8.105   2.106 -0.6410 -0.1048  0.7083
   66MOL0     H 8708   3.369   8.055   1.973  2.4637  1.3968  1.5383
   66MOL0     H 8709   3.316   8.170   1.862  0.1845 -1.7384 -0.6826
   66MOL0     H 8710   3.488   8.391   2.190 -0.6081 -0.9999  1.5433
   66MOL0     H 8711   2.729   8.109   2.260 -1.9885 -0.5490  0.7101
   66MOL0     H 8712   2.508   8.109   2.301 -0.9752  0.2963 -0.4475
   67MOL0     O 8713   1.587   9.942   4.640  0.5057 -0.0892 -0.2375
   67MOL0     C 8714   1.668   9.997   4.713 -0.6192  0.1604 -0.3687
   67MOL0     O 8715   1.655  10.010   4.847 -0.0980  0.3743 -0.1771
   67MOL0     C 8716   1.542   9.982   4.926 -0.4541  1.4514 -0.3760
   67MOL0     C 8717   1.563   9.925   5.055  0.4728  0.1705 -0.7332
   67MOL0     C 8718   1.454   9.869   5.127 -0.0984 -0.5810 -0.0210
   67MOL0     C 8719   1.332   9.866   5.068  0.0523 -0.7544  0.7077
   67MOL0     O 8720   1.229   9.809   5.135  0.3608 -0.0587 -0.3976
   67MOL0     C 8721   1.097   9.864   5.134  0.6002  1.2587  0.9013
   67MOL0     C 8722   1.087  10.000   5.199 -0.3397 -0.1512 -0.0366
   67MOL0     C 8723   0.942  10.044   5.193 -1.0273 -0.2901  0.8132
   67MOL0     C 8724   0.912  10.151   5.299 -0.8854  0.3567  1.0846
   67MOL0     C 8725   0.781  10.220   5.261  0.0685  0.5309 -0.7071
   67MOL0     C 8726   0.665  10.130   5.299  0.5638  0.4795  0.6786
   67MOL0     C 8727   0.663  10.080   5.444 -0.8050 -0.7530  0.5470
   67MOL0     C 8728   0.538   9.987   5.471  1.0267  0.9755  0.6116
   67MOL0     N 8729   0.421  10.065   5.464 -0.3841 -1.0405 -0.1946
   67MOL0     C 8730   0.331  10.093   5.360 -0.0331 -0.6954  0.9309
   67MOL0     C 8731   0.240  10.176   5.411 -0.0096 -0.0687 -0.8315
   67MOL0     C 8732   0.140  10.244   5.322 -0.5389 -0.4520  0.0317
   67MOL0     C 8733   0.011  10.169   5.323 -0.4072  0.2710  0.6637
   67MOL0     C 8734  -0.060  10.196   5.459 -0.6298 -0.1213 -0.2262
   67MOL0     C 8735  -0.195  10.126   5.464  0.0782  0.0115  0.5839
   67MOL0     O 8736  -0.293  10.171   5.368 -0.5629 -0.5465 -0.4022
   67MOL0     C 8737  -0.418  10.111   5.386  0.0327 -0.3460  0.2152
   67MOL0     C 8738  -0.446  10.017   5.485  0.6537  0.2674  0.0204
   67MOL0     C 8739  -0.567   9.955   5.489  0.8444 -0.3161  0.4684
   67MOL0     C 8740  -0.674   9.992   5.402 -0.4552  0.5567 -0.1085
   67MOL0     C 8741  -0.811   9.945   5.438 -1.0914  0.3196  0.0520
   67MOL0     O 8742  -0.913  10.018   5.390 -0.3107  0.3767  0.4016
   67MOL0     C 8743  -1.042   9.993   5.427  0.3550  0.1832  0.3293
   67MOL0     C 8744  -1.105   9.868   5.438  1.4638  0.1305  0.9583
   67MOL0     C 8745  -1.244   9.852   5.459 -0.6725  0.3326  0.0355
   67MOL0     C 8746  -1.329   9.969   5.457  0.3274 -0.6567 -0.3609
   67MOL0     O 8747  -1.466   9.963   5.480 -0.5701 -0.1221  0.2908
   67MOL0     C 8748  -1.534   9.840   5.520 -0.0541 -0.0271 -0.9124
   67MOL0     C 8749  -1.680   9.877   5.549  0.1548 -0.3204 -0.3975
   67MOL0     C 8750  -1.759   9.951   5.448  0.5182 -0.5411 -0.7012
   67MOL0     C 8751  -1.873  10.022   5.527  0.2151 -0.2631 -0.1862
   67MOL0     C 8752  -1.961   9.927   5.615  0.4360  0.3188  0.0050
   67MOL0     C 8753  -2.055  10.015   5.710 -0.0329  0.2198 -0.2133
   67MOL0     C 8754  -2.170   9.942   5.788  0.8500  0.4884  0.7894
   67MOL0     C 8755  -2.200  10.009   5.916 -0.2370 -0.1794 -0.2819
   67MOL0    Cl 8756  -2.326   9.909   5.991 -0.0440  0.3696 -0.0202
   67MOL0     C 8757  -1.270  10.087   5.427  0.1483  0.4584  0.0047
   67MOL0     C 8758  -1.128  10.099   5.425  0.1777 -0.0186 -0.5093
   67MOL0     O 8759  -0.820   9.859   5.523  0.3675 -0.5134 -0.5772
   67MOL0     C 8760  -0.648  10.081   5.297  0.4383 -0.2478 -1.0163
   67MOL0     C 8761  -0.524  10.145   5.295  0.3189  0.7648 -0.8043
   67MOL0     N 8762   0.269  10.192   5.546  0.8724 -0.2873  0.3932
   67MOL0     N 8763   0.382  10.136   5.579 -1.2748  0.7254  0.8598
   67MOL0     C 8764   1.306   9.933   4.950  0.2777  0.7697  0.1916
   67MOL0     C 8765   1.413   9.983   4.872 -0.3826  0.2804 -0.1245
   67MOL0     C 8766   1.800  10.043   4.659  0.5349  0.1814 -0.2153
   67MOL0     C 8767   1.904  10.094   4.745 -0.7692 -0.3810  0.0985
   67MOL0     C 8768   2.030  10.129   4.688 -0.1364 -0.2093 -0.1472
   67MOL0     C 8769   2.049  10.121   4.554 -0.2633 -0.0315  0.8910
   67MOL0     O 8770   2.155  10.162   4.490  0.2457  0.3302  0.1507
   67MOL0     C 8771   2.227  10.066   4.416 -0.3228  0.8296 -0.5319
   67MOL0     C 8772   2.356  10.057   4.495 -1.0651 -0.5271  0.2409
   67MOL0     C 8773   2.431  10.193   4.493  0.3490  0.5475  0.9138
   67MOL0     C 8774   2.549  10.190   4.593 -0.5161  0.2262 -0.1854
   67MOL0     C 8775   2.645  10.076   4.568 -0.6568 -0.2318  0.3442
   67MOL0     C 8776   2.729   9.990   4.547  0.5980 -0.3771 -0.0370
   67MOL0     C 8777   1.944  10.078   4.469 -0.3574  0.0018 -0.3815
   67MOL0     C 8778   1.823  10.031   4.522 -0.2512 -0.7648 -0.2749
   67MOL0     H 8779   1.663   9.903   5.092 -0.2199 -0.1849  1.0140
   67MOL0     H 8780   1.477   9.814   5.218 -0.6968  0.2545  0.6495
   67MOL0     H 8781   1.035   9.796   5.193  0.4244  0.6956  0.0930
   67MOL0     H 8782   1.050   9.869   5.035  1.9731 -0.9310  0.0369
   67MOL0     H 8783   1.143  10.066   5.132  0.4275 -2.6448 -2.0317
   67MOL0     H 8784   1.134   9.986   5.296 -1.1052  0.7684  0.4857
   67MOL0     H 8785   0.891   9.958   5.238  0.1542 -0.1860  2.4210
   67MOL0     H 8786   0.921  10.080   5.092  0.5328  1.9913  1.2208
   67MOL0     H 8787   0.919  10.104   5.398 -1.6748 -3.1103 -0.3613
   67MOL0     H 8788   0.993  10.224   5.290 -1.0963  0.6553  1.5116
   67MOL0     H 8789   0.779  10.244   5.154 -1.1623 -0.6474 -0.9681
   67MOL0     H 8790   0.783  10.313   5.319  2.5370  1.6394 -2.3564
   67MOL0     H 8791   0.665  10.044   5.231  1.1856  2.0923 -1.4882
   67MOL0     H 8792   0.577  10.190   5.272  1.8922  1.9248 -0.6273
   67MOL0     H 8793   0.752  10.025   5.477 -1.5377  0.0406  4.2724
   67MOL0     H 8794   0.655  10.171   5.502  0.6510  0.3599 -0.8906
   67MOL0     H 8795   0.534   9.940   5.569  0.1211  3.5833  1.9097
   67MOL0     H 8796   0.531   9.910   5.393 -1.7889 -0.1550  1.8615
   67MOL0     H 8797   0.339  10.053   5.259  1.6859  4.1653 -1.1688
   67MOL0     H 8798   0.178  10.237   5.220 -0.3570 -0.2063  0.0815
   67MOL0     H 8799   0.121  10.348   5.352 -1.3726 -0.1542 -1.3929
   67MOL0     H 8800   0.017  10.063   5.300 -1.7845  0.0870  1.0377
   67MOL0     H 8801  -0.052  10.215   5.246 -0.2576 -1.3901 -0.4812
   67MOL0     H 8802  -0.006  10.149   5.543 -0.6002 -2.7806 -1.6351
   67MOL0     H 8803  -0.062  10.303   5.481  0.1939 -0.5909  2.5583
   67MOL0     H 8804  -0.235  10.137   5.565 -1.8049 -0.6179 -0.0360
   67MOL0     H 8805  -0.185  10.017   5.458 -0.4047  0.0100 -0.2515
   67MOL0     H 8806  -0.386   9.994   5.572  1.9869  0.1279 -0.9030
   67MOL0     H 8807  -0.584   9.898   5.580  1.3881 -0.7252  0.3269
   67MOL0     H 8808  -1.045   9.778   5.443 -0.7398 -1.7871 -2.6906
   67MOL0     H 8809  -1.291   9.759   5.489 -0.2336  0.1615  0.2029
   67MOL0     H 8810  -1.487   9.798   5.609 -0.1557  2.8528  0.6137
   67MOL0     H 8811  -1.534   9.772   5.434  2.8590  0.6355 -1.5526
   67MOL0     H 8812  -1.675   9.929   5.645 -0.0917 -0.1927 -0.4536
   67MOL0     H 8813  -1.733   9.781   5.553  0.6031 -0.6118 -1.0346
   67MOL0     H 8814  -1.784   9.881   5.367  2.6058  1.4925 -3.3164
   67MOL0     H 8815  -1.693  10.022   5.397  1.3030  0.3208  1.4241
   67MOL0     H 8816  -1.823  10.092   5.594 -2.8643  1.8534  0.1526
   67MOL0     H 8817  -1.943  10.081   5.467 -1.2988 -0.9197  0.8637
   67MOL0     H 8818  -1.905   9.864   5.684  0.1324  0.5475  0.4605
   67MOL0     H 8819  -2.018   9.858   5.552  3.3646 -2.4401  0.0755
   67MOL0     H 8820  -2.102  10.087   5.643  2.5606  2.6223  0.3747
   67MOL0     H 8821  -2.000  10.077   5.780 -0.9980  0.1377  0.6446
   67MOL0     H 8822  -2.257   9.923   5.725  0.9089 -1.5392  1.2353
   67MOL0     H 8823  -2.142   9.838   5.810  0.4074 -0.0629 -1.1038
   67MOL0     H 8824  -2.236  10.111   5.903 -1.5435 -0.8759 -2.7274
   67MOL0     H 8825  -2.109  10.009   5.978 -1.4875  0.3910  1.6472
   67MOL0     H 8826  -1.332  10.176   5.423  1.8170  1.6427 -0.7950
   67MOL0     H 8827  -1.083  10.196   5.406  2.7672 -1.2042 -0.7668
   67MOL0     H 8828  -0.711  10.106   5.211 -0.5007  2.8168  0.3998
   67MOL0     H 8829  -0.500  10.225   5.225 -2.1692 -0.2798 -3.0308
   67MOL0     H 8830   1.210   9.936   4.898  1.8732  1.8198 -2.9468
   67MOL0     H 8831   1.395  10.017   4.770 -2.0146  1.0380  0.3853
   67MOL0     H 8832   1.895  10.103   4.853 -1.0192  1.3460 -0.0365
   67MOL0     H 8833   2.118  10.150   4.747  0.1049  0.8578 -0.8714
   67MOL0     H 8834   2.231  10.090   4.309 -2.0389  1.7921 -0.4085
   67MOL0     H 8835   2.176   9.969   4.416  1.6072 -0.2944  1.7499
   67MOL0     H 8836   2.335  10.030   4.599  0.3543 -0.4823  0.5670
   67MOL0     H 8837   2.423   9.980   4.455 -1.7026 -1.7841  1.5274
   67MOL0     H 8838   2.360  10.270   4.523 -4.8814 -3.8999  1.6287
   67MOL0     H 8839   2.459  10.219   4.391 -3.0225  1.1481 -0.0018
   67MOL0     H 8840   2.603  10.282   4.568  2.6725 -1.9566 -2.0293
   67MOL0     H 8841   2.513  10.200   4.696  1.5108 -0.2395  0.6131
   67MOL0     H 8842   2.811   9.924   4.525  1.6523  1.1559 -0.8534
   67MOL0     H 8843   1.958  10.077   4.361  1.8355  2.0991 -0.2017
   67MOL0     H 8844   1.748   9.995   4.453  0.0230 -0.4164 -0.7612
   68MOL0     O 8845   6.294   1.616   0.572  0.0230 -0.1569  0.3347
   68MOL0     C 8846   6.300   1.551   0.677 -0.3761 -0.0815  0.2146
   68MOL0     O 8847   6.202   1.536   0.780 -0.0965  0.1984 -0.2516
   68MOL0     C 8848   6.075   1.587   0.766  0.7615  0.4496  0.2600
   68MOL0     C 8849   6.009   1.630   0.649  0.1841 -0.3065  0.0241
   68MOL0     C 8850   5.872   1.662   0.651  0.0313  0.2556  0.2396
   68MOL0     C 8851   5.797   1.654   0.770  0.1613  0.1097  0.3361
   68MOL0     O 8852   5.666   1.706   0.766 -0.0507 -0.6200  0.5306
   68MOL0     C 8853   5.594   1.715   0.895 -0.0969 -0.2093 -0.3194
   68MOL0     C 8854   5.440   1.737   0.858  0.2716  0.3140 -0.2600
   68MOL0     C 8855   5.401   1.880   0.827 -0.3228 -0.1895 -0.5256
   68MOL0     C 8856   5.256   1.888   0.795  0.1593 -0.6541 -0.0567
   68MOL0     C 8857   5.213   2.029   0.760 -0.2048  0.6821 -0.9909
   68MOL0     C 8858   5.060   2.055   0.765 -0.8125  0.0070  0.0779
   68MOL0     C 8859   4.999   2.003   0.637  0.4770  0.5089  0.1545
   68MOL0     C 8860   4.846   2.015   0.648  0.5690 -0.1531  0.0599
   68MOL0     N 8861   4.800   1.984   0.509 -0.0323 -0.0560  0.3273
   68MOL0     C 8862   4.758   1.860   0.464 -0.2651 -0.2414 -0.8165
   68MOL0     C 8863   4.713   1.878   0.336  0.0105  0.3625  0.3974
   68MOL0     C 8864   4.639   1.774   0.259  0.2620 -0.3507  0.1093
   68MOL0     C 8865   4.505   1.843   0.221 -0.4948  0.4964  0.1170
   68MOL0     C 8866   4.418   1.732   0.152  0.9674 -1.1306 -0.4604
   68MOL0     C 8867   4.352   1.636   0.254 -0.4819 -0.2934  0.5650
   68MOL0     O 8868   4.260   1.709   0.351  0.0630  0.5017 -0.0396
   68MOL0     C 8869   4.130   1.673   0.348 -0.0006 -0.1351  1.2161
   68MOL0     C 8870   4.029   1.743   0.275 -0.9136 -0.2843  0.6032
   68MOL0     C 8871   3.903   1.704   0.265 -0.1749  0.1141 -0.1582
   68MOL0     C 8872   3.863   1.589   0.336  0.0136 -0.1979 -1.2007
   68MOL0     C 8873   3.737   1.519   0.298 -0.4223  0.2294 -0.6646
   68MOL0     O 8874   3.661   1.579   0.203 -0.1591 -0.6234  0.0631
   68MOL0     C 8875   3.543   1.503   0.175  0.5176  0.0572 -0.3846
   68MOL0     C 8876   3.528   1.452   0.045  0.1710  0.0420  0.1657
   68MOL0     C 8877   3.403   1.403   0.010 -0.5545 -0.0463  0.1747
   68MOL0     C 8878   3.294   1.388   0.091 -0.1961 -0.1813  0.6256
   68MOL0     O 8879   3.182   1.331   0.042  0.0902 -0.2517 -0.1377
   68MOL0     C 8880   3.059   1.374   0.107 -0.3736  0.6100 -0.7701
   68MOL0     C 8881   2.947   1.339   0.026  0.2230  1.0628  0.3281
   68MOL0     C 8882   2.832   1.398   0.099 -0.3833  0.0463  0.5694
   68MOL0     C 8883   2.709   1.395   0.015  0.9057 -0.0316 -0.2108
   68MOL0     C 8884   2.595   1.442   0.109 -0.1598 -0.4338 -0.1366
   68MOL0     C 8885   2.468   1.458   0.019 -0.1718 -0.5623 -0.1184
   68MOL0     C 8886   2.347   1.472   0.106  0.8491 -0.8402 -0.7882
   68MOL0     C 8887   2.215   1.469   0.034  0.2556 -0.1164  0.3054
   68MOL0    Cl 8888   2.187   1.302  -0.015  0.3477  0.2017 -0.2274
   68MOL0     C 8889   3.310   1.439   0.221 -0.0820 -0.0554 -0.4512
   68MOL0     C 8890   3.429   1.497   0.260  0.1122 -0.2409  0.3726
   68MOL0     O 8891   3.708   1.410   0.358 -0.4930  0.5897  0.2663
   68MOL0     C 8892   3.958   1.514   0.411  0.4127  0.2617 -0.1613
   68MOL0     C 8893   4.093   1.555   0.412 -0.3795 -0.6171 -0.1611
   68MOL0     N 8894   4.720   2.014   0.311 -0.2343 -0.0317 -0.4086
   68MOL0     N 8895   4.786   2.074   0.407  0.5084  0.3658 -0.3824
   68MOL0     C 8896   5.861   1.615   0.888 -0.7684  0.4004 -0.0511
   68MOL0     C 8897   6.002   1.582   0.882 -0.0400 -0.3799  0.0421
   68MOL0     C 8898   6.429   1.486   0.694 -0.0652  0.8202 -0.2706
   68MOL0     C 8899   6.449   1.411   0.817 -0.2286  1.7298  0.0219
   68MOL0     C 8900   6.573   1.331   0.833  0.7146 -0.0120 -0.5334
   68MOL0     C 8901   6.668   1.323   0.737 -0.0422  0.3816  0.5584
   68MOL0     O 8902   6.795   1.266   0.728  0.3798  0.9859 -0.2077
   68MOL0     C 8903   6.862   1.262   0.852 -1.2743 -0.7439  0.5330
   68MOL0     C 8904   7.000   1.206   0.824  0.2311 -0.0450 -0.0862
   68MOL0     C 8905   7.071   1.183   0.957 -0.5483 -0.0645 -0.4669
   68MOL0     C 8906   7.003   1.070   1.041 -0.9243 -0.2218  0.1384
   68MOL0     C 8907   7.098   0.968   1.078 -0.7720 -0.0345 -0.4513
   68MOL0     C 8908   7.178   0.879   1.101  0.3164  0.1920 -0.2816
   68MOL0     C 8909   6.650   1.400   0.624  0.6175  0.3962 -0.4102
   68MOL0     C 8910   6.526   1.472   0.592 -0.4916 -0.3367 -0.2629
   68MOL0     H 8911   6.051   1.610   0.551  1.1128  1.0120  0.1284
   68MOL0     H 8912   5.808   1.688   0.567  1.4458  0.9476 -0.6608
   68MOL0     H 8913   5.633   1.789   0.965  3.7195 -4.0084  2.0081
   68MOL0     H 8914   5.605   1.619   0.946  1.7234  0.4776  0.6429
   68MOL0     H 8915   5.384   1.706   0.947  0.5378  0.5446 -0.0109
   68MOL0     H 8916   5.416   1.673   0.773 -3.9955  0.5191  0.5710
   68MOL0     H 8917   5.464   1.909   0.743  0.0646  2.0744  0.4708
   68MOL0     H 8918   5.425   1.948   0.910 -1.2996 -0.3281 -0.1146
   68MOL0     H 8919   5.244   1.834   0.701  0.4165  2.8840 -2.3098
   68MOL0     H 8920   5.187   1.847   0.870 -3.1592  0.3045 -2.3426
   68MOL0     H 8921   5.257   2.045   0.662  0.0084 -4.6955 -2.0235
   68MOL0     H 8922   5.269   2.099   0.823 -0.4194 -0.0372  0.0238
   68MOL0     H 8923   5.051   2.163   0.773  2.8996  0.3086  5.7714
   68MOL0     H 8924   5.022   2.016   0.859  2.6513 -1.5950  0.9629
   68MOL0     H 8925   5.046   2.055   0.552 -0.2174 -1.1452 -1.3070
   68MOL0     H 8926   5.026   1.900   0.615  0.0538 -0.0893  2.2998
   68MOL0     H 8927   4.816   2.112   0.689 -0.9146 -1.3870  2.0841
   68MOL0     H 8928   4.800   1.942   0.714 -0.0927  1.8019  1.8653
   68MOL0     H 8929   4.756   1.769   0.524 -1.9201 -0.1875 -0.7508
   68MOL0     H 8930   4.627   1.694   0.332  1.1184  1.0789  1.9009
   68MOL0     H 8931   4.683   1.738   0.165 -3.0396 -0.4242 -1.5602
   68MOL0     H 8932   4.526   1.918   0.144  3.0437 -0.4879 -0.0445
   68MOL0     H 8933   4.466   1.892   0.311  1.6526  2.8618 -0.1049
   68MOL0     H 8934   4.334   1.787   0.109  2.1387  1.0907 -0.0905
   68MOL0     H 8935   4.480   1.681   0.078  0.9380 -2.1198  0.1783
   68MOL0     H 8936   4.429   1.576   0.304 -1.1093  1.0603  3.3764
   68MOL0     H 8937   4.288   1.568   0.197  0.1662 -0.4353  0.0025
   68MOL0     H 8938   4.069   1.826   0.218 -0.9522 -0.4302  0.3594
   68MOL0     H 8939   3.836   1.761   0.201  0.8186  1.0127 -0.4282
   68MOL0     H 8940   3.603   1.465  -0.032 -0.1238 -1.4436 -0.3968
   68MOL0     H 8941   3.389   1.366  -0.091 -1.6945 -1.1638  0.7047
   68MOL0     H 8942   3.056   1.479   0.139 -2.2204 -0.1740  1.9548
   68MOL0     H 8943   3.043   1.319   0.200 -1.7457  3.4400  0.8005
   68MOL0     H 8944   2.932   1.233   0.001 -0.4402  1.2402 -0.0470
   68MOL0     H 8945   2.953   1.404  -0.061  1.4438  1.3533  0.6023
   68MOL0     H 8946   2.847   1.500   0.136 -2.3114  1.5731 -2.4092
   68MOL0     H 8947   2.813   1.337   0.188 -3.5956  2.1043  1.4447
   68MOL0     H 8948   2.708   1.477  -0.058  0.7570 -0.0446 -0.2237
   68MOL0     H 8949   2.695   1.297  -0.031 -1.7306  0.4756 -0.6416
   68MOL0     H 8950   2.623   1.539   0.149 -2.0847 -0.3999  1.2703
   68MOL0     H 8951   2.574   1.378   0.196 -1.3232 -0.7746 -0.6459
   68MOL0     H 8952   2.462   1.375  -0.052 -0.8002  0.2561 -1.0618
   68MOL0     H 8953   2.475   1.548  -0.043  2.3754 -2.3158 -2.5778
   68MOL0     H 8954   2.341   1.398   0.187  0.7901  1.5925  1.5477
   68MOL0     H 8955   2.358   1.571   0.151  0.0280  0.7534 -3.8387
   68MOL0     H 8956   2.213   1.525  -0.060 -1.5859  1.3525  1.1697
   68MOL0     H 8957   2.130   1.504   0.093  0.2957  0.5912 -0.0560
   68MOL0     H 8958   3.229   1.424   0.291 -0.9219 -0.1405 -1.4180
   68MOL0     H 8959   3.444   1.551   0.353  0.6026 -0.8458  0.6544
   68MOL0     H 8960   3.935   1.433   0.479  1.5324  0.1042  0.0433
   68MOL0     H 8961   4.170   1.503   0.467  2.0929 -1.2464 -3.8534
   68MOL0     H 8962   5.811   1.605   0.983  1.0907 -1.5268  0.8061
   68MOL0     H 8963   6.051   1.540   0.969 -0.6849 -1.5507 -0.1417
   68MOL0     H 8964   6.374   1.435   0.892 -0.2532  0.2648  0.4934
   68MOL0     H 8965   6.579   1.277   0.927 -1.4606  0.2002 -0.2173
   68MOL0     H 8966   6.809   1.199   0.923 -1.4872 -0.0288  1.0261
   68MOL0     H 8967   6.870   1.363   0.895 -2.3506 -0.6159  0.4603
   68MOL0     H 8968   6.986   1.116   0.764  2.6640 -1.2921  1.1069
   68MOL0     H 8969   7.055   1.284   0.770 -0.3188 -0.6483 -1.5876
   68MOL0     H 8970   7.081   1.278   1.011  0.7482 -1.0972  1.2324
   68MOL0     H 8971   7.171   1.150   0.930 -0.1706 -0.2910  1.0884
   68MOL0     H 8972   6.959   1.103   1.135 -1.2803 -1.8447  0.5612
   68MOL0     H 8973   6.927   1.026   0.975 -2.5718  2.4095  0.0950
   68MOL0     H 8974   7.261   0.811   1.105  1.2671  1.3039 -0.3350
   68MOL0     H 8975   6.734   1.392   0.557  0.5993 -0.8451 -0.3035
   68MOL0     H 8976   6.514   1.524   0.498  0.5908  0.0757 -0.1957
   69MOL0     O 8977  11.138   9.517  10.748  0.2181  0.2937 -1.3630
   69MOL0     C 8978  11.129   9.571  10.857  0.5260 -0.6171  0.1875
   69MOL0     O 8979  11.059   9.691  10.881 -0.4030  0.0342 -0.6821
   69MOL0     C 8980  11.002   9.765  10.784 -0.0595  0.5302  0.5164
   69MOL0     C 8981  10.883   9.833  10.826  0.4641  0.3113  0.0044
   69MOL0     C 8982  10.814   9.907  10.734 -0.7430 -1.0612 -0.2435
   69MOL0     C 8983  10.861   9.915  10.601  0.3972 -0.0579  0.3116
   69MOL0     O 8984  10.817   9.990  10.500 -0.2885  0.7089 -0.4728
   69MOL0     C 8985  10.731  10.098  10.545  0.1916  0.1203 -0.1487
   69MOL0     C 8986  10.691  10.191  10.420 -0.5222 -0.1935 -0.5087
   69MOL0     C 8987  10.795  10.201  10.308 -0.3430 -1.4864  0.6315
   69MOL0     C 8988  10.798  10.080  10.215 -0.1646  0.1203 -0.1035
   69MOL0     C 8989  10.868  10.114  10.090 -0.1666  0.6025 -0.3391
   69MOL0     C 8990  10.869  10.001   9.978 -0.4838 -0.5855 -0.8134
   69MOL0     C 8991  10.953  10.056   9.861  0.0008 -0.2803  0.2543
   69MOL0     C 8992  11.098  10.016   9.875 -0.3063 -0.8074  0.8923
   69MOL0     N 8993  11.109   9.890   9.804 -0.4214  0.6374 -0.3235
   69MOL0     C 8994  11.141   9.875   9.672 -0.6688  0.2061  0.5377
   69MOL0     C 8995  11.160   9.744   9.652 -0.4198  0.1371  0.2239
   69MOL0     C 8996  11.201   9.682   9.520  0.6903 -0.5952  0.4871
   69MOL0     C 8997  11.123   9.731   9.399  0.2581  0.4122  0.1578
   69MOL0     C 8998  10.977   9.687   9.421 -0.0154 -0.2268  0.4062
   69MOL0     C 8999  10.898   9.667   9.288 -0.0682  0.5128 -0.6231
   69MOL0     O 9000  10.749   9.684   9.315  0.1341  0.2657 -0.5067
   69MOL0     C 9001  10.689   9.579   9.388  0.3511 -0.0198 -0.2712
   69MOL0     C 9002  10.737   9.457   9.426 -0.2110  0.7407  0.3538
   69MOL0     C 9003  10.653   9.363   9.485 -0.8845  0.3481 -0.3008
   69MOL0     C 9004  10.521   9.380   9.508 -0.7614 -0.1375 -0.1653
   69MOL0     C 9005  10.431   9.279   9.572 -0.2908 -0.4695 -0.6980
   69MOL0     O 9006  10.486   9.180   9.645  0.0405  0.7628  0.3077
   69MOL0     C 9007  10.404   9.076   9.694 -0.4309  0.3122 -0.3352
   69MOL0     C 9008  10.297   9.008   9.626  0.3641 -0.5337  0.5340
   69MOL0     C 9009  10.234   8.903   9.688  0.1367  0.4623  0.4706
   69MOL0     C 9010  10.267   8.857   9.820 -0.6169 -0.3653 -0.3964
   69MOL0     O 9011  10.207   8.749   9.879  0.0402 -0.6180  0.1505
   69MOL0     C 9012  10.158   8.772  10.008 -0.4402 -0.1381 -0.3220
   69MOL0     C 9013  10.024   8.690  10.020 -1.2749 -0.0580  0.2298
   69MOL0     C 9014   9.947   8.706  10.154  0.4320  0.1475 -0.2306
   69MOL0     C 9015   9.961   8.856  10.196 -0.1501 -0.0977  0.1516
   69MOL0     C 9016   9.861   8.874  10.317  0.0486 -0.5671  0.1050
   69MOL0     C 9017   9.723   8.929  10.271 -0.2788 -1.4464  0.5113
   69MOL0     C 9018   9.640   8.962  10.402  0.1507 -0.9846  0.7011
   69MOL0     C 9019   9.493   8.973  10.373 -0.3634 -0.3815  0.2225
   69MOL0    Cl 9020   9.449   9.111  10.275  0.5968  0.5439 -0.1565
   69MOL0     C 9021  10.366   8.932   9.888  0.2792 -0.7152  0.3593
   69MOL0     C 9022  10.441   9.034   9.821  0.5263 -0.3472 -0.1971
   69MOL0     O 9023  10.311   9.283   9.537  0.0481 -0.6810 -0.0601
   69MOL0     C 9024  10.475   9.503   9.467 -1.1278 -0.4333 -0.5952
   69MOL0     C 9025  10.553   9.602   9.405  0.0235 -0.0034 -1.0057
   69MOL0     N 9026  11.154   9.685   9.776  1.2123 -0.0848 -0.2630
   69MOL0     N 9027  11.116   9.769   9.865 -0.5017  0.4097  0.5007
   69MOL0     C 9028  10.981   9.851  10.561 -0.0808 -0.0686 -0.2701
   69MOL0     C 9029  11.049   9.775  10.650  0.5209  0.4279 -0.7266
   69MOL0     C 9030  11.173   9.506  10.977  0.1828 -0.6545 -0.6144
   69MOL0     C 9031  11.266   9.405  10.980 -0.0956  0.7151 -0.6087
   69MOL0     C 9032  11.294   9.338  11.097  0.0788  0.1205 -0.5459
   69MOL0     C 9033  11.226   9.364  11.221  0.5009  0.6796 -0.6136
   69MOL0     O 9034  11.254   9.289  11.337  0.2430  0.5142 -0.3224
   69MOL0     C 9035  11.333   9.167  11.329  0.2566 -0.7457 -0.4975
   69MOL0     C 9036  11.328   9.078  11.454 -0.7061 -0.2332  0.2671
   69MOL0     C 9037  11.397   9.137  11.584  0.3952  0.6658  0.1827
   69MOL0     C 9038  11.397   9.022  11.675  0.2416  0.0629 -0.1320
   69MOL0     C 9039  11.382   9.062  11.815  0.2451 -1.1653 -1.1156
   69MOL0     C 9040  11.377   9.100  11.935 -0.6179  0.2500 -0.6903
   69MOL0     C 9041  11.123   9.454  11.217  0.3975 -0.4209  0.9125
   69MOL0     C 9042  11.099   9.528  11.101 -0.1198  0.7217 -0.0972
   69MOL0     H 9043  10.863   9.831  10.933 -0.0575 -2.4389 -0.0707
   69MOL0     H 9044  10.728   9.962  10.771  0.0679 -1.0268  1.6740
   69MOL0     H 9045  10.779  10.152  10.627  2.1618 -1.4290 -0.1879
   69MOL0     H 9046  10.645  10.046  10.588  0.7900  0.4045  1.4518
   69MOL0     H 9047  10.675  10.289  10.465 -1.5492 -1.5093  2.2480
   69MOL0     H 9048  10.602  10.163  10.364 -0.9714  1.3418 -0.6000
   69MOL0     H 9049  10.897  10.225  10.340 -0.2346 -0.0502 -0.6937
   69MOL0     H 9050  10.760  10.289  10.253 -1.1183 -1.5094  1.0716
   69MOL0     H 9051  10.852  10.000  10.266 -1.4083 -2.3156 -2.3564
   69MOL0     H 9052  10.698  10.037  10.208 -0.5294  0.3714  2.7012
   69MOL0     H 9053  10.973  10.136  10.113  0.1525  1.8973 -2.6624
   69MOL0     H 9054  10.830  10.207  10.047 -1.4629 -0.4110 -1.4970
   69MOL0     H 9055  10.766   9.992   9.944 -0.0056 -0.2024 -2.4295
   69MOL0     H 9056  10.912   9.906  10.012 -1.5450 -0.3741  1.3331
   69MOL0     H 9057  10.906  10.011   9.773  0.8144  2.5129 -1.7593
   69MOL0     H 9058  10.957  10.165   9.850  0.3701  0.0659  3.0755
   69MOL0     H 9059  11.136  10.015   9.977 -0.6449  2.5138  1.1675
   69MOL0     H 9060  11.166  10.087   9.826  0.2883 -0.2417  2.4802
   69MOL0     H 9061  11.143   9.953   9.597 -4.7690  2.4646  2.4404
   69MOL0     H 9062  11.205   9.572   9.518 -0.7532 -0.6724  0.6602
   69MOL0     H 9063  11.304   9.713   9.504  0.4171 -0.1773 -0.5887
   69MOL0     H 9064  11.162   9.681   9.310 -1.8387 -0.0531 -0.5549
   69MOL0     H 9065  11.139   9.839   9.395 -0.5818  0.5088 -0.9586
   69MOL0     H 9066  10.978   9.593   9.477  0.2950 -0.3682  0.1713
   69MOL0     H 9067  10.928   9.763   9.483  1.4535  0.3395  0.8945
   69MOL0     H 9068  10.930   9.579   9.231 -1.3504 -0.6490  0.3966
   69MOL0     H 9069  10.923   9.757   9.231  2.2406  1.6146  1.9231
   69MOL0     H 9070  10.844   9.440   9.416 -0.2368  0.9716 -0.3540
   69MOL0     H 9071  10.696   9.266   9.507  0.9526  0.6704 -2.1536
   69MOL0     H 9072  10.279   9.041   9.524  2.5803  2.0377  0.8573
   69MOL0     H 9073  10.159   8.837   9.646  1.7768  0.4509 -2.7898
   69MOL0     H 9074  10.142   8.877  10.032  2.0864  0.4696 -1.0988
   69MOL0     H 9075  10.225   8.732  10.084 -0.7397  0.1174  0.0796
   69MOL0     H 9076  10.052   8.585  10.014 -1.0497  0.0327 -0.4644
   69MOL0     H 9077   9.953   8.713   9.940 -0.7660 -2.4198 -0.9875
   69MOL0     H 9078  10.002   8.644  10.226  3.0851  2.2621 -0.2934
   69MOL0     H 9079   9.844   8.670  10.144  2.1095 -5.4291 -0.7465
   69MOL0     H 9080  10.064   8.875  10.227 -0.0012 -0.7026  0.0349
   69MOL0     H 9081   9.931   8.928  10.119  1.0751  2.7900  2.1679
   69MOL0     H 9082   9.907   8.955  10.373  0.3083  0.5111 -1.5772
   69MOL0     H 9083   9.845   8.784  10.376  0.0950 -0.9986 -0.5263
   69MOL0     H 9084   9.667   8.844  10.231  0.1541 -1.1171 -0.8330
   69MOL0     H 9085   9.718   9.013  10.201  0.3778 -1.4292  0.4825
   69MOL0     H 9086   9.657   8.892  10.484  0.4422  0.6726  2.1139
   69MOL0     H 9087   9.674   9.060  10.438  0.1380 -0.0305 -1.7049
   69MOL0     H 9088   9.441   8.987  10.468 -2.3706  0.5233 -0.9456
   69MOL0     H 9089   9.464   8.878  10.326  0.7191  0.1269 -1.5329
   69MOL0     H 9090  10.395   8.913   9.991 -0.0509  2.0251  1.0305
   69MOL0     H 9091  10.518   9.083   9.880  0.5933 -2.6380  1.7636
   69MOL0     H 9092  10.367   9.507   9.477 -1.1995  2.6966 -1.3591
   69MOL0     H 9093  10.509   9.697   9.373 -2.6124 -0.7936 -0.0663
   69MOL0     H 9094  11.024   9.860  10.462  0.5895  1.1359  0.1076
   69MOL0     H 9095  11.141   9.722  10.627  1.3451  0.7405  1.5263
   69MOL0     H 9096  11.311   9.372  10.887 -0.1863  1.6975 -1.0089
   69MOL0     H 9097  11.369   9.260  11.090 -1.4138 -1.3009 -1.4107
   69MOL0     H 9098  11.435   9.201  11.308  0.2893 -2.4974 -3.8783
   69MOL0     H 9099  11.289   9.103  11.252 -3.6585  1.3177 -0.2421
   69MOL0     H 9100  11.221   9.061  11.469 -0.5743 -1.7874 -0.3218
   69MOL0     H 9101  11.381   8.985  11.428  0.5151 -0.3775  2.9734
   69MOL0     H 9102  11.353   9.229  11.624  1.0108  1.4838 -0.9760
   69MOL0     H 9103  11.504   9.153  11.570  0.8287 -0.8975  1.4280
   69MOL0     H 9104  11.311   8.958  11.655  0.3772  0.3958 -1.9513
   69MOL0     H 9105  11.491   8.966  11.666 -0.3949 -0.9651 -0.4847
   69MOL0     H 9106  11.370   9.127  12.038  0.4625  0.2060 -0.5929
   69MOL0     H 9107  11.066   9.491  11.302  0.1989  0.4452  0.4160
   69MOL0     H 9108  11.018   9.600  11.108 -0.2033  0.6051  0.1469
   70MOL0     O 9109   1.000   4.343   2.550 -0.7291  0.0634  0.2309
   70MOL0     C 9110   1.035   4.284   2.655  0.6081  0.0944  0.7410
   70MOL0     O 9111   0.958   4.205   2.728  0.1554  0.4508  0.0530
   70MOL0     C 9112   0.820   4.227   2.720  0.1914  0.2841  0.2965
   70MOL0     C 9113   0.736   4.146   2.637 -0.0793 -0.6470 -0.0909
   70MOL0     C 9114   0.600   4.168   2.645 -0.0966 -0.0447  0.4695
   70MOL0     C 9115   0.545   4.261   2.724  0.2013  0.1323 -0.6697
   70MOL0     O 9116   0.406   4.273   2.728 -0.9507  0.2056 -0.2386
   70MOL0     C 9117   0.351   4.408   2.753  0.4474 -0.2665  0.5535
   70MOL0     C 9118   0.278   4.465   2.630 -0.2832  0.2398  0.0499
   70MOL0     C 9119   0.233   4.613   2.645  0.2090  0.8906  0.8109
   70MOL0     C 9120   0.168   4.655   2.520 -0.3687 -0.2049  0.2659
   70MOL0     C 9121   0.095   4.787   2.536 -0.8376  0.7873  0.3612
   70MOL0     C 9122   0.069   4.842   2.398 -0.5726 -0.3286 -0.4907
   70MOL0     C 9123   0.007   4.982   2.418  0.0175  0.9467 -0.0652
   70MOL0     C 9124  -0.135   4.981   2.446  0.2384  0.3536  0.0395
   70MOL0     N 9125  -0.173   5.126   2.422  0.2504  0.0551  0.2144
   70MOL0     C 9126  -0.130   5.240   2.486 -0.3170  0.9796  0.9259
   70MOL0     C 9127  -0.166   5.339   2.403 -0.6046  0.9478  0.2992
   70MOL0     C 9128  -0.132   5.478   2.423 -0.0892 -0.7922 -0.2032
   70MOL0     C 9129  -0.003   5.513   2.349 -0.9170 -0.3091  0.3988
   70MOL0     C 9130  -0.008   5.496   2.195 -0.3798  0.0142 -0.0908
   70MOL0     C 9131  -0.121   5.585   2.133  0.1334  0.0585 -0.8101
   70MOL0     O 9132  -0.089   5.728   2.135 -0.0824 -0.0762  1.1296
   70MOL0     C 9133  -0.181   5.817   2.088  0.5260 -0.7325 -0.7422
   70MOL0     C 9134  -0.152   5.951   2.098  0.1414 -0.5372  0.4590
   70MOL0     C 9135  -0.241   6.060   2.076  0.4033 -0.4276  0.3691
   70MOL0     C 9136  -0.371   6.030   2.048  0.1912  0.2352 -0.0002
   70MOL0     C 9137  -0.474   6.144   2.034  0.5688 -0.3538 -0.2514
   70MOL0     O 9138  -0.608   6.119   2.005 -0.2310 -0.0794 -0.1054
   70MOL0     C 9139  -0.715   6.209   1.991 -0.6170  0.4298  0.5042
   70MOL0     C 9140  -0.708   6.345   1.969 -0.2430  0.2178 -0.2997
   70MOL0     C 9141  -0.823   6.423   1.921 -0.3343  0.4998 -0.0249
   70MOL0     C 9142  -0.941   6.360   1.897  0.4083  0.2461 -0.3715
   70MOL0     O 9143  -1.047   6.430   1.850  0.0587  0.1171 -0.4391
   70MOL0     C 9144  -1.184   6.388   1.864 -0.6894 -0.0438  0.8405
   70MOL0     C 9145  -1.271   6.501   1.888  0.7978 -0.8049 -0.1325
   70MOL0     C 9146  -1.427   6.473   1.872 -1.1538  0.6928  0.6294
   70MOL0     C 9147  -1.503   6.601   1.893  0.4808 -0.4860 -0.1202
   70MOL0     C 9148  -1.648   6.585   1.945 -0.2219 -0.1142  0.0479
   70MOL0     C 9149  -1.721   6.718   1.964 -0.2959  0.2064  0.0363
   70MOL0     C 9150  -1.678   6.797   2.089 -0.6803 -0.7574 -0.4157
   70MOL0     C 9151  -1.722   6.947   2.071  0.4681  1.1595 -0.3474
   70MOL0    Cl 9152  -1.664   7.022   2.210  0.4157 -0.3494 -0.0197
   70MOL0     C 9153  -0.956   6.221   1.928 -0.0441 -0.0964 -0.5214
   70MOL0     C 9154  -0.842   6.141   1.979  0.1825  0.3512  0.9989
   70MOL0     O 9155  -0.431   6.253   2.058 -0.4518  0.0380 -0.0127
   70MOL0     C 9156  -0.406   5.898   2.039 -0.2823 -0.3947 -0.2190
   70MOL0     C 9157  -0.319   5.795   2.062  0.4968  0.5339  0.2122
   70MOL0     N 9158  -0.233   5.276   2.296  0.9189  0.0884  0.2950
   70MOL0     N 9159  -0.238   5.150   2.307 -0.1734  0.0773  0.4876
   70MOL0     C 9160   0.629   4.333   2.808 -0.2540  0.0590 -0.3342
   70MOL0     C 9161   0.765   4.322   2.810  0.0890  0.2031 -0.9984
   70MOL0     C 9162   1.179   4.289   2.692  0.3323 -0.4774 -0.6526
   70MOL0     C 9163   1.236   4.198   2.788 -0.2945  0.0164  0.0665
   70MOL0     C 9164   1.370   4.196   2.832 -0.0559 -0.5839 -0.7915
   70MOL0     C 9165   1.456   4.299   2.779 -0.2136  0.2051  1.1818
   70MOL0     O 9166   1.589   4.302   2.822 -0.0131  0.4426 -0.2334
   70MOL0     C 9167   1.624   4.395   2.920 -0.1690 -0.0126  0.5319
   70MOL0     C 9168   1.619   4.331   3.065  0.7226 -0.7461  0.4924
   70MOL0     C 9169   1.708   4.431   3.151  0.4562 -0.3296 -0.6151
   70MOL0     C 9170   1.865   4.402   3.157  0.7182 -0.3768  0.7189
   70MOL0     C 9171   1.929   4.447   3.040 -0.0128  0.1280 -0.3899
   70MOL0     C 9172   1.970   4.507   2.942  0.2996  0.4675 -0.2838
   70MOL0     C 9173   1.402   4.385   2.675  0.3562 -0.6250 -0.2605
   70MOL0     C 9174   1.263   4.379   2.633  0.2186 -0.1296  0.1673
   70MOL0     H 9175   0.781   4.064   2.582 -4.2452 -3.3264  0.0497
   70MOL0     H 9176   0.532   4.122   2.574 -0.8907  1.6558  0.0768
   70MOL0     H 9177   0.420   4.487   2.784 -0.6566  0.4485  1.2503
   70MOL0     H 9178   0.286   4.389   2.838  2.0636 -4.5030  1.0715
   70MOL0     H 9179   0.182   4.417   2.611 -0.7269  1.0279  0.2627
   70MOL0     H 9180   0.336   4.458   2.538 -0.4117  2.4411 -0.2433
   70MOL0     H 9181   0.328   4.666   2.661  0.6443  0.0462  1.0860
   70MOL0     H 9182   0.159   4.628   2.724 -1.1765 -0.1364 -0.2532
   70MOL0     H 9183   0.252   4.669   2.452  0.4215  2.7224  1.6772
   70MOL0     H 9184   0.103   4.581   2.474 -0.0109 -0.4706  0.1801
   70MOL0     H 9185   0.153   4.857   2.597  0.7494  3.2155 -3.5547
   70MOL0     H 9186  -0.002   4.774   2.586 -1.0955  1.3347  0.0118
   70MOL0     H 9187   0.007   4.774   2.337 -0.0169 -1.2187 -0.0773
   70MOL0     H 9188   0.164   4.855   2.346 -1.2197 -3.0457 -2.5666
   70MOL0     H 9189   0.054   5.025   2.507 -0.0052 -2.3142  1.6745
   70MOL0     H 9190   0.021   5.040   2.326  0.9886  1.5424  0.4436
   70MOL0     H 9191  -0.164   4.945   2.545 -0.5911 -0.6426 -0.5370
   70MOL0     H 9192  -0.197   4.910   2.391  0.7502 -0.6592  0.7379
   70MOL0     H 9193  -0.065   5.242   2.574  3.0857  2.2213 -1.3792
   70MOL0     H 9194  -0.103   5.492   2.527 -1.2637 -2.9296  0.4807
   70MOL0     H 9195  -0.214   5.549   2.408  0.8968  0.6565  0.9965
   70MOL0     H 9196   0.067   5.443   2.395  1.5165  0.6818 -1.5187
   70MOL0     H 9197   0.026   5.615   2.376 -0.0147 -0.4426 -0.0163
   70MOL0     H 9198   0.088   5.522   2.151  1.5927 -2.4874  2.3762
   70MOL0     H 9199  -0.018   5.391   2.166  2.1546 -0.3742  0.2522
   70MOL0     H 9200  -0.216   5.567   2.184  0.7222  0.9347  0.6565
   70MOL0     H 9201  -0.136   5.552   2.030 -1.0941 -2.8503  0.1847
   70MOL0     H 9202  -0.046   5.970   2.115 -0.3757 -0.2217  4.0897
   70MOL0     H 9203  -0.202   6.161   2.079  0.0567 -0.2282 -1.1483
   70MOL0     H 9204  -0.611   6.392   1.977  0.6554 -1.1519 -2.2366
   70MOL0     H 9205  -0.815   6.530   1.908 -0.7844  1.1377  3.7934
   70MOL0     H 9206  -1.198   6.312   1.942  0.3481 -1.5159 -0.3477
   70MOL0     H 9207  -1.212   6.341   1.769 -2.8320  2.1432  0.2932
   70MOL0     H 9208  -1.242   6.579   1.817  1.6301 -1.0149 -0.0364
   70MOL0     H 9209  -1.252   6.534   1.990 -1.5219 -1.5431  0.5952
   70MOL0     H 9210  -1.464   6.394   1.938  3.6587 -0.5942  2.2094
   70MOL0     H 9211  -1.456   6.435   1.774 -0.3756 -0.2509  0.7547
   70MOL0     H 9212  -1.451   6.654   1.973 -1.5074 -1.0867  1.6728
   70MOL0     H 9213  -1.505   6.659   1.800 -0.6085 -0.8870 -0.3629
   70MOL0     H 9214  -1.643   6.526   2.037 -0.2364  1.5830  1.1853
   70MOL0     H 9215  -1.696   6.516   1.874  2.7881 -1.3652 -0.9281
   70MOL0     H 9216  -1.825   6.688   1.971 -0.0770 -0.5595  0.0504
   70MOL0     H 9217  -1.699   6.780   1.876  0.0846 -0.2782 -0.2149
   70MOL0     H 9218  -1.721   6.741   2.173 -1.1393 -4.5720 -2.9123
   70MOL0     H 9219  -1.570   6.791   2.098 -0.5398  0.4417 -1.1356
   70MOL0     H 9220  -1.831   6.952   2.060  0.5120  0.4073 -1.2036
   70MOL0     H 9221  -1.684   7.000   1.983  0.6536 -0.3838 -1.2235
   70MOL0     H 9222  -1.051   6.173   1.906  1.0482 -3.4500  1.3612
   70MOL0     H 9223  -0.850   6.033   1.994  3.0210  0.0157  0.6436
   70MOL0     H 9224  -0.507   5.878   2.003  0.3556 -0.6440 -1.9777
   70MOL0     H 9225  -0.352   5.692   2.062 -0.1692  0.7415  0.4869
   70MOL0     H 9226   0.600   4.405   2.885  3.2080 -0.4120  1.6210
   70MOL0     H 9227   0.824   4.368   2.888  1.0711 -0.9895 -1.0015
   70MOL0     H 9228   1.172   4.123   2.833  2.3117 -0.8726  2.6514
   70MOL0     H 9229   1.402   4.120   2.902  1.8598  0.9266  0.0678
   70MOL0     H 9230   1.567   4.487   2.908  0.5115  0.3961  0.4002
   70MOL0     H 9231   1.729   4.412   2.893  0.8953 -3.0572  2.1898
   70MOL0     H 9232   1.516   4.329   3.102  0.4861  0.3267 -0.0343
   70MOL0     H 9233   1.658   4.231   3.048  0.8061 -0.2865 -2.7201
   70MOL0     H 9234   1.690   4.416   3.258  1.4980  1.8842 -0.0893
   70MOL0     H 9235   1.682   4.532   3.120 -3.0807 -0.3043  1.8512
   70MOL0     H 9236   1.904   4.447   3.249 -1.6165 -0.7197  1.9446
   70MOL0     H 9237   1.880   4.295   3.171  1.8105 -0.5649 -1.4176
   70MOL0     H 9238   2.008   4.580   2.873 -1.2282  0.3134 -1.3458
   70MOL0     H 9239   1.461   4.453   2.614 -0.4144  0.9839  0.7081
   70MOL0     H 9240   1.240   4.448   2.553  3.8977  3.2278  1.6353
   71MOL0     O 9241   7.380   9.249   8.356 -0.0486  0.4082  0.2573
   71MOL0     C 9242   7.431   9.216   8.247  0.1451  1.2388  0.0781
   71MOL0     O 9243   7.368   9.206   8.124  0.7571 -0.3131 -0.2030
   71MOL0     C 9244   7.237   9.199   8.117  0.4341 -0.5533  0.6653
   71MOL0     C 9245   7.173   9.109   8.032 -0.4612  0.3168  0.3407
   71MOL0     C 9246   7.032   9.114   8.028 -0.0800 -0.2828 -0.3821
   71MOL0     C 9247   6.956   9.219   8.081  0.5570 -0.2226  0.4042
   71MOL0     O 9248   6.816   9.216   8.059  0.2466 -0.4274 -0.1499
   71MOL0     C 9249   6.731   9.277   8.158  0.6507  0.0623  0.1092
   71MOL0     C 9250   6.582   9.252   8.150  0.3165  0.5579  0.3291
   71MOL0     C 9251   6.550   9.101   8.139  0.4369 -0.1483 -0.2430
   71MOL0     C 9252   6.431   9.060   8.231  0.5932 -0.2115 -0.2851
   71MOL0     C 9253   6.373   8.926   8.183 -0.2664 -0.0543  0.3017
   71MOL0     C 9254   6.254   8.885   8.270 -0.6299 -0.2966  0.7015
   71MOL0     C 9255   6.221   8.742   8.223 -0.2296  0.7378 -0.5940
   71MOL0     C 9256   6.101   8.697   8.310 -0.2053  0.0733  0.7452
   71MOL0     N 9257   6.122   8.659   8.452 -0.2283 -0.6430 -0.0103
   71MOL0     C 9258   6.184   8.537   8.483  0.9900 -0.0759  0.2889
   71MOL0     C 9259   6.165   8.528   8.620  0.8620 -0.7031  0.2629
   71MOL0     C 9260   6.214   8.417   8.706 -0.2912  0.3311 -1.0244
   71MOL0     C 9261   6.109   8.302   8.703 -0.1060  0.1435 -0.3812
   71MOL0     C 9262   6.107   8.230   8.836 -0.9342 -0.5902  0.6750
   71MOL0     C 9263   5.969   8.160   8.853 -1.2397  0.6742  0.0292
   71MOL0     O 9264   5.949   8.075   8.741 -0.1278  0.9530  0.0655
   71MOL0     C 9265   5.831   8.015   8.710  1.1426 -0.1423  0.0899
   71MOL0     C 9266   5.710   8.044   8.774  1.1225  0.0713 -0.6086
   71MOL0     C 9267   5.595   7.967   8.752  0.4916 -1.2184 -0.3915
   71MOL0     C 9268   5.585   7.879   8.643  0.1320  0.2564 -0.6225
   71MOL0     C 9269   5.461   7.814   8.603  0.4088 -0.7257  0.5303
   71MOL0     O 9270   5.484   7.719   8.517  0.5202 -0.2020 -0.0986
   71MOL0     C 9271   5.387   7.637   8.463 -0.0161 -0.0203 -0.0188
   71MOL0     C 9272   5.257   7.614   8.502  0.2283  0.0900  0.1005
   71MOL0     C 9273   5.181   7.516   8.442  1.1238 -0.2774  0.7168
   71MOL0     C 9274   5.218   7.440   8.330  0.2981 -0.2942  0.2432
   71MOL0     O 9275   5.131   7.358   8.262 -0.0012  0.1485 -0.4011
   71MOL0     C 9276   5.041   7.279   8.341 -0.4400 -0.3085 -0.0656
   71MOL0     C 9277   5.044   7.135   8.293 -0.3388 -0.1999 -0.1559
   71MOL0     C 9278   4.935   7.054   8.357  0.7746 -0.4838  0.2150
   71MOL0     C 9279   4.796   7.082   8.297  0.3445  0.4328  0.4016
   71MOL0     C 9280   4.688   6.982   8.354  0.3101  0.5968  0.6214
   71MOL0     C 9281   4.545   6.998   8.288 -0.0351 -0.0098  0.6497
   71MOL0     C 9282   4.453   6.881   8.341 -0.0424  0.3100  0.7392
   71MOL0     C 9283   4.312   6.900   8.275 -0.3342 -0.1061 -0.3349
   71MOL0    Cl 9284   4.247   7.062   8.306 -0.0257  0.0432  0.2534
   71MOL0     C 9285   5.351   7.465   8.282  0.4739  0.1345 -0.1794
   71MOL0     C 9286   5.432   7.555   8.351  0.4180 -0.7888  0.9418
   71MOL0     O 9287   5.350   7.858   8.637  0.5344  0.0651  0.0509
   71MOL0     C 9288   5.707   7.851   8.577  0.2402  0.0594 -0.1115
   71MOL0     C 9289   5.828   7.921   8.610  0.0154 -0.4803 -0.5232
   71MOL0     N 9290   6.106   8.643   8.666  0.2463 -0.5157  0.2069
   71MOL0     N 9291   6.075   8.718   8.566 -0.2060  0.1608  0.6070
   71MOL0     C 9292   7.024   9.310   8.157 -0.8286  0.2021  0.5020
   71MOL0     C 9293   7.165   9.298   8.180  0.3633 -0.6386 -0.2412
   71MOL0     C 9294   7.570   9.177   8.261 -0.2635 -0.3172  0.5777
   71MOL0     C 9295   7.639   9.198   8.383  0.5533  0.4211  0.0992
   71MOL0     C 9296   7.773   9.162   8.398  0.3671  0.6513 -1.1426
   71MOL0     C 9297   7.854   9.101   8.295  0.9688  0.2595  0.0575
   71MOL0     O 9298   7.989   9.063   8.313  0.3139 -0.6661  1.3800
   71MOL0     C 9299   8.071   9.119   8.422  0.1464  0.4762 -0.3547
   71MOL0     C 9300   8.194   9.032   8.446  0.7344  0.0874  0.1874
   71MOL0     C 9301   8.160   8.888   8.425  0.4957  0.1890  0.5892
   71MOL0     C 9302   8.248   8.796   8.514 -1.1569  0.5734 -0.2647
   71MOL0     C 9303   8.212   8.656   8.518 -0.4407  0.1104 -0.8391
   71MOL0     C 9304   8.163   8.548   8.519 -0.1745 -1.4737  0.6366
   71MOL0     C 9305   7.781   9.074   8.177  0.3601  0.0021 -0.0031
   71MOL0     C 9306   7.650   9.116   8.160  0.1932  0.3313 -0.1318
   71MOL0     H 9307   7.237   9.038   7.980 -0.2387  1.3073 -0.7926
   71MOL0     H 9308   6.974   9.042   7.971 -0.9215 -0.5403  0.7824
   71MOL0     H 9309   6.745   9.385   8.147 -1.8375  0.3115 -1.5550
   71MOL0     H 9310   6.756   9.252   8.261  0.0219  0.7412  0.4381
   71MOL0     H 9311   6.543   9.295   8.057  0.2288  3.5876  1.6502
   71MOL0     H 9312   6.525   9.285   8.237  0.6044 -3.0016  2.0292
   71MOL0     H 9313   6.629   9.033   8.171 -0.6306 -2.1160 -1.5334
   71MOL0     H 9314   6.533   9.085   8.032  1.1265  1.9561 -0.7074
   71MOL0     H 9315   6.468   9.058   8.334 -0.5567 -3.6763  0.2038
   71MOL0     H 9316   6.358   9.141   8.232  1.1844  0.5323  4.0292
   71MOL0     H 9317   6.453   8.852   8.186  1.0023  1.0397 -2.6510
   71MOL0     H 9318   6.338   8.929   8.080  2.4654  0.7865 -0.6798
   71MOL0     H 9319   6.168   8.952   8.259  1.0963  2.1103  1.1574
   71MOL0     H 9320   6.283   8.884   8.376 -1.1848  2.4722  0.9481
   71MOL0     H 9321   6.185   8.738   8.119  0.8699  0.4108 -0.9736
   71MOL0     H 9322   6.300   8.668   8.240 -0.0921  1.0769  0.2974
   71MOL0     H 9323   6.045   8.614   8.267 -1.1828  2.2412 -2.4974
   71MOL0     H 9324   6.023   8.774   8.309  0.1464  0.5633  3.3218
   71MOL0     H 9325   6.249   8.478   8.420 -0.1096 -2.1279  0.9832
   71MOL0     H 9326   6.225   8.444   8.812 -2.4274 -2.5688  0.0433
   71MOL0     H 9327   6.315   8.396   8.668  0.3888 -0.3255  1.0345
   71MOL0     H 9328   6.151   8.236   8.627  3.0047  2.0403 -0.4755
   71MOL0     H 9329   6.011   8.345   8.679 -0.2535 -0.0312 -0.0973
   71MOL0     H 9330   6.195   8.167   8.848  0.3332  0.9991  0.0476
   71MOL0     H 9331   6.123   8.300   8.918  3.7083  1.1270 -1.3886
   71MOL0     H 9332   5.893   8.238   8.858 -0.1329  1.7762 -0.0474
   71MOL0     H 9333   5.961   8.096   8.942 -0.1861 -0.3138 -0.5611
   71MOL0     H 9334   5.708   8.116   8.856 -1.8986  0.0896 -0.5826
   71MOL0     H 9335   5.512   7.994   8.816  0.3397 -0.0766 -1.0477
   71MOL0     H 9336   5.207   7.663   8.585 -2.8204 -0.7734 -1.1003
   71MOL0     H 9337   5.076   7.507   8.470  0.3061 -0.0704 -1.9563
   71MOL0     H 9338   4.943   7.325   8.329 -0.9646 -1.7751 -1.8471
   71MOL0     H 9339   5.068   7.277   8.447 -2.2740  1.5119  0.5001
   71MOL0     H 9340   5.142   7.096   8.322  0.0675  0.6227 -0.3860
   71MOL0     H 9341   5.042   7.124   8.185  1.5859  0.4935 -0.3033
   71MOL0     H 9342   4.930   7.067   8.466  3.0039 -0.2688  0.3245
   71MOL0     H 9343   4.948   6.949   8.333 -1.5136 -1.0646  1.2003
   71MOL0     H 9344   4.759   7.184   8.312  1.0965  0.6083  1.1443
   71MOL0     H 9345   4.807   7.063   8.190 -0.2617 -0.1310  0.4343
   71MOL0     H 9346   4.691   6.998   8.463  0.7265 -1.7263  0.9911
   71MOL0     H 9347   4.721   6.881   8.333 -0.9501  0.3347 -0.2317
   71MOL0     H 9348   4.551   6.982   8.179 -1.5525  1.3513  0.3296
   71MOL0     H 9349   4.515   7.102   8.303  3.4663  1.3362 -0.6174
   71MOL0     H 9350   4.508   6.789   8.320  2.0402  1.8123 -0.8797
   71MOL0     H 9351   4.448   6.876   8.450  0.0990 -2.3315  0.6796
   71MOL0     H 9352   4.247   6.820   8.313  0.1418 -1.6077 -2.4537
   71MOL0     H 9353   4.320   6.882   8.167  2.5745  2.4001 -0.6735
   71MOL0     H 9354   5.381   7.406   8.196 -1.0086 -0.2064 -0.4991
   71MOL0     H 9355   5.533   7.570   8.316 -0.2882  0.6366 -0.6443
   71MOL0     H 9356   5.705   7.780   8.495 -1.6813  0.0023 -0.0511
   71MOL0     H 9357   5.922   7.899   8.559 -0.1754 -0.3372 -0.9394
   71MOL0     H 9358   6.978   9.389   8.216  2.0160  2.4629 -0.1177
   71MOL0     H 9359   7.210   9.368   8.250 -1.6242  1.0554 -0.5607
   71MOL0     H 9360   7.577   9.226   8.467  0.1092 -0.4314  0.0631
   71MOL0     H 9361   7.820   9.191   8.491  0.8645  4.5324 -2.4091
   71MOL0     H 9362   8.018   9.127   8.517  1.0227 -0.5189  0.2325
   71MOL0     H 9363   8.118   9.212   8.390  3.0040 -0.5176  0.6794
   71MOL0     H 9364   8.271   9.068   8.377  0.4144 -1.2190 -0.8799
   71MOL0     H 9365   8.218   9.051   8.551 -0.3259  4.0337 -0.1239
   71MOL0     H 9366   8.178   8.857   8.322  0.5589  1.8503  0.0764
   71MOL0     H 9367   8.054   8.866   8.440 -0.9958  1.3987 -5.4547
   71MOL0     H 9368   8.352   8.777   8.486 -0.5555  0.5366  1.7885
   71MOL0     H 9369   8.253   8.839   8.615  1.5203 -0.7927  0.2930
   71MOL0     H 9370   8.127   8.448   8.531  1.3348 -2.2880 -1.0718
   71MOL0     H 9371   7.823   9.040   8.083  0.5188  0.9585 -0.2977
   71MOL0     H 9372   7.613   9.106   8.058  1.3308 -1.1423 -0.4432
   72MOL0     O 9373   2.339   9.228   9.482  0.1418 -0.4575 -0.2322
   72MOL0     C 9374   2.375   9.213   9.602  0.3288 -0.2117 -0.2688
   72MOL0     O 9375   2.292   9.167   9.702 -0.0003 -0.0916  0.5935
   72MOL0     C 9376   2.159   9.145   9.678 -0.2645  0.3287 -1.0676
   72MOL0     C 9377   2.103   9.032   9.745  0.2948 -0.9019 -0.1924
   72MOL0     C 9378   1.972   8.998   9.728  0.4798 -0.2463 -0.3684
   72MOL0     C 9379   1.881   9.080   9.660 -0.1161 -0.2154 -0.5615
   72MOL0     O 9380   1.753   9.043   9.646  0.4400  0.5831  0.1966
   72MOL0     C 9381   1.657   9.102   9.559  0.1286  0.2958  0.9442
   72MOL0     C 9382   1.592   9.228   9.635  0.1009  0.4322 -0.7045
   72MOL0     C 9383   1.505   9.303   9.545  0.1999 -0.2182 -0.1230
   72MOL0     C 9384   1.399   9.401   9.627 -0.2039  1.1866 -0.6403
   72MOL0     C 9385   1.268   9.389   9.556  0.8741 -0.2012 -0.4330
   72MOL0     C 9386   1.166   9.493   9.620 -0.3048 -0.5186  0.2028
   72MOL0     C 9387   1.015   9.447   9.604 -1.1893  1.1292 -0.5722
   72MOL0     C 9388   0.915   9.549   9.656 -0.1415 -0.0224  0.6997
   72MOL0     N 9389   0.773   9.518   9.642  0.0040  0.0011 -0.1969
   72MOL0     C 9390   0.715   9.415   9.709 -0.5903 -0.1488  0.3372
   72MOL0     C 9391   0.590   9.417   9.668  0.2198 -0.7245  0.3245
   72MOL0     C 9392   0.475   9.328   9.703 -0.6124  0.3798  0.1292
   72MOL0     C 9393   0.425   9.386   9.836 -0.8640  0.1884 -0.6463
   72MOL0     C 9394   0.362   9.520   9.813 -1.0786 -0.3596  0.6596
   72MOL0     C 9395   0.299   9.568   9.941  0.7227 -0.9411  0.4094
   72MOL0     O 9396   0.395   9.610  10.038  0.0843  0.0359  0.8574
   72MOL0     C 9397   0.351   9.613  10.169  0.4219 -0.3087  0.0885
   72MOL0     C 9398   0.447   9.592  10.260  1.1032 -0.3472  0.3255
   72MOL0     C 9399   0.429   9.610  10.394  0.0085  0.6901  0.0282
   72MOL0     C 9400   0.305   9.635  10.447  0.4978 -0.0677  0.1275
   72MOL0     C 9401   0.294   9.654  10.586 -0.5255 -0.2975  0.3275
   72MOL0     O 9402   0.409   9.631  10.660  0.6693 -0.3093 -0.4631
   72MOL0     C 9403   0.424   9.618  10.800 -0.1221  0.7214  0.3165
   72MOL0     C 9404   0.322   9.579  10.879 -0.5718 -0.9840  0.5579
   72MOL0     C 9405   0.348   9.567  11.013  0.0711  0.8466  0.0551
   72MOL0     C 9406   0.465   9.593  11.078  0.2333  0.3376 -0.0325
   72MOL0     O 9407   0.487   9.566  11.205  0.3967 -0.5657 -0.3672
   72MOL0     C 9408   0.379   9.567  11.303  0.3255  0.1214  0.5470
   72MOL0     C 9409   0.443   9.610  11.442  0.4853 -0.1508  0.0585
   72MOL0     C 9410   0.581   9.544  11.481  0.2086  0.1451 -0.0894
   72MOL0     C 9411   0.648   9.613  11.597 -0.6089  0.6781  0.8632
   72MOL0     C 9412   0.780   9.541  11.648  0.1945  0.3262 -0.3533
   72MOL0     C 9413   0.894   9.510  11.546 -0.0778  0.7118 -0.1445
   72MOL0     C 9414   1.022   9.471  11.621  0.5985 -0.1887  0.9218
   72MOL0     C 9415   1.111   9.380  11.525 -0.4277  0.0551 -0.4153
   72MOL0    Cl 9416   1.271   9.348  11.605  0.2046 -0.4177 -0.2796
   72MOL0     C 9417   0.573   9.627  10.995 -0.4688 -0.6344 -0.2412
   72MOL0     C 9418   0.545   9.647  10.857 -0.7671  0.9727  0.3174
   72MOL0     O 9419   0.187   9.677  10.636 -1.0497 -0.7507 -0.0378
   72MOL0     C 9420   0.204   9.651  10.359 -0.2087  0.3664  0.4631
   72MOL0     C 9421   0.221   9.633  10.220 -0.2407 -0.5074  0.3525
   72MOL0     N 9422   0.571   9.520   9.569 -0.5691  0.4928 -0.2247
   72MOL0     N 9423   0.690   9.575   9.554  0.3174 -0.1602 -0.1899
   72MOL0     C 9424   1.931   9.204   9.608 -0.0988  0.3020  0.9687
   72MOL0     C 9425   2.073   9.230   9.612  0.6496 -0.5970 -0.0669
   72MOL0     C 9426   2.514   9.216   9.641 -0.5404  0.1828  0.9026
   72MOL0     C 9427   2.574   9.142   9.741 -0.1560 -0.3924 -0.3522
   72MOL0     C 9428   2.713   9.160   9.768 -0.0029 -0.2751  0.3058
   72MOL0     C 9429   2.797   9.246   9.691  1.4138 -0.1559 -0.4055
   72MOL0     O 9430   2.930   9.276   9.713  0.7863  0.2982  0.3105
   72MOL0     C 9431   3.017   9.182   9.774  0.3863  0.0268  0.7575
   72MOL0     C 9432   3.152   9.211   9.726  0.1071  0.0878  0.6590
   72MOL0     C 9433   3.219   9.329   9.788 -0.3468 -0.3908 -0.2651
   72MOL0     C 9434   3.352   9.369   9.731 -1.0792 -0.3059 -0.4238
   72MOL0     C 9435   3.458   9.282   9.773  0.5115  0.2290  0.0503
   72MOL0     C 9436   3.558   9.230   9.817 -0.2310  0.1062 -0.5148
   72MOL0     C 9437   2.738   9.316   9.589  0.1283  0.0953 -0.2056
   72MOL0     C 9438   2.594   9.300   9.562  0.2641 -0.0277 -0.2914
   72MOL0     H 9439   2.173   8.975   9.805  2.7210  1.1594 -0.8689
   72MOL0     H 9440   1.941   8.905   9.774 -0.1687  0.3461  0.4303
   72MOL0     H 9441   1.576   9.035   9.528  1.0173 -1.0273  1.3719
   72MOL0     H 9442   1.703   9.142   9.468  1.6209 -0.0873  1.4923
   72MOL0     H 9443   1.677   9.288   9.669 -0.1889  1.6257 -2.0298
   72MOL0     H 9444   1.535   9.182   9.717  1.6448 -2.3621 -1.0788
   72MOL0     H 9445   1.450   9.229   9.486 -0.7075 -0.1538  0.6157
   72MOL0     H 9446   1.550   9.366   9.469  0.4380  0.8872  0.9100
   72MOL0     H 9447   1.401   9.373   9.733  3.0469  0.5263 -0.7576
   72MOL0     H 9448   1.426   9.506   9.637 -0.5592  1.1578  0.9799
   72MOL0     H 9449   1.225   9.288   9.560  0.3304 -0.0647 -2.0701
   72MOL0     H 9450   1.275   9.415   9.450  0.9473  0.2207 -0.3278
   72MOL0     H 9451   1.173   9.584   9.559 -4.0487 -2.8546 -4.4165
   72MOL0     H 9452   1.189   9.522   9.723  2.4892 -0.9810 -0.2133
   72MOL0     H 9453   0.985   9.424   9.501 -0.8196  0.5424 -0.5527
   72MOL0     H 9454   0.989   9.362   9.666 -1.9027  2.1560  0.5880
   72MOL0     H 9455   0.936   9.637   9.594 -0.3567 -2.2704 -2.8131
   72MOL0     H 9456   0.942   9.574   9.760  0.3608 -0.3205  0.6414
   72MOL0     H 9457   0.767   9.354   9.782 -1.8109  0.2503  1.5664
   72MOL0     H 9458   0.522   9.230   9.716  2.4612  1.8157  0.7454
   72MOL0     H 9459   0.392   9.327   9.632 -1.5233  3.1495  1.0527
   72MOL0     H 9460   0.499   9.388   9.917  3.5229 -2.9972 -4.0719
   72MOL0     H 9461   0.342   9.323   9.869 -2.2572  0.6277 -3.0835
   72MOL0     H 9462   0.433   9.597   9.781 -4.3059  1.5750 -2.5613
   72MOL0     H 9463   0.287   9.523   9.734  0.9872  2.4687 -1.3869
   72MOL0     H 9464   0.233   9.487   9.974 -3.8936  1.8466 -1.0255
   72MOL0     H 9465   0.230   9.652   9.932  1.1280 -0.5860  0.5906
   72MOL0     H 9466   0.548   9.589  10.220  0.8681  0.0478 -0.3065
   72MOL0     H 9467   0.519   9.598  10.453  0.8429  0.5647 -1.2202
   72MOL0     H 9468   0.222   9.556  10.844 -0.1452  0.8116 -2.1011
   72MOL0     H 9469   0.262   9.527  11.067 -0.2888 -1.0179 -1.7614
   72MOL0     H 9470   0.337   9.467  11.317 -1.9893  0.8835 -0.5102
   72MOL0     H 9471   0.299   9.633  11.269 -0.2334  1.2432  3.7032
   72MOL0     H 9472   0.374   9.592  11.525  0.6143  1.4195  0.5325
   72MOL0     H 9473   0.454   9.718  11.430  0.4352 -0.0801  0.6208
   72MOL0     H 9474   0.648   9.525  11.396 -1.8917 -4.6041 -1.0489
   72MOL0     H 9475   0.568   9.442  11.517  1.1986  0.4864  1.2833
   72MOL0     H 9476   0.685   9.712  11.566  2.9658 -0.3184  1.4853
   72MOL0     H 9477   0.579   9.621  11.682 -2.0728  0.0210 -0.2130
   72MOL0     H 9478   0.758   9.442  11.689 -1.2049  0.1197 -1.5061
   72MOL0     H 9479   0.829   9.600  11.725  1.9126  2.2904 -2.7852
   72MOL0     H 9480   0.902   9.592  11.474 -0.1631 -0.9733 -2.1648
   72MOL0     H 9481   0.861   9.435  11.474 -0.1687  2.7588 -2.3988
   72MOL0     H 9482   1.074   9.559  11.660  1.2595  0.0342 -0.4002
   72MOL0     H 9483   0.998   9.416  11.712 -0.3633  0.5000  1.1017
   72MOL0     H 9484   1.129   9.420  11.424  0.3815  1.8132  0.3827
   72MOL0     H 9485   1.058   9.287  11.503  2.5712 -2.1547  1.0024
   72MOL0     H 9486   0.668   9.644  11.044 -0.4638  1.4015 -0.8956
   72MOL0     H 9487   0.628   9.683  10.797 -0.8494 -1.8270 -1.6657
   72MOL0     H 9488   0.113   9.696  10.398  0.8229  1.3121  1.8767
   72MOL0     H 9489   0.133   9.645  10.157  0.0707 -1.1418 -0.2214
   72MOL0     H 9490   1.862   9.269   9.555 -2.4655 -2.1323  0.8024
   72MOL0     H 9491   2.119   9.318   9.569 -0.1647 -0.4166 -0.6154
   72MOL0     H 9492   2.520   9.070   9.802 -1.3897  1.4194  0.8057
   72MOL0     H 9493   2.764   9.096   9.839 -0.2045  1.8830  2.5149
   72MOL0     H 9494   2.994   9.082   9.736 -1.5530  1.3343 -1.8504
   72MOL0     H 9495   3.016   9.182   9.883  0.4885  0.7213  0.7589
   72MOL0     H 9496   3.214   9.121   9.737  1.0418  0.4840 -0.9573
   72MOL0     H 9497   3.148   9.227   9.618  0.6088  1.1350  0.7827
   72MOL0     H 9498   3.229   9.315   9.896 -0.6766 -1.4191 -0.3613
   72MOL0     H 9499   3.152   9.414   9.769 -0.0354 -0.2215 -0.6118
   72MOL0     H 9500   3.342   9.380   9.623 -1.6622 -0.3086 -0.3724
   72MOL0     H 9501   3.377   9.469   9.768 -0.0361 -0.9468  0.7120
   72MOL0     H 9502   3.642   9.178   9.858 -1.0359 -0.3542  0.6099
   72MOL0     H 9503   2.799   9.385   9.532  2.6234  0.8619  3.1194
   72MOL0     H 9504   2.545   9.351   9.480 -0.9483  1.2681  1.1783
   73MOL0     O 9505   6.698   8.429   3.816  0.3237 -0.0146  0.3992
   73MOL0     C 9506   6.660   8.385   3.711 -0.4277  0.6218 -0.8444
   73MOL0     O 9507   6.534   8.399   3.662  0.0714  0.1246 -0.4525
   73MOL0     C 9508   6.437   8.443   3.760 -0.6340  0.6512  1.3392
   73MOL0     C 9509   6.377   8.570   3.746 -0.0774 -0.4631  1.0082
   73MOL0     C 9510   6.274   8.608   3.841  0.3583 -0.4765  0.6014
   73MOL0     C 9511   6.234   8.530   3.953 -0.5120  0.4179  0.2076
   73MOL0     O 9512   6.131   8.557   4.043  0.1763  0.2538  0.3731
   73MOL0     C 9513   6.044   8.658   4.001  0.1074  0.4875  0.3672
   73MOL0     C 9514   5.915   8.643   4.076  0.0462 -0.7331 -1.2530
   73MOL0     C 9515   5.804   8.749   4.048  0.2264 -0.6428  0.4206
   73MOL0     C 9516   5.692   8.740   4.149  1.0514 -0.6197 -0.4645
   73MOL0     C 9517   5.578   8.838   4.124 -0.1733 -0.2515  0.3201
   73MOL0     C 9518   5.476   8.835   4.231  0.1728 -0.1291 -0.6846
   73MOL0     C 9519   5.343   8.922   4.200  0.7423  0.1922  0.2396
   73MOL0     C 9520   5.263   8.850   4.090  0.3213  0.7259 -0.4951
   73MOL0     N 9521   5.119   8.877   4.106  0.5142 -0.7566  0.0204
   73MOL0     C 9522   5.020   8.785   4.131  0.3827  0.1326  0.2279
   73MOL0     C 9523   4.902   8.856   4.104 -0.2073 -0.1405  1.1885
   73MOL0     C 9524   4.770   8.785   4.086 -0.0690  0.5121  0.9387
   73MOL0     C 9525   4.660   8.872   4.046  0.0677  0.5538 -0.1383
   73MOL0     C 9526   4.595   8.969   4.149  1.0315 -0.1462  1.1135
   73MOL0     C 9527   4.516   8.888   4.260  0.0046  0.6369  0.3894
   73MOL0     O 9528   4.407   8.822   4.203  0.2582  0.0891  0.3082
   73MOL0     C 9529   4.319   8.756   4.287  0.2854 -0.2877 -0.1720
   73MOL0     C 9530   4.192   8.718   4.247  0.6142 -0.1310 -0.6216
   73MOL0     C 9531   4.096   8.658   4.336  0.3886  0.3452  0.5962
   73MOL0     C 9532   4.126   8.635   4.465  0.1463  0.0343  0.0717
   73MOL0     C 9533   4.026   8.573   4.550 -0.0926 -0.2961 -0.5349
   73MOL0     O 9534   3.909   8.535   4.494  0.3253 -0.1801  0.4277
   73MOL0     C 9535   3.805   8.486   4.565  1.4385 -0.4557  0.2940
   73MOL0     C 9536   3.818   8.401   4.675 -0.3030  0.2191  0.0749
   73MOL0     C 9537   3.720   8.371   4.766  0.0274  0.1786  0.9400
   73MOL0     C 9538   3.594   8.429   4.746  0.0784  0.4101 -0.0702
   73MOL0     O 9539   3.489   8.404   4.838 -0.4833  0.1416 -0.7155
   73MOL0     C 9540   3.514   8.302   4.934  0.9304  0.1463 -0.8318
   73MOL0     C 9541   3.384   8.255   5.001 -0.1628  0.2770  0.1191
   73MOL0     C 9542   3.306   8.376   5.069  0.6825  0.0840  0.5556
   73MOL0     C 9543   3.182   8.323   5.148  0.8460  0.0048  0.8618
   73MOL0     C 9544   3.085   8.432   5.201 -0.3041  0.4617 -0.6366
   73MOL0     C 9545   3.156   8.553   5.257  0.1090  0.3899 -0.6571
   73MOL0     C 9546   3.245   8.511   5.381  0.1043  0.1900 -0.3304
   73MOL0     C 9547   3.256   8.630   5.483  0.4995 -0.1400  0.7714
   73MOL0    Cl 9548   3.318   8.777   5.405 -0.6473  0.4776  0.1736
   73MOL0     C 9549   3.578   8.518   4.637 -0.2353 -0.8380 -0.5262
   73MOL0     C 9550   3.681   8.544   4.550  0.0358  0.4282  0.0319
   73MOL0     O 9551   4.051   8.568   4.673 -0.5223  0.1130  0.1379
   73MOL0     C 9552   4.248   8.679   4.518  0.7992  0.4438  0.2352
   73MOL0     C 9553   4.335   8.744   4.431  0.2948  0.2918 -0.5307
   73MOL0     N 9554   4.929   8.991   4.084  0.3828  0.4761 -0.9342
   73MOL0     N 9555   5.060   8.998   4.084  0.4282 -0.0483 -0.0972
   73MOL0     C 9556   6.315   8.418   3.972  0.5169  0.5669  0.2098
   73MOL0     C 9557   6.407   8.374   3.879 -0.6064  0.3792  0.6224
   73MOL0     C 9558   6.756   8.310   3.621 -0.2211 -0.1317  0.6264
   73MOL0     C 9559   6.892   8.336   3.636 -0.2932 -0.1279 -0.5695
   73MOL0     C 9560   6.983   8.282   3.557  0.3357  0.2345  0.0324
   73MOL0     C 9561   6.949   8.190   3.461 -0.6842 -0.1614 -0.3145
   73MOL0     O 9562   7.041   8.124   3.378  0.8266  0.1871 -0.4757
   73MOL0     C 9563   7.173   8.165   3.364 -0.0470 -0.6405  0.5500
   73MOL0     C 9564   7.266   8.085   3.455  1.0552 -0.3123  0.0110
   73MOL0     C 9565   7.413   8.111   3.440 -0.9277  0.0669  0.5927
   73MOL0     C 9566   7.480   8.190   3.552 -0.7978 -0.2579 -0.0668
   73MOL0     C 9567   7.586   8.269   3.486  0.6230  0.3755 -0.0617
   73MOL0     C 9568   7.675   8.324   3.427 -0.7267  0.2946 -0.7615
   73MOL0     C 9569   6.817   8.159   3.448  0.5507  0.2333  0.3147
   73MOL0     C 9570   6.714   8.226   3.519  0.3026  0.9769  0.2481
   73MOL0     H 9571   6.396   8.642   3.667  0.7352  2.2425  3.5065
   73MOL0     H 9572   6.224   8.701   3.813  1.1120 -0.0186  0.7608
   73MOL0     H 9573   6.018   8.662   3.894 -0.1012  0.1254  0.4044
   73MOL0     H 9574   6.090   8.754   4.028  0.7136  0.3990 -0.3046
   73MOL0     H 9575   5.941   8.659   4.181  0.5989  0.0492 -1.5051
   73MOL0     H 9576   5.884   8.539   4.059 -0.9286 -1.0078  1.7297
   73MOL0     H 9577   5.761   8.720   3.952 -0.8562 -1.1396  1.0228
   73MOL0     H 9578   5.842   8.851   4.038 -1.0574 -0.3229 -1.8531
   73MOL0     H 9579   5.656   8.637   4.138  1.6403 -0.6233 -2.9979
   73MOL0     H 9580   5.737   8.754   4.247  0.4336  2.8310 -0.5716
   73MOL0     H 9581   5.536   8.812   4.027 -0.0580 -1.3340  0.5522
   73MOL0     H 9582   5.625   8.937   4.126 -3.7391  1.6464 -0.8857
   73MOL0     H 9583   5.518   8.873   4.324 -1.5489  0.1744  0.0113
   73MOL0     H 9584   5.448   8.730   4.247 -2.3678  0.9351  3.5625
   73MOL0     H 9585   5.288   8.923   4.294  1.6537 -1.7141  0.8356
   73MOL0     H 9586   5.357   9.024   4.161 -0.3688 -0.9491 -3.5841
   73MOL0     H 9587   5.262   8.742   4.108  1.6188  0.3580 -2.3755
   73MOL0     H 9588   5.298   8.867   3.988 -1.3282 -2.2835 -1.6966
   73MOL0     H 9589   5.025   8.677   4.141  0.5723 -0.1814 -2.4869
   73MOL0     H 9590   4.751   8.741   4.185  0.7481 -1.0154  0.4560
   73MOL0     H 9591   4.776   8.701   4.015  1.3885 -0.1643  1.8099
   73MOL0     H 9592   4.573   8.811   4.023 -1.2572  2.1469  0.3931
   73MOL0     H 9593   4.684   8.938   3.962 -1.9506 -0.2364 -1.3951
   73MOL0     H 9594   4.672   9.041   4.178 -0.0728  1.1322  0.9677
   73MOL0     H 9595   4.534   9.033   4.084  3.3220 -1.0513 -2.2038
   73MOL0     H 9596   4.496   8.965   4.335 -1.6619  0.5342  0.0807
   73MOL0     H 9597   4.588   8.818   4.303  0.2034 -0.8137 -2.1285
   73MOL0     H 9598   4.157   8.745   4.147 -2.5278  1.0333  0.6830
   73MOL0     H 9599   4.001   8.625   4.295  0.5487  0.1531  0.3796
   73MOL0     H 9600   3.916   8.355   4.686  0.7352  2.0722 -0.9182
   73MOL0     H 9601   3.754   8.308   4.847  1.2331  0.1974  0.4686
   73MOL0     H 9602   3.571   8.346   5.017 -0.0809  0.2267 -0.1659
   73MOL0     H 9603   3.568   8.214   4.899  0.1799 -1.6634  2.1674
   73MOL0     H 9604   3.404   8.182   5.081 -2.3190  1.4298  1.8315
   73MOL0     H 9605   3.327   8.207   4.921  0.7341  0.0325 -0.3933
   73MOL0     H 9606   3.266   8.445   4.994 -3.2184 -1.9824  0.4724
   73MOL0     H 9607   3.372   8.430   5.137  0.5881 -0.8941  1.4309
   73MOL0     H 9608   3.132   8.254   5.080 -0.0857 -1.2447  2.7371
   73MOL0     H 9609   3.211   8.262   5.234  0.8353 -1.2527 -0.0094
   73MOL0     H 9610   3.011   8.388   5.268  0.2668 -0.5453 -0.6415
   73MOL0     H 9611   3.029   8.469   5.115 -0.3078 -0.2894 -0.9702
   73MOL0     H 9612   3.073   8.618   5.287  0.2480  0.5819 -0.6821
   73MOL0     H 9613   3.209   8.609   5.179 -2.2352  1.4543 -1.5988
   73MOL0     H 9614   3.197   8.427   5.433  2.0127 -1.0185 -0.4138
   73MOL0     H 9615   3.344   8.480   5.346 -0.6946 -2.7227 -0.2870
   73MOL0     H 9616   3.324   8.615   5.567 -1.5788  0.5848  2.6866
   73MOL0     H 9617   3.157   8.638   5.529  0.0579  0.1273 -0.1922
   73MOL0     H 9618   3.486   8.574   4.621 -0.3278 -0.9663 -0.4434
   73MOL0     H 9619   3.668   8.623   4.476  1.8576  1.0692  0.3378
   73MOL0     H 9620   4.260   8.683   4.625  1.8241  4.4900  0.1340
   73MOL0     H 9621   4.425   8.777   4.483  1.0566 -2.0708 -0.2013
   73MOL0     H 9622   6.300   8.363   4.065 -1.9181  1.6946  0.5608
   73MOL0     H 9623   6.454   8.277   3.891 -2.9551 -1.2677 -2.3270
   73MOL0     H 9624   6.928   8.400   3.717 -1.5343 -1.1253  0.8122
   73MOL0     H 9625   7.086   8.310   3.580  0.6198 -1.0033  0.3294
   73MOL0     H 9626   7.178   8.272   3.389  0.1058 -0.4831 -0.1437
   73MOL0     H 9627   7.197   8.151   3.259 -0.0840 -4.0604  0.9021
   73MOL0     H 9628   7.237   8.087   3.561 -0.8294 -0.8242 -0.4578
   73MOL0     H 9629   7.240   7.982   3.428  0.7387 -0.3675  0.5122
   73MOL0     H 9630   7.429   8.143   3.336 -0.8550 -0.0903  0.5560
   73MOL0     H 9631   7.459   8.012   3.444 -1.9533 -0.4358  0.3054
   73MOL0     H 9632   7.416   8.269   3.593  2.5476  2.3039  0.6415
   73MOL0     H 9633   7.527   8.127   3.628 -0.1663 -0.2320 -0.4285
   73MOL0     H 9634   7.749   8.376   3.368  0.3863 -0.5528 -0.1588
   73MOL0     H 9635   6.797   8.094   3.363  1.0386  0.8940 -0.3172
   73MOL0     H 9636   6.608   8.218   3.495  0.5919  1.6579 -1.3454
   74MOL0     O 9637   7.333   6.888   3.184 -0.4492 -0.2283 -0.2014
   74MOL0     C 9638   7.428   6.877   3.262  0.9083 -0.5140  0.3025
   74MOL0     O 9639   7.488   6.760   3.293 -0.2847  0.3262 -0.4993
   74MOL0     C 9640   7.432   6.647   3.236 -1.1255 -0.0641 -0.3711
   74MOL0     C 9641   7.504   6.603   3.131 -0.2934  0.4426  0.2057
   74MOL0     C 9642   7.481   6.481   3.063 -0.1497 -0.1086  0.3568
   74MOL0     C 9643   7.380   6.402   3.112 -0.2125  0.0860 -0.7551
   74MOL0     O 9644   7.327   6.295   3.048 -0.2966  0.4803  0.1522
   74MOL0     C 9645   7.420   6.225   2.956  0.1218 -0.1278  0.2439
   74MOL0     C 9646   7.361   6.089   2.913  0.6216 -0.4305  0.7975
   74MOL0     C 9647   7.209   6.089   2.877  0.3412 -0.0539 -0.2433
   74MOL0     C 9648   7.197   6.166   2.740 -0.0023  0.2632  0.3165
   74MOL0     C 9649   7.068   6.239   2.738  0.6162  0.4417  0.1992
   74MOL0     C 9650   6.939   6.148   2.753 -0.3867  0.3767  0.7520
   74MOL0     C 9651   6.814   6.232   2.776  0.6835  0.1035 -0.0056
   74MOL0     C 9652   6.693   6.152   2.817  0.1913  0.1133  0.0255
   74MOL0     N 9653   6.583   6.246   2.842 -0.0976  0.2153 -0.3235
   74MOL0     C 9654   6.487   6.285   2.750  0.3063  0.5544 -0.0804
   74MOL0     C 9655   6.396   6.359   2.824 -0.6178 -0.5235 -0.2606
   74MOL0     C 9656   6.270   6.423   2.775 -0.0775  0.3354 -0.9773
   74MOL0     C 9657   6.208   6.533   2.858  0.7969  0.2244  0.0231
   74MOL0     C 9658   6.120   6.468   2.972 -0.2243 -0.4444 -0.5689
   74MOL0     C 9659   6.062   6.575   3.069  0.2730 -0.0857  0.4102
   74MOL0     O 9660   5.979   6.661   2.997  0.0195 -0.3753 -0.1560
   74MOL0     C 9661   5.855   6.671   3.050  0.3555 -1.1990  0.0730
   74MOL0     C 9662   5.779   6.559   3.088  0.7891  1.1119 -0.0285
   74MOL0     C 9663   5.646   6.568   3.143 -1.0128 -0.3107  0.7413
   74MOL0     C 9664   5.580   6.694   3.140  0.3327 -0.6189 -0.4301
   74MOL0     C 9665   5.446   6.710   3.200 -0.4887 -0.1130  1.0332
   74MOL0     O 9666   5.381   6.597   3.204  0.0670  0.4861 -0.2121
   74MOL0     C 9667   5.261   6.571   3.266 -0.3558  0.5118 -0.3550
   74MOL0     C 9668   5.203   6.654   3.362 -0.0136  0.1082  0.5746
   74MOL0     C 9669   5.071   6.616   3.408  0.1699 -0.6513  0.0426
   74MOL0     C 9670   5.003   6.502   3.353  0.0067 -0.1440  0.1918
   74MOL0     O 9671   4.874   6.459   3.381  0.0079  0.2377  0.5421
   74MOL0     C 9672   4.785   6.544   3.458 -0.1326  0.3560  0.5812
   74MOL0     C 9673   4.650   6.472   3.448  0.1170 -0.9336 -0.1596
   74MOL0     C 9674   4.606   6.461   3.301  0.4040  0.3370  1.1125
   74MOL0     C 9675   4.454   6.472   3.268  0.7181 -0.0164  0.5773
   74MOL0     C 9676   4.372   6.359   3.335 -0.6974  0.1065 -0.4049
   74MOL0     C 9677   4.223   6.395   3.366 -0.4580  0.2614  0.0899
   74MOL0     C 9678   4.152   6.273   3.412  0.5240  0.1629  0.3259
   74MOL0     C 9679   3.997   6.289   3.438 -0.5428 -0.2685  0.8258
   74MOL0    Cl 9680   3.949   6.338   3.608  0.0086  0.1300  0.1639
   74MOL0     C 9681   5.070   6.418   3.268  0.3651  0.4876  0.0572
   74MOL0     C 9682   5.200   6.452   3.221 -0.5739 -0.0324 -1.0661
   74MOL0     O 9683   5.411   6.819   3.236  0.2052  0.3350 -0.3356
   74MOL0     C 9684   5.661   6.810   3.106  0.3559  0.2638  0.0167
   74MOL0     C 9685   5.792   6.797   3.055  0.6569  0.0812  0.1615
   74MOL0     N 9686   6.445   6.368   2.958  0.5883 -0.1084 -0.6044
   74MOL0     N 9687   6.554   6.295   2.967  1.1549 -0.6281  0.1652
   74MOL0     C 9688   7.299   6.449   3.222 -0.2412 -0.7189 -0.7146
   74MOL0     C 9689   7.329   6.573   3.287 -0.2640  0.4686 -0.7943
   74MOL0     C 9690   7.483   7.003   3.295 -0.4505  0.4934 -0.0512
   74MOL0     C 9691   7.432   7.120   3.245  0.6538 -0.7720  0.4304
   74MOL0     C 9692   7.500   7.242   3.269 -0.1379 -1.0201 -0.7602
   74MOL0     C 9693   7.628   7.246   3.333 -0.3961  0.3500 -0.6295
   74MOL0     O 9694   7.681   7.371   3.345 -0.3241 -0.4376  0.4828
   74MOL0     C 9695   7.805   7.388   3.404 -0.2340 -0.5326 -0.0972
   74MOL0     C 9696   7.838   7.540   3.373  0.9154  0.5488  0.3801
   74MOL0     C 9697   7.950   7.552   3.270  0.3995  0.6201  0.4762
   74MOL0     C 9698   7.938   7.675   3.175 -0.8586  0.4502 -0.1622
   74MOL0     C 9699   7.929   7.802   3.259  0.1662  0.6472  0.3936
   74MOL0     C 9700   7.914   7.907   3.329  0.4909 -0.0196 -0.9302
   74MOL0     C 9701   7.666   7.130   3.397  0.1568 -0.7377  0.2518
   74MOL0     C 9702   7.603   7.006   3.376  0.5261 -0.0066  0.0628
   74MOL0     H 9703   7.588   6.654   3.085  0.1168 -2.0643 -2.0967
   74MOL0     H 9704   7.549   6.466   2.980 -1.7612  3.6403 -1.9124
   74MOL0     H 9705   7.512   6.196   3.006  0.5686 -1.2733 -1.1755
   74MOL0     H 9706   7.451   6.288   2.872 -0.3462 -0.6633 -0.3491
   74MOL0     H 9707   7.377   6.018   2.995 -0.9635 -0.6428  0.9637
   74MOL0     H 9708   7.407   6.057   2.819 -0.0943  3.1855 -0.9600
   74MOL0     H 9709   7.146   6.135   2.953 -2.4304  0.9581 -2.9376
   74MOL0     H 9710   7.174   5.986   2.866  5.2266 -2.1549  1.1654
   74MOL0     H 9711   7.283   6.231   2.724  0.7918 -1.1701 -1.8770
   74MOL0     H 9712   7.203   6.089   2.662 -1.1928  0.4806 -0.0051
   74MOL0     H 9713   7.061   6.302   2.649 -1.7684 -0.9756 -0.6881
   74MOL0     H 9714   7.075   6.313   2.819  0.0105 -0.7223  1.3662
   74MOL0     H 9715   6.948   6.076   2.834  2.9340  0.2960  0.4333
   74MOL0     H 9716   6.932   6.088   2.662  2.4966  2.8514 -1.3201
   74MOL0     H 9717   6.827   6.308   2.853 -4.2230 -0.1505  1.3795
   74MOL0     H 9718   6.797   6.285   2.683  1.7066 -2.3435 -1.7071
   74MOL0     H 9719   6.708   6.093   2.908 -1.8246 -0.7292 -0.1430
   74MOL0     H 9720   6.664   6.083   2.737  0.3370  2.0743 -1.8178
   74MOL0     H 9721   6.483   6.252   2.646 -0.7073  0.0272  0.1067
   74MOL0     H 9722   6.200   6.342   2.753 -0.4094  1.0753 -2.8764
   74MOL0     H 9723   6.279   6.460   2.672 -0.7677 -1.7226 -1.8371
   74MOL0     H 9724   6.148   6.592   2.789  0.7442  0.4867  0.2916
   74MOL0     H 9725   6.290   6.599   2.888  1.1251  0.4000 -1.2275
   74MOL0     H 9726   6.044   6.402   2.931  3.7572 -4.6238 -2.0400
   74MOL0     H 9727   6.183   6.404   3.034 -0.5838  0.6405  0.9837
   74MOL0     H 9728   6.152   6.627   3.102  1.4490  0.3742 -3.0789
   74MOL0     H 9729   6.010   6.522   3.149  0.9132  0.0425  0.9194
   74MOL0     H 9730   5.815   6.459   3.065 -0.8964  0.7235 -1.1815
   74MOL0     H 9731   5.594   6.481   3.181  4.0152 -2.8464  2.7408
   74MOL0     H 9732   5.255   6.736   3.411 -0.9906  0.5497  0.9139
   74MOL0     H 9733   5.017   6.678   3.479 -2.9838 -2.5455 -0.4837
   74MOL0     H 9734   4.768   6.644   3.417 -0.1383  1.2842  2.7431
   74MOL0     H 9735   4.832   6.551   3.556  1.7071 -1.1905 -0.1022
   74MOL0     H 9736   4.579   6.532   3.505  1.2826 -0.9327  1.3490
   74MOL0     H 9737   4.658   6.370   3.485  0.4124 -1.7346 -2.2989
   74MOL0     H 9738   4.650   6.370   3.260 -1.0251 -0.4418  1.2175
   74MOL0     H 9739   4.650   6.542   3.243 -1.6092  0.1107 -0.8591
   74MOL0     H 9740   4.412   6.569   3.296  0.1755  1.0057 -3.2648
   74MOL0     H 9741   4.441   6.468   3.159  2.2113  1.5336  0.3034
   74MOL0     H 9742   4.418   6.319   3.426  0.0601 -1.3487 -1.3943
   74MOL0     H 9743   4.380   6.274   3.267  0.4527  1.2614 -1.7671
   74MOL0     H 9744   4.174   6.439   3.278  1.2780 -0.5812 -1.3473
   74MOL0     H 9745   4.229   6.474   3.441  2.0398 -0.2748  0.5351
   74MOL0     H 9746   4.154   6.199   3.331  1.1482  0.5281  0.0076
   74MOL0     H 9747   4.196   6.231   3.503  1.9322 -0.2464 -0.5213
   74MOL0     H 9748   3.945   6.202   3.398  1.0515 -1.0051  0.2845
   74MOL0     H 9749   3.959   6.373   3.378  2.2632 -0.6961 -1.8484
   74MOL0     H 9750   5.035   6.323   3.230  0.7882 -0.2286  1.3954
   74MOL0     H 9751   5.240   6.381   3.149 -0.9327 -2.7190  1.1962
   74MOL0     H 9752   5.617   6.909   3.108 -1.9760 -0.6169 -2.4013
   74MOL0     H 9753   5.848   6.885   3.024  0.3055 -0.5206 -2.4074
   74MOL0     H 9754   7.221   6.387   3.264 -0.5913  0.5517  0.6056
   74MOL0     H 9755   7.289   6.591   3.386  0.3592 -3.2512  0.3072
   74MOL0     H 9756   7.338   7.130   3.191  0.5138  0.8562  0.9141
   74MOL0     H 9757   7.459   7.337   3.238 -1.7007 -1.3310  0.2497
   74MOL0     H 9758   7.881   7.330   3.351  0.7753 -0.2265  0.9782
   74MOL0     H 9759   7.802   7.372   3.513  4.0995  1.7584  0.5906
   74MOL0     H 9760   7.753   7.597   3.335 -0.7869 -0.1294  2.8860
   74MOL0     H 9761   7.863   7.596   3.463 -1.6538  2.6825 -0.1235
   74MOL0     H 9762   7.951   7.461   3.210 -2.9977 -1.1683  2.7852
   74MOL0     H 9763   8.047   7.549   3.321 -0.5078  0.7607  2.3059
   74MOL0     H 9764   8.025   7.700   3.114 -1.3854  0.3061 -0.9991
   74MOL0     H 9765   7.849   7.655   3.115 -1.3556 -3.1127  1.4914
   74MOL0     H 9766   7.898   7.998   3.381  1.1246  0.8904 -2.2496
   74MOL0     H 9767   7.757   7.144   3.455  0.5067  0.7000 -0.5981
   74MOL0     H 9768   7.643   6.910   3.409 -0.5747 -0.1073  1.1931
   75MOL0     O 9769   7.749   8.224   7.101  0.0510 -0.5794  0.3537
   75MOL0     C 9770   7.779   8.133   7.025 -0.5502 -1.0087 -0.9692
   75MOL0     O 9771   7.695   8.062   6.949  0.3165  0.4949  0.3573
   75MOL0     C 9772   7.562   8.097   6.939 -0.7470  1.0642 -0.2765
   75MOL0     C 9773   7.513   8.224   6.911  0.8688 -0.8987  0.4569
   75MOL0     C 9774   7.383   8.263   6.921 -0.3140  0.7379 -0.2639
   75MOL0     C 9775   7.288   8.154   6.932  0.3944  0.4271  0.4820
   75MOL0     O 9776   7.152   8.166   6.918 -0.4795  1.0296 -0.1714
   75MOL0     C 9777   7.085   8.295   6.925  0.4505  0.8167 -0.1175
   75MOL0     C 9778   6.942   8.268   6.919  0.2270  0.7935  0.8793
   75MOL0     C 9779   6.861   8.395   6.916  0.2459 -0.1071  0.6809
   75MOL0     C 9780   6.709   8.361   6.913 -0.4350  1.0088  0.3837
   75MOL0     C 9781   6.626   8.479   6.949  0.7567  0.7139 -0.0985
   75MOL0     C 9782   6.474   8.447   6.935 -0.5503  0.2649  0.2612
   75MOL0     C 9783   6.381   8.568   6.946 -0.0280  0.4963 -0.5078
   75MOL0     C 9784   6.366   8.674   6.833  0.3996  1.1437  0.1444
   75MOL0     N 9785   6.318   8.618   6.706 -0.7728  0.2430  0.0242
   75MOL0     C 9786   6.187   8.579   6.686 -0.5209 -0.1694 -0.0332
   75MOL0     C 9787   6.184   8.530   6.565 -0.1278 -0.1837  1.3338
   75MOL0     C 9788   6.052   8.486   6.495 -0.6255  0.4249 -0.2480
   75MOL0     C 9789   5.943   8.424   6.577 -0.7031 -0.5771  0.3215
   75MOL0     C 9790   5.848   8.377   6.477  0.5136  0.4673 -0.5857
   75MOL0     C 9791   5.715   8.347   6.556 -0.6265 -0.3464 -0.0642
   75MOL0     O 9792   5.594   8.329   6.486  0.4685  0.2225  0.3068
   75MOL0     C 9793   5.483   8.302   6.556  0.2844 -0.1813  0.2312
   75MOL0     C 9794   5.466   8.321   6.694  0.1090  0.9500  0.2248
   75MOL0     C 9795   5.341   8.298   6.752  0.1567 -0.0137 -0.9472
   75MOL0     C 9796   5.231   8.267   6.677 -0.1982  0.7089 -0.3573
   75MOL0     C 9797   5.101   8.262   6.740  0.9302 -0.1507  0.1923
   75MOL0     O 9798   5.020   8.168   6.690  0.0858 -0.2028  0.2580
   75MOL0     C 9799   4.883   8.183   6.713  0.2126 -0.0986 -0.1633
   75MOL0     C 9800   4.842   8.190   6.845 -0.5743 -0.0760 -0.8263
   75MOL0     C 9801   4.716   8.231   6.876  0.0579  0.3294 -0.5132
   75MOL0     C 9802   4.612   8.249   6.774 -0.7888  0.9153  0.3311
   75MOL0     O 9803   4.478   8.263   6.795  0.4905  0.5518 -0.7069
   75MOL0     C 9804   4.426   8.230   6.925  0.3686  0.2068 -0.4578
   75MOL0     C 9805   4.277   8.256   6.906 -0.4172  0.0228  0.3988
   75MOL0     C 9806   4.196   8.221   7.032 -0.4945 -0.2000  0.6199
   75MOL0     C 9807   4.047   8.244   6.995 -0.4068  0.8157 -0.9479
   75MOL0     C 9808   3.965   8.238   7.125 -0.1056 -0.0956  0.0393
   75MOL0     C 9809   3.811   8.234   7.109 -0.2223 -0.1956  0.4156
   75MOL0     C 9810   3.734   8.249   7.235  0.1687  0.1974 -0.2196
   75MOL0     C 9811   3.703   8.396   7.279 -0.9247 -0.7737 -0.2924
   75MOL0    Cl 9812   3.638   8.404   7.435 -0.0517  0.1521  0.1644
   75MOL0     C 9813   4.658   8.237   6.640 -0.4150  0.5462 -0.7410
   75MOL0     C 9814   4.791   8.201   6.613 -0.4532 -0.7090 -0.4999
   75MOL0     O 9815   5.071   8.354   6.818  0.6614 -0.1580  1.0642
   75MOL0     C 9816   5.242   8.257   6.539 -0.4853  0.6449 -0.3942
   75MOL0     C 9817   5.367   8.272   6.481 -0.2937  0.0281 -0.6335
   75MOL0     N 9818   6.310   8.535   6.516 -0.2864  0.4457 -0.1329
   75MOL0     N 9819   6.397   8.591   6.599  0.0204 -0.6901  0.9973
   75MOL0     C 9820   7.331   8.024   6.952  0.8567  0.7052  0.1253
   75MOL0     C 9821   7.468   7.997   6.954 -1.0493 -0.2854  0.8366
   75MOL0     C 9822   7.922   8.071   7.044 -0.2650  0.0957 -0.1366
   75MOL0     C 9823   8.010   8.144   7.128 -0.0291  0.2314  0.0776
   75MOL0     C 9824   8.140   8.106   7.154  0.1075 -0.2809 -0.6234
   75MOL0     C 9825   8.186   7.989   7.095 -1.0269  0.9516 -0.2690
   75MOL0     O 9826   8.319   7.940   7.113  0.3911  0.1079 -0.4151
   75MOL0     C 9827   8.423   8.032   7.148 -0.1429  0.5144  0.2473
   75MOL0     C 9828   8.544   7.948   7.202 -0.3917  0.3859  0.1054
   75MOL0     C 9829   8.510   7.895   7.338 -0.1373 -1.2133  0.7007
   75MOL0     C 9830   8.434   7.767   7.339 -0.0393 -0.3002  0.0564
   75MOL0     C 9831   8.496   7.649   7.263  0.5119  0.1971 -0.2098
   75MOL0     C 9832   8.547   7.554   7.213 -0.2276 -0.0300 -0.0217
   75MOL0     C 9833   8.095   7.910   7.010  0.4322  0.5411  0.1809
   75MOL0     C 9834   7.967   7.954   6.979 -0.3673 -0.3219  0.1446
   75MOL0     H 9835   7.581   8.309   6.905  0.5355 -0.6780 -0.2213
   75MOL0     H 9836   7.356   8.368   6.910  0.1947  0.7474 -1.6962
   75MOL0     H 9837   7.119   8.354   6.839 -0.5231  0.0330 -1.0712
   75MOL0     H 9838   7.110   8.346   7.018  0.5134 -1.5618  1.2437
   75MOL0     H 9839   6.919   8.204   7.004  1.7488 -2.5375 -1.0304
   75MOL0     H 9840   6.929   8.193   6.840  1.4698  0.9254  0.5154
   75MOL0     H 9841   6.878   8.457   6.827  0.4137  0.1150  0.8680
   75MOL0     H 9842   6.891   8.456   7.002 -0.2164  0.7623  0.2380
   75MOL0     H 9843   6.671   8.335   6.813  0.7260  1.4563 -0.1961
   75MOL0     H 9844   6.706   8.280   6.986  2.9206  1.0559  0.7614
   75MOL0     H 9845   6.651   8.563   6.883 -0.9324 -1.1250 -3.3283
   75MOL0     H 9846   6.635   8.509   7.054 -0.5572 -1.1080  0.5891
   75MOL0     H 9847   6.432   8.367   6.997  1.6461 -1.4821 -0.3826
   75MOL0     H 9848   6.457   8.402   6.837 -1.6733 -0.4371  0.7640
   75MOL0     H 9849   6.286   8.518   6.968  0.4078 -0.4807 -0.8180
   75MOL0     H 9850   6.405   8.612   7.043 -4.4813 -1.2767  1.6816
   75MOL0     H 9851   6.457   8.734   6.824 -1.1238  3.4509 -0.7946
   75MOL0     H 9852   6.287   8.744   6.863 -0.6782  0.3541 -0.7697
   75MOL0     H 9853   6.107   8.579   6.759  1.4837 -2.0925  2.3196
   75MOL0     H 9854   6.081   8.415   6.417 -1.3625 -0.5183  0.3077
   75MOL0     H 9855   6.002   8.573   6.453 -0.2437  1.2066  0.8838
   75MOL0     H 9856   5.901   8.502   6.641  0.4688  1.1177 -0.8975
   75MOL0     H 9857   5.975   8.344   6.646  0.2609  0.3134  0.9427
   75MOL0     H 9858   5.838   8.451   6.398  4.3244  0.7937 -0.9658
   75MOL0     H 9859   5.874   8.284   6.426 -4.6812 -1.4195 -0.3371
   75MOL0     H 9860   5.705   8.431   6.625  0.3856 -1.7337  1.8600
   75MOL0     H 9861   5.734   8.252   6.608  4.3833  1.0217  1.1614
   75MOL0     H 9862   5.556   8.328   6.754  1.5545  1.1244 -1.8664
   75MOL0     H 9863   5.320   8.295   6.859  0.3957 -0.6846 -0.9123
   75MOL0     H 9864   4.916   8.173   6.922  0.7057  3.0732 -1.1923
   75MOL0     H 9865   4.691   8.240   6.981 -0.6376 -1.0861 -0.5220
   75MOL0     H 9866   4.451   8.288   7.015 -2.2659  1.7621 -0.6302
   75MOL0     H 9867   4.446   8.124   6.943  2.2410  0.7022  0.7007
   75MOL0     H 9868   4.238   8.199   6.821 -1.2206  0.4998  0.4436
   75MOL0     H 9869   4.267   8.360   6.874 -1.1555 -0.7845 -2.2087
   75MOL0     H 9870   4.231   8.292   7.108  0.2007 -1.1356  1.1931
   75MOL0     H 9871   4.209   8.119   7.067 -1.2105 -0.9125 -1.1087
   75MOL0     H 9872   4.025   8.340   6.949 -1.7976  0.2910 -1.4399
   75MOL0     H 9873   4.019   8.160   6.931  1.4197 -1.3320  0.9030
   75MOL0     H 9874   3.995   8.328   7.180  0.1034 -0.1470  0.0116
   75MOL0     H 9875   4.003   8.143   7.163 -1.4545 -3.4444 -5.7373
   75MOL0     H 9876   3.773   8.141   7.066 -0.7386  1.4954 -3.1253
   75MOL0     H 9877   3.781   8.309   7.035 -0.6705  0.4383  1.2148
   75MOL0     H 9878   3.639   8.196   7.223 -0.0394 -0.2395  2.7065
   75MOL0     H 9879   3.795   8.203   7.312 -1.6462 -0.8079  0.6823
   75MOL0     H 9880   3.624   8.443   7.220 -2.9115 -2.1670  1.1200
   75MOL0     H 9881   3.795   8.454   7.267 -0.7113 -1.1399 -0.4558
   75MOL0     H 9882   4.588   8.256   6.560  0.3748  1.6722 -1.1849
   75MOL0     H 9883   4.831   8.191   6.513  1.1846 -1.5626  0.1978
   75MOL0     H 9884   5.154   8.237   6.478 -0.6796  0.6403 -0.1169
   75MOL0     H 9885   5.391   8.263   6.376 -1.6661  1.4996 -1.1241
   75MOL0     H 9886   7.259   7.943   6.957  0.1804  1.0841 -2.2303
   75MOL0     H 9887   7.499   7.894   6.970 -2.1882 -0.8832 -0.5589
   75MOL0     H 9888   7.984   8.241   7.169  2.3749  0.0679  2.1866
   75MOL0     H 9889   8.187   8.178   7.220 -1.5980  1.5978 -1.3673
   75MOL0     H 9890   8.385   8.109   7.215 -0.6757  1.0161 -0.6105
   75MOL0     H 9891   8.459   8.080   7.056  0.7357  0.1698  0.3935
   75MOL0     H 9892   8.559   7.868   7.129 -1.6239  1.0874 -0.9535
   75MOL0     H 9893   8.636   8.006   7.207 -0.9962  1.2665  2.2058
   75MOL0     H 9894   8.447   7.965   7.394  0.2123 -1.0853  0.9400
   75MOL0     H 9895   8.607   7.884   7.386  0.5039  2.0134  0.3760
   75MOL0     H 9896   8.428   7.726   7.441 -2.6858 -1.5218 -0.4972
   75MOL0     H 9897   8.331   7.783   7.307 -0.8274 -1.4475  1.8449
   75MOL0     H 9898   8.589   7.466   7.169 -0.9282  0.4150 -1.6150
   75MOL0     H 9899   8.128   7.824   6.954  0.8384  2.3612 -2.5528
   75MOL0     H 9900   7.893   7.897   6.925 -1.0683  1.7388 -1.1797
   76MOL0     O 9901   0.409   8.771   4.719 -0.8061 -0.5175 -0.4010
   76MOL0     C 9902   0.352   8.662   4.727  0.3634  0.8788  0.1958
   76MOL0     O 9903   0.218   8.640   4.743 -0.2663 -0.7315 -0.3617
   76MOL0     C 9904   0.125   8.744   4.759  0.4125  0.4123  0.5438
   76MOL0     C 9905   0.150   8.866   4.821  0.5415 -0.4457 -0.2780
   76MOL0     C 9906   0.046   8.966   4.826  0.3347 -0.8766 -0.5722
   76MOL0     C 9907  -0.078   8.943   4.771  0.3436 -0.1244 -0.1898
   76MOL0     O 9908  -0.174   9.042   4.779  0.2688 -0.5081  0.1341
   76MOL0     C 9909  -0.311   9.021   4.734 -0.0818 -0.1786  0.4558
   76MOL0     C 9910  -0.334   9.045   4.588  0.5265 -0.1181  0.3834
   76MOL0     C 9911  -0.472   8.991   4.546  0.1942  0.9486 -0.2678
   76MOL0     C 9912  -0.519   9.052   4.406  0.3904 -0.4722 -0.6672
   76MOL0     C 9913  -0.654   8.985   4.354  0.7586  0.1554 -0.0468
   76MOL0     C 9914  -0.762   9.004   4.458 -0.9864 -0.3911  0.1071
   76MOL0     C 9915  -0.889   8.937   4.415  0.7808  0.3818 -0.3643
   76MOL0     C 9916  -0.998   8.947   4.519  1.0717  0.2063  0.1505
   76MOL0     N 9917  -1.132   8.920   4.463 -0.3657 -0.7727 -0.0330
   76MOL0     C 9918  -1.233   9.009   4.431 -0.2221 -0.1121 -0.0957
   76MOL0     C 9919  -1.325   8.941   4.363  0.1078 -0.7011  0.1451
   76MOL0     C 9920  -1.451   9.011   4.310 -0.9123  0.5967 -0.4170
   76MOL0     C 9921  -1.561   8.913   4.283  0.4502 -0.2388 -0.2223
   76MOL0     C 9922  -1.672   8.968   4.185  0.3841 -0.7199  0.8404
   76MOL0     C 9923  -1.801   8.892   4.201  0.8606 -0.1221  0.3455
   76MOL0     O 9924  -1.896   8.935   4.102  0.6488 -0.2389  0.2749
   76MOL0     C 9925  -2.022   8.893   4.132  0.8294 -0.0493  0.0471
   76MOL0     C 9926  -2.116   8.986   4.079 -0.1343 -1.2002  0.5437
   76MOL0     C 9927  -2.254   8.959   4.071  0.0994 -0.3031  0.3572
   76MOL0     C 9928  -2.302   8.844   4.133 -0.1793 -0.2078  0.3619
   76MOL0     C 9929  -2.441   8.810   4.144 -0.3081  0.8694 -0.1447
   76MOL0     O 9930  -2.532   8.875   4.062 -0.2838 -0.0122 -0.2814
   76MOL0     C 9931  -2.669   8.859   4.085  1.0741  0.2747  0.2966
   76MOL0     C 9932  -2.728   8.737   4.045  0.2421 -0.3067  0.1393
   76MOL0     C 9933  -2.866   8.722   4.062  0.5939  1.4624 -0.0066
   76MOL0     C 9934  -2.951   8.819   4.122 -0.1796 -0.6858 -0.5710
   76MOL0     O 9935  -3.086   8.792   4.124  0.6640  0.9909  0.5021
   76MOL0     C 9936  -3.171   8.898   4.095  0.7034  0.3446 -0.4647
   76MOL0     C 9937  -3.168   8.945   3.950  0.4534  0.5810  0.1543
   76MOL0     C 9938  -3.202   8.839   3.846  0.1718 -0.0025  0.3497
   76MOL0     C 9939  -3.349   8.777   3.871  0.0862  0.5173 -0.6247
   76MOL0     C 9940  -3.384   8.676   3.754 -0.4538 -0.7612 -0.2638
   76MOL0     C 9941  -3.533   8.655   3.735 -1.2825  0.7175 -0.1470
   76MOL0     C 9942  -3.606   8.772   3.673 -0.5273  0.5745  0.1068
   76MOL0     C 9943  -3.732   8.732   3.609  0.3891  0.5186 -0.4504
   76MOL0    Cl 9944  -3.852   8.646   3.711  0.0542  0.5106 -0.2145
   76MOL0     C 9945  -2.883   8.939   4.172 -0.2954 -0.0175  0.0916
   76MOL0     C 9946  -2.741   8.955   4.153 -0.4760 -0.3407  0.7816
   76MOL0     O 9947  -2.470   8.709   4.212  0.5704 -0.3137 -0.3120
   76MOL0     C 9948  -2.201   8.758   4.181  0.8036 -0.0774  0.3375
   76MOL0     C 9949  -2.067   8.776   4.195  0.4026 -0.1578 -0.0187
   76MOL0     N 9950  -1.278   8.811   4.351  0.1386  0.5414  0.6866
   76MOL0     N 9951  -1.171   8.797   4.416 -0.2300 -1.3447  0.3247
   76MOL0     C 9952  -0.094   8.812   4.716 -0.4084  0.9947  0.3315
   76MOL0     C 9953   0.006   8.715   4.700 -0.1382 -0.2584  0.5912
   76MOL0     C 9954   0.421   8.533   4.699 -0.3494 -0.9447 -0.0022
   76MOL0     C 9955   0.380   8.406   4.751  0.3347 -0.3874  0.2265
   76MOL0     C 9956   0.444   8.292   4.713  0.5020 -0.1716  0.8630
   76MOL0     C 9957   0.559   8.293   4.632  0.2875  0.0241  0.0316
   76MOL0     O 9958   0.622   8.171   4.620 -0.3737 -0.6977  0.2045
   76MOL0     C 9959   0.736   8.151   4.527  0.5236 -0.1194 -0.5215
   76MOL0     C 9960   0.829   8.065   4.605 -0.2799 -0.5117 -0.2463
   76MOL0     C 9961   0.784   7.923   4.623 -0.6054 -0.3241  0.5753
   76MOL0     C 9962   0.861   7.833   4.723  0.2148 -1.2801  0.0759
   76MOL0     C 9963   0.995   7.814   4.663  0.7590  1.5002  0.0514
   76MOL0     C 9964   1.105   7.802   4.636 -0.3474  0.5283  0.1130
   76MOL0     C 9965   0.602   8.419   4.589 -0.0247  0.4230  0.1861
   76MOL0     C 9966   0.537   8.530   4.624  0.2439 -0.9010  0.2713
   76MOL0     H 9967   0.249   8.877   4.865 -0.8218  0.8681  2.8280
   76MOL0     H 9968   0.067   9.065   4.865 -1.9585 -0.5960  0.1137
   76MOL0     H 9969  -0.384   9.083   4.788  1.3317  0.6001  1.5577
   76MOL0     H 9970  -0.350   8.923   4.763  0.1559 -0.1448  0.8977
   76MOL0     H 9971  -0.264   8.991   4.523 -0.2210 -1.3869  0.5932
   76MOL0     H 9972  -0.323   9.151   4.566 -0.0859 -0.5976 -2.6751
   76MOL0     H 9973  -0.540   9.026   4.624  1.3113 -1.7606  2.1051
   76MOL0     H 9974  -0.481   8.882   4.541 -1.1870  1.0557 -0.5866
   76MOL0     H 9975  -0.514   9.162   4.409  3.5777 -0.5056 -1.3510
   76MOL0     H 9976  -0.438   9.012   4.345 -0.2405  1.6288 -3.0822
   76MOL0     H 9977  -0.635   8.885   4.315  0.7798  0.2477 -0.2778
   76MOL0     H 9978  -0.678   9.033   4.259 -1.3869  0.4352  0.5681
   76MOL0     H 9979  -0.771   9.112   4.471  1.3248 -0.3883  2.4551
   76MOL0     H 9980  -0.722   8.966   4.553 -0.9051  1.6668  0.9418
   76MOL0     H 9981  -0.918   9.011   4.340 -1.4417 -0.2076 -0.1722
   76MOL0     H 9982  -0.890   8.834   4.380  2.0101 -0.3537  1.5808
   76MOL0     H 9983  -1.005   9.048   4.561  0.7387 -0.0144  0.6335
   76MOL0     H 9984  -0.979   8.877   4.602  0.5017 -1.4454 -1.0648
   76MOL0     H 9985  -1.240   9.114   4.455 -0.4249  0.5306 -2.6805
   76MOL0     H 9986  -1.436   9.074   4.221 -0.2979  2.8305  1.1842
   76MOL0     H 9987  -1.481   9.083   4.387 -2.2559  0.5619 -0.8830
   76MOL0     H 9988  -1.599   8.857   4.368  2.2368  1.9055  2.1510
   76MOL0     H 9989  -1.511   8.848   4.210  1.1877  0.8303 -0.7056
   76MOL0     H 9990  -1.693   9.075   4.194 -0.3179 -0.7164 -0.5768
   76MOL0     H 9991  -1.640   8.952   4.082  1.0691 -0.5722  1.0256
   76MOL0     H 9992  -1.839   8.926   4.297  0.8626  1.0532 -0.0507
   76MOL0     H 9993  -1.776   8.786   4.192  2.1139  0.2145 -0.3963
   76MOL0     H 9994  -2.078   9.082   4.047 -1.8486  0.0713  2.1227
   76MOL0     H 9995  -2.314   9.032   4.017  0.4419 -0.4368 -0.2068
   76MOL0     H 9996  -2.660   8.668   3.996  1.2858  0.1066  0.9656
   76MOL0     H 9997  -2.908   8.622   4.050  0.1992  1.2106  2.7451
   76MOL0     H 9998  -3.144   8.978   4.165  2.4183  0.5669 -1.3294
   76MOL0     H 9999  -3.272   8.870   4.126  1.1413  1.6967  2.6651
   76MOL0     H10000  -3.067   8.982   3.930  0.3781  1.2915  1.0204
   76MOL0     H10001  -3.234   9.031   3.936  0.5887  0.6468 -0.0788
   76MOL0     H10002  -3.129   8.758   3.858 -0.2059 -0.1003  2.2979
   76MOL0     H10003  -3.195   8.887   3.748  2.1533  2.6251  1.6224
   76MOL0     H10004  -3.360   8.720   3.964  0.6027  0.6812 -0.4589
   76MOL0     H10005  -3.420   8.860   3.873 -2.3705 -1.4683 -0.4934
   76MOL0     H10006  -3.342   8.578   3.775  0.4715 -0.1362  0.9466
   76MOL0     H10007  -3.339   8.719   3.664  0.5004 -1.8495 -0.3187
   76MOL0     H10008  -3.578   8.648   3.834 -0.1965  1.9355  0.4619
   76MOL0     H10009  -3.541   8.563   3.676  1.9366 -0.0567  0.4325
   76MOL0     H10010  -3.609   8.853   3.747  1.6536  1.0675 -0.2794
   76MOL0     H10011  -3.544   8.804   3.589 -0.3670 -1.5583 -0.6675
   76MOL0     H10012  -3.714   8.654   3.535 -1.1220  0.6302 -0.9768
   76MOL0     H10013  -3.780   8.822   3.571  2.4079  0.9760 -2.1267
   76MOL0     H10014  -2.936   9.012   4.233  0.4648  0.2821  0.4115
   76MOL0     H10015  -2.686   9.040   4.193  2.8030  0.1707 -4.0539
   76MOL0     H10016  -2.220   8.653   4.204 -3.6847 -0.3332 -3.1073
   76MOL0     H10017  -2.001   8.704   4.242  1.3194  0.7715  0.1695
   76MOL0     H10018  -0.195   8.792   4.683 -0.1138  1.2362 -0.7660
   76MOL0     H10019   0.000   8.635   4.628  0.8564  0.6564 -0.5474
   76MOL0     H10020   0.296   8.392   4.819 -1.5836 -1.4337 -2.2060
   76MOL0     H10021   0.424   8.195   4.758 -1.0083 -0.1278  0.3313
   76MOL0     H10022   0.777   8.249   4.500 -4.0986  1.8113 -1.5818
   76MOL0     H10023   0.706   8.096   4.437  0.0542 -0.8631  0.0758
   76MOL0     H10024   0.933   8.061   4.570  0.2929  1.9160  0.9513
   76MOL0     H10025   0.846   8.103   4.707  5.3338 -0.7000 -0.7752
   76MOL0     H10026   0.777   7.880   4.523 -1.2610 -0.9558  0.8828
   76MOL0     H10027   0.682   7.922   4.665 -0.8265 -1.4310  0.0463
   76MOL0     H10028   0.857   7.881   4.821 -1.7712  0.2439 -0.6741
   76MOL0     H10029   0.808   7.737   4.728  2.3512 -2.4420  1.6875
   76MOL0     H10030   1.212   7.802   4.628  0.0616 -3.7713  2.5310
   76MOL0     H10031   0.696   8.420   4.535  1.0856  0.7248  2.0376
   76MOL0     H10032   0.574   8.620   4.576 -0.4449  0.6175  2.4647
   77MOL0     O10033   1.837   5.174   4.605  0.2505 -0.5336 -0.3050
   77MOL0     C10034   1.929   5.139   4.680  0.3384  0.4517 -1.4488
   77MOL0     O10035   1.940   5.019   4.749  0.1665 -0.0117  0.3372
   77MOL0     C10036   1.855   4.917   4.719  0.1385  0.3105  0.3383
   77MOL0     C10037   1.867   4.840   4.600 -0.9843  0.3736 -0.2580
   77MOL0     C10038   1.775   4.735   4.572 -0.0407  0.4500 -0.2648
   77MOL0     C10039   1.691   4.690   4.668  0.2515 -0.6289 -0.3756
   77MOL0     O10040   1.609   4.583   4.645  0.2581 -0.6112  0.5738
   77MOL0     C10041   1.477   4.575   4.700 -0.1010  0.0439  0.9262
   77MOL0     C10042   1.419   4.446   4.651  0.4330 -0.3478  0.0403
   77MOL0     C10043   1.273   4.416   4.713 -0.1722  0.3158 -0.2792
   77MOL0     C10044   1.198   4.321   4.632  0.6213 -0.1113 -0.0918
   77MOL0     C10045   1.053   4.307   4.677  0.2717  0.4392 -0.0655
   77MOL0     C10046   1.017   4.184   4.770 -0.7449  0.5530  0.1331
   77MOL0     C10047   0.872   4.162   4.797 -0.0784 -0.2971 -0.6435
   77MOL0     C10048   0.783   4.114   4.681  0.0620 -0.3770 -0.2009
   77MOL0     N10049   0.642   4.118   4.710  0.4321 -0.3701  0.4326
   77MOL0     C10050   0.554   4.019   4.670 -1.1529 -0.1433  0.1615
   77MOL0     C10051   0.437   4.039   4.730 -0.6404 -0.3053  0.0455
   77MOL0     C10052   0.318   3.938   4.748  0.3235  0.1082  0.1339
   77MOL0     C10053   0.332   3.786   4.700  0.6185  0.8442  0.0289
   77MOL0     C10054   0.205   3.703   4.756  0.3326 -0.0806 -0.0246
   77MOL0     C10055   0.073   3.733   4.692  0.3966 -1.4873  0.5530
   77MOL0     O10056   0.016   3.843   4.769 -0.0901  0.8192  0.3149
   77MOL0     C10057  -0.120   3.830   4.806  0.3544 -0.0383 -0.0599
   77MOL0     C10058  -0.218   3.797   4.713 -0.0038 -0.0214  0.2990
   77MOL0     C10059  -0.346   3.779   4.763  0.9082 -0.3238  0.1026
   77MOL0     C10060  -0.382   3.810   4.898  0.0200 -0.9528 -0.2547
   77MOL0     C10061  -0.520   3.787   4.950  0.2906  0.0119  0.1926
   77MOL0     O10062  -0.531   3.797   5.080  0.6588 -0.3800 -0.5560
   77MOL0     C10063  -0.651   3.778   5.160 -0.2800  0.4243 -0.0018
   77MOL0     C10064  -0.631   3.738   5.297  0.7917 -0.5630 -0.0874
   77MOL0     C10065  -0.736   3.724   5.387  0.6230 -0.0088 -1.1239
   77MOL0     C10066  -0.871   3.753   5.340 -0.2454 -0.2715  0.7814
   77MOL0     O10067  -0.972   3.741   5.426  0.4511 -0.3938 -0.0294
   77MOL0     C10068  -1.095   3.699   5.373 -0.4597  0.0456 -0.8346
   77MOL0     C10069  -1.192   3.699   5.495 -0.4527 -0.0918  0.4929
   77MOL0     C10070  -1.341   3.673   5.454 -0.2359  0.1258 -0.3348
   77MOL0     C10071  -1.422   3.664   5.585 -0.2794 -0.3968  0.0408
   77MOL0     C10072  -1.573   3.705   5.558 -1.0232  0.6585 -0.3526
   77MOL0     C10073  -1.668   3.654   5.664 -0.2214 -0.1450 -0.1287
   77MOL0     C10074  -1.811   3.643   5.617 -0.1346 -0.1045  0.2818
   77MOL0     C10075  -1.911   3.580   5.720 -0.3662 -1.0767 -1.3487
   77MOL0    Cl10076  -1.930   3.677   5.859  0.1875  0.3080 -0.0493
   77MOL0     C10077  -0.880   3.783   5.203  0.7042  0.3308 -0.0075
   77MOL0     C10078  -0.774   3.806   5.115  0.4175 -0.5190  0.2588
   77MOL0     O10079  -0.608   3.768   4.873 -0.3132 -0.0882 -0.0912
   77MOL0     C10080  -0.279   3.859   4.982  1.3260  0.4635 -0.1370
   77MOL0     C10081  -0.154   3.872   4.934 -0.2999  0.1930  0.1021
   77MOL0     N10082   0.450   4.162   4.805 -0.3672  0.1504 -0.5721
   77MOL0     N10083   0.572   4.211   4.790  0.4696 -0.6449 -0.0789
   77MOL0     C10084   1.679   4.767   4.793  1.1627  0.0494  0.2644
   77MOL0     C10085   1.757   4.877   4.814 -0.2518  0.1505 -0.2151
   77MOL0     C10086   2.031   5.247   4.708  0.4704 -0.0562  0.0404
   77MOL0     C10087   2.088   5.344   4.621  0.5653 -0.3115  0.3137
   77MOL0     C10088   2.176   5.442   4.673 -0.4258 -0.5206  0.7629
   77MOL0     C10089   2.202   5.458   4.806 -0.0198 -0.9265 -0.0466
   77MOL0     O10090   2.282   5.562   4.841 -0.0604 -0.8761  0.2525
   77MOL0     C10091   2.262   5.623   4.969 -0.5290  0.8487  0.6656
   77MOL0     C10092   2.276   5.775   4.944 -0.2174 -0.1550 -0.4400
   77MOL0     C10093   2.232   5.858   5.071  0.1837  0.0639 -0.0346
   77MOL0     C10094   2.264   6.015   5.068 -0.5496  0.1144  0.7144
   77MOL0     C10095   2.204   6.083   5.185  0.3328  0.7143 -1.0456
   77MOL0     C10096   2.149   6.158   5.264  0.2119 -0.4670  0.7082
   77MOL0     C10097   2.151   5.353   4.895  0.3518 -0.3772 -0.1480
   77MOL0     C10098   2.065   5.251   4.843  0.5823 -0.3810  0.0675
   77MOL0     H10099   1.945   4.857   4.526 -0.8704 -1.9967 -0.7478
   77MOL0     H10100   1.766   4.688   4.475 -1.1923 -1.1190  0.5630
   77MOL0     H10101   1.416   4.656   4.658  0.3123  0.5717  1.3148
   77MOL0     H10102   1.464   4.582   4.808 -1.2498 -1.5523  0.9225
   77MOL0     H10103   1.490   4.366   4.676  2.8526  0.7905 -2.6338
   77MOL0     H10104   1.418   4.446   4.542 -2.5255 -5.0306 -0.2371
   77MOL0     H10105   1.215   4.509   4.714 -1.1772 -0.2779  1.8077
   77MOL0     H10106   1.278   4.381   4.816  3.8019 -0.1878 -0.4657
   77MOL0     H10107   1.199   4.368   4.533 -0.2702 -1.5009 -0.7854
   77MOL0     H10108   1.253   4.227   4.620  0.8833 -0.4689  3.0804
   77MOL0     H10109   0.993   4.290   4.587  1.8817  0.1206 -1.1124
   77MOL0     H10110   1.014   4.400   4.718  0.6024  1.8312 -2.7199
   77MOL0     H10111   1.068   4.186   4.867  0.6556 -0.7161 -0.5426
   77MOL0     H10112   1.054   4.099   4.712 -0.0130  0.5873  0.5317
   77MOL0     H10113   0.880   4.084   4.874  0.0024  1.5311  1.2742
   77MOL0     H10114   0.834   4.253   4.844  0.0905  0.3229 -1.6945
   77MOL0     H10115   0.816   4.012   4.662  2.0149 -0.5665  3.2682
   77MOL0     H10116   0.802   4.169   4.589 -0.1385  0.1324  0.0575
   77MOL0     H10117   0.581   3.939   4.602  1.0235  2.0597 -1.7647
   77MOL0     H10118   0.232   3.981   4.695  1.5090  0.5848 -1.5125
   77MOL0     H10119   0.293   3.931   4.854  2.4813  0.5327  0.7182
   77MOL0     H10120   0.424   3.745   4.741  0.0112 -2.1772 -1.3854
   77MOL0     H10121   0.339   3.774   4.592  1.0446 -1.6990  0.2933
   77MOL0     H10122   0.229   3.598   4.734  3.2090  0.3776  0.5191
   77MOL0     H10123   0.202   3.719   4.864  3.3851 -4.2259  0.9294
   77MOL0     H10124   0.012   3.644   4.709 -1.8899  0.0994  1.2814
   77MOL0     H10125   0.071   3.753   4.584  2.1527 -0.6262  0.6506
   77MOL0     H10126  -0.198   3.775   4.609 -2.2296 -2.7782  0.3132
   77MOL0     H10127  -0.417   3.754   4.686  2.1840  3.0310 -2.4227
   77MOL0     H10128  -0.526   3.734   5.324  0.3381 -2.4598  1.7160
   77MOL0     H10129  -0.733   3.697   5.492  3.0244  0.9900 -0.8758
   77MOL0     H10130  -1.095   3.598   5.330 -1.5921 -1.1799  1.8425
   77MOL0     H10131  -1.130   3.774   5.302 -3.2423 -0.4214 -0.0587
   77MOL0     H10132  -1.191   3.800   5.537 -1.0806 -1.1238  3.2697
   77MOL0     H10133  -1.164   3.638   5.582  2.3118  1.1315  0.5734
   77MOL0     H10134  -1.360   3.580   5.398 -2.0874  1.8731 -2.8112
   77MOL0     H10135  -1.372   3.755   5.389  1.4663 -0.1730 -1.5998
   77MOL0     H10136  -1.414   3.571   5.643  0.3737  0.3013  1.0777
   77MOL0     H10137  -1.382   3.737   5.655 -1.9515  0.5668  0.0563
   77MOL0     H10138  -1.605   3.663   5.462  1.2288  2.3826 -1.9707
   77MOL0     H10139  -1.578   3.814   5.545  1.0905  1.2593  2.7885
   77MOL0     H10140  -1.656   3.715   5.754 -1.5611 -3.5974  2.6314
   77MOL0     H10141  -1.636   3.555   5.698 -0.3645 -0.5568 -1.1555
   77MOL0     H10142  -1.832   3.743   5.578  0.7475 -0.2811 -0.7033
   77MOL0     H10143  -1.816   3.584   5.524  1.0632  0.3088 -0.0641
   77MOL0     H10144  -1.868   3.483   5.746  3.0515 -0.4091 -3.8162
   77MOL0     H10145  -2.005   3.577   5.664 -0.4584 -0.1242 -1.2734
   77MOL0     H10146  -0.985   3.798   5.181  0.9892  3.3729  0.2739
   77MOL0     H10147  -0.796   3.850   5.019  2.8996  0.4356  0.0575
   77MOL0     H10148  -0.308   3.888   5.083  1.5696 -0.9298  0.3600
   77MOL0     H10149  -0.074   3.912   4.996  0.3176 -0.9173  0.0506
   77MOL0     H10150   1.606   4.740   4.868 -3.8372  0.3494 -3.9478
   77MOL0     H10151   1.748   4.928   4.910  2.5893  0.2652  0.0948
   77MOL0     H10152   2.075   5.335   4.514  1.7120 -0.2707  0.1526
   77MOL0     H10153   2.225   5.498   4.594 -1.2365 -1.9379 -0.8045
   77MOL0     H10154   2.342   5.575   5.027  1.1475 -0.9311 -2.8486
   77MOL0     H10155   2.168   5.595   5.018 -0.1814  0.5130  1.1514
   77MOL0     H10156   2.381   5.801   4.926 -0.2050 -1.3537 -2.3127
   77MOL0     H10157   2.219   5.813   4.859 -0.0811  2.6562  0.6000
   77MOL0     H10158   2.287   5.818   5.157 -1.4832 -2.3288  0.0122
   77MOL0     H10159   2.128   5.831   5.094  0.4767  0.2071  1.5360
   77MOL0     H10160   2.371   6.030   5.054 -0.5610 -1.6445 -2.0693
   77MOL0     H10161   2.221   6.051   4.974 -0.5441  0.6551  0.9150
   77MOL0     H10162   2.101   6.217   5.340 -1.6280 -0.9253 -0.0429
   77MOL0     H10163   2.185   5.355   4.998  2.0489 -2.0193 -0.6144
   77MOL0     H10164   2.018   5.185   4.916 -0.6971 -1.2601 -1.4958
   78MOL0     O10165   3.019   5.582   8.133 -0.3640 -0.3553  0.5146
   78MOL0     C10166   3.110   5.504   8.158 -0.9296 -0.0425 -0.7710
   78MOL0     O10167   3.095   5.372   8.197  1.0396 -0.1990 -0.1119
   78MOL0     C10168   2.967   5.325   8.211  0.1697  0.6624 -0.1086
   78MOL0     C10169   2.922   5.293   8.338 -0.0410  0.8496 -0.5253
   78MOL0     C10170   2.782   5.260   8.356 -0.8277  0.7011 -1.0462
   78MOL0     C10171   2.696   5.240   8.247  0.0644 -0.7385 -0.3484
   78MOL0     O10172   2.573   5.195   8.277  0.6554  0.4251  1.0730
   78MOL0     C10173   2.552   5.060   8.239  0.5439  0.1956 -0.0812
   78MOL0     C10174   2.428   5.006   8.316  0.3505  0.4194  0.6753
   78MOL0     C10175   2.289   5.071   8.287  0.2515 -0.3410 -1.0322
   78MOL0     C10176   2.233   5.051   8.143  0.2490  0.8244 -0.7540
   78MOL0     C10177   2.101   5.130   8.131 -1.3066  0.0678 -0.7861
   78MOL0     C10178   1.978   5.044   8.161  0.1331  0.4359 -0.1946
   78MOL0     C10179   1.852   5.124   8.128  0.1588  0.2806  0.5954
   78MOL0     C10180   1.830   5.138   7.974 -0.0163 -0.2891  0.3268
   78MOL0     N10181   1.714   5.227   7.952 -0.6454  0.1630  0.5760
   78MOL0     C10182   1.590   5.176   7.973 -0.3211 -0.3103  0.8990
   78MOL0     C10183   1.515   5.286   7.948 -0.0287 -0.0475 -0.5325
   78MOL0     C10184   1.369   5.300   7.958  0.0201 -0.7606  0.7027
   78MOL0     C10185   1.296   5.263   7.829 -0.5677 -0.2301  1.1005
   78MOL0     C10186   1.162   5.195   7.856  0.4767  0.1377  0.0924
   78MOL0     C10187   1.107   5.147   7.723  0.3515  0.2903 -0.4342
   78MOL0     O10188   0.979   5.082   7.748  0.5623 -0.1114 -0.0521
   78MOL0     C10189   0.859   5.090   7.665 -0.6487 -0.3368 -0.0674
   78MOL0     C10190   0.860   5.116   7.531  0.3159 -0.2865  0.2023
   78MOL0     C10191   0.735   5.114   7.461 -0.2600 -1.0379  0.3931
   78MOL0     C10192   0.615   5.096   7.527  0.3480 -0.4242  0.1282
   78MOL0     C10193   0.482   5.096   7.459  0.1892 -0.3104  0.1100
   78MOL0     O10194   0.487   5.035   7.329 -0.3450 -0.2342  0.4031
   78MOL0     C10195   0.368   5.040   7.259 -0.8174  0.2902  0.6796
   78MOL0     C10196   0.286   4.921   7.262  0.1710 -0.3915  0.1452
   78MOL0     C10197   0.173   4.925   7.180 -0.4966 -0.0801 -0.4971
   78MOL0     C10198   0.133   5.035   7.095 -0.0632 -0.0068 -0.4891
   78MOL0     O10199   0.026   5.016   7.017  0.3148  0.3331  0.3727
   78MOL0     C10200  -0.028   5.121   6.934  0.8611  0.0641 -0.5432
   78MOL0     C10201  -0.144   5.060   6.844 -0.2822 -0.4714 -0.2960
   78MOL0     C10202  -0.269   5.143   6.834  0.9963  0.2589  0.1155
   78MOL0     C10203  -0.382   5.085   6.751 -0.3831 -0.0379  0.6290
   78MOL0     C10204  -0.504   5.181   6.746 -0.3486  0.5023  0.0758
   78MOL0     C10205  -0.619   5.129   6.657  0.0729  0.1531 -0.0490
   78MOL0     C10206  -0.753   5.175   6.728  0.2334  0.2923  0.7020
   78MOL0     C10207  -0.859   5.073   6.697 -0.2119 -0.4300 -0.4281
   78MOL0    Cl10208  -0.834   4.932   6.788  0.0785 -0.2885  0.2875
   78MOL0     C10209   0.212   5.151   7.101  0.2832 -0.2405  0.1134
   78MOL0     C10210   0.329   5.152   7.188  1.6015  0.1257 -0.0529
   78MOL0     O10211   0.388   5.153   7.508 -0.0064  0.2440 -0.6122
   78MOL0     C10212   0.616   5.077   7.662  0.0964 -0.9231 -0.4998
   78MOL0     C10213   0.735   5.073   7.726 -0.5949  0.5985  1.2165
   78MOL0     N10214   1.588   5.392   7.916 -0.8446  0.0445 -0.0985
   78MOL0     N10215   1.712   5.361   7.928 -0.4243 -0.4185 -0.9184
   78MOL0     C10216   2.749   5.257   8.117 -0.0087  1.1364  0.6441
   78MOL0     C10217   2.885   5.299   8.103 -0.3118 -0.3134  0.1695
   78MOL0     C10218   3.258   5.551   8.144 -0.5022  0.2406 -0.3052
   78MOL0     C10219   3.362   5.457   8.163 -0.0234 -0.7636  0.1091
   78MOL0     C10220   3.493   5.498   8.160 -0.4764 -0.3252  0.0573
   78MOL0     C10221   3.526   5.631   8.131  1.1557  1.0233  0.0653
   78MOL0     O10222   3.655   5.669   8.160 -0.6847  0.3804 -0.1933
   78MOL0     C10223   3.698   5.781   8.085  0.9574 -1.0099 -0.1962
   78MOL0     C10224   3.839   5.762   8.045 -0.9284  0.4346 -0.5651
   78MOL0     C10225   3.936   5.781   8.163  0.5755  1.4379  0.6262
   78MOL0     C10226   4.064   5.718   8.124  0.0846 -0.0378  1.3629
   78MOL0     C10227   4.145   5.805   8.028  0.0487 -0.1462 -0.0293
   78MOL0     C10228   4.223   5.871   7.960 -0.2768  0.1991  0.4589
   78MOL0     C10229   3.423   5.722   8.108  0.1660 -1.3643 -0.8298
   78MOL0     C10230   3.287   5.684   8.113  0.1518  1.0213 -0.4245
   78MOL0     H10231   2.984   5.296   8.427 -1.6263 -2.3650  0.8784
   78MOL0     H10232   2.732   5.236   8.449 -0.4482  0.3000 -0.9381
   78MOL0     H10233   2.636   4.998   8.270  1.1606 -1.6882 -4.6410
   78MOL0     H10234   2.544   5.050   8.130  0.1713  2.4079 -0.3069
   78MOL0     H10235   2.452   5.022   8.422  0.4905 -4.4615  1.6200
   78MOL0     H10236   2.426   4.897   8.316  1.4389  0.1675  5.3564
   78MOL0     H10237   2.300   5.177   8.310  0.8561 -0.4815 -0.6660
   78MOL0     H10238   2.214   5.021   8.350  0.1780 -0.2166 -1.0200
   78MOL0     H10239   2.306   5.081   8.067  0.5976 -0.0380 -0.7770
   78MOL0     H10240   2.211   4.946   8.124 -0.7936  1.3172 -2.4182
   78MOL0     H10241   2.101   5.174   8.031  0.3255  0.6042 -0.5901
   78MOL0     H10242   2.098   5.207   8.209 -1.3846 -1.2801  0.5938
   78MOL0     H10243   1.979   5.009   8.264 -0.4053  0.9506 -0.0076
   78MOL0     H10244   1.983   4.949   8.108  1.0910 -0.6650  1.7783
   78MOL0     H10245   1.773   5.070   8.181 -0.4026  0.3175 -0.1930
   78MOL0     H10246   1.857   5.227   8.166 -0.2862  2.1603 -3.7982
   78MOL0     H10247   1.803   5.036   7.946  0.7110 -0.4355  0.1434
   78MOL0     H10248   1.917   5.176   7.920 -0.0679 -3.3024 -2.1572
   78MOL0     H10249   1.567   5.073   7.997  2.0394 -1.4062 -1.1191
   78MOL0     H10250   1.338   5.405   7.968  0.7516 -0.2350 -1.8769
   78MOL0     H10251   1.331   5.236   8.038 -2.7121 -1.2905 -0.8719
   78MOL0     H10252   1.356   5.191   7.773 -0.8817  0.2525  0.1167
   78MOL0     H10253   1.283   5.354   7.769  2.8793 -0.5849 -0.3876
   78MOL0     H10254   1.178   5.108   7.921 -0.4290 -0.1734 -0.0903
   78MOL0     H10255   1.081   5.251   7.905 -1.0810 -3.1329  1.5285
   78MOL0     H10256   1.172   5.076   7.671 -3.3398 -4.3836  0.5944
   78MOL0     H10257   1.090   5.237   7.664 -0.2578  2.0396  2.2660
   78MOL0     H10258   0.960   5.134   7.491 -0.4617  3.9871 -0.3152
   78MOL0     H10259   0.725   5.116   7.353 -0.1234 -3.4907  0.2766
   78MOL0     H10260   0.314   4.835   7.322 -0.7132 -0.2868  0.7353
   78MOL0     H10261   0.118   4.831   7.180  1.5205 -1.3731  1.9937
   78MOL0     H10262   0.043   5.172   6.869 -0.3239  0.0788 -1.8674
   78MOL0     H10263  -0.069   5.208   6.985  1.8515  0.6127 -0.6626
   78MOL0     H10264  -0.173   4.963   6.886  2.6576 -1.7562 -0.9796
   78MOL0     H10265  -0.104   5.043   6.743  0.4645  0.7494 -0.2165
   78MOL0     H10266  -0.250   5.246   6.800 -1.2845  0.3933 -0.9846
   78MOL0     H10267  -0.306   5.152   6.937  0.5660 -0.2214  0.0030
   78MOL0     H10268  -0.345   5.065   6.650  0.2213  0.8070  0.6792
   78MOL0     H10269  -0.413   4.983   6.778 -0.8645 -0.8266 -2.5110
   78MOL0     H10270  -0.472   5.270   6.692  3.1528 -2.0370 -2.5114
   78MOL0     H10271  -0.528   5.203   6.850  2.2669 -2.6230  1.5153
   78MOL0     H10272  -0.610   5.021   6.647  0.1222  0.2528 -1.2049
   78MOL0     H10273  -0.605   5.176   6.559  2.0651 -1.9722 -0.8935
   78MOL0     H10274  -0.741   5.183   6.836 -3.9049  1.5114  1.2370
   78MOL0     H10275  -0.782   5.276   6.697 -0.4518  0.4568  1.8129
   78MOL0     H10276  -0.856   5.048   6.591  3.6709 -1.0915 -0.3146
   78MOL0     H10277  -0.964   5.098   6.714 -0.7842 -2.7788 -0.2925
   78MOL0     H10278   0.199   5.238   7.038  1.5055 -0.3715 -0.3552
   78MOL0     H10279   0.399   5.235   7.185 -1.0645  2.5423 -0.3137
   78MOL0     H10280   0.526   5.061   7.722  0.7209  2.3286  1.5827
   78MOL0     H10281   0.724   5.032   7.826 -0.8567 -3.9949 -0.4698
   78MOL0     H10282   2.679   5.223   8.042  0.9299  0.7741 -0.0926
   78MOL0     H10283   2.930   5.310   8.005  0.3444 -1.6761  0.2972
   78MOL0     H10284   3.333   5.360   8.202 -2.3910 -0.6916 -1.2576
   78MOL0     H10285   3.572   5.428   8.186 -0.7372 -0.5352  0.3033
   78MOL0     H10286   3.686   5.873   8.143 -1.1278 -2.5827  2.0379
   78MOL0     H10287   3.641   5.796   7.993  2.7885  2.8466 -0.8950
   78MOL0     H10288   3.840   5.662   7.998 -3.0845  0.5077 -0.8735
   78MOL0     H10289   3.866   5.823   7.958  2.0810 -0.5054 -0.4232
   78MOL0     H10290   3.895   5.726   8.248 -0.3701  0.8339 -0.2005
   78MOL0     H10291   3.937   5.882   8.205  1.9949  0.9735  1.8135
   78MOL0     H10292   4.107   5.707   8.224 -3.7649 -0.3540  3.1603
   78MOL0     H10293   4.041   5.620   8.080 -0.6606  1.0801 -0.9074
   78MOL0     H10294   4.303   5.916   7.904 -1.2950  1.4966 -0.0014
   78MOL0     H10295   3.436   5.829   8.099  0.2140 -1.2915  0.0294
   78MOL0     H10296   3.202   5.747   8.088 -0.5742  0.0784 -0.3867
   79MOL0     O10297   6.624   9.136   4.679 -0.0190 -0.0561 -0.1429
   79MOL0     C10298   6.633   9.257   4.694  1.0036  0.4360  0.7894
   79MOL0     O10299   6.532   9.332   4.749  0.4201 -0.4030  0.2684
   79MOL0     C10300   6.420   9.267   4.802  0.1391 -0.4935 -0.9762
   79MOL0     C10301   6.300   9.326   4.775 -0.2166 -0.0563  0.0295
   79MOL0     C10302   6.185   9.277   4.837 -0.0653  0.7213  0.4439
   79MOL0     C10303   6.194   9.169   4.920 -0.9193 -0.0844  0.0655
   79MOL0     O10304   6.085   9.115   4.989  0.1578 -0.3947  0.0548
   79MOL0     C10305   5.995   9.209   5.046  0.1650  0.7636 -0.3171
   79MOL0     C10306   5.874   9.148   5.122  0.2823 -0.0970 -0.5046
   79MOL0     C10307   5.774   9.082   5.029 -1.2065 -0.4932 -0.4363
   79MOL0     C10308   5.634   9.086   5.096  0.2699 -0.3144  0.4647
   79MOL0     C10309   5.508   9.058   5.017  0.1119  0.0899  0.2100
   79MOL0     C10310   5.483   8.905   4.993  0.6289  0.4219  1.5468
   79MOL0     C10311   5.329   8.869   4.971 -0.5854 -0.2839 -0.6129
   79MOL0     C10312   5.272   8.974   4.880 -1.8005 -0.5820 -0.3948
   79MOL0     N10313   5.130   8.948   4.849  0.1575 -0.0426  0.0380
   79MOL0     C10314   5.028   8.930   4.947 -0.0428 -0.0981  0.7061
   79MOL0     C10315   4.923   8.885   4.877  0.5134  0.6569 -0.1704
   79MOL0     C10316   4.779   8.847   4.927  0.5215 -0.5770 -0.4696
   79MOL0     C10317   4.804   8.775   5.062  1.0044  0.6094  0.0762
   79MOL0     C10318   4.692   8.684   5.100 -0.2708  0.9926 -0.2918
   79MOL0     C10319   4.565   8.764   5.134  0.4541  0.2576  0.1632
   79MOL0     O10320   4.449   8.680   5.174 -0.5109 -0.2715  0.2069
   79MOL0     C10321   4.332   8.736   5.202  0.1079  0.1667 -1.6445
   79MOL0     C10322   4.314   8.873   5.189  0.0417 -0.6917  0.0907
   79MOL0     C10323   4.190   8.935   5.193  0.5088 -0.3310  0.3601
   79MOL0     C10324   4.082   8.867   5.246  0.4872 -0.7024 -0.2921
   79MOL0     C10325   3.961   8.951   5.275  0.1741  0.8165 -0.2640
   79MOL0     O10326   3.942   9.068   5.208  0.8710  0.5370  0.0932
   79MOL0     C10327   3.814   9.105   5.186 -0.7629  0.3426  0.9140
   79MOL0     C10328   3.720   9.123   5.294 -0.1259 -0.6707 -1.1406
   79MOL0     C10329   3.596   9.177   5.266 -0.0565  0.5891  0.6013
   79MOL0     C10330   3.554   9.197   5.133  0.1024  1.0384 -0.2177
   79MOL0     O10331   3.425   9.244   5.115  0.2172  0.3677 -0.7519
   79MOL0     C10332   3.326   9.149   5.071  0.5416  0.4950 -0.1537
   79MOL0     C10333   3.281   9.081   5.198 -0.5272 -0.9183  1.1124
   79MOL0     C10334   3.163   8.997   5.186  1.2965  0.8648 -0.6836
   79MOL0     C10335   3.034   9.079   5.145 -0.0245  0.3832 -0.1506
   79MOL0     C10336   2.902   9.004   5.195  0.1785  0.3782 -0.1835
   79MOL0     C10337   2.881   8.869   5.125  0.9568  0.7060 -0.6445
   79MOL0     C10338   2.731   8.810   5.134 -0.2342 -0.0847  1.1029
   79MOL0     C10339   2.731   8.654   5.113 -0.0273  0.0220  0.0892
   79MOL0    Cl10340   2.753   8.617   4.931  0.1101 -0.1421  0.6210
   79MOL0     C10341   3.637   9.177   5.025  0.0046  0.2072  0.1587
   79MOL0     C10342   3.777   9.143   5.047 -0.3361 -0.4268  0.1331
   79MOL0     O10343   3.894   8.914   5.369  0.2889  0.7661 -0.2337
   79MOL0     C10344   4.087   8.724   5.269 -1.2183  0.1552  0.4430
   79MOL0     C10345   4.216   8.662   5.247  0.2809 -0.1407 -0.9753
   79MOL0     N10346   4.970   8.862   4.742  0.0879 -0.8679 -0.4625
   79MOL0     N10347   5.095   8.900   4.732 -0.7600 -0.1998  0.6695
   79MOL0     C10348   6.319   9.127   4.967  0.2523  0.6534  0.7417
   79MOL0     C10349   6.435   9.168   4.901  1.1732 -0.7220 -0.8614
   79MOL0     C10350   6.768   9.316   4.681  0.1825  0.4738 -0.7439
   79MOL0     C10351   6.891   9.246   4.667  0.6302  0.3028  1.2815
   79MOL0     C10352   7.019   9.302   4.666 -0.3052 -0.3601 -0.7330
   79MOL0     C10353   7.032   9.439   4.680 -0.4524 -0.8802  0.3216
   79MOL0     O10354   7.161   9.491   4.666  0.4955  0.4704 -0.5317
   79MOL0     C10355   7.176   9.631   4.663 -0.6082 -0.0646  0.1940
   79MOL0     C10356   7.294   9.676   4.576 -0.5894 -0.8501  0.3722
   79MOL0     C10357   7.422   9.662   4.656 -0.0923  0.4014  0.1342
   79MOL0     C10358   7.553   9.677   4.575  0.4942  0.2440  0.7327
   79MOL0     C10359   7.569   9.804   4.500 -0.0972 -0.0927 -0.2998
   79MOL0     C10360   7.554   9.911   4.449 -0.0600 -0.3379  1.0040
   79MOL0     C10361   6.914   9.518   4.686 -0.4524 -0.0441  0.0453
   79MOL0     C10362   6.790   9.453   4.690 -0.8766  0.3039  0.5911
   79MOL0     H10363   6.300   9.413   4.711 -2.9134  0.5497  0.7390
   79MOL0     H10364   6.093   9.327   4.810  0.1428 -0.1429 -2.1820
   79MOL0     H10365   5.966   9.276   4.965 -1.4294  2.1113  1.3035
   79MOL0     H10366   6.050   9.273   5.116  0.8806 -0.0636 -0.1003
   79MOL0     H10367   5.821   9.232   5.166 -0.3947 -0.1258 -1.2424
   79MOL0     H10368   5.913   9.083   5.201  0.4928  2.8520  2.0232
   79MOL0     H10369   5.804   8.980   5.002  0.1212 -0.9149  2.3186
   79MOL0     H10370   5.758   9.124   4.929 -0.3292 -0.5367 -0.6069
   79MOL0     H10371   5.635   9.009   5.174 -2.2978 -1.8059 -0.8511
   79MOL0     H10372   5.617   9.181   5.147  0.5705  0.4287 -0.7896
   79MOL0     H10373   5.506   9.099   4.915 -0.1963 -0.6823 -0.1037
   79MOL0     H10374   5.417   9.098   5.063 -0.4620 -0.8411 -0.0948
   79MOL0     H10375   5.520   8.847   5.078 -1.6951 -1.6478  1.2473
   79MOL0     H10376   5.536   8.878   4.902 -1.7182 -0.7331  0.4461
   79MOL0     H10377   5.323   8.767   4.934 -0.6699  0.6335 -3.3531
   79MOL0     H10378   5.268   8.885   5.060  0.1180 -1.4801  0.1033
   79MOL0     H10379   5.329   8.989   4.788 -2.7288  0.7330 -0.7777
   79MOL0     H10380   5.266   9.075   4.921  0.3881 -0.3254 -0.5596
   79MOL0     H10381   5.036   8.936   5.055 -0.7428  1.1837  0.7029
   79MOL0     H10382   4.739   8.777   4.853  2.0127 -1.3808 -0.5639
   79MOL0     H10383   4.718   8.937   4.938 -0.2139 -1.0040 -0.9629
   79MOL0     H10384   4.834   8.838   5.146 -0.4854 -0.6573  1.6452
   79MOL0     H10385   4.883   8.702   5.043 -0.3771 -0.6926 -0.9198
   79MOL0     H10386   4.672   8.620   5.013 -0.0592  2.1470 -1.2190
   79MOL0     H10387   4.717   8.620   5.185 -0.9606  1.7967  0.5331
   79MOL0     H10388   4.531   8.822   5.047 -1.6390  0.3615  0.9916
   79MOL0     H10389   4.587   8.841   5.209  4.8423 -1.5279  1.0439
   79MOL0     H10390   4.396   8.933   5.152  2.0507 -2.8534  0.7746
   79MOL0     H10391   4.197   9.038   5.160  0.0696 -0.2535  0.5028
   79MOL0     H10392   3.752   9.105   5.397 -1.2559  1.7743 -0.2777
   79MOL0     H10393   3.530   9.197   5.350  1.0303  0.3147  1.5390
   79MOL0     H10394   3.371   9.082   4.997 -2.0304  0.2904 -1.6334
   79MOL0     H10395   3.237   9.189   5.021  1.6573  1.7593 -1.2264
   79MOL0     H10396   3.248   9.160   5.266 -0.9554  2.3379 -2.5827
   79MOL0     H10397   3.359   9.022   5.247  1.3047 -0.4773 -1.1191
   79MOL0     H10398   3.148   8.954   5.285 -0.2368 -0.2530 -1.3718
   79MOL0     H10399   3.188   8.907   5.130  1.5316 -0.3560  1.2817
   79MOL0     H10400   3.045   9.179   5.188 -0.1768  0.1506  0.4293
   79MOL0     H10401   3.043   9.084   5.036  1.2305 -1.5315 -0.1902
   79MOL0     H10402   2.808   9.055   5.174 -1.7347 -3.1072 -0.8605
   79MOL0     H10403   2.907   8.989   5.303  0.0002  2.3614  0.1383
   79MOL0     H10404   2.958   8.800   5.160  2.5253  3.2626  1.2867
   79MOL0     H10405   2.876   8.874   5.016 -2.1620  0.0735 -0.6336
   79MOL0     H10406   2.674   8.829   5.226  0.8885 -0.3618  1.8845
   79MOL0     H10407   2.671   8.857   5.056 -0.8756  0.2288  1.7755
   79MOL0     H10408   2.629   8.620   5.132 -0.0469  0.9863  1.8502
   79MOL0     H10409   2.789   8.600   5.188 -2.5670 -0.8165  1.5618
   79MOL0     H10410   3.601   9.192   4.924 -2.5211  3.2317  1.3556
   79MOL0     H10411   3.835   9.120   4.958  0.1316 -0.8408  0.5357
   79MOL0     H10412   3.996   8.674   5.299 -2.7051  0.7819 -2.6836
   79MOL0     H10413   4.226   8.558   5.274  0.7080  0.3966  1.0779
   79MOL0     H10414   6.314   9.044   5.037 -0.2247 -0.7433 -0.8838
   79MOL0     H10415   6.527   9.112   4.913  0.7486 -1.1186  0.7974
   79MOL0     H10416   6.884   9.137   4.665  0.7922  0.2843 -0.7959
   79MOL0     H10417   7.104   9.236   4.662  1.0860  1.1885  1.3148
   79MOL0     H10418   7.189   9.684   4.758 -0.7131  1.4636 -0.6099
   79MOL0     H10419   7.098   9.678   4.603  0.6284 -0.9166 -2.2035
   79MOL0     H10420   7.291   9.609   4.490  1.5179 -0.5160 -0.0249
   79MOL0     H10421   7.282   9.781   4.547  1.3948 -1.2745 -2.3319
   79MOL0     H10422   7.431   9.561   4.697  1.8819  0.8812  0.9782
   79MOL0     H10423   7.426   9.727   4.743  0.4154 -2.2137  2.2208
   79MOL0     H10424   7.634   9.666   4.648  1.4385  2.3726  0.0756
   79MOL0     H10425   7.561   9.602   4.496 -2.6944 -0.4237  0.9056
   79MOL0     H10426   7.557  10.010   4.409 -0.4756 -0.2533  1.1834
   79MOL0     H10427   6.910   9.627   4.686 -0.4138 -0.0422  0.3415
   79MOL0     H10428   6.705   9.518   4.712  0.9553  2.4337  1.9185
   80MOL0     O10429   9.817   0.068   0.687 -0.2965  0.1612  0.0783
   80MOL0     C10430   9.887   0.092   0.585  0.8707  0.3331 -1.0817
   80MOL0     O10431   9.880   0.209   0.519 -0.2426  0.0938  0.3203
   80MOL0     C10432   9.786   0.302   0.561 -0.3734 -0.1393  0.0410
   80MOL0     C10433   9.829   0.421   0.629  0.1133 -0.3302  0.4773
   80MOL0     C10434   9.720   0.508   0.665 -1.9420  0.0182 -0.2292
   80MOL0     C10435   9.585   0.487   0.632 -1.3952  0.0211 -0.1256
   80MOL0     O10436   9.489   0.574   0.682  0.3402 -0.1671 -0.1104
   80MOL0     C10437   9.351   0.530   0.706 -0.2964  0.2854 -0.0822
   80MOL0     C10438   9.279   0.650   0.769  0.8654  0.8001 -0.3173
   80MOL0     C10439   9.134   0.609   0.791 -0.3254  0.5736  1.0414
   80MOL0     C10440   9.057   0.690   0.887  0.0453 -0.2832 -0.2539
   80MOL0     C10441   8.911   0.639   0.879  0.3704 -0.3465  0.0500
   80MOL0     C10442   8.839   0.669   0.741 -0.6458 -0.5966  0.0762
   80MOL0     C10443   8.683   0.689   0.763  0.3952  1.1532 -0.6085
   80MOL0     C10444   8.622   0.564   0.835  0.6165 -0.1650  0.0971
   80MOL0     N10445   8.477   0.577   0.815 -0.0793 -0.1079  0.3769
   80MOL0     C10446   8.387   0.623   0.910  0.1017 -0.1423 -0.7313
   80MOL0     C10447   8.263   0.616   0.852 -0.0655  0.3621  0.3649
   80MOL0     C10448   8.139   0.660   0.914  0.4874 -0.0250  0.6992
   80MOL0     C10449   8.074   0.555   1.006 -0.1062 -0.2010 -0.5805
   80MOL0     C10450   8.098   0.403   0.964 -0.0510  0.1842 -0.3576
   80MOL0     C10451   8.074   0.323   1.098 -0.0237  0.5430 -0.1644
   80MOL0     O10452   8.172   0.212   1.093 -0.2843  0.1682  0.2712
   80MOL0     C10453   8.303   0.225   1.111 -0.2377 -0.2024  0.0115
   80MOL0     C10454   8.367   0.108   1.093 -0.2840 -0.2549  0.0796
   80MOL0     C10455   8.508   0.102   1.108 -0.2129 -0.5535 -0.7354
   80MOL0     C10456   8.586   0.221   1.147  0.2664  0.3763  0.2571
   80MOL0     C10457   8.737   0.210   1.157  0.4239 -0.1485 -0.6642
   80MOL0     O10458   8.807   0.319   1.142 -0.3158  0.0580  0.3626
   80MOL0     C10459   8.941   0.305   1.094  0.3909  0.4071 -0.1046
   80MOL0     C10460   9.038   0.378   1.163 -0.7841  0.5261  1.1061
   80MOL0     C10461   9.178   0.365   1.131 -0.5685 -1.0640 -1.2013
   80MOL0     C10462   9.220   0.298   1.016  0.1647  0.6770  0.3007
   80MOL0     O10463   9.356   0.289   0.977 -0.0074  0.7877 -1.2193
   80MOL0     C10464   9.440   0.389   1.047 -0.1138  0.4136 -0.7014
   80MOL0     C10465   9.578   0.383   0.995 -0.4318 -0.3026  0.1735
   80MOL0     C10466   9.652   0.260   1.040 -0.0381 -0.9412  0.5193
   80MOL0     C10467   9.792   0.256   0.982  0.1223 -0.8132 -0.1985
   80MOL0     C10468   9.876   0.124   1.005 -0.5924  0.3448  0.9113
   80MOL0     C10469  10.026   0.141   0.991 -0.9495  0.2345  0.5366
   80MOL0     C10470  10.119   0.023   1.022 -0.6105  0.7077  0.0869
   80MOL0     C10471  10.266   0.058   1.052  0.3483  0.7149 -0.4027
   80MOL0    Cl10472  10.285   0.161   1.199  0.0435 -0.2865  0.5908
   80MOL0     C10473   9.117   0.237   0.942 -0.5756 -0.3425 -0.4379
   80MOL0     C10474   8.984   0.227   0.985 -0.3198 -0.2852 -0.6462
   80MOL0     O10475   8.780   0.097   1.166  0.3496  0.0632 -0.6130
   80MOL0     C10476   8.519   0.347   1.154 -0.0501  0.0905  0.6244
   80MOL0     C10477   8.376   0.344   1.138 -0.4896 -0.3801  0.1523
   80MOL0     N10478   8.269   0.571   0.722  0.3606 -0.2022 -0.0368
   80MOL0     N10479   8.405   0.555   0.699 -0.4914 -0.2961  0.7265
   80MOL0     C10480   9.556   0.368   0.569 -0.1304  0.3260  0.2098
   80MOL0     C10481   9.652   0.271   0.544  0.0293  0.6725 -0.0460
   80MOL0     C10482  10.002   0.004   0.554  1.2954 -0.2144 -0.2565
   80MOL0     C10483  10.108   0.041   0.485 -0.3213 -0.1706  0.1015
   80MOL0     C10484  10.212  -0.047   0.442 -0.6065 -0.1843  0.4183
   80MOL0     C10485  10.198  -0.177   0.467 -0.0749  0.9676  0.0112
   80MOL0     O10486  10.292  -0.266   0.427  0.6515  0.3482 -0.0986
   80MOL0     C10487  10.258  -0.345   0.314  0.4845 -0.3794  0.6277
   80MOL0     C10488  10.186  -0.476   0.343  0.1791 -0.1644 -0.3104
   80MOL0     C10489  10.271  -0.566   0.437 -0.0922 -0.3304 -0.2440
   80MOL0     C10490  10.185  -0.690   0.480 -0.2454  0.7844 -0.1195
   80MOL0     C10491  10.182  -0.794   0.372 -0.3825 -0.3900 -0.0171
   80MOL0     C10492  10.150  -0.870   0.275 -0.1937 -0.4852  0.1315
   80MOL0     C10493  10.097  -0.222   0.555  0.3913  0.8104 -0.0679
   80MOL0     C10494   9.989  -0.132   0.581  0.0218  0.1062  0.0483
   80MOL0     H10495   9.933   0.441   0.653  0.3101 -0.1780 -0.4780
   80MOL0     H10496   9.745   0.596   0.723  0.7007 -0.3886 -0.6405
   80MOL0     H10497   9.353   0.438   0.765  0.4860  1.0644  1.1429
   80MOL0     H10498   9.297   0.499   0.616  1.4132  1.1711 -1.4750
   80MOL0     H10499   9.289   0.736   0.701 -1.3515 -0.2855 -2.1640
   80MOL0     H10500   9.324   0.675   0.865 -2.2733 -0.8009  1.7197
   80MOL0     H10501   9.136   0.505   0.825  0.6964  0.4548  0.6632
   80MOL0     H10502   9.081   0.618   0.695  0.2326  3.7115  0.9095
   80MOL0     H10503   9.097   0.678   0.988 -2.3951  1.6303  1.0540
   80MOL0     H10504   9.073   0.794   0.857  1.3493 -0.3693  0.0956
   80MOL0     H10505   8.861   0.688   0.962  0.5765 -0.3382  0.1704
   80MOL0     H10506   8.910   0.531   0.900 -0.4375 -0.3270  0.1203
   80MOL0     H10507   8.870   0.590   0.672 -2.4939 -1.0773 -0.2474
   80MOL0     H10508   8.879   0.762   0.700 -0.3370 -1.8102 -2.5821
   80MOL0     H10509   8.655   0.775   0.824  2.3191  0.4375  1.4149
   80MOL0     H10510   8.641   0.694   0.662  0.1543 -3.1310 -0.9374
   80MOL0     H10511   8.647   0.554   0.942 -1.5094 -0.3219  0.6110
   80MOL0     H10512   8.646   0.474   0.778 -0.8970 -0.6835  0.2324
   80MOL0     H10513   8.424   0.648   1.009  0.8421  0.8873 -1.2382
   80MOL0     H10514   8.074   0.694   0.833  0.1210  1.6105  1.6253
   80MOL0     H10515   8.163   0.746   0.977 -1.5273  1.0174  0.1220
   80MOL0     H10516   7.965   0.567   1.005 -0.3970 -2.3824 -1.1562
   80MOL0     H10517   8.104   0.580   1.108 -1.4691 -0.5046 -0.0815
   80MOL0     H10518   8.053   0.373   0.868 -3.1116  1.6772  0.4703
   80MOL0     H10519   8.205   0.394   0.947  0.3762 -0.6459  2.3801
   80MOL0     H10520   7.969   0.294   1.110 -0.7299  1.4855 -3.1221
   80MOL0     H10521   8.092   0.384   1.186 -0.2306  0.8760 -0.3482
   80MOL0     H10522   8.322   0.014   1.066 -0.0224 -0.5402  0.6243
   80MOL0     H10523   8.556   0.006   1.096 -1.4837 -1.7072  2.4535
   80MOL0     H10524   8.999   0.451   1.234 -0.0667  2.5361 -0.4685
   80MOL0     H10525   9.243   0.417   1.200 -2.0500  1.6360 -1.6899
   80MOL0     H10526   9.450   0.355   1.151 -0.6738 -2.5058 -1.4983
   80MOL0     H10527   9.394   0.488   1.042  1.4515  1.1226 -1.8832
   80MOL0     H10528   9.635   0.474   1.020  0.4792 -0.4641 -1.2460
   80MOL0     H10529   9.580   0.373   0.886 -0.1493 -3.5667  0.4032
   80MOL0     H10530   9.597   0.172   1.007 -0.3038 -1.3292  1.9192
   80MOL0     H10531   9.660   0.269   1.149  1.9436  1.9647  0.2618
   80MOL0     H10532   9.797   0.266   0.873  2.7791 -2.8236 -0.3738
   80MOL0     H10533   9.845   0.340   1.027  1.2630 -2.2297  1.2068
   80MOL0     H10534   9.848   0.044   0.936  3.6550  0.5367 -1.3413
   80MOL0     H10535   9.855   0.101   1.110  0.6902  0.1019  1.1232
   80MOL0     H10536  10.054   0.231   1.047 -0.0527 -1.1763  2.4797
   80MOL0     H10537  10.036   0.164   0.885 -2.5911  0.2980  0.3638
   80MOL0     H10538  10.087  -0.025   1.115  1.7094 -1.5469 -0.1673
   80MOL0     H10539  10.117  -0.044   0.935 -2.1329 -0.3785  0.9085
   80MOL0     H10540  10.313   0.102   0.964  0.8283 -0.0407 -0.5368
   80MOL0     H10541  10.323  -0.033   1.073 -1.4331 -0.1517  0.9198
   80MOL0     H10542   9.153   0.181   0.856  1.6514 -0.7402  0.6845
   80MOL0     H10543   8.918   0.160   0.929  1.0075 -0.1443 -2.4756
   80MOL0     H10544   8.575   0.440   1.158 -0.3341  0.7132 -4.1189
   80MOL0     H10545   8.321   0.436   1.155  0.7184 -0.1889  4.1328
   80MOL0     H10546   9.453   0.337   0.557 -0.8467 -0.0117  5.0572
   80MOL0     H10547   9.619   0.174   0.508 -3.1999  2.3492 -2.2054
   80MOL0     H10548  10.121   0.143   0.449  3.4350 -0.1406  1.1001
   80MOL0     H10549  10.296  -0.013   0.383 -0.9619 -1.1489 -0.6816
   80MOL0     H10550  10.348  -0.381   0.262 -1.1714 -0.3377 -2.5495
   80MOL0     H10551  10.199  -0.288   0.241 -0.2403 -2.7103 -0.7214
   80MOL0     H10552  10.087  -0.457   0.387 -0.5815 -0.0576 -2.0119
   80MOL0     H10553  10.157  -0.535   0.256 -0.5999  0.8020 -0.7306
   80MOL0     H10554  10.308  -0.506   0.521 -1.1740  0.4685 -0.3113
   80MOL0     H10555  10.366  -0.588   0.388  1.0427  4.7717 -0.8762
   80MOL0     H10556  10.243  -0.737   0.561 -0.1896  0.2902 -0.4442
   80MOL0     H10557  10.082  -0.669   0.511 -0.4702  2.6556 -1.9182
   80MOL0     H10558  10.126  -0.930   0.189 -3.7782 -0.1867  0.7532
   80MOL0     H10559  10.091  -0.323   0.593  2.0880 -0.9242 -3.8666
   80MOL0     H10560   9.901  -0.168   0.633 -1.5755  2.3120 -0.9625
   81MOL0     O10561   1.336   5.546   1.802  0.1273  0.0134 -0.1218
   81MOL0     C10562   1.398   5.512   1.909  0.3737 -0.0532  0.7061
   81MOL0     O10563   1.339   5.471   2.019 -0.2268  0.7526  0.0906
   81MOL0     C10564   1.204   5.481   2.036 -0.7231  0.5520 -0.3293
   81MOL0     C10565   1.142   5.368   2.086 -0.1991  0.2879  0.0972
   81MOL0     C10566   1.006   5.377   2.122 -0.9657 -0.4790  0.1441
   81MOL0     C10567   0.929   5.487   2.090  1.0054 -0.3317  0.7808
   81MOL0     O10568   0.791   5.473   2.123  0.2135 -0.3287 -0.0419
   81MOL0     C10569   0.727   5.595   2.166  0.3557 -0.5552  0.1168
   81MOL0     C10570   0.596   5.539   2.222  0.0402 -0.2180  0.0012
   81MOL0     C10571   0.620   5.458   2.348  0.6119 -0.6554 -0.6569
   81MOL0     C10572   0.481   5.407   2.410 -0.9449  0.0685  0.0627
   81MOL0     C10573   0.519   5.347   2.544 -0.7658 -0.2231  0.1793
   81MOL0     C10574   0.396   5.279   2.600  0.0330 -0.3798  0.0722
   81MOL0     C10575   0.415   5.236   2.737  0.0152  0.8858 -0.4475
   81MOL0     C10576   0.317   5.124   2.789 -0.2016  0.2393  0.1783
   81MOL0     N10577   0.182   5.176   2.813 -0.1829 -0.4075  0.3584
   81MOL0     C10578   0.143   5.294   2.866  0.3727 -0.7164  0.8093
   81MOL0     C10579   0.004   5.284   2.882 -0.5807 -1.1871  0.3329
   81MOL0     C10580  -0.074   5.397   2.952  0.5959  0.2654 -0.1402
   81MOL0     C10581  -0.190   5.442   2.855 -0.3958 -0.0408 -0.5019
   81MOL0     C10582  -0.315   5.360   2.891 -0.6890 -0.8460 -0.1383
   81MOL0     C10583  -0.440   5.410   2.815  0.0691  0.8871  0.2154
   81MOL0     O10584  -0.435   5.403   2.667 -0.2733 -0.5200  0.2165
   81MOL0     C10585  -0.552   5.430   2.606  0.4858  0.8516 -0.1379
   81MOL0     C10586  -0.665   5.481   2.663  0.8985  0.4872 -0.5457
   81MOL0     C10587  -0.777   5.507   2.589  0.0862 -0.6176  0.7136
   81MOL0     C10588  -0.776   5.492   2.450 -0.1292 -0.1116  0.3330
   81MOL0     C10589  -0.892   5.541   2.371 -0.3009 -0.4969  0.7877
   81MOL0     O10590  -1.002   5.572   2.445 -0.2277  0.3147  0.9351
   81MOL0     C10591  -1.120   5.620   2.396  0.4943 -0.2220 -0.0784
   81MOL0     C10592  -1.219   5.612   2.491  0.4503 -0.2110  0.5490
   81MOL0     C10593  -1.351   5.646   2.459 -0.2092  0.2922  0.2121
   81MOL0     C10594  -1.378   5.694   2.328  0.0699  0.2509 -0.8849
   81MOL0     O10595  -1.505   5.722   2.293  0.0515 -0.3564  0.0112
   81MOL0     C10596  -1.610   5.630   2.327 -0.3056 -0.2527  0.8914
   81MOL0     C10597  -1.728   5.696   2.392  0.4784  0.1413 -0.0072
   81MOL0     C10598  -1.847   5.602   2.398 -0.0338 -0.3897  0.7655
   81MOL0     C10599  -1.955   5.652   2.510 -1.1784 -0.4419 -0.2471
   81MOL0     C10600  -2.093   5.605   2.484 -0.1781 -0.2708 -0.6473
   81MOL0     C10601  -2.178   5.644   2.609  0.2528 -0.6818 -0.8992
   81MOL0     C10602  -2.321   5.641   2.559  0.1354 -0.2307 -1.0723
   81MOL0     C10603  -2.415   5.708   2.659  0.3568  0.5727 -0.0529
   81MOL0    Cl10604  -2.414   5.626   2.822  0.5849 -0.0726 -0.1117
   81MOL0     C10605  -1.275   5.698   2.237  0.1201 -0.0085  0.6537
   81MOL0     C10606  -1.144   5.661   2.264 -0.5198 -0.2295 -0.0878
   81MOL0     O10607  -0.892   5.517   2.253 -0.2530 -0.1711 -0.3898
   81MOL0     C10608  -0.659   5.452   2.392  0.0991 -0.1317  1.0962
   81MOL0     C10609  -0.543   5.416   2.467 -0.6344 -0.2184  0.2525
   81MOL0     N10610  -0.038   5.167   2.831  0.1744  1.1277 -0.4393
   81MOL0     N10611   0.070   5.100   2.792  0.3522 -0.3655 -0.0152
   81MOL0     C10612   0.986   5.599   2.032  0.3309  0.0502  0.3132
   81MOL0     C10613   1.127   5.600   2.017  0.6430  0.1210 -0.0662
   81MOL0     C10614   1.539   5.542   1.902  0.2105 -0.6354  0.1444
   81MOL0     C10615   1.596   5.594   1.788 -0.0822 -0.2513  0.3420
   81MOL0     C10616   1.734   5.624   1.783  0.5946  0.4530 -0.6087
   81MOL0     C10617   1.815   5.585   1.893  0.6997 -0.9848 -0.2266
   81MOL0     O10618   1.953   5.578   1.904  0.6135  0.1707  0.4593
   81MOL0     C10619   2.029   5.626   1.792  0.7464  0.5468  0.1095
   81MOL0     C10620   2.175   5.576   1.813  0.3264 -0.6072  0.6300
   81MOL0     C10621   2.242   5.642   1.933  0.5515  0.5559  0.9242
   81MOL0     C10622   2.393   5.617   1.934 -0.2924 -0.3853 -0.2785
   81MOL0     C10623   2.416   5.477   1.966 -0.2972 -0.3354 -0.4394
   81MOL0     C10624   2.457   5.368   1.992 -0.0704 -0.3316 -0.2805
   81MOL0     C10625   1.750   5.538   2.009  0.5327  0.5042  0.1774
   81MOL0     C10626   1.622   5.503   2.007 -0.0644  0.5270  0.2884
   81MOL0     H10627   1.196   5.275   2.096  1.8589  1.2901 -1.2058
   81MOL0     H10628   0.958   5.306   2.188 -1.0270  0.2049  0.8544
   81MOL0     H10629   0.698   5.664   2.087  2.3774  0.0283 -0.1753
   81MOL0     H10630   0.770   5.661   2.242 -0.7219  0.6597 -0.2961
   81MOL0     H10631   0.535   5.488   2.147  0.0671 -0.1013 -0.1009
   81MOL0     H10632   0.537   5.630   2.235  0.3814  0.5934 -3.3593
   81MOL0     H10633   0.674   5.525   2.415 -0.9011 -0.8417  0.8254
   81MOL0     H10634   0.682   5.370   2.328 -0.4449 -1.2949 -1.2189
   81MOL0     H10635   0.410   5.490   2.418  0.0441  1.1189 -1.5447
   81MOL0     H10636   0.432   5.330   2.351  0.6326 -1.2597  0.4005
   81MOL0     H10637   0.546   5.436   2.602 -0.8979 -0.1865  0.1845
   81MOL0     H10638   0.606   5.281   2.535  0.7209  1.9066 -2.4754
   81MOL0     H10639   0.364   5.199   2.533  1.0731  0.1539 -1.0948
   81MOL0     H10640   0.311   5.347   2.602  2.2280  2.5419  1.3477
   81MOL0     H10641   0.512   5.185   2.735 -2.1610 -3.7999  1.2467
   81MOL0     H10642   0.396   5.318   2.807 -4.1373 -0.4051  0.2088
   81MOL0     H10643   0.350   5.069   2.878  0.3510 -1.5177 -1.0548
   81MOL0     H10644   0.319   5.058   2.702  0.7678  1.3908 -0.7119
   81MOL0     H10645   0.208   5.379   2.885 -0.5869  0.3669 -0.5777
   81MOL0     H10646  -0.003   5.475   2.981 -1.1492  2.0678 -0.4467
   81MOL0     H10647  -0.117   5.352   3.042 -0.0117 -1.0715 -1.0737
   81MOL0     H10648  -0.162   5.422   2.751  0.1373  0.3697 -0.4391
   81MOL0     H10649  -0.207   5.550   2.852  2.5289  0.4784 -1.3579
   81MOL0     H10650  -0.304   5.260   2.850  2.0978 -0.5023 -0.4034
   81MOL0     H10651  -0.339   5.359   2.998 -0.2003 -0.5647 -0.0212
   81MOL0     H10652  -0.442   5.519   2.827  2.5723  1.4173 -2.9416
   81MOL0     H10653  -0.527   5.354   2.852  0.6001 -0.8034 -0.9604
   81MOL0     H10654  -0.652   5.505   2.768  1.0175 -1.0691 -0.1815
   81MOL0     H10655  -0.861   5.545   2.645 -1.5756 -0.6568 -1.5898
   81MOL0     H10656  -1.194   5.583   2.593  0.2527 -1.0377  0.3689
   81MOL0     H10657  -1.425   5.647   2.539  1.3751 -3.2378  1.9859
   81MOL0     H10658  -1.564   5.546   2.380  0.5192  0.6098  1.5626
   81MOL0     H10659  -1.644   5.584   2.233 -0.3663  2.0645 -0.2822
   81MOL0     H10660  -1.747   5.789   2.338  1.0606  1.1898  1.4969
   81MOL0     H10661  -1.700   5.730   2.493 -0.5558 -2.1831  1.1481
   81MOL0     H10662  -1.820   5.499   2.422 -0.9443 -0.8103  0.0388
   81MOL0     H10663  -1.897   5.590   2.301 -0.4088 -0.8291  1.0109
   81MOL0     H10664  -1.911   5.621   2.606  2.1752 -1.1486 -1.8594
   81MOL0     H10665  -1.952   5.761   2.505 -0.6733 -0.4574 -0.3334
   81MOL0     H10666  -2.101   5.500   2.455 -0.5557 -0.8260  1.3099
   81MOL0     H10667  -2.129   5.657   2.394 -2.7130  0.7674  0.8598
   81MOL0     H10668  -2.163   5.743   2.652 -2.2554 -0.6166  0.0089
   81MOL0     H10669  -2.165   5.575   2.693 -5.7062 -2.2358 -0.7391
   81MOL0     H10670  -2.329   5.687   2.461  0.3323 -0.7601 -1.3448
   81MOL0     H10671  -2.346   5.536   2.540  4.6449 -1.4505 -1.4870
   81MOL0     H10672  -2.518   5.712   2.620  1.1713 -0.5252 -2.5067
   81MOL0     H10673  -2.393   5.813   2.683 -0.6260  0.1231  3.3374
   81MOL0     H10674  -1.299   5.719   2.133  1.8788  2.2115  0.6270
   81MOL0     H10675  -1.064   5.675   2.191  2.2096 -3.6693  1.9124
   81MOL0     H10676  -0.657   5.431   2.286 -1.6677  0.4857  0.9048
   81MOL0     H10677  -0.457   5.363   2.427  1.2313  1.0939  2.3370
   81MOL0     H10678   0.930   5.685   1.997 -2.2184 -2.1687 -1.4566
   81MOL0     H10679   1.186   5.681   1.974 -0.0118 -0.2558 -1.7057
   81MOL0     H10680   1.531   5.625   1.706  0.2857 -0.0600  0.1169
   81MOL0     H10681   1.783   5.670   1.697 -0.4801  1.9408 -0.4669
   81MOL0     H10682   2.024   5.735   1.800 -1.3938  0.5436 -0.6635
   81MOL0     H10683   1.998   5.598   1.690  2.5932 -2.3294  0.2124
   81MOL0     H10684   2.183   5.469   1.832  2.6078  0.0122  4.1283
   81MOL0     H10685   2.235   5.606   1.726 -0.8194  2.5762  0.7875
   81MOL0     H10686   2.189   5.612   2.025 -2.5798  1.4087 -0.4753
   81MOL0     H10687   2.226   5.750   1.932  0.7258  0.6522  3.0154
   81MOL0     H10688   2.456   5.653   1.853  5.2610  0.3567  3.7645
   81MOL0     H10689   2.429   5.679   2.017  0.4993  2.0809 -2.3625
   81MOL0     H10690   2.500   5.271   2.007 -0.2177 -0.5839 -1.3731
   81MOL0     H10691   1.815   5.506   2.090  0.0961  0.2289  0.4243
   81MOL0     H10692   1.587   5.455   2.099 -1.7019  0.7068 -0.2083
   82MOL0     O10693   3.314   7.618   6.481 -0.1682  0.5686 -0.5811
   82MOL0     C10694   3.377   7.515   6.487 -0.0814 -0.2538 -0.7059
   82MOL0     O10695   3.321   7.393   6.471 -0.2544  0.1041 -0.0136
   82MOL0     C10696   3.188   7.370   6.437  0.8348 -0.8295  1.5488
   82MOL0     C10697   3.103   7.452   6.353  0.4065 -0.3724  0.4427
   82MOL0     C10698   2.964   7.406   6.336  0.1332  0.4568  0.9185
   82MOL0     C10699   2.925   7.276   6.379 -0.1885 -0.1599  0.6052
   82MOL0     O10700   2.803   7.225   6.340  0.6072 -0.0210  0.0749
   82MOL0     C10701   2.697   7.320   6.306 -0.6527  0.7011  0.2984
   82MOL0     C10702   2.558   7.251   6.306  0.1242  1.2769  0.1223
   82MOL0     C10703   2.518   7.207   6.451 -1.1098  0.0084 -0.4208
   82MOL0     C10704   2.391   7.141   6.455  0.0589 -0.5730 -0.5239
   82MOL0     C10705   2.387   7.006   6.385  0.5658  0.5981  0.1576
   82MOL0     C10706   2.237   6.957   6.371 -0.2822 -0.1426 -0.3966
   82MOL0     C10707   2.237   6.807   6.330 -0.2161  0.9532 -1.4510
   82MOL0     C10708   2.118   6.726   6.382  0.0202 -0.0185  0.3469
   82MOL0     N10709   1.995   6.801   6.363 -0.1496  0.5660  0.2966
   82MOL0     C10710   1.938   6.823   6.243  0.1514 -0.7248  0.1126
   82MOL0     C10711   1.813   6.845   6.267 -0.2006 -0.2305  0.1182
   82MOL0     C10712   1.710   6.888   6.160  0.0416  0.3724 -0.4422
   82MOL0     C10713   1.662   6.765   6.080 -0.4096 -0.0820  0.1365
   82MOL0     C10714   1.535   6.773   6.004  0.0438 -0.0185  0.6454
   82MOL0     C10715   1.570   6.838   5.865  0.0196 -0.1143 -0.5687
   82MOL0     O10716   1.487   6.783   5.762  0.6544 -0.2618  0.1754
   82MOL0     C10717   1.361   6.825   5.734 -0.0371 -0.0826 -0.4812
   82MOL0     C10718   1.316   6.952   5.767 -0.1982  0.6081  0.2105
   82MOL0     C10719   1.191   7.001   5.722  1.0888 -1.3259 -0.7198
   82MOL0     C10720   1.097   6.911   5.671 -0.3838 -0.4566 -0.8033
   82MOL0     C10721   0.958   6.962   5.657 -0.6897 -0.3161 -1.1825
   82MOL0     O10722   0.884   6.888   5.570  0.1938  0.0577  0.7477
   82MOL0     C10723   0.750   6.904   5.539 -0.3346  0.4487  0.2068
   82MOL0     C10724   0.708   6.854   5.410  0.0374  0.3249 -0.2227
   82MOL0     C10725   0.566   6.855   5.384  0.1583 -0.2777  0.1911
   82MOL0     C10726   0.478   6.927   5.471  0.2898 -0.1115  0.8246
   82MOL0     O10727   0.346   6.926   5.423  0.4313  0.1550  0.8270
   82MOL0     C10728   0.254   7.018   5.487  0.6784  0.1206 -0.0628
   82MOL0     C10729   0.128   7.011   5.402 -0.7635 -0.0199 -0.2140
   82MOL0     C10730   0.001   7.079   5.480 -1.2246  0.4162  0.8163
   82MOL0     C10731  -0.114   7.103   5.383 -0.1501 -0.1156 -0.3794
   82MOL0     C10732  -0.236   7.147   5.459 -0.0811  0.9289  0.9186
   82MOL0     C10733  -0.325   7.220   5.366  0.4535  0.7501  0.0666
   82MOL0     C10734  -0.441   7.274   5.445  0.0276 -0.8674 -1.4947
   82MOL0     C10735  -0.541   7.324   5.353  0.3217 -0.1345 -0.1830
   82MOL0    Cl10736  -0.638   7.459   5.438  0.2668  0.3357 -0.2051
   82MOL0     C10737   0.518   6.980   5.595  0.0338  0.5499 -0.3718
   82MOL0     C10738   0.658   6.963   5.630  0.4667  0.4451  0.1762
   82MOL0     O10739   0.925   7.072   5.711 -0.6184 -0.2197 -0.0994
   82MOL0     C10740   1.138   6.778   5.636  0.1361 -0.3264 -0.3484
   82MOL0     C10741   1.268   6.742   5.669  0.6604  0.7348 -0.2023
   82MOL0     N10742   1.791   6.838   6.402 -0.0740 -0.2060  0.0279
   82MOL0     N10743   1.899   6.807   6.459  0.2351  0.4418  0.7129
   82MOL0     C10744   3.012   7.196   6.452  0.0778 -0.0686 -0.6147
   82MOL0     C10745   3.142   7.243   6.479 -0.1967 -0.7329 -0.9463
   82MOL0     C10746   3.521   7.521   6.496  0.2113  0.1204  0.1728
   82MOL0     C10747   3.581   7.650   6.515  0.0065  0.6257 -0.1992
   82MOL0     C10748   3.720   7.656   6.520 -0.7876 -0.2358 -0.1129
   82MOL0     C10749   3.803   7.540   6.502  0.3709 -0.3499 -0.2062
   82MOL0     O10750   3.944   7.557   6.511  0.4023  0.3819 -0.1125
   82MOL0     C10751   4.024   7.446   6.463  0.5743 -0.0314  0.8022
   82MOL0     C10752   4.162   7.508   6.471 -0.3403  0.4391  0.3480
   82MOL0     C10753   4.265   7.400   6.441  0.3649  0.0947  0.1859
   82MOL0     C10754   4.399   7.452   6.442 -0.1426 -0.2579 -0.2200
   82MOL0     C10755   4.502   7.352   6.392 -0.4789  0.3256 -0.1005
   82MOL0     C10756   4.598   7.282   6.347 -0.3468  0.6212 -0.7110
   82MOL0     C10757   3.745   7.416   6.483  0.1482 -0.7551 -0.5540
   82MOL0     C10758   3.603   7.402   6.487  0.4792  0.1918  0.2583
   82MOL0     H10759   3.128   7.554   6.328 -4.3190  0.8990 -0.0961
   82MOL0     H10760   2.896   7.472   6.284  0.5935 -0.2526 -0.6226
   82MOL0     H10761   2.711   7.368   6.209 -3.0543 -0.6351 -0.7921
   82MOL0     H10762   2.696   7.401   6.379  2.1746  1.0887  0.0510
   82MOL0     H10763   2.561   7.164   6.239 -1.1350  2.2219 -1.2117
   82MOL0     H10764   2.474   7.317   6.284 -0.7832  0.0701 -0.1432
   82MOL0     H10765   2.517   7.290   6.523 -1.4249  0.8083 -1.3201
   82MOL0     H10766   2.592   7.140   6.493 -1.2744  1.2372  1.9660
   82MOL0     H10767   2.348   7.141   6.555  1.3126  5.4042  0.3970
   82MOL0     H10768   2.313   7.204   6.412 -0.9708 -0.4202  1.4605
   82MOL0     H10769   2.433   6.939   6.458  3.4846  2.0279 -0.2521
   82MOL0     H10770   2.442   6.999   6.291 -0.6465 -0.8049 -0.4825
   82MOL0     H10771   2.197   7.024   6.294  2.2413  0.5743 -1.1947
   82MOL0     H10772   2.189   6.956   6.469  2.7105 -2.5509  1.2230
   82MOL0     H10773   2.226   6.797   6.221 -3.1612  0.3715 -1.1752
   82MOL0     H10774   2.324   6.755   6.370 -0.8957 -0.8825 -2.2379
   82MOL0     H10775   2.128   6.691   6.485  1.8917  1.9625  0.8971
   82MOL0     H10776   2.111   6.635   6.321 -1.5799  1.9182 -2.6119
   82MOL0     H10777   1.973   6.818   6.140  1.4564 -1.4250  0.5718
   82MOL0     H10778   1.745   6.968   6.093  0.4676 -1.2702 -2.2656
   82MOL0     H10779   1.628   6.942   6.208 -0.3625  0.8729 -1.6578
   82MOL0     H10780   1.653   6.683   6.152  0.1864 -0.6885 -0.4556
   82MOL0     H10781   1.745   6.731   6.017  1.0889  0.1194  1.9130
   82MOL0     H10782   1.481   6.679   5.989 -3.2923  1.9259 -0.5341
   82MOL0     H10783   1.468   6.834   6.064 -2.0321 -2.3912  0.8702
   82MOL0     H10784   1.675   6.824   5.836  0.8328  1.4808  1.3189
   82MOL0     H10785   1.559   6.947   5.867  1.1112  0.0369 -1.5818
   82MOL0     H10786   1.382   7.021   5.820  2.4337 -0.7348 -1.1037
   82MOL0     H10787   1.162   7.104   5.740  0.5794 -1.4779 -0.6755
   82MOL0     H10788   0.773   6.809   5.336  0.0277 -0.9557  0.5106
   82MOL0     H10789   0.527   6.809   5.294  0.6730 -1.3691  0.5171
   82MOL0     H10790   0.283   7.124   5.490  0.0503  0.3595 -1.5964
   82MOL0     H10791   0.228   6.984   5.588 -0.5523  1.4985  0.1125
   82MOL0     H10792   0.126   6.902   5.391  5.0169 -0.9930  3.6311
   82MOL0     H10793   0.145   7.054   5.303 -1.2177  3.2458  0.9852
   82MOL0     H10794   0.030   7.180   5.509  0.2873  0.6764 -1.3290
   82MOL0     H10795  -0.030   7.028   5.571  0.3155 -1.9784  0.1078
   82MOL0     H10796  -0.076   7.176   5.310 -1.0974  1.0104  0.2271
   82MOL0     H10797  -0.133   7.017   5.318 -1.2977  0.3396 -0.6787
   82MOL0     H10798  -0.215   7.223   5.535 -2.7867  2.6872  0.0691
   82MOL0     H10799  -0.287   7.062   5.505  1.0746  0.6240  1.6835
   82MOL0     H10800  -0.371   7.145   5.300  0.6420 -0.0038  0.7767
   82MOL0     H10801  -0.262   7.302   5.329 -0.4430  1.7392  0.7167
   82MOL0     H10802  -0.490   7.200   5.509 -0.7604 -1.1511 -2.3998
   82MOL0     H10803  -0.408   7.351   5.515  1.1389 -1.0037 -1.8374
   82MOL0     H10804  -0.604   7.241   5.321 -0.1985 -0.2029  0.9677
   82MOL0     H10805  -0.495   7.362   5.262 -3.5413  2.6024 -1.2501
   82MOL0     H10806   0.454   7.035   5.663  0.6940  2.1380 -0.9816
   82MOL0     H10807   0.683   6.992   5.732  1.3039 -1.0236  0.4036
   82MOL0     H10808   1.069   6.710   5.586  1.6147 -1.1323 -1.3689
   82MOL0     H10809   1.322   6.649   5.653  2.7343  1.5232  1.6618
   82MOL0     H10810   2.982   7.099   6.488 -1.2655  0.7272  0.5240
   82MOL0     H10811   3.213   7.181   6.533  1.3865  0.6914 -1.3059
   82MOL0     H10812   3.523   7.737   6.544  0.5927  0.5518  1.3059
   82MOL0     H10813   3.768   7.750   6.545 -2.9896  0.3171  2.5005
   82MOL0     H10814   3.994   7.420   6.361  5.1192 -1.0208 -0.4872
   82MOL0     H10815   4.015   7.359   6.528  2.7580 -0.8218  0.1145
   82MOL0     H10816   4.173   7.584   6.393 -0.9678  1.7553  1.4982
   82MOL0     H10817   4.189   7.547   6.570 -0.6991  1.6906 -0.0301
   82MOL0     H10818   4.237   7.355   6.345  1.2237 -1.3417  0.5819
   82MOL0     H10819   4.254   7.325   6.519  1.6385 -3.1234 -2.4774
   82MOL0     H10820   4.411   7.548   6.390  0.9296  1.2445  2.5477
   82MOL0     H10821   4.432   7.478   6.543 -0.4570  0.7864 -0.3676
   82MOL0     H10822   4.688   7.235   6.314  0.1367  1.9499 -1.3821
   82MOL0     H10823   3.806   7.326   6.485  1.0512 -0.1445  0.3997
   82MOL0     H10824   3.568   7.300   6.472  1.5795 -0.0298 -1.0570
   83MOL0     O10825  11.097   8.563   0.845  0.4339 -0.2822  0.3489
   83MOL0     C10826  11.150   8.655   0.902  0.1888  0.4378  0.7592
   83MOL0     O10827  11.078   8.731   0.989  0.0183 -0.1384 -0.5487
   83MOL0     C10828  10.942   8.738   0.974 -0.2625 -0.9307  0.5110
   83MOL0     C10829  10.880   8.759   1.097 -0.4499  0.7537  0.1447
   83MOL0     C10830  10.746   8.799   1.099 -0.0771 -0.0305 -0.9760
   83MOL0     C10831  10.676   8.806   0.973  0.0015  0.3407 -0.1321
   83MOL0     O10832  10.546   8.865   0.960 -0.0611 -0.0711 -0.7279
   83MOL0     C10833  10.491   8.898   1.088  0.7004  0.6672 -0.2558
   83MOL0     C10834  10.370   8.997   1.068 -0.3605 -0.0354  0.1146
   83MOL0     C10835  10.252   8.933   1.001 -0.0964 -0.1797  0.6453
   83MOL0     C10836  10.146   9.042   0.995  0.7422  0.9274  0.2482
   83MOL0     C10837  10.015   9.007   0.927  0.5500  0.0565 -0.5639
   83MOL0     C10838  10.016   8.939   0.790  0.8237  0.4986 -0.4688
   83MOL0     C10839   9.879   8.918   0.735  0.2866 -0.3127  0.0110
   83MOL0     C10840   9.873   8.830   0.601 -0.3042 -1.0754 -0.7437
   83MOL0     N10841   9.737   8.784   0.571  0.3862 -0.2309  0.1078
   83MOL0     C10842   9.642   8.853   0.497  0.0129 -0.0253 -0.8651
   83MOL0     C10843   9.538   8.772   0.482 -0.5083  0.5851 -0.4032
   83MOL0     C10844   9.405   8.798   0.434  0.0255 -0.3351 -0.1541
   83MOL0     C10845   9.369   8.938   0.460  0.7722 -0.4927  1.0453
   83MOL0     C10846   9.353   8.980   0.606 -0.7703  0.5584 -0.1672
   83MOL0     C10847   9.220   8.953   0.664  0.7835 -1.1865  0.5878
   83MOL0     O10848   9.111   9.031   0.589 -0.4924  0.2738  0.9153
   83MOL0     C10849   8.985   8.986   0.603  0.5391  0.0670 -0.8950
   83MOL0     C10850   8.881   9.060   0.544 -0.2002  0.0679 -0.2392
   83MOL0     C10851   8.750   9.023   0.534 -0.8959  0.4624  0.1967
   83MOL0     C10852   8.717   8.905   0.607  1.1237  0.2562  0.3090
   83MOL0     C10853   8.569   8.868   0.606  0.1707  0.7585 -0.6988
   83MOL0     O10854   8.539   8.755   0.667 -0.4477 -0.5988  0.1084
   83MOL0     C10855   8.403   8.732   0.697 -0.4360 -0.6125  0.9105
   83MOL0     C10856   8.314   8.709   0.585 -0.5413  0.1354 -0.5478
   83MOL0     C10857   8.179   8.666   0.611  0.8879  0.2080 -0.5665
   83MOL0     C10858   8.136   8.632   0.742  0.4883  0.4643 -0.9769
   83MOL0     O10859   8.006   8.570   0.751 -0.5722  0.0859  0.0549
   83MOL0     C10860   7.905   8.659   0.821 -0.4775 -0.5452  1.3458
   83MOL0     C10861   7.789   8.578   0.862  0.7285 -0.0367  0.6373
   83MOL0     C10862   7.818   8.506   1.000  0.0560 -0.5390  0.8514
   83MOL0     C10863   7.690   8.454   1.052  0.0593 -0.8620 -0.9088
   83MOL0     C10864   7.710   8.360   1.177  0.1401 -0.6795  0.8803
   83MOL0     C10865   7.578   8.338   1.247 -0.5356  0.2708 -0.3252
   83MOL0     C10866   7.598   8.216   1.344  0.5565 -0.0385 -0.3351
   83MOL0     C10867   7.501   8.223   1.460 -0.2167  0.2262  0.2256
   83MOL0    Cl10868   7.346   8.197   1.381  0.8733  0.2469  0.1837
   83MOL0     C10869   8.229   8.641   0.846  0.0329  1.0195  0.7925
   83MOL0     C10870   8.359   8.689   0.818  0.4787 -0.0154 -0.1362
   83MOL0     O10871   8.488   8.942   0.555  0.7217 -0.3791  0.1212
   83MOL0     C10872   8.809   8.827   0.676 -0.1979  0.3984 -1.4058
   83MOL0     C10873   8.946   8.868   0.678 -0.4788  0.2472  0.5173
   83MOL0     N10874   9.585   8.651   0.538 -0.7356 -0.2006  0.3351
   83MOL0     N10875   9.707   8.654   0.577  0.2387 -0.2215 -0.4180
   83MOL0     C10876  10.738   8.788   0.852 -0.3207  0.5052  0.4106
   83MOL0     C10877  10.869   8.750   0.856  0.0977 -0.1458  0.0078
   83MOL0     C10878  11.291   8.692   0.881  0.4560 -0.3375  0.4329
   83MOL0     C10879  11.375   8.591   0.838 -0.9447 -0.7108  0.1163
   83MOL0     C10880  11.505   8.617   0.805  0.4718 -1.5156  0.4355
   83MOL0     C10881  11.561   8.743   0.808  0.2231 -0.0542  0.0723
   83MOL0     O10882  11.692   8.772   0.776  0.1134 -0.6100  0.3033
   83MOL0     C10883  11.785   8.672   0.749  0.5360  0.1549 -0.4249
   83MOL0     C10884  11.912   8.739   0.677 -0.1942 -0.0594 -0.2591
   83MOL0     C10885  12.029   8.645   0.657 -0.4312 -0.6273  0.0622
   83MOL0     C10886  12.154   8.724   0.600 -0.1517  0.2677 -0.4384
   83MOL0     C10887  12.257   8.624   0.580 -0.1449  0.3781 -0.3410
   83MOL0     C10888  12.328   8.540   0.553 -0.1601  0.2747 -0.0994
   83MOL0     C10889  11.477   8.849   0.864 -0.1992 -0.4850  1.5126
   83MOL0     C10890  11.336   8.827   0.882  0.6940  0.1529  0.1530
   83MOL0     H10891  10.936   8.741   1.188 -1.4717 -3.4306  0.1440
   83MOL0     H10892  10.689   8.822   1.189 -1.8836 -0.8607 -1.8550
   83MOL0     H10893  10.559   8.954   1.153  1.5496  0.7317 -1.1752
   83MOL0     H10894  10.456   8.809   1.140  3.2055  0.2050  0.7953
   83MOL0     H10895  10.399   9.089   1.016  1.2543 -0.2432  0.5948
   83MOL0     H10896  10.333   9.030   1.165 -1.7788  1.3008 -0.8278
   83MOL0     H10897  10.209   8.844   1.048  0.2800 -1.8074 -1.8666
   83MOL0     H10898  10.261   8.901   0.897 -1.3918  0.5614  0.2839
   83MOL0     H10899  10.113   9.070   1.095 -1.0998 -1.0646  0.2722
   83MOL0     H10900  10.188   9.130   0.945  2.2642  0.3678  0.4831
   83MOL0     H10901   9.952   9.096   0.919  1.6747  0.8199 -1.2042
   83MOL0     H10902   9.952   8.945   0.991 -0.2141  2.7823  1.5106
   83MOL0     H10903  10.076   8.848   0.792  1.1386  0.7112  0.4767
   83MOL0     H10904  10.074   9.006   0.726 -2.4299  4.0856 -0.0472
   83MOL0     H10905   9.821   8.865   0.812 -0.0977  1.0830  0.7171
   83MOL0     H10906   9.836   9.016   0.714  0.1523 -0.9247 -3.0328
   83MOL0     H10907   9.944   8.748   0.614 -0.2227 -0.6361  2.4661
   83MOL0     H10908   9.904   8.898   0.521  0.8485 -1.2162 -0.4396
   83MOL0     H10909   9.650   8.952   0.454 -1.5350 -0.0133 -1.1660
   83MOL0     H10910   9.326   8.736   0.477  0.0168 -1.2228 -1.4007
   83MOL0     H10911   9.403   8.778   0.327  0.2660  0.5712 -0.3389
   83MOL0     H10912   9.274   8.951   0.407  3.1735  5.8065 -2.7387
   83MOL0     H10913   9.431   9.009   0.406 -1.9454  0.9885 -0.3587
   83MOL0     H10914   9.434   8.942   0.670  0.1277  2.8974  0.1894
   83MOL0     H10915   9.351   9.089   0.615  1.3387  0.8179 -2.0162
   83MOL0     H10916   9.227   8.984   0.769  0.9201  0.9349  0.0076
   83MOL0     H10917   9.198   8.847   0.651  0.0376 -0.8425 -1.1730
   83MOL0     H10918   8.912   9.151   0.496 -0.5761 -0.3088 -1.2197
   83MOL0     H10919   8.678   9.093   0.491  0.2249 -0.1747 -3.0393
   83MOL0     H10920   8.340   8.720   0.480  1.8073 -1.1830 -0.1820
   83MOL0     H10921   8.103   8.651   0.534 -0.2612 -1.4378  0.8161
   83MOL0     H10922   7.877   8.740   0.753  0.3017 -1.1327  0.2763
   83MOL0     H10923   7.958   8.711   0.902 -0.2840  1.1312  0.2036
   83MOL0     H10924   7.782   8.498   0.787  3.0658  0.2536  0.0122
   83MOL0     H10925   7.694   8.632   0.859  0.1040 -1.1165 -1.1335
   83MOL0     H10926   7.858   8.579   1.071 -0.6583 -1.9973  2.7994
   83MOL0     H10927   7.881   8.420   0.978  1.3203  0.8806 -1.5917
   83MOL0     H10928   7.640   8.550   1.070 -0.2613 -1.0321 -0.8978
   83MOL0     H10929   7.633   8.395   0.980  2.1109  0.4690 -3.8390
   83MOL0     H10930   7.785   8.402   1.245  1.0544 -1.5388  0.4376
   83MOL0     H10931   7.749   8.263   1.145 -0.8467 -0.7847 -0.0601
   83MOL0     H10932   7.506   8.329   1.165  0.4642  0.1979 -1.2123
   83MOL0     H10933   7.552   8.430   1.301 -0.4609  0.7834 -1.1380
   83MOL0     H10934   7.582   8.128   1.281  0.1224  0.7642 -1.3757
   83MOL0     H10935   7.697   8.208   1.389  0.4483 -1.9545 -0.3677
   83MOL0     H10936   7.501   8.317   1.515  2.2637 -0.1390  1.0005
   83MOL0     H10937   7.527   8.141   1.528 -0.1209 -0.0051 -0.0890
   83MOL0     H10938   8.203   8.609   0.946 -0.3979 -2.2335 -0.2419
   83MOL0     H10939   8.436   8.690   0.895  2.6110 -0.6950 -2.1577
   83MOL0     H10940   8.767   8.746   0.733 -1.9763  1.9540 -0.3777
   83MOL0     H10941   9.022   8.814   0.733 -0.2420 -0.7010 -0.6896
   83MOL0     H10942  10.689   8.817   0.760 -2.4652 -1.2449  0.9094
   83MOL0     H10943  10.918   8.737   0.760  0.5342 -1.2095  0.3613
   83MOL0     H10944  11.334   8.491   0.846 -1.5060 -0.6727 -1.7881
   83MOL0     H10945  11.572   8.534   0.787  2.1535  0.4140 -3.3289
   83MOL0     H10946  11.743   8.599   0.679  2.2532 -0.6206 -0.6886
   83MOL0     H10947  11.818   8.634   0.846  1.0449 -0.3733 -0.7970
   83MOL0     H10948  11.874   8.774   0.581  0.5706  0.9106 -0.2221
   83MOL0     H10949  11.952   8.824   0.733 -0.8935 -1.1455  2.0283
   83MOL0     H10950  11.997   8.568   0.586 -3.9079 -0.2770  1.0378
   83MOL0     H10951  12.060   8.596   0.749 -0.6777 -1.6478 -0.3894
   83MOL0     H10952  12.137   8.771   0.502 -1.6601  0.8412  0.0827
   83MOL0     H10953  12.190   8.786   0.683  1.4848 -1.2403  0.0440
   83MOL0     H10954  12.397   8.465   0.520  0.1322 -0.9529  3.0097
   83MOL0     H10955  11.510   8.952   0.871 -3.1810  0.6807  0.1365
   83MOL0     H10956  11.271   8.905   0.920  1.5359  0.6947  0.5138
   84MOL0     O10957   4.247   1.973   3.377 -0.3783 -0.0372 -0.0417
   84MOL0     C10958   4.274   2.010   3.265 -0.0668  0.0297 -0.2971
   84MOL0     O10959   4.189   2.086   3.185 -0.0562 -0.1585  0.0922
   84MOL0     C10960   4.065   2.125   3.227 -0.0793 -0.1025  0.3363
   84MOL0     C10961   4.059   2.193   3.349 -0.3823  0.2938  0.2376
   84MOL0     C10962   3.940   2.238   3.401  0.3219 -0.0610 -0.1855
   84MOL0     C10963   3.820   2.207   3.340 -0.3497 -0.1429  0.4319
   84MOL0     O10964   3.709   2.256   3.407  0.5896 -0.8828  0.6296
   84MOL0     C10965   3.583   2.234   3.350  0.6289  0.3853  0.4916
   84MOL0     C10966   3.553   2.331   3.237  0.3197  0.2382  0.0804
   84MOL0     C10967   3.430   2.291   3.156  0.1259  0.8610  0.2255
   84MOL0     C10968   3.296   2.314   3.226 -0.1600  0.1017  0.0263
   84MOL0     C10969   3.178   2.248   3.154 -0.6214  0.4133 -1.1533
   84MOL0     C10970   3.192   2.093   3.139 -0.3044 -0.1496 -0.3244
   84MOL0     C10971   3.057   2.034   3.082  0.8291  0.0311  0.1118
   84MOL0     C10972   2.950   2.047   3.194  0.4207  0.2105  0.0079
   84MOL0     N10973   2.826   1.980   3.149 -0.9333 -0.6907  0.5602
   84MOL0     C10974   2.724   2.041   3.079  1.2878  0.5953 -0.0765
   84MOL0     C10975   2.660   1.934   3.028 -0.5228  0.7766  0.1872
   84MOL0     C10976   2.511   1.953   2.978 -0.5071  0.4790 -0.8447
   84MOL0     C10977   2.492   1.853   2.861 -0.1077  0.1793  0.4685
   84MOL0     C10978   2.343   1.858   2.809  0.1762  0.2934  0.4878
   84MOL0     C10979   2.245   1.780   2.899 -0.3312  0.2322 -0.5579
   84MOL0     O10980   2.143   1.727   2.813 -0.1096  0.6089 -0.6163
   84MOL0     C10981   2.038   1.664   2.879  0.5814 -0.1506  0.7284
   84MOL0     C10982   2.036   1.639   3.025 -0.4039  0.1606  1.0882
   84MOL0     C10983   1.926   1.565   3.071 -0.5676 -0.5071  0.1502
   84MOL0     C10984   1.810   1.541   2.997  0.6491 -0.3036  0.5054
   84MOL0     C10985   1.688   1.475   3.059  0.4404  0.1093  0.6184
   84MOL0     O10986   1.569   1.507   2.995 -0.2374 -0.2482  0.2138
   84MOL0     C10987   1.455   1.425   3.007 -0.3138 -0.4633  0.0772
   84MOL0     C10988   1.445   1.295   2.960 -0.4604 -0.2791 -0.0437
   84MOL0     C10989   1.330   1.219   2.976  0.5855  0.5769 -0.3957
   84MOL0     C10990   1.203   1.277   3.017 -1.1287 -0.1139 -0.1608
   84MOL0     O10991   1.088   1.199   3.016 -0.5840  0.1919  0.2811
   84MOL0     C10992   0.963   1.269   3.014 -0.1432 -0.2057  0.1349
   84MOL0     C10993   0.920   1.334   2.873 -0.4136  0.3324 -0.4852
   84MOL0     C10994   0.833   1.457   2.906 -0.0183  0.4105  0.5220
   84MOL0     C10995   0.774   1.517   2.774  0.1394 -0.0205  0.5151
   84MOL0     C10996   0.651   1.439   2.691 -0.9646 -0.6696  0.4593
   84MOL0     C10997   0.628   1.489   2.551 -0.1706  0.1802  0.3569
   84MOL0     C10998   0.540   1.381   2.481  0.0926  0.1816 -0.6031
   84MOL0     C10999   0.519   1.436   2.343  0.4036 -1.1389 -0.4317
   84MOL0    Cl11000   0.427   1.318   2.242  0.3266 -0.3258 -0.6045
   84MOL0     C11001   1.211   1.414   3.052 -0.0830 -0.7630 -0.6004
   84MOL0     C11002   1.331   1.484   3.044  0.0856  0.0074  1.0043
   84MOL0     O11003   1.701   1.398   3.152 -0.3469 -0.6798 -0.4157
   84MOL0     C11004   1.810   1.577   2.863 -0.4456 -0.3557  0.3178
   84MOL0     C11005   1.926   1.628   2.806  0.0546 -0.1349  0.5058
   84MOL0     N11006   2.718   1.822   3.078  0.4980  0.0260  0.0934
   84MOL0     N11007   2.836   1.842   3.126  0.3890 -0.4879  0.0706
   84MOL0     C11008   3.815   2.128   3.219  0.1060 -0.2155 -0.7864
   84MOL0     C11009   3.938   2.092   3.161 -0.1547  0.1210 -0.3142
   84MOL0     C11010   4.408   1.970   3.214 -0.2913 -0.0653  0.4373
   84MOL0     C11011   4.484   2.051   3.129 -0.0354  0.0072  0.9201
   84MOL0     C11012   4.608   2.014   3.079 -0.1660 -0.2547  0.2631
   84MOL0     C11013   4.663   1.887   3.113 -0.0393 -0.8988  0.4286
   84MOL0     O11014   4.792   1.861   3.070 -0.4348  0.1859 -0.4953
   84MOL0     C11015   4.821   1.718   3.067 -0.4787  0.3130  0.5931
   84MOL0     C11016   4.924   1.698   2.950 -0.0490  0.5388  0.4945
   84MOL0     C11017   4.856   1.724   2.816  0.2113 -0.1097 -0.0611
   84MOL0     C11018   4.954   1.673   2.711  0.9261  0.8233  0.4638
   84MOL0     C11019   4.927   1.531   2.673 -0.7586 -0.2855 -0.2244
   84MOL0     C11020   4.904   1.414   2.645  0.5522  0.2336 -0.5705
   84MOL0     C11021   4.591   1.812   3.204  0.1595 -0.2829 -0.8657
   84MOL0     C11022   4.467   1.845   3.254  0.2944 -0.2290  0.2785
   84MOL0     H11023   4.149   2.209   3.409  0.7760  3.6417 -2.0824
   84MOL0     H11024   3.943   2.263   3.507  1.8054  1.6480 -0.5761
   84MOL0     H11025   3.503   2.239   3.425 -1.9964 -2.2181 -1.8820
   84MOL0     H11026   3.582   2.129   3.320  1.5050 -0.0096  1.7559
   84MOL0     H11027   3.638   2.334   3.167 -1.6707 -2.5754 -2.7265
   84MOL0     H11028   3.529   2.428   3.282  0.1410  0.1198  0.2401
   84MOL0     H11029   3.451   2.185   3.135  4.1457  1.5255  0.0087
   84MOL0     H11030   3.434   2.348   3.063  2.3021  0.0042 -0.2657
   84MOL0     H11031   3.292   2.277   3.329  2.1757 -1.3311 -0.3281
   84MOL0     H11032   3.282   2.422   3.237 -2.5916 -0.0243 -1.2050
   84MOL0     H11033   3.152   2.296   3.059  0.3929 -1.1958 -2.3033
   84MOL0     H11034   3.092   2.278   3.215 -1.6968  0.6413 -2.7249
   84MOL0     H11035   3.221   2.033   3.226 -0.2364 -1.2089 -1.0512
   84MOL0     H11036   3.270   2.075   3.064  0.5420 -1.0185  0.7415
   84MOL0     H11037   3.031   2.097   2.996  1.0216  2.2904  1.5996
   84MOL0     H11038   3.055   1.930   3.049 -1.5350  0.4747 -1.3380
   84MOL0     H11039   2.927   2.152   3.218 -1.4842  0.1061 -1.1746
   84MOL0     H11040   2.992   1.999   3.283  1.1515 -0.2462 -0.5706
   84MOL0     H11041   2.689   2.143   3.068 -0.8230 -0.0457  0.1033
   84MOL0     H11042   2.496   2.059   2.954 -1.6703  0.3027 -0.9278
   84MOL0     H11043   2.439   1.935   3.058  0.9532 -1.9376  0.0399
   84MOL0     H11044   2.511   1.751   2.894 -0.9116 -0.3836 -0.7532
   84MOL0     H11045   2.575   1.866   2.791  1.6911  0.7663  2.5795
   84MOL0     H11046   2.308   1.961   2.813 -0.7243  0.2338 -3.1062
   84MOL0     H11047   2.330   1.823   2.706 -0.6022  1.9620 -0.0104
   84MOL0     H11048   2.206   1.839   2.982  0.9189  3.1673 -1.9342
   84MOL0     H11049   2.304   1.699   2.942 -2.4031 -0.4510  1.1873
   84MOL0     H11050   2.115   1.670   3.092  0.5335 -0.3413  0.2567
   84MOL0     H11051   1.925   1.524   3.171  0.2250  3.4782  1.9453
   84MOL0     H11052   1.537   1.248   2.926  1.2825  1.0138  2.5271
   84MOL0     H11053   1.339   1.111   2.978  2.6314  0.7121 -0.1721
   84MOL0     H11054   0.968   1.346   3.091 -2.8531 -1.3277  1.5653
   84MOL0     H11055   0.889   1.193   3.041  2.2641 -2.6351  0.3439
   84MOL0     H11056   0.875   1.259   2.807 -2.1539  0.6823  0.2368
   84MOL0     H11057   1.006   1.376   2.821  1.2207 -1.6719  0.4707
   84MOL0     H11058   0.895   1.529   2.961 -0.6222  1.0222  0.4174
   84MOL0     H11059   0.745   1.434   2.966 -1.1021 -0.9604 -1.4881
   84MOL0     H11060   0.728   1.615   2.792 -1.1097 -0.4443 -0.2463
   84MOL0     H11061   0.863   1.520   2.709  0.0773  0.9233  0.4575
   84MOL0     H11062   0.557   1.439   2.747 -0.6580 -2.0625  1.0095
   84MOL0     H11063   0.692   1.338   2.687  3.7203  0.9857 -0.5599
   84MOL0     H11064   0.720   1.515   2.497  0.5242 -1.0324  0.9105
   84MOL0     H11065   0.571   1.580   2.572  2.0430  1.1547  2.8607
   84MOL0     H11066   0.575   1.277   2.478  1.4113  0.6116 -0.6624
   84MOL0     H11067   0.447   1.383   2.538 -0.5981  0.2132 -1.6975
   84MOL0     H11068   0.606   1.476   2.291 -1.6988  2.7574 -1.3467
   84MOL0     H11069   0.443   1.514   2.358 -1.2478 -2.6882 -0.4313
   84MOL0     H11070   1.121   1.470   3.076  1.0657  0.0954  2.1066
   84MOL0     H11071   1.330   1.591   3.064  0.6642  0.4050 -0.9004
   84MOL0     H11072   1.718   1.556   2.808 -2.1890  1.9464  2.1252
   84MOL0     H11073   1.926   1.646   2.699  1.7720 -0.3064  0.4523
   84MOL0     H11074   3.721   2.093   3.179  0.4958 -4.9432  1.7202
   84MOL0     H11075   3.938   2.040   3.066 -0.4506 -2.1502  0.8592
   84MOL0     H11076   4.449   2.152   3.108 -1.0379 -0.7113 -1.0837
   84MOL0     H11077   4.667   2.081   3.017  0.8247 -0.6808  0.7178
   84MOL0     H11078   4.738   1.658   3.028 -1.1200  2.2403 -1.2236
   84MOL0     H11079   4.865   1.674   3.156  1.8156 -0.5873 -0.9092
   84MOL0     H11080   5.008   1.766   2.965  3.5333 -3.2407 -0.4835
   84MOL0     H11081   4.969   1.598   2.946 -0.5769  0.3269 -0.7814
   84MOL0     H11082   4.850   1.833   2.820 -1.8985 -0.1909  0.3302
   84MOL0     H11083   4.759   1.675   2.810  0.1129  0.0038  0.5155
   84MOL0     H11084   4.945   1.725   2.616 -1.2471 -0.8893 -0.3538
   84MOL0     H11085   5.055   1.682   2.754  1.3812 -2.5818  0.4042
   84MOL0     H11086   4.881   1.311   2.630 -1.4261  0.8494 -2.1386
   84MOL0     H11087   4.635   1.725   3.253  0.9458  1.2189  1.2397
   84MOL0     H11088   4.406   1.786   3.321  1.0874 -1.0590  0.2922
   85MOL0     O11089   5.929   8.166   4.152 -0.1150  0.2224 -0.4364
   85MOL0     C11090   5.996   8.083   4.100 -1.1330 -0.1436 -0.0433
   85MOL0     O11091   5.951   7.979   4.022  0.5995  0.2899  0.2651
   85MOL0     C11092   5.819   7.950   4.013 -0.2985 -0.5075  0.4042
   85MOL0     C11093   5.763   7.974   3.887 -0.1871  0.5984 -0.3902
   85MOL0     C11094   5.626   7.943   3.868  0.6100  0.6903  0.3155
   85MOL0     C11095   5.541   7.886   3.963 -0.4437  0.3559 -0.6845
   85MOL0     O11096   5.414   7.869   3.925  0.4598  0.1146  0.0250
   85MOL0     C11097   5.315   7.951   4.002 -0.1284 -0.3452 -0.1070
   85MOL0     C11098   5.217   7.857   4.068  0.8430  0.5756  0.5753
   85MOL0     C11099   5.103   7.937   4.131 -0.4729  0.7746  0.6415
   85MOL0     C11100   5.012   7.845   4.208  0.6198 -0.0574  0.9729
   85MOL0     C11101   4.878   7.916   4.246  0.0271 -0.6377 -0.3779
   85MOL0     C11102   4.775   7.829   4.318  0.3216 -0.1359  0.4805
   85MOL0     C11103   4.634   7.895   4.323  0.8476  0.0413 -0.7449
   85MOL0     C11104   4.643   8.022   4.407 -0.7242  0.4507  0.2483
   85MOL0     N11105   4.511   8.058   4.449  0.3958  0.5638 -0.8597
   85MOL0     C11106   4.420   8.119   4.374 -0.0439  0.3157 -0.7668
   85MOL0     C11107   4.318   8.154   4.460  0.5503  0.4628 -0.2899
   85MOL0     C11108   4.208   8.253   4.424  0.4134  0.0316 -0.7096
   85MOL0     C11109   4.075   8.235   4.491 -0.6764 -1.1419  0.2623
   85MOL0     C11110   4.024   8.087   4.474 -0.2109 -1.4657  0.6704
   85MOL0     C11111   3.871   8.101   4.500  0.7237  0.2034 -0.1449
   85MOL0     O11112   3.820   7.974   4.512  0.5554  0.7394 -0.0015
   85MOL0     C11113   3.681   7.954   4.536  0.4110 -0.5159  0.4677
   85MOL0     C11114   3.638   7.824   4.552 -0.3946 -0.0320  0.0537
   85MOL0     C11115   3.509   7.787   4.583  0.2192 -0.7049  0.7105
   85MOL0     C11116   3.406   7.881   4.581 -0.1471 -0.4340 -0.4396
   85MOL0     C11117   3.267   7.839   4.596 -0.3753 -0.3603 -0.1059
   85MOL0     O11118   3.249   7.705   4.615  0.0303 -0.4958 -0.2559
   85MOL0     C11119   3.134   7.630   4.607  0.4805 -0.7348 -0.0521
   85MOL0     C11120   3.003   7.679   4.614 -0.3921  1.7896 -0.2900
   85MOL0     C11121   2.885   7.591   4.605 -0.6744 -0.8489  0.4285
   85MOL0     C11122   2.911   7.453   4.605  0.6111  0.5192  0.4459
   85MOL0     O11123   2.802   7.371   4.618  0.5045  0.3516 -0.1589
   85MOL0     C11124   2.805   7.248   4.551  0.0332  0.3852 -0.2646
   85MOL0     C11125   2.680   7.166   4.579 -0.2930  0.4122  0.2244
   85MOL0     C11126   2.634   7.081   4.456  0.1171 -0.5234 -0.6410
   85MOL0     C11127   2.495   7.012   4.471  0.5045  1.0734 -0.2609
   85MOL0     C11128   2.372   7.098   4.477 -0.1136 -0.2827  0.1247
   85MOL0     C11129   2.336   7.138   4.620 -0.0268 -0.2731 -0.1474
   85MOL0     C11130   2.185   7.113   4.649 -0.2663 -0.2188 -0.2746
   85MOL0     C11131   2.083   7.191   4.570 -0.2895  0.0636 -0.0671
   85MOL0    Cl11132   1.921   7.141   4.630  0.4711 -0.1793  0.0187
   85MOL0     C11133   3.039   7.406   4.599  0.3452 -0.5554 -0.4792
   85MOL0     C11134   3.151   7.489   4.601 -0.3389 -1.3257 -0.2783
   85MOL0     O11135   3.181   7.922   4.589  0.0593  0.3517 -0.2147
   85MOL0     C11136   3.443   8.021   4.557 -0.3139  0.6969  0.2535
   85MOL0     C11137   3.580   8.053   4.538 -0.8502  0.0434  0.0272
   85MOL0     N11138   4.342   8.097   4.577 -0.0167  0.5387 -0.0413
   85MOL0     N11139   4.458   8.030   4.576  0.5370 -0.7009  0.9020
   85MOL0     C11140   5.598   7.881   4.090 -0.6598  0.2116  0.3970
   85MOL0     C11141   5.734   7.904   4.114  0.1009  0.3822  0.6486
   85MOL0     C11142   6.142   8.090   4.135 -1.0081  0.2819 -0.3082
   85MOL0     C11143   6.234   7.995   4.078  0.2422  0.4316 -0.1567
   85MOL0     C11144   6.366   7.991   4.108  0.1100 -0.9515 -0.8908
   85MOL0     C11145   6.416   8.086   4.196 -0.9474 -0.8459  0.4584
   85MOL0     O11146   6.544   8.053   4.231  0.5373 -0.0567  0.1370
   85MOL0     C11147   6.626   8.153   4.289  0.0838  0.1003 -0.1397
   85MOL0     C11148   6.763   8.159   4.234  0.3607 -0.1383  0.0606
   85MOL0     C11149   6.767   8.169   4.079  0.4532 -0.0442 -0.1278
   85MOL0     C11150   6.752   8.034   4.007 -0.4474  0.0942  0.3554
   85MOL0     C11151   6.832   8.023   3.891 -0.0839  0.4508 -0.0749
   85MOL0     C11152   6.895   8.028   3.788 -0.3548 -0.5263 -0.4874
   85MOL0     C11153   6.335   8.177   4.259 -0.0158 -0.0161 -1.0390
   85MOL0     C11154   6.199   8.173   4.232  0.2772  0.4802 -0.3885
   85MOL0     H11155   5.812   8.017   3.800 -0.5704  3.0003  0.4936
   85MOL0     H11156   5.575   7.978   3.778 -0.6778  0.6056  0.9852
   85MOL0     H11157   5.255   8.015   3.936 -2.6011 -1.3350  1.0334
   85MOL0     H11158   5.360   8.014   4.079 -0.0981 -0.5690  0.0590
   85MOL0     H11159   5.273   7.798   4.141  1.0731  2.0392  1.6426
   85MOL0     H11160   5.182   7.784   3.994 -0.3055 -0.3339  1.9497
   85MOL0     H11161   5.039   7.988   4.058  1.0655  1.7201 -0.0979
   85MOL0     H11162   5.137   8.014   4.201  0.3335  1.8609 -0.8837
   85MOL0     H11163   4.995   7.757   4.145 -0.6256  0.9645 -0.1897
   85MOL0     H11164   5.067   7.804   4.293  0.8233 -1.1587  0.3385
   85MOL0     H11165   4.838   7.961   4.155  0.1874  1.5570  0.5568
   85MOL0     H11166   4.905   7.999   4.312  0.2599  0.0882 -1.3711
   85MOL0     H11167   4.812   7.800   4.417  0.7634  0.8397  0.6092
   85MOL0     H11168   4.771   7.742   4.252  2.4383 -0.2328  0.4141
   85MOL0     H11169   4.600   7.917   4.221  6.1251 -1.6660 -3.2249
   85MOL0     H11170   4.566   7.820   4.366  0.5941  1.1723  0.9112
   85MOL0     H11171   4.678   8.114   4.359  3.6465 -0.7988  0.6389
   85MOL0     H11172   4.710   8.008   4.492 -0.8754  1.1981  0.5029
   85MOL0     H11173   4.445   8.170   4.281 -0.7817  0.4635 -0.8903
   85MOL0     H11174   4.199   8.259   4.315  2.9384  3.5451 -0.9132
   85MOL0     H11175   4.252   8.350   4.448  0.3922 -0.0913 -0.1749
   85MOL0     H11176   3.998   8.302   4.452  0.2108 -0.7653 -0.9002
   85MOL0     H11177   4.099   8.255   4.596  1.9609 -2.0201 -0.1100
   85MOL0     H11178   4.046   8.054   4.373  1.5618  1.9800 -0.2053
   85MOL0     H11179   4.057   8.024   4.557 -1.6118 -0.0148  2.4367
   85MOL0     H11180   3.817   8.154   4.420  1.3798 -1.5536 -1.8311
   85MOL0     H11181   3.851   8.131   4.603  0.0147 -2.5737  0.5967
   85MOL0     H11182   3.707   7.740   4.554 -0.9081 -0.5046 -1.0318
   85MOL0     H11183   3.491   7.680   4.588  4.8667 -1.7026  0.9201
   85MOL0     H11184   2.988   7.784   4.638 -0.6296  1.7850 -0.4142
   85MOL0     H11185   2.781   7.620   4.608 -0.5167  0.3618 -2.3332
   85MOL0     H11186   2.890   7.186   4.582  0.7369 -0.4484 -3.5001
   85MOL0     H11187   2.815   7.266   4.444 -1.1984  0.3813 -0.3878
   85MOL0     H11188   2.592   7.228   4.597 -0.2799 -0.0236  1.9031
   85MOL0     H11189   2.709   7.106   4.666  2.4959 -2.1981 -2.2637
   85MOL0     H11190   2.706   7.000   4.441  0.7238  0.1840 -1.6841
   85MOL0     H11191   2.628   7.134   4.361  0.4370  0.1187 -0.3058
   85MOL0     H11192   2.488   6.950   4.382 -1.6031 -1.2417  1.3615
   85MOL0     H11193   2.491   6.947   4.559  1.9845  1.0689 -0.1785
   85MOL0     H11194   2.284   7.045   4.438 -1.0544 -0.8253  2.7992
   85MOL0     H11195   2.388   7.185   4.413 -0.1750  2.6496  3.7728
   85MOL0     H11196   2.354   7.239   4.658 -2.1879  1.3904 -3.1073
   85MOL0     H11197   2.399   7.072   4.679 -0.4936 -1.0249 -0.4739
   85MOL0     H11198   2.150   7.009   4.643 -1.8487  0.2009  1.1772
   85MOL0     H11199   2.167   7.137   4.754  3.0192 -0.2152  0.3983
   85MOL0     H11200   2.090   7.183   4.461 -0.4151 -0.1483 -0.0601
   85MOL0     H11201   2.098   7.295   4.599  1.2581 -0.0657 -0.3144
   85MOL0     H11202   3.062   7.300   4.600 -0.3394 -0.7180 -1.4473
   85MOL0     H11203   3.245   7.435   4.605 -1.1670 -2.7527  0.6146
   85MOL0     H11204   3.370   8.102   4.558  0.8967  1.9683 -2.3863
   85MOL0     H11205   3.604   8.156   4.515 -2.7798 -0.1735 -3.7457
   85MOL0     H11206   5.533   7.873   4.176 -3.0593  0.6003 -1.2829
   85MOL0     H11207   5.767   7.911   4.217 -0.9280  1.5508  0.9268
   85MOL0     H11208   6.188   7.926   4.008  0.4132  0.8353 -0.6742
   85MOL0     H11209   6.435   7.925   4.055  3.6715  2.2133 -0.6599
   85MOL0     H11210   6.640   8.132   4.395  0.2529  0.2972 -0.1244
   85MOL0     H11211   6.584   8.252   4.273 -1.2639 -0.2528  1.0359
   85MOL0     H11212   6.806   8.247   4.282  0.5384 -0.6004  0.7658
   85MOL0     H11213   6.815   8.071   4.275 -0.1584  0.1503  1.4149
   85MOL0     H11214   6.865   8.212   4.058  0.2362  0.5036 -0.0605
   85MOL0     H11215   6.687   8.238   4.049 -0.7082 -0.8985  0.8588
   85MOL0     H11216   6.784   7.952   4.071 -0.3644  1.3540  1.9784
   85MOL0     H11217   6.644   8.026   3.990 -0.0912  0.6457 -2.8524
   85MOL0     H11218   6.932   8.037   3.688 -2.7246  0.8926 -1.3292
   85MOL0     H11219   6.361   8.249   4.337  0.6090  1.0281 -2.1765
   85MOL0     H11220   6.140   8.244   4.289 -1.1034 -0.7160 -0.2380
   86MOL0     O11221   3.321   1.755   6.308 -0.2522  0.3353  0.3494
   86MOL0     C11222   3.332   1.682   6.409 -0.0668 -0.4471  0.2871
   86MOL0     O11223   3.422   1.577   6.428  0.2999 -0.1461  0.3781
   86MOL0     C11224   3.533   1.563   6.343  0.2876 -1.1405 -0.0263
   86MOL0     C11225   3.543   1.475   6.242  0.2871 -0.0898  0.3602
   86MOL0     C11226   3.642   1.478   6.140  0.0880  0.8108  0.1191
   86MOL0     C11227   3.750   1.571   6.156 -1.3541  0.5071 -0.1578
   86MOL0     O11228   3.864   1.566   6.075 -0.1272 -0.4351  0.5806
   86MOL0     C11229   3.981   1.506   6.140 -0.5020 -0.1442  0.1900
   86MOL0     C11230   3.981   1.348   6.157  0.4273 -1.0190  0.8247
   86MOL0     C11231   4.120   1.292   6.179  0.9551 -0.7026 -0.6843
   86MOL0     C11232   4.217   1.270   6.062 -0.0988 -0.2559  0.1192
   86MOL0     C11233   4.350   1.213   6.119  1.1858 -0.4120 -0.0125
   86MOL0     C11234   4.339   1.065   6.136  0.3279 -0.1855 -0.1971
   86MOL0     C11235   4.473   0.998   6.177  1.4585 -0.3281 -0.4236
   86MOL0     C11236   4.473   0.850   6.168  0.2127  0.1203 -1.3028
   86MOL0     N11237   4.585   0.785   6.228 -0.4499  0.3430 -1.2430
   86MOL0     C11238   4.614   0.778   6.364 -1.0401  0.2648  0.4551
   86MOL0     C11239   4.739   0.718   6.372 -0.7346  0.4592  0.0231
   86MOL0     C11240   4.817   0.711   6.494  0.1293  0.0124 -0.0022
   86MOL0     C11241   4.914   0.594   6.491 -0.4695 -0.5182 -0.0283
   86MOL0     C11242   5.026   0.610   6.599  0.6573  1.1118  0.0420
   86MOL0     C11243   4.995   0.528   6.732 -0.7854  0.0316  0.6993
   86MOL0     O11244   4.958   0.621   6.840  0.2273  0.7891  0.1162
   86MOL0     C11245   4.823   0.612   6.871 -0.5558  0.2369 -0.0363
   86MOL0     C11246   4.759   0.502   6.927  0.3449 -0.4942 -0.5798
   86MOL0     C11247   4.621   0.497   6.954  0.2008  1.1668  0.0746
   86MOL0     C11248   4.542   0.605   6.917 -0.2313 -0.4402  0.0260
   86MOL0     C11249   4.392   0.614   6.931 -1.2885  0.6797  0.5054
   86MOL0     O11250   4.332   0.732   6.901  0.3005 -0.2413 -0.0015
   86MOL0     C11251   4.198   0.740   6.928  1.5247 -0.0348  0.4403
   86MOL0     C11252   4.150   0.709   7.057 -0.2904  0.9318 -0.3134
   86MOL0     C11253   4.017   0.707   7.087  0.6444 -0.0977  0.2082
   86MOL0     C11254   3.923   0.755   6.997  0.0823  0.6975  0.4170
   86MOL0     O11255   3.788   0.769   7.007 -0.0283 -0.0283 -0.1234
   86MOL0     C11256   3.718   0.729   7.130 -0.6859  0.1874 -0.5532
   86MOL0     C11257   3.571   0.751   7.114 -1.0358 -0.1206  0.7700
   86MOL0     C11258   3.503   0.793   7.246  0.5284  1.1575  0.1019
   86MOL0     C11259   3.353   0.825   7.222 -0.9152  0.9812 -0.4886
   86MOL0     C11260   3.279   0.840   7.356 -0.4919  0.7637  0.5732
   86MOL0     C11261   3.129   0.852   7.322  0.1319 -0.8834  0.2555
   86MOL0     C11262   3.061   0.919   7.441  0.8032  0.1203  0.5122
   86MOL0     C11263   2.905   0.918   7.410 -1.0547 -0.3371  0.2718
   86MOL0    Cl11264   2.806   0.976   7.547 -0.1672  0.4315 -0.0468
   86MOL0     C11265   3.966   0.791   6.870  0.1649  0.0848  0.2176
   86MOL0     C11266   4.105   0.787   6.836 -0.7184  0.1336 -0.5403
   86MOL0     O11267   4.333   0.503   6.957  0.3728  0.4170 -0.2118
   86MOL0     C11268   4.603   0.717   6.859  0.0743 -0.1233  1.5456
   86MOL0     C11269   4.741   0.727   6.842  0.2378 -0.1904  0.1462
   86MOL0     N11270   4.782   0.698   6.245  0.1350 -0.2312 -0.0030
   86MOL0     N11271   4.683   0.724   6.159 -0.5721  0.2589  0.0027
   86MOL0     C11272   3.758   1.657   6.261  0.9202 -0.1613 -0.4457
   86MOL0     C11273   3.642   1.652   6.351 -0.7369 -0.8235  0.0026
   86MOL0     C11274   3.222   1.686   6.507  0.7453 -0.5016  0.0011
   86MOL0     C11275   3.230   1.606   6.631  0.4368 -0.7043  0.1457
   86MOL0     C11276   3.108   1.590   6.703 -0.8796 -0.8560 -0.7883
   86MOL0     C11277   2.988   1.662   6.666  0.4208 -0.6723 -0.6582
   86MOL0     O11278   2.869   1.643   6.733  1.5982 -0.5734  0.1118
   86MOL0     C11279   2.752   1.596   6.656 -0.1159  0.1629  0.4753
   86MOL0     C11280   2.674   1.512   6.748 -0.0216 -0.2165 -0.4085
   86MOL0     C11281   2.693   1.359   6.722  0.2411  0.3773 -0.8221
   86MOL0     C11282   2.680   1.283   6.856 -0.3391 -0.7129 -0.1613
   86MOL0     C11283   2.542   1.295   6.913 -0.5999 -0.5756 -0.3525
   86MOL0     C11284   2.433   1.292   6.971 -0.6756 -0.5271 -0.1487
   86MOL0     C11285   2.994   1.745   6.550  0.4863 -0.0357  0.1171
   86MOL0     C11286   3.107   1.753   6.467 -0.6037  0.6404  0.4070
   86MOL0     H11287   3.460   1.409   6.218  1.1901 -0.6065 -1.5537
   86MOL0     H11288   3.634   1.394   6.072  0.9710 -1.2267  2.4051
   86MOL0     H11289   4.004   1.558   6.234  0.8849  1.4091 -0.9528
   86MOL0     H11290   4.059   1.516   6.064 -0.9083  0.4347 -0.1562
   86MOL0     H11291   3.941   1.313   6.062  2.2898  2.2776 -1.3954
   86MOL0     H11292   3.920   1.328   6.246 -3.1209 -1.2583 -1.4579
   86MOL0     H11293   4.114   1.192   6.222  3.0344  0.1366  1.8122
   86MOL0     H11294   4.174   1.344   6.258 -1.4688 -0.6922  1.0703
   86MOL0     H11295   4.181   1.207   5.981  3.3511 -0.0687 -1.7831
   86MOL0     H11296   4.231   1.368   6.016 -1.0953 -0.0117  0.3108
   86MOL0     H11297   4.382   1.256   6.215  3.2462 -2.5170  0.3216
   86MOL0     H11298   4.439   1.236   6.059  3.0002  1.9058  3.2169
   86MOL0     H11299   4.301   1.016   6.046 -2.2009  2.6470 -0.8224
   86MOL0     H11300   4.267   1.044   6.216  1.1859 -1.0162  0.3706
   86MOL0     H11301   4.551   1.029   6.107  2.6334 -1.5725  0.2857
   86MOL0     H11302   4.491   1.030   6.279 -0.4078 -0.3434 -0.0628
   86MOL0     H11303   4.479   0.834   6.060  0.8764 -0.1089 -1.2332
   86MOL0     H11304   4.380   0.824   6.221  2.8174 -4.0504  1.8220
   86MOL0     H11305   4.555   0.808   6.451 -1.1478 -2.0219  1.2529
   86MOL0     H11306   4.755   0.718   6.584 -0.2295  0.0726 -0.2521
   86MOL0     H11307   4.883   0.798   6.495  2.1945 -1.4052 -2.0684
   86MOL0     H11308   4.977   0.598   6.402  1.1740 -0.1215  1.0999
   86MOL0     H11309   4.872   0.494   6.502  0.8838 -1.1296 -0.2136
   86MOL0     H11310   5.117   0.571   6.553  1.6422  1.7635  1.3789
   86MOL0     H11311   5.044   0.715   6.625 -3.3665  2.0927 -0.5088
   86MOL0     H11312   5.091   0.497   6.773 -0.3985 -0.8986 -0.8573
   86MOL0     H11313   4.933   0.441   6.711  0.4927 -0.6187 -0.5414
   86MOL0     H11314   4.822   0.415   6.945  1.8692  0.3541 -1.6045
   86MOL0     H11315   4.571   0.408   6.989  3.3354 -1.7612 -2.2300
   86MOL0     H11316   4.220   0.672   7.131 -1.6040 -2.6511 -0.6585
   86MOL0     H11317   3.998   0.666   7.186  2.1784 -1.0057  0.1667
   86MOL0     H11318   3.757   0.795   7.209 -1.4934  0.5823 -0.4750
   86MOL0     H11319   3.738   0.623   7.148 -1.4371  0.5461  3.2738
   86MOL0     H11320   3.526   0.663   7.067 -0.4907  0.9345 -1.8593
   86MOL0     H11321   3.547   0.838   7.053  0.1173 -0.3920 -0.1043
   86MOL0     H11322   3.553   0.882   7.284  2.9311  0.1967 -0.6117
   86MOL0     H11323   3.508   0.710   7.317 -1.4017 -1.2455 -2.3461
   86MOL0     H11324   3.340   0.919   7.168  0.4199  1.0625 -0.6788
   86MOL0     H11325   3.311   0.737   7.171  0.8635  0.1634 -0.6199
   86MOL0     H11326   3.313   0.930   7.409  1.3398  1.7911 -2.1463
   86MOL0     H11327   3.282   0.754   7.424 -1.7045 -0.4652 -0.8798
   86MOL0     H11328   3.090   0.750   7.315 -2.1846 -0.0308 -0.2529
   86MOL0     H11329   3.122   0.910   7.229  1.0367  0.9196  1.2505
   86MOL0     H11330   3.078   0.875   7.540 -0.4292 -0.0613  0.6608
   86MOL0     H11331   3.099   1.022   7.447  0.3544  0.3574 -0.5261
   86MOL0     H11332   2.879   0.813   7.394  1.8243 -1.2167  0.8945
   86MOL0     H11333   2.885   0.980   7.321 -0.3686 -0.9464 -0.3168
   86MOL0     H11334   3.895   0.840   6.804  0.7455  2.6473  1.3613
   86MOL0     H11335   4.136   0.840   6.747  2.9792 -1.1922 -0.2205
   86MOL0     H11336   4.537   0.797   6.824 -2.2871 -2.1675  0.9976
   86MOL0     H11337   4.775   0.823   6.804 -0.8226 -0.1624 -0.7998
   86MOL0     H11338   3.851   1.713   6.270  1.2019 -0.3273 -2.0870
   86MOL0     H11339   3.645   1.719   6.437  0.3655  1.8393 -1.9726
   86MOL0     H11340   3.319   1.550   6.657 -1.0412 -4.2267 -1.7905
   86MOL0     H11341   3.109   1.527   6.792 -1.7925 -2.8564 -2.1213
   86MOL0     H11342   2.778   1.534   6.569  0.7379  0.0378  0.8147
   86MOL0     H11343   2.682   1.674   6.624 -0.4801 -1.5155 -3.4376
   86MOL0     H11344   2.699   1.551   6.848 -2.7103  1.0377 -0.1580
   86MOL0     H11345   2.568   1.521   6.723 -0.2830 -3.2264 -0.8147
   86MOL0     H11346   2.791   1.330   6.683  0.7535 -0.8975  1.2574
   86MOL0     H11347   2.618   1.313   6.656  1.5153 -1.0920 -1.2975
   86MOL0     H11348   2.704   1.178   6.840  1.5261 -0.3061 -0.3275
   86MOL0     H11349   2.757   1.323   6.923 -0.8541  2.1455 -1.1153
   86MOL0     H11350   2.331   1.285   7.003 -0.1981  0.1220  1.5786
   86MOL0     H11351   2.916   1.805   6.505 -0.8248  1.1302  3.6366
   86MOL0     H11352   3.108   1.807   6.373  2.2411  0.5022  0.2997
   87MOL0     O11353   8.574   6.423   9.517 -0.4679 -0.6383  0.4044
   87MOL0     C11354   8.661   6.508   9.546  0.5015 -0.1923  0.0643
   87MOL0     O11355   8.637   6.622   9.621 -0.1819 -0.5705  0.1458
   87MOL0     C11356   8.506   6.670   9.634 -0.3260  0.3939 -0.2491
   87MOL0     C11357   8.431   6.718   9.524 -0.1007  0.1622 -0.1089
   87MOL0     C11358   8.303   6.771   9.555 -1.1313 -0.3297  0.9866
   87MOL0     C11359   8.247   6.770   9.684 -0.1143 -0.8137  0.4111
   87MOL0     O11360   8.115   6.808   9.703  0.9601 -0.0588 -0.5769
   87MOL0     C11361   8.018   6.784   9.603  0.0864 -0.2766 -0.0801
   87MOL0     C11362   7.880   6.756   9.686  0.7145 -0.6932 -0.0243
   87MOL0     C11363   7.769   6.717   9.589 -1.0053 -0.1436  0.1491
   87MOL0     C11364   7.633   6.732   9.647 -0.4837 -0.6115  0.1563
   87MOL0     C11365   7.528   6.747   9.538  1.4384 -0.3198 -1.0778
   87MOL0     C11366   7.394   6.780   9.608  0.1113  0.2109 -0.4540
   87MOL0     C11367   7.289   6.825   9.496  0.1603 -0.4771  0.1216
   87MOL0     C11368   7.145   6.857   9.551 -0.3697  0.2284  0.4691
   87MOL0     N11369   7.090   6.733   9.610  0.4666 -0.1176 -0.3632
   87MOL0     C11370   7.080   6.710   9.749 -0.2288  0.6436  0.5519
   87MOL0     C11371   7.052   6.579   9.753  0.2462  0.8402 -0.3561
   87MOL0     C11372   7.024   6.493   9.873  0.2855  0.4594  0.4714
   87MOL0     C11373   6.873   6.478   9.890  0.0594 -0.3225  0.2792
   87MOL0     C11374   6.842   6.436  10.034  0.3492 -0.0021 -0.3676
   87MOL0     C11375   6.686   6.423  10.052  0.0284  0.1946 -0.0164
   87MOL0     O11376   6.658   6.350  10.173 -0.0745 -0.0519 -0.8626
   87MOL0     C11377   6.532   6.364  10.231 -0.8070 -0.3491 -0.2493
   87MOL0     C11378   6.521   6.326  10.359  0.6671 -0.3877 -0.1524
   87MOL0     C11379   6.401   6.338  10.433 -0.3434  0.0737  0.2678
   87MOL0     C11380   6.287   6.388  10.367 -0.2706  0.4044  0.5592
   87MOL0     C11381   6.166   6.394  10.445  0.4609 -0.3545 -0.4795
   87MOL0     O11382   6.056   6.448  10.387  0.2341 -0.4385 -0.0282
   87MOL0     C11383   5.941   6.457  10.453 -0.0287  0.7499 -0.7849
   87MOL0     C11384   5.896   6.569  10.511  0.5885 -0.6110  0.5878
   87MOL0     C11385   5.766   6.588  10.573 -0.0811 -1.0204 -0.4614
   87MOL0     C11386   5.670   6.486  10.553 -0.6699  0.0285 -0.8752
   87MOL0     O11387   5.543   6.505  10.597  0.0909 -0.5667  0.7278
   87MOL0     C11388   5.436   6.405  10.582 -0.7865 -0.1629 -0.0345
   87MOL0     C11389   5.316   6.453  10.669  0.5029 -0.7663 -0.0429
   87MOL0     C11390   5.197   6.363  10.633 -0.0078 -0.2830 -0.3344
   87MOL0     C11391   5.077   6.413  10.717 -0.0117  0.2187  0.1761
   87MOL0     C11392   4.953   6.347  10.659  0.5912 -0.4089 -0.1174
   87MOL0     C11393   4.858   6.322  10.774  0.7470 -0.3467 -0.0741
   87MOL0     C11394   4.722   6.265  10.722 -0.2858  0.2604 -0.0328
   87MOL0     C11395   4.625   6.376  10.699  1.1739  0.2681 -0.1049
   87MOL0    Cl11396   4.679   6.524  10.606 -0.4641  0.1913 -0.0974
   87MOL0     C11397   5.710   6.369  10.490  0.8923 -0.2197  0.1470
   87MOL0     C11398   5.838   6.360  10.440  0.0840  0.4493 -1.0065
   87MOL0     O11399   6.157   6.341  10.561 -0.2277  0.3221  0.0979
   87MOL0     C11400   6.289   6.411  10.227 -1.6681  0.4346 -0.9110
   87MOL0     C11401   6.414   6.397  10.161  0.6006  0.8098  0.0421
   87MOL0     N11402   7.032   6.526   9.626 -0.6594  0.3119 -0.1160
   87MOL0     N11403   7.059   6.620   9.541  0.6106 -0.5067 -0.3383
   87MOL0     C11404   8.321   6.716   9.792  0.0289 -0.4559 -0.1959
   87MOL0     C11405   8.449   6.670   9.761  0.2320  0.5219 -1.4691
   87MOL0     C11406   8.803   6.486   9.504  0.2844  0.3211 -0.1130
   87MOL0     C11407   8.844   6.362   9.460 -0.4209  0.0594 -0.0166
   87MOL0     C11408   8.981   6.343   9.427  0.0179 -0.3887 -1.1767
   87MOL0     C11409   9.077   6.442   9.448  0.4094 -1.0404  0.0672
   87MOL0     O11410   9.209   6.430   9.413 -0.3963 -0.1414  0.4516
   87MOL0     C11411   9.279   6.300   9.374 -0.1598 -0.6864 -0.1986
   87MOL0     C11412   9.302   6.207   9.494  0.1626 -0.5853  0.4745
   87MOL0     C11413   9.386   6.276   9.601 -0.6090  0.1847  0.0818
   87MOL0     C11414   9.418   6.180   9.719 -0.6290  0.0248 -0.1246
   87MOL0     C11415   9.470   6.272   9.819  0.0576 -0.0483 -0.1607
   87MOL0     C11416   9.518   6.352   9.895 -0.7792 -1.1316  0.1364
   87MOL0     C11417   9.037   6.563   9.504 -0.2017  0.2178 -0.1670
   87MOL0     C11418   8.903   6.581   9.537  0.2985 -0.3675  0.4577
   87MOL0     H11419   8.485   6.726   9.430  2.0801 -3.6556  0.6035
   87MOL0     H11420   8.244   6.823   9.481 -0.8297 -2.1918 -0.6259
   87MOL0     H11421   8.045   6.705   9.533  2.7944  2.0454 -1.8866
   87MOL0     H11422   8.001   6.872   9.540 -0.1670  0.8473  1.4844
   87MOL0     H11423   7.837   6.841   9.739 -1.5651  1.6552 -4.9505
   87MOL0     H11424   7.895   6.673   9.756 -0.5878  0.7319  2.0254
   87MOL0     H11425   7.779   6.613   9.558  0.7748 -0.6153  2.0870
   87MOL0     H11426   7.778   6.784   9.503  3.5458 -0.7849 -0.0944
   87MOL0     H11427   7.624   6.639   9.704 -0.1578 -1.0338 -0.4712
   87MOL0     H11428   7.629   6.817   9.716 -0.6882  0.4636 -1.1465
   87MOL0     H11429   7.517   6.654   9.481 -3.1052 -0.1837 -0.7638
   87MOL0     H11430   7.549   6.826   9.466  1.7306  0.6146 -0.0031
   87MOL0     H11431   7.414   6.842   9.696  1.4100 -1.2040  0.3047
   87MOL0     H11432   7.356   6.691   9.659  0.6181  0.3312  0.1507
   87MOL0     H11433   7.330   6.918   9.456 -1.8020 -0.1971 -1.4142
   87MOL0     H11434   7.291   6.743   9.424  1.8989  2.1389 -3.1198
   87MOL0     H11435   7.095   6.898   9.462  0.0412  0.8898  0.5404
   87MOL0     H11436   7.161   6.929   9.631 -0.0384  1.6428 -0.8249
   87MOL0     H11437   7.094   6.780   9.831  0.7107  0.1854  0.7935
   87MOL0     H11438   7.068   6.539   9.961 -0.8216  4.3014 -0.7773
   87MOL0     H11439   7.067   6.393   9.857  3.4670  1.6349  1.1338
   87MOL0     H11440   6.837   6.404   9.819  2.0485 -0.7990 -0.2834
   87MOL0     H11441   6.840   6.576   9.854  0.7106 -0.0294  0.4656
   87MOL0     H11442   6.889   6.342  10.065 -1.6197  0.3817  4.8906
   87MOL0     H11443   6.875   6.506  10.111 -0.2752 -0.8061  0.6676
   87MOL0     H11444   6.649   6.354   9.976  0.3356 -2.2545  1.9192
   87MOL0     H11445   6.650   6.526  10.046 -0.3368  0.2275  1.9635
   87MOL0     H11446   6.608   6.295  10.416  0.5638 -1.2270 -0.4441
   87MOL0     H11447   6.396   6.313  10.538 -1.1266 -1.4232 -0.0952
   87MOL0     H11448   5.963   6.654  10.502  0.8082 -0.5939  2.1256
   87MOL0     H11449   5.733   6.680  10.619 -1.3995 -0.0085 -3.2101
   87MOL0     H11450   5.467   6.303  10.608 -1.6965 -0.5907 -0.5562
   87MOL0     H11451   5.397   6.396  10.480 -2.8500 -1.1331  0.7635
   87MOL0     H11452   5.292   6.558  10.648 -0.7413 -0.4905  2.4602
   87MOL0     H11453   5.344   6.452  10.774 -0.3090  2.3578  0.3063
   87MOL0     H11454   5.234   6.263  10.658 -1.2301 -1.1829 -1.9511
   87MOL0     H11455   5.183   6.363  10.525 -1.5353  1.4576 -0.1765
   87MOL0     H11456   5.082   6.386  10.823  1.2067  0.3327  0.1601
   87MOL0     H11457   5.064   6.521  10.714 -0.6242  0.1896  1.2316
   87MOL0     H11458   4.984   6.255  10.607  1.0497 -0.0223 -0.5400
   87MOL0     H11459   4.919   6.417  10.582 -1.6418  1.3659  2.3169
   87MOL0     H11460   4.851   6.422  10.819  0.7492 -0.4627  0.1844
   87MOL0     H11461   4.903   6.255  10.848  0.3893  0.9382  1.3493
   87MOL0     H11462   4.735   6.209  10.629  1.2492  0.5919 -0.0479
   87MOL0     H11463   4.675   6.199  10.795  0.3125  1.0333  1.0919
   87MOL0     H11464   4.595   6.407  10.800 -1.9012 -3.0028  0.2001
   87MOL0     H11465   4.537   6.336  10.648  1.8273  0.3800 -1.3505
   87MOL0     H11466   5.648   6.280  10.486 -1.3094  1.1861  1.2139
   87MOL0     H11467   5.860   6.270  10.384 -2.8355 -1.4328  0.6167
   87MOL0     H11468   6.190   6.430  10.188 -2.8134 -2.1101  0.4835
   87MOL0     H11469   6.419   6.405  10.053 -2.8117 -0.3977 -0.3224
   87MOL0     H11470   8.279   6.707   9.892 -1.1765  0.1265 -0.6182
   87MOL0     H11471   8.515   6.632   9.839 -0.3369  1.4893 -0.4871
   87MOL0     H11472   8.783   6.273   9.450  1.2236 -1.0014 -1.0166
   87MOL0     H11473   9.004   6.241   9.400  2.0702 -0.8178  1.6874
   87MOL0     H11474   9.378   6.323   9.333  0.2446  2.2086  2.0648
   87MOL0     H11475   9.224   6.255   9.291 -1.0674  2.8329 -1.7132
   87MOL0     H11476   9.202   6.179   9.528 -0.7530  0.7187 -1.0583
   87MOL0     H11477   9.347   6.112   9.463  2.5404 -0.6066  3.4852
   87MOL0     H11478   9.328   6.362   9.635 -2.1603 -0.3257 -1.1504
   87MOL0     H11479   9.480   6.307   9.555  0.4361 -2.9407 -0.0897
   87MOL0     H11480   9.316   6.145   9.740 -0.9431 -0.1220 -1.6984
   87MOL0     H11481   9.503   6.116   9.690  1.0382 -0.0388  4.2645
   87MOL0     H11482   9.564   6.434   9.946  0.4269 -0.8261 -1.3722
   87MOL0     H11483   9.102   6.647   9.526 -0.9700  0.7690  0.0515
   87MOL0     H11484   8.879   6.682   9.570  3.8033  1.3446 -1.6510
   88MOL0     O11485   8.292  11.120   9.415  0.1251 -0.9210 -0.4030
   88MOL0     C11486   8.274  11.221   9.472 -0.7454 -0.2017 -0.3306
   88MOL0     O11487   8.161  11.264   9.535  0.3489 -0.3729 -0.1112
   88MOL0     C11488   8.050  11.185   9.547 -0.3884  0.3230 -1.0366
   88MOL0     C11489   7.980  11.144   9.430  0.3992  0.1270 -0.3161
   88MOL0     C11490   7.858  11.079   9.453  0.0751  0.2105  0.0510
   88MOL0     C11491   7.808  11.041   9.579  0.4962 -0.3223 -0.4923
   88MOL0     O11492   7.693  10.971   9.593 -1.2818 -0.0891  0.1337
   88MOL0     C11493   7.608  10.938   9.487  0.7919 -0.1129 -0.2279
   88MOL0     C11494   7.481  10.865   9.542 -0.0308 -0.0720  0.0897
   88MOL0     C11495   7.399  10.807   9.420 -0.6639  0.2532 -0.4361
   88MOL0     C11496   7.251  10.786   9.463 -0.0205 -0.7074  0.3532
   88MOL0     C11497   7.236  10.683   9.568 -0.0427  0.1945 -0.0936
   88MOL0     C11498   7.291  10.544   9.528  0.1553  0.5648 -0.3957
   88MOL0     C11499   7.256  10.424   9.617  0.1442  0.5572  0.3634
   88MOL0     C11500   7.326  10.298   9.575 -0.5891  0.8196  0.0332
   88MOL0     N11501   7.292  10.175   9.655  0.6088  0.0330 -1.1151
   88MOL0     C11502   7.253  10.169   9.786  0.1963 -0.4420 -0.9241
   88MOL0     C11503   7.194  10.045   9.802 -0.1314  0.6537 -0.0969
   88MOL0     C11504   7.094   9.986   9.910  0.4704  0.3231  0.7508
   88MOL0     C11505   6.944   9.993   9.867 -0.7460  0.7263  1.1981
   88MOL0     C11506   6.857   9.906   9.943 -0.0919 -0.4339  0.3759
   88MOL0     C11507   6.816   9.974  10.075  0.5251  1.4930 -0.1412
   88MOL0     O11508   6.740   9.885  10.165  0.4976  0.1078  0.3629
   88MOL0     C11509   6.604   9.857  10.136 -0.9238  0.2471  0.4990
   88MOL0     C11510   6.525   9.945  10.052 -0.3083  0.3484 -0.6419
   88MOL0     C11511   6.397   9.908  10.015 -0.4422 -0.7607 -0.4943
   88MOL0     C11512   6.329   9.801  10.064  0.6487  0.2044  0.8308
   88MOL0     C11513   6.195   9.775  10.011 -0.4151  0.8327  0.0671
   88MOL0     O11514   6.112   9.881   9.974 -0.4486 -0.0836 -0.4595
   88MOL0     C11515   5.982   9.862   9.921 -0.2848  0.1775 -0.5493
   88MOL0     C11516   5.944   9.949   9.821  0.4951  0.2677 -0.2349
   88MOL0     C11517   5.814   9.958   9.787  0.7369 -0.5318  0.6329
   88MOL0     C11518   5.718   9.863   9.836 -1.0122  0.4738  0.6534
   88MOL0     O11519   5.586   9.867   9.797 -0.9639  0.4770  0.2689
   88MOL0     C11520   5.490   9.784   9.859  0.1397 -0.5147  0.1026
   88MOL0     C11521   5.362   9.800   9.774  0.6769 -0.5495  0.3702
   88MOL0     C11522   5.315   9.952   9.784 -0.3562  0.2390  0.5093
   88MOL0     C11523   5.168   9.967   9.727 -1.0170 -0.1114 -0.3043
   88MOL0     C11524   5.068   9.985   9.844  0.0280 -0.7052  0.1633
   88MOL0     C11525   4.923   9.978   9.775 -1.1640  0.3216  0.5086
   88MOL0     C11526   4.800  10.005   9.866  0.2568 -0.0221 -0.3216
   88MOL0     C11527   4.678  10.003   9.779 -0.1683 -0.3864  0.3600
   88MOL0    Cl11528   4.552  10.107   9.846 -0.3586 -0.2384 -0.3034
   88MOL0     C11529   5.763   9.774   9.938 -0.5034 -0.3277 -0.7052
   88MOL0     C11530   5.896   9.777   9.986 -0.1338  0.3153  0.2207
   88MOL0     O11531   6.169   9.648  10.000  0.4673 -0.0512  0.1231
   88MOL0     C11532   6.401   9.721  10.154  0.4291 -0.3768  0.0194
   88MOL0     C11533   6.535   9.743  10.192 -0.0437  0.4782  0.5882
   88MOL0     N11534   7.204   9.979   9.678  0.0028  0.4215  0.4333
   88MOL0     N11535   7.250  10.058   9.591  0.1264  0.0646 -0.6495
   88MOL0     C11536   7.876  11.087   9.691  0.2103  0.7237 -0.2708
   88MOL0     C11537   7.993  11.166   9.674 -0.5702 -0.2846 -0.2110
   88MOL0     C11538   8.405  11.306   9.479  0.1725 -0.4349  0.1592
   88MOL0     C11539   8.515  11.280   9.394  0.5108 -0.4764 -0.1752
   88MOL0     C11540   8.629  11.368   9.380  1.1810 -0.3975  0.3403
   88MOL0     C11541   8.631  11.489   9.454  0.5272 -0.5039  0.2872
   88MOL0     O11542   8.732  11.580   9.458  0.1102  0.0401 -0.6988
   88MOL0     C11543   8.838  11.572   9.370 -0.8071 -0.0394 -0.3812
   88MOL0     C11544   8.967  11.584   9.447  0.2881 -0.2999  0.4485
   88MOL0     C11545   9.077  11.637   9.347 -0.3781 -0.1544  0.1308
   88MOL0     C11546   9.197  11.682   9.427 -0.1063  0.0171 -0.1817
   88MOL0     C11547   9.294  11.707   9.317  0.2253  0.0698  0.1660
   88MOL0     C11548   9.351  11.738   9.211  0.6032 -0.4450 -0.1816
   88MOL0     C11549   8.527  11.500   9.552 -0.0011 -0.7559  0.7311
   88MOL0     C11550   8.414  11.418   9.563 -0.0022  0.1940 -0.4162
   88MOL0     H11551   8.025  11.171   9.335 -2.0477  3.6920 -0.6506
   88MOL0     H11552   7.804  11.045   9.365 -0.8425  0.4180  0.5197
   88MOL0     H11553   7.649  10.868   9.414 -0.0028 -2.5276  1.5114
   88MOL0     H11554   7.571  11.023   9.429 -3.1114  0.3435  2.4859
   88MOL0     H11555   7.431  10.933   9.612  0.6240 -1.9556  2.5273
   88MOL0     H11556   7.510  10.782   9.607  0.1216 -0.7496 -0.8251
   88MOL0     H11557   7.450  10.714   9.393  2.7798  1.6982  0.5394
   88MOL0     H11558   7.404  10.877   9.336 -3.0876 -0.5039 -1.2757
   88MOL0     H11559   7.206  10.876   9.506 -1.0448 -0.7785 -0.5393
   88MOL0     H11560   7.191  10.755   9.377 -2.2189  1.3274  1.0452
   88MOL0     H11561   7.128  10.680   9.587 -0.3537  0.2289 -1.7303
   88MOL0     H11562   7.270  10.713   9.667 -0.7387 -0.3070  0.3037
   88MOL0     H11563   7.399  10.561   9.528 -0.0984  2.5777  0.4672
   88MOL0     H11564   7.267  10.535   9.422  0.9082  1.4924 -0.6630
   88MOL0     H11565   7.279  10.446   9.722 -0.6004  1.8474  0.2684
   88MOL0     H11566   7.152  10.395   9.601  0.8487 -1.5902 -0.8247
   88MOL0     H11567   7.433  10.314   9.564 -0.6916  1.3048 -0.3013
   88MOL0     H11568   7.293  10.273   9.474  1.8216 -1.3503 -0.3232
   88MOL0     H11569   7.244  10.239   9.868  1.6401 -0.9812 -0.2570
   88MOL0     H11570   7.112  10.056   9.993 -1.3558 -1.4517  2.7933
   88MOL0     H11571   7.115   9.882   9.938 -0.9105  0.3449  2.0006
   88MOL0     H11572   6.945   9.959   9.763  0.0984 -1.5617  1.8851
   88MOL0     H11573   6.905  10.095   9.870 -0.9939  0.6337  1.2265
   88MOL0     H11574   6.775   9.865   9.883 -0.1341 -1.4170  1.0738
   88MOL0     H11575   6.914   9.816   9.969 -0.5603 -1.3861 -1.6718
   88MOL0     H11576   6.758  10.066  10.066  0.1002  1.3252  0.7573
   88MOL0     H11577   6.904   9.997  10.135 -1.3146 -0.5215  3.6844
   88MOL0     H11578   6.576  10.033  10.014  1.6890 -0.4450  0.0441
   88MOL0     H11579   6.334   9.969   9.951 -0.6663 -1.5565 -1.0531
   88MOL0     H11580   6.016  10.017   9.777  0.1756  0.3142 -0.6996
   88MOL0     H11581   5.767  10.028   9.719 -1.6723 -2.8562 -0.2710
   88MOL0     H11582   5.477   9.813   9.964 -1.1541 -0.5250 -0.0394
   88MOL0     H11583   5.522   9.680   9.855  0.6285 -0.4463  1.6833
   88MOL0     H11584   5.273   9.742   9.803  0.7196 -0.7730  0.0616
   88MOL0     H11585   5.369   9.778   9.667 -2.5531  1.0352 -0.3068
   88MOL0     H11586   5.382  10.014   9.724 -2.4469  3.2295  1.0581
   88MOL0     H11587   5.320   9.990   9.887  0.6431  2.5576 -0.3296
   88MOL0     H11588   5.167  10.046   9.652 -1.0090 -0.7220 -0.9656
   88MOL0     H11589   5.143   9.875   9.673  0.1202  0.2626 -1.4998
   88MOL0     H11590   5.072  10.082   9.895 -3.8180  0.4514 -1.3806
   88MOL0     H11591   5.082   9.907   9.920 -1.1152 -0.0712  1.0740
   88MOL0     H11592   4.918   9.873   9.746 -1.2466  0.6332 -0.6631
   88MOL0     H11593   4.922  10.044   9.688  2.2323  0.3830  0.4005
   88MOL0     H11594   4.786   9.937   9.951  1.4201  2.0892  1.6693
   88MOL0     H11595   4.807  10.107   9.906 -0.7027 -0.0320 -0.1022
   88MOL0     H11596   4.637   9.902   9.768 -0.1306 -0.1801 -2.0872
   88MOL0     H11597   4.705  10.029   9.677  1.1175  0.0849  0.8087
   88MOL0     H11598   5.698   9.706   9.991 -1.1242 -0.4764 -1.6300
   88MOL0     H11599   5.931   9.710  10.064 -1.4395  0.9135  1.3832
   88MOL0     H11600   6.348   9.638  10.199 -0.4582  0.0109 -0.2796
   88MOL0     H11601   6.574   9.678  10.270  1.5847 -1.4714 -1.7260
   88MOL0     H11602   7.835  11.074   9.791 -1.0776 -0.8956 -0.9537
   88MOL0     H11603   8.044  11.208   9.761  1.0461 -1.9306 -0.3104
   88MOL0     H11604   8.503  11.194   9.329  0.0600 -1.6999  1.4587
   88MOL0     H11605   8.705  11.340   9.309 -0.5247  0.8601 -2.1294
   88MOL0     H11606   8.816  11.657   9.304 -2.2241 -0.7581 -0.8643
   88MOL0     H11607   8.858  11.491   9.299  1.9982  1.3675 -1.3554
   88MOL0     H11608   8.946  11.654   9.529 -0.7238 -0.2895  0.1988
   88MOL0     H11609   8.999  11.493   9.497  2.5423  1.3850  2.2250
   88MOL0     H11610   9.036  11.721   9.290  1.4841  1.3331  0.8679
   88MOL0     H11611   9.107  11.561   9.275  1.1175  1.2384 -0.7745
   88MOL0     H11612   9.173  11.768   9.490  0.3351  0.8190 -1.0782
   88MOL0     H11613   9.238  11.604   9.493 -2.0212 -0.7535  0.1742
   88MOL0     H11614   9.405  11.780   9.128 -0.2202  2.7841  0.7544
   88MOL0     H11615   8.512  11.588   9.614  1.5673 -0.2874  0.4986
   88MOL0     H11616   8.340  11.444   9.638  1.1563 -0.2253  0.9365
   89MOL0     O11617   9.188   3.695   0.271 -0.6659  0.3382 -0.9250
   89MOL0     C11618   9.131   3.700   0.169 -0.2217  0.1228 -0.7209
   89MOL0     O11619   8.994   3.695   0.160  0.1001 -0.8958  0.1384
   89MOL0     C11620   8.929   3.666   0.281 -1.0981  0.4286 -0.3142
   89MOL0     C11621   8.826   3.744   0.328 -0.3651  0.1234  0.2823
   89MOL0     C11622   8.768   3.722   0.454  0.2693 -0.2103  0.1366
   89MOL0     C11623   8.798   3.598   0.520  0.1875 -0.7025  0.0430
   89MOL0     O11624   8.745   3.566   0.641 -0.1209 -0.1609 -0.5435
   89MOL0     C11625   8.700   3.671   0.737 -0.7990  0.4445  0.5495
   89MOL0     C11626   8.665   3.615   0.879 -0.4424  0.0382  0.6286
   89MOL0     C11627   8.762   3.507   0.924 -0.4975  0.1385 -0.2622
   89MOL0     C11628   8.710   3.454   1.060  0.4667 -0.7050  0.2923
   89MOL0     C11629   8.820   3.365   1.138  0.0953  0.1493  0.6936
   89MOL0     C11630   8.910   3.449   1.220  0.1018 -0.3159 -0.2262
   89MOL0     C11631   9.018   3.373   1.309 -0.5031 -0.0566  0.6795
   89MOL0     C11632   8.964   3.258   1.387 -0.2835  1.0214 -0.8398
   89MOL0     N11633   8.851   3.289   1.474  0.4340  0.7771 -0.1982
   89MOL0     C11634   8.728   3.229   1.475 -0.4122  0.3802 -0.0166
   89MOL0     C11635   8.645   3.308   1.549 -0.2737 -0.2570  0.2463
   89MOL0     C11636   8.493   3.293   1.531 -0.1757 -0.6577  0.3403
   89MOL0     C11637   8.447   3.391   1.417 -0.1507 -0.4737  0.2742
   89MOL0     C11638   8.305   3.356   1.361  0.3497 -0.0895  0.7833
   89MOL0     C11639   8.191   3.397   1.450 -0.1766 -0.2989  0.4196
   89MOL0     O11640   8.179   3.313   1.561 -0.0769  0.4726 -0.0694
   89MOL0     C11641   8.071   3.339   1.648  0.1920  0.0248  0.4152
   89MOL0     C11642   7.985   3.445   1.631 -0.1005 -0.3143 -0.2895
   89MOL0     C11643   7.888   3.475   1.728 -0.3078  0.5118  0.3918
   89MOL0     C11644   7.867   3.393   1.835  0.6687  0.8685 -1.0130
   89MOL0     C11645   7.741   3.407   1.925  0.2546 -0.4536  0.6178
   89MOL0     O11646   7.658   3.508   1.904 -1.4490 -0.5149  0.5128
   89MOL0     C11647   7.551   3.516   1.988  0.9146  0.8172  0.5749
   89MOL0     C11648   7.453   3.417   1.994 -0.1727 -0.3216 -0.6370
   89MOL0     C11649   7.332   3.430   2.067  0.0975  0.7063 -0.0122
   89MOL0     C11650   7.312   3.545   2.140 -0.7786 -1.0762  0.1146
   89MOL0     O11651   7.202   3.548   2.226 -1.7543 -0.0243  0.0617
   89MOL0     C11652   7.127   3.663   2.247  1.2570  0.2886  0.2315
   89MOL0     C11653   7.045   3.707   2.118 -0.5497  0.1528 -0.4357
   89MOL0     C11654   6.917   3.624   2.079 -0.2216 -0.7162 -0.0945
   89MOL0     C11655   6.810   3.638   2.192 -0.0346  1.0124  0.9614
   89MOL0     C11656   6.680   3.566   2.150  0.0306  0.5286  0.4737
   89MOL0     C11657   6.570   3.588   2.254 -0.1531  0.1651  0.2829
   89MOL0     C11658   6.439   3.513   2.208 -0.5482  0.4029  0.9258
   89MOL0     C11659   6.321   3.541   2.297 -0.0799 -0.2671 -0.4523
   89MOL0    Cl11660   6.330   3.419   2.431 -0.2041  0.2577 -0.0065
   89MOL0     C11661   7.408   3.653   2.132 -0.2338  0.7392  0.1382
   89MOL0     C11662   7.519   3.639   2.044  0.3571  0.1583  0.0390
   89MOL0     O11663   7.723   3.324   2.008 -1.0606 -0.8278  0.1426
   89MOL0     C11664   7.961   3.291   1.860  0.7372 -0.1418  0.6381
   89MOL0     C11665   8.053   3.270   1.768 -0.1476  0.0174  0.1187
   89MOL0     N11666   8.724   3.416   1.587 -0.6693 -0.0880 -0.5746
   89MOL0     N11667   8.852   3.399   1.549  0.1640 -0.2223  0.2812
   89MOL0     C11668   8.889   3.510   0.463 -0.4116 -0.5859  0.1044
   89MOL0     C11669   8.952   3.541   0.343 -0.3715 -0.3142  0.3103
   89MOL0     C11670   9.203   3.718   0.040  0.2929 -0.3811  0.2187
   89MOL0     C11671   9.341   3.691   0.040  0.3866 -0.3812  0.6468
   89MOL0     C11672   9.417   3.710  -0.077 -0.3256  0.1392 -0.4026
   89MOL0     C11673   9.353   3.746  -0.194 -0.6194 -0.6291  0.2033
   89MOL0     O11674   9.430   3.754  -0.310 -0.7418  0.6924 -0.2291
   89MOL0     C11675   9.366   3.793  -0.432 -0.3260 -0.4596  0.2192
   89MOL0     C11676   9.292   3.680  -0.508 -0.4795 -0.2633 -0.0120
   89MOL0     C11677   9.224   3.730  -0.644  0.2854 -0.0880 -0.6777
   89MOL0     C11678   9.325   3.765  -0.756 -0.0614  0.3574 -0.5259
   89MOL0     C11679   9.261   3.784  -0.884  0.6835 -0.3290 -0.9640
   89MOL0     C11680   9.220   3.793  -0.993  0.0860 -0.8449  0.5436
   89MOL0     C11681   9.218   3.776  -0.187  0.0688 -0.6270  0.3067
   89MOL0     C11682   9.144   3.750  -0.076 -0.7058 -0.0171 -0.2163
   89MOL0     H11683   8.809   3.830   0.264 -0.3677 -0.8685 -1.0918
   89MOL0     H11684   8.691   3.790   0.489 -1.5385 -1.6594 -0.8417
   89MOL0     H11685   8.611   3.711   0.687 -0.0657  0.8545 -0.4511
   89MOL0     H11686   8.760   3.762   0.740 -0.2408  0.2886 -2.6110
   89MOL0     H11687   8.575   3.553   0.879 -0.7949  0.4873 -1.1703
   89MOL0     H11688   8.652   3.704   0.942 -1.0239  3.2353 -3.5104
   89MOL0     H11689   8.862   3.549   0.942 -1.0678  1.3448  0.2152
   89MOL0     H11690   8.764   3.429   0.848 -0.9466  0.5156 -0.6649
   89MOL0     H11691   8.667   3.534   1.121 -3.4925 -1.3998 -1.2775
   89MOL0     H11692   8.628   3.390   1.025  0.0543 -0.0640  0.0649
   89MOL0     H11693   8.879   3.311   1.064 -0.0216  0.6644  0.2208
   89MOL0     H11694   8.757   3.291   1.189 -2.0744  1.2760 -0.1966
   89MOL0     H11695   8.852   3.515   1.285  0.8173 -0.3777  0.5018
   89MOL0     H11696   8.974   3.515   1.161 -2.3575  1.1163 -1.4144
   89MOL0     H11697   9.103   3.340   1.248 -0.1505  4.8306 -1.9989
   89MOL0     H11698   9.068   3.451   1.368  0.0002 -2.0118  3.0002
   89MOL0     H11699   9.045   3.220   1.450 -0.7093  0.0800 -0.8476
   89MOL0     H11700   8.939   3.183   1.312  0.1718  0.8290 -0.8041
   89MOL0     H11701   8.700   3.146   1.411  1.1965 -2.7360  2.9843
   89MOL0     H11702   8.448   3.338   1.620  0.1183 -0.4187  0.3665
   89MOL0     H11703   8.454   3.193   1.508 -0.5634 -0.9377  2.1197
   89MOL0     H11704   8.508   3.371   1.329 -0.5170  0.4267 -0.1942
   89MOL0     H11705   8.456   3.495   1.449  0.1000 -0.7656  1.1904
   89MOL0     H11706   8.286   3.416   1.271  0.4367  0.3522  1.0546
   89MOL0     H11707   8.292   3.250   1.338 -1.4745 -0.9813  4.9601
   89MOL0     H11708   8.101   3.397   1.387  0.2216  1.0289 -0.1870
   89MOL0     H11709   8.205   3.499   1.486 -0.4371 -0.1984  0.2460
   89MOL0     H11710   7.989   3.515   1.549 -0.2319  2.4365  1.9160
   89MOL0     H11711   7.841   3.572   1.712 -1.8264 -0.2222  0.2302
   89MOL0     H11712   7.470   3.326   1.938 -1.5707 -1.4184  0.6483
   89MOL0     H11713   7.255   3.355   2.075 -1.3788  1.9290 -1.8835
   89MOL0     H11714   7.189   3.750   2.271  0.0269  1.4299 -0.6011
   89MOL0     H11715   7.060   3.646   2.332  2.5455  1.0729  1.4423
   89MOL0     H11716   7.110   3.705   2.030 -2.8593 -0.7916 -2.2568
   89MOL0     H11717   7.017   3.812   2.136  0.6301  0.5523 -0.8320
   89MOL0     H11718   6.954   3.522   2.066  0.4450 -0.3953 -0.7636
   89MOL0     H11719   6.878   3.672   1.989  1.6251  1.9450  0.4045
   89MOL0     H11720   6.851   3.573   2.270 -1.9981 -1.8978 -0.2691
   89MOL0     H11721   6.800   3.744   2.216  1.2765  0.9936  1.6892
   89MOL0     H11722   6.691   3.459   2.131  1.0316  0.5483  0.9007
   89MOL0     H11723   6.647   3.609   2.055  1.8566 -1.7330 -1.3067
   89MOL0     H11724   6.555   3.696   2.250  0.7461  0.3040 -3.1503
   89MOL0     H11725   6.597   3.549   2.352  4.3340 -1.3311 -1.2588
   89MOL0     H11726   6.410   3.537   2.105 -0.1266  1.5532  1.0542
   89MOL0     H11727   6.452   3.405   2.201 -0.2222  0.3573  2.1042
   89MOL0     H11728   6.222   3.549   2.253  0.5922 -0.9154 -2.1948
   89MOL0     H11729   6.344   3.638   2.342 -3.5353 -0.4138  2.0120
   89MOL0     H11730   7.394   3.756   2.163  0.7593  1.4261 -1.5479
   89MOL0     H11731   7.593   3.718   2.045 -0.7401  1.2552 -1.1607
   89MOL0     H11732   7.954   3.233   1.951  0.1160 -1.0520  0.0187
   89MOL0     H11733   8.119   3.186   1.791 -0.0651  0.3203  1.0451
   89MOL0     H11734   8.913   3.418   0.515 -2.3219 -2.2537 -1.7858
   89MOL0     H11735   9.018   3.471   0.292  0.9649  2.1121 -1.5357
   89MOL0     H11736   9.389   3.669   0.135  1.4979  0.1796  0.2316
   89MOL0     H11737   9.523   3.686  -0.080 -0.7361 -2.7884  2.4795
   89MOL0     H11738   9.444   3.833  -0.497  0.5267 -0.1198  1.4256
   89MOL0     H11739   9.286   3.863  -0.409  0.9483  1.1651 -0.1443
   89MOL0     H11740   9.353   3.590  -0.519 -1.0869 -0.7081  0.2772
   89MOL0     H11741   9.211   3.643  -0.446 -2.3819 -2.4636 -3.4643
   89MOL0     H11742   9.155   3.813  -0.626 -1.1053 -0.9308 -1.8690
   89MOL0     H11743   9.168   3.650  -0.693 -0.2507  1.6654 -3.0996
   89MOL0     H11744   9.381   3.854  -0.725  0.0410 -0.4445  1.7814
   89MOL0     H11745   9.393   3.681  -0.773  0.8217  1.1860 -1.2120
   89MOL0     H11746   9.175   3.792  -1.090 -1.2717 -4.4183  1.0628
   89MOL0     H11747   9.147   3.799  -0.266 -1.7715  0.9075  2.2990
   89MOL0     H11748   9.037   3.768  -0.071 -0.4316  1.6268  0.5120
   90MOL0     O11749   4.038   7.917  10.256 -0.3390  0.3357  0.7119
   90MOL0     C11750   4.071   8.013  10.332 -0.9613 -0.5327  0.5652
   90MOL0     O11751   4.000   8.068  10.436 -0.2398  0.4886  0.1675
   90MOL0     C11752   3.899   8.004  10.495  1.0561  0.7177  0.1074
   90MOL0     C11753   3.924   7.871  10.549  1.5152 -0.6314 -0.0356
   90MOL0     C11754   3.833   7.804  10.628  0.7618  0.7806 -0.0416
   90MOL0     C11755   3.701   7.851  10.656 -0.1854  0.1151  0.3626
   90MOL0     O11756   3.623   7.768  10.733 -0.0947  0.1827 -0.0124
   90MOL0     C11757   3.547   7.833  10.834 -0.2785 -0.1729 -0.4130
   90MOL0     C11758   3.637   7.867  10.956  0.2592 -0.1779  0.1993
   90MOL0     C11759   3.686   7.738  11.027 -0.3819  0.4446  0.3758
   90MOL0     C11760   3.810   7.760  11.107  0.6366 -0.5640 -0.1607
   90MOL0     C11761   3.929   7.694  11.030  0.6966 -0.5620 -0.1086
   90MOL0     C11762   4.063   7.711  11.096 -0.3813  0.3360 -0.6504
   90MOL0     C11763   4.185   7.649  11.018 -0.1002 -1.0872 -0.5196
   90MOL0     C11764   4.197   7.495  11.024  0.1611  1.0576 -0.4746
   90MOL0     N11765   4.307   7.442  10.945 -0.4829 -0.2206  0.6748
   90MOL0     C11766   4.310   7.354  10.843  0.4855  0.3714  0.5179
   90MOL0     C11767   4.436   7.357  10.793  0.4433 -0.7989 -0.3819
   90MOL0     C11768   4.488   7.272  10.678 -1.0151 -0.0555  0.4416
   90MOL0     C11769   4.594   7.347  10.592 -0.6221  0.2625 -0.5521
   90MOL0     C11770   4.665   7.266  10.488  0.6593  0.5267  0.9938
   90MOL0     C11771   4.744   7.365  10.411 -0.4083  0.0267  0.5544
   90MOL0     O11772   4.821   7.297  10.306 -0.0693 -0.6323 -0.9456
   90MOL0     C11773   4.942   7.350  10.256  0.6624  0.2029  0.4458
   90MOL0     C11774   4.978   7.485  10.287 -0.2933  0.3414 -0.3798
   90MOL0     C11775   5.095   7.528  10.240 -0.2322 -0.1416  0.1671
   90MOL0     C11776   5.180   7.441  10.161  0.0453 -0.4586  0.5067
   90MOL0     C11777   5.317   7.488  10.124 -1.0970 -0.6317  0.3776
   90MOL0     O11778   5.366   7.443  10.003  0.1143  0.7896  0.2044
   90MOL0     C11779   5.502   7.445   9.984  0.4284 -0.9996  0.4602
   90MOL0     C11780   5.589   7.558   9.991  0.1046  0.5309 -0.6754
   90MOL0     C11781   5.726   7.544   9.971  0.0373  0.2430  0.4874
   90MOL0     C11782   5.782   7.421   9.923  0.4527 -0.1925  0.3267
   90MOL0     O11783   5.912   7.410   9.870  0.5894 -0.7359  0.2517
   90MOL0     C11784   5.983   7.532   9.838 -0.4599 -0.5450  0.4023
   90MOL0     C11785   6.119   7.492   9.788  0.0662 -0.9372  1.0672
   90MOL0     C11786   6.213   7.605   9.751 -0.4538 -0.4109  1.0959
   90MOL0     C11787   6.336   7.559   9.681 -1.0115  0.0456 -1.1751
   90MOL0     C11788   6.426   7.470   9.771  0.1465 -0.0794  0.0243
   90MOL0     C11789   6.567   7.471   9.717 -0.0933  0.6241  0.9254
   90MOL0     C11790   6.657   7.363   9.795 -0.2075  0.8136 -0.1194
   90MOL0     C11791   6.807   7.356   9.736  0.3258 -0.3547  0.4002
   90MOL0    Cl11792   6.909   7.290   9.865 -0.2862  0.1521 -0.0232
   90MOL0     C11793   5.698   7.312   9.922  1.3528 -0.6029  1.0447
   90MOL0     C11794   5.563   7.325   9.945  0.3682  0.3721  0.6355
   90MOL0     O11795   5.382   7.563  10.201  0.6808  0.0211 -0.6903
   90MOL0     C11796   5.140   7.313  10.129 -0.3941  0.7331  0.3859
   90MOL0     C11797   5.012   7.265  10.173 -0.6508 -0.2077 -0.4997
   90MOL0     N11798   4.511   7.440  10.873  0.4280 -0.2599 -0.0317
   90MOL0     N11799   4.431   7.509  10.931 -0.2223 -0.3169 -0.3057
   90MOL0     C11800   3.672   7.980  10.599 -0.1107  0.1140 -0.0047
   90MOL0     C11801   3.774   8.054  10.520  0.4478 -0.4112 -0.3808
   90MOL0     C11802   4.190   8.096  10.304 -0.5432 -0.4753 -0.3743
   90MOL0     C11803   4.296   8.056  10.219  0.1606  0.4972  1.6981
   90MOL0     C11804   4.410   8.136  10.197  0.3532 -0.3004  0.2224
   90MOL0     C11805   4.423   8.259  10.265 -1.0450  0.0335  1.1019
   90MOL0     O11806   4.539   8.326  10.226  0.4987  0.2394  0.3063
   90MOL0     C11807   4.578   8.452  10.283  1.0425 -0.3776 -0.5272
   90MOL0     C11808   4.661   8.541  10.192  0.8946  0.2087  0.1915
   90MOL0     C11809   4.661   8.497  10.044  0.3915 -0.1275  0.7722
   90MOL0     C11810   4.723   8.601   9.949 -0.0171 -0.3328  0.0402
   90MOL0     C11811   4.823   8.682  10.009 -0.3632 -1.6110  0.2767
   90MOL0     C11812   4.908   8.757  10.053  0.4781 -0.7917  0.0299
   90MOL0     C11813   4.312   8.305  10.341  0.1847 -0.1118  0.0564
   90MOL0     C11814   4.205   8.222  10.365  0.3979 -0.9581 -0.1288
   90MOL0     H11815   4.000   7.803  10.511  1.4118 -2.1885  2.3261
   90MOL0     H11816   3.868   7.711  10.672  0.2718  0.9879  0.8151
   90MOL0     H11817   3.477   7.753  10.861  2.8462 -2.6662  1.0412
   90MOL0     H11818   3.503   7.925  10.795  1.2416  0.1967 -1.3667
   90MOL0     H11819   3.575   7.919  11.030 -2.6284 -2.3903 -0.4513
   90MOL0     H11820   3.719   7.935  10.932  1.7271 -1.9641 -0.1319
   90MOL0     H11821   3.695   7.659  10.952 -1.6235  1.0306 -0.4336
   90MOL0     H11822   3.610   7.693  11.092 -1.2696  0.2403 -0.7683
   90MOL0     H11823   3.827   7.868  11.121 -0.0275 -0.4202 -0.4394
   90MOL0     H11824   3.800   7.709  11.203 -1.9018  0.3472  0.1264
   90MOL0     H11825   3.936   7.729  10.926 -1.3350 -3.8885 -1.5139
   90MOL0     H11826   3.899   7.590  11.017 -1.3118 -0.1479  0.8372
   90MOL0     H11827   4.067   7.682  11.201  0.8347 -0.3515 -0.8668
   90MOL0     H11828   4.081   7.818  11.086 -0.0550  0.2733 -0.7378
   90MOL0     H11829   4.186   7.683  10.914 -2.3575 -0.3164 -0.3340
   90MOL0     H11830   4.277   7.688  11.064 -0.1159  1.4732 -2.4618
   90MOL0     H11831   4.099   7.453  10.997  0.8353 -1.6083  0.8878
   90MOL0     H11832   4.222   7.478  11.129 -0.9096 -0.1891 -0.3938
   90MOL0     H11833   4.234   7.299  10.788  1.0322 -1.0342  1.1226
   90MOL0     H11834   4.407   7.241  10.612  0.7362  0.7669 -2.2468
   90MOL0     H11835   4.535   7.176  10.703 -1.8793 -1.4996 -2.8798
   90MOL0     H11836   4.662   7.400  10.659 -1.6387  0.6922  0.1646
   90MOL0     H11837   4.532   7.424  10.545 -2.2117  0.4398  1.6574
   90MOL0     H11838   4.730   7.189  10.529 -0.6867 -0.4639  1.3453
   90MOL0     H11839   4.592   7.225  10.418  0.5756  2.3913 -0.0830
   90MOL0     H11840   4.804   7.427  10.479  1.8539 -2.0933  0.6277
   90MOL0     H11841   4.686   7.429  10.345  0.2551 -1.4508 -1.5471
   90MOL0     H11842   4.927   7.551  10.356  0.2557 -0.4833  0.8574
   90MOL0     H11843   5.125   7.632  10.249  0.6190 -0.3922  0.3171
   90MOL0     H11844   5.538   7.649  10.021 -3.0713 -1.0840 -0.7641
   90MOL0     H11845   5.794   7.628   9.985  0.2603  0.2917 -0.7169
   90MOL0     H11846   5.997   7.587   9.931  0.8422 -0.2658  0.0664
   90MOL0     H11847   5.921   7.594   9.773 -2.6478  0.2970  3.1203
   90MOL0     H11848   6.097   7.429   9.701  1.7882  1.2076 -1.0328
   90MOL0     H11849   6.169   7.428   9.861  2.3938 -0.3971  0.0350
   90MOL0     H11850   6.234   7.671   9.836 -0.1712  0.8291  0.0858
   90MOL0     H11851   6.160   7.670   9.681 -0.4176 -2.6378 -1.1079
   90MOL0     H11852   6.307   7.502   9.592 -2.1215 -0.1656 -0.6869
   90MOL0     H11853   6.401   7.641   9.648  1.1082 -0.8388  0.6136
   90MOL0     H11854   6.382   7.370   9.768  2.7092 -1.3447  1.5821
   90MOL0     H11855   6.425   7.502   9.876 -0.5287  1.4037 -0.4050
   90MOL0     H11856   6.626   7.563   9.725  2.7460 -1.0334  0.3837
   90MOL0     H11857   6.558   7.445   9.611 -0.4701 -0.0763  1.1176
   90MOL0     H11858   6.653   7.402   9.897 -4.6080  3.0091 -0.9289
   90MOL0     H11859   6.610   7.264   9.803 -0.6723  1.1650  2.2425
   90MOL0     H11860   6.843   7.455   9.707  4.4315 -0.7799  3.1784
   90MOL0     H11861   6.806   7.289   9.650 -1.1311 -1.2705  1.0787
   90MOL0     H11862   5.747   7.220   9.893  1.5665 -0.6838  1.6538
   90MOL0     H11863   5.498   7.239   9.939  0.7303  0.0009  1.8084
   90MOL0     H11864   5.209   7.251  10.072 -1.3022  2.2893 -2.6150
   90MOL0     H11865   4.970   7.171  10.139 -0.9036 -0.7991  1.3303
   90MOL0     H11866   3.580   8.029  10.630  0.1211  0.6286 -0.1266
   90MOL0     H11867   3.739   8.151  10.485 -1.2879 -1.2428 -1.0520
   90MOL0     H11868   4.288   7.960  10.169  1.2674  0.4427  1.6070
   90MOL0     H11869   4.487   8.105  10.126 -0.2183  2.0844 -1.5879
   90MOL0     H11870   4.641   8.445  10.372 -2.1013  2.7940  2.2728
   90MOL0     H11871   4.493   8.517  10.307  1.0764 -0.4968 -0.0783
   90MOL0     H11872   4.629   8.645  10.205 -3.0033 -0.5896 -1.6256
   90MOL0     H11873   4.766   8.547  10.221  0.7994 -0.5169  0.7266
   90MOL0     H11874   4.563   8.471  10.002  0.6753  2.0041 -1.3962
   90MOL0     H11875   4.723   8.406  10.039  1.3813  0.5531  0.4981
   90MOL0     H11876   4.773   8.548   9.867  2.2225 -2.8387  2.8170
   90MOL0     H11877   4.640   8.657   9.904 -0.3558 -0.5208  0.4204
   90MOL0     H11878   4.971   8.833  10.096 -0.8699 -0.7290  2.0521
   90MOL0     H11879   4.308   8.409  10.373  0.1653 -0.1063  0.0380
   90MOL0     H11880   4.124   8.264  10.425  2.3708  1.5680  0.9438
   91MOL0     O11881   8.240   5.259   3.730  0.5012 -0.8575 -0.6373
   91MOL0     C11882   8.218   5.374   3.770  0.4611 -0.2458  0.1620
   91MOL0     O11883   8.106   5.451   3.737 -0.1256  0.1809  0.5219
   91MOL0     C11884   8.028   5.403   3.636  0.0323  0.0658  0.1603
   91MOL0     C11885   8.014   5.481   3.522  0.2834 -0.8475 -0.7614
   91MOL0     C11886   7.924   5.446   3.420  0.4228 -0.5335  0.0009
   91MOL0     C11887   7.871   5.315   3.429  1.2051 -0.9254  0.6904
   91MOL0     O11888   7.771   5.285   3.339 -0.5265  0.6531  0.5522
   91MOL0     C11889   7.791   5.296   3.195 -0.1236 -0.3662 -0.7954
   91MOL0     C11890   7.864   5.187   3.116 -0.3683  0.1391 -0.1047
   91MOL0     C11891   7.873   5.221   2.968 -0.0446  0.2526 -1.1053
   91MOL0     C11892   7.740   5.176   2.897 -0.6663  0.3374 -0.0640
   91MOL0     C11893   7.744   5.025   2.862  0.4926  0.5728 -0.4891
   91MOL0     C11894   7.601   4.971   2.824 -0.6102 -0.2377  0.0699
   91MOL0     C11895   7.491   4.982   2.925 -0.3901  0.1534  0.2094
   91MOL0     C11896   7.370   4.897   2.863  0.1666 -0.6015  0.3915
   91MOL0     N11897   7.254   4.884   2.951  0.0113 -1.3475 -0.7622
   91MOL0     C11898   7.123   4.880   2.914 -0.1077 -0.1984 -0.5204
   91MOL0     C11899   7.054   4.845   3.022  0.4385  0.5536  0.3898
   91MOL0     C11900   6.906   4.802   3.029 -0.4483 -0.1043  0.0375
   91MOL0     C11901   6.883   4.670   2.933 -0.7146 -0.0006 -0.6576
   91MOL0     C11902   6.731   4.637   2.914  0.3429  0.2086  0.2160
   91MOL0     C11903   6.662   4.614   3.049 -0.1911  1.1430  1.5458
   91MOL0     O11904   6.520   4.586   3.031 -0.0192 -0.1810 -0.3300
   91MOL0     C11905   6.425   4.686   3.026  0.7525 -0.2729 -0.5869
   91MOL0     C11906   6.289   4.664   3.031  0.0796  0.7536 -0.6801
   91MOL0     C11907   6.198   4.772   3.015 -0.0008 -0.3126  0.2971
   91MOL0     C11908   6.240   4.908   3.015  1.2872 -0.5340 -1.1287
   91MOL0     C11909   6.153   5.022   3.020 -0.0930 -0.4289  0.1666
   91MOL0     O11910   6.211   5.138   3.024 -0.8314  0.1110  0.4655
   91MOL0     C11911   6.144   5.255   3.018  0.0436  0.4924  1.5037
   91MOL0     C11912   6.207   5.358   2.946  0.3873  0.5933  0.1204
   91MOL0     C11913   6.144   5.487   2.963 -0.8251  0.2500 -0.6411
   91MOL0     C11914   6.034   5.513   3.048 -0.4180 -0.3009  0.1984
   91MOL0     O11915   5.992   5.645   3.057 -0.1799 -0.3187  0.0863
   91MOL0     C11916   5.962   5.699   2.928 -0.5131  0.6050 -0.5063
   91MOL0     C11917   5.862   5.623   2.839  0.4313  0.6310  0.6701
   91MOL0     C11918   5.849   5.699   2.702 -0.2507  0.1348  0.8307
   91MOL0     C11919   5.977   5.709   2.615 -0.1384 -0.2851  0.1513
   91MOL0     C11920   5.954   5.755   2.476  0.3735  0.5274 -0.3478
   91MOL0     C11921   6.077   5.825   2.413  1.2921  0.0668  0.1830
   91MOL0     C11922   6.195   5.731   2.403  0.6685 -0.2893 -0.9954
   91MOL0     C11923   6.308   5.803   2.323 -1.0139 -0.3089  0.0480
   91MOL0    Cl11924   6.443   5.690   2.323 -0.5172  0.2875  0.0180
   91MOL0     C11925   5.978   5.405   3.115  0.9973  0.1002 -0.2167
   91MOL0     C11926   6.027   5.272   3.098  0.6766 -1.1478 -0.7970
   91MOL0     O11927   6.031   5.007   3.012  0.6232 -0.6548  0.6662
   91MOL0     C11928   6.375   4.925   3.029  0.1173 -0.1006 -0.6778
   91MOL0     C11929   6.468   4.821   3.025  0.4983  0.2010  0.3992
   91MOL0     N11930   7.150   4.826   3.122 -0.0324 -0.1021  0.1445
   91MOL0     N11931   7.266   4.847   3.078 -0.6008 -0.0518 -0.2471
   91MOL0     C11932   7.893   5.239   3.535 -0.3713  0.3902  0.2916
   91MOL0     C11933   7.967   5.281   3.647  0.5378  0.4907  0.0585
   91MOL0     C11934   8.312   5.430   3.862 -0.9153 -0.6875 -0.8662
   91MOL0     C11935   8.415   5.353   3.928 -0.1009  0.3610  0.5640
   91MOL0     C11936   8.520   5.409   3.998  0.5149  0.2725 -0.3741
   91MOL0     C11937   8.527   5.551   4.011 -1.2062 -0.7850 -0.4067
   91MOL0     O11938   8.623   5.610   4.088  0.6061 -0.4715  0.0139
   91MOL0     C11939   8.745   5.557   4.122 -0.4120  0.8807 -0.4461
   91MOL0     C11940   8.837   5.526   3.995 -0.5570 -0.4044 -0.0221
   91MOL0     C11941   8.879   5.656   3.932  0.1111 -0.0589  0.5978
   91MOL0     C11942   8.909   5.643   3.783 -0.4470 -0.4300  0.7834
   91MOL0     C11943   8.921   5.769   3.702 -0.2207  0.2358 -1.0169
   91MOL0     C11944   8.948   5.867   3.629  0.2028 -0.1861 -0.5493
   91MOL0     C11945   8.425   5.630   3.964  0.5365  0.8131  1.0184
   91MOL0     C11946   8.315   5.567   3.891  0.5409 -0.1192  0.5681
   91MOL0     H11947   8.056   5.581   3.521 -3.2312  0.8082  0.3413
   91MOL0     H11948   7.884   5.517   3.348  0.3333 -1.0343 -0.4473
   91MOL0     H11949   7.837   5.391   3.166 -1.8234 -0.4338 -4.0748
   91MOL0     H11950   7.688   5.304   3.160 -0.3754  1.9939  0.2665
   91MOL0     H11951   7.826   5.090   3.151 -2.4111  0.5347 -1.0729
   91MOL0     H11952   7.972   5.184   3.133 -0.2630  0.7185 -0.6403
   91MOL0     H11953   7.957   5.167   2.922 -0.1213 -0.2098 -0.7126
   91MOL0     H11954   7.899   5.326   2.948  0.9379  0.3754  0.5846
   91MOL0     H11955   7.656   5.183   2.967 -1.2372 -5.2322  0.2846
   91MOL0     H11956   7.728   5.238   2.808 -1.3070 -2.0042 -1.6808
   91MOL0     H11957   7.787   4.979   2.952 -3.1989  1.3190  1.8671
   91MOL0     H11958   7.810   5.003   2.777  0.5578 -2.0714  0.1498
   91MOL0     H11959   7.608   4.867   2.789  1.6590 -0.1862  0.1892
   91MOL0     H11960   7.572   5.034   2.740  1.1013  3.4501  2.0240
   91MOL0     H11961   7.517   4.929   3.017 -0.6224 -0.4220 -0.0570
   91MOL0     H11962   7.468   5.088   2.940 -0.4389  0.4684 -1.8424
   91MOL0     H11963   7.412   4.798   2.840  2.0197  0.1445  0.3349
   91MOL0     H11964   7.342   4.959   2.778  0.9096  1.8674  1.8481
   91MOL0     H11965   7.078   4.892   2.817 -2.5895 -0.6544  0.5051
   91MOL0     H11966   6.837   4.876   2.989  1.9511 -0.0697 -4.8019
   91MOL0     H11967   6.884   4.783   3.135 -1.1398  2.7248  0.4739
   91MOL0     H11968   6.925   4.587   2.990 -0.0731  0.4427 -0.4797
   91MOL0     H11969   6.933   4.691   2.838 -3.3656  0.1561 -2.1272
   91MOL0     H11970   6.676   4.707   2.851 -4.6543 -3.4376 -0.0360
   91MOL0     H11971   6.730   4.538   2.867 -0.2907  0.3204 -0.0168
   91MOL0     H11972   6.681   4.704   3.107  0.8735  3.5423 -2.1437
   91MOL0     H11973   6.713   4.528   3.092  2.6024  1.2234 -1.2466
   91MOL0     H11974   6.248   4.568   3.061  2.7320 -0.2232  0.1232
   91MOL0     H11975   6.092   4.749   3.014 -0.0566 -0.1510  1.1725
   91MOL0     H11976   6.296   5.343   2.886  0.2314 -2.0669  0.4279
   91MOL0     H11977   6.198   5.560   2.903  1.5566 -1.9523 -1.3711
   91MOL0     H11978   6.053   5.731   2.875 -0.3365  0.5624 -0.2351
   91MOL0     H11979   5.915   5.791   2.962  2.0470  1.1548  1.9584
   91MOL0     H11980   5.764   5.601   2.881 -0.6523  0.9177 -1.5617
   91MOL0     H11981   5.907   5.525   2.820 -2.8226 -0.6526 -1.3428
   91MOL0     H11982   5.814   5.800   2.721 -4.0786 -0.5159 -1.5578
   91MOL0     H11983   5.779   5.639   2.643 -1.0751  0.1429  1.7834
   91MOL0     H11984   6.046   5.787   2.651  0.7273 -1.9148  2.2363
   91MOL0     H11985   6.040   5.620   2.611  1.7083  0.9345  0.2618
   91MOL0     H11986   5.871   5.825   2.465  0.5577  0.6697 -0.8762
   91MOL0     H11987   5.925   5.664   2.423 -2.6322  1.0252  0.2522
   91MOL0     H11988   6.097   5.912   2.477 -0.4397  0.0823  0.7736
   91MOL0     H11989   6.040   5.868   2.320  1.4464  2.0268  0.9603
   91MOL0     H11990   6.233   5.707   2.503 -0.2024  2.1856  0.0054
   91MOL0     H11991   6.170   5.640   2.347  1.6243 -0.0841 -1.7878
   91MOL0     H11992   6.346   5.899   2.360  0.2115 -0.8348  0.2046
   91MOL0     H11993   6.279   5.824   2.220 -1.3460  0.5522  0.3023
   91MOL0     H11994   5.899   5.412   3.189 -0.2552 -1.6357 -1.3039
   91MOL0     H11995   5.979   5.199   3.162  3.2009 -0.1727  2.5055
   91MOL0     H11996   6.426   5.020   3.036 -1.4389  0.7978 -1.1548
   91MOL0     H11997   6.572   4.853   3.026  0.2976  0.8537  1.2380
   91MOL0     H11998   7.827   5.153   3.542 -0.3945  0.4582  0.8995
   91MOL0     H11999   7.966   5.222   3.738  1.3094 -0.8403 -0.7592
   91MOL0     H12000   8.419   5.245   3.918 -0.2357  0.3579  0.5420
   91MOL0     H12001   8.593   5.348   4.050 -0.2884  0.2648  0.7823
   91MOL0     H12002   8.737   5.461   4.173  0.9952  0.7821 -0.3651
   91MOL0     H12003   8.811   5.629   4.171  0.3476  1.9220 -2.8128
   91MOL0     H12004   8.921   5.459   4.020 -1.7482 -3.1061 -2.6752
   91MOL0     H12005   8.780   5.465   3.925 -1.5120 -0.1313  0.4967
   91MOL0     H12006   8.970   5.678   3.989 -0.1283  1.4377  0.4504
   91MOL0     H12007   8.810   5.740   3.946  0.3091 -0.0509  1.5741
   91MOL0     H12008   9.008   5.597   3.776 -0.6590 -0.6940 -0.7190
   91MOL0     H12009   8.835   5.582   3.732 -0.8553  0.9201 -0.3070
   91MOL0     H12010   8.958   5.957   3.571 -0.2569  1.5743  1.9378
   91MOL0     H12011   8.415   5.736   3.985  2.4666  1.0092  1.1067
   91MOL0     H12012   8.246   5.634   3.840  0.6654  1.1773  2.0403
   92MOL0     O12013  10.042   7.252   6.044 -0.4586  0.1539  0.0963
   92MOL0     C12014  10.090   7.319   5.960 -0.1814 -0.1930  0.3426
   92MOL0     O12015  10.027   7.424   5.899  0.5862 -0.1307 -0.2618
   92MOL0     C12016   9.887   7.435   5.915 -0.2129  0.5184  0.1040
   92MOL0     C12017   9.803   7.319   5.892  0.1235 -0.3696 -1.0532
   92MOL0     C12018   9.661   7.331   5.909  0.6981 -0.6415 -0.0694
   92MOL0     C12019   9.609   7.446   5.966  0.1750 -0.4538 -0.1996
   92MOL0     O12020   9.478   7.445   5.989 -0.0140  0.3623  0.2875
   92MOL0     C12021   9.422   7.518   6.104 -0.1378 -0.4443  0.1647
   92MOL0     C12022   9.281   7.468   6.117  0.4405  0.0752 -0.0098
   92MOL0     C12023   9.216   7.526   6.249 -0.5298  0.1119 -0.1906
   92MOL0     C12024   9.310   7.498   6.375 -0.0779 -0.2889  1.1207
   92MOL0     C12025   9.229   7.487   6.506 -0.0758  0.3971  0.2468
   92MOL0     C12026   9.160   7.624   6.548 -0.7440  0.2466  0.1746
   92MOL0     C12027   9.269   7.712   6.619  0.3884 -0.3829  0.5548
   92MOL0     C12028   9.205   7.848   6.645 -0.0620  0.0599 -0.3991
   92MOL0     N12029   9.187   7.908   6.513  1.5377  0.1961 -0.2237
   92MOL0     C12030   9.294   7.969   6.447  0.3114  0.8521 -0.6850
   92MOL0     C12031   9.237   8.041   6.350 -0.5563 -0.3740 -0.1755
   92MOL0     C12032   9.312   8.129   6.258 -0.3464 -1.4436  0.1883
   92MOL0     C12033   9.282   8.088   6.108 -0.3196  0.4038  0.5337
   92MOL0     C12034   9.332   8.200   6.008  0.4254 -0.0544 -0.6504
   92MOL0     C12035   9.490   8.240   6.019  0.1027 -0.4669 -0.0862
   92MOL0     O12036   9.557   8.120   6.001 -0.2604 -0.1581  0.2763
   92MOL0     C12037   9.696   8.118   6.024  0.4737 -0.8507 -0.3291
   92MOL0     C12038   9.745   7.986   6.040 -0.1116 -0.4749 -0.3518
   92MOL0     C12039   9.885   7.968   6.045  0.5849 -0.7647  0.5553
   92MOL0     C12040   9.973   8.075   6.032  0.6017  0.2678  0.3623
   92MOL0     C12041  10.115   8.043   6.004 -0.6639 -0.3205  0.5195
   92MOL0     O12042  10.151   7.910   5.965  0.6095 -0.7855 -0.2177
   92MOL0     C12043  10.273   7.874   5.929 -0.1782  0.8564 -1.1302
   92MOL0     C12044  10.386   7.903   6.014  0.2287  0.9475 -0.7028
   92MOL0     C12045  10.509   7.859   5.985 -0.1134 -0.4429 -0.4170
   92MOL0     C12046  10.532   7.789   5.875 -0.3775 -0.5486 -0.1466
   92MOL0     O12047  10.663   7.754   5.857 -0.0253  0.2010  0.5184
   92MOL0     C12048  10.692   7.673   5.750  0.1679  0.1845  0.3483
   92MOL0     C12049  10.846   7.665   5.740 -0.4114  0.3110 -0.4980
   92MOL0     C12050  10.912   7.576   5.835 -0.6676  0.8141 -0.3317
   92MOL0     C12051  11.058   7.558   5.814 -1.4286  1.4876  0.4543
   92MOL0     C12052  11.097   7.507   5.676  0.2537 -1.0983 -0.5118
   92MOL0     C12053  11.252   7.495   5.662 -1.0936 -0.2351  0.8863
   92MOL0     C12054  11.311   7.374   5.741 -0.7119  0.2845 -1.4746
   92MOL0     C12055  11.463   7.352   5.720 -0.0212 -0.3720 -0.9120
   92MOL0    Cl12056  11.501   7.225   5.835  0.0795  0.2950 -0.1994
   92MOL0     C12057  10.422   7.753   5.795  0.2990  0.3886 -0.3782
   92MOL0     C12058  10.292   7.792   5.819  0.3356  0.1179  0.0650
   92MOL0     O12059  10.190   8.142   6.019 -0.2309  0.1820  0.5444
   92MOL0     C12060   9.922   8.202   6.026 -0.1325 -0.4494  0.0426
   92MOL0     C12061   9.778   8.226   6.032  0.0387  0.7974 -0.1626
   92MOL0     N12062   9.104   8.031   6.355  0.7143  0.2392  0.2312
   92MOL0     N12063   9.072   7.964   6.465  0.5757 -0.6646 -0.5856
   92MOL0     C12064   9.693   7.550   6.008  0.3805  0.8286 -0.5569
   92MOL0     C12065   9.833   7.557   5.972 -0.1676  1.5003  0.7621
   92MOL0     C12066  10.232   7.304   5.931  0.6167 -0.3221  0.2144
   92MOL0     C12067  10.317   7.228   6.013  0.1737 -0.4254 -0.5346
   92MOL0     C12068  10.452   7.197   5.988  0.1736 -0.2193  0.2402
   92MOL0     C12069  10.505   7.246   5.862 -0.7268  0.4265  0.6560
   92MOL0     O12070  10.636   7.235   5.825  0.4165 -0.5147  0.2124
   92MOL0     C12071  10.723   7.176   5.917  0.0409  1.0114  0.2002
   92MOL0     C12072  10.857   7.161   5.854 -0.0839  0.9683  0.6348
   92MOL0     C12073  10.965   7.081   5.927 -0.4156  0.6021  0.0389
   92MOL0     C12074  11.105   7.109   5.887  0.5214  0.3154 -1.2697
   92MOL0     C12075  11.193   7.008   5.946 -0.4595  0.5527  0.7446
   92MOL0     C12076  11.278   6.918   5.975 -0.5432 -0.0934 -0.2500
   92MOL0     C12077  10.428   7.335   5.779  0.3931 -0.2593 -1.0736
   92MOL0     C12078  10.293   7.368   5.819  0.6268  0.7468  0.6171
   92MOL0     H12079   9.858   7.233   5.855 -0.3208  0.5761 -4.2362
   92MOL0     H12080   9.606   7.239   5.888  1.9788 -1.0079 -2.0826
   92MOL0     H12081   9.414   7.624   6.078  0.0980 -0.7186 -1.1087
   92MOL0     H12082   9.486   7.501   6.191 -0.1792 -0.0819  0.2681
   92MOL0     H12083   9.272   7.360   6.102 -0.7587  0.1621 -0.0455
   92MOL0     H12084   9.225   7.506   6.031  1.6571 -0.3681 -1.0281
   92MOL0     H12085   9.115   7.492   6.271 -0.8415  1.2684  0.2256
   92MOL0     H12086   9.208   7.633   6.227 -3.0083 -0.3352 -1.8460
   92MOL0     H12087   9.367   7.406   6.361  3.6226  1.9804 -0.3651
   92MOL0     H12088   9.388   7.574   6.383  1.3126 -1.8291  3.0113
   92MOL0     H12089   9.300   7.456   6.583  1.6366  1.8704 -0.6660
   92MOL0     H12090   9.155   7.407   6.493 -0.9786  1.2525  0.0098
   92MOL0     H12091   9.097   7.592   6.631  2.4065  0.2401  2.7710
   92MOL0     H12092   9.115   7.677   6.463  1.7784  4.5964  1.2274
   92MOL0     H12093   9.301   7.671   6.715 -0.4817  1.1382  1.5377
   92MOL0     H12094   9.358   7.728   6.557 -1.1873  1.1688 -1.4335
   92MOL0     H12095   9.273   7.917   6.695  1.3071 -0.6634 -1.1926
   92MOL0     H12096   9.109   7.850   6.697 -0.4100 -2.2011 -0.8471
   92MOL0     H12097   9.398   7.973   6.478 -0.1880 -1.9791  1.8485
   92MOL0     H12098   9.421   8.121   6.268 -0.2639 -0.2223  0.3709
   92MOL0     H12099   9.280   8.233   6.273  2.5849 -0.6424  1.7546
   92MOL0     H12100   9.175   8.084   6.083 -0.6905 -0.3188  2.0795
   92MOL0     H12101   9.335   7.993   6.095  0.6091  0.8349  1.0805
   92MOL0     H12102   9.306   8.161   5.909 -2.6314 -0.8433  0.3517
   92MOL0     H12103   9.269   8.288   6.024  0.0121 -0.3391 -0.7029
   92MOL0     H12104   9.514   8.296   6.109  3.2044  0.6500 -1.5017
   92MOL0     H12105   9.514   8.305   5.935 -0.4652 -2.1065 -1.5867
   92MOL0     H12106   9.681   7.898   6.032 -0.3937 -0.3091  0.0519
   92MOL0     H12107   9.917   7.866   6.063  2.6779 -0.0848  0.9700
   92MOL0     H12108  10.380   7.964   6.104  1.1951  0.7753 -0.5104
   92MOL0     H12109  10.594   7.882   6.048  0.5506  0.3565 -1.5645
   92MOL0     H12110  10.653   7.718   5.658  2.9092  3.8758  0.7597
   92MOL0     H12111  10.649   7.574   5.767  2.1067 -0.8118 -0.2879
   92MOL0     H12112  10.885   7.767   5.751 -2.4865  0.9221  2.2304
   92MOL0     H12113  10.877   7.628   5.642  0.7236  0.7704 -0.3314
   92MOL0     H12114  10.868   7.475   5.838  2.7825 -0.8867 -1.7773
   92MOL0     H12115  10.909   7.618   5.936 -3.0650  0.4964 -0.2122
   92MOL0     H12116  11.119   7.649   5.821  1.5411 -0.4878  2.5816
   92MOL0     H12117  11.103   7.481   5.877 -2.4674  1.7728  1.5771
   92MOL0     H12118  11.067   7.582   5.603  3.6609 -0.1879 -1.1346
   92MOL0     H12119  11.041   7.414   5.657  0.0225 -0.8825 -0.9117
   92MOL0     H12120  11.299   7.590   5.690 -0.3425 -0.5742  0.8163
   92MOL0     H12121  11.285   7.484   5.558  0.9858  3.1093  1.0560
   92MOL0     H12122  11.305   7.383   5.850  2.1707 -2.1997 -0.9869
   92MOL0     H12123  11.259   7.279   5.720  0.4199 -0.6109 -0.3728
   92MOL0     H12124  11.519   7.439   5.756 -2.2236 -0.8851  4.6700
   92MOL0     H12125  11.486   7.320   5.617 -1.0592 -0.7052 -1.0459
   92MOL0     H12126  10.442   7.683   5.714  0.4454 -0.8525  0.7117
   92MOL0     H12127  10.205   7.772   5.757  0.2435 -0.3174  0.3313
   92MOL0     H12128   9.994   8.283   6.018 -0.5463  0.0005  0.7409
   92MOL0     H12129   9.743   8.329   6.028  2.2015  1.6171  0.2175
   92MOL0     H12130   9.641   7.632   6.055 -2.0396 -1.2456  0.6074
   92MOL0     H12131   9.900   7.634   6.009  0.7608  0.9189  0.3462
   92MOL0     H12132  10.276   7.193   6.107  1.0135  3.8073  1.6457
   92MOL0     H12133  10.505   7.137   6.061  2.1300  0.2999 -0.6872
   92MOL0     H12134  10.678   7.081   5.949  0.0220  1.1202  0.5044
   92MOL0     H12135  10.731   7.237   6.007 -1.9336  1.3340  0.1949
   92MOL0     H12136  10.840   7.112   5.757  1.2816  0.4132  0.6485
   92MOL0     H12137  10.896   7.262   5.840 -1.8265  1.8256  1.6686
   92MOL0     H12138  10.951   6.975   5.901  1.8459  0.0331  0.9094
   92MOL0     H12139  10.947   7.078   6.035 -1.6943 -1.4712 -0.1617
   92MOL0     H12140  11.115   7.094   5.779  2.4840 -3.3560 -0.7343
   92MOL0     H12141  11.127   7.210   5.924 -1.8429  0.1585  0.8223
   92MOL0     H12142  11.343   6.842   6.012  0.9935  1.9744  1.5224
   92MOL0     H12143  10.483   7.373   5.694  0.5127 -1.6394 -1.6333
   92MOL0     H12144  10.228   7.428   5.756  2.3386 -0.1398 -2.1958
   93MOL0     O12145   2.222   6.830  11.207  0.1601 -0.7209  0.0180
   93MOL0     C12146   2.319   6.844  11.138  0.6780  0.3387  0.7150
   93MOL0     O12147   2.317   6.880  11.003  0.4369 -0.3164  0.3184
   93MOL0     C12148   2.202   6.894  10.934  1.1268  0.1855 -0.8212
   93MOL0     C12149   2.202   6.998  10.841  0.1487  0.2490 -0.7308
   93MOL0     C12150   2.087   7.023  10.767 -0.3383  0.3526  0.2378
   93MOL0     C12151   1.975   6.938  10.767  0.4023 -0.6380  0.9109
   93MOL0     O12152   1.874   6.957  10.679  0.2114 -0.2916  0.0138
   93MOL0     C12153   1.759   7.032  10.746 -0.7780  0.7731 -0.0252
   93MOL0     C12154   1.672   7.092  10.633 -0.1263 -0.2243  0.4384
   93MOL0     C12155   1.609   6.994  10.544  0.2188  0.7414 -0.7110
   93MOL0     C12156   1.526   7.067  10.430  0.9292  0.3229  0.2694
   93MOL0     C12157   1.450   6.960  10.348  0.1744 -0.3986  0.6599
   93MOL0     C12158   1.335   6.897  10.420 -0.8567  0.5948  0.5151
   93MOL0     C12159   1.253   6.813  10.320  0.3953  0.5079  0.7527
   93MOL0     C12160   1.214   6.678  10.384  0.8375 -0.0443 -0.9743
   93MOL0     N12161   1.118   6.693  10.493  0.5142 -0.1829 -0.1184
   93MOL0     C12162   0.983   6.720  10.461  0.3450  0.5238 -0.4109
   93MOL0     C12163   0.915   6.753  10.579  0.5131  0.0884 -0.0773
   93MOL0     C12164   0.769   6.788  10.599  0.6903  0.5098  0.1544
   93MOL0     C12165   0.749   6.933  10.578 -0.3822 -0.5314  0.6208
   93MOL0     C12166   0.603   6.965  10.547 -0.4692  0.2034  0.0502
   93MOL0     C12167   0.578   7.099  10.472  0.4739  0.4061 -0.6940
   93MOL0     O12168   0.469   7.168  10.545  0.7253 -0.0475 -0.2834
   93MOL0     C12169   0.334   7.159  10.513 -0.1708  0.1611 -0.3845
   93MOL0     C12170   0.249   7.220  10.611 -0.1555 -0.7390  0.4703
   93MOL0     C12171   0.111   7.206  10.583  0.4204 -0.1295  0.1419
   93MOL0     C12172   0.054   7.130  10.476 -0.0439 -0.7882  0.0117
   93MOL0     C12173  -0.097   7.110  10.464  0.4462  0.3788  0.1757
   93MOL0     O12174  -0.136   7.014  10.374 -0.1986  0.5929 -0.3675
   93MOL0     C12175  -0.270   6.986  10.344  0.3470 -0.1198  0.4286
   93MOL0     C12176  -0.374   7.076  10.360  0.1102 -0.6646  0.1367
   93MOL0     C12177  -0.510   7.041  10.335 -0.0987  0.5293  0.8599
   93MOL0     C12178  -0.538   6.928  10.269 -0.2843  0.7590  1.1358
   93MOL0     O12179  -0.669   6.890  10.252 -0.0598 -1.0519  0.6290
   93MOL0     C12180  -0.721   6.929  10.120 -0.0740  0.6400 -0.3462
   93MOL0     C12181  -0.874   6.918  10.140 -0.6853  0.1797  0.3789
   93MOL0     C12182  -0.947   7.021  10.242 -0.6396  0.2379  0.4390
   93MOL0     C12183  -1.085   6.975  10.286  0.5703  0.1571 -0.3934
   93MOL0     C12184  -1.165   7.080  10.357 -0.0165 -0.3210 -1.1852
   93MOL0     C12185  -1.273   7.151  10.265 -0.0199 -0.0637 -0.3668
   93MOL0     C12186  -1.359   7.262  10.335 -0.2306  0.3629  0.1542
   93MOL0     C12187  -1.456   7.212  10.445  0.4233  0.3080  1.4973
   93MOL0    Cl12188  -1.578   7.094  10.388  0.5735  0.1748 -0.1306
   93MOL0     C12189  -0.432   6.842  10.235  0.0661 -0.7955 -0.4773
   93MOL0     C12190  -0.292   6.867  10.275  1.2446 -0.2451 -0.6261
   93MOL0     O12191  -0.170   7.176  10.532  0.0803  0.0263  0.3046
   93MOL0     C12192   0.141   7.079  10.381 -0.6958  0.1167  0.2720
   93MOL0     C12193   0.279   7.095  10.405  0.3095 -0.0862  0.5923
   93MOL0     N12194   1.008   6.746  10.677  0.0593  0.0181 -0.0729
   93MOL0     N12195   1.132   6.722  10.630  0.0399  0.4100  0.2679
   93MOL0     C12196   1.981   6.825  10.847  0.0470 -0.0527  0.2031
   93MOL0     C12197   2.091   6.804  10.923 -0.3492  0.6190  0.1239
   93MOL0     C12198   2.446   6.825  11.205 -0.1526  0.0239 -1.0437
   93MOL0     C12199   2.450   6.743  11.321 -0.0978  0.3300  0.2557
   93MOL0     C12200   2.567   6.711  11.374  0.0674 -0.1297 -0.7047
   93MOL0     C12201   2.695   6.758  11.326  0.3060 -0.3833 -0.8483
   93MOL0     O12202   2.818   6.733  11.377  0.1279 -0.7887  0.4414
   93MOL0     C12203   2.843   6.623  11.465 -0.7197  1.1913  0.2253
   93MOL0     C12204   2.905   6.657  11.600 -0.4944  0.2038 -0.5538
   93MOL0     C12205   2.899   6.540  11.701 -0.3697  0.6963  0.8365
   93MOL0     C12206   2.950   6.405  11.662  0.2626  0.0558  0.3165
   93MOL0     C12207   3.099   6.405  11.643  0.2580  0.0292  0.4598
   93MOL0     C12208   3.224   6.407  11.651  1.2211  0.1819 -0.4143
   93MOL0     C12209   2.692   6.848  11.220 -0.1193 -0.8769  0.0487
   93MOL0     C12210   2.567   6.887  11.158  0.4204 -0.4487  0.4931
   93MOL0     H12211   2.284   7.068  10.840  0.2028  0.1841 -1.2577
   93MOL0     H12212   2.090   7.107  10.699 -0.0850 -0.0234 -0.2215
   93MOL0     H12213   1.791   7.122  10.800 -0.3099 -0.0638  1.1444
   93MOL0     H12214   1.698   6.964  10.805 -1.3819 -0.6990 -2.2465
   93MOL0     H12215   1.733   7.163  10.577  0.5019 -1.5447 -0.5987
   93MOL0     H12216   1.590   7.144  10.684  0.7891  1.9227 -0.1623
   93MOL0     H12217   1.530   6.938  10.595 -1.8460  1.5865 -2.8131
   93MOL0     H12218   1.677   6.924  10.496  1.9309  1.7443  0.1371
   93MOL0     H12219   1.450   7.126  10.483 -2.5780 -2.6902 -0.9827
   93MOL0     H12220   1.585   7.124  10.357  1.0484  2.1703  1.7144
   93MOL0     H12221   1.516   6.876  10.323  0.6139 -0.2418  1.2680
   93MOL0     H12222   1.419   7.000  10.251  1.4926  0.4781  0.5636
   93MOL0     H12223   1.271   6.968  10.474 -1.6342  0.6098 -0.4046
   93MOL0     H12224   1.380   6.829  10.492 -3.4372  2.4012  4.1636
   93MOL0     H12225   1.160   6.865  10.292  1.1711  0.8131 -1.4062
   93MOL0     H12226   1.308   6.774  10.235  3.3839 -1.1546  3.2569
   93MOL0     H12227   1.308   6.629  10.411  1.6145  1.3631 -1.0827
   93MOL0     H12228   1.171   6.621  10.300  2.5699 -2.5086 -0.3191
   93MOL0     H12229   0.944   6.736  10.361  3.8278  0.4335 -1.9109
   93MOL0     H12230   0.730   6.758  10.697 -1.0152 -0.3555 -0.7487
   93MOL0     H12231   0.715   6.726  10.527  2.3862  0.5007 -1.1501
   93MOL0     H12232   0.825   6.978  10.512  1.4481 -0.3406  2.7211
   93MOL0     H12233   0.775   6.990  10.668  4.7491 -0.3467 -0.6487
   93MOL0     H12234   0.563   6.887  10.482 -0.4338  0.7756 -0.6622
   93MOL0     H12235   0.535   6.965  10.633  0.1867  1.3783  0.5920
   93MOL0     H12236   0.548   7.077  10.370 -1.3208 -0.2831 -0.0511
   93MOL0     H12237   0.659   7.173  10.476 -2.1969  3.5563  0.6110
   93MOL0     H12238   0.294   7.268  10.698 -1.2259  1.6445 -0.2117
   93MOL0     H12239   0.040   7.260  10.645  1.0561  0.2604  0.5413
   93MOL0     H12240  -0.361   7.176  10.399 -1.4648  0.2221 -1.4991
   93MOL0     H12241  -0.592   7.109  10.359 -2.4335 -0.9891 -2.1020
   93MOL0     H12242  -0.688   6.860  10.043  1.3124 -1.1390  1.7438
   93MOL0     H12243  -0.675   7.023  10.089  0.3348  0.1603 -1.2234
   93MOL0     H12244  -0.892   6.817  10.176  2.2741 -0.3868  0.5604
   93MOL0     H12245  -0.920   6.939  10.043 -0.9252 -0.9070  0.2512
   93MOL0     H12246  -0.951   7.121  10.198  1.1647  0.9558  1.7787
   93MOL0     H12247  -0.883   7.019  10.331 -0.6966 -3.4328  0.5250
   93MOL0     H12248  -1.136   6.942  10.195  1.7237 -1.1691 -0.6024
   93MOL0     H12249  -1.073   6.893  10.357 -1.7200  0.5260  0.5147
   93MOL0     H12250  -1.100   7.143  10.418 -1.2224 -1.8616  1.8693
   93MOL0     H12251  -1.224   7.021  10.428  0.0019 -1.0382 -1.7475
   93MOL0     H12252  -1.341   7.078  10.221 -3.9116  3.3434 -0.6302
   93MOL0     H12253  -1.222   7.199  10.181 -2.0642  3.2396  0.0867
   93MOL0     H12254  -1.289   7.331  10.382  0.8814 -0.2153 -0.6033
   93MOL0     H12255  -1.416   7.310  10.255 -1.5437 -0.8480  0.3109
   93MOL0     H12256  -1.515   7.300  10.473 -0.3512 -0.1849  1.4409
   93MOL0     H12257  -1.408   7.159  10.527  0.0223  0.5229  1.8755
   93MOL0     H12258  -0.460   6.749  10.187 -0.6280  0.1345 -1.9428
   93MOL0     H12259  -0.210   6.796  10.265  0.9919 -0.4837 -1.1101
   93MOL0     H12260   0.113   7.031  10.288  1.8112 -2.1638  0.5723
   93MOL0     H12261   0.346   7.051  10.331 -2.2470 -2.4570 -0.4760
   93MOL0     H12262   1.893   6.762  10.835  0.6712 -0.4695 -3.1307
   93MOL0     H12263   2.090   6.708  10.974 -0.2877 -0.5261 -1.8999
   93MOL0     H12264   2.363   6.704  11.372 -0.1122 -2.6079 -1.7588
   93MOL0     H12265   2.576   6.645  11.459  1.7259  1.1570  0.1589
   93MOL0     H12266   2.914   6.566  11.404 -1.9481 -2.7095  2.0822
   93MOL0     H12267   2.755   6.558  11.479 -2.1363  2.4913 -2.0180
   93MOL0     H12268   3.009   6.681  11.576 -0.1919 -0.2302  0.2670
   93MOL0     H12269   2.849   6.742  11.643 -2.4151 -1.6531  0.8310
   93MOL0     H12270   2.797   6.524  11.736 -1.1478 -1.3392 -1.9930
   93MOL0     H12271   2.965   6.558  11.786  0.9545 -0.1232  0.0299
   93MOL0     H12272   2.911   6.335  11.737 -0.9733  1.0438  0.6186
   93MOL0     H12273   2.908   6.371  11.567 -0.3803  0.5982  0.3959
   93MOL0     H12274   3.330   6.392  11.659  0.8971 -2.5961 -0.2976
   93MOL0     H12275   2.786   6.895  11.192 -0.4996  0.4413  0.8856
   93MOL0     H12276   2.569   6.953  11.072 -1.6819  1.5902  1.8655
   94MOL0     O12277   3.512   5.670   6.007 -0.2144  1.2185  0.2509
   94MOL0     C12278   3.497   5.564   6.064 -0.0084 -0.3577  0.1069
   94MOL0     O12279   3.379   5.503   6.078  0.3505 -0.1194  0.2608
   94MOL0     C12280   3.263   5.560   6.022  0.4495 -0.4141 -0.2702
   94MOL0     C12281   3.247   5.635   5.902 -0.5643 -0.6348  0.7441
   94MOL0     C12282   3.121   5.652   5.845 -0.0609 -0.2688 -0.1428
   94MOL0     C12283   3.001   5.611   5.917  0.5998 -0.1578  0.5909
   94MOL0     O12284   2.886   5.642   5.850  0.2089 -0.1997  0.8628
   94MOL0     C12285   2.775   5.569   5.896 -0.1703 -0.1247  0.1794
   94MOL0     C12286   2.667   5.556   5.790  0.7126  0.2438  0.2040
   94MOL0     C12287   2.718   5.486   5.660 -0.0810 -0.7501 -0.0286
   94MOL0     C12288   2.615   5.515   5.549  0.1457 -0.2747  1.1802
   94MOL0     C12289   2.668   5.457   5.417  1.2881  0.0426 -0.6408
   94MOL0     C12290   2.567   5.490   5.311  0.0122  0.1955 -0.1008
   94MOL0     C12291   2.621   5.464   5.169 -0.0083  0.6253 -0.2199
   94MOL0     C12292   2.648   5.315   5.129 -1.3167 -0.1436 -0.3866
   94MOL0     N12293   2.530   5.230   5.131 -0.2779 -0.0414  0.2723
   94MOL0     C12294   2.525   5.105   5.180 -0.4260 -1.0122  0.0779
   94MOL0     C12295   2.404   5.054   5.159  0.2898 -0.4922  0.1430
   94MOL0     C12296   2.336   4.929   5.219 -0.4482  0.4500  0.2602
   94MOL0     C12297   2.204   4.898   5.145 -0.5517  0.8267 -0.4623
   94MOL0     C12298   2.233   4.836   5.010  1.0321  0.4969 -0.8178
   94MOL0     C12299   2.098   4.777   4.942 -0.4259  0.0884 -0.7984
   94MOL0     O12300   2.044   4.661   5.012  1.0513  0.3516  0.1590
   94MOL0     C12301   1.915   4.669   5.070 -0.2850 -0.3364  0.4605
   94MOL0     C12302   1.850   4.773   5.139 -0.3328  0.1267 -0.0358
   94MOL0     C12303   1.724   4.759   5.190  0.0651  0.6668  0.2392
   94MOL0     C12304   1.651   4.639   5.163  0.5937 -0.2459  0.4963
   94MOL0     C12305   1.513   4.632   5.201  0.2274  0.9926  1.0507
   94MOL0     O12306   1.474   4.712   5.294  0.3808 -0.0480 -0.6167
   94MOL0     C12307   1.346   4.710   5.351 -0.3375  0.5273  0.5197
   94MOL0     C12308   1.304   4.828   5.423 -1.1884 -0.3456  0.4055
   94MOL0     C12309   1.187   4.824   5.486  0.5056  0.0827  0.0956
   94MOL0     C12310   1.106   4.711   5.496  0.3300  0.1388  0.4574
   94MOL0     O12311   0.989   4.717   5.565  0.5663 -0.2893 -0.0011
   94MOL0     C12312   0.878   4.632   5.540 -1.3103  0.0738  0.5960
   94MOL0     C12313   0.751   4.690   5.607 -0.7308  0.6192  0.9294
   94MOL0     C12314   0.621   4.610   5.619  0.4537 -0.7932  0.3649
   94MOL0     C12315   0.505   4.658   5.526 -0.3282  0.2672 -0.3964
   94MOL0     C12316   0.375   4.579   5.556  0.1202  0.4130  0.2575
   94MOL0     C12317   0.272   4.639   5.468 -0.3722  0.0161  0.8168
   94MOL0     C12318   0.158   4.539   5.431 -0.2184  0.4325 -0.0453
   94MOL0     C12319   0.048   4.606   5.357 -0.7881  0.0632  0.6678
   94MOL0    Cl12320  -0.095   4.492   5.328  0.0478 -0.2058 -0.2941
   94MOL0     C12321   1.143   4.598   5.423  0.9892 -1.0214  0.6190
   94MOL0     C12322   1.258   4.600   5.345  0.3339  0.4720 -0.9103
   94MOL0     O12323   1.441   4.555   5.131  0.6687 -0.0816  0.2587
   94MOL0     C12324   1.713   4.537   5.094  0.1707  0.0348  0.0149
   94MOL0     C12325   1.846   4.549   5.055  0.1885  0.4549 -0.5246
   94MOL0     N12326   2.335   5.158   5.087 -0.3614 -0.1442  0.2359
   94MOL0     N12327   2.410   5.259   5.074  0.8706 -0.7822 -0.7501
   94MOL0     C12328   3.015   5.534   6.034 -0.0444 -0.0234 -0.5369
   94MOL0     C12329   3.147   5.509   6.075 -0.0760  0.1108 -0.4739
   94MOL0     C12330   3.610   5.484   6.104  0.1664  0.7784 -0.3029
   94MOL0     C12331   3.593   5.364   6.172  0.2489  0.4116  0.1360
   94MOL0     C12332   3.696   5.302   6.231  0.5500  0.2876 -1.0806
   94MOL0     C12333   3.825   5.345   6.223  0.6332 -0.2939  0.0406
   94MOL0     O12334   3.931   5.298   6.291 -0.4805  0.0058  0.6017
   94MOL0     C12335   3.900   5.200   6.392 -1.2914 -0.0770 -0.2257
   94MOL0     C12336   4.023   5.198   6.491  0.1259 -0.3426  0.5701
   94MOL0     C12337   4.147   5.138   6.433 -0.2020  0.7586 -0.3935
   94MOL0     C12338   4.245   5.245   6.383  0.4041  0.3750 -0.7156
   94MOL0     C12339   4.343   5.281   6.493 -0.2106  0.1098 -0.7192
   94MOL0     C12340   4.415   5.307   6.588 -0.7626  0.8621  0.5347
   94MOL0     C12341   3.843   5.471   6.155 -0.5570  0.0967 -0.1094
   94MOL0     C12342   3.742   5.532   6.087  0.1531  0.5497 -0.1731
   94MOL0     H12343   3.334   5.669   5.846  2.0593 -2.9504  3.0576
   94MOL0     H12344   3.110   5.708   5.752  0.0888  1.8607  1.0567
   94MOL0     H12345   2.724   5.617   5.980 -0.3386 -0.4011  0.2370
   94MOL0     H12346   2.794   5.464   5.915  2.7469 -0.2305 -2.5061
   94MOL0     H12347   2.633   5.658   5.766  1.5413  0.5273  0.2225
   94MOL0     H12348   2.577   5.501   5.820  1.2772 -2.1920 -2.1771
   94MOL0     H12349   2.724   5.378   5.682 -0.1555 -0.5969  0.7736
   94MOL0     H12350   2.815   5.530   5.636 -1.8427  2.8580 -1.1910
   94MOL0     H12351   2.520   5.467   5.575 -0.1883  0.9184  2.2245
   94MOL0     H12352   2.601   5.623   5.549  0.2609 -0.2572  0.7393
   94MOL0     H12353   2.690   5.350   5.422  5.1051  0.7654  2.8879
   94MOL0     H12354   2.758   5.510   5.385  1.4087 -0.3386 -0.9426
   94MOL0     H12355   2.545   5.597   5.306  3.0661  1.0482  1.7670
   94MOL0     H12356   2.474   5.434   5.316  2.4815 -4.6052 -1.5147
   94MOL0     H12357   2.544   5.496   5.097 -1.0134  2.4606  1.5671
   94MOL0     H12358   2.712   5.523   5.152 -0.5107  0.8044 -2.7664
   94MOL0     H12359   2.727   5.298   5.204 -2.2997  0.2031  0.7514
   94MOL0     H12360   2.706   5.317   5.036  0.1807 -2.0460  0.4409
   94MOL0     H12361   2.601   5.068   5.248 -0.3058  2.9936  2.4331
   94MOL0     H12362   2.302   4.957   5.319 -4.4647  0.8953 -1.0167
   94MOL0     H12363   2.408   4.847   5.221 -0.1617  0.7024  0.3134
   94MOL0     H12364   2.158   4.992   5.113  1.1681  1.1291 -2.2275
   94MOL0     H12365   2.136   4.838   5.207  0.6277 -0.9268 -0.8124
   94MOL0     H12366   2.272   4.913   4.944  1.0254  1.2167 -0.0009
   94MOL0     H12367   2.316   4.766   5.010  0.0520 -0.7864 -3.1797
   94MOL0     H12368   2.114   4.760   4.835  1.5346  1.2952 -0.7480
   94MOL0     H12369   2.023   4.856   4.946  0.9440  1.3963 -0.0746
   94MOL0     H12370   1.912   4.858   5.164 -1.6506  0.8361  0.9583
   94MOL0     H12371   1.686   4.843   5.246  1.9837  1.2341  0.7535
   94MOL0     H12372   1.371   4.913   5.422  0.0327 -1.2920 -0.5680
   94MOL0     H12373   1.159   4.912   5.543 -1.2309  1.3096 -2.4391
   94MOL0     H12374   0.898   4.532   5.578 -0.0801 -0.6080 -1.6038
   94MOL0     H12375   0.863   4.633   5.431 -0.4685  0.6706  0.4705
   94MOL0     H12376   0.731   4.789   5.566 -2.0257 -0.8489 -2.3832
   94MOL0     H12377   0.784   4.701   5.710  0.3188 -0.2801  0.7156
   94MOL0     H12378   0.584   4.624   5.721 -0.3297  0.7054 -0.0997
   94MOL0     H12379   0.649   4.504   5.624  1.8633 -0.3939  2.5226
   94MOL0     H12380   0.496   4.765   5.548  0.0705 -0.0327  1.3260
   94MOL0     H12381   0.549   4.658   5.426  1.4392 -2.7053  0.2678
   94MOL0     H12382   0.344   4.585   5.661 -0.6007 -0.3231  0.0903
   94MOL0     H12383   0.399   4.475   5.531 -0.3225 -0.2388  2.3365
   94MOL0     H12384   0.317   4.660   5.371  2.1951 -3.6529  1.0225
   94MOL0     H12385   0.227   4.725   5.519  1.2371  0.1968  2.0205
   94MOL0     H12386   0.197   4.458   5.369  1.6883  1.7113 -0.5915
   94MOL0     H12387   0.118   4.505   5.527 -1.2859 -0.8765 -0.9137
   94MOL0     H12388   0.087   4.642   5.261  0.9392  1.8340  1.9492
   94MOL0     H12389   0.021   4.701   5.405 -2.9601 -0.5935  0.8412
   94MOL0     H12390   1.089   4.503   5.425 -0.1580 -0.3766  2.0170
   94MOL0     H12391   1.275   4.504   5.297  2.6809  0.4480 -0.1746
   94MOL0     H12392   1.658   4.445   5.080 -0.2136  0.2732 -0.0569
   94MOL0     H12393   1.897   4.472   4.998  3.9296  2.5704 -0.3060
   94MOL0     H12394   2.940   5.485   6.095 -0.3327  2.7052  1.5023
   94MOL0     H12395   3.156   5.453   6.167 -0.5568 -2.7157 -2.0280
   94MOL0     H12396   3.492   5.328   6.184 -0.0982  1.6323  1.0689
   94MOL0     H12397   3.666   5.213   6.286 -1.2077  1.5208  0.0567
   94MOL0     H12398   3.895   5.108   6.333  2.5708 -0.3908 -0.3295
   94MOL0     H12399   3.807   5.216   6.446 -1.2645 -3.2047  0.9221
   94MOL0     H12400   4.039   5.302   6.522  1.0033 -0.0904 -0.6852
   94MOL0     H12401   3.987   5.130   6.569 -0.0040  0.2192  1.0139
   94MOL0     H12402   4.119   5.066   6.355 -3.4295 -1.1309  2.2658
   94MOL0     H12403   4.199   5.085   6.514 -2.8169 -0.0415  0.8635
   94MOL0     H12404   4.290   5.190   6.300 -0.1467 -1.4521  0.1407
   94MOL0     H12405   4.194   5.336   6.347  1.0753  2.1328  2.4308
   94MOL0     H12406   4.481   5.335   6.667  1.7415  1.2748 -1.5623
   94MOL0     H12407   3.941   5.511   6.176 -0.7679 -0.6408  2.7132
   94MOL0     H12408   3.769   5.621   6.032  0.2421  0.0331 -0.9969
   95MOL0     O12409   9.661   0.596   6.082  0.7423  0.4149  0.0512
   95MOL0     C12410   9.748   0.534   6.017  0.5841 -0.7873 -0.4545
   95MOL0     O12411   9.745   0.403   5.976  0.6864 -0.1936  0.2376
   95MOL0     C12412   9.627   0.338   6.010  0.3650  0.5628  0.2972
   95MOL0     C12413   9.596   0.293   6.144  0.0907  0.7070  0.5410
   95MOL0     C12414   9.468   0.237   6.166 -0.1695  0.3798 -0.0224
   95MOL0     C12415   9.376   0.224   6.060  0.0809 -0.1478  0.3817
   95MOL0     O12416   9.254   0.169   6.072 -0.1278  0.5734 -0.4341
   95MOL0     C12417   9.163   0.210   6.175 -0.0750  0.2923  0.8299
   95MOL0     C12418   9.014   0.206   6.125 -0.3194  0.7758 -0.5496
   95MOL0     C12419   8.961   0.067   6.122  1.2349 -0.3480  0.4881
   95MOL0     C12420   8.817   0.075   6.069  0.1630  0.2301 -0.7731
   95MOL0     C12421   8.777  -0.063   6.019  0.3742  0.2847  0.0869
   95MOL0     C12422   8.624  -0.068   6.015 -0.9508  0.6691 -0.6379
   95MOL0     C12423   8.587  -0.202   5.963  0.0570  0.0118 -0.2300
   95MOL0     C12424   8.617  -0.324   6.049 -1.0175 -0.0414 -0.2410
   95MOL0     N12425   8.539  -0.443   6.007 -0.1855 -0.4580  0.2850
   95MOL0     C12426   8.407  -0.474   6.030 -0.9183  0.1372 -0.7946
   95MOL0     C12427   8.373  -0.579   5.961 -0.0037 -0.6563  0.2072
   95MOL0     C12428   8.235  -0.640   5.953  0.3176 -0.4230  0.0751
   95MOL0     C12429   8.119  -0.568   6.014 -0.5723  0.4185 -0.0792
   95MOL0     C12430   7.992  -0.645   6.002 -0.0739 -0.6165 -0.0374
   95MOL0     C12431   7.872  -0.557   6.033  0.8384 -0.1917  0.0633
   95MOL0     O12432   7.846  -0.541   6.175 -0.3335 -0.2546 -0.7634
   95MOL0     C12433   7.737  -0.452   6.205 -0.7223  0.0949  0.0223
   95MOL0     C12434   7.712  -0.424   6.344  0.1345 -0.2593 -0.1145
   95MOL0     C12435   7.604  -0.349   6.382 -0.3178  0.7457 -0.6094
   95MOL0     C12436   7.512  -0.288   6.287 -0.9228  0.1855 -0.1665
   95MOL0     C12437   7.386  -0.225   6.336  0.4961  0.0562 -0.6458
   95MOL0     O12438   7.372  -0.224   6.476  0.1602  0.4536  0.1807
   95MOL0     C12439   7.273  -0.144   6.526  0.4415 -0.9708  0.0868
   95MOL0     C12440   7.244  -0.018   6.486 -0.1992 -0.3195  0.0942
   95MOL0     C12441   7.133   0.056   6.538 -0.0125  0.1469  0.2594
   95MOL0     C12442   7.047  -0.002   6.628 -0.1776 -0.1058 -0.5902
   95MOL0     O12443   6.926   0.055   6.681 -0.1065 -0.0833  0.4312
   95MOL0     C12444   6.913   0.198   6.692 -0.1679 -0.4784 -0.2569
   95MOL0     C12445   6.793   0.247   6.764 -0.0236  0.1226 -0.2614
   95MOL0     C12446   6.778   0.390   6.794 -0.2991 -0.3661  0.4091
   95MOL0     C12447   6.636   0.444   6.833  0.4383  0.5829 -0.3310
   95MOL0     C12448   6.512   0.388   6.765 -0.6869  0.0139  0.0897
   95MOL0     C12449   6.415   0.505   6.756 -0.9390  0.0065 -0.0453
   95MOL0     C12450   6.292   0.452   6.687 -0.5175 -0.8566  0.0836
   95MOL0     C12451   6.210   0.569   6.633  0.8424 -0.2006  0.3038
   95MOL0    Cl12452   6.291   0.669   6.508 -0.2805 -0.5738  0.6793
   95MOL0     C12453   7.072  -0.132   6.671  0.3388  0.3707  0.2653
   95MOL0     C12454   7.182  -0.203   6.621 -0.7582  0.2464 -0.3083
   95MOL0     O12455   7.305  -0.191   6.260 -0.2866 -0.2232 -0.2085
   95MOL0     C12456   7.536  -0.318   6.150  0.3820  0.4146 -0.1847
   95MOL0     C12457   7.645  -0.398   6.112  0.0754 -0.5762 -0.3208
   95MOL0     N12458   8.487  -0.621   5.894  0.0479 -0.7707  0.4271
   95MOL0     N12459   8.585  -0.542   5.925 -1.2593  0.2316 -0.0980
   95MOL0     C12460   9.411   0.275   5.934 -0.2560  0.1343  0.1643
   95MOL0     C12461   9.534   0.331   5.909 -0.2005  1.1152 -0.1649
   95MOL0     C12462   9.877   0.591   5.996 -0.7850 -0.2232 -0.5357
   95MOL0     C12463   9.918   0.704   6.061  0.1271  0.5861  0.0158
   95MOL0     C12464  10.044   0.743   6.046  0.1848  0.4091  0.0437
   95MOL0     C12465  10.135   0.679   5.970  0.0446  0.4235 -0.1648
   95MOL0     O12466  10.261   0.741   5.969  0.2575 -0.5341  0.1255
   95MOL0     C12467  10.369   0.658   5.912  0.7072 -0.0638 -0.3735
   95MOL0     C12468  10.488   0.739   5.890 -0.3243  0.2057  0.2168
   95MOL0     C12469  10.617   0.644   5.889 -0.7819 -0.6865 -0.2632
   95MOL0     C12470  10.749   0.717   5.866 -0.1592  0.5217  0.4049
   95MOL0     C12471  10.814   0.788   5.979 -0.6789 -0.5542  0.3692
   95MOL0     C12472  10.855   0.839   6.080 -0.8245  0.1751  0.5759
   95MOL0     C12473  10.094   0.566   5.903  0.0509  0.4659  0.0920
   95MOL0     C12474   9.964   0.526   5.902 -0.4954  0.0843  0.3535
   95MOL0     H12475   9.658   0.293   6.233 -0.7335  0.1232  1.1403
   95MOL0     H12476   9.439   0.198   6.264  1.4262  1.5116  0.9430
   95MOL0     H12477   9.172   0.317   6.197  0.0125  0.7387 -1.1985
   95MOL0     H12478   9.176   0.147   6.263  3.7957 -0.1321  0.1248
   95MOL0     H12479   9.001   0.250   6.026 -1.0181 -1.4349 -1.5050
   95MOL0     H12480   8.955   0.261   6.199 -1.5896 -1.6772  0.3777
   95MOL0     H12481   8.956   0.016   6.219  1.9280 -0.1963  0.6064
   95MOL0     H12482   9.015   0.005   6.049  1.7574 -0.4276  0.9358
   95MOL0     H12483   8.751   0.106   6.150  0.2792 -2.9664  0.7064
   95MOL0     H12484   8.799   0.155   5.996  0.7503  0.9796 -0.1158
   95MOL0     H12485   8.823  -0.140   6.081 -2.0380 -1.3658 -0.0297
   95MOL0     H12486   8.821  -0.061   5.919  1.4724  1.2205  0.5682
   95MOL0     H12487   8.582   0.017   5.960 -1.0098  1.5280  0.6922
   95MOL0     H12488   8.585  -0.060   6.117  0.2671 -1.0027  0.0102
   95MOL0     H12489   8.481  -0.200   5.935 -0.1276 -1.6775  0.2031
   95MOL0     H12490   8.632  -0.223   5.865  2.8790 -0.0541  0.9938
   95MOL0     H12491   8.586  -0.303   6.152 -1.6274  1.3762 -0.7024
   95MOL0     H12492   8.724  -0.345   6.049 -0.8770  0.3845 -2.6608
   95MOL0     H12493   8.340  -0.424   6.099 -2.4378 -1.1335 -1.2901
   95MOL0     H12494   8.243  -0.741   5.995 -1.3533 -0.4698  0.3651
   95MOL0     H12495   8.219  -0.655   5.846  0.4837 -1.0254  0.1304
   95MOL0     H12496   8.104  -0.484   5.944  2.6863 -0.8913 -2.6453
   95MOL0     H12497   8.135  -0.545   6.119 -2.1638  0.3106  0.2082
   95MOL0     H12498   7.981  -0.684   5.901  0.7678 -0.6045 -0.1342
   95MOL0     H12499   7.991  -0.727   6.075  0.8945 -0.5918  0.0105
   95MOL0     H12500   7.793  -0.619   5.989 -0.7412  0.9439  1.1594
   95MOL0     H12501   7.878  -0.458   5.987 -1.8879  0.1403  0.2815
   95MOL0     H12502   7.774  -0.468   6.421 -0.7699  0.2578  0.9499
   95MOL0     H12503   7.580  -0.347   6.488  0.0262 -1.4778 -0.4516
   95MOL0     H12504   7.292   0.034   6.403  0.9873 -0.7866  0.4721
   95MOL0     H12505   7.118   0.157   6.499  0.8493 -0.2621 -1.2107
   95MOL0     H12506   6.900   0.244   6.594 -1.3340 -0.8316 -0.2729
   95MOL0     H12507   7.011   0.227   6.732  0.6866 -1.9306 -1.2130
   95MOL0     H12508   6.794   0.199   6.863 -1.4260  0.5551 -0.0231
   95MOL0     H12509   6.707   0.219   6.703  0.5087 -1.2038 -0.4463
   95MOL0     H12510   6.810   0.444   6.705 -0.7090  1.1274  1.1366
   95MOL0     H12511   6.852   0.415   6.871 -2.3701  0.1418  2.3366
   95MOL0     H12512   6.625   0.431   6.942 -0.7118 -1.7763 -0.6477
   95MOL0     H12513   6.646   0.551   6.818  3.2158  0.1740 -2.1493
   95MOL0     H12514   6.468   0.296   6.805  0.5640 -0.1752  1.0966
   95MOL0     H12515   6.551   0.361   6.667 -2.4335  1.8976 -1.2094
   95MOL0     H12516   6.452   0.583   6.689 -1.7065 -0.5980 -1.2071
   95MOL0     H12517   6.386   0.547   6.852 -0.0032  2.0234 -0.5821
   95MOL0     H12518   6.311   0.384   6.603  0.4900  0.4003 -0.7428
   95MOL0     H12519   6.239   0.399   6.767  0.0912 -1.2438  0.2366
   95MOL0     H12520   6.165   0.637   6.707  0.4453 -0.4963  0.3388
   95MOL0     H12521   6.119   0.524   6.594  0.2047 -0.2795  1.7997
   95MOL0     H12522   6.999  -0.182   6.734  0.9962  0.6078  1.2489
   95MOL0     H12523   7.211  -0.306   6.639  1.4800  0.2878 -3.1091
   95MOL0     H12524   7.465  -0.293   6.072 -0.0481  0.2989  0.1620
   95MOL0     H12525   7.657  -0.412   6.005 -0.6047 -1.5263 -0.2887
   95MOL0     H12526   9.342   0.269   5.850  2.1715  1.5458 -2.1085
   95MOL0     H12527   9.543   0.378   5.812  2.4810  1.1526  0.0195
   95MOL0     H12528   9.853   0.757   6.130 -2.3380 -1.7294 -0.3555
   95MOL0     H12529  10.073   0.837   6.091 -1.5467  1.7834 -1.5210
   95MOL0     H12530  10.340   0.613   5.817  0.4612  0.1334 -0.3915
   95MOL0     H12531  10.389   0.567   5.970 -0.4346 -0.5675 -0.7422
   95MOL0     H12532  10.488   0.800   5.799 -1.8013  1.4359  1.0018
   95MOL0     H12533  10.491   0.808   5.975 -0.8312  1.7436 -0.9694
   95MOL0     H12534  10.608   0.574   5.806  0.4287 -2.8534  1.3018
   95MOL0     H12535  10.614   0.579   5.978 -0.1379 -0.2173  0.1131
   95MOL0     H12536  10.821   0.639   5.838 -1.0037 -1.1352  2.5665
   95MOL0     H12537  10.738   0.786   5.782 -0.6431 -1.9063 -1.6520
   95MOL0     H12538  10.890   0.889   6.168  0.2856 -1.7157  1.2659
   95MOL0     H12539  10.167   0.512   5.843  2.4076 -0.8042  3.7363
   95MOL0     H12540   9.936   0.437   5.846 -1.6877  0.1963  0.7499
   96MOL0     O12541   7.188   1.189   6.567 -0.2779 -0.7631  0.7218
   96MOL0     C12542   7.145   1.300   6.531 -0.8390 -0.1007 -0.1164
   96MOL0     O12543   7.020   1.355   6.567 -0.1112  0.4847 -0.4457
   96MOL0     C12544   6.954   1.289   6.662  0.1158 -0.2443 -0.3056
   96MOL0     C12545   6.889   1.172   6.647  0.0649 -0.4020 -0.9068
   96MOL0     C12546   6.806   1.120   6.753 -0.7445  0.7941 -0.0160
   96MOL0     C12547   6.781   1.187   6.873  0.9943  0.2733  0.1745
   96MOL0     O12548   6.705   1.126   6.970 -0.3664  0.2043 -0.1257
   96MOL0     C12549   6.712   1.181   7.100 -0.5871 -0.2396 -0.6524
   96MOL0     C12550   6.626   1.083   7.182 -0.0091 -0.0008  0.1155
   96MOL0     C12551   6.662   1.077   7.329  0.5615  0.3991  0.5197
   96MOL0     C12552   6.580   0.972   7.395  0.2271 -0.4888  0.0339
   96MOL0     C12553   6.607   0.968   7.537  0.4612 -0.3654 -0.0032
   96MOL0     C12554   6.492   0.882   7.610  0.2981 -0.7533 -0.1494
   96MOL0     C12555   6.547   0.808   7.734 -0.2063  0.1385 -0.0473
   96MOL0     C12556   6.445   0.700   7.791  0.6754  0.6287  0.8124
   96MOL0     N12557   6.490   0.660   7.926  0.4907  0.1983  0.0420
   96MOL0     C12558   6.495   0.730   8.047 -0.2535 -0.2304  0.0683
   96MOL0     C12559   6.552   0.658   8.134 -0.0790  0.7065 -0.5018
   96MOL0     C12560   6.573   0.693   8.278 -0.1047 -1.7715 -0.1744
   96MOL0     C12561   6.447   0.713   8.351 -1.2977 -0.2384  0.2188
   96MOL0     C12562   6.347   0.594   8.329 -0.0657  0.2257  0.6794
   96MOL0     C12563   6.237   0.614   8.431  0.4364  0.2939  0.2213
   96MOL0     O12564   6.161   0.735   8.397 -0.2043  0.3002  0.4170
   96MOL0     C12565   6.022   0.734   8.401 -0.1158  0.0938  0.1532
   96MOL0     C12566   5.948   0.677   8.500 -0.8428  0.6429 -0.0464
   96MOL0     C12567   5.810   0.689   8.495 -0.4218 -0.3439 -0.8022
   96MOL0     C12568   5.740   0.755   8.393 -0.1100  0.1997  0.1780
   96MOL0     C12569   5.590   0.749   8.394 -0.0326 -0.1871 -0.2361
   96MOL0     O12570   5.521   0.687   8.495 -0.2260 -0.2832  0.0822
   96MOL0     C12571   5.388   0.700   8.490 -0.7419 -0.4763 -0.0335
   96MOL0     C12572   5.293   0.674   8.388 -0.1252  0.1284  0.7755
   96MOL0     C12573   5.153   0.690   8.410  0.1639  0.3466 -0.2355
   96MOL0     C12574   5.098   0.735   8.527  0.4560  0.3854 -0.1359
   96MOL0     O12575   4.961   0.772   8.538 -0.4267  0.3617  0.3306
   96MOL0     C12576   4.877   0.732   8.649  0.1440 -0.8520  0.1126
   96MOL0     C12577   4.740   0.782   8.626 -0.4452 -0.1699  0.8765
   96MOL0     C12578   4.650   0.748   8.742 -0.1949 -0.0071 -0.2114
   96MOL0     C12579   4.511   0.816   8.729  0.7896  0.4199  0.1421
   96MOL0     C12580   4.421   0.786   8.858  0.8876  1.0839  0.7659
   96MOL0     C12581   4.304   0.884   8.856  0.2632  0.2971  0.0247
   96MOL0     C12582   4.210   0.854   8.969  0.2533  0.0081 -0.5393
   96MOL0     C12583   4.126   0.733   8.949 -0.4617 -0.2948 -0.5711
   96MOL0    Cl12584   4.005   0.739   9.069 -0.1019 -0.2092 -0.8591
   96MOL0     C12585   5.187   0.760   8.629  0.2202 -1.0695 -0.4928
   96MOL0     C12586   5.333   0.744   8.608  0.9443 -0.4186 -0.2120
   96MOL0     O12587   5.537   0.807   8.299  0.3789 -0.7553  0.1776
   96MOL0     C12588   5.816   0.816   8.297  0.5165  1.1881 -0.3017
   96MOL0     C12589   5.958   0.805   8.303  0.1921  0.2898 -0.0078
   96MOL0     N12590   6.603   0.540   8.073 -0.2406 -0.4882 -0.0201
   96MOL0     N12591   6.563   0.545   7.949  0.1228 -0.6570 -0.0559
   96MOL0     C12592   6.852   1.305   6.882  0.3497  0.4900 -0.7949
   96MOL0     C12593   6.938   1.351   6.789 -0.7654 -0.2633 -0.0380
   96MOL0     C12594   7.235   1.384   6.449 -0.4260  0.0878  0.1085
   96MOL0     C12595   7.358   1.335   6.401  0.0907  0.4179 -0.2469
   96MOL0     C12596   7.446   1.414   6.322 -0.0199  0.8385  0.0986
   96MOL0     C12597   7.417   1.550   6.304  0.7961  0.1490 -0.1440
   96MOL0     O12598   7.495   1.641   6.243 -0.2307  0.4494 -0.1356
   96MOL0     C12599   7.619   1.593   6.196 -0.1518 -0.7072 -1.0723
   96MOL0     C12600   7.671   1.710   6.102 -0.5048 -0.3926 -0.0361
   96MOL0     C12601   7.827   1.699   6.088  0.3263 -0.7021  0.9924
   96MOL0     C12602   7.896   1.835   6.082 -0.0780  0.1413  1.3284
   96MOL0     C12603   7.827   1.908   5.984  0.0052 -0.1016 -0.6297
   96MOL0     C12604   7.754   1.970   5.899 -0.0691  0.4341  0.3560
   96MOL0     C12605   7.294   1.599   6.343 -0.0349  0.2003 -0.1796
   96MOL0     C12606   7.208   1.521   6.415  0.4734 -0.6454  0.0735
   96MOL0     H12607   6.892   1.128   6.548  1.1491  0.2279 -1.1636
   96MOL0     H12608   6.767   1.021   6.734 -0.7102  0.8895 -0.5835
   96MOL0     H12609   6.662   1.278   7.103 -0.5368 -0.2249  1.6943
   96MOL0     H12610   6.817   1.182   7.130 -0.5069  1.7906 -0.8539
   96MOL0     H12611   6.636   0.982   7.143 -0.1016 -0.7023  1.8115
   96MOL0     H12612   6.519   1.103   7.172  0.2508  0.8457 -1.2741
   96MOL0     H12613   6.643   1.174   7.375  0.3068 -0.4872  2.3802
   96MOL0     H12614   6.768   1.050   7.335  0.5527 -2.3152 -5.1421
   96MOL0     H12615   6.475   0.997   7.374  0.9611  2.0510 -0.9753
   96MOL0     H12616   6.606   0.879   7.344 -0.2973 -1.3587  1.3130
   96MOL0     H12617   6.606   1.067   7.583  1.2011 -0.4869  0.2902
   96MOL0     H12618   6.705   0.924   7.560  1.0860  1.2075  0.4716
   96MOL0     H12619   6.454   0.803   7.545  0.0155 -0.0236 -0.8884
   96MOL0     H12620   6.407   0.949   7.629  0.5920 -0.2748 -0.5180
   96MOL0     H12621   6.640   0.756   7.708  0.7132  0.9285  1.5147
   96MOL0     H12622   6.578   0.883   7.807  1.5438 -1.5150  1.0221
   96MOL0     H12623   6.433   0.614   7.725 -0.4376  1.9427 -0.8031
   96MOL0     H12624   6.343   0.740   7.794  0.1677 -0.1778 -2.2339
   96MOL0     H12625   6.471   0.834   8.066  2.0309  0.4409 -0.4826
   96MOL0     H12626   6.634   0.784   8.278 -2.9250  0.2552 -0.6321
   96MOL0     H12627   6.639   0.632   8.339  1.8747  2.1997  2.0066
   96MOL0     H12628   6.400   0.809   8.326 -0.4208  0.9732  2.7620
   96MOL0     H12629   6.478   0.724   8.456  1.2416 -0.5543 -0.4471
   96MOL0     H12630   6.304   0.593   8.229 -0.3201  0.4517  0.7863
   96MOL0     H12631   6.402   0.500   8.344  1.2700  0.4560 -2.2270
   96MOL0     H12632   6.281   0.611   8.531 -2.1975  0.8233  1.4823
   96MOL0     H12633   6.168   0.529   8.428 -0.4477  0.7546  3.5444
   96MOL0     H12634   5.999   0.615   8.573 -0.3653  0.2367 -0.7159
   96MOL0     H12635   5.753   0.632   8.568 -0.0655  1.2620  0.8050
   96MOL0     H12636   5.329   0.633   8.294  0.5434  1.0616  0.6202
   96MOL0     H12637   5.097   0.655   8.324  1.6918  0.8504 -1.4979
   96MOL0     H12638   4.921   0.769   8.742  1.8242 -0.3474 -0.8429
   96MOL0     H12639   4.877   0.623   8.650 -2.4569 -0.9137  0.5860
   96MOL0     H12640   4.698   0.743   8.534 -2.1974  0.1059  1.5259
   96MOL0     H12641   4.742   0.891   8.613  0.8216 -0.2770 -0.0091
   96MOL0     H12642   4.698   0.782   8.834  0.1715 -0.6928 -0.1376
   96MOL0     H12643   4.655   0.639   8.749 -2.0784 -0.3135 -2.4989
   96MOL0     H12644   4.528   0.923   8.714  0.4217  0.2628 -1.6539
   96MOL0     H12645   4.454   0.788   8.641 -0.8316  2.0685  0.6167
   96MOL0     H12646   4.487   0.787   8.946  0.3367  0.7465  1.1879
   96MOL0     H12647   4.371   0.689   8.858 -1.7884  2.3754  0.9605
   96MOL0     H12648   4.259   0.878   8.756  1.5293 -1.5971 -0.4979
   96MOL0     H12649   4.342   0.986   8.867 -1.3655  1.1799 -1.7513
   96MOL0     H12650   4.281   0.830   9.049  2.6455  1.0683 -2.2442
   96MOL0     H12651   4.144   0.941   8.981  1.9954  1.2531  0.6673
   96MOL0     H12652   4.180   0.638   8.958 -0.7052 -0.2722  1.4043
   96MOL0     H12653   4.086   0.734   8.847  2.5812  0.2950 -1.8939
   96MOL0     H12654   5.159   0.798   8.727 -1.2457 -0.5472 -1.0946
   96MOL0     H12655   5.392   0.779   8.692  0.8332  1.9437 -1.0616
   96MOL0     H12656   5.764   0.857   8.210  0.8991 -0.6708 -1.4680
   96MOL0     H12657   6.020   0.847   8.224 -3.7168  0.8862 -3.0953
   96MOL0     H12658   6.850   1.354   6.979  0.1361 -0.8215 -0.1101
   96MOL0     H12659   7.009   1.434   6.789  1.5883 -2.1632 -0.7274
   96MOL0     H12660   7.378   1.231   6.427 -3.7931 -0.3531  0.2927
   96MOL0     H12661   7.542   1.370   6.297 -0.0058  1.1371 -0.3815
   96MOL0     H12662   7.614   1.499   6.140  1.1388 -0.6190 -1.3700
   96MOL0     H12663   7.689   1.570   6.277  0.7494 -0.4665 -1.7614
   96MOL0     H12664   7.623   1.694   6.005 -1.6099 -0.2860  0.4815
   96MOL0     H12665   7.638   1.804   6.149  1.6887 -0.2184  1.2966
   96MOL0     H12666   7.835   1.650   5.991 -4.7794  0.3127 -0.2438
   96MOL0     H12667   7.867   1.643   6.173 -3.6121 -2.7540  1.7375
   96MOL0     H12668   7.902   1.896   6.172  2.0540 -3.2404  3.7538
   96MOL0     H12669   7.999   1.812   6.052  0.2302  0.5793  2.0342
   96MOL0     H12670   7.701   2.024   5.823  0.8904  1.3135  0.2870
   96MOL0     H12671   7.292   1.704   6.315 -0.6197 -0.1957 -1.7488
   96MOL0     H12672   7.117   1.568   6.452  1.8152  0.0538  2.7176
   97MOL0     O12673   7.643   7.945   5.026 -0.6426  0.5388  0.0444
   97MOL0     C12674   7.628   7.934   5.144 -0.0579  0.4558 -0.2467
   97MOL0     O12675   7.511   7.908   5.209 -0.3746  0.3944  0.0146
   97MOL0     C12676   7.392   7.879   5.139  0.2875 -0.2009  1.0025
   97MOL0     C12677   7.376   7.838   5.003  0.5797  0.4177 -0.4835
   97MOL0     C12678   7.244   7.828   4.947  0.5189 -1.0253 -0.5156
   97MOL0     C12679   7.130   7.845   5.025 -0.5154  0.4310  0.0521
   97MOL0     O12680   7.014   7.795   4.968  0.2014 -0.5122  0.6589
   97MOL0     C12681   6.912   7.771   5.056  0.5484 -0.1499 -0.7158
   97MOL0     C12682   6.799   7.706   4.983 -0.4172 -1.0323  0.0988
   97MOL0     C12683   6.681   7.699   5.082 -0.8153 -0.2240 -0.7392
   97MOL0     C12684   6.554   7.651   5.005  0.0822  0.6633 -0.0482
   97MOL0     C12685   6.452   7.655   5.118  0.4408  0.1097 -0.1108
   97MOL0     C12686   6.304   7.668   5.064  0.0754  0.5590  0.1066
   97MOL0     C12687   6.251   7.814   5.070  0.0915  0.3058  0.2411
   97MOL0     C12688   6.125   7.840   4.988  0.6325  0.4703  0.0032
   97MOL0     N12689   6.005   7.763   5.036 -0.4934 -1.0616 -0.4662
   97MOL0     C12690   5.905   7.823   5.105 -0.3820  0.1701  0.2365
   97MOL0     C12691   5.836   7.718   5.163 -1.2909 -0.6447 -0.2046
   97MOL0     C12692   5.746   7.739   5.279 -0.3513  0.2470 -0.4136
   97MOL0     C12693   5.606   7.744   5.230  1.0975 -0.1445  0.5703
   97MOL0     C12694   5.508   7.747   5.348  0.3371 -0.0272  0.8349
   97MOL0     C12695   5.360   7.758   5.307  0.4422  0.5449  0.2785
   97MOL0     O12696   5.283   7.749   5.431 -0.4444 -0.3289 -0.5524
   97MOL0     C12697   5.151   7.786   5.435  0.2794  0.2568 -0.4633
   97MOL0     C12698   5.091   7.796   5.559  0.3684 -0.1769  0.0817
   97MOL0     C12699   4.950   7.817   5.565 -0.5762 -0.2087  0.1676
   97MOL0     C12700   4.877   7.841   5.448  0.6814 -0.2230  0.4311
   97MOL0     C12701   4.728   7.857   5.457 -0.1885  0.0844 -0.0361
   97MOL0     O12702   4.683   7.915   5.579 -0.0741  0.1073  0.4683
   97MOL0     C12703   4.552   7.946   5.605  0.3707 -0.3646 -0.1414
   97MOL0     C12704   4.539   8.028   5.718  0.2759  0.6842 -0.4880
   97MOL0     C12705   4.417   8.061   5.768  0.5039 -0.1979  0.8746
   97MOL0     C12706   4.301   8.019   5.698  0.5244 -0.2647 -0.5802
   97MOL0     O12707   4.179   8.054   5.741  0.2423  0.4097 -0.2648
   97MOL0     C12708   4.127   8.025   5.872 -0.5176  0.0667  0.0600
   97MOL0     C12709   4.040   8.142   5.906 -0.5791  0.5718  1.0179
   97MOL0     C12710   3.945   8.127   6.027  0.1151 -0.4117 -0.2274
   97MOL0     C12711   3.881   8.265   6.064 -0.0929 -0.2383  0.0420
   97MOL0     C12712   3.762   8.255   6.156  0.0677 -0.8260 -0.6295
   97MOL0     C12713   3.740   8.394   6.219 -0.3834 -0.6411 -0.2644
   97MOL0     C12714   3.608   8.401   6.301  0.6888  0.0136 -0.0567
   97MOL0     C12715   3.563   8.539   6.324  0.1015 -0.0164  0.1099
   97MOL0    Cl12716   3.418   8.516   6.432  0.3496  0.5545 -0.1091
   97MOL0     C12717   4.314   7.951   5.574 -0.2060 -0.4701 -0.1860
   97MOL0     C12718   4.442   7.908   5.533  0.7989  0.4385 -0.0385
   97MOL0     O12719   4.656   7.836   5.361 -0.3639  0.4617 -0.5585
   97MOL0     C12720   4.938   7.838   5.325 -0.1314  1.6360  0.4369
   97MOL0     C12721   5.070   7.797   5.320  0.3364  0.1781 -0.4961
   97MOL0     N12722   5.892   7.601   5.131  0.3011  1.0102 -0.5397
   97MOL0     N12723   5.991   7.630   5.052 -0.1500  0.5288 -0.2628
   97MOL0     C12724   7.144   7.891   5.158  0.1263  0.0898  0.0489
   97MOL0     C12725   7.276   7.907   5.214  0.2958 -0.7259 -0.0546
   97MOL0     C12726   7.758   7.954   5.226  0.1291 -0.2598  1.6708
   97MOL0     C12727   7.874   8.009   5.164  0.5321  0.0528 -0.2569
   97MOL0     C12728   7.988   8.030   5.234 -0.0191  0.1806 -0.3290
   97MOL0     C12729   7.980   8.028   5.373 -0.4413 -0.8994  0.8871
   97MOL0     O12730   8.080   8.080   5.452 -0.0349  0.2440 -0.2170
   97MOL0     C12731   8.206   8.126   5.392  0.6772 -0.7342  0.3932
   97MOL0     C12732   8.305   8.011   5.370  0.3673  0.9015 -0.4257
   97MOL0     C12733   8.445   8.075   5.341 -0.1080  0.8901  0.0565
   97MOL0     C12734   8.455   8.080   5.188  0.5963  0.0114  1.2092
   97MOL0     C12735   8.585   8.137   5.154  0.2115  0.3303  0.0914
   97MOL0     C12736   8.697   8.189   5.164  0.1029 -0.8736  0.2055
   97MOL0     C12737   7.867   7.977   5.438  0.4162  0.2751  0.4057
   97MOL0     C12738   7.754   7.935   5.365  0.1217 -0.6364  0.0704
   97MOL0     H12739   7.462   7.818   4.940 -0.6360 -0.7097 -1.8436
   97MOL0     H12740   7.238   7.795   4.844 -0.4069  1.4423 -1.3398
   97MOL0     H12741   6.880   7.872   5.083  0.5619 -0.9058  2.6186
   97MOL0     H12742   6.924   7.705   5.142 -1.4800 -0.3866 -0.5710
   97MOL0     H12743   6.839   7.612   4.945  1.0392 -0.6882  0.7352
   97MOL0     H12744   6.780   7.773   4.898  1.8860 -1.6139 -0.9565
   97MOL0     H12745   6.660   7.798   5.122  0.4726  0.5622 -1.9130
   97MOL0     H12746   6.706   7.631   5.164 -2.2794  2.0436  1.7368
   97MOL0     H12747   6.524   7.721   4.926  1.9264  1.0119 -0.4769
   97MOL0     H12748   6.574   7.550   4.968 -1.8798 -0.0579  0.7157
   97MOL0     H12749   6.460   7.748   5.175 -1.0957 -0.7567  1.6179
   97MOL0     H12750   6.470   7.571   5.185 -1.0056 -0.7833 -0.7933
   97MOL0     H12751   6.235   7.611   5.126 -1.7707  1.3509 -1.1357
   97MOL0     H12752   6.288   7.631   4.962 -2.3222  0.4618  0.4682
   97MOL0     H12753   6.223   7.826   5.175 -1.6156 -0.0516 -0.1484
   97MOL0     H12754   6.331   7.884   5.045  4.6469 -2.9986  3.7859
   97MOL0     H12755   6.132   7.823   4.880  0.1760 -0.4699  0.1072
   97MOL0     H12756   6.106   7.947   4.988 -2.0747  0.0980 -2.1787
   97MOL0     H12757   5.884   7.928   5.118 -0.1030  0.0133  2.3591
   97MOL0     H12758   5.766   7.833   5.331  0.1296 -0.5444  0.8935
   97MOL0     H12759   5.758   7.649   5.341 -0.9105 -0.4949 -1.3485
   97MOL0     H12760   5.582   7.660   5.165  2.2677 -0.8453  1.0118
   97MOL0     H12761   5.584   7.835   5.173 -1.7194 -0.5990  0.7875
   97MOL0     H12762   5.520   7.653   5.404 -0.5431 -0.2790  0.6199
   97MOL0     H12763   5.525   7.835   5.411 -7.1442  1.8764  1.0971
   97MOL0     H12764   5.341   7.684   5.228  0.9525  0.6031  0.0981
   97MOL0     H12765   5.340   7.858   5.269 -1.1449  0.5972  1.1667
   97MOL0     H12766   5.157   7.800   5.645  0.7102  0.4645 -0.2011
   97MOL0     H12767   4.898   7.806   5.659 -0.0260  0.6837  0.5938
   97MOL0     H12768   4.636   8.042   5.766  1.0731 -1.0334 -1.5026
   97MOL0     H12769   4.413   8.098   5.870 -0.1951  0.1398  0.7317
   97MOL0     H12770   4.207   8.032   5.946 -1.5668  1.1759  1.1343
   97MOL0     H12771   4.076   7.929   5.888 -0.6815  0.0820 -0.3469
   97MOL0     H12772   3.988   8.151   5.810  3.9271 -1.7023 -1.9880
   97MOL0     H12773   4.108   8.228   5.913 -0.1685  0.1233  3.3432
   97MOL0     H12774   3.992   8.071   6.108  0.4239  0.3940  0.1707
   97MOL0     H12775   3.866   8.064   5.986 -0.5543 -0.6617  1.3648
   97MOL0     H12776   3.962   8.324   6.108  2.4744 -0.9324 -3.2734
   97MOL0     H12777   3.850   8.313   5.970  0.0518 -0.8065 -0.3072
   97MOL0     H12778   3.776   8.186   6.240 -2.4801 -0.6691 -0.0014
   97MOL0     H12779   3.677   8.233   6.090 -0.3122 -0.0332 -0.4205
   97MOL0     H12780   3.723   8.460   6.133  1.0459 -1.5037 -1.2608
   97MOL0     H12781   3.827   8.422   6.278 -0.3025  0.7611 -0.9995
   97MOL0     H12782   3.530   8.335   6.261  1.3251 -1.0428  0.3951
   97MOL0     H12783   3.638   8.362   6.398  0.7839 -1.0729 -0.5040
   97MOL0     H12784   3.538   8.574   6.223  3.3797 -1.5943 -1.4039
   97MOL0     H12785   3.641   8.605   6.362  0.7573  0.0150 -1.2222
   97MOL0     H12786   4.226   7.940   5.511 -1.4191 -1.7841  1.6359
   97MOL0     H12787   4.443   7.868   5.432 -2.4467  1.5400 -0.6383
   97MOL0     H12788   4.873   7.844   5.239  0.5005  1.0566 -0.0928
   97MOL0     H12789   5.108   7.766   5.223 -0.1751 -0.2603 -0.5595
   97MOL0     H12790   7.056   7.902   5.221 -0.3464  0.0007 -0.5831
   97MOL0     H12791   7.285   7.941   5.317  0.2084 -1.9678  0.3731
   97MOL0     H12792   7.870   8.029   5.058 -3.6289  0.0367 -0.2737
   97MOL0     H12793   8.067   8.074   5.174  1.2229 -1.2941  0.1639
   97MOL0     H12794   8.244   8.192   5.471 -0.2428  0.1112  0.1439
   97MOL0     H12795   8.199   8.191   5.304 -0.9485 -0.1094  0.9485
   97MOL0     H12796   8.313   7.945   5.457 -2.9358  0.9950  0.0752
   97MOL0     H12797   8.270   7.941   5.295 -0.3461  1.1997 -0.3831
   97MOL0     H12798   8.511   7.998   5.383 -1.4120 -0.7916 -0.8354
   97MOL0     H12799   8.466   8.176   5.377 -1.2548  0.7343  1.2850
   97MOL0     H12800   8.441   7.984   5.137  3.0197 -0.8273  1.9494
   97MOL0     H12801   8.376   8.145   5.153 -0.3251 -0.8288  1.6770
   97MOL0     H12802   8.791   8.240   5.170  1.5537 -3.4711  0.9674
   97MOL0     H12803   7.868   7.978   5.546 -0.5595  0.4358  0.4171
   97MOL0     H12804   7.664   7.889   5.405  0.4201 -0.8347  0.5127
   98MOL0     O12805   3.589   0.528   4.730 -0.2495  0.1929 -0.0674
   98MOL0     C12806   3.590   0.598   4.627  0.1758 -0.2016  0.7524
   98MOL0     O12807   3.478   0.644   4.572  0.4783  0.1522 -0.6474
   98MOL0     C12808   3.361   0.594   4.621  0.3969 -0.1077 -0.7503
   98MOL0     C12809   3.305   0.666   4.723 -0.5044 -0.1237 -0.1504
   98MOL0     C12810   3.189   0.626   4.792 -1.7551  0.0991  0.7434
   98MOL0     C12811   3.125   0.506   4.751  0.2374  0.4633 -0.2712
   98MOL0     O12812   3.005   0.459   4.805  0.4219 -0.2033  0.3967
   98MOL0     C12813   2.902   0.559   4.839  0.1289 -0.3654 -0.0693
   98MOL0     C12814   2.797   0.472   4.922  0.4211  0.5005  1.0108
   98MOL0     C12815   2.830   0.449   5.065 -0.4291 -0.1962 -0.3401
   98MOL0     C12816   2.738   0.348   5.127  0.1609  1.0963  0.2381
   98MOL0     C12817   2.583   0.398   5.139 -0.6388  0.2817  0.3202
   98MOL0     C12818   2.556   0.529   5.218 -1.0214 -0.1601 -0.6613
   98MOL0     C12819   2.611   0.539   5.365  0.7326  0.3548 -0.5985
   98MOL0     C12820   2.537   0.437   5.460  0.7862  0.6008  0.1016
   98MOL0     N12821   2.392   0.451   5.442 -0.1194 -0.8097  0.6967
   98MOL0     C12822   2.321   0.563   5.487 -0.7444  0.0453  0.9089
   98MOL0     C12823   2.191   0.542   5.437 -0.7602  0.1053 -0.2670
   98MOL0     C12824   2.086   0.638   5.464  0.3894 -0.8390 -0.0297
   98MOL0     C12825   2.080   0.698   5.607  0.2643 -0.0493 -0.5029
   98MOL0     C12826   1.968   0.788   5.641 -0.0317 -0.0636  0.1655
   98MOL0     C12827   1.930   0.886   5.528  0.3333  1.0224 -0.4723
   98MOL0     O12828   1.826   0.986   5.554 -0.0153  0.0982 -0.8353
   98MOL0     C12829   1.706   0.932   5.607 -0.1162  0.3511  0.6872
   98MOL0     C12830   1.630   1.025   5.680 -0.1491 -0.1934 -0.0661
   98MOL0     C12831   1.494   0.993   5.708 -0.6005  0.5123  0.1517
   98MOL0     C12832   1.434   0.874   5.665 -0.3877  0.4597 -0.2082
   98MOL0     C12833   1.294   0.849   5.688 -0.4799 -0.5845 -0.7848
   98MOL0     O12834   1.246   0.733   5.638  0.2416 -0.6139 -0.4631
   98MOL0     C12835   1.110   0.691   5.640  0.3236  0.2908 -0.3650
   98MOL0     C12836   1.064   0.591   5.555 -0.0582  1.2330  0.8463
   98MOL0     C12837   0.931   0.540   5.569 -0.1008  0.8097 -0.8029
   98MOL0     C12838   0.852   0.567   5.683 -0.3502  0.2441 -0.0794
   98MOL0     O12839   0.726   0.513   5.690 -0.5866 -0.2172  0.1399
   98MOL0     C12840   0.626   0.595   5.746  0.5106  1.0214 -1.0659
   98MOL0     C12841   0.493   0.526   5.726  0.1456  0.3270  0.3197
   98MOL0     C12842   0.380   0.584   5.821 -0.3388  0.4447  0.3415
   98MOL0     C12843   0.244   0.524   5.803  0.0157  0.0766 -0.3149
   98MOL0     C12844   0.121   0.593   5.869 -0.0544  0.6347 -0.2368
   98MOL0     C12845   0.082   0.731   5.832 -0.2789  0.5205 -0.2065
   98MOL0     C12846  -0.056   0.770   5.896 -0.4169  0.2563 -1.0193
   98MOL0     C12847  -0.108   0.897   5.835 -0.7472  0.5613 -0.0093
   98MOL0    Cl12848   0.010   1.031   5.882 -0.3747 -0.2205 -0.4160
   98MOL0     C12849   0.903   0.659   5.775  0.3713 -0.4919  0.6817
   98MOL0     C12850   1.029   0.718   5.749  0.1125 -0.0457  0.3607
   98MOL0     O12851   1.230   0.933   5.753 -0.0578 -0.4491  0.1570
   98MOL0     C12852   1.508   0.788   5.574 -0.0077 -0.0004  0.6319
   98MOL0     C12853   1.645   0.812   5.552 -0.9012  0.6621  0.5768
   98MOL0     N12854   2.188   0.423   5.373 -0.5368 -0.3925 -0.1689
   98MOL0     N12855   2.317   0.370   5.362 -0.0474 -0.3029  0.5356
   98MOL0     C12856   3.178   0.428   4.645  0.5514 -0.3248 -0.4256
   98MOL0     C12857   3.294   0.479   4.581 -0.0971  0.1599 -0.7205
   98MOL0     C12858   3.715   0.649   4.572 -0.8092  0.0539 -0.3019
   98MOL0     C12859   3.719   0.737   4.460 -0.4756 -0.5279 -0.0969
   98MOL0     C12860   3.845   0.760   4.404  1.3059 -0.2768  0.0839
   98MOL0     C12861   3.965   0.724   4.453  0.4044 -0.3248  0.2795
   98MOL0     O12862   4.067   0.775   4.372  0.2417  0.5776 -0.1555
   98MOL0     C12863   4.192   0.740   4.424 -0.4566  0.2907  0.7529
   98MOL0     C12864   4.246   0.833   4.539 -0.1114 -0.6614  0.0064
   98MOL0     C12865   4.398   0.814   4.563 -0.6170 -0.3758 -0.7893
   98MOL0     C12866   4.462   0.674   4.561 -0.0696  0.1531 -0.6192
   98MOL0     C12867   4.427   0.600   4.685 -0.6886 -0.2479 -0.5585
   98MOL0     C12868   4.375   0.555   4.783 -0.1025 -1.0275 -0.0597
   98MOL0     C12869   3.964   0.650   4.576  0.1921  0.1592  0.0906
   98MOL0     C12870   3.845   0.610   4.625 -0.0154 -0.0701 -0.4996
   98MOL0     H12871   3.356   0.755   4.760  0.7324 -1.4919  1.5481
   98MOL0     H12872   3.141   0.686   4.869 -2.5735 -0.5122  0.7244
   98MOL0     H12873   2.857   0.599   4.748  1.5801  0.4139 -0.4769
   98MOL0     H12874   2.949   0.632   4.907  0.8913 -1.5036  0.6664
   98MOL0     H12875   2.762   0.382   4.872 -1.4534  2.3621 -1.2877
   98MOL0     H12876   2.705   0.532   4.922 -0.7225 -1.1502  2.2436
   98MOL0     H12877   2.836   0.550   5.109  0.6984  0.8241 -2.6705
   98MOL0     H12878   2.930   0.405   5.062  1.0701  2.9568 -1.9154
   98MOL0     H12879   2.739   0.249   5.079 -0.4279  0.6535  1.1015
   98MOL0     H12880   2.771   0.342   5.231  3.2680  0.9915 -0.6723
   98MOL0     H12881   2.518   0.321   5.181  1.8418 -1.8450  0.4964
   98MOL0     H12882   2.547   0.417   5.038  2.8095 -3.2182 -1.8467
   98MOL0     H12883   2.451   0.560   5.208 -0.5366  0.7415 -3.8492
   98MOL0     H12884   2.602   0.607   5.157 -1.4452 -0.5038 -1.4450
   98MOL0     H12885   2.718   0.515   5.365  0.1780 -2.4728 -0.2670
   98MOL0     H12886   2.596   0.642   5.398 -3.3716  0.3245 -1.8472
   98MOL0     H12887   2.561   0.446   5.566 -3.8504  1.9978  1.2667
   98MOL0     H12888   2.561   0.334   5.433  2.1834  0.6437  1.0815
   98MOL0     H12889   2.348   0.641   5.558 -1.3536  0.5290  0.6165
   98MOL0     H12890   1.984   0.608   5.440 -0.5949  0.8525  1.7495
   98MOL0     H12891   2.108   0.719   5.394 -1.8696 -2.3816 -2.7069
   98MOL0     H12892   2.168   0.760   5.624 -0.4011  0.4715  1.2272
   98MOL0     H12893   2.081   0.619   5.682 -2.2155 -1.7689 -2.1154
   98MOL0     H12894   1.881   0.727   5.667 -1.1312 -0.0640 -3.0429
   98MOL0     H12895   2.004   0.842   5.729 -2.5957  3.1772 -0.5935
   98MOL0     H12896   1.896   0.824   5.445 -6.0699 -0.0518  2.3425
   98MOL0     H12897   2.022   0.938   5.500  0.6488  0.8111  0.1397
   98MOL0     H12898   1.664   1.127   5.698  0.6343 -0.5389  0.4566
   98MOL0     H12899   1.419   1.068   5.733 -2.0371 -0.3687 -1.3258
   98MOL0     H12900   1.126   0.557   5.473 -1.1260 -1.6637  1.1261
   98MOL0     H12901   0.897   0.458   5.507 -1.7077  1.1846 -0.4614
   98MOL0     H12902   0.633   0.698   5.710  1.5591  1.5109  0.4701
   98MOL0     H12903   0.641   0.597   5.854 -1.5699 -1.2715 -0.6439
   98MOL0     H12904   0.503   0.418   5.741  3.5567  0.2168 -1.7321
   98MOL0     H12905   0.455   0.540   5.624 -3.2518 -1.5075  1.1735
   98MOL0     H12906   0.375   0.691   5.801 -2.0692  0.3244 -0.0661
   98MOL0     H12907   0.414   0.581   5.925 -0.5394  1.3742  0.4419
   98MOL0     H12908   0.224   0.526   5.695 -1.6359  1.8801 -0.0394
   98MOL0     H12909   0.249   0.421   5.839  0.7251 -0.6031 -2.1937
   98MOL0     H12910   0.148   0.595   5.975 -0.5252  0.2840 -0.1033
   98MOL0     H12911   0.033   0.534   5.841  0.7041  0.3003 -2.0712
   98MOL0     H12912   0.080   0.745   5.724 -2.5499  0.0357 -0.2611
   98MOL0     H12913   0.158   0.801   5.867 -1.2031  3.1008 -2.9665
   98MOL0     H12914  -0.121   0.689   5.863 -0.6896  0.2877 -0.5539
   98MOL0     H12915  -0.033   0.777   6.003  0.1126 -0.1586 -1.1015
   98MOL0     H12916  -0.208   0.916   5.873 -1.3040 -4.8101  1.9927
   98MOL0     H12917  -0.110   0.882   5.726  1.6529  0.5111 -0.1085
   98MOL0     H12918   0.838   0.685   5.857  0.4622  1.2418  0.2368
   98MOL0     H12919   1.064   0.775   5.834  0.5007 -1.4774  1.2012
   98MOL0     H12920   1.462   0.703   5.526  0.9721 -1.8875  2.8512
   98MOL0     H12921   1.706   0.758   5.480 -0.5949  0.5423  0.9255
   98MOL0     H12922   3.143   0.333   4.608  2.0086 -0.6645 -0.9841
   98MOL0     H12923   3.324   0.421   4.494 -0.9651  2.0204 -2.3295
   98MOL0     H12924   3.640   0.792   4.409  0.7659  1.8999  0.4406
   98MOL0     H12925   3.841   0.813   4.309  1.1209  0.1474  0.3242
   98MOL0     H12926   4.257   0.758   4.339 -0.0160 -0.5355  0.9009
   98MOL0     H12927   4.202   0.634   4.450  0.7912  0.4522  0.9859
   98MOL0     H12928   4.220   0.935   4.508 -2.0900 -1.6105 -1.7830
   98MOL0     H12929   4.191   0.817   4.632 -1.0994  1.5019 -0.1485
   98MOL0     H12930   4.416   0.843   4.667  1.0441 -1.3525 -0.7678
   98MOL0     H12931   4.449   0.893   4.507 -2.0912  1.9576  0.9903
   98MOL0     H12932   4.425   0.616   4.475  0.7626 -1.5180  0.1136
   98MOL0     H12933   4.571   0.679   4.564 -0.0263 -0.7706 -0.2679
   98MOL0     H12934   4.330   0.514   4.871 -0.1218  0.1166  0.4886
   98MOL0     H12935   4.052   0.611   4.626  0.5365  1.5849  0.6526
   98MOL0     H12936   3.848   0.538   4.706  1.6357 -0.7362 -1.1118
   99MOL0     O12937   5.249   5.081  11.036  0.4696 -0.6899 -0.0693
   99MOL0     C12938   5.202   5.071  10.925  0.8445 -0.5041  0.2012
   99MOL0     O12939   5.275   5.079  10.808 -0.1317  0.3475 -0.0369
   99MOL0     C12940   5.414   5.075  10.814  1.0663  0.1225  0.2166
   99MOL0     C12941   5.485   4.973  10.748  0.1604 -0.5445  0.0508
   99MOL0     C12942   5.623   4.988  10.725 -0.0278  0.7603 -0.2145
   99MOL0     C12943   5.695   5.097  10.772  0.2782 -0.6603  0.5075
   99MOL0     O12944   5.830   5.110  10.742  0.0901 -0.3659 -0.2542
   99MOL0     C12945   5.885   5.055  10.621  0.0555 -0.3804 -0.5979
   99MOL0     C12946   6.020   5.107  10.580 -0.6642 -0.1099  0.6808
   99MOL0     C12947   6.023   5.262  10.588 -0.3364 -0.0327  0.7622
   99MOL0     C12948   6.143   5.331  10.527 -0.3751 -0.9790 -0.4654
   99MOL0     C12949   6.262   5.341  10.611  0.6105  0.9966  0.9994
   99MOL0     C12950   6.394   5.342  10.526 -0.0313  0.6007 -0.3806
   99MOL0     C12951   6.510   5.329  10.623  0.2910 -0.5572 -0.3714
   99MOL0     C12952   6.644   5.338  10.545  0.5566  0.1755  0.0349
   99MOL0     N12953   6.767   5.339  10.622  0.0903  0.1385 -0.9310
   99MOL0     C12954   6.850   5.234  10.644 -0.4886 -0.7419  0.6778
   99MOL0     C12955   6.936   5.270  10.742 -0.4372  0.3382 -0.4451
   99MOL0     C12956   7.022   5.188  10.841 -0.4215 -0.2325 -0.0206
   99MOL0     C12957   6.959   5.052  10.869  0.0954  0.0861  0.4480
   99MOL0     C12958   7.043   4.945  10.941 -0.3663  0.4113 -0.4196
   99MOL0     C12959   6.967   4.824  10.995  0.3499 -0.1640  0.9150
   99MOL0     O12960   6.850   4.876  11.065 -0.0035 -0.4212  0.5305
   99MOL0     C12961   6.743   4.797  11.093 -0.1885  0.1241 -0.1839
   99MOL0     C12962   6.632   4.864  11.147 -0.0478 -0.7236  0.7569
   99MOL0     C12963   6.515   4.805  11.173  0.3058  0.5028 -0.1396
   99MOL0     C12964   6.514   4.657  11.160  0.4766  0.0403 -0.2471
   99MOL0     C12965   6.392   4.575  11.182  0.0989 -0.7446  0.0759
   99MOL0     O12966   6.288   4.643  11.245 -0.0206  0.3835  0.0458
   99MOL0     C12967   6.185   4.564  11.282  0.7069 -0.0921 -0.9930
   99MOL0     C12968   6.058   4.566  11.211 -0.5954  0.4744  0.5673
   99MOL0     C12969   5.951   4.490  11.252  0.6952 -1.1505  0.0418
   99MOL0     C12970   5.963   4.424  11.376 -0.4624 -0.3074  0.4765
   99MOL0     O12971   5.859   4.354  11.426 -0.0818  0.6570 -0.1422
   99MOL0     C12972   5.724   4.408  11.403 -0.5092  0.3413 -0.8349
   99MOL0     C12973   5.625   4.323  11.483 -0.5883 -0.2735 -0.5181
   99MOL0     C12974   5.485   4.366  11.456  0.1703  0.1377 -0.6315
   99MOL0     C12975   5.396   4.253  11.498  0.4603 -0.1577 -0.4992
   99MOL0     C12976   5.260   4.306  11.518  0.4030 -0.2960 -0.2243
   99MOL0     C12977   5.168   4.191  11.558  0.5782 -0.9776  0.3564
   99MOL0     C12978   5.018   4.220  11.532  0.2100 -0.5615  0.7034
   99MOL0     C12979   4.909   4.131  11.576 -0.3857  0.3979 -0.1401
   99MOL0    Cl12980   4.940   3.968  11.510 -0.3894  0.5119  0.2989
   99MOL0     C12981   6.086   4.412  11.436 -0.4723 -0.2944  0.8875
   99MOL0     C12982   6.199   4.476  11.395  0.5006 -0.4883 -0.2506
   99MOL0     O12983   6.386   4.460  11.140 -0.2737  0.3217 -1.3018
   99MOL0     C12984   6.633   4.589  11.114 -0.1689  0.8148 -0.1574
   99MOL0     C12985   6.744   4.660  11.077 -0.4876  0.2020 -0.6378
   99MOL0     N12986   6.900   5.401  10.783 -0.3431 -0.3744 -0.2645
   99MOL0     N12987   6.800   5.437  10.720  0.0031  0.9243  0.6642
   99MOL0     C12988   5.628   5.200  10.850 -0.1760  0.0140 -0.1722
   99MOL0     C12989   5.487   5.189  10.869 -0.0750 -0.4960 -0.2732
   99MOL0     C12990   5.053   5.076  10.918 -0.8718  1.2653  0.6847
   99MOL0     C12991   4.994   5.101  10.798 -0.7383  0.2071  1.0786
   99MOL0     C12992   4.856   5.133  10.786 -0.3626 -0.9782  0.1049
   99MOL0     C12993   4.767   5.118  10.896 -0.1875  0.0465 -0.2783
   99MOL0     O12994   4.629   5.129  10.896  0.7657  0.3235 -0.3143
   99MOL0     C12995   4.550   5.158  10.783 -0.2066 -0.3471  0.2415
   99MOL0     C12996   4.412   5.122  10.810  0.0472  0.3346 -0.4362
   99MOL0     C12997   4.327   5.168  10.680 -0.9773 -0.2335 -0.9598
   99MOL0     C12998   4.327   5.057  10.579 -0.6972  0.2825 -0.0112
   99MOL0     C12999   4.446   5.058  10.484 -0.9216 -0.3344  0.0636
   99MOL0     C13000   4.536   5.057  10.404  0.0479  0.1970 -0.5188
   99MOL0     C13001   4.821   5.072  11.014 -0.5031  0.4309  0.1144
   99MOL0     C13002   4.967   5.063  11.025  1.4201  0.1288 -0.6610
   99MOL0     H13003   5.418   4.896  10.712 -0.3224 -1.8000  3.3139
   99MOL0     H13004   5.676   4.903  10.683 -4.3380 -2.2905 -0.1239
   99MOL0     H13005   5.818   5.078  10.538  0.2178 -1.4214 -1.0422
   99MOL0     H13006   5.895   4.946  10.621 -2.7857 -0.7363  1.1524
   99MOL0     H13007   6.040   5.076  10.477 -0.2035  0.3313  0.6348
   99MOL0     H13008   6.102   5.073  10.644 -0.7425  1.9023  1.9398
   99MOL0     H13009   6.028   5.287  10.694  1.8708  2.1221  0.2282
   99MOL0     H13010   5.929   5.294  10.543 -1.2108 -0.9542  1.8720
   99MOL0     H13011   6.170   5.265  10.444  2.0714 -4.4549  2.7451
   99MOL0     H13012   6.114   5.429  10.488 -0.5958 -1.0693 -0.5284
   99MOL0     H13013   6.260   5.249  10.670 -2.7969  0.1827 -0.1509
   99MOL0     H13014   6.275   5.426  10.679  1.9142  1.5667  0.0823
   99MOL0     H13015   6.385   5.433  10.467 -2.4395  3.6929  4.1103
   99MOL0     H13016   6.389   5.253  10.463 -1.9202  0.6519 -0.3572
   99MOL0     H13017   6.499   5.414  10.691 -2.5509  1.7766 -3.4389
   99MOL0     H13018   6.499   5.237  10.681 -2.8350  0.4687  0.8753
   99MOL0     H13019   6.653   5.435  10.494  1.4993  0.4064  0.6047
   99MOL0     H13020   6.650   5.262  10.467 -1.9946 -2.3170  2.0716
   99MOL0     H13021   6.849   5.133  10.604  2.5078 -0.3544 -0.6313
   99MOL0     H13022   7.026   5.238  10.939 -0.1028 -1.4523  0.6075
   99MOL0     H13023   7.116   5.179  10.786 -2.4174 -1.6098 -3.4918
   99MOL0     H13024   6.940   5.005  10.773 -1.9497 -0.3757  1.0207
   99MOL0     H13025   6.861   5.068  10.916 -0.7903 -3.4859  0.1035
   99MOL0     H13026   7.121   4.912  10.873  0.2013 -0.5700  0.6667
   99MOL0     H13027   7.096   4.996  11.023 -0.1950 -1.1408  0.4732
   99MOL0     H13028   7.027   4.758  11.058  2.9108  0.3475 -0.8223
   99MOL0     H13029   6.936   4.765  10.908  1.1584  1.5125 -0.5792
   99MOL0     H13030   6.645   4.972  11.154  1.4209 -0.7905 -0.4476
   99MOL0     H13031   6.429   4.867  11.195 -1.6240 -1.9583 -0.3830
   99MOL0     H13032   6.064   4.632  11.125 -3.0935  2.0219  1.4731
   99MOL0     H13033   5.867   4.500  11.184  0.2116 -0.8442  0.6693
   99MOL0     H13034   5.699   4.400  11.297  3.0321  0.1792 -1.7549
   99MOL0     H13035   5.718   4.510  11.441 -1.1954 -0.0282  0.0970
   99MOL0     H13036   5.656   4.331  11.588  3.4135  1.2404 -1.6275
   99MOL0     H13037   5.638   4.215  11.467  0.4654 -0.4532  1.3388
   99MOL0     H13038   5.462   4.375  11.349 -1.1705  0.0329 -0.3648
   99MOL0     H13039   5.454   4.457  11.509  0.5481 -0.6673  1.0223
   99MOL0     H13040   5.406   4.166  11.432  0.1945 -1.1282  0.7106
   99MOL0     H13041   5.421   4.219  11.599 -1.4724 -0.7198 -0.1734
   99MOL0     H13042   5.227   4.357  11.428 -0.3952  1.2396  0.8880
   99MOL0     H13043   5.258   4.378  11.601  1.7915 -1.0379  0.4913
   99MOL0     H13044   5.181   4.157  11.661  1.8694 -0.2662  0.4517
   99MOL0     H13045   5.196   4.097  11.510  0.9255  0.0487 -1.5334
   99MOL0     H13046   4.994   4.319  11.571  1.1224  0.5142 -1.3003
   99MOL0     H13047   4.997   4.234  11.425  0.5667  2.0917  0.9246
   99MOL0     H13048   4.813   4.171  11.545 -1.4131 -0.2100  2.0759
   99MOL0     H13049   4.909   4.136  11.686 -3.7010  0.9117 -0.0641
   99MOL0     H13050   6.111   4.348  11.521  4.1234  2.4598  1.9490
   99MOL0     H13051   6.287   4.468  11.459 -0.8679  0.7527  1.9189
   99MOL0     H13052   6.629   4.481  11.106 -1.3080  0.4701  3.2071
   99MOL0     H13053   6.825   4.605  11.030 -0.4362  0.1717 -0.5144
   99MOL0     H13054   5.684   5.282  10.892 -2.5924  1.7588 -0.1848
   99MOL0     H13055   5.444   5.270  10.927  0.0248 -2.1266  2.2292
   99MOL0     H13056   5.054   5.114  10.709 -1.6243  1.0739  0.5931
   99MOL0     H13057   4.821   5.154  10.686 -3.8776 -3.8981  0.5108
   99MOL0     H13058   4.591   5.105  10.696  0.3901 -0.3571  0.5246
   99MOL0     H13059   4.554   5.263  10.755  3.3132 -0.1791  1.0128
   99MOL0     H13060   4.400   5.016  10.835 -0.3307  0.6917  0.9522
   99MOL0     H13061   4.372   5.175  10.896 -1.2495  1.9289 -1.9335
   99MOL0     H13062   4.370   5.262  10.646  1.2960  0.3022  2.7278
   99MOL0     H13063   4.228   5.197  10.716 -0.1223 -0.2239  1.6031
   99MOL0     H13064   4.315   4.962  10.631  0.5145  0.0229 -0.1767
   99MOL0     H13065   4.237   5.067  10.517 -0.9846  0.6019  0.4601
   99MOL0     H13066   4.625   5.050  10.346  1.3426 -0.3998  1.4329
   99MOL0     H13067   4.763   5.061  11.105  4.0364 -0.2978  3.1962
   99MOL0     H13068   5.000   5.035  11.124 -1.9349 -1.2951  0.1648
  100MOL0     O13069   5.482   1.785   6.481 -0.2966  0.1982  0.4787
  100MOL0     C13070   5.428   1.839   6.384  0.8601 -0.1009 -0.3992
  100MOL0     O13071   5.300   1.868   6.373  0.5397  0.1444 -0.2473
  100MOL0     C13072   5.231   1.882   6.497  0.1983  1.0890  0.5614
  100MOL0     C13073   5.101   1.839   6.495  0.0800 -0.5030 -0.1485
  100MOL0     C13074   5.012   1.864   6.601 -0.8399  0.3754  0.7104
  100MOL0     C13075   5.067   1.935   6.704  0.4953 -0.7077 -0.5365
  100MOL0     O13076   4.988   1.967   6.808  0.2479 -0.2086 -0.3507
  100MOL0     C13077   4.907   2.082   6.796  0.5636  0.0657  0.0165
  100MOL0     C13078   4.788   2.058   6.699 -0.7508 -0.2755 -0.8138
  100MOL0     C13079   4.686   2.174   6.691  0.3777 -0.4414  0.0584
  100MOL0     C13080   4.725   2.273   6.584 -0.0956 -0.6090  0.3222
  100MOL0     C13081   4.634   2.392   6.553 -0.1260  0.1180 -1.6793
  100MOL0     C13082   4.634   2.491   6.667  1.1653  0.6298 -0.4866
  100MOL0     C13083   4.554   2.614   6.645  0.1672 -0.2235 -0.2759
  100MOL0     C13084   4.566   2.711   6.756 -0.5185  0.4553  0.2546
  100MOL0     N13085   4.440   2.791   6.762  0.2151 -0.4333 -0.3876
  100MOL0     C13086   4.407   2.897   6.681  0.3010  0.7437  0.3538
  100MOL0     C13087   4.279   2.924   6.711  1.0953 -0.2640  0.4925
  100MOL0     C13088   4.211   3.046   6.663  1.1266  0.5671  0.0515
  100MOL0     C13089   4.233   3.162   6.765 -0.4257  1.2880 -0.5900
  100MOL0     C13090   4.151   3.282   6.728 -0.2645  0.3758  0.4735
  100MOL0     C13091   4.001   3.252   6.732 -0.1356 -0.0934 -0.6750
  100MOL0     O13092   3.929   3.377   6.693 -0.8765 -0.4995 -0.1386
  100MOL0     C13093   3.799   3.376   6.676 -0.0910 -0.4821 -0.6721
  100MOL0     C13094   3.749   3.505   6.657  1.3770  0.5102 -0.3513
  100MOL0     C13095   3.611   3.526   6.619 -0.7556  0.2863  0.4912
  100MOL0     C13096   3.528   3.416   6.608  0.1206  0.2414 -1.2713
  100MOL0     C13097   3.386   3.435   6.587 -0.3533 -1.2404  0.9866
  100MOL0     O13098   3.314   3.327   6.594 -0.1574  0.2033  0.3090
  100MOL0     C13099   3.182   3.318   6.605  0.5426 -1.1884  0.8406
  100MOL0     C13100   3.134   3.193   6.624 -0.7252 -0.3664  0.6108
  100MOL0     C13101   3.001   3.166   6.678  0.5292  0.0175 -0.4057
  100MOL0     C13102   2.912   3.273   6.709 -0.1417  0.0060 -0.4468
  100MOL0     O13103   2.790   3.239   6.770 -0.3631  0.2888  0.6925
  100MOL0     C13104   2.706   3.345   6.809  0.0765  0.6655 -0.6099
  100MOL0     C13105   2.577   3.272   6.863 -0.3557  0.1363  0.2338
  100MOL0     C13106   2.492   3.365   6.937  0.0936 -0.7157 -0.2008
  100MOL0     C13107   2.373   3.288   6.999 -0.0791  0.0298 -0.3853
  100MOL0     C13108   2.306   3.353   7.128 -0.5699  0.7179 -0.1048
  100MOL0     C13109   2.233   3.483   7.090 -0.2974 -0.1309 -0.1921
  100MOL0     C13110   2.202   3.572   7.207  0.1323  0.7635  0.1793
  100MOL0     C13111   2.312   3.652   7.258 -0.2339 -0.0628  0.3172
  100MOL0    Cl13112   2.315   3.830   7.218 -0.3575 -0.0109  0.1694
  100MOL0     C13113   2.959   3.405   6.680  0.2856 -0.5074  0.1634
  100MOL0     C13114   3.086   3.428   6.636 -0.7385  0.3842  1.2199
  100MOL0     O13115   3.353   3.542   6.537 -0.0861  0.1445  0.3569
  100MOL0     C13116   3.580   3.282   6.634  1.3506 -0.4447 -0.6118
  100MOL0     C13117   3.715   3.257   6.677 -0.6961 -0.1561 -0.0819
  100MOL0     N13118   4.240   2.838   6.808  0.6896 -0.2255  0.4794
  100MOL0     N13119   4.331   2.758   6.833  0.2410 -0.9302  0.0233
  100MOL0     C13120   5.193   1.988   6.707  0.1273 -0.3068 -0.6373
  100MOL0     C13121   5.283   1.958   6.605  0.5313  0.1460 -1.4060
  100MOL0     C13122   5.514   1.869   6.270  0.0478  0.0707 -0.4042
  100MOL0     C13123   5.649   1.820   6.257 -0.7420  0.2634 -0.6377
  100MOL0     C13124   5.727   1.846   6.140 -0.0175 -0.2809  0.6337
  100MOL0     C13125   5.675   1.915   6.030 -0.0127 -0.0496 -0.7823
  100MOL0     O13126   5.735   1.956   5.921 -0.3910 -0.2956  0.0020
  100MOL0     C13127   5.874   1.923   5.897 -0.7757  0.0400  1.1542
  100MOL0     C13128   5.890   1.779   5.853  0.3459  1.3090  0.2306
  100MOL0     C13129   6.036   1.729   5.843  0.3737  0.5880 -0.1923
  100MOL0     C13130   6.111   1.774   5.719  0.0701  0.6224  0.7202
  100MOL0     C13131   6.235   1.690   5.712  0.2978 -0.1551  0.2223
  100MOL0     C13132   6.342   1.643   5.692 -0.2473  1.0504  0.6783
  100MOL0     C13133   5.540   1.944   6.035  0.4487  0.7218  1.0214
  100MOL0     C13134   5.463   1.922   6.151  0.9263  0.5856 -0.4349
  100MOL0     H13135   5.059   1.786   6.410  0.7000 -3.6484  1.3564
  100MOL0     H13136   4.914   1.817   6.603 -0.3684 -0.6549  0.2951
  100MOL0     H13137   4.968   2.165   6.760  3.7022 -1.8511  0.6334
  100MOL0     H13138   4.869   2.116   6.893  0.2122  3.4325 -1.1615
  100MOL0     H13139   4.738   1.965   6.727  2.7016 -2.1349 -0.2721
  100MOL0     H13140   4.835   2.045   6.601  0.9902  1.0682 -0.2185
  100MOL0     H13141   4.675   2.225   6.788  0.6010 -0.4362  0.0811
  100MOL0     H13142   4.588   2.136   6.662  0.3166  0.9448 -1.7390
  100MOL0     H13143   4.825   2.306   6.612 -0.7827 -0.5653  3.0155
  100MOL0     H13144   4.726   2.223   6.486  0.6701 -0.2926  0.1588
  100MOL0     H13145   4.532   2.355   6.536 -0.2562 -0.0850 -0.5551
  100MOL0     H13146   4.661   2.454   6.467 -2.9399  1.6302 -1.5966
  100MOL0     H13147   4.736   2.520   6.692  0.1043  2.8700  1.6487
  100MOL0     H13148   4.578   2.449   6.751  0.2104  1.8666 -0.4744
  100MOL0     H13149   4.586   2.666   6.554  2.0268 -0.2096  0.3384
  100MOL0     H13150   4.449   2.590   6.628 -0.9958  4.4427 -1.1251
  100MOL0     H13151   4.650   2.777   6.734 -1.2956  1.4437  0.2020
  100MOL0     H13152   4.581   2.666   6.855 -0.9102  3.2987  1.7158
  100MOL0     H13153   4.475   2.948   6.613 -0.7221 -2.3583 -3.3181
  100MOL0     H13154   4.103   3.028   6.653  0.6514  3.0535  0.0109
  100MOL0     H13155   4.242   3.069   6.561  2.6597  1.5737  0.7081
  100MOL0     H13156   4.340   3.180   6.759 -0.4304  1.3325 -0.5420
  100MOL0     H13157   4.213   3.129   6.867  1.3700 -1.3483 -0.9962
  100MOL0     H13158   4.158   3.357   6.807 -0.4110  0.0225  0.8232
  100MOL0     H13159   4.179   3.325   6.631  0.3679  0.3738  0.6515
  100MOL0     H13160   3.970   3.217   6.830  0.1965 -1.3263 -0.9917
  100MOL0     H13161   3.975   3.173   6.662 -4.2691  0.3778  0.0627
  100MOL0     H13162   3.814   3.591   6.668  0.6024  0.7586  3.6509
  100MOL0     H13163   3.581   3.629   6.600  0.8923  0.9010  1.0292
  100MOL0     H13164   3.195   3.106   6.602 -1.9457 -1.5136  1.6381
  100MOL0     H13165   2.981   3.060   6.685  0.3801  0.0492 -0.3404
  100MOL0     H13166   2.679   3.401   6.719 -2.4421  1.6346  0.6537
  100MOL0     H13167   2.754   3.413   6.880  1.7337  1.2383 -2.2025
  100MOL0     H13168   2.610   3.189   6.926 -0.0991 -1.3195 -1.7336
  100MOL0     H13169   2.528   3.235   6.772 -0.9590 -2.4954  1.5062
  100MOL0     H13170   2.457   3.451   6.879  0.8298  1.9795  2.9906
  100MOL0     H13171   2.545   3.403   7.025  2.2036  0.7570 -1.9838
  100MOL0     H13172   2.300   3.276   6.917 -1.8696 -3.7812  1.5147
  100MOL0     H13173   2.413   3.195   7.039  0.5114  1.2811  2.1206
  100MOL0     H13174   2.381   3.377   7.204  0.3901 -0.8471 -0.5094
  100MOL0     H13175   2.239   3.277   7.169  3.2235 -1.8804  1.8704
  100MOL0     H13176   2.142   3.456   7.035 -0.0272  0.5569 -1.0015
  100MOL0     H13177   2.296   3.542   7.022  1.1672 -0.5368  0.7654
  100MOL0     H13178   2.121   3.639   7.175 -1.0120 -1.8534 -3.0131
  100MOL0     H13179   2.169   3.508   7.289 -0.9661  0.6876 -0.3020
  100MOL0     H13180   2.408   3.613   7.223 -0.0849 -0.8130  1.5072
  100MOL0     H13181   2.308   3.633   7.366 -0.9524 -3.7450 -0.2314
  100MOL0     H13182   2.891   3.487   6.704 -0.5038 -0.5821 -1.6120
  100MOL0     H13183   3.118   3.532   6.640  0.0344  0.1298  1.9664
  100MOL0     H13184   3.521   3.193   6.614  2.9908 -1.9159  0.7565
  100MOL0     H13185   3.753   3.156   6.690  0.0123  0.3776  2.4549
  100MOL0     H13186   5.233   2.040   6.793  0.4576 -0.6936 -0.5573
  100MOL0     H13187   5.386   1.994   6.606  0.4607  0.4045  1.0535
  100MOL0     H13188   5.697   1.779   6.346  0.4071  0.5925 -1.0912
  100MOL0     H13189   5.823   1.795   6.134 -1.9726 -4.2113 -0.7923
  100MOL0     H13190   5.924   1.957   5.988  0.0118  2.6706 -0.1284
  100MOL0     H13191   5.918   1.984   5.816 -2.0155 -2.2385 -1.3846
  100MOL0     H13192   5.832   1.711   5.917  0.6856  1.5692  0.8198
  100MOL0     H13193   5.846   1.768   5.753  0.4344 -0.4279  0.3457
  100MOL0     H13194   6.036   1.620   5.849  0.3616  0.5915 -0.1295
  100MOL0     H13195   6.092   1.758   5.932 -0.1343 -2.5318  1.3044
  100MOL0     H13196   6.041   1.756   5.638  0.4971  1.2191  0.2074
  100MOL0     H13197   6.140   1.879   5.728 -1.2332  0.9673  1.0830
  100MOL0     H13198   6.440   1.604   5.677 -0.9347 -0.3460 -0.4182
  100MOL0     H13199   5.506   1.999   5.948 -1.4648  0.9281  1.8425
  100MOL0     H13200   5.358   1.947   6.139  0.7585  1.5688  2.2647
  101MOL0     O13201   4.739   9.599  10.420  0.2098  0.1608  0.5462
  101MOL0     C13202   4.771   9.497  10.483 -0.3313 -0.1195 -0.3685
  101MOL0     O13203   4.693   9.406  10.550  0.1150  0.0446 -0.3148
  101MOL0     C13204   4.562   9.434  10.542  0.4442  1.3635 -0.2887
  101MOL0     C13205   4.505   9.547  10.597  0.4086  0.5262  0.4866
  101MOL0     C13206   4.367   9.568  10.611  0.4783  0.9006 -0.1436
  101MOL0     C13207   4.282   9.468  10.564 -0.0273  0.3705 -0.7824
  101MOL0     O13208   4.146   9.480  10.564  0.1523  0.8699  0.2082
  101MOL0     C13209   4.085   9.534  10.678 -0.2792 -0.2259 -0.6484
  101MOL0     C13210   3.932   9.509  10.689  0.1921  0.0249  0.2235
  101MOL0     C13211   3.866   9.615  10.782 -0.3352  0.1470  0.8675
  101MOL0     C13212   3.867   9.582  10.931 -0.0320  0.4732  0.6521
  101MOL0     C13213   3.771   9.672  11.009 -0.1034 -0.4649 -0.1051
  101MOL0     C13214   3.731   9.608  11.142  0.4077 -0.2655 -0.2883
  101MOL0     C13215   3.662   9.719  11.228  0.1248  0.3686  0.7297
  101MOL0     C13216   3.601   9.649  11.355 -0.3865  0.5212 -0.0451
  101MOL0     N13217   3.517   9.731  11.438 -0.1427  0.9007  0.2902
  101MOL0     C13218   3.567   9.818  11.525 -0.1398 -0.1607  0.1068
  101MOL0     C13219   3.461   9.835  11.608 -1.3404  0.2765 -0.4133
  101MOL0     C13220   3.450   9.924  11.724  1.0825 -1.3040 -1.0903
  101MOL0     C13221   3.443  10.064  11.676 -0.4625 -0.4729 -0.1275
  101MOL0     C13222   3.308  10.100  11.606 -0.0755  0.3504 -0.1244
  101MOL0     C13223   3.316  10.077  11.460  0.5896  0.4378  0.1277
  101MOL0     O13224   3.409  10.159  11.392 -0.4501  0.8322 -0.6487
  101MOL0     C13225   3.355  10.248  11.314 -0.2665 -0.3369  1.0201
  101MOL0     C13226   3.314  10.216  11.181  0.7790 -0.4263  0.1772
  101MOL0     C13227   3.270  10.322  11.093 -0.4512  0.0431  0.2063
  101MOL0     C13228   3.260  10.453  11.140  0.1554 -0.7255  0.3910
  101MOL0     C13229   3.212  10.564  11.045  0.2513 -0.5090  0.2957
  101MOL0     O13230   3.202  10.550  10.910  0.0943 -0.3249  0.0966
  101MOL0     C13231   3.135  10.647  10.843 -0.2566 -0.0903 -0.4241
  101MOL0     C13232   2.996  10.665  10.858  0.1877 -0.5082  0.2002
  101MOL0     C13233   2.929  10.764  10.779 -0.0272  0.0238  0.1260
  101MOL0     C13234   2.999  10.853  10.692  0.2813 -0.8003 -0.3311
  101MOL0     O13235   2.928  10.943  10.611  0.5345 -0.4403 -0.7008
  101MOL0     C13236   2.788  10.938  10.601  0.5060  0.3575  0.5232
  101MOL0     C13237   2.737  11.049  10.510 -0.4945 -0.2181 -0.0008
  101MOL0     C13238   2.596  11.030  10.476 -0.6810  0.7317  0.3867
  101MOL0     C13239   2.551  11.143  10.389 -0.3194  0.1861 -0.9839
  101MOL0     C13240   2.395  11.131  10.376 -0.4142  0.0859 -0.2348
  101MOL0     C13241   2.351  11.017  10.283  0.3714 -1.5086  0.1368
  101MOL0     C13242   2.207  11.050  10.241  0.4604 -0.2018 -0.1943
  101MOL0     C13243   2.142  10.928  10.176 -0.7131 -0.2365  0.5074
  101MOL0    Cl13244   1.996  10.990  10.099 -0.3291 -0.2823 -0.4735
  101MOL0     C13245   3.144  10.856  10.697 -0.3588 -0.0686 -0.6410
  101MOL0     C13246   3.211  10.745  10.770 -0.2400 -0.4538  0.7315
  101MOL0     O13247   3.163  10.654  11.109  0.1805 -0.3050 -0.0039
  101MOL0     C13248   3.291  10.477  11.273  0.8283  1.1470 -1.0106
  101MOL0     C13249   3.327  10.375  11.360  0.0066  0.9297  0.6923
  101MOL0     N13250   3.355   9.762  11.569 -0.1752 -0.6905  0.1319
  101MOL0     N13251   3.395   9.696  11.471 -0.0476  0.1869 -0.3757
  101MOL0     C13252   4.342   9.352  10.506 -0.0029 -0.2276 -1.0147
  101MOL0     C13253   4.476   9.333  10.500 -0.0247  0.0205  0.0031
  101MOL0     C13254   4.917   9.492  10.513 -0.4053 -0.0291  0.5679
  101MOL0     C13255   4.971   9.446  10.641  0.0578  0.0557 -0.1128
  101MOL0     C13256   5.111   9.427  10.659  0.0572  0.1787  0.3302
  101MOL0     C13257   5.202   9.477  10.561  1.0029 -0.3817  0.6007
  101MOL0     O13258   5.335   9.474  10.561 -0.2524 -0.4316  0.2071
  101MOL0     C13259   5.401   9.405  10.662 -0.3507  0.0196  0.7167
  101MOL0     C13260   5.548   9.423  10.649 -0.8977  0.0397 -0.1431
  101MOL0     C13261   5.589   9.581  10.649 -0.1853  0.1778 -0.2034
  101MOL0     C13262   5.739   9.590  10.620  0.4176 -0.6292  0.0363
  101MOL0     C13263   5.813   9.561  10.742 -0.2572 -0.0715  0.7726
  101MOL0     C13264   5.891   9.534  10.835 -0.6858  0.3586 -0.2396
  101MOL0     C13265   5.152   9.525  10.436 -0.0243  0.0487  0.3895
  101MOL0     C13266   5.014   9.534  10.420  0.5128  0.1356  0.1715
  101MOL0     H13267   4.566   9.623  10.644  2.2060 -1.8341  2.2488
  101MOL0     H13268   4.331   9.658  10.660 -0.1019  0.4322  0.3151
  101MOL0     H13269   4.107   9.641  10.669 -0.8524 -0.1358 -1.0548
  101MOL0     H13270   4.124   9.486  10.768 -2.3891  1.2715  1.1606
  101MOL0     H13271   3.906   9.406  10.715 -1.4395 -0.0447 -1.5102
  101MOL0     H13272   3.885   9.528  10.592  0.5840 -2.2945 -0.4730
  101MOL0     H13273   3.761   9.621  10.753 -0.2123  1.2349  0.5827
  101MOL0     H13274   3.923   9.708  10.775 -1.0376  0.6502  1.6802
  101MOL0     H13275   3.825   9.482  10.940 -2.0108  1.0330 -1.5650
  101MOL0     H13276   3.967   9.587  10.976  0.0028 -0.1611  0.6460
  101MOL0     H13277   3.680   9.677  10.949  0.4867  2.8866 -0.8754
  101MOL0     H13278   3.811   9.773  11.014 -0.1104 -0.4189 -0.8686
  101MOL0     H13279   3.816   9.568  11.198 -1.2311 -2.1469  0.9790
  101MOL0     H13280   3.658   9.530  11.120  1.9920 -1.5833 -1.0627
  101MOL0     H13281   3.738   9.792  11.255  0.3065  0.2121  0.6444
  101MOL0     H13282   3.579   9.770  11.179 -0.2262 -1.0406 -0.1985
  101MOL0     H13283   3.684   9.613  11.417 -1.7411 -1.1187  0.8880
  101MOL0     H13284   3.543   9.560  11.328 -2.0414  0.6186  2.8146
  101MOL0     H13285   3.664   9.866  11.526 -0.7590  1.1707  1.4035
  101MOL0     H13286   3.534   9.910  11.792 -1.1211  0.9823  2.3865
  101MOL0     H13287   3.363   9.897  11.785  1.3292  0.4690  0.0966
  101MOL0     H13288   3.529  10.079  11.610  1.3476  1.6268  2.4725
  101MOL0     H13289   3.461  10.122  11.766 -0.2689 -1.2837  0.3727
  101MOL0     H13290   3.231  10.034  11.645  1.7078 -0.9506  1.3840
  101MOL0     H13291   3.283  10.203  11.636  1.7264  1.3338 -1.7223
  101MOL0     H13292   3.215  10.087  11.421  0.5750  1.0440  0.3025
  101MOL0     H13293   3.348   9.974  11.447  0.4741 -0.2729  4.1557
  101MOL0     H13294   3.320  10.112  11.150  0.4543 -0.5704  0.5883
  101MOL0     H13295   3.243  10.290  10.993  0.8167  1.5182 -0.6399
  101MOL0     H13296   2.927  10.611  10.922  0.9837 -1.9520 -0.1275
  101MOL0     H13297   2.824  10.781  10.797  0.2141  2.8731 -0.6825
  101MOL0     H13298   2.729  10.951  10.692 -0.3919  2.9757 -0.3307
  101MOL0     H13299   2.755  10.840  10.567 -4.7784  1.5979  1.2419
  101MOL0     H13300   2.799  11.045  10.421 -3.3550 -1.0143 -2.1045
  101MOL0     H13301   2.751  11.141  10.566  1.2152  0.8122 -2.0081
  101MOL0     H13302   2.530  11.032  10.564 -1.8640 -2.8583 -0.2368
  101MOL0     H13303   2.572  10.937  10.424  1.8270  0.2886 -0.1097
  101MOL0     H13304   2.575  11.239  10.435 -1.6227  0.3475 -0.5862
  101MOL0     H13305   2.601  11.128  10.293 -1.7930  0.0199 -1.7645
  101MOL0     H13306   2.370  11.225  10.326 -0.1384 -0.4904 -1.5093
  101MOL0     H13307   2.341  11.132  10.470 -1.1544  3.0717 -0.5850
  101MOL0     H13308   2.359  10.919  10.330 -1.5556 -2.0172 -0.4879
  101MOL0     H13309   2.413  11.016  10.192  1.7452  0.1278  0.9869
  101MOL0     H13310   2.141  11.074  10.325 -0.9211  1.1088 -1.5945
  101MOL0     H13311   2.199  11.137  10.175 -5.3672  1.8773  2.5407
  101MOL0     H13312   2.127  10.849  10.250 -1.7998 -3.4327 -2.8676
  101MOL0     H13313   2.195  10.880  10.094 -2.3985 -3.3292  1.0638
  101MOL0     H13314   3.200  10.918  10.628 -0.0130 -0.1071 -0.4002
  101MOL0     H13315   3.320  10.747  10.764 -0.2818  2.7972 -1.4262
  101MOL0     H13316   3.304  10.570  11.327  1.2037 -0.4716  1.8675
  101MOL0     H13317   3.345  10.387  11.467 -1.2616 -1.5589  1.2598
  101MOL0     H13318   4.273   9.279  10.466 -0.5119  1.2224 -2.9707
  101MOL0     H13319   4.510   9.235  10.466 -1.4599 -0.7716  0.7205
  101MOL0     H13320   4.902   9.406  10.716  1.8839  0.3516  1.8329
  101MOL0     H13321   5.151   9.384  10.750 -3.0454 -1.2055  1.1431
  101MOL0     H13322   5.381   9.299  10.647 -2.0784  0.6062 -1.6885
  101MOL0     H13323   5.375   9.438  10.763 -2.7782  0.7479 -0.0749
  101MOL0     H13324   5.593   9.375  10.736 -1.3039 -1.5261 -0.7486
  101MOL0     H13325   5.584   9.381  10.554 -2.2648 -0.5901 -0.4170
  101MOL0     H13326   5.568   9.616  10.751  1.2124  0.7409 -0.0970
  101MOL0     H13327   5.532   9.637  10.574 -1.2820 -2.3222 -1.3820
  101MOL0     H13328   5.772   9.541  10.528 -2.1449 -0.0421 -1.3023
  101MOL0     H13329   5.739   9.698  10.601 -0.5781 -0.3194  1.5701
  101MOL0     H13330   5.957   9.498  10.911  1.0743  0.6273 -1.5667
  101MOL0     H13331   5.225   9.566  10.367 -1.3837  3.3287  0.7115
  101MOL0     H13332   4.984   9.580  10.325 -0.4428  2.6713  1.5885
  102MOL0     O13333   3.384   3.399   1.972 -0.2934  0.2836  0.3939
  102MOL0     C13334   3.476   3.481   1.960  0.2177  0.1895 -0.3786
  102MOL0     O13335   3.512   3.577   2.046 -0.3718  0.4986  0.0104
  102MOL0     C13336   3.448   3.569   2.168 -0.8650  0.9579  0.5556
  102MOL0     C13337   3.327   3.626   2.190  0.1380 -0.0758  0.3945
  102MOL0     C13338   3.273   3.611   2.313  0.4667 -0.2307  0.3872
  102MOL0     C13339   3.337   3.547   2.419  0.7812 -0.2079 -0.4867
  102MOL0     O13340   3.284   3.526   2.546 -0.1888 -0.2982  0.5626
  102MOL0     C13341   3.208   3.646   2.593 -0.2190  0.2279  0.2607
  102MOL0     C13342   3.053   3.630   2.576 -0.4309 -0.1693 -0.1844
  102MOL0     C13343   2.988   3.553   2.688 -0.1491  0.2287 -0.1538
  102MOL0     C13344   2.832   3.548   2.683 -0.0237  0.1613 -0.3356
  102MOL0     C13345   2.775   3.448   2.783  0.0579  0.3554  0.5458
  102MOL0     C13346   2.619   3.445   2.797  0.2394 -0.6095  0.8108
  102MOL0     C13347   2.566   3.344   2.896 -0.4127  0.8650  0.5668
  102MOL0     C13348   2.420   3.358   2.915  0.0798 -0.2755 -0.2427
  102MOL0     N13349   2.341   3.317   2.794 -0.9318 -0.2896 -0.5822
  102MOL0     C13350   2.290   3.414   2.710  0.4146  0.7921  0.9412
  102MOL0     C13351   2.248   3.342   2.601 -1.1012  0.1126 -0.6976
  102MOL0     C13352   2.188   3.402   2.482 -0.1083  1.3623 -0.3805
  102MOL0     C13353   2.298   3.441   2.373  0.6093 -0.4397 -0.2658
  102MOL0     C13354   2.241   3.536   2.262 -0.1236 -0.1616 -0.5561
  102MOL0     C13355   2.121   3.480   2.191 -0.3145  0.1348 -0.0607
  102MOL0     O13356   2.011   3.496   2.277  0.2322  0.2076 -0.4850
  102MOL0     C13357   1.885   3.458   2.240 -0.2641 -1.1011 -0.2133
  102MOL0     C13358   1.861   3.406   2.115 -0.1549 -0.1461  0.1535
  102MOL0     C13359   1.737   3.368   2.073  0.4827 -0.1159  0.2477
  102MOL0     C13360   1.628   3.377   2.161  0.2887  0.2615  0.0486
  102MOL0     C13361   1.492   3.354   2.107 -0.2050 -0.0105 -1.3887
  102MOL0     O13362   1.401   3.349   2.204 -0.5471 -0.1564  0.1587
  102MOL0     C13363   1.268   3.339   2.160 -0.2784  0.7449  0.6541
  102MOL0     C13364   1.207   3.436   2.090  0.4856 -0.3389  0.4101
  102MOL0     C13365   1.068   3.417   2.064 -0.6730 -0.1890  0.3827
  102MOL0     C13366   0.995   3.310   2.120 -1.0519  0.3394  0.1588
  102MOL0     O13367   0.862   3.292   2.099  0.3741  0.6859 -0.1377
  102MOL0     C13368   0.774   3.405   2.121 -0.0116  0.4512  0.8782
  102MOL0     C13369   0.645   3.369   2.050 -0.4434  0.5389  0.5505
  102MOL0     C13370   0.545   3.317   2.156  0.2842 -0.2416  0.6205
  102MOL0     C13371   0.404   3.285   2.087 -0.1707  0.3896  0.0758
  102MOL0     C13372   0.332   3.412   2.038 -0.3972  0.3626 -0.5240
  102MOL0     C13373   0.185   3.400   2.017  0.0208 -0.2803 -0.0718
  102MOL0     C13374   0.115   3.363   2.149  0.1170  0.8811  0.1707
  102MOL0     C13375  -0.030   3.399   2.147 -0.4295 -1.3432 -0.2715
  102MOL0    Cl13376  -0.065   3.575   2.127  0.2096 -0.3322 -0.1843
  102MOL0     C13377   1.063   3.218   2.189 -0.8384  1.7082  0.9484
  102MOL0     C13378   1.197   3.225   2.206 -0.5647  0.3131  0.0579
  102MOL0     O13379   1.472   3.374   1.990  0.5095 -0.4872  0.4048
  102MOL0     C13380   1.649   3.422   2.294  0.3059  0.1094  0.0848
  102MOL0     C13381   1.778   3.469   2.333 -0.5625  0.5195  0.1737
  102MOL0     N13382   2.305   3.216   2.606 -0.2539  0.5310 -0.7854
  102MOL0     N13383   2.346   3.192   2.727  0.4870 -0.3110 -0.0735
  102MOL0     C13384   3.463   3.494   2.402 -0.0740 -0.2082  0.2641
  102MOL0     C13385   3.520   3.508   2.272  0.1825  0.1162 -0.5184
  102MOL0     C13386   3.533   3.486   1.831  0.4001 -0.1435  0.1367
  102MOL0     C13387   3.501   3.395   1.723 -0.3678  0.1468  0.2926
  102MOL0     C13388   3.564   3.397   1.600  0.5945 -0.1604  0.6432
  102MOL0     C13389   3.653   3.500   1.574 -0.8867 -0.2669 -0.2214
  102MOL0     O13390   3.698   3.505   1.451  0.2053  0.1278  1.2717
  102MOL0     C13391   3.663   3.631   1.383 -0.4472  0.4317 -0.5469
  102MOL0     C13392   3.726   3.650   1.247 -0.5976 -0.1681 -0.5336
  102MOL0     C13393   3.882   3.663   1.259 -0.4441  0.1544 -0.5042
  102MOL0     C13394   3.957   3.710   1.128  0.5047  0.0130  0.3102
  102MOL0     C13395   3.932   3.855   1.109  0.1198  0.0211 -0.0243
  102MOL0     C13396   3.912   3.974   1.085 -0.0600 -0.5249 -0.4932
  102MOL0     C13397   3.685   3.587   1.681  1.0544 -0.3633  0.6272
  102MOL0     C13398   3.637   3.572   1.811 -0.1402  0.6164 -0.3646
  102MOL0     H13399   3.270   3.682   2.117 -1.4117  1.1709  2.4541
  102MOL0     H13400   3.167   3.634   2.319 -0.0119 -2.1590 -0.1758
  102MOL0     H13401   3.244   3.740   2.551  2.5673 -0.8997 -0.0760
  102MOL0     H13402   3.231   3.645   2.700  0.2442  0.6157  0.1684
  102MOL0     H13403   3.036   3.566   2.489 -1.1523  1.2064 -1.0876
  102MOL0     H13404   3.008   3.728   2.558  0.6626  0.2285 -0.8655
  102MOL0     H13405   3.026   3.581   2.787 -0.4029  0.0564 -0.0053
  102MOL0     H13406   3.019   3.449   2.676 -0.1647  0.3174 -0.9858
  102MOL0     H13407   2.789   3.644   2.713 -0.1593 -0.7980  2.9287
  102MOL0     H13408   2.795   3.524   2.583 -0.9810 -1.4357  0.3663
  102MOL0     H13409   2.823   3.467   2.880  0.3859  1.6238  0.1487
  102MOL0     H13410   2.793   3.343   2.758 -2.3279  0.2147 -0.8575
  102MOL0     H13411   2.579   3.413   2.700  1.5809 -2.7710  0.8906
  102MOL0     H13412   2.594   3.547   2.826 -1.7263 -0.1548 -2.0169
  102MOL0     H13413   2.600   3.246   2.860 -1.6547 -0.2256  2.2191
  102MOL0     H13414   2.623   3.349   2.990  2.4587 -2.8562 -0.6956
  102MOL0     H13415   2.395   3.463   2.933 -0.5377 -0.2736 -1.1006
  102MOL0     H13416   2.376   3.307   3.001 -1.8175  2.5564  0.6495
  102MOL0     H13417   2.278   3.521   2.722 -0.2166  1.0565 -1.5231
  102MOL0     H13418   2.112   3.476   2.509 -2.0723 -0.9626  0.8535
  102MOL0     H13419   2.129   3.326   2.430 -0.3602  2.1499 -1.2857
  102MOL0     H13420   2.348   3.355   2.327  2.9924  0.0476  1.2512
  102MOL0     H13421   2.375   3.495   2.429 -1.9549  0.4170  2.7121
  102MOL0     H13422   2.222   3.634   2.307  2.1422  0.7208 -1.3697
  102MOL0     H13423   2.314   3.558   2.184  0.7768  0.5091  0.4531
  102MOL0     H13424   2.155   3.379   2.167  3.1212  1.3113 -0.6745
  102MOL0     H13425   2.102   3.531   2.096 -3.6023 -3.8996 -1.8802
  102MOL0     H13426   1.944   3.402   2.046 -1.7202  1.2361 -1.9065
  102MOL0     H13427   1.732   3.338   1.969  1.4913 -2.1343  0.7206
  102MOL0     H13428   1.259   3.514   2.036 -0.9349 -0.2433 -0.8935
  102MOL0     H13429   1.033   3.485   1.987 -0.4745 -0.8357 -0.2890
  102MOL0     H13430   0.809   3.500   2.080  0.2979  0.1147  0.3565
  102MOL0     H13431   0.756   3.414   2.229  1.2734 -3.5889  1.6190
  102MOL0     H13432   0.659   3.291   1.974  0.5903  0.6566  0.5954
  102MOL0     H13433   0.615   3.457   1.992  1.1317  1.7143  1.4191
  102MOL0     H13434   0.523   3.385   2.239 -0.5333 -2.4902  2.3606
  102MOL0     H13435   0.581   3.226   2.205 -2.1501 -0.9659  1.1800
  102MOL0     H13436   0.432   3.228   1.999  1.5479 -0.0785  0.8822
  102MOL0     H13437   0.345   3.242   2.169 -0.6632  1.7912  0.4919
  102MOL0     H13438   0.376   3.443   1.942 -1.6831  1.7039 -0.7175
  102MOL0     H13439   0.345   3.505   2.093  1.5064  0.4698 -1.0882
  102MOL0     H13440   0.169   3.320   1.945  0.2155  0.6629 -1.2022
  102MOL0     H13441   0.143   3.491   1.972  1.5576  0.9181  0.8021
  102MOL0     H13442   0.124   3.255   2.163  4.1566  0.7021 -2.2044
  102MOL0     H13443   0.172   3.411   2.229 -0.6994  0.6616  0.8915
  102MOL0     H13444  -0.069   3.363   2.243  0.5251  1.4084  1.2700
  102MOL0     H13445  -0.081   3.362   2.058 -0.2408  1.2707 -1.5333
  102MOL0     H13446   0.999   3.134   2.215  0.9544  0.4598  1.5249
  102MOL0     H13447   1.263   3.147   2.244  0.1806 -0.8393 -3.2803
  102MOL0     H13448   1.570   3.436   2.366  1.2160  1.1003  0.9178
  102MOL0     H13449   1.782   3.501   2.437  0.8273  1.9796 -0.2879
  102MOL0     H13450   3.510   3.445   2.487  1.2568 -1.5783 -1.2105
  102MOL0     H13451   3.608   3.449   2.247  0.6705  0.8822 -0.6146
  102MOL0     H13452   3.425   3.320   1.740 -1.3374  1.2995  1.2010
  102MOL0     H13453   3.527   3.332   1.521 -1.0160 -0.1041  1.3144
  102MOL0     H13454   3.682   3.718   1.446 -0.2498  0.5481 -0.7651
  102MOL0     H13455   3.555   3.624   1.366 -0.6158  1.0351  0.2037
  102MOL0     H13456   3.705   3.565   1.182 -1.4113 -0.2748 -0.1431
  102MOL0     H13457   3.679   3.741   1.209  0.6695  0.5839 -0.3609
  102MOL0     H13458   3.914   3.563   1.289  0.3635  0.4137 -0.4765
  102MOL0     H13459   3.915   3.729   1.340 -0.0503 -0.7336  0.0799
  102MOL0     H13460   4.063   3.683   1.116  1.3122  1.7113  2.8073
  102MOL0     H13461   3.913   3.647   1.050  1.2061 -0.2406  0.1035
  102MOL0     H13462   3.895   4.078   1.067  0.3434  0.0629  2.0625
  102MOL0     H13463   3.768   3.653   1.661  0.1148  0.4144 -0.9483
  102MOL0     H13464   3.686   3.632   1.887 -0.9244  0.2035  0.4854
  103MOL0     O13465   0.398   7.557  10.795  0.4541 -0.0004  0.1603
  103MOL0     C13466   0.469   7.529  10.890  0.1085 -0.0676  0.0098
  103MOL0     O13467   0.432   7.541  11.023 -0.4954  0.1045 -0.0495
  103MOL0     C13468   0.335   7.629  11.064 -0.5515 -0.1858 -0.1393
  103MOL0     C13469   0.289   7.748  11.004 -0.1645  0.1788  0.6266
  103MOL0     C13470   0.182   7.820  11.058  0.3394 -0.1118  0.1532
  103MOL0     C13471   0.108   7.772  11.162 -0.3150  0.9285  0.5631
  103MOL0     O13472  -0.002   7.836  11.196  0.5818  0.0196 -0.1767
  103MOL0     C13473  -0.103   7.752  11.259 -0.3514  0.4607 -0.2767
  103MOL0     C13474  -0.243   7.816  11.254 -0.7879 -0.0173 -1.1299
  103MOL0     C13475  -0.341   7.716  11.210 -0.0435 -0.1178 -0.2871
  103MOL0     C13476  -0.474   7.783  11.195 -1.6216  0.6401  0.0282
  103MOL0     C13477  -0.583   7.673  11.172  0.3252  0.9873  0.2860
  103MOL0     C13478  -0.717   7.722  11.121  0.6567  0.6443  0.1652
  103MOL0     C13479  -0.814   7.597  11.131 -0.3292 -0.0679 -0.7893
  103MOL0     C13480  -0.924   7.589  11.025 -0.2477  0.1172 -0.3832
  103MOL0     N13481  -1.000   7.719  11.014  0.3667 -0.1682 -0.6237
  103MOL0     C13482  -1.071   7.786  11.115 -0.2345 -0.3131 -0.2854
  103MOL0     C13483  -1.108   7.904  11.056 -0.6011  0.3027  0.0004
  103MOL0     C13484  -1.179   8.024  11.120  0.5098  0.4791  0.0687
  103MOL0     C13485  -1.334   8.016  11.114 -0.0086  0.4480  0.4206
  103MOL0     C13486  -1.369   8.022  10.963  0.2277 -0.6478  0.1453
  103MOL0     C13487  -1.331   8.147  10.883 -0.0760 -0.1596 -0.1103
  103MOL0     O13488  -1.358   8.260  10.975 -0.1260  0.3400  0.1572
  103MOL0     C13489  -1.473   8.320  10.944 -0.1460  0.1196 -0.6290
  103MOL0     C13490  -1.476   8.416  10.837  0.0443 -0.1037  0.0724
  103MOL0     C13491  -1.588   8.492  10.820 -1.0509 -0.0972  0.7183
  103MOL0     C13492  -1.701   8.478  10.899  0.3043  1.3518  0.2664
  103MOL0     C13493  -1.811   8.565  10.861  0.2139 -0.0077  0.3948
  103MOL0     O13494  -1.796   8.643  10.752 -0.2467 -0.0436  0.2063
  103MOL0     C13495  -1.905   8.706  10.707 -0.8595 -0.4614  0.3083
  103MOL0     C13496  -1.958   8.650  10.593  0.0905  0.0787 -0.2903
  103MOL0     C13497  -2.071   8.702  10.536 -0.9287  0.4929 -0.4845
  103MOL0     C13498  -2.137   8.809  10.595 -0.2822 -0.0350 -0.3813
  103MOL0     O13499  -2.245   8.869  10.531 -0.5004 -0.5312  0.2891
  103MOL0     C13500  -2.338   8.798  10.450 -0.6068 -0.5355 -0.0960
  103MOL0     C13501  -2.479   8.864  10.465 -0.5092  0.0794 -0.7569
  103MOL0     C13502  -2.574   8.796  10.368  0.1869 -0.5275 -0.6325
  103MOL0     C13503  -2.712   8.850  10.394  0.0641  0.8464  0.8126
  103MOL0     C13504  -2.799   8.811  10.276 -1.4922  0.6387  0.3529
  103MOL0     C13505  -2.934   8.877  10.290  0.1954 -0.4564 -0.1468
  103MOL0     C13506  -3.012   8.851  10.166 -0.4392 -0.4161  0.2598
  103MOL0     C13507  -3.148   8.906  10.194  0.2342 -0.0305 -0.7223
  103MOL0    Cl13508  -3.266   8.824  10.081 -0.7668 -0.5410  0.1465
  103MOL0     C13509  -2.091   8.865  10.714  0.4887  0.6236 -0.5363
  103MOL0     C13510  -1.975   8.814  10.774 -0.0182  0.1902 -0.3150
  103MOL0     O13511  -1.915   8.559  10.924 -0.5286  0.4179  0.2261
  103MOL0     C13512  -1.705   8.380  10.999 -0.0675 -0.2237  0.1811
  103MOL0     C13513  -1.587   8.308  11.019  0.7396  0.3304  1.3461
  103MOL0     N13514  -1.069   7.900  10.921 -1.0728 -0.1810 -0.7294
  103MOL0     N13515  -1.001   7.794  10.904  0.2119 -0.1410 -0.1560
  103MOL0     C13516   0.151   7.650  11.227  0.0077  0.5265 -0.7680
  103MOL0     C13517   0.256   7.579  11.170  0.4629  0.2209  0.2917
  103MOL0     C13518   0.608   7.480  10.865  0.0114  0.1275 -0.5648
  103MOL0     C13519   0.655   7.443  10.742 -0.8170  0.4808  0.2976
  103MOL0     C13520   0.788   7.395  10.724  0.2711  0.1405  0.9028
  103MOL0     C13521   0.876   7.385  10.828 -0.3648 -0.0020 -0.8598
  103MOL0     O13522   1.002   7.320  10.814  0.1590 -0.1102 -0.8841
  103MOL0     C13523   1.057   7.271  10.691  0.3106  0.2631 -0.8825
  103MOL0     C13524   1.204   7.246  10.711  0.2408  0.0751 -0.3032
  103MOL0     C13525   1.282   7.368  10.766  0.4068 -0.5586  0.5722
  103MOL0     C13526   1.434   7.355  10.756 -0.2446 -1.2832 -0.5582
  103MOL0     C13527   1.523   7.467  10.801 -0.3030 -0.7412  0.1212
  103MOL0     C13528   1.598   7.552  10.820  0.2164  0.4673  0.8527
  103MOL0     C13529   0.824   7.407  10.961  0.4889  0.1443  0.1458
  103MOL0     C13530   0.693   7.454  10.977  1.4619  0.2830 -0.2121
  103MOL0     H13531   0.352   7.788  10.926  1.4250  0.4589  1.9853
  103MOL0     H13532   0.147   7.912  11.014 -0.6548  0.0757  1.2952
  103MOL0     H13533  -0.072   7.737  11.362  0.5115 -1.8995 -0.8151
  103MOL0     H13534  -0.101   7.654  11.210  1.2138 -0.4899  1.6002
  103MOL0     H13535  -0.238   7.901  11.185  0.2030  2.1459  1.4302
  103MOL0     H13536  -0.272   7.862  11.349 -3.0988 -0.1330 -1.7181
  103MOL0     H13537  -0.350   7.629  11.275 -2.3463 -1.1817 -1.8943
  103MOL0     H13538  -0.310   7.674  11.114  0.5888 -0.6267  0.1326
  103MOL0     H13539  -0.501   7.839  11.285 -1.3684 -1.4764  1.4925
  103MOL0     H13540  -0.463   7.853  11.111 -0.3289  0.4908  0.0460
  103MOL0     H13541  -0.591   7.608  11.260 -1.6655 -0.4212 -0.8475
  103MOL0     H13542  -0.542   7.599  11.103 -0.7700  2.9094 -2.6492
  103MOL0     H13543  -0.713   7.744  11.013 -0.8904  0.0684 -0.0296
  103MOL0     H13544  -0.754   7.811  11.171 -3.8723 -0.2823 -1.1183
  103MOL0     H13545  -0.754   7.508  11.112  0.9502  0.5531  0.2107
  103MOL0     H13546  -0.853   7.593  11.233  0.6140 -0.7882 -0.4516
  103MOL0     H13547  -0.992   7.508  11.054  2.3613 -2.0180  0.1428
  103MOL0     H13548  -0.886   7.571  10.924  2.1740 -0.2374  0.5191
  103MOL0     H13549  -1.091   7.759  11.218 -0.9022  0.1864 -0.2778
  103MOL0     H13550  -1.150   8.121  11.079  1.8307  0.7473  1.5257
  103MOL0     H13551  -1.159   8.032  11.228 -1.9657  0.2561  0.5944
  103MOL0     H13552  -1.374   8.108  11.159  2.9917  2.8595 -1.4074
  103MOL0     H13553  -1.373   7.922  11.153 -0.2280 -0.7683 -2.5107
  103MOL0     H13554  -1.334   7.934  10.908 -4.2388 -0.6742 -3.1829
  103MOL0     H13555  -1.473   7.998  10.943  1.4214 -5.1928 -2.0213
  103MOL0     H13556  -1.393   8.144  10.792  0.0542 -3.6414 -0.2224
  103MOL0     H13557  -1.228   8.155  10.849 -0.4570 -0.4043 -1.3740
  103MOL0     H13558  -1.386   8.438  10.781  0.0758  1.2976  0.6454
  103MOL0     H13559  -1.587   8.578  10.753  2.6826  1.5386  2.5877
  103MOL0     H13560  -1.923   8.560  10.545  0.1986  1.6355 -3.3501
  103MOL0     H13561  -2.107   8.668  10.439 -2.1968 -0.5828  0.3416
  103MOL0     H13562  -2.349   8.697  10.492  0.3575 -0.7866 -0.4179
  103MOL0     H13563  -2.300   8.791  10.348 -1.1012  2.2988 -0.5646
  103MOL0     H13564  -2.468   8.971  10.443  1.3818 -0.0283 -0.5463
  103MOL0     H13565  -2.505   8.849  10.570  2.2604 -2.1993 -0.2802
  103MOL0     H13566  -2.579   8.689  10.389 -1.8321 -0.2493  0.7014
  103MOL0     H13567  -2.537   8.819  10.268  1.0867 -1.9188 -0.6398
  103MOL0     H13568  -2.764   8.819  10.484  2.4574  2.4483  2.8935
  103MOL0     H13569  -2.721   8.959  10.402 -2.9585  0.6722  0.7620
  103MOL0     H13570  -2.805   8.702  10.276  1.3987  0.3929  0.1232
  103MOL0     H13571  -2.752   8.849  10.185 -1.0550 -0.4434  0.1176
  103MOL0     H13572  -2.909   8.982  10.307  1.3396 -1.1783  3.4555
  103MOL0     H13573  -2.977   8.852  10.387  2.5836  1.8651  1.6518
  103MOL0     H13574  -2.966   8.894  10.077 -1.1372  4.3334  1.9155
  103MOL0     H13575  -3.014   8.742  10.158 -0.7540 -0.4598  0.8401
  103MOL0     H13576  -3.147   9.013  10.169  0.5896 -0.0133 -0.6390
  103MOL0     H13577  -3.194   8.896  10.293 -0.2027  1.6797 -0.7204
  103MOL0     H13578  -2.149   8.941  10.765  0.3678 -0.0143  0.3035
  103MOL0     H13579  -1.939   8.852  10.869  0.4774 -4.9654  1.8685
  103MOL0     H13580  -1.795   8.364  11.057 -1.6433  0.2969 -2.0028
  103MOL0     H13581  -1.591   8.232  11.096  1.1869 -0.2455  0.8046
  103MOL0     H13582   0.100   7.609  11.313 -1.5782  1.5832 -1.1409
  103MOL0     H13583   0.292   7.488  11.217  1.2501 -0.2695 -1.1947
  103MOL0     H13584   0.592   7.452  10.654  1.2748  0.6947 -1.2621
  103MOL0     H13585   0.834   7.383  10.627  0.3150  2.6604  0.5373
  103MOL0     H13586   1.047   7.357  10.624 -1.3219  0.2230 -0.7364
  103MOL0     H13587   1.000   7.185  10.654 -0.5468  0.5088 -0.1726
  103MOL0     H13588   1.225   7.163  10.779  1.2358 -0.1702 -0.8787
  103MOL0     H13589   1.256   7.216  10.619  4.0490 -0.2100  1.7073
  103MOL0     H13590   1.258   7.392  10.870  0.0265  0.8630  0.1895
  103MOL0     H13591   1.244   7.450  10.704 -1.4562  0.8493  3.3464
  103MOL0     H13592   1.473   7.269  10.812  2.1462 -1.2913 -2.0580
  103MOL0     H13593   1.465   7.334  10.653  0.2301  0.8997 -0.8991
  103MOL0     H13594   1.674   7.627  10.828  1.5720 -0.6218 -1.0908
  103MOL0     H13595   0.891   7.399  11.046  2.6115  4.7486 -0.7436
  103MOL0     H13596   0.651   7.456  11.078 -1.8514 -3.0364 -1.3053
  104MOL0     O13597  10.659   6.661   3.375  0.0762  0.6606 -0.3802
  104MOL0     C13598  10.688   6.626   3.494  0.4407 -0.1060 -0.1558
  104MOL0     O13599  10.600   6.593   3.593 -1.0345 -0.1814 -0.1647
  104MOL0     C13600  10.474   6.604   3.556 -0.0929 -0.4169 -0.3301
  104MOL0     C13601  10.383   6.705   3.598 -0.0337  0.2450  0.4154
  104MOL0     C13602  10.249   6.704   3.550 -0.2991  0.1685 -0.4152
  104MOL0     C13603  10.203   6.611   3.455  0.2198  0.3941 -0.0416
  104MOL0     O13604  10.075   6.605   3.401 -0.7347  0.1301 -0.2389
  104MOL0     C13605   9.979   6.707   3.427  0.1493  0.3347 -0.4722
  104MOL0     C13606   9.852   6.653   3.371 -0.1219 -0.1328 -0.9079
  104MOL0     C13607   9.870   6.625   3.222 -0.2923 -0.0031  1.0164
  104MOL0     C13608   9.739   6.613   3.148  0.0091 -0.6556  0.1713
  104MOL0     C13609   9.741   6.576   2.997 -0.5521  0.3556 -0.8491
  104MOL0     C13610   9.607   6.568   2.925  0.3438  0.3923  0.0864
  104MOL0     C13611   9.631   6.516   2.789 -0.0375  1.2479 -0.3718
  104MOL0     C13612   9.513   6.433   2.740  0.1325  0.3357 -0.5228
  104MOL0     N13613   9.405   6.529   2.701 -0.1586  0.2921 -0.0653
  104MOL0     C13614   9.397   6.582   2.580 -0.3935 -0.4630 -0.0460
  104MOL0     C13615   9.299   6.677   2.588 -0.1487 -0.4167  1.2715
  104MOL0     C13616   9.269   6.774   2.474 -0.2453 -0.2178 -0.3359
  104MOL0     C13617   9.110   6.774   2.452  0.1370  0.9677  0.1048
  104MOL0     C13618   9.073   6.855   2.331 -0.9613  0.4849 -0.7200
  104MOL0     C13619   8.923   6.846   2.312 -0.7521  0.3074  0.0563
  104MOL0     O13620   8.877   6.887   2.183 -0.3066 -0.8391 -0.1201
  104MOL0     C13621   8.754   6.847   2.145  0.0721 -0.2360 -0.1963
  104MOL0     C13622   8.655   6.802   2.237 -1.0057  0.3409  0.1065
  104MOL0     C13623   8.528   6.766   2.194  0.3991  0.3668  0.0998
  104MOL0     C13624   8.497   6.769   2.052 -0.7852  1.0365 -0.6980
  104MOL0     C13625   8.369   6.705   2.003 -0.3683  0.5474 -0.3564
  104MOL0     O13626   8.332   6.736   1.875  0.5517 -0.5435 -0.4010
  104MOL0     C13627   8.210   6.690   1.839  0.0822  0.0079  0.1816
  104MOL0     C13628   8.201   6.564   1.782 -0.1107  0.1655  0.0643
  104MOL0     C13629   8.076   6.530   1.737  1.0134  0.5844  0.0736
  104MOL0     C13630   7.955   6.606   1.743  0.2994  0.0323 -0.1531
  104MOL0     O13631   7.838   6.566   1.678  0.6150  0.1278  0.0711
  104MOL0     C13632   7.744   6.664   1.631  0.3667  0.0688  0.3541
  104MOL0     C13633   7.648   6.621   1.517  0.1479  0.5879  0.2788
  104MOL0     C13634   7.540   6.719   1.472 -0.0646  0.2868  0.6787
  104MOL0     C13635   7.435   6.656   1.379 -0.0448  0.2525 -0.7679
  104MOL0     C13636   7.337   6.760   1.339 -0.2464 -0.1486 -0.4199
  104MOL0     C13637   7.194   6.744   1.404  0.4749  0.5930  0.5322
  104MOL0     C13638   7.091   6.814   1.308 -0.5461  1.4409  0.2157
  104MOL0     C13639   6.951   6.823   1.357 -0.5610 -0.3544 -1.0151
  104MOL0    Cl13640   6.940   6.930   1.503  0.1021 -0.3159  0.0678
  104MOL0     C13641   7.971   6.727   1.817 -0.2886  0.0088  0.1156
  104MOL0     C13642   8.100   6.763   1.860  0.0873  0.0178  0.0174
  104MOL0     O13643   8.297   6.637   2.083  0.2030 -0.2655  0.9841
  104MOL0     C13644   8.600   6.809   1.966 -0.0082  0.1974  0.0667
  104MOL0     C13645   8.730   6.849   2.008  0.8237 -0.1930 -1.1474
  104MOL0     N13646   9.248   6.678   2.717 -0.3300 -0.6612 -0.6704
  104MOL0     N13647   9.316   6.587   2.789 -0.2739 -0.0425 -0.4561
  104MOL0     C13648  10.297   6.514   3.408 -0.4165  0.2325 -0.2284
  104MOL0     C13649  10.426   6.510   3.462  0.0661  0.7205  0.6025
  104MOL0     C13650  10.838   6.624   3.530 -0.6523 -0.3888 -0.7422
  104MOL0     C13651  10.929   6.709   3.471 -0.4092  0.1099  0.3795
  104MOL0     C13652  11.061   6.726   3.519 -0.1512  0.0912 -0.1875
  104MOL0     C13653  11.097   6.635   3.625 -0.9124  0.2999 -0.3754
  104MOL0     O13654  11.220   6.643   3.688 -0.5539 -0.3111  0.2888
  104MOL0     C13655  11.330   6.669   3.594 -0.4528  0.0938  1.1037
  104MOL0     C13656  11.437   6.561   3.618  0.6900 -0.0022  0.0410
  104MOL0     C13657  11.520   6.588   3.751  0.5670 -0.0342 -0.5126
  104MOL0     C13658  11.617   6.480   3.772  0.6255  0.2100  0.7357
  104MOL0     C13659  11.708   6.507   3.890 -0.1499  0.2159  0.3433
  104MOL0     C13660  11.783   6.523   3.989  0.5104 -0.6673 -0.3961
  104MOL0     C13661  11.013   6.535   3.668  1.4156 -0.1972 -0.2844
  104MOL0     C13662  10.883   6.539   3.629  0.5258 -0.4671 -0.8099
  104MOL0     H13663  10.415   6.757   3.687 -1.5691  0.2590  0.9885
  104MOL0     H13664  10.192   6.790   3.585  1.4155  1.7004 -1.1605
  104MOL0     H13665  10.014   6.795   3.372  0.3175  1.4040  1.2508
  104MOL0     H13666   9.970   6.723   3.535  1.4987 -0.2430 -0.2606
  104MOL0     H13667   9.764   6.719   3.376 -2.2418 -2.5780 -2.7082
  104MOL0     H13668   9.836   6.557   3.421  1.6003  0.2539  0.4653
  104MOL0     H13669   9.919   6.528   3.210 -0.3895  0.0737 -0.1371
  104MOL0     H13670   9.936   6.698   3.173  0.2594 -2.3081 -2.0135
  104MOL0     H13671   9.682   6.530   3.192 -0.9852  0.5859  1.3366
  104MOL0     H13672   9.680   6.704   3.159  0.0367 -0.4529 -1.1667
  104MOL0     H13673   9.806   6.488   2.989  0.5592  0.7381  2.4891
  104MOL0     H13674   9.793   6.659   2.948 -1.5209  1.6052  0.1701
  104MOL0     H13675   9.549   6.661   2.921  0.7958  0.6294 -1.2875
  104MOL0     H13676   9.539   6.498   2.974 -0.2495  0.0134 -1.2518
  104MOL0     H13677   9.660   6.595   2.719  0.7690  1.3107  0.0205
  104MOL0     H13678   9.718   6.451   2.781  0.4671  2.0258 -1.4679
  104MOL0     H13679   9.483   6.362   2.818  2.3733  1.9422  1.9578
  104MOL0     H13680   9.535   6.384   2.644 -0.3683 -0.4664 -0.2407
  104MOL0     H13681   9.458   6.562   2.493  2.4436 -0.6891  1.8453
  104MOL0     H13682   9.311   6.737   2.380 -1.5117  2.2431 -1.9591
  104MOL0     H13683   9.298   6.879   2.487 -1.1398  0.4945 -3.3993
  104MOL0     H13684   9.054   6.787   2.545 -0.0734  2.1916 -0.1692
  104MOL0     H13685   9.083   6.671   2.426  0.0414  1.2735 -1.0588
  104MOL0     H13686   9.102   6.957   2.355 -0.7176 -0.4963  4.1224
  104MOL0     H13687   9.132   6.834   2.241  1.7879  0.6356  0.9546
  104MOL0     H13688   8.877   6.903   2.393  0.6240  0.3966  0.7938
  104MOL0     H13689   8.890   6.741   2.314 -1.2670  0.4373 -0.9526
  104MOL0     H13690   8.680   6.793   2.342  1.8346 -0.7104 -0.5852
  104MOL0     H13691   8.447   6.724   2.253 -0.1952  1.4366  0.0892
  104MOL0     H13692   8.290   6.502   1.773 -0.4886 -0.4026  0.1755
  104MOL0     H13693   8.065   6.437   1.683 -1.9162 -0.2518  1.9203
  104MOL0     H13694   7.790   6.748   1.578 -1.7721  1.2149  0.1802
  104MOL0     H13695   7.676   6.697   1.710  0.6251 -0.1129  0.6537
  104MOL0     H13696   7.606   6.526   1.549  1.9849 -0.8367 -1.2859
  104MOL0     H13697   7.702   6.583   1.429  0.1977  2.4263 -0.5361
  104MOL0     H13698   7.602   6.786   1.412 -0.5732  0.5478  0.4322
  104MOL0     H13699   7.495   6.776   1.554 -0.4050  0.4258  0.4007
  104MOL0     H13700   7.475   6.608   1.290  0.1408 -2.0526  0.4726
  104MOL0     H13701   7.403   6.574   1.444  2.8512 -0.4417 -0.0894
  104MOL0     H13702   7.324   6.739   1.232  0.1322 -0.3127 -0.4369
  104MOL0     H13703   7.372   6.861   1.362  0.6148 -0.3401 -0.8483
  104MOL0     H13704   7.192   6.785   1.506  0.0179  0.1624  0.7002
  104MOL0     H13705   7.171   6.637   1.404 -0.6988  0.8249  0.2378
  104MOL0     H13706   7.131   6.912   1.281 -0.3219  0.7166 -2.2960
  104MOL0     H13707   7.072   6.751   1.220  0.0486 -1.9172  2.3071
  104MOL0     H13708   6.923   6.720   1.384  0.6317 -0.4503 -0.0674
  104MOL0     H13709   6.903   6.872   1.272  2.0309  1.6009 -1.4504
  104MOL0     H13710   7.886   6.790   1.838  0.7724  0.9915  1.7229
  104MOL0     H13711   8.120   6.858   1.908  0.9412 -0.4207  0.5671
  104MOL0     H13712   8.588   6.802   1.858  2.4498  1.2826 -0.3551
  104MOL0     H13713   8.817   6.864   1.945  2.0428  0.3182  0.6037
  104MOL0     H13714  10.262   6.440   3.338 -1.2977  0.8699 -0.4806
  104MOL0     H13715  10.488   6.431   3.422 -0.0966  0.2929  1.1703
  104MOL0     H13716  10.891   6.774   3.393 -1.5163 -0.9111  0.0310
  104MOL0     H13717  11.112   6.807   3.467 -1.4219  1.4721  0.6295
  104MOL0     H13718  11.364   6.772   3.606  2.8994 -0.5450 -1.2332
  104MOL0     H13719  11.293   6.655   3.492  1.0171 -1.2488  0.7127
  104MOL0     H13720  11.395   6.461   3.631  3.7793 -1.0703  3.4480
  104MOL0     H13721  11.504   6.552   3.532  1.0438 -0.9529  0.4077
  104MOL0     H13722  11.457   6.587   3.841  1.4449 -1.0471  0.1289
  104MOL0     H13723  11.571   6.684   3.747 -2.8757  2.1742  2.3839
  104MOL0     H13724  11.559   6.391   3.797  2.0265 -0.3420  2.2622
  104MOL0     H13725  11.680   6.466   3.684 -1.6450 -0.5395 -0.8523
  104MOL0     H13726  11.860   6.551   4.058  1.5592 -1.3349 -1.2559
  104MOL0     H13727  11.044   6.456   3.735  0.9751 -0.9856 -0.9791
  104MOL0     H13728  10.816   6.465   3.673 -1.1201  1.4193 -0.0094
  105MOL0     O13729   1.361   3.997   6.248  0.2394  0.6600  0.4978
  105MOL0     C13730   1.408   4.022   6.139 -0.3907  0.2006  1.1130
  105MOL0     O13731   1.359   3.990   6.012 -0.4420 -0.3848 -0.5173
  105MOL0     C13732   1.232   3.938   5.991 -0.2097 -0.6946  0.4150
  105MOL0     C13733   1.215   3.879   5.868  0.6344 -0.3824  0.0096
  105MOL0     C13734   1.087   3.818   5.832  0.1021  0.1915  0.2189
  105MOL0     C13735   0.978   3.824   5.926  0.3118 -0.7194  0.2094
  105MOL0     O13736   0.851   3.763   5.917 -0.1759 -0.0874  0.3971
  105MOL0     C13737   0.821   3.681   5.804  0.3576 -0.9894 -0.0725
  105MOL0     C13738   0.684   3.621   5.821  1.4441 -0.9139  0.6128
  105MOL0     C13739   0.683   3.514   5.928  0.2404 -0.5164  0.3351
  105MOL0     C13740   0.561   3.425   5.928  0.1724  0.5154 -0.4251
  105MOL0     C13741   0.427   3.498   5.953 -0.4372 -0.0565 -1.0003
  105MOL0     C13742   0.317   3.393   5.969  0.5982 -0.4713  0.3100
  105MOL0     C13743   0.190   3.443   6.039 -0.3857 -0.8108  0.0620
  105MOL0     C13744   0.100   3.331   6.097  0.0214 -0.2544  0.3034
  105MOL0     N13745   0.014   3.254   6.001 -0.6297  0.4507 -1.3428
  105MOL0     C13746  -0.099   3.314   5.949 -0.3913  0.0023  0.2827
  105MOL0     C13747  -0.141   3.221   5.853 -0.3075 -0.2804 -0.5388
  105MOL0     C13748  -0.264   3.239   5.771 -0.3197  0.1367 -0.2795
  105MOL0     C13749  -0.362   3.118   5.793 -0.3293 -0.2442  1.1782
  105MOL0     C13750  -0.491   3.155   5.712  0.5846  0.5874 -0.4481
  105MOL0     C13751  -0.509   3.052   5.597  0.8309  0.6308 -0.4654
  105MOL0     O13752  -0.530   2.916   5.646 -0.2078 -0.7088  0.4890
  105MOL0     C13753  -0.634   2.880   5.721  0.4925  0.2308 -0.8775
  105MOL0     C13754  -0.623   2.763   5.805 -1.0170  0.2491  1.3168
  105MOL0     C13755  -0.729   2.716   5.883  0.1064  1.0695 -0.3174
  105MOL0     C13756  -0.845   2.794   5.899 -0.2767  1.1110  0.1047
  105MOL0     C13757  -0.941   2.749   6.001 -0.7014 -0.2978  0.7225
  105MOL0     O13758  -0.910   2.626   6.060  0.1136 -1.0614  0.4578
  105MOL0     C13759  -1.018   2.554   6.092  0.1603  0.8854 -0.7606
  105MOL0     C13760  -1.042   2.517   6.231  0.3408 -0.7910  0.2725
  105MOL0     C13761  -1.152   2.450   6.272  0.5417  0.6565  0.0033
  105MOL0     C13762  -1.226   2.389   6.173  0.1968 -0.0271 -0.4260
  105MOL0     O13763  -1.341   2.315   6.204  0.2118  0.1660  0.4345
  105MOL0     C13764  -1.443   2.378   6.276 -0.4577 -0.0788 -0.2413
  105MOL0     C13765  -1.566   2.300   6.255 -0.1938  0.0505  0.5111
  105MOL0     C13766  -1.693   2.371   6.326 -0.1613 -0.1897 -0.2762
  105MOL0     C13767  -1.817   2.311   6.280  0.4533  1.3549  0.2762
  105MOL0     C13768  -1.924   2.359   6.366 -0.1201 -0.8610 -0.9391
  105MOL0     C13769  -2.055   2.279   6.350  0.4205  0.4241 -0.0579
  105MOL0     C13770  -2.161   2.361   6.420  0.8977 -0.5852  0.1066
  105MOL0     C13771  -2.307   2.305   6.399 -1.1217 -0.6826  0.3261
  105MOL0    Cl13772  -2.324   2.170   6.517 -0.5947  0.6312 -0.1227
  105MOL0     C13773  -1.197   2.396   6.041  0.2983  0.0962  0.4993
  105MOL0     C13774  -1.088   2.470   6.003 -0.1878  0.4546  0.1777
  105MOL0     O13775  -1.043   2.816   6.023 -0.1564 -0.1638 -0.1619
  105MOL0     C13776  -0.854   2.911   5.816  0.4268  0.2830  0.1324
  105MOL0     C13777  -0.752   2.954   5.731  0.5611 -0.4341  0.4228
  105MOL0     N13778  -0.051   3.118   5.856 -0.6234 -0.7376  0.2007
  105MOL0     N13779   0.046   3.148   5.937 -0.0386 -0.4236 -0.6198
  105MOL0     C13780   0.992   3.896   6.046 -0.6912 -0.3188 -0.4506
  105MOL0     C13781   1.119   3.942   6.083  0.1590 -0.2734 -0.8118
  105MOL0     C13782   1.544   4.085   6.142  0.6870  0.1519  0.1391
  105MOL0     C13783   1.605   4.107   6.266  0.1197 -0.1694 -0.0105
  105MOL0     C13784   1.740   4.155   6.267 -0.1733 -0.5920  0.1938
  105MOL0     C13785   1.804   4.198   6.147  0.7969 -0.3786 -0.7402
  105MOL0     O13786   1.931   4.249   6.159  0.4013 -0.1912 -0.5312
  105MOL0     C13787   1.941   4.390   6.130  0.1544 -0.9333  0.2151
  105MOL0     C13788   2.037   4.479   6.216 -0.8992  0.4103  0.5380
  105MOL0     C13789   2.021   4.485   6.365 -0.0905 -0.1288 -0.3877
  105MOL0     C13790   1.913   4.566   6.431  0.0901 -0.8740 -0.3611
  105MOL0     C13791   1.787   4.503   6.440 -0.1972  0.3570 -0.3143
  105MOL0     C13792   1.690   4.436   6.482 -0.9820  0.1691  0.2076
  105MOL0     C13793   1.727   4.190   6.031  0.0384  0.8187 -0.2003
  105MOL0     C13794   1.604   4.136   6.027  0.4283 -0.0293  1.0094
  105MOL0     H13795   1.292   3.882   5.792 -0.6147  1.6598 -1.2562
  105MOL0     H13796   1.066   3.778   5.734 -0.2389  0.6582  0.0966
  105MOL0     H13797   0.896   3.602   5.796  1.0921 -0.1804 -2.1130
  105MOL0     H13798   0.832   3.752   5.721  0.8542  0.1540  0.9479
  105MOL0     H13799   0.663   3.572   5.725  0.5234  1.5046 -0.5110
  105MOL0     H13800   0.609   3.700   5.833  2.8206  0.9340 -1.9251
  105MOL0     H13801   0.693   3.569   6.022 -1.5917 -1.1487  0.9208
  105MOL0     H13802   0.772   3.454   5.903  0.6935  0.7317 -1.2397
  105MOL0     H13803   0.543   3.375   5.832 -0.3503 -0.9233  0.3950
  105MOL0     H13804   0.575   3.347   6.004 -1.5564  1.5729  1.0736
  105MOL0     H13805   0.404   3.559   5.865 -3.4948 -1.0053 -0.9677
  105MOL0     H13806   0.429   3.553   6.047 -1.2069 -3.0428  0.8873
  105MOL0     H13807   0.348   3.308   6.030  0.8931 -1.5371 -1.2577
  105MOL0     H13808   0.289   3.358   5.869  1.1081 -2.0245  0.6929
  105MOL0     H13809   0.226   3.496   6.128 -0.5550  0.3865 -0.5537
  105MOL0     H13810   0.135   3.510   5.973 -0.9004 -1.1781  0.1194
  105MOL0     H13811   0.022   3.380   6.156  1.5983  0.2333  2.0731
  105MOL0     H13812   0.155   3.268   6.168 -0.7477 -3.8374 -2.0129
  105MOL0     H13813  -0.141   3.411   5.971 -1.0949 -0.6398  1.9948
  105MOL0     H13814  -0.222   3.236   5.670  0.0869 -1.5280 -0.0823
  105MOL0     H13815  -0.322   3.329   5.794 -0.4694  0.6454 -2.4831
  105MOL0     H13816  -0.388   3.105   5.898 -0.5036 -3.7946  0.8033
  105MOL0     H13817  -0.319   3.026   5.752  0.4368 -0.2986  2.0786
  105MOL0     H13818  -0.575   3.146   5.781  0.7293 -4.3142 -0.5565
  105MOL0     H13819  -0.496   3.254   5.665 -1.9975  1.4835  1.4493
  105MOL0     H13820  -0.426   3.050   5.525 -0.7600  1.1701 -2.4281
  105MOL0     H13821  -0.592   3.095   5.540 -0.3974 -0.7185  0.2408
  105MOL0     H13822  -0.532   2.705   5.798 -1.3201 -0.1592  0.6559
  105MOL0     H13823  -0.704   2.626   5.938 -0.1370  1.2557  0.1014
  105MOL0     H13824  -0.966   2.564   6.293  1.9307 -0.3920 -1.8631
  105MOL0     H13825  -1.179   2.433   6.376 -0.5920 -2.4315 -0.6761
  105MOL0     H13826  -1.452   2.486   6.265 -0.8719  0.2983  2.8101
  105MOL0     H13827  -1.421   2.373   6.384  0.6862  0.5579 -0.4293
  105MOL0     H13828  -1.559   2.196   6.289  4.4526  0.0858  0.3277
  105MOL0     H13829  -1.596   2.310   6.151  1.8942 -1.6514 -0.3154
  105MOL0     H13830  -1.688   2.475   6.293 -0.2448  0.4023  1.4952
  105MOL0     H13831  -1.679   2.369   6.435  0.8824 -2.3097 -0.3964
  105MOL0     H13832  -1.847   2.343   6.180  0.5671  0.1419 -0.1551
  105MOL0     H13833  -1.809   2.202   6.285  2.8044  1.4451 -0.1300
  105MOL0     H13834  -1.937   2.463   6.336 -3.6134 -1.0186 -0.3269
  105MOL0     H13835  -1.896   2.350   6.471  0.2710 -0.1535 -0.9804
  105MOL0     H13836  -2.043   2.179   6.392  2.2391  0.2524 -0.8777
  105MOL0     H13837  -2.077   2.266   6.244  3.9845 -2.0363 -0.6666
  105MOL0     H13838  -2.132   2.386   6.522  2.5632  3.8726 -1.2351
  105MOL0     H13839  -2.163   2.456   6.366 -3.0333 -1.9751 -2.7073
  105MOL0     H13840  -2.322   2.275   6.295 -4.1453 -0.1440  0.5183
  105MOL0     H13841  -2.387   2.378   6.416 -1.7225 -1.4015  0.6089
  105MOL0     H13842  -1.262   2.334   5.981 -0.7038 -1.2939  2.8955
  105MOL0     H13843  -1.049   2.468   5.902  0.9588  1.7364  0.5635
  105MOL0     H13844  -0.945   2.971   5.815  1.0893  1.3169  0.8535
  105MOL0     H13845  -0.769   3.049   5.680 -0.6506 -0.1320  1.3348
  105MOL0     H13846   0.901   3.922   6.099 -0.2167 -1.3533  0.9244
  105MOL0     H13847   1.135   3.982   6.183 -0.4486 -1.0436 -0.3873
  105MOL0     H13848   1.568   4.077   6.364  2.3427  0.5734  1.1195
  105MOL0     H13849   1.790   4.168   6.363 -1.2380 -1.1462  0.8414
  105MOL0     H13850   1.844   4.440   6.137 -0.4697 -2.1594  0.5216
  105MOL0     H13851   1.968   4.406   6.025 -1.9467  1.6377 -0.0432
  105MOL0     H13852   2.142   4.450   6.202  0.0210  4.3816 -2.4813
  105MOL0     H13853   2.041   4.579   6.173 -1.1112  0.9106  1.6523
  105MOL0     H13854   2.114   4.517   6.413  0.3875 -1.9940 -0.0072
  105MOL0     H13855   2.022   4.381   6.397  2.2215  0.0994  0.4765
  105MOL0     H13856   1.947   4.596   6.531 -1.5323  1.9431 -0.5334
  105MOL0     H13857   1.899   4.663   6.382 -0.4694 -0.6608  0.2081
  105MOL0     H13858   1.600   4.382   6.507 -1.5490  0.9707 -0.0589
  105MOL0     H13859   1.783   4.229   5.946  4.0124  1.3632  2.4423
  105MOL0     H13860   1.557   4.139   5.929 -0.5694 -0.7038  1.4463
  106MOL0     O13861   0.486   1.308  10.454  0.1648 -1.1706  0.0189
  106MOL0     C13862   0.543   1.273  10.355 -0.2812  0.4714  0.0354
  106MOL0     O13863   0.485   1.210  10.252  0.2959 -0.1482  0.8768
  106MOL0     C13864   0.353   1.219  10.252  0.8411  0.4908 -0.4528
  106MOL0     C13865   0.281   1.127  10.332  0.7044  0.3092 -0.8292
  106MOL0     C13866   0.136   1.122  10.331 -0.4929 -0.3312 -0.4052
  106MOL0     C13867   0.060   1.207  10.254  0.1601 -0.6484  0.1191
  106MOL0     O13868  -0.078   1.198  10.266 -0.1269  0.7281  0.0272
  106MOL0     C13869  -0.163   1.291  10.209  0.6908 -0.7726  0.7670
  106MOL0     C13870  -0.294   1.224  10.244 -0.3568 -0.0131 -0.1501
  106MOL0     C13871  -0.404   1.284  10.152 -0.9299  0.7426 -0.1783
  106MOL0     C13872  -0.527   1.200  10.169 -0.4966 -0.4621  0.4586
  106MOL0     C13873  -0.654   1.279  10.132 -0.2771  0.0801 -0.1833
  106MOL0     C13874  -0.783   1.207  10.152 -0.0169  0.0482  0.3345
  106MOL0     C13875  -0.906   1.300  10.146  0.0496 -0.3870  0.0609
  106MOL0     C13876  -0.942   1.347  10.003 -0.7091  0.2594  0.5532
  106MOL0     N13877  -1.074   1.408   9.984  0.5301  0.7617  0.4271
  106MOL0     C13878  -1.153   1.478  10.076  0.0905  0.3675 -0.1604
  106MOL0     C13879  -1.246   1.541  10.007  0.9835  0.7508 -0.1199
  106MOL0     C13880  -1.361   1.630  10.055 -1.0153  0.4268  0.0681
  106MOL0     C13881  -1.469   1.559  10.132 -0.3941  0.4322  0.4168
  106MOL0     C13882  -1.538   1.470  10.012 -0.3404 -0.5326 -1.0129
  106MOL0     C13883  -1.679   1.428  10.045  0.2830 -0.2439  0.5239
  106MOL0     O13884  -1.760   1.542  10.069 -0.1324 -0.2299 -0.1395
  106MOL0     C13885  -1.895   1.521  10.051  0.0697 -0.0931 -1.0671
  106MOL0     C13886  -1.979   1.630  10.049 -0.4515 -0.4634 -1.5681
  106MOL0     C13887  -2.117   1.622  10.058 -0.4839 -0.4276 -0.0717
  106MOL0     C13888  -2.188   1.505  10.058 -0.8271 -0.2018  0.5410
  106MOL0     C13889  -2.328   1.496  10.077  0.3726  0.1052  0.4346
  106MOL0     O13890  -2.380   1.603  10.144 -0.1789 -0.1179  0.9267
  106MOL0     C13891  -2.513   1.641  10.142  0.0766  0.9132 -0.5742
  106MOL0     C13892  -2.598   1.661  10.027 -0.8819 -0.3010  0.1088
  106MOL0     C13893  -2.736   1.678  10.047 -0.3428  0.8499  0.3633
  106MOL0     C13894  -2.790   1.682  10.171  1.3493  0.5317 -0.1136
  106MOL0     O13895  -2.930   1.699  10.196  0.6531  0.2159 -0.0507
  106MOL0     C13896  -3.027   1.641  10.106 -1.4975 -0.7517 -0.1932
  106MOL0     C13897  -3.162   1.684  10.144 -0.1224 -0.5689  0.3062
  106MOL0     C13898  -3.260   1.579  10.108  0.0768  0.0087  0.3001
  106MOL0     C13899  -3.263   1.455  10.213  0.3266  0.0439 -0.4533
  106MOL0     C13900  -3.346   1.338  10.158  0.5504  0.0365 -0.8898
  106MOL0     C13901  -3.356   1.220  10.262  0.5164 -1.5853  0.2225
  106MOL0     C13902  -3.243   1.123  10.263 -0.8392  0.7238  0.5109
  106MOL0     C13903  -3.259   1.009  10.370 -0.1497 -0.2230 -0.2026
  106MOL0    Cl13904  -3.390   0.894  10.310  0.6013  0.0019 -0.1146
  106MOL0     C13905  -2.706   1.673  10.282 -0.4188  0.0689  0.4531
  106MOL0     C13906  -2.575   1.646  10.270 -0.2808  0.5473  0.5418
  106MOL0     O13907  -2.393   1.401  10.031 -0.1584  0.0407  0.2716
  106MOL0     C13908  -2.110   1.389  10.064 -1.0615 -0.2143 -0.1003
  106MOL0     C13909  -1.971   1.395  10.054 -0.1434 -0.2218 -0.7769
  106MOL0     N13910  -1.220   1.518   9.872  0.3458 -0.1066  0.8396
  106MOL0     N13911  -1.120   1.438   9.861 -0.1929 -0.7857 -0.5647
  106MOL0     C13912   0.138   1.298  10.174  1.0166 -0.2266 -0.6642
  106MOL0     C13913   0.280   1.303  10.174  0.6470 -0.6418  0.2685
  106MOL0     C13914   0.691   1.271  10.343  0.3748  0.0037 -0.3550
  106MOL0     C13915   0.760   1.212  10.239 -0.5295  0.5305  0.3011
  106MOL0     C13916   0.898   1.211  10.222  0.2279  0.3308 -0.4123
  106MOL0     C13917   0.978   1.269  10.323  0.1424  0.5485  0.1120
  106MOL0     O13918   1.114   1.281  10.308  0.1023  0.4095  0.7273
  106MOL0     C13919   1.205   1.286  10.427  0.2513  0.9612 -0.3645
  106MOL0     C13920   1.184   1.171  10.523 -0.5883  0.7021 -0.3994
  106MOL0     C13921   1.190   1.039  10.454 -1.2070  0.3018  1.0285
  106MOL0     C13922   1.168   0.914  10.543  0.0520  0.8001 -0.0344
  106MOL0     C13923   1.241   0.931  10.676  0.3272 -0.1615  0.1187
  106MOL0     C13924   1.296   0.960  10.780  0.1379  0.0954 -0.2543
  106MOL0     C13925   0.911   1.327  10.435  0.3644  0.8910 -0.8927
  106MOL0     C13926   0.770   1.317  10.455 -0.4088 -0.3757  0.0406
  106MOL0     H13927   0.322   1.048  10.392  0.5700  0.2761 -0.7788
  106MOL0     H13928   0.085   1.050  10.395  1.9719  0.0958  2.2532
  106MOL0     H13929  -0.146   1.308  10.103  3.1592 -0.7102  1.1256
  106MOL0     H13930  -0.167   1.393  10.250 -1.2179  0.0901 -1.3542
  106MOL0     H13931  -0.311   1.235  10.351  2.1770 -2.1432  0.5874
  106MOL0     H13932  -0.281   1.116  10.227 -0.2248 -0.3206  1.7285
  106MOL0     H13933  -0.377   1.291  10.047 -0.6747 -1.1751 -0.2711
  106MOL0     H13934  -0.438   1.377  10.198  0.4418  0.1652  2.2168
  106MOL0     H13935  -0.526   1.103  10.118  0.0420  0.5629 -1.6100
  106MOL0     H13936  -0.536   1.176  10.275 -2.6880  0.7119  0.5990
  106MOL0     H13937  -0.643   1.308  10.027  0.1390  1.7970  0.3006
  106MOL0     H13938  -0.639   1.364  10.199  4.8252 -0.2079 -0.5151
  106MOL0     H13939  -0.773   1.172  10.256 -0.7609 -0.2686  0.3012
  106MOL0     H13940  -0.785   1.121  10.085 -0.7750 -0.9970  1.6578
  106MOL0     H13941  -0.986   1.238  10.188 -2.6450  1.7932 -1.5180
  106MOL0     H13942  -0.892   1.383  10.216  2.7645  0.7580 -1.7117
  106MOL0     H13943  -0.939   1.256   9.942 -2.4016  0.8950 -0.5555
  106MOL0     H13944  -0.865   1.417   9.969  2.8975 -2.8802  1.5115
  106MOL0     H13945  -1.141   1.484  10.183 -2.3205 -1.4001  0.3178
  106MOL0     H13946  -1.407   1.680   9.970 -0.7592 -0.0510 -0.3549
  106MOL0     H13947  -1.318   1.718  10.103  2.0748 -0.8624 -0.0863
  106MOL0     H13948  -1.537   1.635  10.173 -0.5933  0.7057 -0.4013
  106MOL0     H13949  -1.425   1.495  10.209 -0.0522  0.2075  0.0349
  106MOL0     H13950  -1.529   1.526   9.918  0.0329  1.0789 -0.0621
  106MOL0     H13951  -1.481   1.377  10.003 -0.2058 -0.6424  0.6803
  106MOL0     H13952  -1.675   1.367  10.136  0.1499 -0.8602  0.1180
  106MOL0     H13953  -1.721   1.367   9.965  0.8068  0.1531 -0.0605
  106MOL0     H13954  -1.936   1.730  10.039 -0.3492 -0.4566 -1.0719
  106MOL0     H13955  -2.172   1.716  10.055 -0.5451 -0.4633 -0.0934
  106MOL0     H13956  -2.572   1.660   9.922 -1.7086 -0.4436 -0.1032
  106MOL0     H13957  -2.795   1.693   9.958 -1.9247 -0.4516  1.1474
  106MOL0     H13958  -3.006   1.534  10.108  2.6883 -0.1522 -1.0034
  106MOL0     H13959  -3.000   1.672  10.004  0.5328  2.0258  1.0238
  106MOL0     H13960  -3.187   1.780  10.098 -0.4689 -1.1322 -0.7127
  106MOL0     H13961  -3.177   1.696  10.252  2.6444  1.0301  0.6029
  106MOL0     H13962  -3.234   1.527  10.015  1.2513 -1.4290  1.3843
  106MOL0     H13963  -3.360   1.623  10.100 -1.0957 -2.4936  0.3535
  106MOL0     H13964  -3.161   1.421  10.233  1.9810  2.2783 -3.9382
  106MOL0     H13965  -3.302   1.495  10.307 -1.1795 -0.0197 -1.0305
  106MOL0     H13966  -3.302   1.297  10.067  0.6970  0.8786 -1.2105
  106MOL0     H13967  -3.448   1.377  10.148  0.6974  1.1748  1.5019
  106MOL0     H13968  -3.452   1.170  10.248  0.2745 -1.4249  1.2412
  106MOL0     H13969  -3.354   1.270  10.359  2.8025 -1.7761  0.3369
  106MOL0     H13970  -3.241   1.078  10.163 -2.9561  1.2265  0.2052
  106MOL0     H13971  -3.147   1.173  10.282  1.3147 -3.2532  1.4784
  106MOL0     H13972  -3.285   1.046  10.470  0.9103  0.5342 -0.1900
  106MOL0     H13973  -3.163   0.958  10.384  0.9028  1.7557  0.0339
  106MOL0     H13974  -2.749   1.671  10.382  0.1636 -1.7749  0.7055
  106MOL0     H13975  -2.523   1.642  10.365 -2.2415  1.9914  1.7447
  106MOL0     H13976  -2.152   1.289  10.068 -1.2602 -0.1190  0.3375
  106MOL0     H13977  -1.916   1.302  10.065 -0.2815 -0.2021  0.1464
  106MOL0     H13978   0.077   1.362  10.111 -5.2193 -2.6202  2.1028
  106MOL0     H13979   0.342   1.367  10.111  2.2819 -0.8440  1.6111
  106MOL0     H13980   0.707   1.166  10.156  0.9005  0.7167 -0.7637
  106MOL0     H13981   0.949   1.156  10.144 -1.0788  1.1702 -1.9260
  106MOL0     H13982   1.201   1.378  10.487  0.1609  0.6812  0.0593
  106MOL0     H13983   1.305   1.278  10.384 -0.9460 -2.4064 -2.8765
  106MOL0     H13984   1.270   1.174  10.590 -0.9798 -0.3041  0.1747
  106MOL0     H13985   1.091   1.193  10.577 -0.9566  0.3838 -0.9018
  106MOL0     H13986   1.283   1.033  10.397 -0.9999  0.1149  1.3857
  106MOL0     H13987   1.111   1.039  10.377  0.5685 -0.1135 -0.8863
  106MOL0     H13988   1.063   0.896  10.569  0.2962 -0.3390  0.1755
  106MOL0     H13989   1.211   0.829  10.491 -2.6456 -2.3599  2.4820
  106MOL0     H13990   1.348   0.982  10.871  0.6354  0.4461 -0.6107
  106MOL0     H13991   0.971   1.386  10.504  0.7161  1.6142 -1.8028
  106MOL0     H13992   0.738   1.361  10.548  0.3982  0.7766 -0.2097
  107MOL0     O13993   7.126   4.149   2.329 -0.4850  0.3566 -0.0830
  107MOL0     C13994   7.220   4.174   2.254 -0.7292 -0.7451 -1.0759
  107MOL0     O13995   7.217   4.248   2.136  0.0375  0.0223  0.7450
  107MOL0     C13996   7.105   4.327   2.101 -0.8175 -0.9882  0.2430
  107MOL0     C13997   6.977   4.311   2.142 -1.2730  0.8499  0.5685
  107MOL0     C13998   6.872   4.397   2.095 -0.3080  0.0033  0.3186
  107MOL0     C13999   6.901   4.506   2.016 -0.4963 -0.2657  0.2839
  107MOL0     O14000   6.814   4.592   1.965  0.0016 -0.2393 -0.2181
  107MOL0     C14001   6.807   4.712   2.036  0.2150  0.3212 -1.3339
  107MOL0     C14002   6.740   4.687   2.171  0.3398  0.2861  0.2226
  107MOL0     C14003   6.595   4.643   2.162 -0.5105 -0.9193  0.5097
  107MOL0     C14004   6.496   4.762   2.169 -0.3513 -0.5383  0.0949
  107MOL0     C14005   6.342   4.729   2.187  0.9109  0.0321  0.2394
  107MOL0     C14006   6.255   4.851   2.205 -0.3378 -0.4305 -0.1657
  107MOL0     C14007   6.116   4.807   2.238 -0.6205 -0.9783  0.1263
  107MOL0     C14008   6.020   4.926   2.239  0.4997  0.0925  1.3931
  107MOL0     N14009   5.887   4.886   2.300  0.2073  0.4120  0.4509
  107MOL0     C14010   5.854   4.892   2.435  0.1917 -0.4849 -0.2635
  107MOL0     C14011   5.715   4.873   2.440 -0.2773  0.2956 -0.2557
  107MOL0     C14012   5.626   4.850   2.550 -0.6268 -0.1575 -0.0530
  107MOL0     C14013   5.597   4.977   2.624  0.5724 -0.0021  0.7947
  107MOL0     C14014   5.516   4.944   2.752  0.1427  0.4484 -0.3821
  107MOL0     C14015   5.366   4.922   2.749 -0.1097  0.0855 -0.3768
  107MOL0     O14016   5.321   4.838   2.641  0.7445 -0.9301 -0.6651
  107MOL0     C14017   5.187   4.796   2.643 -0.2149 -0.1307  0.6303
  107MOL0     C14018   5.092   4.842   2.731 -0.1936 -0.1138 -0.1494
  107MOL0     C14019   4.968   4.778   2.726 -0.1082  0.0201 -0.9350
  107MOL0     C14020   4.939   4.675   2.634 -0.3638  1.3488  0.2196
  107MOL0     C14021   4.806   4.608   2.632  0.8026 -0.0821  0.3413
  107MOL0     O14022   4.733   4.615   2.746  0.1967  0.3134 -0.2172
  107MOL0     C14023   4.620   4.540   2.763 -0.0526  0.3371 -0.3948
  107MOL0     C14024   4.511   4.528   2.674  0.7815 -0.6168 -0.0020
  107MOL0     C14025   4.399   4.464   2.696  0.7051  0.6624  0.3383
  107MOL0     C14026   4.378   4.401   2.823 -1.2714 -0.3495 -0.3436
  107MOL0     O14027   4.266   4.325   2.836 -0.3010 -0.1261 -0.1599
  107MOL0     C14028   4.172   4.351   2.934  0.4285  0.4119  0.0195
  107MOL0     C14029   4.068   4.247   2.925  0.0592 -0.9857 -0.0266
  107MOL0     C14030   3.980   4.243   2.802  0.5644  0.3549  0.1050
  107MOL0     C14031   3.861   4.149   2.812  0.0151  0.3847 -0.2748
  107MOL0     C14032   3.771   4.146   2.688  0.0996  0.2399 -0.2440
  107MOL0     C14033   3.651   4.063   2.725 -0.7701 -0.0003 -0.3452
  107MOL0     C14034   3.558   4.009   2.610 -0.0012 -1.2124  0.2461
  107MOL0     C14035   3.448   3.931   2.677  0.7139 -0.1310 -0.0199
  107MOL0    Cl14036   3.508   3.764   2.673 -0.4517 -1.1919  0.6027
  107MOL0     C14037   4.470   4.427   2.929  0.3604  0.5973  0.6037
  107MOL0     C14038   4.592   4.497   2.898  0.5741  0.0669  0.1712
  107MOL0     O14039   4.767   4.565   2.523 -0.3906 -0.5209  0.4160
  107MOL0     C14040   5.041   4.642   2.533  0.3113 -0.5859 -0.2897
  107MOL0     C14041   5.166   4.700   2.539  0.0342  0.1999 -0.1571
  107MOL0     N14042   5.671   4.855   2.304  0.1159 -0.7451 -0.1904
  107MOL0     N14043   5.775   4.870   2.223 -0.1583  0.6911 -1.2452
  107MOL0     C14044   7.039   4.524   1.977 -0.1069 -0.2747  0.1414
  107MOL0     C14045   7.142   4.435   2.010 -0.1718  0.5327  0.4411
  107MOL0     C14046   7.337   4.103   2.294  0.6083  0.2873  0.6859
  107MOL0     C14047   7.343   4.012   2.411  0.4430  0.8027  0.1531
  107MOL0     C14048   7.463   3.948   2.433  1.0215  0.4740 -0.8197
  107MOL0     C14049   7.576   3.955   2.344  0.5478 -0.4995 -0.9814
  107MOL0     O14050   7.699   3.893   2.378  0.3802  0.2779  0.2462
  107MOL0     C14051   7.718   3.791   2.474  0.4729  0.5569 -0.0057
  107MOL0     C14052   7.842   3.801   2.551 -0.4366 -0.3729  0.5241
  107MOL0     C14053   7.971   3.764   2.470  0.0661  0.3470  0.6704
  107MOL0     C14054   8.083   3.743   2.565  1.3171 -0.1275  0.8267
  107MOL0     C14055   8.190   3.711   2.478 -0.3388 -0.7270  0.1233
  107MOL0     C14056   8.287   3.674   2.417  0.2523  0.5402  0.0266
  107MOL0     C14057   7.565   4.030   2.227  1.3056 -0.1060  0.5795
  107MOL0     C14058   7.442   4.099   2.201  0.0870  1.7187  0.6424
  107MOL0     H14059   6.957   4.233   2.215 -0.3472  1.3629  1.3975
  107MOL0     H14060   6.768   4.374   2.119 -0.5056  0.2909 -0.2495
  107MOL0     H14061   6.735   4.779   1.988 -2.4058 -1.3201  0.0930
  107MOL0     H14062   6.902   4.766   2.040  0.7607 -0.6151 -1.4254
  107MOL0     H14063   6.752   4.773   2.237  0.8562  0.3862  0.0081
  107MOL0     H14064   6.788   4.600   2.217  1.5598  1.2510  0.8363
  107MOL0     H14065   6.576   4.575   2.246  0.0050  0.1587  1.5241
  107MOL0     H14066   6.586   4.587   2.069  4.6326 -2.9045  0.8581
  107MOL0     H14067   6.528   4.831   2.248 -2.8758 -0.2911  1.0093
  107MOL0     H14068   6.500   4.817   2.074 -3.8535  0.4317  0.3660
  107MOL0     H14069   6.332   4.670   2.278 -1.2389 -0.2570 -0.1445
  107MOL0     H14070   6.303   4.670   2.104  0.0239  0.5007  0.3102
  107MOL0     H14071   6.259   4.906   2.110  0.1217  1.6800  1.0001
  107MOL0     H14072   6.300   4.906   2.288  1.0698 -1.0396 -0.4984
  107MOL0     H14073   6.085   4.741   2.156  2.9380 -0.5402 -1.7783
  107MOL0     H14074   6.115   4.754   2.333 -0.4837  1.0977  1.3493
  107MOL0     H14075   6.008   4.958   2.135 -1.7510 -0.8239  1.3237
  107MOL0     H14076   6.064   5.005   2.301 -0.6137  1.6738  0.2223
  107MOL0     H14077   5.927   4.912   2.513 -1.3433  0.3423  1.0235
  107MOL0     H14078   5.683   4.781   2.614 -0.1157  0.7171  0.4517
  107MOL0     H14079   5.539   4.799   2.507 -0.5039  0.6244 -1.2722
  107MOL0     H14080   5.542   5.055   2.571  0.8064 -0.0323  0.5043
  107MOL0     H14081   5.686   5.027   2.663 -0.6047  0.9238  2.4058
  107MOL0     H14082   5.561   4.859   2.805 -0.3180  1.4882  1.7392
  107MOL0     H14083   5.542   5.027   2.817  2.7936 -0.4883 -0.1245
  107MOL0     H14084   5.326   5.023   2.738  1.3844  1.1078  2.5143
  107MOL0     H14085   5.331   4.888   2.847  2.9322  1.4863  1.3482
  107MOL0     H14086   5.115   4.912   2.811  3.6294 -1.0552 -0.2624
  107MOL0     H14087   4.891   4.806   2.797  1.2060  1.9580 -0.1776
  107MOL0     H14088   4.520   4.576   2.578 -0.2953  0.7047  0.5265
  107MOL0     H14089   4.322   4.438   2.625 -0.5292  2.2532  1.0443
  107MOL0     H14090   4.133   4.450   2.910 -1.1096 -0.4418 -1.2398
  107MOL0     H14091   4.213   4.360   3.035 -0.2174 -1.7741  0.5292
  107MOL0     H14092   4.000   4.270   3.008  0.2869 -1.4449  0.2875
  107MOL0     H14093   4.115   4.153   2.952 -0.8084 -2.1653 -2.3633
  107MOL0     H14094   4.043   4.229   2.713 -3.5171 -0.4951 -2.9647
  107MOL0     H14095   3.930   4.339   2.786 -0.7018 -0.3577 -0.3837
  107MOL0     H14096   3.907   4.051   2.831  0.0347  0.5550  0.5692
  107MOL0     H14097   3.808   4.182   2.901  0.6763  2.0647 -0.4665
  107MOL0     H14098   3.823   4.117   2.595 -0.4822 -3.0076  0.3280
  107MOL0     H14099   3.738   4.249   2.675  0.5895  0.6796  1.6635
  107MOL0     H14100   3.594   4.116   2.802  1.2263  0.7508  0.6812
  107MOL0     H14101   3.693   3.980   2.784 -1.0247  1.1073  1.4602
  107MOL0     H14102   3.515   4.095   2.557  1.3725  1.7547  3.5907
  107MOL0     H14103   3.609   3.956   2.529  1.3312  0.6266 -0.1684
  107MOL0     H14104   3.359   3.931   2.614  2.4717  0.0116 -2.6581
  107MOL0     H14105   3.426   3.970   2.777  1.1006 -1.9726  0.8306
  107MOL0     H14106   4.448   4.381   3.025  0.7414 -1.3627 -0.1951
  107MOL0     H14107   4.661   4.515   2.979  3.7875 -1.0649 -2.0880
  107MOL0     H14108   5.014   4.565   2.463 -1.8636 -1.9471  1.8774
  107MOL0     H14109   5.248   4.675   2.472 -1.0784 -1.0009 -1.1040
  107MOL0     H14110   7.065   4.612   1.919  1.3250 -0.1862  0.8757
  107MOL0     H14111   7.245   4.453   1.981 -0.5132  0.7427 -0.6987
  107MOL0     H14112   7.261   4.004   2.482  0.0012 -1.5693 -0.5191
  107MOL0     H14113   7.468   3.889   2.524  0.4147  0.6735 -0.6562
  107MOL0     H14114   7.711   3.692   2.428  0.8262  0.1765  0.7407
  107MOL0     H14115   7.643   3.793   2.554  0.7660 -1.6109  0.3842
  107MOL0     H14116   7.846   3.902   2.592 -0.4894 -1.1062  2.4409
  107MOL0     H14117   7.840   3.732   2.637 -0.9853  0.1923  0.9755
  107MOL0     H14118   7.997   3.850   2.408  1.6040  0.4756  1.4653
  107MOL0     H14119   7.966   3.678   2.402 -0.0829  0.0024  1.1142
  107MOL0     H14120   8.101   3.828   2.630 -0.1371 -1.4423  3.0923
  107MOL0     H14121   8.062   3.661   2.635  0.6354  0.4147  1.2691
  107MOL0     H14122   8.355   3.634   2.344 -0.4676  0.8784 -0.8502
  107MOL0     H14123   7.660   4.031   2.175  1.9150 -1.9298  1.5491
  107MOL0     H14124   7.432   4.141   2.101 -1.4010 -0.7211 -0.3193
  108MOL0     O14125  11.009   0.670   5.554  0.7805 -0.2192  0.3437
  108MOL0     C14126  11.022   0.700   5.438  0.0728 -0.6702  0.7829
  108MOL0     O14127  10.924   0.768   5.365 -0.7097 -0.1486 -0.2215
  108MOL0     C14128  10.796   0.757   5.405 -0.4533  0.1900 -0.0034
  108MOL0     C14129  10.716   0.644   5.371 -0.2697  0.1108  0.0281
  108MOL0     C14130  10.584   0.634   5.431 -0.3108 -0.7738  0.0723
  108MOL0     C14131  10.528   0.746   5.498  0.0389  0.8104  1.1824
  108MOL0     O14132  10.394   0.736   5.533 -0.1519 -0.8315 -0.1208
  108MOL0     C14133  10.315   0.847   5.485  0.0681  0.4103 -0.4266
  108MOL0     C14134  10.164   0.819   5.465  0.1345 -0.2899 -0.0563
  108MOL0     C14135  10.086   0.940   5.413 -0.1951  0.1313  0.3603
  108MOL0     C14136   9.944   0.906   5.388  0.3154  0.4028  0.0584
  108MOL0     C14137   9.863   1.029   5.333 -0.3999  1.1941  0.5762
  108MOL0     C14138   9.718   0.978   5.305 -0.1736  0.2867 -0.7039
  108MOL0     C14139   9.608   1.095   5.303  0.1894 -0.6054 -0.5957
  108MOL0     C14140   9.506   1.084   5.188  0.1645  0.1570 -0.3160
  108MOL0     N14141   9.424   0.968   5.201 -0.1653 -0.1495 -0.1699
  108MOL0     C14142   9.325   0.951   5.291  0.6052  0.4898  0.1500
  108MOL0     C14143   9.242   0.848   5.253  0.3595  0.2206 -0.4563
  108MOL0     C14144   9.115   0.791   5.311 -0.3007  0.4163  0.1386
  108MOL0     C14145   8.999   0.862   5.244 -0.3023  0.3167 -0.0533
  108MOL0     C14146   8.867   0.845   5.318  0.6698  0.7016  0.7315
  108MOL0     C14147   8.810   0.701   5.349 -0.1973  0.3151 -0.5239
  108MOL0     O14148   8.711   0.717   5.454 -0.5316  0.4047 -0.0451
  108MOL0     C14149   8.583   0.732   5.423 -0.1128 -0.4563 -0.3391
  108MOL0     C14150   8.511   0.628   5.366 -0.3182 -0.8753 -0.2754
  108MOL0     C14151   8.376   0.654   5.332 -0.1852  0.5267 -0.1087
  108MOL0     C14152   8.312   0.780   5.366 -0.8076  0.7022  0.2620
  108MOL0     C14153   8.168   0.799   5.352 -0.5363 -0.2313  0.0479
  108MOL0     O14154   8.108   0.897   5.424 -0.1657 -0.1615  0.2486
  108MOL0     C14155   7.969   0.914   5.419 -0.6333  0.8231  0.2128
  108MOL0     C14156   7.888   0.904   5.304 -0.1769  0.0171 -0.6162
  108MOL0     C14157   7.753   0.915   5.305  1.1531 -0.2853 -0.1153
  108MOL0     C14158   7.685   0.933   5.424  0.7331  0.1809  0.1547
  108MOL0     O14159   7.540   0.938   5.421  0.5748  0.3698 -0.1328
  108MOL0     C14160   7.457   0.981   5.533  0.5770 -0.4334  0.5467
  108MOL0     C14161   7.419   0.874   5.623  0.2536 -0.2769 -0.0543
  108MOL0     C14162   7.318   0.927   5.730  0.3757  0.5212  0.2883
  108MOL0     C14163   7.176   0.946   5.679  0.3670 -0.6927  0.0092
  108MOL0     C14164   7.106   1.059   5.750 -0.8744  0.1476 -0.9287
  108MOL0     C14165   6.954   1.059   5.746 -0.3972 -0.1652 -0.0055
  108MOL0     C14166   6.883   0.933   5.805  0.3734 -0.9945 -0.1894
  108MOL0     C14167   6.731   0.952   5.779 -0.4802 -0.3469 -0.2527
  108MOL0    Cl14168   6.646   0.798   5.838 -0.0641  0.0680  0.4417
  108MOL0     C14169   7.762   0.941   5.538 -0.3518  0.9144  0.8464
  108MOL0     C14170   7.906   0.932   5.538 -0.2559 -0.3991 -0.4717
  108MOL0     O14171   8.114   0.717   5.285  0.5975  0.6476  0.2584
  108MOL0     C14172   8.395   0.880   5.419  0.4510 -0.3593  0.7025
  108MOL0     C14173   8.529   0.857   5.444 -0.4577 -0.3652  0.1900
  108MOL0     N14174   9.312   0.794   5.146  0.5741  0.2423 -0.1719
  108MOL0     N14175   9.416   0.862   5.110  0.6195  0.1569  0.0609
  108MOL0     C14176  10.615   0.856   5.516  0.5638 -0.5251 -0.4092
  108MOL0     C14177  10.745   0.861   5.483  0.1890  0.1584 -0.2342
  108MOL0     C14178  11.149   0.674   5.355  0.7767 -0.7349  0.2678
  108MOL0     C14179  11.262   0.608   5.419  0.3499  0.2538  0.3630
  108MOL0     C14180  11.377   0.581   5.346 -0.2151 -0.0630 -0.5369
  108MOL0     C14181  11.393   0.622   5.216  0.3807 -0.5528  0.1009
  108MOL0     O14182  11.497   0.563   5.145  0.7454 -0.5901  0.0198
  108MOL0     C14183  11.618   0.647   5.140 -0.0666 -0.5695  1.4010
  108MOL0     C14184  11.708   0.621   5.252 -0.2610 -0.4356 -0.6132
  108MOL0     C14185  11.825   0.724   5.265 -0.2394  1.3492  0.3738
  108MOL0     C14186  11.911   0.695   5.395  0.3330 -0.4290 -0.0490
  108MOL0     C14187  12.022   0.788   5.409  0.2078 -0.4124  1.0621
  108MOL0     C14188  12.096   0.880   5.435 -0.5911  0.1053 -0.3930
  108MOL0     C14189  11.296   0.703   5.159  0.3473  0.1804 -0.1754
  108MOL0     C14190  11.175   0.726   5.220 -0.0988 -0.2060 -0.0319
  108MOL0     H14191  10.753   0.557   5.316  0.9781 -0.5205  1.7614
  108MOL0     H14192  10.521   0.547   5.422 -3.0600  1.0887  0.0732
  108MOL0     H14193  10.350   0.884   5.389  1.4097 -2.4795 -1.1700
  108MOL0     H14194  10.316   0.933   5.552 -1.6382 -0.1581  0.3986
  108MOL0     H14195  10.117   0.782   5.557 -0.4340 -0.2559 -0.3245
  108MOL0     H14196  10.159   0.746   5.383  1.5106 -0.6278  0.1409
  108MOL0     H14197  10.134   0.997   5.333 -1.1302  0.6777  0.1746
  108MOL0     H14198  10.101   1.011   5.494  0.2486  1.8538 -1.1511
  108MOL0     H14199   9.937   0.839   5.302  0.7585  2.2753 -1.4890
  108MOL0     H14200   9.896   0.852   5.471 -1.3521 -0.4159 -1.3787
  108MOL0     H14201   9.908   1.073   5.244  0.9248 -2.0855 -0.5348
  108MOL0     H14202   9.859   1.107   5.410 -1.3484  1.6598  0.0722
  108MOL0     H14203   9.689   0.914   5.389 -3.0512  0.6375 -1.3349
  108MOL0     H14204   9.727   0.919   5.213  0.2943  2.9984 -2.5001
  108MOL0     H14205   9.552   1.100   5.397 -0.2330 -2.8203 -0.6918
  108MOL0     H14206   9.655   1.194   5.306 -0.6512 -0.2201  0.7289
  108MOL0     H14207   9.569   1.090   5.098 -0.4789  3.2405 -0.6761
  108MOL0     H14208   9.445   1.174   5.175 -0.5518 -0.2973 -0.1428
  108MOL0     H14209   9.306   1.015   5.378  2.5171  2.2667 -0.6488
  108MOL0     H14210   9.113   0.801   5.420  1.8162 -3.8028  0.7576
  108MOL0     H14211   9.110   0.686   5.282 -0.9215  0.7912 -1.1959
  108MOL0     H14212   8.988   0.828   5.141  1.1275  1.0264 -0.4617
  108MOL0     H14213   9.030   0.966   5.237 -1.4476  0.6876  0.1754
  108MOL0     H14214   8.869   0.904   5.410  0.1389  0.3648  0.9608
  108MOL0     H14215   8.791   0.886   5.251  0.7805  0.3092  0.3626
  108MOL0     H14216   8.887   0.643   5.400  0.1414  1.2654  0.0871
  108MOL0     H14217   8.775   0.644   5.263 -1.8230  1.6450 -0.8012
  108MOL0     H14218   8.559   0.532   5.354 -1.4904 -1.5027 -0.0832
  108MOL0     H14219   8.317   0.585   5.273 -0.0540  1.6241 -1.5847
  108MOL0     H14220   7.935   0.894   5.206  0.4974 -3.9715 -0.0446
  108MOL0     H14221   7.695   0.918   5.214  0.8938  0.3348  0.0650
  108MOL0     H14222   7.374   1.032   5.482  1.7633  0.2774 -0.7402
  108MOL0     H14223   7.507   1.068   5.575 -4.2689  1.9911  2.0578
  108MOL0     H14224   7.512   0.837   5.667  0.6502 -1.2298 -1.6183
  108MOL0     H14225   7.363   0.795   5.573 -3.2607  3.0768 -1.9255
  108MOL0     H14226   7.354   1.011   5.789 -2.8448  2.3582 -0.1354
  108MOL0     H14227   7.321   0.844   5.801 -1.7194 -0.3433 -0.5604
  108MOL0     H14228   7.177   0.977   5.574  1.6689  2.5163  0.8393
  108MOL0     H14229   7.124   0.850   5.688 -0.8429 -0.3891 -2.6145
  108MOL0     H14230   7.132   1.155   5.705  1.3160 -0.5150 -1.1560
  108MOL0     H14231   7.150   1.051   5.850 -0.3680 -1.5708 -1.2660
  108MOL0     H14232   6.926   1.086   5.644  2.5175  0.3954 -0.7488
  108MOL0     H14233   6.919   1.149   5.797 -2.1599 -1.3833  1.0899
  108MOL0     H14234   6.921   0.843   5.755 -1.2851 -3.0464  2.0277
  108MOL0     H14235   6.905   0.918   5.911 -4.8721 -1.1286  1.1591
  108MOL0     H14236   6.704   0.980   5.676  2.5226  0.9576 -0.7986
  108MOL0     H14237   6.695   1.042   5.827 -2.5337 -2.5154  2.6034
  108MOL0     H14238   7.706   0.949   5.631  1.0652  0.6204  1.7507
  108MOL0     H14239   7.971   0.936   5.625 -1.7575 -0.8696  0.7075
  108MOL0     H14240   8.351   0.977   5.441  0.2487  0.1585 -1.6335
  108MOL0     H14241   8.600   0.927   5.490  1.1943 -1.0287 -1.2298
  108MOL0     H14242  10.567   0.939   5.567  0.6047 -0.9613  0.3606
  108MOL0     H14243  10.813   0.942   5.507  1.2099 -0.6853 -0.1948
  108MOL0     H14244  11.263   0.585   5.525 -0.0246  0.3697  0.3924
  108MOL0     H14245  11.439   0.517   5.409 -1.4279  1.1986  2.1082
  108MOL0     H14246  11.595   0.753   5.129  0.6520 -0.6643 -2.5077
  108MOL0     H14247  11.667   0.613   5.048 -0.3863 -1.9997  1.7306
  108MOL0     H14248  11.643   0.642   5.337  0.6063 -0.6043  0.1098
  108MOL0     H14249  11.731   0.514   5.259 -0.7432 -0.6573 -2.1045
  108MOL0     H14250  11.781   0.823   5.254  0.0944  1.7744  2.5146
  108MOL0     H14251  11.890   0.717   5.177  0.4113  0.6234  0.8878
  108MOL0     H14252  11.836   0.704   5.474 -0.2336  2.2371 -0.7974
  108MOL0     H14253  11.942   0.591   5.404  0.0084 -0.6106 -0.9620
  108MOL0     H14254  12.166   0.956   5.464  1.1662 -1.1853 -1.1371
  108MOL0     H14255  11.309   0.736   5.056  0.2773 -4.6827 -2.0149
  108MOL0     H14256  11.107   0.795   5.170  1.0889  2.3149  1.6765
  109MOL0     O14257  10.855   6.027   7.728  0.5660 -0.0803 -0.3750
  109MOL0     C14258  10.794   6.051   7.833  1.2190  0.7169  0.1894
  109MOL0     O14259  10.744   5.964   7.917 -0.5338 -0.3022 -0.2804
  109MOL0     C14260  10.738   5.830   7.881  0.0216 -0.2917 -0.3713
  109MOL0     C14261  10.826   5.742   7.946 -0.0889  0.4842  0.4284
  109MOL0     C14262  10.821   5.605   7.911  0.8334 -0.0567  0.3382
  109MOL0     C14263  10.724   5.568   7.813 -1.1483  0.1749 -0.4760
  109MOL0     O14264  10.724   5.435   7.788  0.6100  0.4857 -0.0273
  109MOL0     C14265  10.764   5.404   7.653 -0.2878 -0.6906  0.0203
  109MOL0     C14266  10.784   5.254   7.650 -0.5806  0.9792 -0.4535
  109MOL0     C14267  10.867   5.203   7.775  0.6440 -0.1833  0.6718
  109MOL0     C14268  10.927   5.068   7.742 -0.2803  0.1941 -1.3725
  109MOL0     C14269  11.041   5.031   7.845  0.2110 -0.1646  0.5346
  109MOL0     C14270  10.996   5.021   7.993  0.1384 -0.1447 -0.4762
  109MOL0     C14271  11.119   5.005   8.085 -0.5768 -0.4166 -0.2117
  109MOL0     C14272  11.088   4.939   8.223  0.6503 -0.5639  0.1772
  109MOL0     N14273  10.976   5.008   8.284  0.3850  0.3466 -0.6270
  109MOL0     C14274  10.856   4.949   8.324 -0.7059 -0.3780  0.3256
  109MOL0     C14275  10.783   5.053   8.385 -1.1549  1.1479 -0.6482
  109MOL0     C14276  10.649   5.026   8.449  0.8895 -0.9841  0.2178
  109MOL0     C14277  10.549   5.004   8.349  0.3117  0.3193  0.0177
  109MOL0     C14278  10.400   5.027   8.385 -0.5994  1.1759  0.2036
  109MOL0     C14279  10.300   5.038   8.265  0.4230 -0.4464 -0.1715
  109MOL0     O14280  10.165   5.015   8.315  0.5846  0.5374  0.5148
  109MOL0     C14281  10.057   5.027   8.230 -0.1490 -0.8260 -0.5605
  109MOL0     C14282  10.060   5.046   8.091 -0.0004  1.2282 -0.7009
  109MOL0     C14283   9.943   5.037   8.019  0.5494 -0.2162 -0.5423
  109MOL0     C14284   9.820   5.028   8.084  0.2388 -0.2143  0.1097
  109MOL0     C14285   9.694   5.049   8.012 -0.6005 -1.2064  1.2484
  109MOL0     O14286   9.592   5.097   8.077  0.3842 -0.1125  0.5178
  109MOL0     C14287   9.469   5.094   8.020 -0.5696  0.1771 -0.3866
  109MOL0     C14288   9.395   4.975   8.005  0.7238 -0.0081 -0.0705
  109MOL0     C14289   9.269   4.990   7.947  0.3605 -0.1202 -0.0778
  109MOL0     C14290   9.215   5.116   7.917 -0.0316  0.2993  1.1596
  109MOL0     O14291   9.090   5.148   7.868  0.4152 -0.5415 -0.1783
  109MOL0     C14292   8.985   5.051   7.857 -0.6768 -0.3764  0.8502
  109MOL0     C14293   8.860   5.105   7.784  0.8650 -0.0648 -0.7064
  109MOL0     C14294   8.734   5.015   7.799  0.5513  0.1908 -0.4625
  109MOL0     C14295   8.630   5.066   7.687 -0.7272  0.3841  0.3111
  109MOL0     C14296   8.514   4.975   7.679  0.7099  0.2564  0.3382
  109MOL0     C14297   8.417   5.023   7.567  0.5459 -0.0912 -0.2618
  109MOL0     C14298   8.281   4.954   7.570  0.5530  0.0887 -0.1082
  109MOL0     C14299   8.171   4.992   7.662  0.5518  0.3280 -0.1874
  109MOL0    Cl14300   8.029   4.881   7.636  0.1691  0.2813  0.5107
  109MOL0     C14301   9.290   5.225   7.926 -0.8793 -0.7216  0.3654
  109MOL0     C14302   9.421   5.220   7.981  1.5073  0.3702  0.9806
  109MOL0     O14303   9.703   5.007   7.892  0.2394  0.4758  0.5315
  109MOL0     C14304   9.821   5.016   8.228  0.4939  0.6958  0.2399
  109MOL0     C14305   9.933   5.022   8.296 -0.3813  0.7223 -0.2672
  109MOL0     N14306  10.862   5.164   8.385 -0.4267 -1.1969  0.1057
  109MOL0     N14307  10.976   5.142   8.334 -0.5745  0.2542  0.2455
  109MOL0     C14308  10.633   5.654   7.757 -0.2731  0.6901  0.6409
  109MOL0     C14309  10.640   5.788   7.793  1.2176  0.3952  0.1360
  109MOL0     C14310  10.783   6.190   7.883 -0.2630  0.0442 -0.3739
  109MOL0     C14311  10.726   6.217   8.009 -0.5523 -0.7780  0.5823
  109MOL0     C14312  10.735   6.339   8.071 -0.6745  1.0598 -0.1908
  109MOL0     C14313  10.802   6.437   8.008 -0.0573 -0.4678  0.4197
  109MOL0     O14314  10.808   6.565   8.053 -0.2933  0.3196  0.1812
  109MOL0     C14315  10.792   6.601   8.188  0.5214 -0.2825 -0.4427
  109MOL0     C14316  10.773   6.756   8.196 -0.6978 -0.5455  0.3368
  109MOL0     C14317  10.625   6.814   8.172 -0.9995  1.2194  0.0765
  109MOL0     C14318  10.614   6.962   8.200  0.3779 -0.4030 -0.4489
  109MOL0     C14319  10.476   7.006   8.202 -0.0365 -0.5904  0.2231
  109MOL0     C14320  10.360   7.040   8.202 -0.5626 -0.4979  0.5893
  109MOL0     C14321  10.865   6.419   7.885  0.6343 -0.1920  0.4307
  109MOL0     C14322  10.859   6.293   7.818  0.0152  0.4611  0.3736
  109MOL0     H14323  10.905   5.782   8.009 -0.4309  0.8548  0.6244
  109MOL0     H14324  10.895   5.533   7.942  0.9403 -0.3336 -0.5360
  109MOL0     H14325  10.863   5.438   7.621 -0.7590  3.5368  2.3303
  109MOL0     H14326  10.690   5.440   7.581  2.5114  0.4152 -2.5118
  109MOL0     H14327  10.846   5.228   7.563 -0.0956 -0.4767  0.2987
  109MOL0     H14328  10.687   5.204   7.653 -0.1053 -0.0966  3.9303
  109MOL0     H14329  10.801   5.209   7.862  0.4681 -0.7772  0.5861
  109MOL0     H14330  10.952   5.269   7.794  0.7595 -0.9454  3.0554
  109MOL0     H14331  10.855   4.985   7.741  0.5924 -0.8695  2.7962
  109MOL0     H14332  10.971   5.084   7.643  0.3515  2.3284 -0.8016
  109MOL0     H14333  11.123   5.101   7.830  0.2984 -0.6997 -1.9007
  109MOL0     H14334  11.084   4.941   7.800  3.2519  2.9860 -3.6895
  109MOL0     H14335  10.934   4.934   8.015 -0.0998  0.4354  1.3601
  109MOL0     H14336  10.931   5.104   8.022 -1.4416 -0.4825 -2.7944
  109MOL0     H14337  11.195   4.946   8.032  1.3517  0.8171  1.1066
  109MOL0     H14338  11.164   5.102   8.105  3.6323 -2.4486  1.3495
  109MOL0     H14339  11.174   4.958   8.288 -0.3742  0.3493  1.3138
  109MOL0     H14340  11.072   4.831   8.213  2.7284 -0.8758 -0.2064
  109MOL0     H14341  10.827   4.847   8.302  2.2178 -1.1515 -0.2954
  109MOL0     H14342  10.635   5.118   8.507  0.4399 -1.4659  0.8888
  109MOL0     H14343  10.658   4.946   8.522  3.8067 -0.6027  0.3783
  109MOL0     H14344  10.554   4.904   8.306 -0.5036  0.4529 -0.4097
  109MOL0     H14345  10.572   5.079   8.273  0.3506  1.3131  0.9802
  109MOL0     H14346  10.369   4.942   8.446 -0.0280 -2.1242 -3.7231
  109MOL0     H14347  10.402   5.116   8.449 -1.0157 -0.3876  2.5126
  109MOL0     H14348  10.312   4.970   8.180  0.7702 -2.3740  1.3569
  109MOL0     H14349  10.308   5.143   8.236  2.4675 -0.4098  0.4119
  109MOL0     H14350  10.157   5.045   8.042  0.4127 -1.9959 -0.0149
  109MOL0     H14351   9.948   5.046   7.911 -1.2965  1.2873 -0.5534
  109MOL0     H14352   9.432   4.880   8.040 -2.1643 -1.3070 -0.2611
  109MOL0     H14353   9.203   4.904   7.938  1.7232 -1.0100 -2.6588
  109MOL0     H14354   8.956   5.018   7.958  2.9208 -2.1649  1.4475
  109MOL0     H14355   9.024   4.963   7.806 -0.7918 -0.1653  0.3936
  109MOL0     H14356   8.892   5.114   7.680  1.8439 -0.4825 -0.4486
  109MOL0     H14357   8.851   5.202   7.835 -1.6186 -1.0030  0.8195
  109MOL0     H14358   8.690   5.025   7.899 -1.0259  0.1120 -1.1245
  109MOL0     H14359   8.761   4.910   7.785 -1.9358 -0.4065 -1.2775
  109MOL0     H14360   8.583   5.164   7.698 -0.2757  0.5400  0.9766
  109MOL0     H14361   8.687   5.067   7.594  0.3143 -0.5231  0.9067
  109MOL0     H14362   8.458   4.983   7.773  2.5785 -1.5476  1.6746
  109MOL0     H14363   8.535   4.871   7.654 -1.1905 -0.0932  0.0298
  109MOL0     H14364   8.468   4.995   7.474 -0.5535 -1.7382 -0.4191
  109MOL0     H14365   8.400   5.131   7.571  0.9422 -0.0430  0.2432
  109MOL0     H14366   8.242   4.966   7.468 -2.9672 -3.0404  0.6271
  109MOL0     H14367   8.295   4.845   7.574 -3.2998 -0.8297 -4.0031
  109MOL0     H14368   8.123   5.090   7.645  0.1954  0.2560  0.3651
  109MOL0     H14369   8.206   4.991   7.765  4.3282 -1.5997 -1.3044
  109MOL0     H14370   9.252   5.325   7.904 -2.2794 -1.2996  0.0158
  109MOL0     H14371   9.480   5.311   7.988  2.0406  0.6038 -3.5883
  109MOL0     H14372   9.727   5.003   8.280  1.0820  0.4520  1.2697
  109MOL0     H14373   9.926   5.015   8.404  0.5626 -2.4436 -0.3341
  109MOL0     H14374  10.561   5.624   7.681  0.3909 -0.1354  0.3296
  109MOL0     H14375  10.573   5.855   7.739 -0.2798 -0.7596  0.5005
  109MOL0     H14376  10.670   6.141   8.063 -0.2409 -1.4304 -0.0030
  109MOL0     H14377  10.668   6.367   8.152 -0.7375  1.9567 -0.5432
  109MOL0     H14378  10.874   6.574   8.255  1.1259  2.1922 -0.0839
  109MOL0     H14379  10.700   6.556   8.228 -1.2153  0.9990 -2.7388
  109MOL0     H14380  10.784   6.766   8.304  0.5131 -3.0790  0.5255
  109MOL0     H14381  10.848   6.806   8.135  1.5971 -0.2763  3.1580
  109MOL0     H14382  10.556   6.760   8.238 -0.0148 -0.0069  0.1407
  109MOL0     H14383  10.587   6.807   8.070 -2.5253  2.3467  0.5282
  109MOL0     H14384  10.665   6.994   8.292 -0.9182  0.1558  0.0974
  109MOL0     H14385  10.664   7.010   8.116 -0.5475  2.6316  0.6062
  109MOL0     H14386  10.259   7.073   8.214  0.5919  4.3603 -1.0730
  109MOL0     H14387  10.930   6.494   7.842  0.4941  0.0898  0.7087
  109MOL0     H14388  10.921   6.273   7.732 -0.9319 -1.2122  0.0591
  110MOL0     O14389   6.927   6.387   5.160 -0.2356 -0.1238  0.0064
  110MOL0     C14390   6.960   6.321   5.263 -0.6322 -0.3712  0.6668
  110MOL0     O14391   6.872   6.248   5.354  0.0255  0.8398 -0.2441
  110MOL0     C14392   6.735   6.254   5.331  0.3025 -0.4245  0.2051
  110MOL0     C14393   6.661   6.243   5.448 -0.4413 -0.2168 -0.7220
  110MOL0     C14394   6.521   6.256   5.438  0.3099 -0.2458 -0.4922
  110MOL0     C14395   6.448   6.267   5.319  0.8638 -0.5930 -0.0556
  110MOL0     O14396   6.307   6.274   5.296 -0.4304  0.3660 -0.2753
  110MOL0     C14397   6.224   6.354   5.392 -0.2659 -0.4426 -0.3006
  110MOL0     C14398   6.108   6.415   5.324  0.3259 -1.2283 -0.1246
  110MOL0     C14399   6.028   6.512   5.405  0.1135  0.0993  1.0467
  110MOL0     C14400   5.925   6.593   5.322  0.9293  0.7167  0.5325
  110MOL0     C14401   5.833   6.672   5.417  0.1507 -0.4061 -0.1724
  110MOL0     C14402   5.742   6.732   5.309 -0.3034  1.0029  0.4314
  110MOL0     C14403   5.639   6.832   5.365  0.7887  0.4044 -0.6528
  110MOL0     C14404   5.595   6.792   5.508 -0.7411  0.2947 -0.2622
  110MOL0     N14405   5.471   6.871   5.547 -0.7023  0.3131  0.4621
  110MOL0     C14406   5.346   6.846   5.498 -0.2195 -0.5806 -0.1782
  110MOL0     C14407   5.260   6.927   5.569  0.3511 -0.4112  0.1576
  110MOL0     C14408   5.117   6.922   5.557  1.8375 -0.2162  0.2456
  110MOL0     C14409   5.051   7.056   5.493 -0.6893  0.3104  0.0744
  110MOL0     C14410   4.903   7.052   5.493 -0.0313 -0.6416 -0.2524
  110MOL0     C14411   4.831   7.158   5.407 -0.8504 -0.3936 -0.4335
  110MOL0     O14412   4.689   7.131   5.401  0.0451 -0.2396  0.1779
  110MOL0     C14413   4.645   7.036   5.309  0.2339  0.6996  0.2073
  110MOL0     C14414   4.738   6.960   5.223 -1.1558 -1.2427  0.5175
  110MOL0     C14415   4.685   6.870   5.124  0.4685  0.0999 -0.7581
  110MOL0     C14416   4.547   6.846   5.121  0.1555 -0.1029 -0.2336
  110MOL0     C14417   4.489   6.739   5.033 -0.9983  0.3467  0.6612
  110MOL0     O14418   4.358   6.740   5.010 -0.1053 -0.1093 -0.3447
  110MOL0     C14419   4.298   6.644   4.940 -0.1964  0.2527 -0.9252
  110MOL0     C14420   4.163   6.633   4.946  0.7827 -0.1773  0.1169
  110MOL0     C14421   4.077   6.538   4.883 -0.1900  0.8532 -0.1870
  110MOL0     C14422   4.142   6.444   4.791  0.6373  0.1023 -0.1293
  110MOL0     O14423   4.071   6.349   4.718  0.5200  0.2297  0.4166
  110MOL0     C14424   3.925   6.343   4.733 -0.1776 -0.8452  0.3002
  110MOL0     C14425   3.899   6.198   4.711 -0.0991  0.5041 -0.8208
  110MOL0     C14426   3.903   6.161   4.561  0.7672  0.1390 -0.9725
  110MOL0     C14427   3.873   6.010   4.543  0.2697 -0.2818 -0.2385
  110MOL0     C14428   3.729   5.980   4.500  0.1672 -0.1455 -0.6292
  110MOL0     C14429   3.687   6.051   4.369  0.0205 -0.5706 -0.8310
  110MOL0     C14430   3.539   6.037   4.325  0.1796 -0.9333  0.5987
  110MOL0     C14431   3.506   5.906   4.246 -0.3716  0.3318 -0.0653
  110MOL0    Cl14432   3.335   5.894   4.222  0.0799  0.4711  0.3000
  110MOL0     C14433   4.283   6.466   4.773 -0.1934  1.1763 -0.2066
  110MOL0     C14434   4.360   6.560   4.845 -0.0426  0.3500  0.0962
  110MOL0     O14435   4.567   6.658   4.987  0.1078  0.4958  1.0405
  110MOL0     C14436   4.460   6.916   5.204  0.3055 -0.5825  0.1538
  110MOL0     C14437   4.509   7.010   5.295 -0.2451 -0.1817 -0.4238
  110MOL0     N14438   5.337   7.001   5.654 -0.7179  0.0696 -0.0108
  110MOL0     N14439   5.464   6.976   5.634 -0.2817 -0.2163 -0.0662
  110MOL0     C14440   6.525   6.266   5.199 -0.1048 -0.1252 -0.2109
  110MOL0     C14441   6.671   6.257   5.205 -0.4396 -0.5674 -0.4166
  110MOL0     C14442   7.098   6.316   5.302  0.1995 -0.6920 -0.2525
  110MOL0     C14443   7.129   6.260   5.429 -0.6094  0.6954 -0.8146
  110MOL0     C14444   7.262   6.220   5.469  0.6054 -0.8012  0.2598
  110MOL0     C14445   7.367   6.253   5.390 -0.8751 -0.0605  0.1528
  110MOL0     O14446   7.496   6.210   5.424  0.0628  0.6824  0.0099
  110MOL0     C14447   7.616   6.289   5.397 -0.0328 -0.2332 -0.0454
  110MOL0     C14448   7.629   6.384   5.521  0.1893  0.4176 -0.1114
  110MOL0     C14449   7.642   6.291   5.644 -0.0344  0.4032  0.3148
  110MOL0     C14450   7.683   6.368   5.775 -0.1434  0.8595 -0.2694
  110MOL0     C14451   7.718   6.260   5.875 -0.1588 -0.0085  0.2477
  110MOL0     C14452   7.744   6.172   5.960 -0.0269 -0.3429  0.1154
  110MOL0     C14453   7.342   6.323   5.272  0.1232  0.7010 -0.2149
  110MOL0     C14454   7.209   6.353   5.225  0.6297  0.5451  0.6024
  110MOL0     H14455   6.707   6.226   5.544 -1.2764  0.2267 -0.2303
  110MOL0     H14456   6.473   6.253   5.535 -1.3890  2.1095 -1.1716
  110MOL0     H14457   6.287   6.431   5.437 -0.5428 -1.6691  2.3333
  110MOL0     H14458   6.197   6.294   5.479 -1.3544  1.8661  1.0331
  110MOL0     H14459   6.040   6.334   5.296  0.2767 -0.4870 -2.2557
  110MOL0     H14460   6.143   6.469   5.236 -0.0496  0.8937  0.9790
  110MOL0     H14461   6.102   6.582   5.447  1.1797  0.8164 -1.8065
  110MOL0     H14462   5.974   6.459   5.483 -1.1014  0.4002  0.4277
  110MOL0     H14463   5.989   6.655   5.259 -0.9500  2.5054  0.2670
  110MOL0     H14464   5.868   6.522   5.261 -0.5931 -0.3996  3.0883
  110MOL0     H14465   5.890   6.754   5.464 -0.9942 -0.1597  0.8269
  110MOL0     H14466   5.799   6.610   5.500 -0.0155 -0.1265 -0.0310
  110MOL0     H14467   5.680   6.654   5.264 -0.3332  1.5334 -0.4687
  110MOL0     H14468   5.793   6.790   5.232  1.8567 -0.2501  0.8638
  110MOL0     H14469   5.663   6.938   5.373  0.6269  0.7158 -3.3934
  110MOL0     H14470   5.548   6.818   5.305  0.5206 -3.3600  0.3388
  110MOL0     H14471   5.676   6.835   5.568 -0.3262 -0.7963 -0.0148
  110MOL0     H14472   5.588   6.687   5.538  4.1870 -0.5789 -1.3970
  110MOL0     H14473   5.321   6.763   5.433 -0.7856 -1.2684  0.8819
  110MOL0     H14474   5.080   6.912   5.659  2.3298 -2.9305  0.2375
  110MOL0     H14475   5.086   6.828   5.510  0.4796  0.4188 -0.1819
  110MOL0     H14476   5.084   7.070   5.390 -0.8302  0.1376  0.0048
  110MOL0     H14477   5.099   7.144   5.536  2.8273 -1.4562  0.0899
  110MOL0     H14478   4.869   6.953   5.463 -1.1633 -0.6974  1.1064
  110MOL0     H14479   4.865   7.077   5.593  0.0082  1.4066 -0.7026
  110MOL0     H14480   4.874   7.164   5.307 -0.4907  0.1062 -0.2532
  110MOL0     H14481   4.845   7.260   5.444  0.3546 -0.7903  0.2497
  110MOL0     H14482   4.846   6.965   5.216 -1.1034  0.5739  1.8815
  110MOL0     H14483   4.756   6.821   5.059 -0.6322 -0.3260 -1.6763
  110MOL0     H14484   4.114   6.712   5.002  1.4482  1.0302 -0.9525
  110MOL0     H14485   3.970   6.552   4.897 -0.4192 -2.2805  1.9615
  110MOL0     H14486   3.865   6.418   4.681 -0.7760  0.6105  2.8953
  110MOL0     H14487   3.903   6.355   4.839  3.5119  0.2466  1.0659
  110MOL0     H14488   3.806   6.177   4.765  1.2163 -0.9859  1.0276
  110MOL0     H14489   3.975   6.147   4.771 -0.6627 -0.3401 -0.8040
  110MOL0     H14490   3.990   6.178   4.497 -0.3852  2.0757 -2.1389
  110MOL0     H14491   3.830   6.230   4.516 -0.6445 -0.6398  0.0236
  110MOL0     H14492   3.947   5.955   4.485  2.9983 -0.0310  2.6782
  110MOL0     H14493   3.890   5.968   4.643  3.7718 -1.5688 -1.2408
  110MOL0     H14494   3.672   6.013   4.587  0.8363 -2.1787  0.6488
  110MOL0     H14495   3.701   5.875   4.489  0.6113 -0.3625  0.2026
  110MOL0     H14496   3.751   6.026   4.284  0.4806  0.9305 -0.9522
  110MOL0     H14497   3.702   6.158   4.387 -1.3998 -0.6507  1.3192
  110MOL0     H14498   3.481   6.038   4.418 -0.1551  0.4617  0.3883
  110MOL0     H14499   3.513   6.126   4.267 -2.6067 -0.7952  1.8724
  110MOL0     H14500   3.545   5.819   4.298  0.0460  0.2432 -0.5159
  110MOL0     H14501   3.571   5.905   4.157 -1.0420 -0.0923 -0.5635
  110MOL0     H14502   4.338   6.398   4.708 -2.3199 -1.2828  0.4101
  110MOL0     H14503   4.458   6.570   4.800 -1.3240 -0.1325 -3.0476
  110MOL0     H14504   4.353   6.902   5.194 -0.0965  2.0180 -0.0179
  110MOL0     H14505   4.436   7.061   5.357 -1.5370 -0.7311 -1.4426
  110MOL0     H14506   6.476   6.289   5.105  0.3738  4.5246  0.4641
  110MOL0     H14507   6.735   6.247   5.118 -0.7926  1.1863 -0.9264
  110MOL0     H14508   7.056   6.225   5.501  0.1618 -2.9453 -1.5904
  110MOL0     H14509   7.284   6.162   5.558  0.7343  2.1146  2.2731
  110MOL0     H14510   7.608   6.356   5.310  1.6045 -1.4650 -1.2115
  110MOL0     H14511   7.715   6.242   5.398  1.6590  2.9476  3.0897
  110MOL0     H14512   7.713   6.451   5.503  1.5723 -1.3670 -0.5988
  110MOL0     H14513   7.535   6.438   5.536 -1.9809 -3.2989  1.1721
  110MOL0     H14514   7.733   6.234   5.620 -1.4171 -1.3558 -1.0091
  110MOL0     H14515   7.559   6.222   5.659 -0.7689  1.7357  3.0551
  110MOL0     H14516   7.764   6.441   5.766  0.6227 -0.0908 -1.3723
  110MOL0     H14517   7.587   6.413   5.804 -0.6886  0.0126 -0.7121
  110MOL0     H14518   7.772   6.099   6.034  2.8542  1.0194  0.5064
  110MOL0     H14519   7.426   6.350   5.210  2.4521  2.7356  3.4257
  110MOL0     H14520   7.186   6.400   5.130 -1.6550 -2.1032 -0.2683
  111MOL0     O14521   5.549   6.658   3.976  0.0340 -0.4173  0.0434
  111MOL0     C14522   5.597   6.547   3.995  0.4076  0.2363  0.9605
  111MOL0     O14523   5.526   6.429   4.023  0.1936  0.0879  0.0790
  111MOL0     C14524   5.394   6.431   4.057 -0.6858 -0.4047 -0.5886
  111MOL0     C14525   5.352   6.326   4.130  0.3984 -0.2762  0.1503
  111MOL0     C14526   5.216   6.315   4.170 -0.0203 -1.7243  0.0624
  111MOL0     C14527   5.124   6.421   4.165  0.1663  0.5738  0.0056
  111MOL0     O14528   5.000   6.403   4.225  0.0698 -0.5101  0.2119
  111MOL0     C14529   4.910   6.512   4.226  0.2519  0.4538  0.0787
  111MOL0     C14530   4.805   6.509   4.332  0.1839 -0.1499 -0.2012
  111MOL0     C14531   4.859   6.564   4.465 -0.0909 -0.1999  0.4254
  111MOL0     C14532   4.754   6.593   4.577  1.0233  0.1614  0.3958
  111MOL0     C14533   4.830   6.641   4.701 -0.1505 -0.1441 -0.9072
  111MOL0     C14534   4.904   6.528   4.780  1.0153  0.6379 -0.1821
  111MOL0     C14535   4.984   6.580   4.910  0.8137 -0.0899  0.6476
  111MOL0     C14536   5.038   6.466   4.987  0.6007 -0.3786  0.1044
  111MOL0     N14537   4.943   6.387   5.063 -0.7231  0.3289  0.1331
  111MOL0     C14538   4.825   6.431   5.119  0.4806  0.1403  0.5620
  111MOL0     C14539   4.778   6.333   5.204  0.2017  0.1479 -0.8441
  111MOL0     C14540   4.663   6.339   5.292 -0.4526 -0.9668 -0.2071
  111MOL0     C14541   4.526   6.366   5.226 -0.8247  0.8020  0.9083
  111MOL0     C14542   4.484   6.270   5.115 -0.0593  0.0025 -0.7719
  111MOL0     C14543   4.336   6.302   5.085 -0.1793  0.3229 -0.2860
  111MOL0     O14544   4.232   6.266   5.181 -0.6606 -1.1194  0.1400
  111MOL0     C14545   4.107   6.259   5.132  0.2848  0.2584 -0.4387
  111MOL0     C14546   4.017   6.366   5.151 -0.0731 -0.2835 -0.1964
  111MOL0     C14547   3.886   6.342   5.127  0.8496  0.2523  0.6938
  111MOL0     C14548   3.834   6.223   5.079 -0.3805  0.0600  0.0620
  111MOL0     C14549   3.694   6.205   5.035 -1.0129  0.4070 -0.6050
  111MOL0     O14550   3.615   6.316   5.052  0.3859 -0.1933  0.2785
  111MOL0     C14551   3.480   6.288   5.062  1.1186 -0.8242 -0.6539
  111MOL0     C14552   3.398   6.394   5.006  0.3696 -0.0606  0.4872
  111MOL0     C14553   3.253   6.373   4.997 -1.0392 -0.5360 -0.5420
  111MOL0     C14554   3.195   6.260   5.060  1.0520  0.1266 -0.4128
  111MOL0     O14555   3.063   6.253   5.052  0.5329 -0.7280  0.1688
  111MOL0     C14556   3.015   6.144   4.983  0.4746  0.4497 -0.6656
  111MOL0     C14557   2.868   6.154   4.991  0.3468 -0.2406  0.1794
  111MOL0     C14558   2.810   6.281   4.914  0.2755 -0.4519  0.2058
  111MOL0     C14559   2.658   6.273   4.920  0.3856 -0.1326  0.1022
  111MOL0     C14560   2.588   6.411   4.928  0.3073  0.3844 -0.2636
  111MOL0     C14561   2.447   6.400   4.878 -0.1322 -0.2621 -0.6960
  111MOL0     C14562   2.354   6.311   4.963 -0.3967  0.3572 -0.1344
  111MOL0     C14563   2.211   6.334   4.923  0.6888 -0.0236 -0.8803
  111MOL0    Cl14564   2.176   6.291   4.751 -0.2956  0.5507 -0.2470
  111MOL0     C14565   3.279   6.165   5.132 -0.0965  0.5846  0.2442
  111MOL0     C14566   3.416   6.185   5.134 -0.6351 -1.1421 -0.1020
  111MOL0     O14567   3.657   6.100   4.987 -0.6974 -0.1508  0.0668
  111MOL0     C14568   3.925   6.123   5.062  0.4173  0.1897 -0.1355
  111MOL0     C14569   4.059   6.136   5.082  0.5569 -0.6569  0.5807
  111MOL0     N14570   4.868   6.226   5.205  0.2488  0.1599 -0.4171
  111MOL0     N14571   4.956   6.259   5.113  0.0006  0.4256  0.4331
  111MOL0     C14572   5.173   6.536   4.097 -0.1091  0.3000  0.1822
  111MOL0     C14573   5.299   6.542   4.042 -0.1615  0.4654 -0.4119
  111MOL0     C14574   5.743   6.529   3.982 -0.0946  0.4007  0.4764
  111MOL0     C14575   5.825   6.632   3.939 -0.4222 -0.3482  0.0635
  111MOL0     C14576   5.962   6.611   3.928 -0.1710 -0.0088  0.0484
  111MOL0     C14577   6.024   6.487   3.952  0.7229  1.0318  0.2797
  111MOL0     O14578   6.166   6.486   3.942  0.0493 -0.4512  0.2003
  111MOL0     C14579   6.232   6.369   3.978  0.2685  0.6582 -1.1646
  111MOL0     C14580   6.385   6.397   3.985  0.2125 -0.6070 -0.0398
  111MOL0     C14581   6.428   6.467   4.114  0.7828  0.2845  0.8527
  111MOL0     C14582   6.579   6.507   4.098  0.4674 -0.0304  0.6674
  111MOL0     C14583   6.639   6.565   4.217  0.3478  0.7501 -0.4502
  111MOL0     C14584   6.693   6.602   4.322  0.7501 -0.8707  0.8491
  111MOL0     C14585   5.937   6.377   3.978  0.7567 -0.0730 -0.0954
  111MOL0     C14586   5.802   6.400   4.002 -0.2548 -0.2226 -0.3599
  111MOL0     H14587   5.422   6.247   4.154  0.0184 -0.7155 -0.1645
  111MOL0     H14588   5.193   6.232   4.236  1.7779 -0.7420  2.0573
  111MOL0     H14589   4.860   6.495   4.130  0.9713 -1.0564 -0.0504
  111MOL0     H14590   4.955   6.612   4.224  0.0749  0.5738  1.5198
  111MOL0     H14591   4.751   6.415   4.348 -0.6498  0.2785 -0.4507
  111MOL0     H14592   4.728   6.574   4.291  0.6714  0.1183 -0.7095
  111MOL0     H14593   4.908   6.657   4.435 -2.3233  0.5519 -1.1292
  111MOL0     H14594   4.932   6.499   4.516  0.7799  1.3599  1.2484
  111MOL0     H14595   4.673   6.659   4.545 -2.5396 -2.7156  2.6917
  111MOL0     H14596   4.696   6.503   4.598 -2.4945  1.0966 -3.8025
  111MOL0     H14597   4.762   6.683   4.776  2.3974 -0.2129  1.6082
  111MOL0     H14598   4.909   6.713   4.678  0.9833 -0.9879  0.2223
  111MOL0     H14599   4.975   6.466   4.724 -1.3073  0.2305 -2.8746
  111MOL0     H14600   4.831   6.458   4.820  0.7357  2.2102  2.2923
  111MOL0     H14601   5.064   6.651   4.888  0.9482  0.5993  3.1070
  111MOL0     H14602   4.918   6.637   4.976 -0.7057  0.3766 -1.1840
  111MOL0     H14603   5.096   6.521   5.062 -0.7314 -0.2970  1.1080
  111MOL0     H14604   5.104   6.399   4.930 -0.3176 -2.1784  1.0578
  111MOL0     H14605   4.772   6.525   5.102 -1.9257 -0.7955  2.3929
  111MOL0     H14606   4.696   6.426   5.349  0.7136 -1.1709 -0.5504
  111MOL0     H14607   4.667   6.248   5.352  0.3351 -1.0445 -0.3638
  111MOL0     H14608   4.526   6.470   5.192  0.7583  0.9963  1.4029
  111MOL0     H14609   4.453   6.355   5.307 -2.9640  0.2715 -0.9817
  111MOL0     H14610   4.542   6.273   5.022  0.2332  0.2135 -0.5858
  111MOL0     H14611   4.490   6.169   5.156 -1.0317  0.7281  1.2770
  111MOL0     H14612   4.313   6.246   4.993  0.1738  1.3493 -1.0190
  111MOL0     H14613   4.321   6.406   5.053  2.4383  0.4989 -1.2300
  111MOL0     H14614   4.049   6.461   5.193  0.9113  0.8122 -3.1600
  111MOL0     H14615   3.812   6.413   5.162  0.1935 -0.9957  1.9490
  111MOL0     H14616   3.442   6.483   4.963 -0.5000  0.0608 -0.1976
  111MOL0     H14617   3.188   6.452   4.961 -3.0105 -2.1415 -0.6504
  111MOL0     H14618   3.047   6.048   5.025 -3.0925 -0.9591 -0.8040
  111MOL0     H14619   3.037   6.147   4.876 -0.9003  2.3931 -0.9339
  111MOL0     H14620   2.832   6.161   5.094  0.4124  1.9120  0.0869
  111MOL0     H14621   2.811   6.070   4.950  1.9077 -1.1127 -0.2903
  111MOL0     H14622   2.843   6.283   4.810  0.0548 -0.0704  0.1388
  111MOL0     H14623   2.838   6.379   4.954  1.6136 -1.6710  2.4689
  111MOL0     H14624   2.628   6.213   4.833  0.1701 -1.0810  0.8110
  111MOL0     H14625   2.635   6.203   5.001 -0.9647 -2.1485 -1.9119
  111MOL0     H14626   2.639   6.478   4.858  0.5559  0.8635  0.3742
  111MOL0     H14627   2.589   6.456   5.027  0.5867  0.3592 -0.2534
  111MOL0     H14628   2.439   6.350   4.781  0.1554 -0.1839 -0.7612
  111MOL0     H14629   2.410   6.501   4.863  0.9446  0.8755  3.1747
  111MOL0     H14630   2.381   6.206   4.950 -3.5309 -0.2123 -3.4005
  111MOL0     H14631   2.358   6.341   5.068 -0.7522 -2.3781  0.7152
  111MOL0     H14632   2.188   6.437   4.950 -0.7719 -0.6041  0.2313
  111MOL0     H14633   2.142   6.283   4.991 -0.8334  3.7449  0.6686
  111MOL0     H14634   3.245   6.081   5.192 -1.2600 -0.7326 -2.1211
  111MOL0     H14635   3.483   6.114   5.182  0.5658 -0.2632 -0.4289
  111MOL0     H14636   3.892   6.024   5.032  2.1272 -0.0439 -1.4113
  111MOL0     H14637   4.131   6.058   5.058 -0.7983 -2.3362  1.6959
  111MOL0     H14638   5.115   6.620   4.060  0.8457  0.9033  0.0310
  111MOL0     H14639   5.324   6.619   3.970  1.3160 -0.1537 -0.5940
  111MOL0     H14640   5.782   6.730   3.925 -2.0312 -0.7640  1.6007
  111MOL0     H14641   6.029   6.693   3.905  0.9816 -1.1352 -0.7041
  111MOL0     H14642   6.212   6.284   3.912  0.4103  0.0312 -0.4134
  111MOL0     H14643   6.202   6.340   4.079  1.6548 -0.5561 -1.0506
  111MOL0     H14644   6.433   6.300   3.980  1.9674  0.2219  0.0117
  111MOL0     H14645   6.421   6.448   3.895 -1.8224 -1.2343 -1.2716
  111MOL0     H14646   6.407   6.396   4.195  0.7647 -1.3036 -0.5072
  111MOL0     H14647   6.373   6.561   4.125  0.2059  0.2055 -1.0120
  111MOL0     H14648   6.639   6.422   4.064 -1.9100 -1.4035 -0.3628
  111MOL0     H14649   6.590   6.575   4.013  0.2673 -2.1910 -1.1933
  111MOL0     H14650   6.730   6.628   4.419  0.3163 -0.3241  0.8769
  111MOL0     H14651   5.968   6.273   3.986  1.5100  0.1295 -0.2543
  111MOL0     H14652   5.737   6.315   4.021  0.5638 -1.1080 -1.4005
  112MOL0     O14653   0.524   5.397   0.175  1.0814  0.0488  0.4590
  112MOL0     C14654   0.582   5.282   0.174  0.1597  0.0812 -1.2360
  112MOL0     O14655   0.545   5.171   0.116  0.2697  0.2407  0.3881
  112MOL0     C14656   0.415   5.163   0.089  0.6864  0.0092 -0.1167
  112MOL0     C14657   0.335   5.117   0.192  0.8205  0.4040  0.6044
  112MOL0     C14658   0.198   5.105   0.171  0.4544 -0.2065  0.5259
  112MOL0     C14659   0.132   5.158   0.048 -0.3226  0.0475 -1.0975
  112MOL0     O14660   0.006   5.162   0.011  0.1942  0.5907 -0.0305
  112MOL0     C14661  -0.082   5.091   0.099  1.0280 -0.0780 -0.1309
  112MOL0     C14662  -0.220   5.090   0.041 -0.4603  0.5926  0.6052
  112MOL0     C14663  -0.282   5.226   0.047 -0.2432 -0.4334 -0.2053
  112MOL0     C14664  -0.402   5.246  -0.055  0.3855 -0.8930 -0.7329
  112MOL0     C14665  -0.485   5.368  -0.022 -0.1715 -0.6042 -0.1973
  112MOL0     C14666  -0.615   5.365  -0.098  0.1108  0.1828 -0.3375
  112MOL0     C14667  -0.686   5.500  -0.069 -0.5440  0.0472 -0.3171
  112MOL0     C14668  -0.822   5.494  -0.131 -1.4893 -0.1409 -0.2816
  112MOL0     N14669  -0.897   5.371  -0.095 -0.7632  0.7874 -0.1477
  112MOL0     C14670  -0.938   5.261  -0.169 -0.4760 -0.3600 -0.3500
  112MOL0     C14671  -1.036   5.196  -0.105 -0.5038 -0.0267 -0.0487
  112MOL0     C14672  -1.103   5.075  -0.160  0.6264  0.0079 -0.9403
  112MOL0     C14673  -1.244   5.112  -0.206 -1.1327 -0.7377  0.0392
  112MOL0     C14674  -1.320   4.989  -0.244 -0.2692 -0.1595  0.4493
  112MOL0     C14675  -1.456   5.017  -0.305 -0.5049 -0.4503 -0.4584
  112MOL0     O14676  -1.463   5.124  -0.401  0.2432  0.2974 -0.4501
  112MOL0     C14677  -1.599   5.126  -0.434 -0.2330  0.9461 -0.1249
  112MOL0     C14678  -1.633   5.069  -0.556  0.8693  0.3718  0.5715
  112MOL0     C14679  -1.763   5.067  -0.603 -0.3999  0.3988  0.0853
  112MOL0     C14680  -1.868   5.117  -0.531  0.7758 -0.4449 -0.0967
  112MOL0     C14681  -1.997   5.132  -0.595 -0.9850  0.3344  0.4755
  112MOL0     O14682  -2.102   5.198  -0.540  0.1503 -0.2159 -0.0275
  112MOL0     C14683  -2.220   5.213  -0.613 -0.2613  0.1765  0.8666
  112MOL0     C14684  -2.230   5.327  -0.695  0.2922  0.4498  0.5800
  112MOL0     C14685  -2.336   5.344  -0.779  0.0902  0.0217 -0.3302
  112MOL0     C14686  -2.449   5.254  -0.769  0.7595 -0.3364 -0.1464
  112MOL0     O14687  -2.560   5.306  -0.822 -0.1434  0.5798  0.4456
  112MOL0     C14688  -2.694   5.251  -0.800 -0.9358  0.2962 -0.6211
  112MOL0     C14689  -2.767   5.283  -0.922  0.1093 -0.0904  0.4468
  112MOL0     C14690  -2.825   5.422  -0.911 -0.5729  0.6758  0.1882
  112MOL0     C14691  -2.910   5.460  -1.040 -0.5547 -0.1745  0.4695
  112MOL0     C14692  -3.043   5.379  -1.041 -0.4806 -0.2184 -0.3531
  112MOL0     C14693  -3.140   5.433  -1.145 -0.8192 -0.1511  0.4700
  112MOL0     C14694  -3.088   5.412  -1.293 -0.1157 -0.2885 -0.1934
  112MOL0     C14695  -3.021   5.277  -1.335  0.1370  0.5388 -0.3537
  112MOL0    Cl14696  -2.936   5.314  -1.483 -0.4339 -0.3214  0.1435
  112MOL0     C14697  -2.447   5.141  -0.690 -0.5909 -0.6762  0.2977
  112MOL0     C14698  -2.325   5.124  -0.612  0.3512  0.4056 -0.7230
  112MOL0     O14699  -2.006   5.071  -0.698 -0.2973 -0.1676 -0.3673
  112MOL0     C14700  -1.842   5.172  -0.408  0.0875 -0.7789 -0.2240
  112MOL0     C14701  -1.705   5.183  -0.359  0.1469 -0.0816 -0.0176
  112MOL0     N14702  -1.065   5.275   0.001 -0.8496  0.7793  0.0542
  112MOL0     N14703  -0.978   5.372   0.013  0.2308 -0.7057  0.2000
  112MOL0     C14704   0.220   5.210  -0.048  0.3705  0.0530 -0.4245
  112MOL0     C14705   0.359   5.205  -0.035  0.2823  0.3501 -0.7786
  112MOL0     C14706   0.719   5.274   0.243  0.5537  0.5320  0.0987
  112MOL0     C14707   0.765   5.161   0.306 -0.4047 -0.3065  0.1153
  112MOL0     C14708   0.900   5.160   0.365  0.9971 -0.9940  0.3494
  112MOL0     C14709   0.979   5.277   0.376  0.4122  0.0206  0.3246
  112MOL0     O14710   1.108   5.289   0.416 -0.2323 -0.1717 -0.5876
  112MOL0     C14711   1.161   5.174   0.491  0.6494  0.1219  0.4981
  112MOL0     C14712   1.304   5.186   0.546 -0.2057 -0.7345 -0.7842
  112MOL0     C14713   1.328   5.303   0.639  0.5493  0.1470 -0.0637
  112MOL0     C14714   1.455   5.305   0.718  0.3567  0.7484 -0.5053
  112MOL0     C14715   1.578   5.300   0.634 -0.0920 -0.2736  0.7440
  112MOL0     C14716   1.674   5.296   0.558 -0.5357 -0.5678  0.0267
  112MOL0     C14717   0.919   5.393   0.331 -0.1897 -0.4420  0.1715
  112MOL0     C14718   0.791   5.394   0.268 -0.2773  0.3823  0.4600
  112MOL0     H14719   0.378   5.085   0.287  3.0890 -0.5272 -0.6559
  112MOL0     H14720   0.147   5.048   0.248 -1.1939  0.0848 -0.3206
  112MOL0     H14721  -0.072   5.141   0.196 -0.5881  1.4493 -0.6756
  112MOL0     H14722  -0.053   4.986   0.105 -0.2896 -0.5051 -0.7506
  112MOL0     H14723  -0.278   5.015   0.094  1.7060 -0.3044  1.8385
  112MOL0     H14724  -0.205   5.069  -0.066  2.8124  1.2330  0.8344
  112MOL0     H14725  -0.200   5.298   0.033  1.6174 -2.6623 -1.4343
  112MOL0     H14726  -0.328   5.241   0.145  0.2966  1.0752 -0.1475
  112MOL0     H14727  -0.359   5.243  -0.156  0.2298  2.8599 -1.0507
  112MOL0     H14728  -0.471   5.161  -0.051 -0.4543 -0.2086 -0.5984
  112MOL0     H14729  -0.430   5.458  -0.052 -1.9290 -0.2200 -2.5700
  112MOL0     H14730  -0.502   5.354   0.085  3.6195  0.4552  0.6866
  112MOL0     H14731  -0.673   5.284  -0.053  2.0747 -0.4927  1.0791
  112MOL0     H14732  -0.609   5.352  -0.207 -0.7976  1.0109 -0.5092
  112MOL0     H14733  -0.696   5.521   0.038  0.6866  2.3529 -0.5882
  112MOL0     H14734  -0.635   5.586  -0.113 -1.4303  1.3275  1.0660
  112MOL0     H14735  -0.814   5.501  -0.240  3.4441  1.2594 -0.0750
  112MOL0     H14736  -0.885   5.576  -0.094 -1.4058 -0.2854  0.1921
  112MOL0     H14737  -0.885   5.241  -0.262  1.1096  2.9003 -0.2729
  112MOL0     H14738  -1.108   4.997  -0.083  2.6354  0.4589 -0.2931
  112MOL0     H14739  -1.058   5.030  -0.249 -0.5239 -0.0662 -1.4984
  112MOL0     H14740  -1.224   5.177  -0.291  0.0214  1.6307  1.9853
  112MOL0     H14741  -1.283   5.176  -0.126  2.0556  0.5103  0.7324
  112MOL0     H14742  -1.264   4.928  -0.316 -0.7186  1.5095 -1.4144
  112MOL0     H14743  -1.335   4.925  -0.157  1.9248  1.2362  1.9460
  112MOL0     H14744  -1.521   5.046  -0.222 -0.0546  2.5743 -1.0477
  112MOL0     H14745  -1.497   4.924  -0.345 -0.1850 -0.5743 -0.5030
  112MOL0     H14746  -1.546   5.032  -0.609  0.9502 -0.0782  1.0172
  112MOL0     H14747  -1.770   5.034  -0.706 -1.5687 -0.5081  0.4306
  112MOL0     H14748  -2.149   5.398  -0.686  1.2150 -0.7135  1.9537
  112MOL0     H14749  -2.334   5.430  -0.846  0.5234  2.7408  2.9326
  112MOL0     H14750  -2.746   5.291  -0.712 -3.6315  1.0351 -2.4251
  112MOL0     H14751  -2.693   5.143  -0.787 -0.5404  0.5646  2.1785
  112MOL0     H14752  -2.846   5.213  -0.949 -1.4913  2.3081 -1.5776
  112MOL0     H14753  -2.690   5.274  -1.000  0.8464  0.8543  1.0283
  112MOL0     H14754  -2.740   5.490  -0.907  1.1412 -1.3336 -0.4876
  112MOL0     H14755  -2.877   5.444  -0.817 -0.1966  0.2273  0.5031
  112MOL0     H14756  -2.929   5.567  -1.043  1.2387  0.1942  1.1968
  112MOL0     H14757  -2.849   5.431  -1.127 -0.6981  0.6297  0.0964
  112MOL0     H14758  -3.078   5.396  -0.939  0.6701 -3.4183  0.7095
  112MOL0     H14759  -3.044   5.270  -1.047 -2.7588 -0.1745 -4.1980
  112MOL0     H14760  -3.166   5.537  -1.122  0.2058  0.1077  0.5445
  112MOL0     H14761  -3.230   5.371  -1.148  0.7026 -2.4563 -2.4616
  112MOL0     H14762  -3.175   5.424  -1.358 -1.4985 -2.3546  1.1672
  112MOL0     H14763  -3.008   5.482  -1.320 -0.4684 -0.6347 -2.3188
  112MOL0     H14764  -3.093   5.197  -1.354  2.3082 -1.2314 -1.6107
  112MOL0     H14765  -2.951   5.249  -1.255  0.1519 -1.4096 -0.9935
  112MOL0     H14766  -2.536   5.080  -0.680 -0.8249 -0.3890  0.0253
  112MOL0     H14767  -2.323   5.038  -0.546 -3.1771  0.3649 -0.4410
  112MOL0     H14768  -1.926   5.217  -0.356  0.3833 -2.0720  1.4669
  112MOL0     H14769  -1.688   5.232  -0.264  0.3373 -1.7461  0.8510
  112MOL0     H14770   0.178   5.242  -0.143 -0.6903 -1.9958 -0.6950
  112MOL0     H14771   0.424   5.243  -0.113  1.1276  1.7771  0.5626
  112MOL0     H14772   0.705   5.073   0.285  0.0646  0.2185 -4.3613
  112MOL0     H14773   0.934   5.061   0.392  1.8758 -0.9383 -0.5067
  112MOL0     H14774   1.154   5.087   0.426  0.8959  1.8713 -1.9806
  112MOL0     H14775   1.085   5.143   0.563 -1.4930 -0.5048 -1.8943
  112MOL0     H14776   1.327   5.101   0.611 -0.9165 -0.5436 -0.2679
  112MOL0     H14777   1.375   5.188   0.464  1.8403  1.7796  0.8780
  112MOL0     H14778   1.237   5.307   0.700 -0.0255 -2.2066 -0.6725
  112MOL0     H14779   1.311   5.388   0.571 -3.2499 -1.5220 -1.4703
  112MOL0     H14780   1.474   5.388   0.787  4.7566  1.1980 -1.9420
  112MOL0     H14781   1.452   5.214   0.779  0.7281  0.7861 -0.4287
  112MOL0     H14782   1.748   5.308   0.481 -3.4390 -0.2051 -2.9480
  112MOL0     H14783   0.963   5.488   0.359  1.0720 -1.4170  1.6604
  112MOL0     H14784   0.741   5.485   0.239 -0.2344  1.5573  3.6468
  113MOL0     O14785   0.917  10.574   4.075  0.1590 -0.0517  0.0272
  113MOL0     C14786   0.915  10.648   3.976 -0.5521  0.1363  0.5788
  113MOL0     O14787   0.825  10.742   3.957 -0.9374 -0.7374  0.5559
  113MOL0     C14788   0.718  10.739   4.038  0.3732  0.2580  0.2208
  113MOL0     C14789   0.608  10.666   4.009 -0.4657 -0.5241  1.1417
  113MOL0     C14790   0.501  10.662   4.090  1.0194 -0.0927  0.0836
  113MOL0     C14791   0.495  10.742   4.203  0.0231 -0.9479  0.3873
  113MOL0     O14792   0.383  10.724   4.274  0.4074  0.2149  0.1107
  113MOL0     C14793   0.276  10.822   4.256 -0.1989  0.1088 -0.1550
  113MOL0     C14794   0.147  10.781   4.332 -0.1489 -0.1998 -0.7560
  113MOL0     C14795   0.041  10.890   4.309  1.3151  0.1644 -0.5965
  113MOL0     C14796  -0.080  10.866   4.396 -0.0284 -0.0776  0.4247
  113MOL0     C14797  -0.207  10.942   4.340  0.4286  0.2128  0.6193
  113MOL0     C14798  -0.327  10.887   4.408 -0.1985  0.0471  0.5297
  113MOL0     C14799  -0.462  10.936   4.345  0.4939  0.2686  0.4006
  113MOL0     C14800  -0.484  11.084   4.330  1.0822  0.1469  0.9241
  113MOL0     N14801  -0.626  11.108   4.332  0.6721 -0.4130 -0.5565
  113MOL0     C14802  -0.704  11.123   4.447 -0.5205 -0.0524  0.2481
  113MOL0     C14803  -0.816  11.185   4.412  0.8657 -0.1097  0.0260
  113MOL0     C14804  -0.931  11.224   4.502 -0.3840 -0.8294  0.9822
  113MOL0     C14805  -1.071  11.204   4.428 -0.2234  1.0853  0.0178
  113MOL0     C14806  -1.126  11.324   4.366  0.6900 -0.1802  1.4574
  113MOL0     C14807  -1.273  11.311   4.332  1.0338 -0.5747  0.7420
  113MOL0     O14808  -1.340  11.271   4.450  0.0352 -0.1466 -0.3731
  113MOL0     C14809  -1.467  11.227   4.423  1.1550 -0.2670 -0.6573
  113MOL0     C14810  -1.506  11.092   4.435  0.7101 -0.2941  0.2234
  113MOL0     C14811  -1.648  11.072   4.419  0.4969 -0.0148 -0.2935
  113MOL0     C14812  -1.747  11.167   4.395  1.0527  0.0122  0.4054
  113MOL0     C14813  -1.889  11.133   4.372 -0.2413 -0.5383  0.7951
  113MOL0     O14814  -1.913  10.998   4.361  0.3732 -0.7461 -0.3515
  113MOL0     C14815  -2.042  10.943   4.350  0.7708 -0.1550 -0.5447
  113MOL0     C14816  -2.065  10.824   4.282 -0.6354  0.5306  0.8291
  113MOL0     C14817  -2.186  10.768   4.268 -0.5344 -0.5611  0.2547
  113MOL0     C14818  -2.299  10.836   4.315 -0.0513  0.9587  0.0978
  113MOL0     O14819  -2.424  10.786   4.290 -0.2818  0.0444  0.4619
  113MOL0     C14820  -2.487  10.870   4.186 -0.6794 -0.3971 -0.1712
  113MOL0     C14821  -2.598  10.792   4.131  1.2086  0.0173 -0.0923
  113MOL0     C14822  -2.679  10.871   4.044  1.4763  0.1384  0.1059
  113MOL0     C14823  -2.795  10.795   3.972  0.3765  0.5606  0.7771
  113MOL0     C14824  -2.855  10.879   3.854 -0.2316 -0.0221 -0.8437
  113MOL0     C14825  -2.933  10.789   3.758  0.2539  0.6805 -0.3071
  113MOL0     C14826  -3.043  10.873   3.690  0.3053  0.5295  0.2121
  113MOL0     C14827  -3.132  10.790   3.591 -0.0696 -0.0741 -0.5571
  113MOL0    Cl14828  -3.218  10.639   3.654 -0.0871 -0.1001 -0.2445
  113MOL0     C14829  -2.281  10.955   4.390  0.2178  0.1414  0.0136
  113MOL0     C14830  -2.155  11.006   4.408  0.1609 -0.3306  0.4739
  113MOL0     O14831  -1.973  11.220   4.350 -0.3415 -0.4973 -0.2662
  113MOL0     C14832  -1.701  11.298   4.388  0.3435  0.0042 -0.1190
  113MOL0     C14833  -1.569  11.324   4.416 -0.6519 -0.2818  0.6004
  113MOL0     N14834  -0.811  11.195   4.269  0.1717 -0.2667  0.0318
  113MOL0     N14835  -0.690  11.154   4.221 -0.2345  0.5368  0.0764
  113MOL0     C14836   0.608  10.815   4.236  1.0064 -0.1381 -0.4050
  113MOL0     C14837   0.719  10.814   4.158  0.1603  1.5515  0.4388
  113MOL0     C14838   1.024  10.639   3.872 -0.4333 -0.2615  0.1793
  113MOL0     C14839   1.085  10.518   3.831  0.2008 -1.0319 -0.1778
  113MOL0     C14840   1.192  10.509   3.742  0.0818  0.0618 -0.5040
  113MOL0     C14841   1.243  10.635   3.690 -0.3915  0.0931 -0.3788
  113MOL0     O14842   1.342  10.645   3.590 -0.1298  0.4120  0.0243
  113MOL0     C14843   1.471  10.604   3.642 -0.0899  0.4363 -0.8761
  113MOL0     C14844   1.520  10.675   3.770  0.2977 -0.8230 -0.0832
  113MOL0     C14845   1.647  10.612   3.814  0.3949 -0.3425  0.0244
  113MOL0     C14846   1.722  10.692   3.917  0.1403  0.2237 -0.1259
  113MOL0     C14847   1.805  10.806   3.857  0.8413 -0.6587  0.9755
  113MOL0     C14848   1.866  10.899   3.813 -0.1514  0.2864 -0.2605
  113MOL0     C14849   1.188  10.748   3.733  1.1556 -0.3751 -0.1111
  113MOL0     C14850   1.080  10.757   3.823 -0.2646  0.0517  0.4333
  113MOL0     H14851   0.601  10.605   3.920  0.5124  2.5775 -1.2470
  113MOL0     H14852   0.421  10.603   4.046 -0.7035 -0.3872  3.2983
  113MOL0     H14853   0.250  10.816   4.149  1.0646  1.5538 -0.5823
  113MOL0     H14854   0.308  10.923   4.280 -1.5669  0.5352 -0.0698
  113MOL0     H14855   0.170  10.771   4.438 -0.4765  0.8898 -0.5729
  113MOL0     H14856   0.114  10.680   4.306 -2.9326  0.3409  0.3943
  113MOL0     H14857   0.003  10.889   4.206  0.6364 -1.3754 -0.3667
  113MOL0     H14858   0.075  10.994   4.314 -1.8349  1.3756 -1.5585
  113MOL0     H14859  -0.109  10.761   4.403 -3.3161  0.7944  1.8620
  113MOL0     H14860  -0.054  10.897   4.497  0.0411 -1.0464  0.7140
  113MOL0     H14861  -0.225  10.930   4.233 -2.7530  4.9733  0.2969
  113MOL0     H14862  -0.196  11.050   4.353 -0.4463  0.3846 -0.0207
  113MOL0     H14863  -0.324  10.919   4.513  0.5689 -2.4878  1.3529
  113MOL0     H14864  -0.328  10.779   4.398 -1.8886  0.1620 -1.0105
  113MOL0     H14865  -0.472  10.912   4.238 -0.0220  2.1450 -0.0026
  113MOL0     H14866  -0.549  10.892   4.396 -0.1201  1.1159  0.1006
  113MOL0     H14867  -0.441  11.123   4.238  1.7432 -1.6590  0.4304
  113MOL0     H14868  -0.448  11.140   4.418 -0.7946  0.7660  1.3524
  113MOL0     H14869  -0.674  11.092   4.546 -0.8312  0.7315  0.5937
  113MOL0     H14870  -0.912  11.327   4.534  1.2706 -0.9618  0.5002
  113MOL0     H14871  -0.919  11.165   4.593  0.2330  1.0653  2.1900
  113MOL0     H14872  -1.136  11.169   4.509  0.7539  1.2337  0.8858
  113MOL0     H14873  -1.068  11.124   4.353 -4.6922  0.7144 -0.0608
  113MOL0     H14874  -1.109  11.407   4.434  0.7148  0.6923  0.4114
  113MOL0     H14875  -1.064  11.335   4.276  1.3532  1.3300  2.0627
  113MOL0     H14876  -1.275  11.233   4.255 -1.0750  0.0581  0.0870
  113MOL0     H14877  -1.305  11.412   4.307  0.7025 -0.4585  1.6114
  113MOL0     H14878  -1.437  11.013   4.461  0.0372 -0.9851 -0.0415
  113MOL0     H14879  -1.685  10.970   4.413 -3.8168  1.2183  1.1091
  113MOL0     H14880  -1.987  10.769   4.231 -0.1677  1.5840  0.3610
  113MOL0     H14881  -2.195  10.679   4.205  1.1107 -0.6773  0.1444
  113MOL0     H14882  -2.418  10.891   4.104 -2.1684  0.1585 -1.3288
  113MOL0     H14883  -2.523  10.966   4.223  1.1830  0.7459 -1.1485
  113MOL0     H14884  -2.675  10.770   4.206  0.8668  1.7913  0.1193
  113MOL0     H14885  -2.555  10.706   4.081  1.1945  0.5170 -0.9802
  113MOL0     H14886  -2.610  10.906   3.967  0.4693  0.2626 -0.7667
  113MOL0     H14887  -2.730  10.951   4.098 -0.1467 -0.6710 -0.1363
  113MOL0     H14888  -2.747  10.706   3.932 -0.8597 -0.2766  1.0949
  113MOL0     H14889  -2.879  10.766   4.036 -1.9476  3.4825 -0.7173
  113MOL0     H14890  -2.776  10.931   3.799  0.3395 -0.3887 -0.3791
  113MOL0     H14891  -2.921  10.955   3.896  1.6822 -0.7284  4.0725
  113MOL0     H14892  -2.970  10.699   3.807 -0.6201  1.3684  0.3261
  113MOL0     H14893  -2.869  10.746   3.680  0.0514  0.0486 -0.1294
  113MOL0     H14894  -3.112  10.906   3.768 -4.7213  0.0100 -3.5147
  113MOL0     H14895  -2.991  10.955   3.641  1.2086 -0.4186 -0.4707
  113MOL0     H14896  -3.062  10.760   3.512  0.2378 -2.8716  0.6662
  113MOL0     H14897  -3.215  10.849   3.551 -1.1542 -0.9311  0.3569
  113MOL0     H14898  -2.369  11.008   4.426 -0.4230  0.6802 -2.2193
  113MOL0     H14899  -2.147  11.098   4.465  2.3105 -1.2013  1.7102
  113MOL0     H14900  -1.765  11.385   4.376  2.7022  1.4741 -3.5226
  113MOL0     H14901  -1.542  11.426   4.442  0.0325 -0.6847  1.4997
  113MOL0     H14902   0.626  10.876   4.325  1.8429  0.5710 -1.0451
  113MOL0     H14903   0.795  10.888   4.183  1.6050 -0.3301  1.8922
  113MOL0     H14904   1.052  10.425   3.877 -4.9749  0.9746  0.8685
  113MOL0     H14905   1.228  10.414   3.703  0.5424 -0.1702  0.4545
  113MOL0     H14906   1.546  10.620   3.563  0.0702  0.0832 -0.7959
  113MOL0     H14907   1.466  10.496   3.661 -1.0833  0.9597  2.2459
  113MOL0     H14908   1.546  10.779   3.746 -0.7368 -1.0769 -2.5917
  113MOL0     H14909   1.445  10.672   3.849  0.4725 -0.9868  0.0763
  113MOL0     H14910   1.723  10.610   3.735  3.8216  1.6755  2.9254
  113MOL0     H14911   1.627  10.510   3.848 -0.9779 -0.1605 -0.2144
  113MOL0     H14912   1.657  10.732   3.996 -0.2484 -2.2413  0.8984
  113MOL0     H14913   1.790  10.621   3.966 -0.0743 -1.2291 -1.8467
  113MOL0     H14914   1.915  10.986   3.775 -1.1536  0.1202 -2.0634
  113MOL0     H14915   1.220  10.847   3.703 -3.4370  1.6200  0.7419
  113MOL0     H14916   1.041  10.854   3.854  0.9107  0.7011 -0.0522
  114MOL0     O14917   9.044   0.437   8.792  0.1166  0.9390  0.7341
  114MOL0     C14918   9.121   0.374   8.867  0.4320  1.1437  0.1551
  114MOL0     O14919   9.082   0.292   8.980  0.2555  0.2225  0.5477
  114MOL0     C14920   8.943   0.264   8.999  0.5538 -0.9199  0.2033
  114MOL0     C14921   8.885   0.136   8.996  0.1731  0.0373 -0.7516
  114MOL0     C14922   8.744   0.113   9.024  0.5751  0.0473 -0.2813
  114MOL0     C14923   8.659   0.218   9.040 -0.3460 -0.1992 -0.2313
  114MOL0     O14924   8.520   0.207   9.046 -0.4896  0.9332 -0.1418
  114MOL0     C14925   8.459   0.079   9.014 -0.3169 -0.0111  0.1740
  114MOL0     C14926   8.314   0.102   8.995 -0.4679 -0.3021  0.2827
  114MOL0     C14927   8.235  -0.029   8.953 -0.2446 -0.5828 -0.7001
  114MOL0     C14928   8.273  -0.078   8.813 -0.0704 -0.4589  0.2974
  114MOL0     C14929   8.158  -0.146   8.743 -0.0705  0.9192  0.5675
  114MOL0     C14930   8.179  -0.159   8.594 -0.1176 -0.2955  0.3951
  114MOL0     C14931   8.053  -0.222   8.535  0.1271  0.0479  0.0442
  114MOL0     C14932   8.035  -0.377   8.569 -0.0168 -0.3216  0.9675
  114MOL0     N14933   7.891  -0.408   8.562 -0.5470  0.8053  0.1567
  114MOL0     C14934   7.805  -0.432   8.669 -0.2046  0.1387  0.2866
  114MOL0     C14935   7.695  -0.501   8.609 -0.3563 -1.4145  0.0260
  114MOL0     C14936   7.579  -0.560   8.674 -0.1647 -0.7092  0.1178
  114MOL0     C14937   7.602  -0.716   8.706  0.1379  0.2136  0.2962
  114MOL0     C14938   7.538  -0.802   8.604  0.4723 -1.4099 -0.5003
  114MOL0     C14939   7.389  -0.787   8.602  0.2068  0.4715  0.0727
  114MOL0     O14940   7.325  -0.837   8.724  0.5343 -0.5856  0.2092
  114MOL0     C14941   7.193  -0.863   8.723 -0.2958  0.0178  0.4367
  114MOL0     C14942   7.134  -0.922   8.835  0.4140 -0.0186 -0.1534
  114MOL0     C14943   7.001  -0.947   8.840 -0.7457 -0.0285  0.5972
  114MOL0     C14944   6.912  -0.927   8.737 -0.3752  0.2184 -0.0146
  114MOL0     C14945   6.764  -0.939   8.755  0.2203  0.4559 -0.2968
  114MOL0     O14946   6.716  -0.979   8.872  0.3779  0.1761 -0.3586
  114MOL0     C14947   6.589  -1.003   8.899 -0.3416  0.0883  0.2739
  114MOL0     C14948   6.523  -1.119   8.856 -0.0211  0.4801  0.3887
  114MOL0     C14949   6.384  -1.127   8.862 -0.3814  0.3198 -0.3352
  114MOL0     C14950   6.307  -1.034   8.933  0.2583 -0.1545 -0.9859
  114MOL0     O14951   6.172  -1.043   8.940  1.1944  0.8707  0.4916
  114MOL0     C14952   6.092  -1.066   8.823  0.2763 -1.0798  0.2182
  114MOL0     C14953   5.947  -1.035   8.879 -0.8298  0.8056 -0.0047
  114MOL0     C14954   5.855  -1.071   8.765 -0.2132  0.3471 -0.3918
  114MOL0     C14955   5.721  -1.008   8.787  0.0733 -0.8659  0.4382
  114MOL0     C14956   5.626  -1.085   8.884  0.1283 -0.5941  0.0536
  114MOL0     C14957   5.475  -1.029   8.891 -0.9247 -0.4942  0.0917
  114MOL0     C14958   5.387  -1.110   8.793  0.2402  0.0075 -0.0050
  114MOL0     C14959   5.240  -1.129   8.840 -0.6497 -0.4996 -1.1731
  114MOL0    Cl14960   5.145  -0.985   8.814  0.0430  0.1199  0.1750
  114MOL0     C14961   6.378  -0.932   8.993  0.6697 -0.5829  0.1413
  114MOL0     C14962   6.522  -0.916   8.983  0.6274 -0.5744 -0.2741
  114MOL0     O14963   6.694  -0.910   8.659  0.7045 -0.0126  0.3275
  114MOL0     C14964   6.972  -0.885   8.612  0.2905  0.4768  0.1276
  114MOL0     C14965   7.107  -0.850   8.610  0.0751 -0.4105  0.3992
  114MOL0     N14966   7.730  -0.521   8.481  0.0307 -0.5841 -0.3326
  114MOL0     N14967   7.843  -0.466   8.447 -0.6025  0.2029  0.8494
  114MOL0     C14968   8.711   0.348   9.035 -0.0392 -0.5032 -0.0282
  114MOL0     C14969   8.849   0.376   9.018 -1.2009 -0.3424 -0.0855
  114MOL0     C14970   9.261   0.374   8.833 -0.3301  0.7604  0.0819
  114MOL0     C14971   9.315   0.470   8.750  0.5321  0.1724  0.2662
  114MOL0     C14972   9.451   0.470   8.719 -0.1417  0.1972  0.0241
  114MOL0     C14973   9.542   0.383   8.776  0.3141  0.6156 -0.1890
  114MOL0     O14974   9.675   0.400   8.766  0.0565 -0.4588 -0.0201
  114MOL0     C14975   9.726   0.534   8.746 -0.3049  0.6054  0.0029
  114MOL0     C14976   9.873   0.536   8.808  0.6196  1.0262 -1.1611
  114MOL0     C14977   9.937   0.676   8.826  0.0299 -0.7868 -0.0255
  114MOL0     C14978  10.066   0.647   8.900  1.1806  0.1919  0.1155
  114MOL0     C14979  10.150   0.773   8.894  0.1750  0.7170 -0.9091
  114MOL0     C14980  10.229   0.864   8.887  1.0215  0.2563 -0.0370
  114MOL0     C14981   9.485   0.286   8.861  0.5097 -0.1842  0.7669
  114MOL0     C14982   9.348   0.280   8.893 -0.1594  0.6096 -0.5948
  114MOL0     H14983   8.951   0.050   8.990  0.4140  0.1340  0.2585
  114MOL0     H14984   8.695   0.016   9.024 -0.8963  0.7709 -0.6138
  114MOL0     H14985   8.481   0.003   9.089 -0.3880 -0.8832 -0.6594
  114MOL0     H14986   8.498   0.050   8.916  0.2137  2.6529 -0.4748
  114MOL0     H14987   8.301   0.185   8.925 -4.0795 -0.4622  0.5808
  114MOL0     H14988   8.269   0.127   9.091  0.3670 -1.4209  0.9935
  114MOL0     H14989   8.129  -0.007   8.967  0.1630 -0.3813  2.7091
  114MOL0     H14990   8.263  -0.106   9.025 -1.7333 -0.0505  0.5041
  114MOL0     H14991   8.295   0.013   8.756  1.0561 -0.9043  0.0013
  114MOL0     H14992   8.360  -0.145   8.809 -0.3577 -0.7688 -1.9155
  114MOL0     H14993   8.065  -0.093   8.766 -1.7750 -0.3891 -2.7699
  114MOL0     H14994   8.137  -0.248   8.776 -0.7459  0.0632 -2.3105
  114MOL0     H14995   8.271  -0.218   8.582  0.8719  1.5415 -1.7346
  114MOL0     H14996   8.195  -0.062   8.546  0.4297 -0.8953 -0.6630
  114MOL0     H14997   7.966  -0.165   8.568 -0.6869  0.2530 -2.2621
  114MOL0     H14998   8.058  -0.210   8.426  0.7356 -0.7342 -0.0200
  114MOL0     H14999   8.070  -0.405   8.668 -1.5525 -1.0209  1.3407
  114MOL0     H15000   8.090  -0.439   8.497 -0.7741  1.1841 -1.0018
  114MOL0     H15001   7.816  -0.400   8.772 -0.0936  5.2547 -1.0338
  114MOL0     H15002   7.501  -0.538   8.601  2.0439 -1.1838 -2.5368
  114MOL0     H15003   7.561  -0.509   8.769  1.2399 -3.5005  2.0373
  114MOL0     H15004   7.549  -0.726   8.801 -1.3547  1.9488 -0.2813
  114MOL0     H15005   7.707  -0.739   8.725  0.4138  0.2422 -1.0948
  114MOL0     H15006   7.589  -0.797   8.507  1.3369 -2.2146 -0.0904
  114MOL0     H15007   7.553  -0.905   8.637  2.7957 -0.3618  2.1182
  114MOL0     H15008   7.371  -0.858   8.520  0.1037 -0.5547  0.9589
  114MOL0     H15009   7.347  -0.688   8.581 -1.3787 -0.0288  0.7110
  114MOL0     H15010   7.199  -0.957   8.914 -1.2579 -2.2706  0.3250
  114MOL0     H15011   6.958  -0.999   8.925 -0.7169  0.5895  0.9948
  114MOL0     H15012   6.586  -1.193   8.808 -1.2514 -0.0138 -0.5341
  114MOL0     H15013   6.345  -1.217   8.816  1.6483 -1.1210  0.6057
  114MOL0     H15014   6.097  -1.173   8.798 -2.6506 -1.1452 -0.4310
  114MOL0     H15015   6.125  -1.003   8.740 -2.6936 -0.0187 -0.2948
  114MOL0     H15016   5.939  -0.929   8.904  0.3906  1.1159 -0.8620
  114MOL0     H15017   5.925  -1.096   8.967 -1.2147 -1.0554 -1.3233
  114MOL0     H15018   5.851  -1.180   8.768  1.6754  0.2218 -0.6759
  114MOL0     H15019   5.890  -1.018   8.675 -2.6002  2.9800  0.0986
  114MOL0     H15020   5.719  -0.906   8.828 -0.6510 -0.9362  0.5873
  114MOL0     H15021   5.682  -1.001   8.685  1.3772  2.2867  0.0292
  114MOL0     H15022   5.679  -1.073   8.979  2.8988 -4.2488 -0.8199
  114MOL0     H15023   5.625  -1.192   8.864 -0.1922 -1.1892  2.8392
  114MOL0     H15024   5.468  -0.924   8.860 -0.3623 -0.6106 -0.4421
  114MOL0     H15025   5.446  -1.036   8.996 -2.7349  1.9075 -0.1611
  114MOL0     H15026   5.388  -1.084   8.687 -3.8166  0.8867 -0.0119
  114MOL0     H15027   5.431  -1.210   8.798  0.2375 -0.0915 -1.6207
  114MOL0     H15028   5.239  -1.153   8.946  0.4608 -2.3558 -1.5341
  114MOL0     H15029   5.194  -1.217   8.792  0.6228 -0.9839 -1.5411
  114MOL0     H15030   6.328  -0.860   9.056  2.9124 -0.3336  1.7456
  114MOL0     H15031   6.584  -0.841   9.032  0.6963 -0.6629 -0.2249
  114MOL0     H15032   6.907  -0.866   8.527 -2.1672 -0.0997  1.7632
  114MOL0     H15033   7.155  -0.802   8.525 -0.3236 -0.8836 -0.0913
  114MOL0     H15034   8.637   0.428   9.033 -1.9346 -2.1559 -2.2811
  114MOL0     H15035   8.892   0.473   8.994  0.8891 -1.6067 -1.8849
  114MOL0     H15036   9.252   0.553   8.722 -1.1525 -0.5824  1.6481
  114MOL0     H15037   9.489   0.553   8.660 -0.3479 -0.0292 -0.4319
  114MOL0     H15038   9.662   0.597   8.809 -1.9592 -1.7191  0.7566
  114MOL0     H15039   9.727   0.570   8.643 -0.2500  1.8242  0.4057
  114MOL0     H15040   9.868   0.496   8.910  1.4573  0.5291 -1.3075
  114MOL0     H15041   9.939   0.474   8.747 -0.9336 -1.8915 -0.1142
  114MOL0     H15042   9.873   0.740   8.887 -0.1871  0.6200 -1.6459
  114MOL0     H15043   9.954   0.729   8.731  0.5900 -0.9989 -0.0462
  114MOL0     H15044  10.044   0.621   9.003  1.6259 -2.4879 -0.4051
  114MOL0     H15045  10.118   0.561   8.857  0.1275  1.0376 -3.1057
  114MOL0     H15046  10.300   0.944   8.876  0.6215  0.2498 -4.7580
  114MOL0     H15047   9.567   0.221   8.887  2.7241  1.3280 -1.8753
  114MOL0     H15048   9.320   0.203   8.963 -1.6929 -0.0745 -1.8912
  115MOL0     O15049   6.615   8.220   8.290 -0.3862 -0.1436 -0.3432
  115MOL0     C15050   6.610   8.243   8.412 -0.2122 -0.7759 -0.1602
  115MOL0     O15051   6.497   8.256   8.489 -0.1430  0.4208 -0.2803
  115MOL0     C15052   6.387   8.192   8.446  0.8989  0.4821  0.2899
  115MOL0     C15053   6.342   8.074   8.508  0.0242 -0.2730 -0.5176
  115MOL0     C15054   6.235   8.003   8.452  0.2938 -0.3264  0.7414
  115MOL0     C15055   6.157   8.043   8.340  0.4281 -0.3945 -0.3156
  115MOL0     O15056   6.047   7.973   8.288  0.3367  0.4043  0.3485
  115MOL0     C15057   5.934   8.059   8.243 -1.4134  0.1907 -0.5136
  115MOL0     C15058   5.918   8.061   8.093  0.1515 -0.0375  0.1730
  115MOL0     C15059   5.850   7.930   8.034  0.1898 -0.6733 -0.3910
  115MOL0     C15060   5.693   7.933   8.038 -0.6844 -0.5296 -0.0662
  115MOL0     C15061   5.626   7.834   7.942 -0.0309  0.2648 -0.2204
  115MOL0     C15062   5.472   7.827   7.974  0.4923  0.6887 -0.2458
  115MOL0     C15063   5.424   7.691   7.919 -0.3369  0.1707 -0.0909
  115MOL0     C15064   5.270   7.664   7.928 -0.2208  0.4987 -0.7880
  115MOL0     N15065   5.253   7.537   7.852 -0.9236  0.0145 -0.1093
  115MOL0     C15066   5.208   7.413   7.898 -1.3228 -0.0288 -0.2080
  115MOL0     C15067   5.178   7.335   7.787 -0.5811  0.7439  0.2505
  115MOL0     C15068   5.118   7.195   7.782 -0.1104 -0.0602 -0.3195
  115MOL0     C15069   4.966   7.189   7.786 -0.1326 -0.2016 -0.2289
  115MOL0     C15070   4.898   7.268   7.680 -0.5138  0.1781 -0.4881
  115MOL0     C15071   4.742   7.240   7.669 -0.1305  0.2953 -0.7629
  115MOL0     O15072   4.714   7.104   7.696 -0.0647 -0.3290 -0.5776
  115MOL0     C15073   4.619   7.035   7.623  0.3249 -0.4398 -0.1919
  115MOL0     C15074   4.628   6.896   7.596  0.0281 -0.1541 -0.3682
  115MOL0     C15075   4.515   6.822   7.549 -0.4917 -0.4626  0.5168
  115MOL0     C15076   4.390   6.884   7.531  0.5123 -0.2073  1.0637
  115MOL0     C15077   4.266   6.819   7.480 -0.4855 -0.3346 -0.8089
  115MOL0     O15078   4.183   6.889   7.399  0.1344  0.1369  0.6223
  115MOL0     C15079   4.071   6.816   7.369  0.7481 -0.0363  0.5947
  115MOL0     C15080   3.950   6.845   7.436  0.1541 -0.2060 -0.7712
  115MOL0     C15081   3.832   6.774   7.406  0.4810  0.2670  0.0798
  115MOL0     C15082   3.829   6.667   7.323  0.3088 -0.3865  0.6227
  115MOL0     O15083   3.720   6.585   7.311 -0.7492 -0.4633 -0.0198
  115MOL0     C15084   3.601   6.605   7.383 -0.6506  0.0017 -0.3089
  115MOL0     C15085   3.518   6.478   7.356  0.0807  0.0120 -0.1121
  115MOL0     C15086   3.388   6.489   7.446 -1.0975 -0.2253  0.3934
  115MOL0     C15087   3.299   6.363   7.420 -0.4338  0.8944 -0.5860
  115MOL0     C15088   3.178   6.356   7.510 -0.1618  0.3354 -0.0297
  115MOL0     C15089   3.124   6.215   7.505  0.1287  0.6101 -0.2531
  115MOL0     C15090   3.076   6.177   7.365  0.2416 -0.1623 -0.0185
  115MOL0     C15091   2.973   6.061   7.368  0.1174 -0.7213  0.4935
  115MOL0    Cl15092   2.931   6.028   7.198  0.0749 -0.0509 -0.0702
  115MOL0     C15093   3.939   6.644   7.238 -0.3285 -0.8428 -0.2901
  115MOL0     C15094   4.063   6.710   7.263 -0.6237  0.1374  0.2634
  115MOL0     O15095   4.260   6.703   7.511  0.3327 -0.6847 -0.4624
  115MOL0     C15096   4.379   7.024   7.542 -0.4011  0.7075 -0.7975
  115MOL0     C15097   4.494   7.099   7.590  0.0832  0.4113  0.5152
  115MOL0     N15098   5.192   7.413   7.672 -0.3995  0.6775  0.1703
  115MOL0     N15099   5.230   7.535   7.710 -0.0519  0.8709  0.1340
  115MOL0     C15100   6.203   8.163   8.278  0.4901 -1.1432 -0.4274
  115MOL0     C15101   6.314   8.233   8.329  0.8341 -0.2426  0.7280
  115MOL0     C15102   6.742   8.287   8.473  0.1008  0.0976  0.6066
  115MOL0     C15103   6.857   8.291   8.392  0.3469  0.0034 -0.3911
  115MOL0     C15104   6.979   8.329   8.446 -0.1357 -0.1992 -0.0918
  115MOL0     C15105   6.986   8.388   8.574 -0.2246 -0.5306  0.1690
  115MOL0     O15106   7.105   8.447   8.608  0.0130 -0.6947 -0.7760
  115MOL0     C15107   7.133   8.455   8.751  0.1515 -0.5466 -0.1135
  115MOL0     C15108   7.267   8.525   8.762 -1.0277 -0.1226 -0.2769
  115MOL0     C15109   7.252   8.660   8.747  0.4978 -0.3710 -0.8982
  115MOL0     C15110   7.376   8.735   8.765 -0.3298 -0.4976 -0.0415
  115MOL0     C15111   7.355   8.874   8.781 -0.8179 -0.1540  0.0819
  115MOL0     C15112   7.339   8.995   8.788  0.9083  0.7633 -0.1144
  115MOL0     C15113   6.870   8.390   8.654 -0.0219 -0.4588 -0.1564
  115MOL0     C15114   6.755   8.336   8.604  0.2902 -0.0032  0.6412
  115MOL0     H15115   6.397   8.042   8.596 -0.1075 -1.4424 -0.8466
  115MOL0     H15116   6.197   7.908   8.490  1.9595 -1.1510  0.4701
  115MOL0     H15117   5.955   8.161   8.277 -3.1384  0.6445 -0.7335
  115MOL0     H15118   5.842   8.041   8.299  1.0219 -0.3176  3.8158
  115MOL0     H15119   6.015   8.074   8.045 -1.4308  0.1482 -3.3100
  115MOL0     H15120   5.863   8.150   8.064 -0.1489 -0.4787 -0.6501
  115MOL0     H15121   5.883   7.843   8.091  0.6085  0.6311  1.4596
  115MOL0     H15122   5.878   7.922   7.928 -2.1188  0.2046 -1.1421
  115MOL0     H15123   5.645   7.916   8.135  1.0911  1.0545  1.1562
  115MOL0     H15124   5.668   8.036   8.011 -0.2432 -0.1103  1.1012
  115MOL0     H15125   5.664   7.735   7.969  1.8766  1.0808  0.2184
  115MOL0     H15126   5.653   7.859   7.839  1.3060  4.7383  1.0169
  115MOL0     H15127   5.407   7.904   7.932 -1.1266 -1.6603 -2.3530
  115MOL0     H15128   5.452   7.837   8.081  3.3662 -0.0832  0.4321
  115MOL0     H15129   5.455   7.697   7.814 -1.1483  3.3625 -0.2540
  115MOL0     H15130   5.481   7.608   7.964  1.2984  2.6123  2.7181
  115MOL0     H15131   5.211   7.747   7.888  3.8307  3.8096 -0.5895
  115MOL0     H15132   5.235   7.638   8.028  1.6623  0.2083 -0.1530
  115MOL0     H15133   5.207   7.376   8.000  0.8036 -0.3041 -0.2388
  115MOL0     H15134   5.156   7.136   7.866  0.1993  2.8950  1.7704
  115MOL0     H15135   5.155   7.146   7.691  0.8177  1.2777 -0.7001
  115MOL0     H15136   4.927   7.218   7.884 -0.7455 -0.1588 -0.4772
  115MOL0     H15137   4.936   7.084   7.778 -1.3513  0.0845  0.4296
  115MOL0     H15138   4.908   7.376   7.671 -2.0699  0.3800 -0.1702
  115MOL0     H15139   4.937   7.218   7.591  0.0545  1.0376 -0.7318
  115MOL0     H15140   4.697   7.275   7.576 -1.6912  0.6074  0.0747
  115MOL0     H15141   4.692   7.302   7.744 -1.2081 -0.5881 -0.7201
  115MOL0     H15142   4.715   6.843   7.634  2.4535  3.9672  0.4235
  115MOL0     H15143   4.549   6.720   7.534  1.2851  0.2400 -0.5882
  115MOL0     H15144   3.950   6.919   7.515 -0.5552 -1.3771  0.3441
  115MOL0     H15145   3.749   6.803   7.470  2.5456 -0.1554  3.1504
  115MOL0     H15146   3.548   6.691   7.341 -0.9411  0.3480  0.7516
  115MOL0     H15147   3.627   6.618   7.488  0.8813 -1.5385 -0.4571
  115MOL0     H15148   3.579   6.390   7.379 -0.3018  0.5287  3.4421
  115MOL0     H15149   3.490   6.487   7.251  3.5689  4.5732 -0.9896
  115MOL0     H15150   3.338   6.584   7.424 -2.3324 -0.9495 -0.0441
  115MOL0     H15151   3.412   6.492   7.552  0.6256 -0.0935  0.0361
  115MOL0     H15152   3.269   6.355   7.315 -3.3988 -2.3253  0.3517
  115MOL0     H15153   3.362   6.274   7.428 -0.3999  0.9651 -0.0559
  115MOL0     H15154   3.111   6.438   7.483  0.7880  1.2960  0.4876
  115MOL0     H15155   3.210   6.379   7.611  3.2431 -1.5188 -0.5435
  115MOL0     H15156   3.037   6.213   7.572  1.3060  1.7632  1.4102
  115MOL0     H15157   3.203   6.150   7.545 -1.2045 -0.2372  1.1223
  115MOL0     H15158   3.027   6.263   7.320  0.4583  2.0105  3.5202
  115MOL0     H15159   3.164   6.149   7.305 -0.1956 -0.2348 -0.6379
  115MOL0     H15160   2.891   6.104   7.426  1.5091 -0.0517  2.0627
  115MOL0     H15161   3.011   5.973   7.421  0.6789  0.7832  2.7359
  115MOL0     H15162   3.930   6.563   7.165  1.6867 -0.8106 -0.6462
  115MOL0     H15163   4.154   6.679   7.213 -1.6739 -0.5358 -1.2980
  115MOL0     H15164   4.284   7.074   7.524 -0.0602  1.3891 -0.7336
  115MOL0     H15165   4.489   7.203   7.619  2.4598  0.5046  0.8355
  115MOL0     H15166   6.168   8.201   8.183  2.2296  0.8242 -0.3475
  115MOL0     H15167   6.338   8.320   8.268  0.3104  1.0969  2.3627
  115MOL0     H15168   6.854   8.247   8.293  3.6881  1.3287 -1.2204
  115MOL0     H15169   7.065   8.329   8.379  1.2996 -0.8940  1.6544
  115MOL0     H15170   7.135   8.355   8.794  2.3624 -0.7147 -0.4828
  115MOL0     H15171   7.057   8.502   8.814  1.9316 -0.2180  1.9033
  115MOL0     H15172   7.295   8.497   8.864 -1.8792  0.6016  0.1599
  115MOL0     H15173   7.340   8.490   8.687  0.2462  2.8374 -0.5583
  115MOL0     H15174   7.176   8.698   8.816  1.6291  0.5636 -0.1166
  115MOL0     H15175   7.214   8.677   8.646  0.4706  0.1063 -0.8126
  115MOL0     H15176   7.429   8.703   8.855  0.4914  1.8249  0.3837
  115MOL0     H15177   7.437   8.720   8.676  1.6255  3.4733  0.4077
  115MOL0     H15178   7.325   9.101   8.796 -3.0356  0.3420  0.6752
  115MOL0     H15179   6.870   8.420   8.759 -0.3896 -2.4641  0.4673
  115MOL0     H15180   6.670   8.347   8.671 -0.0116  2.8445 -0.0705
  116MOL0     O15181   2.065   5.701   0.280 -0.4191 -0.3463  0.0805
  116MOL0     C15182   2.142   5.797   0.277 -0.0206 -0.3225  0.3976
  116MOL0     O15183   2.107   5.929   0.251 -0.1818 -0.4152  0.3867
  116MOL0     C15184   1.992   5.948   0.187 -0.3764 -0.2218  0.1449
  116MOL0     C15185   1.882   5.997   0.253  0.0610 -0.4697  0.1887
  116MOL0     C15186   1.756   5.998   0.187  0.6263 -0.6287 -0.0966
  116MOL0     C15187   1.751   5.989   0.051 -0.4368 -0.2953 -0.0931
  116MOL0     O15188   1.626   6.002  -0.017 -0.8103 -0.3926  0.3852
  116MOL0     C15189   1.523   6.087   0.037  0.1974 -0.1661  0.2370
  116MOL0     C15190   1.426   6.157  -0.070  0.8047  0.6682 -0.1554
  116MOL0     C15191   1.296   6.070  -0.082  0.5825 -0.5213  0.3189
  116MOL0     C15192   1.177   6.159  -0.121  0.2599  0.1402  0.1888
  116MOL0     C15193   1.189   6.216  -0.264 -0.0272  0.2709 -0.1039
  116MOL0     C15194   1.092   6.330  -0.279 -0.1929 -0.8787  0.0621
  116MOL0     C15195   0.948   6.295  -0.240 -0.0567  0.0980 -0.1574
  116MOL0     C15196   0.846   6.401  -0.269 -0.5979 -0.3554 -0.0726
  116MOL0     N15197   0.794   6.427  -0.404  0.1184  0.1822 -0.6626
  116MOL0     C15198   0.847   6.392  -0.526 -1.3375  0.1877  0.6395
  116MOL0     C15199   0.743   6.404  -0.615 -0.6887  0.1267  0.5168
  116MOL0     C15200   0.751   6.387  -0.755  0.4587  0.6068  0.2079
  116MOL0     C15201   0.642   6.298  -0.809 -0.4419  1.1291 -0.2240
  116MOL0     C15202   0.665   6.260  -0.958 -0.7474 -0.9368 -0.4786
  116MOL0     C15203   0.540   6.179  -0.989 -1.2242 -0.0111  0.4112
  116MOL0     O15204   0.506   6.238  -1.121 -0.4030  0.4582 -0.1038
  116MOL0     C15205   0.382   6.210  -1.173 -0.2840 -1.1796  0.5423
  116MOL0     C15206   0.310   6.095  -1.135  0.3591  0.0473 -0.6380
  116MOL0     C15207   0.170   6.084  -1.173 -0.4963  0.4871  0.9082
  116MOL0     C15208   0.110   6.181  -1.263 -1.2420 -0.5384  0.9601
  116MOL0     C15209  -0.028   6.167  -1.303  0.0269 -0.5611  0.0505
  116MOL0     O15210  -0.102   6.062  -1.256  0.0769 -0.3395 -0.7239
  116MOL0     C15211  -0.229   6.045  -1.299  0.4841 -0.3191  0.9442
  116MOL0     C15212  -0.296   6.093  -1.421 -0.5671 -0.0910  0.1271
  116MOL0     C15213  -0.427   6.076  -1.439 -0.4806 -0.6819  0.6510
  116MOL0     C15214  -0.506   6.001  -1.361  0.0511  0.2906  0.1708
  116MOL0     O15215  -0.641   5.989  -1.397 -0.2763  0.3849  0.3776
  116MOL0     C15216  -0.729   5.910  -1.323  0.8863  0.3666 -0.4768
  116MOL0     C15217  -0.875   5.932  -1.364  0.4913  0.1673 -0.3391
  116MOL0     C15218  -0.966   5.867  -1.263 -1.1521  0.7133  0.4619
  116MOL0     C15219  -1.102   5.859  -1.321 -0.2610 -0.1602 -0.0499
  116MOL0     C15220  -1.171   5.999  -1.321 -0.1842  0.1941  0.0862
  116MOL0     C15221  -1.322   6.000  -1.283 -0.1331  0.0952  0.4884
  116MOL0     C15222  -1.394   6.140  -1.293 -0.5222 -0.1095 -0.2042
  116MOL0     C15223  -1.391   6.204  -1.442  0.5161  0.3397  1.1862
  116MOL0    Cl15224  -1.459   6.093  -1.571  0.0937 -0.1780  0.4631
  116MOL0     C15225  -0.447   5.948  -1.249  0.5199 -0.1914 -0.4593
  116MOL0     C15226  -0.313   5.965  -1.215 -0.7296  0.0110  0.7389
  116MOL0     O15227  -0.066   6.264  -1.388  0.3319  0.5695  0.0530
  116MOL0     C15228   0.189   6.297  -1.301  0.0387 -0.0132 -0.6729
  116MOL0     C15229   0.327   6.305  -1.263  0.8914  0.0255  0.0680
  116MOL0     N15230   0.638   6.447  -0.542  0.9001 -0.4629 -0.1774
  116MOL0     N15231   0.668   6.473  -0.421  0.5392 -0.3423 -0.5821
  116MOL0     C15232   1.866   5.943  -0.023 -0.1453 -0.6267  0.0921
  116MOL0     C15233   1.983   5.929   0.048 -0.4362 -0.0938  0.2954
  116MOL0     C15234   2.284   5.765   0.310 -0.6542 -0.2242 -0.0195
  116MOL0     C15235   2.319   5.631   0.337  1.4080  0.0470 -0.1371
  116MOL0     C15236   2.456   5.597   0.353 -0.1283 -0.1438  0.5867
  116MOL0     C15237   2.556   5.699   0.348 -0.4274  0.2282  0.1424
  116MOL0     O15238   2.683   5.670   0.385 -0.4348 -0.7878  0.4650
  116MOL0     C15239   2.798   5.700   0.295  0.0392 -1.0708 -0.2166
  116MOL0     C15240   2.826   5.580   0.197 -0.0287 -0.4883  0.1010
  116MOL0     C15241   2.963   5.598   0.136  0.4776  0.3345 -0.5397
  116MOL0     C15242   3.000   5.481   0.044 -0.1758  0.6002 -1.1256
  116MOL0     C15243   3.134   5.428   0.074 -0.4254  0.4519  0.3305
  116MOL0     C15244   3.245   5.378   0.094 -0.2645 -0.1096  0.7937
  116MOL0     C15245   2.515   5.830   0.334 -0.0941 -0.5930  0.1366
  116MOL0     C15246   2.380   5.865   0.314 -0.2982  0.0672 -0.1211
  116MOL0     H15247   1.886   6.029   0.357  0.5641  1.4184 -0.3743
  116MOL0     H15248   1.672   6.037   0.243  0.1637  0.2003 -1.3131
  116MOL0     H15249   1.581   6.162   0.090  5.2301 -1.4437 -2.7477
  116MOL0     H15250   1.458   6.032   0.107  0.1309  0.0282  0.3276
  116MOL0     H15251   1.476   6.167  -0.167  0.2972  1.5910 -0.3343
  116MOL0     H15252   1.399   6.260  -0.043  2.4938  1.7860 -2.4276
  116MOL0     H15253   1.263   6.020   0.009  1.9262 -2.1766 -0.0755
  116MOL0     H15254   1.317   5.996  -0.160 -0.8223 -0.0273 -0.5875
  116MOL0     H15255   1.092   6.092  -0.105 -0.6018  1.6245  2.2947
  116MOL0     H15256   1.168   6.235  -0.043 -1.7743  1.5488 -1.2842
  116MOL0     H15257   1.173   6.144  -0.344 -2.2448  3.4057 -2.7521
  116MOL0     H15258   1.289   6.256  -0.281  0.2835  0.3855  1.7338
  116MOL0     H15259   1.089   6.360  -0.384 -0.7960 -0.3568  0.2226
  116MOL0     H15260   1.129   6.408  -0.212 -0.6253 -1.5223  1.0729
  116MOL0     H15261   0.914   6.199  -0.279  0.5671 -0.8618  1.5354
  116MOL0     H15262   0.942   6.294  -0.131 -0.3336 -2.6746 -0.1439
  116MOL0     H15263   0.884   6.500  -0.241 -1.0919 -0.2758  0.3273
  116MOL0     H15264   0.760   6.376  -0.206  0.1727 -0.9518  0.7577
  116MOL0     H15265   0.947   6.354  -0.546 -1.1581  0.0082  1.7816
  116MOL0     H15266   0.852   6.348  -0.769  0.4818  1.1167 -1.1729
  116MOL0     H15267   0.742   6.484  -0.804  0.6330 -0.1826 -1.4390
  116MOL0     H15268   0.544   6.342  -0.792 -0.6487  0.4678  0.3293
  116MOL0     H15269   0.647   6.203  -0.754  1.3251  1.9303  1.1029
  116MOL0     H15270   0.672   6.346  -1.024  2.3897 -1.2632 -0.7134
  116MOL0     H15271   0.759   6.206  -0.969  0.2566  0.6318  0.1152
  116MOL0     H15272   0.460   6.190  -0.914 -0.0041 -0.1907  1.7862
  116MOL0     H15273   0.561   6.072  -0.988 -2.6540 -0.3120  0.2242
  116MOL0     H15274   0.354   6.012  -1.081 -0.4405 -0.2646 -0.4426
  116MOL0     H15275   0.116   5.995  -1.143 -1.8062  0.4508 -1.2913
  116MOL0     H15276  -0.239   6.145  -1.497 -2.1706  0.8608 -0.4657
  116MOL0     H15277  -0.469   6.121  -1.528  2.3565 -0.6443 -0.7846
  116MOL0     H15278  -0.721   5.926  -1.215  2.8793 -2.9059  0.0242
  116MOL0     H15279  -0.698   5.805  -1.326  1.8539  0.5957  0.6529
  116MOL0     H15280  -0.882   5.891  -1.465  1.0088  2.1679 -1.2523
  116MOL0     H15281  -0.900   6.038  -1.373 -1.9894 -0.3499 -0.0381
  116MOL0     H15282  -0.963   5.917  -1.166 -4.1342  1.4702  0.2705
  116MOL0     H15283  -0.925   5.767  -1.244 -0.2490  1.4805  2.8942
  116MOL0     H15284  -1.106   5.809  -1.418  0.9886 -1.7024  0.6470
  116MOL0     H15285  -1.151   5.793  -1.248  1.3889 -0.5415  0.7458
  116MOL0     H15286  -1.155   6.046  -1.418  1.4044  0.9026  0.6609
  116MOL0     H15287  -1.132   6.068  -1.246 -1.9307  0.2435  1.0041
  116MOL0     H15288  -1.334   5.962  -1.181  0.1852  0.3102  0.6064
  116MOL0     H15289  -1.371   5.927  -1.348  1.3709 -1.0205  0.5369
  116MOL0     H15290  -1.499   6.137  -1.260  0.4247 -0.0552  3.1079
  116MOL0     H15291  -1.349   6.207  -1.220 -3.7492  2.3610 -0.2650
  116MOL0     H15292  -1.286   6.227  -1.463  0.4765  1.6997  2.3186
  116MOL0     H15293  -1.445   6.299  -1.437  1.5822  0.9558  1.2750
  116MOL0     H15294  -0.517   5.903  -1.178  1.2203  1.0735  1.0896
  116MOL0     H15295  -0.277   5.938  -1.116  0.5045  1.0795  0.6130
  116MOL0     H15296   0.151   6.383  -1.355  2.6289 -0.4908 -3.4879
  116MOL0     H15297   0.378   6.394  -1.299 -2.1434  0.1090 -5.0078
  116MOL0     H15298   1.856   5.938  -0.131  0.5839  3.4782 -0.3208
  116MOL0     H15299   2.070   5.914  -0.015  0.4815  0.5077  1.3864
  116MOL0     H15300   2.239   5.558   0.340 -1.2788  2.7624  2.8071
  116MOL0     H15301   2.471   5.490   0.362  1.6395  0.0689  0.5244
  116MOL0     H15302   2.884   5.712   0.361  1.3939 -0.0614 -2.0701
  116MOL0     H15303   2.783   5.792   0.237  1.1039  0.3232  1.6038
  116MOL0     H15304   2.813   5.496   0.266 -0.8780  1.8973  3.0552
  116MOL0     H15305   2.755   5.578   0.114  0.4535 -0.5834 -0.3074
  116MOL0     H15306   3.034   5.625   0.215  0.1403 -2.7677  0.9584
  116MOL0     H15307   2.960   5.684   0.068  0.0335  0.5062 -0.3031
  116MOL0     H15308   2.931   5.398   0.060  0.6730  0.4399  2.9836
  116MOL0     H15309   2.994   5.519  -0.058 -1.0573  0.6247 -1.0719
  116MOL0     H15310   3.338   5.330   0.118 -1.0489 -1.7715  0.6432
  116MOL0     H15311   2.593   5.905   0.337  0.9354 -1.6673  1.1220
  116MOL0     H15312   2.356   5.970   0.303 -1.1953  0.1343  1.9710
  117MOL0     O15313   7.686   8.787   5.224 -0.1343 -0.3105  0.9372
  117MOL0     C15314   7.642   8.855   5.316 -0.2128 -0.0719  0.1650
  117MOL0     O15315   7.503   8.874   5.341 -1.1124  0.2851 -0.0044
  117MOL0     C15316   7.408   8.821   5.260  0.1127  0.6556  0.4424
  117MOL0     C15317   7.410   8.685   5.216 -0.6266 -1.1290 -0.5058
  117MOL0     C15318   7.292   8.631   5.147  0.5317  0.3233  0.1271
  117MOL0     C15319   7.184   8.721   5.124 -0.4416 -0.4479  1.0812
  117MOL0     O15320   7.077   8.689   5.037  0.3306  0.3661 -0.3517
  117MOL0     C15321   6.959   8.661   5.114 -0.1443  1.0718 -0.8109
  117MOL0     C15322   6.852   8.622   5.009 -0.9632  0.2445  0.5734
  117MOL0     C15323   6.714   8.612   5.058  0.6949  0.2174 -0.2601
  117MOL0     C15324   6.684   8.519   5.174 -0.0611  0.1380  0.7045
  117MOL0     C15325   6.535   8.505   5.212 -0.3497  0.2647 -0.7096
  117MOL0     C15326   6.526   8.410   5.332  0.2830  0.1426 -0.2035
  117MOL0     C15327   6.395   8.424   5.411  0.6119 -0.2799  0.3269
  117MOL0     C15328   6.398   8.321   5.534  0.5412  0.0143 -1.3823
  117MOL0     N15329   6.269   8.335   5.606  0.2723 -0.0368 -0.0029
  117MOL0     C15330   6.249   8.418   5.722 -0.4554  0.5292 -0.6417
  117MOL0     C15331   6.130   8.367   5.775  0.4608 -0.1351  0.2065
  117MOL0     C15332   6.072   8.420   5.907  0.1012 -0.2142  0.4890
  117MOL0     C15333   6.131   8.559   5.952 -0.8601  0.3861 -0.4451
  117MOL0     C15334   6.083   8.595   6.095 -0.3362 -1.1532  0.3405
  117MOL0     C15335   5.934   8.619   6.100 -0.1371 -0.7022 -0.2026
  117MOL0     O15336   5.861   8.496   6.129 -0.3193 -0.7922 -0.1450
  117MOL0     C15337   5.728   8.497   6.119 -0.3539  0.3066 -0.6488
  117MOL0     C15338   5.651   8.612   6.118 -0.3331  0.4566 -0.0544
  117MOL0     C15339   5.511   8.602   6.106  0.6328  0.0408 -0.2893
  117MOL0     C15340   5.449   8.476   6.130  0.4174 -0.0612  0.3119
  117MOL0     C15341   5.303   8.479   6.140  0.4109  1.0135  0.4692
  117MOL0     O15342   5.224   8.578   6.091  0.3607  0.2867 -1.1084
  117MOL0     C15343   5.087   8.552   6.075  0.6516  0.3159  0.1375
  117MOL0     C15344   5.034   8.439   5.996  0.5826  0.0100  0.3337
  117MOL0     C15345   4.895   8.430   5.972  0.2089  0.0059  0.1705
  117MOL0     C15346   4.810   8.528   6.017 -0.9940 -0.3453  0.6079
  117MOL0     O15347   4.672   8.518   6.021 -1.0073 -0.2109 -0.2087
  117MOL0     C15348   4.612   8.440   5.922  0.4654  0.2189 -0.6206
  117MOL0     C15349   4.473   8.511   5.905  0.7739 -0.2503 -0.6016
  117MOL0     C15350   4.371   8.472   6.018 -0.2084 -0.1778 -0.6340
  117MOL0     C15351   4.246   8.558   6.031 -0.3611  0.5563  0.2370
  117MOL0     C15352   4.278   8.688   6.107  0.8514  0.3868  0.8296
  117MOL0     C15353   4.145   8.738   6.152  0.4918 -0.6427 -0.2976
  117MOL0     C15354   4.069   8.673   6.271 -0.4869 -0.5122  0.3763
  117MOL0     C15355   3.941   8.734   6.316 -0.4107  0.1658  0.4282
  117MOL0    Cl15356   3.832   8.702   6.182 -0.0036  0.0513  0.2881
  117MOL0     C15357   4.853   8.638   6.060  0.3974  0.2253  0.2380
  117MOL0     C15358   4.991   8.651   6.095 -0.5659  0.5511  1.1834
  117MOL0     O15359   5.255   8.376   6.200  0.2140 -0.2024 -0.2390
  117MOL0     C15360   5.529   8.364   6.141 -0.4867 -0.0925  0.3720
  117MOL0     C15361   5.670   8.376   6.129 -0.3586  0.1203  0.2262
  117MOL0     N15362   6.088   8.263   5.696  0.2804  0.1771  0.0562
  117MOL0     N15363   6.174   8.236   5.605  0.5105  0.0434 -0.9231
  117MOL0     C15364   7.192   8.850   5.169  0.0726 -0.3113 -0.0359
  117MOL0     C15365   7.302   8.901   5.233  0.1430 -0.2346  1.0024
  117MOL0     C15366   7.730   8.925   5.410 -0.9362 -0.1450 -0.1878
  117MOL0     C15367   7.867   8.900   5.402 -0.2707 -0.0714 -1.0025
  117MOL0     C15368   7.951   8.938   5.498  0.1324 -0.4136 -0.7793
  117MOL0     C15369   7.918   9.018   5.603 -0.2449  0.4543  0.1444
  117MOL0     O15370   8.018   9.061   5.692 -0.5287 -0.9192  0.1781
  117MOL0     C15371   8.011   9.196   5.739 -0.4105  0.7152  0.0896
  117MOL0     C15372   8.134   9.254   5.811 -0.9030  0.7330 -1.0996
  117MOL0     C15373   8.169   9.173   5.927  0.0683 -0.0664 -0.0501
  117MOL0     C15374   8.063   9.194   6.036 -0.3793  0.2554  0.6369
  117MOL0     C15375   8.111   9.129   6.152 -0.2266  0.1383 -0.1728
  117MOL0     C15376   8.172   9.072   6.245  0.2572  0.1588  0.3101
  117MOL0     C15377   7.779   9.057   5.605 -0.2305  0.2594 -0.4245
  117MOL0     C15378   7.683   9.004   5.519 -0.0018 -0.2799  1.0984
  117MOL0     H15379   7.496   8.623   5.238 -0.1722 -0.7811 -1.2586
  117MOL0     H15380   7.278   8.528   5.115 -1.3068  0.6444 -0.2232
  117MOL0     H15381   6.927   8.750   5.169 -0.4710 -1.1969  3.0260
  117MOL0     H15382   6.974   8.576   5.182 -1.3110 -1.5115 -3.5226
  117MOL0     H15383   6.880   8.526   4.966 -2.3772  0.9630 -2.1620
  117MOL0     H15384   6.863   8.696   4.929  3.7153 -0.6480  0.1053
  117MOL0     H15385   6.654   8.580   4.972  1.5890  1.7892 -1.5197
  117MOL0     H15386   6.674   8.711   5.083  1.0019 -0.4313  3.3995
  117MOL0     H15387   6.714   8.417   5.149  0.5135  0.0501  1.6986
  117MOL0     H15388   6.746   8.539   5.262  0.1899 -3.0854  1.3688
  117MOL0     H15389   6.461   8.480   5.135 -0.0649  1.2763 -1.3311
  117MOL0     H15390   6.512   8.608   5.242  0.4692 -0.0440  1.1543
  117MOL0     H15391   6.607   8.430   5.402  0.3815  0.7514 -0.4821
  117MOL0     H15392   6.545   8.308   5.298 -0.6564 -0.6567  1.5308
  117MOL0     H15393   6.389   8.526   5.449 -1.9379 -0.9035  1.7922
  117MOL0     H15394   6.305   8.410   5.351 -1.0640  0.2027  2.5958
  117MOL0     H15395   6.481   8.341   5.603 -0.2118 -0.6009 -0.2680
  117MOL0     H15396   6.398   8.216   5.505 -2.7058 -0.8709  1.1968
  117MOL0     H15397   6.318   8.486   5.770  0.5793 -0.4759 -0.6470
  117MOL0     H15398   6.104   8.352   5.986  2.6258 -0.7730 -0.9142
  117MOL0     H15399   5.964   8.435   5.901  0.3590  1.5894 -0.2775
  117MOL0     H15400   6.101   8.633   5.877 -0.5894 -0.4980 -1.4394
  117MOL0     H15401   6.241   8.555   5.955 -0.8183  0.5848 -1.4639
  117MOL0     H15402   6.118   8.517   6.163  0.7290  0.7092  2.0475
  117MOL0     H15403   6.139   8.685   6.121 -1.1742 -0.1058 -1.2857
  117MOL0     H15404   5.909   8.676   6.010  1.3977  0.5430  0.1151
  117MOL0     H15405   5.911   8.686   6.183 -1.3751 -1.3886  0.0379
  117MOL0     H15406   5.703   8.707   6.109  2.0253 -0.5428  1.9983
  117MOL0     H15407   5.460   8.698   6.108 -1.8548 -1.1439  3.1446
  117MOL0     H15408   5.105   8.375   5.944 -1.5630 -0.0046 -2.8589
  117MOL0     H15409   4.859   8.352   5.906  3.1514 -0.6455 -0.7931
  117MOL0     H15410   4.590   8.334   5.933 -1.6184  0.4220 -2.1571
  117MOL0     H15411   4.665   8.462   5.829  1.8547  1.2020  0.3667
  117MOL0     H15412   4.434   8.482   5.806  0.4153  1.5226 -1.0102
  117MOL0     H15413   4.488   8.619   5.909 -0.0749 -0.1552  0.6376
  117MOL0     H15414   4.423   8.473   6.114 -1.8425 -0.1816  0.2847
  117MOL0     H15415   4.335   8.370   5.999  2.4521 -0.9611 -1.8811
  117MOL0     H15416   4.194   8.580   5.937 -2.2536 -1.0123  0.8485
  117MOL0     H15417   4.173   8.508   6.094 -1.3664  1.2545 -0.3432
  117MOL0     H15418   4.321   8.765   6.043 -1.1112 -0.3398 -1.4905
  117MOL0     H15419   4.343   8.671   6.194  1.4077  0.3116  0.4062
  117MOL0     H15420   4.076   8.730   6.067 -0.7022  0.2329  0.5615
  117MOL0     H15421   4.155   8.843   6.180 -3.9308 -0.7244  2.5571
  117MOL0     H15422   4.044   8.568   6.257  0.9201 -0.9296  0.7884
  117MOL0     H15423   4.142   8.671   6.353 -0.4623 -3.6694  0.4029
  117MOL0     H15424   3.960   8.838   6.345 -1.6119  0.8402 -1.0687
  117MOL0     H15425   3.895   8.685   6.403  0.0402 -0.7311  0.1695
  117MOL0     H15426   4.781   8.719   6.070 -0.3010 -0.1117 -1.7275
  117MOL0     H15427   5.027   8.741   6.144 -2.1540  0.7909  1.9406
  117MOL0     H15428   5.487   8.264   6.153  3.0066 -1.4439  2.9450
  117MOL0     H15429   5.738   8.292   6.134 -0.1222  0.3451  0.9347
  117MOL0     H15430   7.109   8.914   5.142 -0.3527 -0.9210 -0.1905
  117MOL0     H15431   7.293   9.003   5.270  0.9350  0.9097 -1.6690
  117MOL0     H15432   7.913   8.831   5.333  0.8152  0.9082 -1.2984
  117MOL0     H15433   8.051   8.902   5.477  0.1935 -0.5833 -0.2193
  117MOL0     H15434   7.923   9.194   5.804  0.3085 -2.3938  1.1783
  117MOL0     H15435   7.991   9.269   5.660  0.8250  1.5313  0.5068
  117MOL0     H15436   8.227   9.247   5.755  0.8858  1.4169  1.6192
  117MOL0     H15437   8.108   9.354   5.847  0.0271  0.6417 -0.1600
  117MOL0     H15438   8.271   9.201   5.953 -0.1816 -1.2602  2.5929
  117MOL0     H15439   8.172   9.067   5.901 -1.3036 -0.6088  1.7501
  117MOL0     H15440   8.050   9.301   6.057 -0.6067  0.3597 -0.0179
  117MOL0     H15441   7.966   9.148   6.017  0.4441 -0.4291 -2.4322
  117MOL0     H15442   8.214   9.032   6.335 -1.5576 -0.6161  0.8374
  117MOL0     H15443   7.734   9.124   5.678 -1.9397 -1.9983  0.7354
  117MOL0     H15444   7.576   9.022   5.522 -0.1026 -0.7337  0.4574
  118MOL0     O15445  10.665   4.099   7.148 -0.1988  0.1859 -0.5426
  118MOL0     C15446  10.787   4.085   7.155 -0.9881  0.0430 -0.1595
  118MOL0     O15447  10.857   4.015   7.249 -0.0383 -0.0983 -0.5196
  118MOL0     C15448  10.798   3.939   7.351  0.8781 -0.1008  0.7762
  118MOL0     C15449  10.880   3.916   7.463 -0.3321 -0.2367 -0.0149
  118MOL0     C15450  10.851   3.827   7.573 -0.0978 -1.0648 -0.1017
  118MOL0     C15451  10.729   3.759   7.567 -0.5484 -0.3441  0.2291
  118MOL0     O15452  10.696   3.664   7.660 -0.2879 -0.1699  0.9683
  118MOL0     C15453  10.589   3.695   7.740  0.8342  0.5493 -0.2381
  118MOL0     C15454  10.533   3.560   7.803 -0.3882 -0.3533  0.2438
  118MOL0     C15455  10.422   3.578   7.907 -0.6545  0.0476  0.0774
  118MOL0     C15456  10.289   3.635   7.846 -0.2880 -0.2815 -0.7437
  118MOL0     C15457  10.175   3.650   7.953 -0.1293 -0.5021 -0.0324
  118MOL0     C15458  10.050   3.709   7.889 -0.5494 -0.8588  0.0787
  118MOL0     C15459   9.940   3.729   7.988  0.1408 -0.8800  0.4727
  118MOL0     C15460   9.823   3.809   7.934  0.0530  0.0545  0.4696
  118MOL0     N15461   9.702   3.812   8.018  0.2940 -0.0736  0.9443
  118MOL0     C15462   9.629   3.698   8.051 -1.0198  1.3133  0.3781
  118MOL0     C15463   9.526   3.748   8.116 -0.2265 -0.1816  0.8457
  118MOL0     C15464   9.413   3.664   8.169  0.1732  0.0174 -0.8031
  118MOL0     C15465   9.290   3.758   8.196 -0.3906  0.6948 -0.6146
  118MOL0     C15466   9.164   3.689   8.237 -0.7905  0.3137 -0.2048
  118MOL0     C15467   9.048   3.777   8.228  0.1046 -0.5551 -0.0723
  118MOL0     O15468   8.938   3.727   8.298  1.1406  0.0965  0.0236
  118MOL0     C15469   8.815   3.795   8.292  0.9494 -0.1787  0.4092
  118MOL0     C15470   8.698   3.721   8.318  0.4378 -0.7182 -0.1901
  118MOL0     C15471   8.569   3.779   8.300 -0.2535 -0.2004  0.3903
  118MOL0     C15472   8.563   3.911   8.265 -0.2490 -0.5881 -0.0229
  118MOL0     C15473   8.427   3.976   8.256  0.6827  0.1568 -0.1069
  118MOL0     O15474   8.426   4.098   8.196  0.1423 -0.7528  0.3606
  118MOL0     C15475   8.303   4.159   8.180 -0.7704  0.1029  0.1478
  118MOL0     C15476   8.220   4.173   8.285  0.0666  0.3888 -0.2126
  118MOL0     C15477   8.105   4.251   8.266  0.5018  0.4048 -0.4313
  118MOL0     C15478   8.066   4.304   8.142 -0.2362  0.9368  0.6211
  118MOL0     O15479   7.960   4.392   8.133 -0.2246 -0.4588 -0.9145
  118MOL0     C15480   7.835   4.339   8.174 -0.4377  0.0184 -0.1067
  118MOL0     C15481   7.728   4.434   8.135  0.7717 -1.0012  0.8625
  118MOL0     C15482   7.597   4.370   8.180 -1.1331  0.5687  0.1896
  118MOL0     C15483   7.482   4.473   8.177 -0.5713  0.9599  0.1572
  118MOL0     C15484   7.347   4.411   8.226  0.4165  0.2556  0.5220
  118MOL0     C15485   7.254   4.520   8.288 -0.9261 -0.0699 -0.1240
  118MOL0     C15486   7.141   4.452   8.345  0.4117  0.3933  1.0400
  118MOL0     C15487   7.026   4.545   8.368 -0.2758  0.0529  0.1202
  118MOL0    Cl15488   6.887   4.458   8.438  0.6758 -0.3707  0.2157
  118MOL0     C15489   8.153   4.291   8.040 -0.6391  0.1689 -0.3282
  118MOL0     C15490   8.275   4.220   8.058 -0.5261 -0.2614  0.4927
  118MOL0     O15491   8.335   3.923   8.318  0.0031  0.8275  0.1906
  118MOL0     C15492   8.678   3.981   8.238  0.3353 -0.0007 -0.1362
  118MOL0     C15493   8.807   3.927   8.248  0.5194 -0.0394  0.4439
  118MOL0     N15494   9.544   3.884   8.131 -0.3402 -0.3772 -0.3889
  118MOL0     N15495   9.660   3.924   8.082  0.0992  0.8191  0.4636
  118MOL0     C15496  10.639   3.784   7.466 -0.2991 -0.1047  0.5836
  118MOL0     C15497  10.671   3.874   7.363 -0.4151  0.7708 -0.7424
  118MOL0     C15498  10.854   4.176   7.052 -0.9483  0.2738  0.7528
  118MOL0     C15499  10.776   4.221   6.945 -0.2568  0.1914  0.7732
  118MOL0     C15500  10.822   4.322   6.864 -0.3547 -0.4726 -0.2305
  118MOL0     C15501  10.951   4.378   6.874 -0.3498 -0.9892  0.0937
  118MOL0     O15502  11.011   4.482   6.798  0.4808  0.4302  0.2552
  118MOL0     C15503  10.956   4.513   6.669 -0.2122  0.5138 -0.5754
  118MOL0     C15504  11.022   4.640   6.618 -0.5829 -0.3014 -0.2447
  118MOL0     C15505  10.953   4.698   6.490 -0.3885  0.2019 -0.7355
  118MOL0     C15506  11.040   4.790   6.408  0.4933  0.6054  0.7464
  118MOL0     C15507  10.973   4.838   6.292 -0.3430 -0.0936 -0.2407
  118MOL0     C15508  10.927   4.866   6.179  0.9682 -0.1471 -0.9119
  118MOL0     C15509  11.034   4.332   6.973  0.1378 -0.1973  0.0841
  118MOL0     C15510  10.991   4.227   7.056  1.4713  0.3593  0.1573
  118MOL0     H15511  10.977   3.964   7.469  0.3097 -1.4691 -0.1890
  118MOL0     H15512  10.931   3.814   7.646  0.6392  0.6808 -0.5562
  118MOL0     H15513  10.514   3.752   7.684  0.5453 -2.2699 -3.0331
  118MOL0     H15514  10.630   3.758   7.819  1.2433  0.5050 -0.4125
  118MOL0     H15515  10.618   3.498   7.832  0.2041 -1.5322 -3.5364
  118MOL0     H15516  10.493   3.498   7.723  0.2696 -1.7046  0.9272
  118MOL0     H15517  10.461   3.631   7.994 -1.4513 -2.7384  2.3003
  118MOL0     H15518  10.406   3.481   7.956  1.0181 -0.2169  0.1308
  118MOL0     H15519  10.309   3.736   7.809 -0.8635 -0.4781 -1.6352
  118MOL0     H15520  10.250   3.579   7.761 -2.0242  1.4449 -1.1556
  118MOL0     H15521  10.196   3.718   8.035  1.7969 -0.2947 -0.6525
  118MOL0     H15522  10.150   3.555   8.001  0.4561 -0.3971  0.4898
  118MOL0     H15523  10.022   3.653   7.799  1.8295  1.3892 -2.2398
  118MOL0     H15524  10.085   3.804   7.846  0.4211 -0.0233  2.5779
  118MOL0     H15525   9.912   3.630   8.024  2.4630 -1.7250  0.1463
  118MOL0     H15526   9.967   3.777   8.083 -1.5146 -1.6715  1.3951
  118MOL0     H15527   9.794   3.775   7.834 -0.9731 -1.0886  1.1184
  118MOL0     H15528   9.859   3.911   7.926 -1.1972  0.8150  3.3160
  118MOL0     H15529   9.656   3.598   8.018  0.9948  1.9929 -0.2015
  118MOL0     H15530   9.432   3.601   8.257  0.5801  1.5244  0.2217
  118MOL0     H15531   9.384   3.596   8.088  1.1767  0.2166 -1.3505
  118MOL0     H15532   9.267   3.807   8.101 -2.4988 -0.2409 -0.6331
  118MOL0     H15533   9.323   3.831   8.270 -2.0071  0.4973  0.3603
  118MOL0     H15534   9.145   3.600   8.175 -3.0704  1.4791 -1.2820
  118MOL0     H15535   9.176   3.658   8.341  0.2832  0.2482 -0.3403
  118MOL0     H15536   9.014   3.796   8.126 -0.4880  2.7992  0.6425
  118MOL0     H15537   9.075   3.874   8.269 -2.8161  0.7711 -0.9929
  118MOL0     H15538   8.695   3.616   8.346  1.2837 -0.4568  0.9056
  118MOL0     H15539   8.476   3.723   8.315 -0.8758  1.1926  2.0429
  118MOL0     H15540   8.243   4.141   8.386 -1.4243  0.3066  0.1231
  118MOL0     H15541   8.043   4.270   8.353  2.2973 -0.0866  1.0287
  118MOL0     H15542   7.830   4.339   8.284  0.6465 -1.6971 -0.0193
  118MOL0     H15543   7.814   4.244   8.123  1.3105  0.3727 -1.5991
  118MOL0     H15544   7.724   4.461   8.029 -3.3329 -1.2408  0.7773
  118MOL0     H15545   7.745   4.524   8.195  0.2592  0.7303 -1.4256
  118MOL0     H15546   7.612   4.333   8.282  0.9306  0.1958 -0.1998
  118MOL0     H15547   7.569   4.288   8.113  0.2863 -0.5879  0.9419
  118MOL0     H15548   7.511   4.539   8.260  0.8944 -0.4065  0.7868
  118MOL0     H15549   7.481   4.527   8.082 -0.3812  1.0316  0.1952
  118MOL0     H15550   7.370   4.327   8.292  1.5026  0.7890  0.8426
  118MOL0     H15551   7.303   4.372   8.134  0.9561  1.8992 -0.4815
  118MOL0     H15552   7.223   4.594   8.214 -0.1281 -0.2769 -0.6724
  118MOL0     H15553   7.311   4.559   8.374 -0.1865 -2.5693  0.6248
  118MOL0     H15554   7.115   4.378   8.268  3.7855 -0.1815  0.2951
  118MOL0     H15555   7.164   4.392   8.434 -4.3035 -0.7105  1.7909
  118MOL0     H15556   6.987   4.587   8.275  1.0953 -1.0302 -0.9856
  118MOL0     H15557   7.051   4.623   8.440  0.8389 -0.5270  0.3727
  118MOL0     H15558   8.140   4.345   7.946 -1.3562 -1.9692 -1.5427
  118MOL0     H15559   8.353   4.211   7.983  2.7448  0.5445  3.5497
  118MOL0     H15560   8.673   4.084   8.206  1.0671  0.0817  0.0133
  118MOL0     H15561   8.898   3.979   8.217 -0.2236  0.2280 -1.4887
  118MOL0     H15562  10.542   3.736   7.463  0.0925 -0.8625 -0.7858
  118MOL0     H15563  10.599   3.892   7.284 -1.5479 -0.7783 -0.1002
  118MOL0     H15564  10.679   4.182   6.917  0.5540  0.7095 -3.5422
  118MOL0     H15565  10.759   4.381   6.798 -1.2228 -1.1323  0.0029
  118MOL0     H15566  10.847   4.521   6.664 -0.2457  0.4291  0.0013
  118MOL0     H15567  10.977   4.429   6.602  0.2449  2.2688 -2.7459
  118MOL0     H15568  11.026   4.719   6.694  2.0783 -0.3806 -0.2217
  118MOL0     H15569  11.122   4.614   6.582 -1.2822  1.6556 -4.2588
  118MOL0     H15570  10.859   4.739   6.529  0.2483  0.3069  0.7722
  118MOL0     H15571  10.929   4.609   6.431 -1.4925 -1.2358  1.7164
  118MOL0     H15572  11.053   4.878   6.471 -0.4023 -0.1982  2.0824
  118MOL0     H15573  11.135   4.739   6.385  0.4858  1.5616 -1.7731
  118MOL0     H15574  10.892   4.893   6.082  0.1067  1.3161 -0.2235
  118MOL0     H15575  11.134   4.369   6.988 -0.6790  1.7532  1.0633
  118MOL0     H15576  11.047   4.173   7.132 -3.4941 -1.6622  2.8186
  119MOL0     O15577   7.937   6.018   0.311 -1.1225  0.5315 -0.7057
  119MOL0     C15578   8.011   5.923   0.339  0.0035 -0.6391 -0.6042
  119MOL0     O15579   7.979   5.796   0.345 -0.0797  0.9463 -0.4979
  119MOL0     C15580   7.844   5.762   0.348  0.0740 -0.8335  0.0671
  119MOL0     C15581   7.789   5.683   0.250  0.6017 -0.1943 -0.1367
  119MOL0     C15582   7.656   5.651   0.240  0.6733  0.4309  0.2205
  119MOL0     C15583   7.566   5.682   0.342 -0.0492  0.0540  0.5217
  119MOL0     O15584   7.435   5.629   0.347 -0.1172 -0.7240 -0.0598
  119MOL0     C15585   7.412   5.491   0.403 -0.4327 -0.2420  0.1010
  119MOL0     C15586   7.276   5.437   0.367 -0.2859  0.0533 -0.3951
  119MOL0     C15587   7.152   5.486   0.445  0.6748 -0.3365  0.4011
  119MOL0     C15588   7.034   5.385   0.418  0.7969  0.0473  0.6608
  119MOL0     C15589   6.902   5.439   0.470 -0.7855 -0.0569  0.0939
  119MOL0     C15590   6.815   5.332   0.530  0.5105 -0.0219 -0.6655
  119MOL0     C15591   6.687   5.394   0.587 -0.1621  0.2622 -0.1939
  119MOL0     C15592   6.632   5.319   0.712 -0.1428 -0.2298 -0.6732
  119MOL0     N15593   6.586   5.180   0.675 -0.4732 -0.0134 -0.0583
  119MOL0     C15594   6.605   5.070   0.744  0.0620 -0.1838  0.1333
  119MOL0     C15595   6.510   4.981   0.710  0.1651 -0.5984  0.4210
  119MOL0     C15596   6.487   4.845   0.771 -1.0932  0.7264  0.7410
  119MOL0     C15597   6.339   4.839   0.821 -0.4313 -0.0094  0.0057
  119MOL0     C15598   6.302   4.944   0.936  0.9239 -1.2271  0.2359
  119MOL0     C15599   6.165   4.925   0.991 -0.5039 -0.8753  0.0099
  119MOL0     O15600   6.148   4.784   1.017  0.0088 -0.0761 -0.4333
  119MOL0     C15601   6.025   4.750   1.076 -0.3002 -1.0436  0.3075
  119MOL0     C15602   6.010   4.634   1.151 -1.1574  0.3882 -0.4283
  119MOL0     C15603   5.892   4.607   1.223  0.2202  0.3438 -1.1933
  119MOL0     C15604   5.780   4.686   1.204 -0.4298 -0.5161 -0.1337
  119MOL0     C15605   5.657   4.668   1.286  0.1870 -0.3651  0.4743
  119MOL0     O15606   5.572   4.782   1.280 -0.5546 -0.1742 -0.2281
  119MOL0     C15607   5.456   4.778   1.346 -0.6571  0.3778 -0.2004
  119MOL0     C15608   5.342   4.737   1.285 -0.3687  0.3403  0.1548
  119MOL0     C15609   5.235   4.710   1.368  1.5762 -0.4768 -0.1812
  119MOL0     C15610   5.234   4.758   1.497  0.2785  0.3792 -0.1788
  119MOL0     O15611   5.118   4.745   1.564  0.4827 -0.6585 -0.3270
  119MOL0     C15612   5.095   4.820   1.684  0.2069  0.3921  0.3923
  119MOL0     C15613   4.952   4.822   1.732 -0.0613 -0.1716  1.0600
  119MOL0     C15614   4.935   4.909   1.856  0.3775 -0.6892 -0.3494
  119MOL0     C15615   4.792   4.921   1.892 -0.7777 -0.3500  0.4411
  119MOL0     C15616   4.766   5.013   2.012  0.2224  0.6147 -0.0278
  119MOL0     C15617   4.614   5.058   2.025  0.0516  0.1235 -0.6231
  119MOL0     C15618   4.598   5.162   2.133  0.1194 -0.2695  0.1797
  119MOL0     C15619   4.453   5.166   2.172  0.2513 -0.0710 -0.2321
  119MOL0    Cl15620   4.344   5.215   2.029 -0.1951  0.1661 -0.2980
  119MOL0     C15621   5.344   4.819   1.554  0.4115  0.5341  0.1995
  119MOL0     C15622   5.466   4.828   1.475  0.5590  0.3888  0.4517
  119MOL0     O15623   5.646   4.570   1.363 -0.0386 -0.1390 -0.0219
  119MOL0     C15624   5.791   4.793   1.115  0.2200  0.0685  0.6634
  119MOL0     C15625   5.906   4.829   1.056 -0.2945  0.4376 -0.4777
  119MOL0     N15626   6.433   5.037   0.612 -1.0788  0.2031  0.6192
  119MOL0     N15627   6.482   5.157   0.591  0.5063  1.0499 -0.1235
  119MOL0     C15628   7.612   5.765   0.437 -1.2826 -0.7182 -0.2376
  119MOL0     C15629   7.744   5.798   0.441  0.0494 -0.8941 -1.0081
  119MOL0     C15630   8.140   5.970   0.377 -0.2280  0.1041 -1.1575
  119MOL0     C15631   8.175   6.100   0.424  0.5901  1.5764  0.4077
  119MOL0     C15632   8.306   6.139   0.446  0.7034 -0.0597  1.2124
  119MOL0     C15633   8.406   6.050   0.403  0.2940  0.0055  0.1963
  119MOL0     O15634   8.534   6.082   0.430 -0.0291  0.3534 -0.5520
  119MOL0     C15635   8.649   6.001   0.387  0.1454  0.2151  0.0973
  119MOL0     C15636   8.776   6.072   0.419  0.2922 -0.1264  0.2375
  119MOL0     C15637   8.786   6.210   0.351  0.8095 -0.0713  0.1660
  119MOL0     C15638   8.928   6.274   0.378 -0.3657  0.0626  0.5662
  119MOL0     C15639   9.046   6.187   0.347  0.3970 -0.5920 -0.6371
  119MOL0     C15640   9.144   6.140   0.300 -0.6849  0.0649 -0.3397
  119MOL0     C15641   8.377   5.926   0.344  0.8833  0.1645 -0.7082
  119MOL0     C15642   8.245   5.877   0.336  0.6863 -0.3974  0.0738
  119MOL0     H15643   7.845   5.650   0.163 -0.7137  1.3539 -1.6296
  119MOL0     H15644   7.613   5.608   0.150  0.8482  0.6867  0.0126
  119MOL0     H15645   7.409   5.501   0.512  0.3991 -1.0367  0.2068
  119MOL0     H15646   7.486   5.415   0.374 -0.3597  0.0564 -0.4935
  119MOL0     H15647   7.276   5.329   0.383 -2.4882 -0.2642 -2.0849
  119MOL0     H15648   7.261   5.466   0.263  1.1675 -2.0636 -1.2827
  119MOL0     H15649   7.128   5.587   0.411  1.9599 -1.2942 -3.9222
  119MOL0     H15650   7.175   5.494   0.551  3.2530  3.0245 -0.2532
  119MOL0     H15651   7.014   5.357   0.314 -1.0897 -2.1624  1.5186
  119MOL0     H15652   7.053   5.291   0.471 -2.6619 -0.4975  1.2124
  119MOL0     H15653   6.857   5.498   0.389 -0.2066  1.0448  0.5488
  119MOL0     H15654   6.927   5.517   0.542  0.3581  0.7706 -1.1615
  119MOL0     H15655   6.878   5.288   0.608  3.0052  2.6661 -0.9786
  119MOL0     H15656   6.791   5.260   0.452 -0.1842  2.6016 -3.0128
  119MOL0     H15657   6.706   5.497   0.620 -2.8370  0.6213  0.3938
  119MOL0     H15658   6.619   5.388   0.501 -1.4563 -2.0013  0.9216
  119MOL0     H15659   6.551   5.380   0.754  2.1639  3.1992 -0.7975
  119MOL0     H15660   6.699   5.301   0.797 -3.5676 -2.2443  1.9034
  119MOL0     H15661   6.665   5.048   0.831 -0.0188 -0.9567  0.0079
  119MOL0     H15662   6.561   4.828   0.850 -1.5454  0.6081  1.1429
  119MOL0     H15663   6.491   4.771   0.691  0.0756  2.9000 -1.3437
  119MOL0     H15664   6.336   4.743   0.873 -1.2379  0.5602  1.0213
  119MOL0     H15665   6.273   4.851   0.734 -2.2629 -2.8285  0.8833
  119MOL0     H15666   6.381   4.927   1.010  1.8692 -2.5073 -1.0027
  119MOL0     H15667   6.314   5.048   0.905  0.4114 -0.7915  1.4462
  119MOL0     H15668   6.091   4.957   0.917 -0.6183  1.2843  0.9935
  119MOL0     H15669   6.138   4.992   1.072 -2.4728 -1.0881 -0.4176
  119MOL0     H15670   6.103   4.579   1.161 -0.7619  0.6420 -2.2557
  119MOL0     H15671   5.891   4.527   1.297  0.5871  1.1919 -0.2495
  119MOL0     H15672   5.353   4.698   1.185 -0.7360 -1.3666  0.7353
  119MOL0     H15673   5.139   4.680   1.327  0.0523  0.5143  2.4431
  119MOL0     H15674   5.118   4.926   1.668 -1.1017  0.3303 -2.3201
  119MOL0     H15675   5.158   4.783   1.766  1.7056 -2.4040 -1.8551
  119MOL0     H15676   4.918   4.720   1.755 -0.4166  0.5439  4.0867
  119MOL0     H15677   4.885   4.857   1.653  1.0449 -1.6359 -0.6066
  119MOL0     H15678   4.966   5.012   1.839 -1.4741 -0.1339 -0.5949
  119MOL0     H15679   4.984   4.855   1.938  0.5913 -1.2485 -0.8296
  119MOL0     H15680   4.740   4.973   1.811 -0.7381  1.1656  1.3496
  119MOL0     H15681   4.753   4.818   1.896 -2.8419  0.4053  1.5323
  119MOL0     H15682   4.818   5.109   2.013  0.6244  0.4116  1.9842
  119MOL0     H15683   4.782   4.946   2.096  1.7686 -1.1033 -1.6131
  119MOL0     H15684   4.559   4.966   2.042  0.6731  0.0458  1.2167
  119MOL0     H15685   4.589   5.091   1.923  2.4849 -0.9699 -1.6581
  119MOL0     H15686   4.650   5.149   2.228 -1.3063 -3.5839  0.6406
  119MOL0     H15687   4.629   5.259   2.093 -0.5695  0.8613  2.2058
  119MOL0     H15688   4.431   5.237   2.251  1.0813 -0.1623  0.0897
  119MOL0     H15689   4.428   5.066   2.208  2.1516 -0.8238 -0.8639
  119MOL0     H15690   5.350   4.865   1.652 -0.4496  1.1566 -0.0303
  119MOL0     H15691   5.560   4.871   1.507  2.3848 -0.7801 -2.8331
  119MOL0     H15692   5.712   4.867   1.110  0.6217  0.4980  0.6159
  119MOL0     H15693   5.908   4.928   1.012  0.9355  1.4717  1.7152
  119MOL0     H15694   7.544   5.812   0.508 -0.8849  0.3252 -0.5313
  119MOL0     H15695   7.783   5.869   0.513 -2.7380 -0.5566  0.2764
  119MOL0     H15696   8.089   6.162   0.447 -0.5532  0.3411 -0.3986
  119MOL0     H15697   8.328   6.236   0.489  0.4641  0.9127 -0.7465
  119MOL0     H15698   8.641   5.983   0.279  0.5665  0.3759  0.0360
  119MOL0     H15699   8.642   5.901   0.430 -1.4384 -0.0891 -0.7819
  119MOL0     H15700   8.792   6.073   0.527 -0.1690 -0.1314  0.3068
  119MOL0     H15701   8.860   6.013   0.380 -1.4426  0.8638 -6.1312
  119MOL0     H15702   8.711   6.279   0.390  1.4081  1.9831 -2.0150
  119MOL0     H15703   8.777   6.202   0.242 -2.0571  4.4856 -0.1992
  119MOL0     H15704   8.936   6.368   0.323 -0.5964  1.7160  3.1817
  119MOL0     H15705   8.934   6.303   0.483  1.8862 -1.0598  0.8274
  119MOL0     H15706   9.229   6.096   0.250  0.8538  2.0597  0.3565
  119MOL0     H15707   8.455   5.862   0.304 -0.4039 -0.7009 -1.9475
  119MOL0     H15708   8.225   5.775   0.304 -1.4177 -0.9765  2.7675
  120MOL0     O15709   2.599   3.703   8.429  0.9330 -0.1051 -0.6267
  120MOL0     C15710   2.632   3.789   8.350  0.2399 -0.4882 -1.2972
  120MOL0     O15711   2.545   3.854   8.275 -0.6420  0.4409 -0.5193
  120MOL0     C15712   2.412   3.858   8.313  0.0932  0.2206 -0.0438
  120MOL0     C15713   2.319   3.858   8.206  0.2706  0.3394 -0.2460
  120MOL0     C15714   2.185   3.832   8.246 -0.6739 -0.6047 -0.8544
  120MOL0     C15715   2.137   3.856   8.378 -0.0080 -1.5460  0.3554
  120MOL0     O15716   2.002   3.835   8.403  0.4045  0.7404  0.1331
  120MOL0     C15717   1.990   3.700   8.453  0.5550  0.0040  0.3154
  120MOL0     C15718   1.883   3.625   8.375 -0.6176 -0.1880  0.6302
  120MOL0     C15719   1.745   3.671   8.427 -0.0875 -0.2318 -0.4003
  120MOL0     C15720   1.612   3.584   8.393  0.6184  0.4665  0.0990
  120MOL0     C15721   1.478   3.673   8.401 -0.7821 -0.5032  0.6445
  120MOL0     C15722   1.360   3.601   8.330  1.0477 -0.6866  0.4495
  120MOL0     C15723   1.227   3.675   8.340  0.9642  0.4710  0.5966
  120MOL0     C15724   1.117   3.572   8.359 -0.6796  0.1208  0.0223
  120MOL0     N15725   0.985   3.631   8.327  0.2701 -0.1062 -0.3185
  120MOL0     C15726   0.885   3.668   8.417  0.0259 -0.0924 -0.5761
  120MOL0     C15727   0.817   3.763   8.351 -0.1202 -0.8604 -0.8380
  120MOL0     C15728   0.696   3.829   8.409  0.0279  0.2707 -0.8810
  120MOL0     C15729   0.609   3.878   8.305  1.0111  0.4322 -0.2816
  120MOL0     C15730   0.486   3.927   8.377 -0.1515 -0.3158  0.1195
  120MOL0     C15731   0.394   3.986   8.275  1.1715 -0.2220  0.3997
  120MOL0     O15732   0.277   4.026   8.347  0.2516  0.0563  0.1454
  120MOL0     C15733   0.167   4.067   8.271 -0.4920  0.4162  0.3705
  120MOL0     C15734   0.046   4.101   8.329 -0.4667  0.6445 -0.6226
  120MOL0     C15735  -0.068   4.125   8.244  0.2478 -0.2122 -0.3743
  120MOL0     C15736  -0.051   4.123   8.105 -0.5648  0.2171  0.2574
  120MOL0     C15737  -0.161   4.156   8.021  0.0744  0.0101 -0.2239
  120MOL0     O15738  -0.280   4.124   8.084 -0.0980  0.0997  0.0736
  120MOL0     C15739  -0.394   4.134   8.003 -0.8637 -0.1421 -0.5293
  120MOL0     C15740  -0.474   4.244   8.005 -0.4117  0.7949  0.0020
  120MOL0     C15741  -0.581   4.248   7.915  0.1159 -0.4027  0.4614
  120MOL0     C15742  -0.608   4.145   7.820  0.2319 -0.0896 -1.0796
  120MOL0     O15743  -0.721   4.153   7.747 -0.2006  0.4954 -0.1963
  120MOL0     C15744  -0.714   4.069   7.632  0.5947  0.4780 -0.0425
  120MOL0     C15745  -0.838   4.100   7.544 -0.6836  0.5597 -0.2169
  120MOL0     C15746  -0.965   4.021   7.592 -0.2138  0.1435  0.1187
  120MOL0     C15747  -1.093   4.064   7.522  0.0625  0.4187  0.6733
  120MOL0     C15748  -1.216   3.987   7.582  0.3885 -0.7989  0.8431
  120MOL0     C15749  -1.348   4.014   7.507  0.9950  0.1535 -0.1840
  120MOL0     C15750  -1.395   4.165   7.519  0.7436  0.3087 -0.4303
  120MOL0     C15751  -1.509   4.201   7.416  0.7600 -0.3448 -0.3786
  120MOL0    Cl15752  -1.652   4.089   7.428 -0.4519 -0.0575  0.2205
  120MOL0     C15753  -0.523   4.033   7.816 -0.1783 -0.2497  0.5670
  120MOL0     C15754  -0.418   4.031   7.912  0.3955  0.4633  0.3916
  120MOL0     O15755  -0.148   4.187   7.899 -0.2193  0.4862  0.3384
  120MOL0     C15756   0.078   4.109   8.052 -0.3658  0.1214  0.2580
  120MOL0     C15757   0.179   4.076   8.132  0.7480  0.9950 -0.0012
  120MOL0     N15758   0.859   3.777   8.226  0.3714  0.0750  0.5165
  120MOL0     N15759   0.974   3.709   8.223  0.2304 -0.5078  0.4275
  120MOL0     C15760   2.227   3.889   8.479  1.0881 -0.6754  0.0412
  120MOL0     C15761   2.360   3.891   8.443 -0.4447  0.4438  0.4384
  120MOL0     C15762   2.773   3.832   8.360  0.4543 -0.0906 -0.5902
  120MOL0     C15763   2.865   3.806   8.464  0.0515  0.0671  0.3449
  120MOL0     C15764   3.001   3.826   8.448  0.4028  0.0562 -1.1625
  120MOL0     C15765   3.066   3.872   8.328  1.1543  0.0591 -0.5806
  120MOL0     O15766   3.199   3.891   8.326 -0.4125  0.1756 -0.3386
  120MOL0     C15767   3.253   3.950   8.205 -0.7673  0.1985 -0.5541
  120MOL0     C15768   3.398   3.973   8.253  0.5157 -0.0203 -0.9372
  120MOL0     C15769   3.484   4.027   8.136 -0.0504  0.6474  0.2309
  120MOL0     C15770   3.630   4.003   8.163 -0.6884 -0.1401 -1.2371
  120MOL0     C15771   3.667   3.866   8.174  0.0032 -0.5814 -0.8381
  120MOL0     C15772   3.700   3.749   8.177  0.1409  0.2536 -0.1108
  120MOL0     C15773   2.968   3.913   8.231  0.1900  0.5947 -0.8128
  120MOL0     C15774   2.830   3.887   8.247 -0.0777 -0.2561  0.0943
  120MOL0     H15775   2.358   3.844   8.105  0.8028 -1.0889  0.1391
  120MOL0     H15776   2.109   3.815   8.169  1.1920 -2.2268 -2.4557
  120MOL0     H15777   1.966   3.691   8.559 -1.2797  0.2313 -0.0382
  120MOL0     H15778   2.077   3.637   8.432  1.7419  0.9037  2.2651
  120MOL0     H15779   1.896   3.516   8.370 -0.7467 -0.1571 -2.1269
  120MOL0     H15780   1.883   3.653   8.269  2.1195 -1.9861  0.0480
  120MOL0     H15781   1.739   3.773   8.387  2.0608 -0.3702 -1.2285
  120MOL0     H15782   1.744   3.681   8.536 -2.1895 -1.5525 -0.2391
  120MOL0     H15783   1.616   3.535   8.295 -1.9388  1.8248 -0.7859
  120MOL0     H15784   1.607   3.501   8.463  0.1258  1.4498  1.2627
  120MOL0     H15785   1.485   3.771   8.353 -0.1026 -1.9479 -2.4406
  120MOL0     H15786   1.458   3.687   8.508  0.6408 -1.1393  1.0291
  120MOL0     H15787   1.351   3.500   8.372  3.1692 -0.2271  2.2281
  120MOL0     H15788   1.380   3.596   8.223  0.3857  0.1533  0.2797
  120MOL0     H15789   1.222   3.751   8.418  2.9756  0.6829  0.5744
  120MOL0     H15790   1.215   3.732   8.247  0.0051 -0.4609  0.1199
  120MOL0     H15791   1.116   3.531   8.460  1.1424 -0.7834 -0.2783
  120MOL0     H15792   1.137   3.498   8.281 -1.4591  0.7655 -0.8221
  120MOL0     H15793   0.874   3.640   8.521  0.0818 -0.5115 -0.6843
  120MOL0     H15794   0.720   3.898   8.491  1.1449 -1.4882  0.3767
  120MOL0     H15795   0.635   3.749   8.453 -1.7893  1.4805 -1.1069
  120MOL0     H15796   0.589   3.801   8.230  2.4888 -0.8482  0.5763
  120MOL0     H15797   0.655   3.960   8.250  0.9411 -0.0001 -0.9839
  120MOL0     H15798   0.428   3.847   8.425 -0.2737 -1.0411 -1.1814
  120MOL0     H15799   0.507   4.001   8.454  2.3357  0.1933 -0.9203
  120MOL0     H15800   0.378   3.924   8.186  0.4893  2.5001 -1.4865
  120MOL0     H15801   0.440   4.065   8.216 -0.7549  1.2467  0.7765
  120MOL0     H15802   0.046   4.094   8.437  2.2959  1.0690 -0.5040
  120MOL0     H15803  -0.167   4.150   8.280  0.0693 -1.2028 -0.1766
  120MOL0     H15804  -0.460   4.326   8.075 -1.0975  0.3202  0.7277
  120MOL0     H15805  -0.641   4.339   7.915 -1.1585 -1.2167  0.6276
  120MOL0     H15806  -0.717   3.963   7.657  0.9364  1.0558  2.7811
  120MOL0     H15807  -0.620   4.090   7.582  2.2431 -2.7356  1.4157
  120MOL0     H15808  -0.825   4.067   7.441  2.8859  0.3033  0.1985
  120MOL0     H15809  -0.861   4.207   7.543  1.2484  1.0086 -0.3658
  120MOL0     H15810  -0.969   4.035   7.701  2.2981 -3.5253  0.8760
  120MOL0     H15811  -0.953   3.913   7.588  1.2395 -0.0461  4.2713
  120MOL0     H15812  -1.115   4.170   7.536 -1.5754  0.3990 -1.2395
  120MOL0     H15813  -1.092   4.040   7.415 -0.8373  0.8712  0.5511
  120MOL0     H15814  -1.235   4.026   7.683 -3.8205  2.2733 -0.8428
  120MOL0     H15815  -1.201   3.879   7.583 -0.3857 -0.9140  2.1080
  120MOL0     H15816  -1.429   3.945   7.535  1.4599 -1.8600 -3.2874
  120MOL0     H15817  -1.334   4.003   7.399  0.2553 -3.6828 -0.0394
  120MOL0     H15818  -1.452   4.163   7.612  0.2012  1.3841 -0.7257
  120MOL0     H15819  -1.312   4.236   7.522  0.7635  0.2493  1.1979
  120MOL0     H15820  -1.461   4.197   7.318  1.3933 -1.6281 -0.0474
  120MOL0     H15821  -1.554   4.299   7.434 -0.3696 -1.0405  0.8271
  120MOL0     H15822  -0.529   3.952   7.744 -0.5213  0.1355  0.1516
  120MOL0     H15823  -0.348   3.948   7.913  0.2530  0.2096 -2.3426
  120MOL0     H15824   0.093   4.109   7.944  0.6049 -0.5481  0.3819
  120MOL0     H15825   0.274   4.062   8.081 -0.2729 -2.4078 -1.1629
  120MOL0     H15826   2.185   3.904   8.578 -0.7562 -1.3654 -0.5921
  120MOL0     H15827   2.428   3.930   8.519 -1.3809  0.5047  1.2584
  120MOL0     H15828   2.835   3.762   8.559  0.7943  1.6633  1.3840
  120MOL0     H15829   3.059   3.806   8.538 -1.2877 -1.2851 -0.3009
  120MOL0     H15830   3.200   4.041   8.177 -0.1523  0.0877 -2.1504
  120MOL0     H15831   3.239   3.884   8.120 -0.7951  1.2646 -1.3958
  120MOL0     H15832   3.400   4.046   8.335  0.9305  2.2280 -2.8422
  120MOL0     H15833   3.440   3.878   8.287  2.5577  1.3616  0.7231
  120MOL0     H15834   3.466   4.134   8.120  0.1779  0.5467 -0.8106
  120MOL0     H15835   3.456   3.976   8.043  3.4160 -1.1400  0.0100
  120MOL0     H15836   3.684   4.056   8.084 -0.0131  1.2350  0.0887
  120MOL0     H15837   3.651   4.058   8.255 -1.9506  1.3663 -1.8040
  120MOL0     H15838   3.733   3.650   8.149  1.0491  0.6903 -0.6528
  120MOL0     H15839   3.004   3.958   8.139 -1.6629 -1.3981 -2.6457
  120MOL0     H15840   2.774   3.908   8.156 -0.6407 -1.7157  0.0817
  121MOL0     O15841  11.043   0.098   9.021 -0.1216  0.4737  0.3564
  121MOL0     C15842  11.013   0.216   9.049  0.1849  0.4369  0.6849
  121MOL0     O15843  10.889   0.263   9.099 -0.6833 -0.0408  0.3049
  121MOL0     C15844  10.780   0.185   9.124  0.5318 -0.4161 -0.9716
  121MOL0     C15845  10.668   0.256   9.167 -0.1635  0.5865  0.1057
  121MOL0     C15846  10.547   0.199   9.215 -1.0003 -0.3967  0.5602
  121MOL0     C15847  10.533   0.065   9.196  0.0114  0.2563  0.6523
  121MOL0     O15848  10.417  -0.002   9.208  0.8857 -0.7969  0.8732
  121MOL0     C15849  10.312   0.045   9.285  0.0298 -0.4142  0.0867
  121MOL0     C15850  10.197  -0.053   9.281 -0.0338  0.6160 -0.5731
  121MOL0     C15851  10.112  -0.040   9.411  0.1257  0.0202 -0.9157
  121MOL0     C15852   9.987  -0.127   9.401 -0.7158  0.3066  1.1490
  121MOL0     C15853   9.888  -0.102   9.514  1.0161  0.1810  0.0328
  121MOL0     C15854   9.940  -0.136   9.655  0.3511 -0.7440  0.3060
  121MOL0     C15855   9.820  -0.135   9.758  0.1356  0.2045  0.3769
  121MOL0     C15856   9.776   0.010   9.791 -0.3072  0.3532  0.1944
  121MOL0     N15857   9.657  -0.000   9.873  0.0459  0.2203  0.1425
  121MOL0     C15858   9.600  -0.117   9.929  1.3599 -0.0027 -0.0477
  121MOL0     C15859   9.513  -0.066  10.017  0.2686 -0.0398  0.0136
  121MOL0     C15860   9.434  -0.154  10.103  0.6764  0.2893 -0.3694
  121MOL0     C15861   9.351  -0.260  10.034 -0.2067 -0.5983  0.7881
  121MOL0     C15862   9.250  -0.208   9.929 -0.0481 -1.0476 -0.1050
  121MOL0     C15863   9.131  -0.127   9.999 -0.1222 -0.0639 -0.2990
  121MOL0     O15864   9.049  -0.222  10.070  0.2196 -0.1228 -0.2448
  121MOL0     C15865   8.913  -0.203  10.091 -0.3140  0.2504 -0.5213
  121MOL0     C15866   8.854  -0.072  10.084  0.6281 -0.3116  0.5201
  121MOL0     C15867   8.713  -0.067  10.099 -0.6912 -1.2732 -0.4068
  121MOL0     C15868   8.632  -0.176  10.141 -0.6141 -0.4106  0.1811
  121MOL0     C15869   8.482  -0.161  10.154 -0.5999  1.2602 -0.5203
  121MOL0     O15870   8.418  -0.273  10.140  0.2752  0.1504 -0.4533
  121MOL0     C15871   8.281  -0.278  10.153  0.1671  0.1715  0.5529
  121MOL0     C15872   8.236  -0.401  10.196 -0.0596  1.0985 -0.2775
  121MOL0     C15873   8.095  -0.427  10.193 -0.5798  0.1572  0.2352
  121MOL0     C15874   7.999  -0.335  10.140 -0.3025 -0.6930  0.0391
  121MOL0     O15875   7.864  -0.368  10.119 -0.6102  0.4683 -0.2508
  121MOL0     C15876   7.778  -0.257  10.129 -0.2488 -0.3040 -0.8997
  121MOL0     C15877   7.639  -0.293  10.088  0.7727  0.7640  0.3291
  121MOL0     C15878   7.575  -0.431  10.148 -0.5146 -0.6086 -0.3979
  121MOL0     C15879   7.432  -0.463  10.087 -0.0793  0.5433  0.2889
  121MOL0     C15880   7.365  -0.535  10.205  0.4040  0.3185 -0.7383
  121MOL0     C15881   7.229  -0.590  10.163  0.2398 -0.2536 -0.7828
  121MOL0     C15882   7.123  -0.471  10.134  0.1454  0.2914 -0.2167
  121MOL0     C15883   7.005  -0.528  10.043 -0.9893  0.2618 -0.5620
  121MOL0    Cl15884   7.084  -0.558   9.885  0.0908  0.1691  0.1811
  121MOL0     C15885   8.057  -0.212  10.103  0.6422  0.1646  0.5405
  121MOL0     C15886   8.190  -0.177  10.112  0.1630  0.5179 -0.6283
  121MOL0     O15887   8.439  -0.050  10.166  0.4058  0.0816 -0.0952
  121MOL0     C15888   8.697  -0.301  10.142  0.1862 -0.5840 -1.0062
  121MOL0     C15889   8.832  -0.315  10.126  0.4894 -0.5375 -0.0883
  121MOL0     N15890   9.514   0.075  10.007 -0.2626  0.1426 -0.5610
  121MOL0     N15891   9.597   0.112   9.918 -0.1718  0.1039 -0.1963
  121MOL0     C15892  10.648  -0.009   9.156  0.1800  0.5608  0.3776
  121MOL0     C15893  10.764   0.048   9.112  0.5928 -0.1577 -0.6674
  121MOL0     C15894  11.128   0.315   9.046 -1.2816  0.6239 -0.5590
  121MOL0     C15895  11.110   0.438   9.096  1.2344 -0.5847 -0.0377
  121MOL0     C15896  11.217   0.524   9.119 -0.5783  0.7849 -0.6071
  121MOL0     C15897  11.349   0.487   9.077  0.9407 -1.1614  0.2891
  121MOL0     O15898  11.449   0.582   9.112 -0.1567  0.4552  0.2366
  121MOL0     C15899  11.579   0.559   9.055  0.2997 -0.2362 -0.0642
  121MOL0     C15900  11.668   0.668   9.109  0.6237 -0.5152  0.2241
  121MOL0     C15901  11.615   0.809   9.083 -0.2180 -0.6385  0.8920
  121MOL0     C15902  11.720   0.911   9.099 -0.5517 -0.5394  0.2566
  121MOL0     C15903  11.659   1.043   9.081  0.7899 -0.4321  0.1584
  121MOL0     C15904  11.611   1.151   9.055  0.2920 -0.5196 -0.0774
  121MOL0     C15905  11.369   0.363   9.023 -0.5906  0.4833  0.5115
  121MOL0     C15906  11.260   0.277   9.003  0.1005 -0.0337 -0.0834
  121MOL0     H15907  10.693   0.362   9.170 -0.1118  0.5659  1.7673
  121MOL0     H15908  10.466   0.266   9.242  0.9917  3.0664 -1.3812
  121MOL0     H15909  10.266   0.141   9.262 -2.4663 -0.7721  2.9680
  121MOL0     H15910  10.360   0.055   9.383  3.4151 -0.4956 -1.4281
  121MOL0     H15911  10.235  -0.155   9.273 -0.9462  0.1808  0.3472
  121MOL0     H15912  10.136  -0.030   9.193 -1.2450 -0.8289 -0.1467
  121MOL0     H15913  10.088   0.061   9.444 -0.2318 -0.2229 -0.4062
  121MOL0     H15914  10.172  -0.088   9.489 -0.5581 -0.5812 -0.7466
  121MOL0     H15915   9.944  -0.093   9.307  2.2416  0.4335 -0.2813
  121MOL0     H15916  10.005  -0.233   9.385  0.1432  0.7034 -0.8272
  121MOL0     H15917   9.803  -0.168   9.495  0.5206  0.9334 -0.3999
  121MOL0     H15918   9.854   0.002   9.506  0.6658  0.0173 -0.6545
  121MOL0     H15919  10.025  -0.072   9.682  0.6433 -0.6657 -0.7668
  121MOL0     H15920   9.963  -0.242   9.660 -0.9045 -1.0288  0.2823
  121MOL0     H15921   9.742  -0.198   9.713  2.2134 -2.3493  0.1111
  121MOL0     H15922   9.844  -0.173   9.857  0.8823  0.7768  0.4248
  121MOL0     H15923   9.764   0.089   9.716 -5.3273  0.1036  0.3908
  121MOL0     H15924   9.849   0.052   9.861  0.2758 -0.9700  0.4124
  121MOL0     H15925   9.626  -0.222   9.920  1.6423  0.1477 -1.2603
  121MOL0     H15926   9.371  -0.090  10.166 -0.9276 -0.4822 -1.1327
  121MOL0     H15927   9.494  -0.205  10.179 -1.0405 -0.5624  0.4864
  121MOL0     H15928   9.295  -0.320  10.105  0.4270 -0.8097  1.1230
  121MOL0     H15929   9.404  -0.331   9.970 -5.0338 -0.4660 -4.0361
  121MOL0     H15930   9.304  -0.145   9.858 -1.1188  2.5582  2.0046
  121MOL0     H15931   9.206  -0.289   9.870 -1.1187 -0.3780 -0.2580
  121MOL0     H15932   9.073  -0.070   9.925 -1.5381 -0.8885  0.1404
  121MOL0     H15933   9.171  -0.056  10.072 -0.5167  0.3503 -0.4766
  121MOL0     H15934   8.917   0.014  10.065  0.0655  0.1813  0.8682
  121MOL0     H15935   8.664   0.026  10.073  1.3450 -0.1924 -0.5213
  121MOL0     H15936   8.309  -0.478  10.216 -0.5991  0.8849  0.9476
  121MOL0     H15937   8.059  -0.524  10.225 -0.5726 -0.2145 -0.8422
  121MOL0     H15938   7.801  -0.170  10.066 -1.6450  1.3403  0.7432
  121MOL0     H15939   7.770  -0.228  10.234 -0.5944 -1.8514 -0.4811
  121MOL0     H15940   7.627  -0.296   9.979  1.0490  0.9656  0.2926
  121MOL0     H15941   7.576  -0.207  10.111 -0.2314  0.6679 -1.8217
  121MOL0     H15942   7.565  -0.412  10.255  2.3322 -2.7492  0.3765
  121MOL0     H15943   7.646  -0.514  10.150  1.6817  1.1260 -1.5176
  121MOL0     H15944   7.379  -0.373  10.055  1.1709  1.2416  0.1127
  121MOL0     H15945   7.439  -0.536  10.006  0.5690  0.8979  0.0156
  121MOL0     H15946   7.355  -0.473  10.295 -2.1655  0.5101 -1.0685
  121MOL0     H15947   7.422  -0.624  10.232 -0.6391  0.3455  1.8571
  121MOL0     H15948   7.191  -0.647  10.248 -0.2681  0.7922 -0.2927
  121MOL0     H15949   7.238  -0.648  10.070  1.6485 -1.2240 -0.0668
  121MOL0     H15950   7.087  -0.438  10.231  0.2692 -0.3334  0.0486
  121MOL0     H15951   7.164  -0.381  10.086 -1.6512  1.9341  1.2005
  121MOL0     H15952   6.924  -0.454  10.034 -0.2431  1.1078 -0.4758
  121MOL0     H15953   6.953  -0.609  10.094 -0.9225  0.8440  0.4600
  121MOL0     H15954   7.999  -0.126  10.070  1.5095 -0.0606 -1.6793
  121MOL0     H15955   8.233  -0.085  10.073  2.1406 -1.2804 -3.0542
  121MOL0     H15956   8.642  -0.392  10.167 -0.3974  0.2405  0.9095
  121MOL0     H15957   8.869  -0.417  10.126 -0.2085 -0.7956 -0.0858
  121MOL0     H15958  10.644  -0.117   9.151 -1.4917  0.5567  1.0023
  121MOL0     H15959  10.848  -0.013   9.080  1.6740 -0.1710  1.9480
  121MOL0     H15960  11.015   0.458   9.143  1.0023 -0.9954 -0.3266
  121MOL0     H15961  11.189   0.611   9.178  1.4510  0.2868  1.2130
  121MOL0     H15962  11.562   0.565   8.947  0.0471 -2.0950 -0.1585
  121MOL0     H15963  11.636   0.473   9.090  0.8813  0.3823  0.5394
  121MOL0     H15964  11.671   0.647   9.217  0.7114 -0.0407  0.3160
  121MOL0     H15965  11.762   0.658   9.054  1.1833  5.0438 -0.4632
  121MOL0     H15966  11.535   0.841   9.151  0.4254  1.6246  0.6765
  121MOL0     H15967  11.574   0.818   8.982 -0.2786  0.6732  1.0075
  121MOL0     H15968  11.766   0.902   9.198  1.9208  4.4131 -0.1012
  121MOL0     H15969  11.793   0.895   9.020 -1.7139 -0.2862 -0.9037
  121MOL0     H15970  11.572   1.249   9.036  0.0176 -0.7829 -0.9212
  121MOL0     H15971  11.474   0.344   9.004 -0.3370  2.7262 -0.7086
  121MOL0     H15972  11.286   0.179   8.964  0.6669  1.2746 -3.2652
  122MOL0     O15973   8.422   3.043   6.826  0.3181  0.2965  0.6523
  122MOL0     C15974   8.398   3.086   6.712  0.2957 -0.6446 -0.0384
  122MOL0     O15975   8.490   3.142   6.628 -0.3198 -0.3387 -0.3280
  122MOL0     C15976   8.608   3.190   6.681 -0.6100 -0.0069 -0.5928
  122MOL0     C15977   8.719   3.175   6.606  0.6788 -0.5805  0.0374
  122MOL0     C15978   8.848   3.206   6.660 -0.1434  0.7249 -0.0017
  122MOL0     C15979   8.863   3.247   6.794 -0.6073  0.5051  0.6420
  122MOL0     O15980   8.984   3.268   6.846  0.4432  0.4026  0.6477
  122MOL0     C15981   9.093   3.302   6.755  0.6070 -0.1872  0.7834
  122MOL0     C15982   9.213   3.268   6.840 -0.5245 -0.5477 -0.3339
  122MOL0     C15983   9.204   3.356   6.979 -0.8372  0.0336  0.1023
  122MOL0     C15984   9.348   3.339   7.042 -0.3591  0.2715 -0.0521
  122MOL0     C15985   9.379   3.437   7.159  0.5460  1.4502 -0.0593
  122MOL0     C15986   9.497   3.407   7.235  0.3767 -0.3548 -0.7143
  122MOL0     C15987   9.631   3.468   7.193  0.4657 -0.1514  0.0450
  122MOL0     C15988   9.655   3.610   7.231  1.0241 -0.6655 -0.3346
  122MOL0     N15989   9.645   3.649   7.378 -0.0219  0.3710  0.9786
  122MOL0     C15990   9.542   3.721   7.436 -0.4514 -0.3087 -0.3033
  122MOL0     C15991   9.575   3.731   7.569  0.4170  0.0344  0.1015
  122MOL0     C15992   9.489   3.792   7.679  0.7432  0.1734 -0.2674
  122MOL0     C15993   9.363   3.704   7.688 -0.8354 -0.9150  0.2675
  122MOL0     C15994   9.277   3.742   7.809 -0.0156  0.3550  0.5825
  122MOL0     C15995   9.155   3.639   7.802  0.4004  0.2547 -0.4311
  122MOL0     O15996   9.059   3.662   7.903  0.2388 -0.3705  0.5479
  122MOL0     C15997   8.936   3.609   7.904  0.1561  0.3694  0.1147
  122MOL0     C15998   8.826   3.681   7.956  0.0172  0.0465 -1.3187
  122MOL0     C15999   8.702   3.623   7.972  0.0724 -0.5233 -0.6901
  122MOL0     C16000   8.680   3.495   7.914 -0.1495  0.8712 -0.1933
  122MOL0     C16001   8.545   3.430   7.922 -0.1947 -0.8542  0.1682
  122MOL0     O16002   8.533   3.302   7.900  0.7704 -0.4994  0.4255
  122MOL0     C16003   8.409   3.261   7.853 -0.7351  0.5979  1.1628
  122MOL0     C16004   8.408   3.222   7.717  0.3773  0.7023 -0.0936
  122MOL0     C16005   8.295   3.191   7.640  0.3987 -0.6911 -0.3921
  122MOL0     C16006   8.169   3.193   7.717  0.5609  0.7613  1.4329
  122MOL0     O16007   8.041   3.163   7.672  0.1225 -1.0009  0.0212
  122MOL0     C16008   8.004   3.158   7.535 -0.2057 -0.2657 -0.3843
  122MOL0     C16009   7.858   3.112   7.513  0.0057  0.5139 -0.3703
  122MOL0     C16010   7.769   3.223   7.562 -0.3673  0.4493  0.6118
  122MOL0     C16011   7.725   3.308   7.441  0.1551  0.0245 -0.3920
  122MOL0     C16012   7.659   3.440   7.473 -0.3664 -0.5582 -0.1494
  122MOL0     C16013   7.528   3.417   7.550 -0.1578 -0.3147  0.5707
  122MOL0     C16014   7.434   3.543   7.535 -0.2345 -0.1451  0.6033
  122MOL0     C16015   7.304   3.521   7.614  1.1602 -1.4235 -0.6375
  122MOL0    Cl16016   7.205   3.669   7.606  0.2047  0.4759  0.1170
  122MOL0     C16017   8.174   3.239   7.848 -0.6474  0.3423 -0.8528
  122MOL0     C16018   8.290   3.269   7.925 -0.1535 -0.2048  0.1279
  122MOL0     O16019   8.452   3.508   7.956 -0.4449  0.5940  0.5347
  122MOL0     C16020   8.792   3.427   7.855  0.2548 -0.2242 -0.1966
  122MOL0     C16021   8.913   3.482   7.855 -0.5326 -0.9745 -0.0189
  122MOL0     N16022   9.687   3.656   7.589  0.6535  0.4428  0.2473
  122MOL0     N16023   9.738   3.613   7.470 -0.0581  0.3012 -0.3766
  122MOL0     C16024   8.759   3.254   6.868  0.4342 -0.1996 -0.5990
  122MOL0     C16025   8.632   3.230   6.814 -0.0432 -0.7887 -0.6538
  122MOL0     C16026   8.263   3.082   6.653 -0.4532 -0.3132  0.0352
  122MOL0     C16027   8.167   3.028   6.738 -0.3768  0.0976 -0.6847
  122MOL0     C16028   8.037   3.007   6.685 -0.2869 -0.5855 -0.4416
  122MOL0     C16029   8.002   3.059   6.554  0.2557  0.2933  1.3766
  122MOL0     O16030   7.877   3.057   6.499 -0.0318  0.1178  0.2177
  122MOL0     C16031   7.775   2.975   6.553 -0.0577 -0.4456  0.1198
  122MOL0     C16032   7.653   2.992   6.475  0.1056  0.7164  0.2694
  122MOL0     C16033   7.599   3.138   6.490 -0.5834  0.0327  0.1358
  122MOL0     C16034   7.485   3.159   6.392  0.2555 -0.2324 -0.2344
  122MOL0     C16035   7.415   3.281   6.416  0.6538 -0.0270 -0.4137
  122MOL0     C16036   7.353   3.385   6.427 -0.2664 -0.2140  0.4948
  122MOL0     C16037   8.097   3.129   6.487  0.0097 -0.1110  0.5160
  122MOL0     C16038   8.229   3.137   6.533  0.4569 -0.1802 -0.2136
  122MOL0     H16039   8.701   3.154   6.501  2.8083  1.4177 -0.8112
  122MOL0     H16040   8.935   3.188   6.597  0.4791  0.4817  0.9133
  122MOL0     H16041   9.087   3.409   6.734 -0.4200  0.4723  3.8873
  122MOL0     H16042   9.107   3.240   6.666  1.2078  0.4782  0.3968
  122MOL0     H16043   9.302   3.309   6.791 -0.3310 -0.7431 -0.1415
  122MOL0     H16044   9.216   3.161   6.857  1.0019 -0.2639  1.4469
  122MOL0     H16045   9.124   3.325   7.046 -1.6197 -2.2365 -1.7122
  122MOL0     H16046   9.190   3.461   6.952  1.7607  0.3874 -0.1923
  122MOL0     H16047   9.357   3.237   7.080  0.7614  0.0472 -0.8449
  122MOL0     H16048   9.423   3.345   6.962  1.3158 -1.6413  1.2829
  122MOL0     H16049   9.292   3.432   7.225  0.3434 -0.7321 -0.4068
  122MOL0     H16050   9.383   3.542   7.130  0.4894  1.2391 -0.8697
  122MOL0     H16051   9.524   3.301   7.224  1.6240 -0.2644  0.9662
  122MOL0     H16052   9.470   3.418   7.341 -4.0682  1.5229 -1.7832
  122MOL0     H16053   9.707   3.412   7.248  0.2253  2.2352  3.0238
  122MOL0     H16054   9.633   3.458   7.084 -1.6828 -0.4454 -0.0039
  122MOL0     H16055   9.583   3.681   7.190  0.6693 -0.3843  0.7343
  122MOL0     H16056   9.759   3.631   7.203  0.8450  0.5786 -0.1505
  122MOL0     H16057   9.446   3.750   7.395 -1.1763 -3.9487 -1.5888
  122MOL0     H16058   9.462   3.895   7.656 -3.2389 -0.3931  0.9724
  122MOL0     H16059   9.550   3.791   7.770  1.9770  1.0930 -1.0613
  122MOL0     H16060   9.394   3.600   7.679  1.3579 -0.1292 -3.9456
  122MOL0     H16061   9.300   3.734   7.604  0.4650  2.2517  0.2724
  122MOL0     H16062   9.338   3.737   7.900  0.8202  2.4769  0.2150
  122MOL0     H16063   9.234   3.843   7.805 -0.7016  0.0605  0.3619
  122MOL0     H16064   9.198   3.541   7.822 -2.8343 -0.9111  1.5796
  122MOL0     H16065   9.105   3.641   7.705  2.5339  1.1324 -1.5871
  122MOL0     H16066   8.844   3.782   7.993 -1.8910 -0.1394  0.3345
  122MOL0     H16067   8.615   3.670   8.016  1.7258  0.5226  1.6507
  122MOL0     H16068   8.498   3.235   7.657  0.6449 -0.5193  0.0252
  122MOL0     H16069   8.298   3.175   7.532  1.0116  3.3714 -1.1165
  122MOL0     H16070   8.073   3.103   7.471  1.2401 -0.6378  1.4001
  122MOL0     H16071   8.032   3.253   7.490  1.0138 -0.0894  0.6828
  122MOL0     H16072   7.834   3.017   7.562  0.1237  0.1308 -1.0399
  122MOL0     H16073   7.844   3.092   7.406 -1.1983  1.7523 -0.4794
  122MOL0     H16074   7.813   3.289   7.637 -1.7076 -1.8359  3.6250
  122MOL0     H16075   7.684   3.182   7.617  0.5326  0.0739  1.7761
  122MOL0     H16076   7.818   3.331   7.388  0.6685 -0.3186  0.3489
  122MOL0     H16077   7.663   3.257   7.366  1.5089 -0.4654 -1.2266
  122MOL0     H16078   7.646   3.508   7.389  4.6321  3.2195  1.6253
  122MOL0     H16079   7.724   3.501   7.536 -1.4782  0.9793 -0.4410
  122MOL0     H16080   7.550   3.398   7.655 -1.8010 -1.8902  0.6723
  122MOL0     H16081   7.475   3.330   7.512 -1.7481  0.9991 -0.3878
  122MOL0     H16082   7.468   3.639   7.574 -0.7225  0.1397  0.3384
  122MOL0     H16083   7.410   3.560   7.430 -1.0269  2.3572  1.1288
  122MOL0     H16084   7.327   3.488   7.716  3.2963  1.3760 -0.0827
  122MOL0     H16085   7.251   3.445   7.556 -2.6503  3.2124 -4.0177
  122MOL0     H16086   8.077   3.253   7.895 -1.8862 -0.4793 -2.9902
  122MOL0     H16087   8.295   3.303   8.028  0.1194  1.9661 -0.5371
  122MOL0     H16088   8.783   3.331   7.806  2.1169  0.8112 -2.7950
  122MOL0     H16089   8.996   3.421   7.820  0.8288  0.3788  0.7501
  122MOL0     H16090   8.767   3.281   6.973 -3.0608 -2.4052  0.4101
  122MOL0     H16091   8.546   3.244   6.879  1.3787  1.3109  0.8950
  122MOL0     H16092   8.196   2.989   6.835  2.0178 -2.2458 -2.2194
  122MOL0     H16093   7.959   2.960   6.744 -3.7495  3.2009 -1.5873
  122MOL0     H16094   7.743   2.993   6.656 -1.1600 -2.7195  0.2462
  122MOL0     H16095   7.794   2.868   6.537  0.9182  0.1633 -3.7720
  122MOL0     H16096   7.661   2.966   6.369 -0.7489 -0.0806  0.3846
  122MOL0     H16097   7.586   2.918   6.519 -0.1391  0.5095 -0.4256
  122MOL0     H16098   7.672   3.218   6.470 -1.6801  0.7341 -1.2590
  122MOL0     H16099   7.560   3.156   6.591  0.1498  0.8212  0.3012
  122MOL0     H16100   7.529   3.174   6.293  1.7333 -0.7807  0.3059
  122MOL0     H16101   7.419   3.076   6.367  1.5320 -0.5567 -2.8190
  122MOL0     H16102   7.313   3.481   6.452  2.4070  0.5434  2.4342
  122MOL0     H16103   8.082   3.170   6.388  3.7174 -2.0489 -1.0203
  122MOL0     H16104   8.304   3.201   6.489  0.5288 -0.6574 -0.8002
  123MOL0     O16105   3.404   9.722   9.254 -0.3252  0.3726  1.0179
  123MOL0     C16106   3.410   9.625   9.331  0.0918 -0.1249 -0.1288
  123MOL0     O16107   3.307   9.533   9.349 -0.9336 -0.4529 -0.1494
  123MOL0     C16108   3.184   9.576   9.313 -0.3358  0.2767  0.9352
  123MOL0     C16109   3.151   9.601   9.179  0.4026 -0.3641 -0.3193
  123MOL0     C16110   3.018   9.630   9.153  0.0688  0.4159 -0.6211
  123MOL0     C16111   2.919   9.640   9.253  0.0840  0.5615 -0.2909
  123MOL0     O16112   2.786   9.659   9.213 -0.4022 -0.0941  0.4460
  123MOL0     C16113   2.709   9.738   9.308 -0.8582 -0.6216  0.0949
  123MOL0     C16114   2.572   9.782   9.255  0.1226 -0.2302  0.1144
  123MOL0     C16115   2.476   9.658   9.240 -0.1676  0.3067  0.2478
  123MOL0     C16116   2.381   9.699   9.124  0.1008  0.4257 -0.3870
  123MOL0     C16117   2.255   9.613   9.100 -0.6655 -0.6197 -0.2271
  123MOL0     C16118   2.286   9.465   9.074  0.8148 -0.4529 -0.4070
  123MOL0     C16119   2.161   9.381   9.090  0.2146  0.2735  0.0031
  123MOL0     C16120   2.107   9.367   9.234 -0.5358 -0.8784 -0.1948
  123MOL0     N16121   2.003   9.269   9.234 -0.6945  0.2583 -0.4032
  123MOL0     C16122   2.020   9.133   9.256  0.5776 -0.5481 -0.4339
  123MOL0     C16123   1.896   9.085   9.262  0.1833 -0.3423  0.3779
  123MOL0     C16124   1.870   8.933   9.279  0.1351 -0.4569 -0.9803
  123MOL0     C16125   1.886   8.841   9.150  0.0774 -0.2815 -0.1316
  123MOL0     C16126   1.765   8.845   9.048  0.6013 -0.2665  0.2366
  123MOL0     C16127   1.629   8.819   9.110  0.5416  0.1146  0.3295
  123MOL0     O16128   1.623   8.700   9.189 -0.0760 -0.0120 -0.3206
  123MOL0     C16129   1.511   8.652   9.235 -0.4736  0.3892 -0.0452
  123MOL0     C16130   1.379   8.681   9.193 -0.2287 -0.4570 -0.5157
  123MOL0     C16131   1.267   8.611   9.259  0.1931 -0.5749  0.2446
  123MOL0     C16132   1.281   8.508   9.358  0.2265  0.3841 -0.4517
  123MOL0     C16133   1.172   8.424   9.415 -0.4753 -0.0306  0.5451
  123MOL0     O16134   1.198   8.334   9.511 -0.2045 -0.0428 -0.2607
  123MOL0     C16135   1.123   8.221   9.527 -0.3585 -0.5125 -0.3532
  123MOL0     C16136   0.987   8.219   9.530 -0.8259  0.8168 -0.0617
  123MOL0     C16137   0.917   8.105   9.542 -0.8922  0.1514 -1.2002
  123MOL0     C16138   0.974   7.978   9.573 -0.1786  0.6831  0.5048
  123MOL0     O16139   0.912   7.861   9.597  0.1324  0.0814 -0.0018
  123MOL0     C16140   0.769   7.864   9.588 -0.7379  0.1702 -0.1190
  123MOL0     C16141   0.720   7.720   9.623  0.3132  0.0372  0.2878
  123MOL0     C16142   0.767   7.635   9.509  0.2077  0.4718 -0.1662
  123MOL0     C16143   0.733   7.487   9.527 -0.8946  0.8865  0.0969
  123MOL0     C16144   0.722   7.423   9.384  0.0119  0.0149  0.1727
  123MOL0     C16145   0.844   7.453   9.296 -0.7312  0.0044 -0.4397
  123MOL0     C16146   0.978   7.365   9.332 -0.1559 -0.3247 -0.8037
  123MOL0     C16147   1.083   7.393   9.228 -0.0416  0.6332  0.5935
  123MOL0    Cl16148   1.221   7.311   9.273  0.1640 -0.1515 -0.4011
  123MOL0     C16149   1.114   7.977   9.586 -0.0756 -0.7380 -0.0174
  123MOL0     C16150   1.179   8.103   9.568  0.1381  0.9109 -0.8066
  123MOL0     O16151   1.077   8.427   9.342 -0.8625  1.0549  0.3054
  123MOL0     C16152   1.414   8.496   9.406 -0.0120 -0.0614  0.0179
  123MOL0     C16153   1.525   8.562   9.344 -0.3725 -1.5698 -0.1625
  123MOL0     N16154   1.806   9.187   9.250  0.5318  0.3844 -0.2858
  123MOL0     N16155   1.879   9.294   9.240  0.2198  0.4700  0.1144
  123MOL0     C16156   2.957   9.626   9.386 -0.0319  0.8062  0.8466
  123MOL0     C16157   3.091   9.601   9.418  0.5353  0.0039  0.5640
  123MOL0     C16158   3.535   9.617   9.408 -0.1946  0.4057 -0.4642
  123MOL0     C16159   3.582   9.506   9.476  0.8635 -0.6806 -0.2322
  123MOL0     C16160   3.697   9.504   9.545 -0.4900 -0.7476  0.3987
  123MOL0     C16161   3.775   9.617   9.558 -0.2134  0.2785 -0.1926
  123MOL0     O16162   3.888   9.599   9.631 -0.2225  0.2783  0.1209
  123MOL0     C16163   3.991   9.703   9.623 -0.0220 -0.7994  0.5603
  123MOL0     C16164   3.973   9.812   9.726 -0.0277 -0.5701  0.3818
  123MOL0     C16165   4.065   9.788   9.848 -0.3340 -0.1410 -0.5023
  123MOL0     C16166   4.164   9.906   9.864  0.0426 -0.5975 -0.5129
  123MOL0     C16167   4.257   9.891   9.751 -0.1243 -0.5828  0.3044
  123MOL0     C16168   4.348   9.890   9.676  0.2506  1.5256 -0.6477
  123MOL0     C16169   3.740   9.730   9.490 -0.9985 -0.8692  1.2519
  123MOL0     C16170   3.623   9.728   9.423 -0.2068  0.3123 -0.1580
  123MOL0     H16171   3.228   9.598   9.101  1.1581  0.1833  0.3844
  123MOL0     H16172   2.996   9.649   9.048  0.4975 -0.9463 -0.9834
  123MOL0     H16173   2.760   9.829   9.340  1.5906 -1.6040 -0.7730
  123MOL0     H16174   2.703   9.677   9.399  1.5672 -1.1239 -0.0302
  123MOL0     H16175   2.593   9.834   9.160 -0.3118 -0.3591 -0.0522
  123MOL0     H16176   2.522   9.843   9.330  0.1485  0.1159 -0.1419
  123MOL0     H16177   2.426   9.631   9.334  0.2782  0.1626  0.4461
  123MOL0     H16178   2.539   9.573   9.216 -2.4240 -0.6339 -2.9249
  123MOL0     H16179   2.339   9.798   9.146  1.0546  0.4711  1.3994
  123MOL0     H16180   2.442   9.694   9.034 -2.1304  2.2207 -2.1234
  123MOL0     H16181   2.193   9.648   9.017 -3.6750 -2.1784  1.1992
  123MOL0     H16182   2.185   9.624   9.183 -3.4680 -2.8571 -2.1093
  123MOL0     H16183   2.363   9.420   9.137  0.3978 -1.6429 -0.7264
  123MOL0     H16184   2.323   9.459   8.971  0.5681 -1.1102 -0.4642
  123MOL0     H16185   2.079   9.419   9.028 -0.7496  0.9042  1.5850
  123MOL0     H16186   2.189   9.280   9.061  1.7776  0.0424  2.0572
  123MOL0     H16187   2.067   9.465   9.262  0.1556 -0.4890 -0.5185
  123MOL0     H16188   2.194   9.360   9.300 -0.2462  0.6315 -0.3693
  123MOL0     H16189   2.116   9.082   9.254  1.2411  0.0922  3.7964
  123MOL0     H16190   1.771   8.927   9.327  0.9882  0.2005  0.9830
  123MOL0     H16191   1.935   8.891   9.356  0.5312 -0.0744 -1.1027
  123MOL0     H16192   1.902   8.740   9.187 -3.4632 -1.2817 -0.8698
  123MOL0     H16193   1.976   8.867   9.094 -0.4556 -2.0759 -1.9469
  123MOL0     H16194   1.747   8.946   9.012 -4.1586 -0.6385  0.8207
  123MOL0     H16195   1.787   8.778   8.964  0.7086 -2.1624  1.7030
  123MOL0     H16196   1.557   8.794   9.031 -0.1586 -2.1265  1.5901
  123MOL0     H16197   1.580   8.909   9.148 -1.7759 -0.6645 -0.6147
  123MOL0     H16198   1.347   8.745   9.112  2.2147 -0.5678 -1.6476
  123MOL0     H16199   1.173   8.635   9.210 -0.8465 -1.4144  1.7662
  123MOL0     H16200   0.941   8.315   9.508 -1.2409  0.7296  0.3972
  123MOL0     H16201   0.809   8.115   9.541 -0.7781  1.5250 -1.0982
  123MOL0     H16202   0.747   7.899   9.487 -0.5453  0.3601 -0.0972
  123MOL0     H16203   0.728   7.934   9.662 -0.1013  3.4646 -2.6580
  123MOL0     H16204   0.611   7.719   9.635  0.3188  0.4722  0.4002
  123MOL0     H16205   0.777   7.689   9.711  1.9033  0.3214 -0.5942
  123MOL0     H16206   0.874   7.647   9.493 -0.3038  2.2296 -2.7963
  123MOL0     H16207   0.720   7.671   9.418  0.4840  0.7550 -0.1980
  123MOL0     H16208   0.806   7.438   9.591 -0.8409  1.5729  0.5599
  123MOL0     H16209   0.634   7.474   9.573 -0.3931  1.9862  1.5472
  123MOL0     H16210   0.631   7.457   9.334 -0.3809  0.9191  1.4350
  123MOL0     H16211   0.698   7.318   9.398  0.0753  0.1138  1.1181
  123MOL0     H16212   0.866   7.560   9.287  1.8936 -0.6803 -4.2326
  123MOL0     H16213   0.813   7.415   9.198  3.2408 -1.9216 -1.1521
  123MOL0     H16214   1.011   7.394   9.432 -1.5632 -0.1999 -0.3471
  123MOL0     H16215   0.949   7.260   9.336 -0.6807 -0.1460  0.9087
  123MOL0     H16216   1.102   7.500   9.221  3.0553  0.0466 -2.6400
  123MOL0     H16217   1.053   7.360   9.128  0.5936  1.6913  0.0397
  123MOL0     H16218   1.155   7.885   9.628 -0.9093 -1.4086 -0.6563
  123MOL0     H16219   1.282   8.100   9.602 -0.5211 -1.4184  1.2867
  123MOL0     H16220   1.444   8.426   9.483  0.8252 -0.6366 -0.8167
  123MOL0     H16221   1.624   8.535   9.379  0.1108 -0.9054 -1.0119
  123MOL0     H16222   2.885   9.626   9.467 -2.5274  2.2470 -1.2212
  123MOL0     H16223   3.109   9.578   9.522  2.9642  0.8974  0.4162
  123MOL0     H16224   3.520   9.417   9.473 -0.9361  0.5132 -2.2944
  123MOL0     H16225   3.724   9.420   9.609  1.1286 -0.9919 -0.5524
  123MOL0     H16226   3.996   9.750   9.525  1.8975 -1.2332  0.4134
  123MOL0     H16227   4.090   9.659   9.634 -0.8556 -2.4428  2.1618
  123MOL0     H16228   3.990   9.911   9.682  0.5613 -0.2533  1.2802
  123MOL0     H16229   3.866   9.808   9.752  0.1080  0.7070  1.2597
  123MOL0     H16230   4.127   9.699   9.834  2.3374  1.8612 -2.5102
  123MOL0     H16231   4.012   9.781   9.944  1.2554  0.2746  0.4448
  123MOL0     H16232   4.107   9.999   9.851 -0.5514 -0.4901  2.2453
  123MOL0     H16233   4.210   9.901   9.963 -2.1917  2.3527  0.8187
  123MOL0     H16234   4.440   9.899   9.621  0.1006  0.8953 -1.0130
  123MOL0     H16235   3.792   9.825   9.494 -5.0828  1.7685 -1.4614
  123MOL0     H16236   3.582   9.819   9.381 -0.2938  1.1003  1.5143
  124MOL0     O16237   7.296   0.525   0.838 -0.0045  0.0349  0.2188
  124MOL0     C16238   7.211   0.614   0.820 -0.2529 -0.0960 -0.7673
  124MOL0     O16239   7.073   0.594   0.807 -0.2040 -0.4387 -0.1159
  124MOL0     C16240   7.013   0.474   0.843  0.2712 -0.3828 -0.2400
  124MOL0     C16241   6.907   0.444   0.761 -0.2539 -1.3551  0.8474
  124MOL0     C16242   6.822   0.341   0.794  0.1897  0.3800 -0.2154
  124MOL0     C16243   6.838   0.270   0.917 -0.0607  0.2297 -0.3258
  124MOL0     O16244   6.757   0.160   0.934  0.6080 -0.0724 -0.3777
  124MOL0     C16245   6.719   0.114   1.066  0.1860 -0.7641 -1.1180
  124MOL0     C16246   6.611   0.006   1.059  0.5151  0.0723 -0.3549
  124MOL0     C16247   6.560  -0.018   1.199  0.5924  0.1101  0.0404
  124MOL0     C16248   6.444   0.083   1.244 -0.0129  1.2318 -1.0207
  124MOL0     C16249   6.395   0.049   1.387  0.9859 -0.6378 -0.8135
  124MOL0     C16250   6.252   0.100   1.402  0.1850  0.8302 -0.4280
  124MOL0     C16251   6.189   0.045   1.529  0.3305  0.2520  0.1623
  124MOL0     C16252   6.267   0.079   1.657 -0.3385  0.3088  0.1435
  124MOL0     N16253   6.201   0.003   1.765  0.1563  0.2216 -0.0792
  124MOL0     C16254   6.127   0.042   1.873 -0.6934 -0.7715 -0.0099
  124MOL0     C16255   6.131  -0.061   1.963  0.2964  0.3810  0.4544
  124MOL0     C16256   6.071  -0.076   2.096 -0.8166 -0.7115 -0.2885
  124MOL0     C16257   6.180  -0.103   2.205  0.1817  0.1267 -0.0233
  124MOL0     C16258   6.193  -0.256   2.233  0.6983 -0.0163 -0.3010
  124MOL0     C16259   6.307  -0.283   2.334 -0.0014 -1.3448  0.2392
  124MOL0     O16260   6.433  -0.206   2.306  0.4685 -0.1207  0.7555
  124MOL0     C16261   6.513  -0.279   2.224 -0.0650 -1.3694  0.5990
  124MOL0     C16262   6.552  -0.410   2.257  0.3106 -0.0480  0.3014
  124MOL0     C16263   6.643  -0.472   2.168  0.4271 -0.2410 -0.1944
  124MOL0     C16264   6.676  -0.415   2.042 -0.1566 -1.1352 -0.2847
  124MOL0     C16265   6.754  -0.487   1.944 -0.0222  0.3730 -0.0103
  124MOL0     O16266   6.840  -0.577   1.979 -0.7311  0.8011  0.3973
  124MOL0     C16267   6.937  -0.649   1.911 -0.0241  0.3810  0.5034
  124MOL0     C16268   6.993  -0.751   1.990 -0.2430  0.4196 -0.2784
  124MOL0     C16269   7.097  -0.832   1.951  0.0286 -0.6936  0.7665
  124MOL0     C16270   7.155  -0.810   1.829  0.8209  0.9101  1.1378
  124MOL0     O16271   7.244  -0.901   1.775 -0.5843 -0.1812  0.2988
  124MOL0     C16272   7.327  -0.964   1.871  0.7352  0.8496 -0.6168
  124MOL0     C16273   7.458  -1.011   1.811 -0.0684  0.6925  0.0887
  124MOL0     C16274   7.440  -1.086   1.674  0.1168 -0.4147 -0.6043
  124MOL0     C16275   7.570  -1.147   1.617 -0.2280 -0.1137 -0.2525
  124MOL0     C16276   7.534  -1.213   1.481  0.4217 -0.6592  0.2707
  124MOL0     C16277   7.652  -1.297   1.422  0.7633  0.9242  0.2395
  124MOL0     C16278   7.619  -1.386   1.294 -0.0807 -0.0829  0.0162
  124MOL0     C16279   7.535  -1.319   1.189 -0.3929  0.1341 -1.3137
  124MOL0    Cl16280   7.529  -1.434   1.056  0.1953  0.1060 -0.2171
  124MOL0     C16281   7.094  -0.714   1.737  1.0740  0.5205 -0.1725
  124MOL0     C16282   6.987  -0.635   1.786 -1.0366 -0.6174  0.5047
  124MOL0     O16283   6.737  -0.454   1.830  0.1589 -0.7287 -0.0396
  124MOL0     C16284   6.633  -0.285   2.008  0.6544 -0.7840 -0.1922
  124MOL0     C16285   6.558  -0.208   2.106  0.0031 -0.5345  0.1325
  124MOL0     N16286   6.194  -0.169   1.898 -0.3834 -0.2856 -0.4763
  124MOL0     N16287   6.250  -0.119   1.793  1.2434 -0.0650 -0.0582
  124MOL0     C16288   6.949   0.307   1.008  0.4333 -0.7465  0.5560
  124MOL0     C16289   7.034   0.410   0.966 -0.5309 -0.0610  0.2261
  124MOL0     C16290   7.264   0.754   0.803  0.0688  0.1151  0.1527
  124MOL0     C16291   7.396   0.781   0.846 -0.0158 -0.2711 -0.7372
  124MOL0     C16292   7.451   0.909   0.831  0.1968 -0.6442  0.5973
  124MOL0     C16293   7.382   1.009   0.760 -0.1732  0.2365 -0.4076
  124MOL0     O16294   7.418   1.139   0.741  0.6263  0.0758 -0.4162
  124MOL0     C16295   7.539   1.182   0.808  0.1791 -0.6500  0.2699
  124MOL0     C16296   7.580   1.326   0.794  0.0913 -0.2884  0.6055
  124MOL0     C16297   7.460   1.431   0.816 -0.8517  0.6504 -0.1074
  124MOL0     C16298   7.444   1.547   0.730 -0.8453  0.3320  0.3110
  124MOL0     C16299   7.350   1.516   0.623 -0.5415 -0.0244  0.3078
  124MOL0     C16300   7.261   1.497   0.540 -0.0831 -0.2475 -0.0507
  124MOL0     C16301   7.258   0.977   0.708  0.9497  0.5611  0.2211
  124MOL0     C16302   7.196   0.854   0.739  0.5636 -0.4187 -0.0444
  124MOL0     H16303   6.880   0.486   0.664 -2.9195 -0.5318  1.8521
  124MOL0     H16304   6.742   0.324   0.722 -0.3481  1.1200  0.1916
  124MOL0     H16305   6.700   0.202   1.128 -0.2774 -1.1219 -0.7550
  124MOL0     H16306   6.812   0.073   1.106  1.6793 -0.4515 -3.9725
  124MOL0     H16307   6.667  -0.080   1.021 -0.7896 -1.5100  1.1303
  124MOL0     H16308   6.533   0.032   0.986 -1.2703  0.2156  1.5113
  124MOL0     H16309   6.636  -0.029   1.277  2.1362 -0.5583 -1.4783
  124MOL0     H16310   6.513  -0.116   1.192 -0.1225  0.4776 -0.3400
  124MOL0     H16311   6.480   0.186   1.249  1.3194  0.7142  1.2235
  124MOL0     H16312   6.362   0.078   1.173  0.5319 -2.3150 -1.5593
  124MOL0     H16313   6.453   0.100   1.464 -2.9619  2.8420  0.2844
  124MOL0     H16314   6.407  -0.058   1.401  0.4374 -0.6949 -0.7451
  124MOL0     H16315   6.187   0.072   1.319 -2.1126 -1.4366  1.9434
  124MOL0     H16316   6.248   0.209   1.397 -2.8307  0.7539 -1.3133
  124MOL0     H16317   6.086   0.076   1.550  0.3606 -0.0753  0.8377
  124MOL0     H16318   6.188  -0.063   1.513  1.9674  0.3735 -1.0205
  124MOL0     H16319   6.267   0.186   1.679 -1.1820  0.1648  0.8696
  124MOL0     H16320   6.371   0.046   1.647 -0.6080 -0.9052  1.0660
  124MOL0     H16321   6.084   0.138   1.896  1.1904 -0.2847  1.8639
  124MOL0     H16322   5.990  -0.150   2.096 -1.2990 -0.2236  1.0724
  124MOL0     H16323   6.032   0.022   2.124  1.3124  0.7739 -2.2511
  124MOL0     H16324   6.155  -0.046   2.295 -2.1594 -0.3128 -0.3359
  124MOL0     H16325   6.274  -0.068   2.161  0.7706 -0.6642  0.5608
  124MOL0     H16326   6.099  -0.288   2.279  1.2236  0.1184  0.8920
  124MOL0     H16327   6.213  -0.309   2.140  1.6647  0.7090 -0.5188
  124MOL0     H16328   6.331  -0.389   2.327  0.3088 -1.2953  0.5579
  124MOL0     H16329   6.271  -0.254   2.433  0.6508  3.9401 -0.7570
  124MOL0     H16330   6.530  -0.462   2.350  1.7137 -1.5856 -0.1871
  124MOL0     H16331   6.669  -0.571   2.202  0.0312 -0.3630 -0.2523
  124MOL0     H16332   6.952  -0.767   2.089 -1.4514 -2.3974 -1.1195
  124MOL0     H16333   7.130  -0.907   2.023 -0.7455 -2.7650 -0.9385
  124MOL0     H16334   7.267  -1.043   1.917 -0.7841  0.8763 -2.4439
  124MOL0     H16335   7.357  -0.901   1.956 -1.7002 -1.0233  1.8314
  124MOL0     H16336   7.499  -1.074   1.891  1.0166  1.3386  0.0637
  124MOL0     H16337   7.538  -0.937   1.802  1.0055 -0.4135  0.1397
  124MOL0     H16338   7.392  -1.009   1.612  1.6733  2.0049  1.0061
  124MOL0     H16339   7.373  -1.172   1.684  1.1722 -1.1566  0.2377
  124MOL0     H16340   7.650  -1.074   1.602  1.8384 -2.3646 -0.8468
  124MOL0     H16341   7.591  -1.222   1.693 -2.1820  0.4304  0.8786
  124MOL0     H16342   7.512  -1.129   1.414 -0.4163  1.6521  3.1924
  124MOL0     H16343   7.441  -1.270   1.488 -0.4427  0.5979 -0.4386
  124MOL0     H16344   7.685  -1.368   1.499  1.7181 -0.3588 -1.2953
  124MOL0     H16345   7.739  -1.234   1.405  0.8113  0.9034  0.4004
  124MOL0     H16346   7.709  -1.420   1.241 -0.2684  0.6669 -0.8276
  124MOL0     H16347   7.568  -1.473   1.335  0.8296 -0.7937 -0.3030
  124MOL0     H16348   7.571  -1.221   1.157  1.2942 -0.1229 -0.3145
  124MOL0     H16349   7.435  -1.306   1.231 -0.7568 -2.3090 -1.2606
  124MOL0     H16350   7.132  -0.709   1.635 -0.3495 -3.2453 -1.0335
  124MOL0     H16351   6.943  -0.558   1.723 -2.9818 -0.8047  1.5557
  124MOL0     H16352   6.647  -0.234   1.913 -0.9854 -0.1290 -0.1159
  124MOL0     H16353   6.531  -0.104   2.088  0.3287 -0.6536 -1.1091
  124MOL0     H16354   6.968   0.249   1.098  0.5114  1.4080  1.9861
  124MOL0     H16355   7.116   0.441   1.029  1.8889 -2.3254 -1.6124
  124MOL0     H16356   7.452   0.713   0.909  1.5440  1.3248 -0.3109
  124MOL0     H16357   7.546   0.930   0.878 -0.2219 -1.7640  2.0009
  124MOL0     H16358   7.622   1.130   0.758 -1.0934 -0.2984 -2.3995
  124MOL0     H16359   7.541   1.159   0.915  3.1603 -0.6200  0.2949
  124MOL0     H16360   7.655   1.348   0.871  0.1773  3.2327 -0.3288
  124MOL0     H16361   7.627   1.345   0.697 -1.4516  0.3023 -0.0546
  124MOL0     H16362   7.486   1.475   0.913  0.8251 -1.0898  0.2956
  124MOL0     H16363   7.364   1.382   0.834  0.0029 -1.1567 -0.2844
  124MOL0     H16364   7.415   1.632   0.792  1.0808 -0.6454  2.6989
  124MOL0     H16365   7.539   1.580   0.687  1.3044 -2.8382  2.2157
  124MOL0     H16366   7.186   1.468   0.469 -1.5124 -0.1196  1.3282
  124MOL0     H16367   7.203   1.047   0.645 -0.1302 -0.3381  0.1400
  124MOL0     H16368   7.095   0.856   0.700  0.6876  0.4445 -0.3405
  125MOL0     O16369   9.174   1.024   2.766 -0.0509 -0.9508  0.0323
  125MOL0     C16370   9.193   0.926   2.836 -0.1008 -0.9170 -0.6004
  125MOL0     O16371   9.098   0.857   2.903 -0.1509 -1.1601  0.6536
  125MOL0     C16372   8.973   0.862   2.859 -0.5632  0.4492  0.3261
  125MOL0     C16373   8.887   0.968   2.877 -1.0458 -0.5998 -0.0358
  125MOL0     C16374   8.748   0.948   2.860  1.0539  0.2937 -0.2731
  125MOL0     C16375   8.690   0.827   2.817 -1.4003  0.2729 -1.7622
  125MOL0     O16376   8.558   0.813   2.812 -0.4176  0.1823  0.2936
  125MOL0     C16377   8.466   0.921   2.780 -0.6492  0.7018 -0.2180
  125MOL0     C16378   8.358   0.891   2.670 -0.1520  0.1953 -0.3495
  125MOL0     C16379   8.327   1.007   2.575 -0.2417  0.3617  0.1010
  125MOL0     C16380   8.263   1.128   2.637  0.6799  1.0375  1.2020
  125MOL0     C16381   8.128   1.100   2.699  0.2587 -1.1229  0.0986
  125MOL0     C16382   8.067   1.241   2.737 -0.0944  0.0337  0.0524
  125MOL0     C16383   7.929   1.225   2.794  1.2794 -0.8210  0.0070
  125MOL0     C16384   7.865   1.368   2.828  0.1549 -0.3796  0.2787
  125MOL0     N16385   7.764   1.414   2.733  0.1279 -0.1224  0.3667
  125MOL0     C16386   7.778   1.418   2.595  0.1297  1.3538 -0.1427
  125MOL0     C16387   7.660   1.473   2.551 -1.0370  0.1558 -0.2280
  125MOL0     C16388   7.631   1.516   2.411  0.4477 -1.2316  0.0500
  125MOL0     C16389   7.486   1.573   2.392  0.0805  0.2143  0.0868
  125MOL0     C16390   7.416   1.511   2.263  0.8097 -0.3306  0.0359
  125MOL0     C16391   7.268   1.564   2.264 -0.0464  0.4199  0.1085
  125MOL0     O16392   7.203   1.492   2.154 -0.2901 -0.1253  0.0433
  125MOL0     C16393   7.066   1.484   2.141  0.5735  0.9889  0.1842
  125MOL0     C16394   6.975   1.571   2.194  1.0252  0.2278 -0.0457
  125MOL0     C16395   6.832   1.555   2.176  0.5850  0.5104 -0.8289
  125MOL0     C16396   6.780   1.457   2.090 -0.2703 -0.0489 -0.8418
  125MOL0     C16397   6.628   1.457   2.070 -0.9883 -0.0029 -0.1788
  125MOL0     O16398   6.544   1.526   2.155  0.0752 -0.9277  0.1794
  125MOL0     C16399   6.410   1.503   2.141  0.9660  0.5990 -0.2360
  125MOL0     C16400   6.342   1.464   2.029 -0.3333 -0.5657 -0.0680
  125MOL0     C16401   6.205   1.446   2.029 -0.0632  0.5639 -0.3583
  125MOL0     C16402   6.130   1.459   2.148  0.7947 -0.8320 -1.1677
  125MOL0     O16403   5.991   1.449   2.172 -0.3120 -0.0850  0.1479
  125MOL0     C16404   5.916   1.404   2.060 -0.8758  0.2316 -1.0112
  125MOL0     C16405   5.773   1.387   2.098  0.9527  0.5726 -0.1404
  125MOL0     C16406   5.699   1.279   2.016  0.0867 -0.6806  0.1870
  125MOL0     C16407   5.546   1.277   2.029 -1.1459  1.0849 -0.7640
  125MOL0     C16408   5.486   1.380   1.921  0.5423 -0.5214 -0.4572
  125MOL0     C16409   5.344   1.329   1.885  0.1763  0.3913  0.6845
  125MOL0     C16410   5.280   1.420   1.772  1.0074  0.7121  1.0106
  125MOL0     C16411   5.174   1.335   1.709 -0.9187  0.2759  1.1011
  125MOL0    Cl16412   5.085   1.416   1.567  0.2132 -0.0019 -0.4034
  125MOL0     C16413   6.198   1.485   2.268 -0.4267 -0.2270  0.0389
  125MOL0     C16414   6.334   1.509   2.262 -0.5785  0.1287 -0.4895
  125MOL0     O16415   6.599   1.373   1.984 -0.4288  0.3777 -0.1076
  125MOL0     C16416   6.875   1.359   2.041 -0.0720  0.3479 -0.5636
  125MOL0     C16417   7.016   1.379   2.052  0.4528 -0.4218 -0.1166
  125MOL0     N16418   7.587   1.495   2.664 -0.1088 -0.0545 -0.4004
  125MOL0     N16419   7.643   1.455   2.764 -0.0531  0.1767  0.5997
  125MOL0     C16420   8.781   0.718   2.803 -0.0470  0.4621 -0.4254
  125MOL0     C16421   8.924   0.732   2.816 -0.6708 -0.4928  0.2561
  125MOL0     C16422   9.336   0.897   2.852  0.0316 -0.2555  0.3929
  125MOL0     C16423   9.421   0.917   2.751 -0.1370 -0.1688  0.3984
  125MOL0     C16424   9.562   0.912   2.762 -0.1335 -0.5216  0.0633
  125MOL0     C16425   9.621   0.868   2.876  0.9421 -0.2424  0.0673
  125MOL0     O16426   9.757   0.844   2.890 -0.5398 -0.6498  0.2550
  125MOL0     C16427   9.819   0.950   2.959  0.4151  0.4445  0.2631
  125MOL0     C16428   9.971   0.953   2.937  0.4481 -0.9145 -0.4101
  125MOL0     C16429  10.008   0.982   2.789 -0.2024  0.5844  0.7472
  125MOL0     C16430  10.155   0.971   2.762 -0.0997 -0.3823  0.4965
  125MOL0     C16431  10.185   0.989   2.619 -0.1553  0.3498  0.0416
  125MOL0     C16432  10.206   1.002   2.502  0.0306  0.1311 -0.4980
  125MOL0     C16433   9.534   0.853   2.983  0.6715 -0.7390 -0.9960
  125MOL0     C16434   9.390   0.872   2.976 -0.5341 -0.0180 -0.1820
  125MOL0     H16435   8.923   1.064   2.912  0.3401  0.0790 -3.0129
  125MOL0     H16436   8.688   1.038   2.868  1.0194  0.1067  2.3731
  125MOL0     H16437   8.522   1.011   2.752 -0.1107  0.5764  0.4498
  125MOL0     H16438   8.415   0.947   2.873  0.8411 -3.1880  1.9137
  125MOL0     H16439   8.266   0.875   2.727  0.5584 -0.5722  0.6168
  125MOL0     H16440   8.391   0.807   2.608  1.2307 -0.0563  0.6458
  125MOL0     H16441   8.264   0.963   2.497  1.8944  2.3846 -3.0045
  125MOL0     H16442   8.423   1.035   2.532 -0.3672 -0.6964 -0.9316
  125MOL0     H16443   8.334   1.174   2.706 -1.2474  2.6776  2.2267
  125MOL0     H16444   8.241   1.200   2.556 -3.5111 -0.3073  0.8682
  125MOL0     H16445   8.128   1.051   2.797  2.2369 -1.0404  0.1786
  125MOL0     H16446   8.081   1.041   2.619 -0.9771  0.8538 -0.7252
  125MOL0     H16447   8.067   1.302   2.647  0.8390  0.6765  0.4797
  125MOL0     H16448   8.127   1.294   2.811  1.0894 -1.9350  0.5918
  125MOL0     H16449   7.860   1.175   2.725  1.4971 -0.8270 -0.2079
  125MOL0     H16450   7.932   1.178   2.892  2.2714  1.6349  1.2277
  125MOL0     H16451   7.944   1.443   2.818  1.9179 -2.2525 -0.4569
  125MOL0     H16452   7.820   1.369   2.928 -0.1494 -0.3495  0.1422
  125MOL0     H16453   7.869   1.412   2.536  0.4351  0.8964  0.3641
  125MOL0     H16454   7.651   1.434   2.342  1.0260 -0.0044 -1.3037
  125MOL0     H16455   7.688   1.606   2.385  0.8943 -1.4004  0.4426
  125MOL0     H16456   7.471   1.681   2.405  1.8381  0.4542  0.3297
  125MOL0     H16457   7.419   1.540   2.472  0.3093  3.1852  1.6475
  125MOL0     H16458   7.463   1.538   2.169 -0.2941 -0.2826 -0.5133
  125MOL0     H16459   7.424   1.402   2.271  1.6046 -0.2321  0.8177
  125MOL0     H16460   7.278   1.670   2.239  3.3269  0.0877 -0.3857
  125MOL0     H16461   7.213   1.543   2.357  2.3412 -0.3209  1.4220
  125MOL0     H16462   7.013   1.649   2.259  3.6267 -1.0534  0.1263
  125MOL0     H16463   6.763   1.612   2.237 -1.8672 -1.7554 -1.2871
  125MOL0     H16464   6.390   1.451   1.933 -0.9235 -0.8671 -0.3224
  125MOL0     H16465   6.158   1.444   1.931  1.1562  0.9669 -0.9798
  125MOL0     H16466   5.952   1.302   2.043 -0.1721 -0.5940  3.9266
  125MOL0     H16467   5.918   1.476   1.978  1.1648  1.2562 -0.1417
  125MOL0     H16468   5.723   1.483   2.084  0.4739  0.7058  2.0930
  125MOL0     H16469   5.756   1.358   2.202 -1.7770 -3.3999 -1.4772
  125MOL0     H16470   5.739   1.181   2.044 -0.1889 -0.7230  0.4361
  125MOL0     H16471   5.722   1.307   1.912 -1.1785 -0.5913 -0.0838
  125MOL0     H16472   5.521   1.174   2.001 -0.9276  0.9928 -0.6147
  125MOL0     H16473   5.521   1.286   2.135 -2.6175 -2.7643 -0.6046
  125MOL0     H16474   5.541   1.374   1.826 -0.2081  0.2250 -0.9555
  125MOL0     H16475   5.479   1.480   1.966  1.6261 -1.0898  1.0356
  125MOL0     H16476   5.283   1.337   1.975 -0.2792 -0.5127  0.4669
  125MOL0     H16477   5.349   1.225   1.851 -1.2233 -0.1616  2.0756
  125MOL0     H16478   5.231   1.506   1.819 -0.6985 -0.2362  1.0431
  125MOL0     H16479   5.350   1.446   1.693  3.5897 -3.3943  1.6318
  125MOL0     H16480   5.087   1.325   1.775 -3.0132 -0.6833 -1.5974
  125MOL0     H16481   5.208   1.239   1.668 -0.1042  1.8220 -2.1733
  125MOL0     H16482   6.143   1.506   2.360 -3.3623  0.2750 -1.6920
  125MOL0     H16483   6.385   1.533   2.354  2.1902 -0.2706 -1.8305
  125MOL0     H16484   6.834   1.277   1.984 -0.0675  0.3867 -0.6220
  125MOL0     H16485   7.094   1.313   2.014 -0.2473 -0.2886 -1.8731
  125MOL0     H16486   8.741   0.626   2.762  1.0194 -0.2063  0.0099
  125MOL0     H16487   9.000   0.656   2.830 -0.9517 -0.5703  1.4634
  125MOL0     H16488   9.385   0.948   2.653 -0.6386  1.4509  1.0436
  125MOL0     H16489   9.628   0.932   2.678 -1.4396 -3.5710 -1.8849
  125MOL0     H16490   9.813   0.946   3.068 -0.9050  4.0548  0.4834
  125MOL0     H16491   9.769   1.041   2.923 -2.2526 -1.9854 -2.7024
  125MOL0     H16492  10.017   1.029   3.000 -2.2066 -0.8977  1.7385
  125MOL0     H16493  10.015   0.854   2.955  0.1992 -0.8723  0.4843
  125MOL0     H16494   9.975   1.081   2.756 -1.8746 -0.4575 -0.8485
  125MOL0     H16495   9.959   0.911   2.722  1.4268  0.1433 -0.0355
  125MOL0     H16496  10.204   1.053   2.816  0.5527  1.0035 -2.0486
  125MOL0     H16497  10.202   0.879   2.798  1.0179 -0.0408 -0.0485
  125MOL0     H16498  10.225   1.006   2.397  0.0614  0.3402 -0.4838
  125MOL0     H16499   9.574   0.848   3.084 -2.8965  1.4583  0.7147
  125MOL0     H16500   9.327   0.868   3.064 -0.6193  1.2136 -0.1689
  126MOL0     O16501   1.039   5.976   0.278  0.0886 -0.6614 -0.5236
  126MOL0     C16502   1.098   6.084   0.267  0.4240 -0.3586  0.7765
  126MOL0     O16503   1.045   6.199   0.207 -0.0771 -0.1095  0.4341
  126MOL0     C16504   0.922   6.197   0.143  0.0701  0.4236  0.8693
  126MOL0     C16505   0.838   6.302   0.155 -0.5825 -0.5035 -0.5967
  126MOL0     C16506   0.708   6.306   0.109 -0.0221 -0.0800  0.7491
  126MOL0     C16507   0.664   6.194   0.039 -0.2338 -0.4407  0.1022
  126MOL0     O16508   0.533   6.203   0.011  0.2216  0.1483 -0.4718
  126MOL0     C16509   0.471   6.073  -0.003 -0.6430 -0.2993 -0.6469
  126MOL0     C16510   0.320   6.083   0.022 -1.0132 -0.1031  0.2904
  126MOL0     C16511   0.236   6.093  -0.108  0.8605  0.7509  0.0939
  126MOL0     C16512   0.094   6.052  -0.076  0.4098 -0.6939  0.6013
  126MOL0     C16513   0.010   6.071  -0.200 -0.1069 -0.2898 -0.6742
  126MOL0     C16514  -0.113   5.979  -0.177  0.4383 -1.0328 -0.4881
  126MOL0     C16515  -0.218   6.025  -0.279 -0.2852 -0.4811  0.5740
  126MOL0     C16516  -0.319   5.916  -0.309 -0.5232 -0.1644  0.2181
  126MOL0     N16517  -0.380   5.862  -0.187 -0.9528  0.3847  0.1871
  126MOL0     C16518  -0.450   5.937  -0.098  0.2726 -0.1245  0.1180
  126MOL0     C16519  -0.469   5.860   0.009  0.9398  0.4158 -0.1317
  126MOL0     C16520  -0.557   5.897   0.126 -0.7790  0.1782 -0.9840
  126MOL0     C16521  -0.707   5.874   0.105  0.7076 -0.1509 -0.3324
  126MOL0     C16522  -0.756   5.914  -0.036 -0.7295  1.0984 -0.1543
  126MOL0     C16523  -0.906   5.915  -0.042 -0.7830 -0.2986 -0.1472
  126MOL0     O16524  -0.944   5.956  -0.176 -0.0282  0.3741  0.6175
  126MOL0     C16525  -1.078   5.978  -0.205 -0.7518 -0.5856  0.5896
  126MOL0     C16526  -1.120   6.018  -0.329 -0.3750 -0.3663 -0.4508
  126MOL0     C16527  -1.257   6.032  -0.365  0.1266 -0.2940  0.0491
  126MOL0     C16528  -1.353   6.006  -0.276 -0.3675  0.6034  0.3603
  126MOL0     C16529  -1.493   6.015  -0.325  0.4783  0.4773 -0.4374
  126MOL0     O16530  -1.525   6.010  -0.453 -0.1665 -0.5944  0.3501
  126MOL0     C16531  -1.656   6.004  -0.488 -0.1928  0.1538  0.3405
  126MOL0     C16532  -1.721   5.887  -0.489  0.4970 -0.3876 -0.3484
  126MOL0     C16533  -1.854   5.864  -0.518 -0.4084 -0.5292 -0.0122
  126MOL0     C16534  -1.924   5.978  -0.572 -1.0923  0.6628  0.9930
  126MOL0     O16535  -2.059   5.975  -0.617 -0.2784 -0.3236  0.4961
  126MOL0     C16536  -2.108   5.843  -0.652 -0.6531  0.3865 -0.0596
  126MOL0     C16537  -2.211   5.854  -0.751  0.2877  0.2643 -0.2321
  126MOL0     C16538  -2.287   5.715  -0.767 -0.4903 -0.1192 -0.3871
  126MOL0     C16539  -2.414   5.722  -0.863  0.5285 -0.6138 -0.4625
  126MOL0     C16540  -2.548   5.714  -0.793  0.4738 -0.5135 -0.5093
  126MOL0     C16541  -2.670   5.745  -0.882 -0.2706  0.1044  0.7748
  126MOL0     C16542  -2.669   5.889  -0.938 -0.3425 -0.2790 -0.4530
  126MOL0     C16543  -2.692   6.002  -0.839  0.2380 -0.1113 -0.7802
  126MOL0    Cl16544  -2.700   6.157  -0.927 -0.3757  0.3966 -0.0498
  126MOL0     C16545  -1.853   6.099  -0.581 -0.2711 -0.6009  0.6311
  126MOL0     C16546  -1.720   6.110  -0.545  0.8182 -0.1752  0.4687
  126MOL0     O16547  -1.575   6.024  -0.236 -0.3605  0.6979 -0.0821
  126MOL0     C16548  -1.315   5.973  -0.141 -0.0888  0.3236  0.0889
  126MOL0     C16549  -1.179   5.963  -0.113  0.2981 -0.7552 -0.3408
  126MOL0     N16550  -0.417   5.734  -0.015  0.3477  0.1692  0.2240
  126MOL0     N16551  -0.350   5.742  -0.130 -0.2944  0.4637  0.2328
  126MOL0     C16552   0.750   6.089   0.005  0.2831  0.9916 -0.8125
  126MOL0     C16553   0.878   6.090   0.068  0.2793  0.1184  0.9300
  126MOL0     C16554   1.230   6.094   0.317 -0.0463  0.5404 -0.3981
  126MOL0     C16555   1.295   5.985   0.391 -0.5820  0.6351  0.2606
  126MOL0     C16556   1.416   5.998   0.453  0.6796 -0.3403  0.1166
  126MOL0     C16557   1.484   6.119   0.443  1.0380 -0.6435  0.4983
  126MOL0     O16558   1.609   6.148   0.492  0.3132  0.3576 -0.1148
  126MOL0     C16559   1.690   6.044   0.565 -0.0077  0.4402 -0.6494
  126MOL0     C16560   1.642   6.022   0.707 -0.4915 -0.4416 -0.5499
  126MOL0     C16561   1.743   5.936   0.789 -0.3864  0.1383 -0.4592
  126MOL0     C16562   1.898   5.970   0.790 -0.3469 -0.2780 -0.1480
  126MOL0     C16563   1.966   5.912   0.907 -0.1311  0.2849 -0.1563
  126MOL0     C16564   2.005   5.861   1.006 -0.6158  0.7141  0.3033
  126MOL0     C16565   1.419   6.227   0.373 -0.4754 -0.6482  1.1092
  126MOL0     C16566   1.295   6.218   0.306  0.1045  0.3104 -0.0843
  126MOL0     H16567   0.873   6.385   0.216  1.0788  0.2463 -2.4588
  126MOL0     H16568   0.631   6.379   0.133 -0.6323 -0.6863  0.6772
  126MOL0     H16569   0.504   6.006   0.077  2.9967  3.9629  1.9230
  126MOL0     H16570   0.493   6.020  -0.096 -2.0569 -1.3237 -0.4246
  126MOL0     H16571   0.316   6.179   0.074 -2.4715  1.4975 -2.5229
  126MOL0     H16572   0.287   6.002   0.088 -2.0061 -1.0689 -1.3107
  126MOL0     H16573   0.284   6.036  -0.188 -0.4161 -0.2815  0.0323
  126MOL0     H16574   0.231   6.196  -0.144  2.5264  0.7005 -0.3756
  126MOL0     H16575   0.088   5.946  -0.050 -0.0051 -0.3057  2.1745
  126MOL0     H16576   0.049   6.104   0.010 -1.2431 -2.4264  0.8531
  126MOL0     H16577   0.064   6.053  -0.293 -0.4163  0.4503 -1.0151
  126MOL0     H16578  -0.015   6.178  -0.210  1.4034  0.0470 -1.0869
  126MOL0     H16579  -0.152   5.988  -0.076  1.8703  1.0860 -0.0526
  126MOL0     H16580  -0.084   5.876  -0.199  0.7563 -0.9004 -0.7017
  126MOL0     H16581  -0.276   6.109  -0.240  1.4538  0.3631  1.5011
  126MOL0     H16582  -0.159   6.050  -0.368 -0.4134 -2.3101 -0.0705
  126MOL0     H16583  -0.271   5.836  -0.365 -3.3479 -2.3217  0.6805
  126MOL0     H16584  -0.405   5.949  -0.368 -0.0092 -0.3381 -0.6439
  126MOL0     H16585  -0.489   6.038  -0.104 -1.9801 -0.6978  2.9764
  126MOL0     H16586  -0.538   5.999   0.161  0.4458 -0.7694  1.3653
  126MOL0     H16587  -0.531   5.838   0.214 -1.3169  2.0955  0.5386
  126MOL0     H16588  -0.750   5.937   0.183 -0.8751  0.7326 -1.8364
  126MOL0     H16589  -0.741   5.774   0.136  0.7466  0.5249  2.0456
  126MOL0     H16590  -0.719   6.016  -0.052  0.8106  0.4175 -1.1906
  126MOL0     H16591  -0.716   5.845  -0.111  1.9582  2.6608 -0.2696
  126MOL0     H16592  -0.948   5.994   0.021  2.4728  1.0881  0.5152
  126MOL0     H16593  -0.942   5.816  -0.013 -1.1979 -0.3895 -0.9620
  126MOL0     H16594  -1.040   6.033  -0.401  2.0766 -0.9971  1.9684
  126MOL0     H16595  -1.281   6.057  -0.468 -0.6308  1.0212  0.5232
  126MOL0     H16596  -1.666   5.812  -0.431  2.3872 -0.5582 -2.2515
  126MOL0     H16597  -1.893   5.763  -0.511  2.2300 -1.6377 -0.1346
  126MOL0     H16598  -2.149   5.789  -0.567 -0.1770 -2.5567 -1.5595
  126MOL0     H16599  -2.029   5.786  -0.703 -1.3159 -0.2727 -0.3609
  126MOL0     H16600  -2.161   5.875  -0.846  1.6258  0.5126  0.5059
  126MOL0     H16601  -2.282   5.931  -0.719  1.6031  1.4982 -0.2174
  126MOL0     H16602  -2.313   5.684  -0.666 -4.0500  0.2181 -1.0653
  126MOL0     H16603  -2.226   5.630  -0.799 -0.3116 -0.0426 -0.2486
  126MOL0     H16604  -2.411   5.817  -0.918 -2.6539 -0.6245 -0.8277
  126MOL0     H16605  -2.404   5.643  -0.938  0.4540 -1.4825  0.4234
  126MOL0     H16606  -2.554   5.764  -0.696 -0.0385  1.1019 -1.3455
  126MOL0     H16607  -2.565   5.607  -0.779 -2.4877 -0.5715 -3.3048
  126MOL0     H16608  -2.763   5.719  -0.830 -0.1261 -1.6737  0.2137
  126MOL0     H16609  -2.664   5.683  -0.972  1.6370 -0.4853  1.2577
  126MOL0     H16610  -2.570   5.903  -0.983  0.5032 -1.6303  0.8928
  126MOL0     H16611  -2.748   5.909  -1.011 -2.0299  1.9861  1.8303
  126MOL0     H16612  -2.623   5.999  -0.754 -0.0789  0.3402 -0.5020
  126MOL0     H16613  -2.789   5.976  -0.796 -0.1136 -0.7409 -1.8955
  126MOL0     H16614  -1.904   6.183  -0.627  1.0924 -1.4936 -2.7650
  126MOL0     H16615  -1.677   6.210  -0.543 -1.3619  0.8207  2.2066
  126MOL0     H16616  -1.396   5.954  -0.071 -1.6467  0.6079 -1.5682
  126MOL0     H16617  -1.169   5.937  -0.008 -0.6609  0.2748  0.0288
  126MOL0     H16618   0.717   6.005  -0.056  1.1116  1.2068 -1.5836
  126MOL0     H16619   0.944   6.006   0.050 -1.9263 -1.2793 -1.4778
  126MOL0     H16620   1.237   5.894   0.397  1.5948 -0.8329  0.0843
  126MOL0     H16621   1.455   5.912   0.506  2.8658  1.5880  1.8332
  126MOL0     H16622   1.796   6.071   0.563  0.7600 -2.0079  1.5528
  126MOL0     H16623   1.689   5.948   0.514  2.1802 -0.1683  0.3326
  126MOL0     H16624   1.633   6.121   0.753 -1.0719  0.0102 -1.6143
  126MOL0     H16625   1.548   5.967   0.707 -0.8089 -0.0358  2.2166
  126MOL0     H16626   1.724   5.832   0.760  0.6436 -1.0648  2.7644
  126MOL0     H16627   1.715   5.942   0.894  0.0092  1.4644 -0.4076
  126MOL0     H16628   1.951   5.931   0.703 -0.3690 -0.7813  0.0618
  126MOL0     H16629   1.906   6.079   0.795 -1.4544 -0.2459  1.4985
  126MOL0     H16630   2.047   5.813   1.092  1.4840 -1.8829 -1.9985
  126MOL0     H16631   1.472   6.320   0.357 -1.6348  0.3910  3.0233
  126MOL0     H16632   1.254   6.307   0.260  2.5263  3.1325  2.7434
  127MOL0     O16633   2.487  10.360   3.516  0.3205  0.6111 -0.3670
  127MOL0     C16634   2.567  10.292   3.459  1.0117  0.3924  0.2249
  127MOL0     O16635   2.536  10.178   3.385  1.1423  0.2915 -0.8665
  127MOL0     C16636   2.407  10.144   3.395 -1.0455  0.0384 -0.3702
  127MOL0     C16637   2.307  10.213   3.326 -0.0750 -0.4802  0.0703
  127MOL0     C16638   2.181  10.157   3.329  0.7165 -0.2545 -0.1090
  127MOL0     C16639   2.148  10.043   3.408  0.5096 -0.3324  1.1804
  127MOL0     O16640   2.023   9.982   3.422 -0.2745  0.4857 -0.0842
  127MOL0     C16641   1.916  10.071   3.467 -0.3192  0.8791 -0.0974
  127MOL0     C16642   1.791   9.992   3.439  0.5028  0.0860  0.6910
  127MOL0     C16643   1.721   9.937   3.566  0.0151  0.6009 -0.2205
  127MOL0     C16644   1.572   9.917   3.525  0.2663  0.3428 -0.0996
  127MOL0     C16645   1.502   9.815   3.619 -0.3095  0.1065  0.6151
  127MOL0     C16646   1.408   9.882   3.715  0.3815 -0.6203 -0.1353
  127MOL0     C16647   1.484   9.958   3.822  0.7636  0.0787  0.3180
  127MOL0     C16648   1.406   9.982   3.947  0.0725 -0.7373  0.1258
  127MOL0     N16649   1.276  10.050   3.917  0.2460 -0.1776 -1.0309
  127MOL0     C16650   1.160   9.989   3.878 -0.5622 -0.1529 -0.5351
  127MOL0     C16651   1.086  10.088   3.811 -0.1136  0.5361  0.3486
  127MOL0     C16652   0.955  10.078   3.735 -0.3292 -0.1939  0.0344
  127MOL0     C16653   0.855  10.182   3.794 -0.2870  0.6835  0.0461
  127MOL0     C16654   0.794  10.126   3.924 -0.2660  0.5392 -0.0339
  127MOL0     C16655   0.690  10.220   3.979  0.7727  0.1850  0.3593
  127MOL0     O16656   0.564  10.191   3.911 -0.0042 -0.6467 -0.3820
  127MOL0     C16657   0.443  10.244   3.955  0.5082 -1.2700 -0.8088
  127MOL0     C16658   0.322  10.213   3.885  0.0026  0.4096 -0.1342
  127MOL0     C16659   0.195  10.224   3.942 -0.0632  0.2010 -0.6948
  127MOL0     C16660   0.177  10.296   4.060  0.3749 -1.2110  0.1460
  127MOL0     C16661   0.049  10.316   4.126  0.7506  1.0078 -0.7935
  127MOL0     O16662  -0.057  10.280   4.049 -0.6096  0.8356  0.1776
  127MOL0     C16663  -0.180  10.296   4.110  0.5308  0.4321 -0.4924
  127MOL0     C16664  -0.269  10.199   4.147 -1.4920 -0.2236 -0.0557
  127MOL0     C16665  -0.400  10.214   4.186 -0.1429  0.0024 -0.7355
  127MOL0     C16666  -0.444  10.349   4.183  0.5676  1.1667  0.8843
  127MOL0     O16667  -0.576  10.391   4.210  0.2837  0.1019  0.0560
  127MOL0     C16668  -0.666  10.300   4.287 -1.2835 -0.8612 -0.8732
  127MOL0     C16669  -0.753  10.207   4.199 -0.0592  0.2847 -1.0655
  127MOL0     C16670  -0.820  10.095   4.275  0.1868 -0.2581 -0.6926
  127MOL0     C16671  -0.916  10.140   4.383  0.8986 -0.2086 -0.4062
  127MOL0     C16672  -1.031  10.230   4.320  0.3834 -0.7558 -0.4535
  127MOL0     C16673  -1.109  10.298   4.427  0.4573  0.7353 -0.2001
  127MOL0     C16674  -1.199  10.409   4.378  1.3574 -0.3994  0.8253
  127MOL0     C16675  -1.321  10.434   4.468  0.1865  0.1736 -0.3365
  127MOL0    Cl16676  -1.266  10.477   4.634  0.0486 -0.5948 -0.0177
  127MOL0     C16677  -0.364  10.451   4.145  1.1257  0.7233  0.2713
  127MOL0     C16678  -0.231  10.427   4.106  0.0361 -0.1181 -0.0138
  127MOL0     O16679   0.042  10.345   4.243  0.9526 -0.2684 -0.0296
  127MOL0     C16680   0.291  10.335   4.126 -0.6186 -1.1424  0.5208
  127MOL0     C16681   0.423  10.308   4.082 -0.0414  0.1735  0.3115
  127MOL0     N16682   1.155  10.204   3.828  0.0994  0.0334  0.9680
  127MOL0     N16683   1.268  10.180   3.879 -0.4435  0.2052 -0.3925
  127MOL0     C16684   2.255   9.978   3.472  0.4436 -0.3741  0.0175
  127MOL0     C16685   2.383  10.030   3.467  0.2341 -0.3844 -0.4725
  127MOL0     C16686   2.716  10.328   3.470 -0.7576 -0.1170  0.2559
  127MOL0     C16687   2.753  10.452   3.527 -0.0807 -0.1882 -0.4592
  127MOL0     C16688   2.886  10.471   3.547  0.2318 -0.1951 -0.4544
  127MOL0     C16689   2.987  10.379   3.517 -0.1953 -0.6134  1.0346
  127MOL0     O16690   3.118  10.404   3.549 -0.4588  0.2889  0.6480
  127MOL0     C16691   3.201  10.424   3.427 -0.4083 -0.0081 -0.1257
  127MOL0     C16692   3.340  10.459   3.490 -0.0646 -0.2066  0.3294
  127MOL0     C16693   3.440  10.509   3.388  0.5446 -0.7108 -0.4668
  127MOL0     C16694   3.561  10.575   3.445 -0.0648  0.7847  0.1892
  127MOL0     C16695   3.637  10.646   3.346  0.1082 -0.7737 -0.3545
  127MOL0     C16696   3.697  10.714   3.267 -0.7057 -0.3315 -0.0784
  127MOL0     C16697   2.948  10.256   3.465 -1.0078  0.0268  0.0677
  127MOL0     C16698   2.816  10.225   3.442  0.8009  0.2270 -0.4616
  127MOL0     H16699   2.338  10.298   3.266 -0.8471  1.7839  2.6804
  127MOL0     H16700   2.099  10.201   3.274  1.4591  1.0701 -0.1988
  127MOL0     H16701   1.918  10.169   3.418  1.5915 -0.7627 -3.7381
  127MOL0     H16702   1.922  10.094   3.573  1.6377  0.4573 -0.0788
  127MOL0     H16703   1.807   9.913   3.365 -1.6846  1.2700 -1.1704
  127MOL0     H16704   1.720  10.061   3.392  1.2829  2.2120  2.4214
  127MOL0     H16705   1.740  10.010   3.645 -0.4068  0.9257 -0.4158
  127MOL0     H16706   1.766   9.841   3.592  0.0288 -0.2422 -3.0564
  127MOL0     H16707   1.526  10.015   3.513  2.0352  1.1069 -1.0053
  127MOL0     H16708   1.568   9.873   3.425  1.2783  0.4265 -0.1920
  127MOL0     H16709   1.570   9.749   3.673  0.0245  0.5536  0.7476
  127MOL0     H16710   1.435   9.752   3.561 -0.9592  2.8467 -1.8696
  127MOL0     H16711   1.354   9.796   3.758  1.7414 -2.0797 -1.2195
  127MOL0     H16712   1.340   9.949   3.663 -0.7671 -1.0334  0.7754
  127MOL0     H16713   1.578   9.909   3.849 -0.0495 -1.1226  1.0706
  127MOL0     H16714   1.506  10.057   3.782 -0.7996 -0.5305 -2.2983
  127MOL0     H16715   1.461  10.048   4.014 -0.8732  0.6386 -0.4121
  127MOL0     H16716   1.397   9.891   4.008  0.6341 -1.1387 -0.3818
  127MOL0     H16717   1.135   9.885   3.893 -2.9498  0.6470  1.8527
  127MOL0     H16718   0.935   9.971   3.740  0.6780 -0.3790  0.2649
  127MOL0     H16719   0.967  10.107   3.630  1.4191 -0.1025  0.2312
  127MOL0     H16720   0.779  10.202   3.717  0.3602  1.0937 -0.5013
  127MOL0     H16721   0.886  10.287   3.807 -2.7939  1.5904 -0.6539
  127MOL0     H16722   0.758  10.024   3.911 -1.1508  1.0727 -2.2952
  127MOL0     H16723   0.870  10.129   4.002  0.8616  1.6112 -1.1338
  127MOL0     H16724   0.699  10.327   3.956 -1.9319  0.1212 -1.3692
  127MOL0     H16725   0.694  10.218   4.088  3.0763  1.3222  0.3516
  127MOL0     H16726   0.323  10.166   3.787 -0.7106 -0.9112  0.4653
  127MOL0     H16727   0.106  10.196   3.886  0.1232  1.1491 -1.4853
  127MOL0     H16728  -0.228  10.098   4.145 -1.1503 -0.0890  0.1910
  127MOL0     H16729  -0.453  10.124   4.216  2.5935 -0.4365  3.6117
  127MOL0     H16730  -0.714  10.360   4.365  1.2393 -1.6540  1.4468
  127MOL0     H16731  -0.599  10.237   4.346 -1.9171 -0.4984  0.2576
  127MOL0     H16732  -0.678  10.161   4.134 -1.4260 -1.4889 -1.4737
  127MOL0     H16733  -0.827  10.256   4.135 -1.2127 -0.5685 -0.3987
  127MOL0     H16734  -0.753  10.022   4.320 -2.1070 -0.0568  3.5367
  127MOL0     H16735  -0.875  10.041   4.197  2.0296 -1.6108 -1.1247
  127MOL0     H16736  -0.960  10.049   4.425 -1.2386  1.1593  0.4743
  127MOL0     H16737  -0.865  10.191   4.465 -1.4869  1.3443  0.2062
  127MOL0     H16738  -1.097  10.172   4.255  0.0582  0.8367 -1.6177
  127MOL0     H16739  -0.987  10.300   4.249 -1.1706 -1.5410 -2.2925
  127MOL0     H16740  -1.046  10.334   4.509 -1.4212 -0.8356  2.0666
  127MOL0     H16741  -1.170  10.221   4.475  0.0380  0.3650 -1.2986
  127MOL0     H16742  -1.143  10.502   4.362 -1.6867  1.6511  1.4321
  127MOL0     H16743  -1.236  10.387   4.277 -1.8917  2.7111  1.1676
  127MOL0     H16744  -1.378  10.341   4.482 -2.8833  2.0688  0.9769
  127MOL0     H16745  -1.386  10.504   4.414  0.7481  1.2163  0.3029
  127MOL0     H16746  -0.403  10.553   4.146  2.1022  1.1114  1.4661
  127MOL0     H16747  -0.174  10.518   4.085 -0.7999  0.3024 -0.5045
  127MOL0     H16748   0.277  10.371   4.228 -1.0964  1.5692 -0.4169
  127MOL0     H16749   0.506  10.340   4.145 -1.1586  1.9486  0.9696
  127MOL0     H16750   2.233   9.890   3.532 -1.8149 -0.3028 -0.5955
  127MOL0     H16751   2.461   9.972   3.515  0.5678 -0.1761 -0.7608
  127MOL0     H16752   2.687  10.532   3.558 -1.2862 -0.9213 -1.0501
  127MOL0     H16753   2.914  10.568   3.588 -1.6001  1.5740 -3.1163
  127MOL0     H16754   3.176  10.515   3.371  0.4823 -1.2126 -2.6076
  127MOL0     H16755   3.207  10.344   3.353  0.1932  0.1593 -0.2648
  127MOL0     H16756   3.318  10.527   3.573  0.1900 -1.5284  1.5350
  127MOL0     H16757   3.383  10.369   3.537 -0.0238  0.3991  1.4971
  127MOL0     H16758   3.382  10.581   3.330  2.8415  1.5943 -0.1174
  127MOL0     H16759   3.466  10.433   3.314 -1.4695 -1.7849 -0.1331
  127MOL0     H16760   3.529  10.646   3.522  0.5404  0.0470  1.1362
  127MOL0     H16761   3.612  10.495   3.498  0.7027  1.2816  0.2180
  127MOL0     H16762   3.752  10.780   3.201 -0.6126  2.8331  2.8831
  127MOL0     H16763   3.020  10.180   3.438 -1.6847 -0.8019  0.5239
  127MOL0     H16764   2.773  10.136   3.397 -0.3837  0.1543  0.7439
  128MOL0     O16765   5.571   6.394   6.537  0.1272  0.5108 -0.1720
  128MOL0     C16766   5.627   6.297   6.485 -0.6497  0.0360 -0.6196
  128MOL0     O16767   5.587   6.166   6.484  0.5710  0.1536  0.3431
  128MOL0     C16768   5.487   6.133   6.579 -0.0875 -0.1934  0.4446
  128MOL0     C16769   5.380   6.050   6.547  1.4749  0.0470  0.3005
  128MOL0     C16770   5.283   6.006   6.641 -0.6503 -0.9225 -0.3282
  128MOL0     C16771   5.288   6.059   6.763  0.5442  0.8443  0.0087
  128MOL0     O16772   5.192   6.026   6.859  0.2947  0.4327  0.2529
  128MOL0     C16773   5.051   6.045   6.822 -0.8464  0.1259 -0.3707
  128MOL0     C16774   4.967   6.091   6.942  1.0323  0.1408 -0.1266
  128MOL0     C16775   4.816   6.067   6.931  0.8504  0.1843 -0.1880
  128MOL0     C16776   4.741   6.110   6.801 -0.5002 -1.3627  0.3450
  128MOL0     C16777   4.588   6.093   6.803 -0.8844 -0.0380  0.4356
  128MOL0     C16778   4.514   6.229   6.836 -0.3980  0.0070 -0.6617
  128MOL0     C16779   4.364   6.212   6.875  0.1144 -0.2273  0.0917
  128MOL0     C16780   4.303   6.125   6.766  0.8000  0.1286 -0.0440
  128MOL0     N16781   4.161   6.090   6.796 -0.1222  0.4387  0.4001
  128MOL0     C16782   4.048   6.169   6.806  0.0265  0.2826  0.0367
  128MOL0     C16783   3.942   6.078   6.817  0.4969 -0.7131 -0.5610
  128MOL0     C16784   3.798   6.108   6.840 -0.6777 -0.0261 -0.4177
  128MOL0     C16785   3.711   5.987   6.813 -0.0357  0.0637  1.9504
  128MOL0     C16786   3.570   5.992   6.866 -0.1671  0.3002  0.0767
  128MOL0     C16787   3.492   5.890   6.788 -0.5630 -0.3317  0.4846
  128MOL0     O16788   3.365   5.865   6.855 -0.1977  0.2013  0.3712
  128MOL0     C16789   3.251   5.838   6.786 -0.5409 -0.0299  0.1273
  128MOL0     C16790   3.251   5.751   6.679 -0.5291  0.0311  0.1077
  128MOL0     C16791   3.138   5.736   6.609  0.2447 -0.5344  0.1495
  128MOL0     C16792   3.016   5.796   6.639 -0.3881 -0.8173  0.4650
  128MOL0     C16793   2.897   5.770   6.559  0.2742 -0.2248 -0.2146
  128MOL0     O16794   2.889   5.655   6.481 -0.0537 -0.7408  0.9680
  128MOL0     C16795   2.776   5.603   6.425  0.1505  0.1028  0.3111
  128MOL0     C16796   2.802   5.482   6.359  0.2783  0.0573 -0.0338
  128MOL0     C16797   2.691   5.409   6.301 -0.2891 -0.5399 -0.1940
  128MOL0     C16798   2.561   5.463   6.292  0.8783 -0.3729 -0.4962
  128MOL0     O16799   2.456   5.400   6.234 -0.3915  0.9578 -0.3322
  128MOL0     C16800   2.415   5.277   6.310  0.4058  0.7637 -0.3989
  128MOL0     C16801   2.273   5.226   6.253 -0.1571 -0.1470 -0.3183
  128MOL0     C16802   2.180   5.345   6.228  0.3806 -0.4584 -1.0293
  128MOL0     C16803   2.043   5.294   6.187  0.3586  0.2427  0.5696
  128MOL0     C16804   1.948   5.386   6.126  0.0477  0.2724 -0.0643
  128MOL0     C16805   1.808   5.317   6.102 -0.8193 -0.5770 -0.1586
  128MOL0     C16806   1.727   5.405   5.997  0.4493 -0.1960  0.3584
  128MOL0     C16807   1.569   5.381   6.001 -0.2729  0.0352  0.2252
  128MOL0    Cl16808   1.533   5.198   5.960  0.1780  0.0058  0.1423
  128MOL0     C16809   2.550   5.594   6.342 -0.3394  0.8257 -0.1185
  128MOL0     C16810   2.644   5.650   6.424 -0.4680 -0.0157 -0.0502
  128MOL0     O16811   2.800   5.845   6.587  0.4357  0.1513 -0.3483
  128MOL0     C16812   3.015   5.884   6.755 -0.1279  1.1569 -0.7809
  128MOL0     C16813   3.134   5.891   6.841 -0.3711 -0.6797 -0.4038
  128MOL0     N16814   4.002   5.953   6.811  0.9412  0.4565 -0.5203
  128MOL0     N16815   4.129   5.962   6.807 -0.2961 -0.4155 -0.1891
  128MOL0     C16816   5.392   6.142   6.806 -0.3057 -0.3636  0.0929
  128MOL0     C16817   5.499   6.176   6.713  0.1620  0.1768 -0.1039
  128MOL0     C16818   5.745   6.320   6.403 -0.3070 -0.7936  1.0994
  128MOL0     C16819   5.749   6.432   6.322  0.0060  0.6668  0.3532
  128MOL0     C16820   5.864   6.449   6.237  0.2645  0.1311 -0.5991
  128MOL0     C16821   5.972   6.361   6.241 -0.4971 -0.3401 -0.1634
  128MOL0     O16822   6.072   6.398   6.155  0.1642 -0.2011  0.0792
  128MOL0     C16823   6.175   6.309   6.121 -0.1900  0.3314 -0.1402
  128MOL0     C16824   6.261   6.366   6.012  0.5181 -0.0814  0.8231
  128MOL0     C16825   6.383   6.286   5.990 -0.1206  0.2996  0.4241
  128MOL0     C16826   6.459   6.332   5.858  0.7291  0.3682  0.1332
  128MOL0     C16827   6.584   6.256   5.836  0.2483  0.7046  0.1502
  128MOL0     C16828   6.688   6.199   5.814  0.6272 -0.0920 -0.0675
  128MOL0     C16829   5.969   6.248   6.321 -0.2356 -0.6514  0.8199
  128MOL0     C16830   5.853   6.232   6.394 -0.2306  0.1145  0.5004
  128MOL0     H16831   5.361   6.018   6.445 -2.6094  0.6960  0.6798
  128MOL0     H16832   5.197   5.942   6.621 -1.3767 -0.4122  1.0574
  128MOL0     H16833   5.022   5.947   6.784  0.7700  0.1593 -1.8240
  128MOL0     H16834   5.040   6.121   6.744 -1.0664  0.7632  0.2677
  128MOL0     H16835   4.979   6.199   6.946 -0.4409  0.4636 -2.7059
  128MOL0     H16836   5.003   6.059   7.040  0.5701  1.3467  0.4529
  128MOL0     H16837   4.768   6.114   7.018  0.2286  0.0999 -0.4846
  128MOL0     H16838   4.787   5.962   6.941  2.6944 -0.2549  1.1456
  128MOL0     H16839   4.755   6.217   6.781 -0.9392 -1.6068 -1.4172
  128MOL0     H16840   4.786   6.048   6.723 -0.2201  0.0151 -0.6210
  128MOL0     H16841   4.557   6.023   6.882 -0.0695  0.1899  0.9781
  128MOL0     H16842   4.548   6.060   6.707  1.7560  0.4182 -0.9020
  128MOL0     H16843   4.539   6.298   6.755  1.8275 -1.3565 -1.2391
  128MOL0     H16844   4.556   6.278   6.925 -0.7995 -0.2921 -0.3011
  128MOL0     H16845   4.350   6.173   6.976 -4.3547 -0.9731 -0.6061
  128MOL0     H16846   4.319   6.311   6.888  1.0290 -0.0964  2.9129
  128MOL0     H16847   4.359   6.030   6.765 -2.3701 -1.8980  0.9603
  128MOL0     H16848   4.309   6.179   6.671  1.1920 -1.4419 -0.9585
  128MOL0     H16849   4.055   6.277   6.805  2.6896  0.1923 -0.7156
  128MOL0     H16850   3.776   6.203   6.791 -0.3467  0.7668  0.9411
  128MOL0     H16851   3.793   6.121   6.948 -4.9727 -0.6226 -0.3553
  128MOL0     H16852   3.754   5.899   6.860 -0.4368 -0.4728  1.3286
  128MOL0     H16853   3.714   5.976   6.704  1.0532 -2.6320  2.1841
  128MOL0     H16854   3.576   5.956   6.969 -1.4770 -2.7080 -0.7644
  128MOL0     H16855   3.514   6.085   6.855 -1.0307 -0.4272 -2.8027
  128MOL0     H16856   3.544   5.794   6.785 -0.6320 -0.3587  0.0437
  128MOL0     H16857   3.465   5.910   6.683 -0.7723 -3.5123 -0.1803
  128MOL0     H16858   3.343   5.695   6.664 -0.1507  0.1801  1.7065
  128MOL0     H16859   3.149   5.655   6.537  0.9402 -0.6951  0.4386
  128MOL0     H16860   2.905   5.447   6.354 -0.0752 -0.9752 -0.2771
  128MOL0     H16861   2.719   5.324   6.239 -0.0994  1.0410 -2.4063
  128MOL0     H16862   2.405   5.294   6.418  1.1877 -1.6587  0.1208
  128MOL0     H16863   2.486   5.196   6.295  1.7987  1.8120  0.3160
  128MOL0     H16864   2.234   5.158   6.329 -2.1001  2.4714  1.1892
  128MOL0     H16865   2.295   5.173   6.160  0.4421  0.6239 -0.6259
  128MOL0     H16866   2.215   5.413   6.150 -1.3075  1.7493  0.0300
  128MOL0     H16867   2.186   5.403   6.320  0.3698 -1.1220 -0.6014
  128MOL0     H16868   2.077   5.230   6.105 -1.7229  4.0096 -3.6312
  128MOL0     H16869   2.004   5.253   6.281 -1.1343 -0.7480 -0.4487
  128MOL0     H16870   1.980   5.414   6.025 -4.0775 -0.1379 -1.6529
  128MOL0     H16871   1.938   5.480   6.182  0.3150 -0.0722  0.5737
  128MOL0     H16872   1.761   5.311   6.201  0.6117  1.8536  0.7496
  128MOL0     H16873   1.816   5.211   6.074  0.5478 -1.0782  1.8891
  128MOL0     H16874   1.737   5.509   6.028  2.2406 -1.0778  3.0853
  128MOL0     H16875   1.757   5.391   5.893 -0.3538  0.0263  0.0901
  128MOL0     H16876   1.530   5.436   5.914 -1.9800 -2.6648 -0.8209
  128MOL0     H16877   1.507   5.424   6.080 -1.9695  0.6311 -1.3470
  128MOL0     H16878   2.454   5.645   6.334 -1.4510 -1.0561  0.7326
  128MOL0     H16879   2.621   5.741   6.478 -0.1248  0.0218  0.0316
  128MOL0     H16880   2.924   5.927   6.798  0.0951 -1.4344  2.7603
  128MOL0     H16881   3.124   5.950   6.931  1.3366  0.6510 -1.0368
  128MOL0     H16882   5.413   6.180   6.906  3.1676 -1.3230 -0.1136
  128MOL0     H16883   5.588   6.233   6.738 -0.7178  2.1549 -1.2473
  128MOL0     H16884   5.671   6.507   6.330  1.0942  1.6746  1.9015
  128MOL0     H16885   5.867   6.531   6.166 -0.9102  1.5411  0.8914
  128MOL0     H16886   6.129   6.221   6.077 -0.1293  0.5716 -0.6905
  128MOL0     H16887   6.241   6.279   6.204 -0.9167  1.4967  0.8896
  128MOL0     H16888   6.200   6.374   5.922 -0.3325 -2.0112  1.1765
  128MOL0     H16889   6.289   6.468   6.039 -0.0880  0.6435 -1.1129
  128MOL0     H16890   6.359   6.179   5.986  3.4559 -0.5944 -0.5628
  128MOL0     H16891   6.452   6.295   6.074 -0.8217 -4.1054  1.7614
  128MOL0     H16892   6.401   6.306   5.769 -1.9868  0.7366  1.6618
  128MOL0     H16893   6.482   6.439   5.859 -0.9492  0.7566  1.2278
  128MOL0     H16894   6.778   6.145   5.790 -0.4227 -0.4472 -3.9516
  128MOL0     H16895   6.052   6.178   6.314  0.6380  0.5267 -2.5912
  128MOL0     H16896   5.845   6.134   6.440 -3.4061 -1.8243 -3.5602
  129MOL0     O16897   8.682   8.702   1.574  0.3097 -0.1127  0.0255
  129MOL0     C16898   8.786   8.729   1.519 -0.8181  0.3370 -0.4737
  129MOL0     O16899   8.797   8.800   1.405  0.5477 -0.4882  0.2125
  129MOL0     C16900   8.682   8.810   1.325 -0.6698 -0.4057 -0.7424
  129MOL0     C16901   8.642   8.706   1.237  0.7071  0.0330  0.2102
  129MOL0     C16902   8.531   8.727   1.156 -0.5950 -0.3751 -0.9269
  129MOL0     C16903   8.449   8.839   1.174 -0.4124  0.2851 -0.6330
  129MOL0     O16904   8.337   8.838   1.098 -0.8257  0.0556 -0.5925
  129MOL0     C16905   8.220   8.831   1.177  0.4780 -1.2068  0.2330
  129MOL0     C16906   8.220   8.721   1.276 -0.0214  0.3273 -0.1203
  129MOL0     C16907   8.094   8.647   1.296  0.2344 -0.3315 -0.2615
  129MOL0     C16908   8.100   8.591   1.446 -0.0969 -0.2567 -0.6234
  129MOL0     C16909   7.975   8.501   1.456 -0.1026 -0.3242  0.4694
  129MOL0     C16910   7.962   8.468   1.609  0.3449  0.6473  0.3597
  129MOL0     C16911   7.842   8.369   1.630 -0.7271  0.1284 -0.4017
  129MOL0     C16912   7.847   8.315   1.773  0.3251 -0.3700 -0.0162
  129MOL0     N16913   7.718   8.242   1.796 -0.8258 -0.2979 -0.5106
  129MOL0     C16914   7.606   8.308   1.850  0.8658 -0.2911  0.0039
  129MOL0     C16915   7.512   8.207   1.860  1.0933 -0.1905 -0.2592
  129MOL0     C16916   7.363   8.219   1.906 -0.7969  0.9127 -0.7330
  129MOL0     C16917   7.260   8.205   1.791  0.0291  0.1407  0.5086
  129MOL0     C16918   7.112   8.197   1.840  0.1879  0.0018 -0.7127
  129MOL0     C16919   7.006   8.211   1.737 -0.0784 -0.2953  0.7356
  129MOL0     O16920   6.886   8.276   1.783 -0.0484  0.3043 -0.0305
  129MOL0     C16921   6.803   8.345   1.696 -0.0338 -0.6657 -0.1136
  129MOL0     C16922   6.831   8.378   1.558 -0.4497  0.3005  0.3510
  129MOL0     C16923   6.743   8.432   1.469  0.2519  0.0314  0.1822
  129MOL0     C16924   6.616   8.477   1.526 -0.1749 -1.1616 -0.3143
  129MOL0     C16925   6.518   8.545   1.439  0.0305  0.2660 -0.8559
  129MOL0     O16926   6.433   8.641   1.487  0.1237 -0.2630  0.1931
  129MOL0     C16927   6.317   8.677   1.417  0.7081  0.2962  0.4274
  129MOL0     C16928   6.200   8.628   1.480  0.1278  0.8080  0.3574
  129MOL0     C16929   6.085   8.692   1.434 -0.0990 -0.3553 -0.3229
  129MOL0     C16930   6.080   8.790   1.333  0.3898  0.1273  1.3570
  129MOL0     O16931   5.966   8.871   1.298 -0.7135 -0.1943 -0.5241
  129MOL0     C16932   5.843   8.850   1.363  0.0614  0.1574 -0.4239
  129MOL0     C16933   5.756   8.959   1.293 -0.6924  0.2522  0.3870
  129MOL0     C16934   5.605   8.937   1.321  0.0760  0.6136  0.0080
  129MOL0     C16935   5.509   9.023   1.237 -1.0077  0.0624  0.3846
  129MOL0     C16936   5.376   9.013   1.305 -0.0080  0.8489 -0.8007
  129MOL0     C16937   5.264   9.053   1.206 -0.3748  0.1060 -0.2488
  129MOL0     C16938   5.249   8.955   1.083 -0.5292 -0.2233  1.1502
  129MOL0     C16939   5.150   9.017   0.974  0.2627 -0.1791  0.4070
  129MOL0    Cl16940   5.238   9.148   0.896 -0.2394 -0.0917 -0.2743
  129MOL0     C16941   6.199   8.821   1.271 -0.8634 -0.4575  0.9548
  129MOL0     C16942   6.319   8.765   1.315  1.0945 -0.4158 -0.0921
  129MOL0     O16943   6.518   8.509   1.323 -0.6818  0.5760  0.7561
  129MOL0     C16944   6.584   8.444   1.659  0.7500  0.5833 -0.0504
  129MOL0     C16945   6.677   8.374   1.745  0.0999  0.8740  1.1969
  129MOL0     N16946   7.564   8.092   1.817 -0.5126 -0.0430  0.6422
  129MOL0     N16947   7.684   8.110   1.778  0.0561 -0.4469  0.2308
  129MOL0     C16948   8.481   8.946   1.262 -0.5849  0.4541  0.7324
  129MOL0     C16949   8.603   8.926   1.339  0.3647 -0.3970  0.0373
  129MOL0     C16950   8.911   8.674   1.580  0.1823 -0.2480  0.4076
  129MOL0     C16951   8.910   8.587   1.683  0.0953 -0.1862 -0.9547
  129MOL0     C16952   9.028   8.545   1.747 -0.2747 -0.0750 -0.1792
  129MOL0     C16953   9.158   8.576   1.690 -0.0254 -0.0943 -0.5844
  129MOL0     O16954   9.270   8.528   1.754  0.2826  1.0111  0.9565
  129MOL0     C16955   9.353   8.424   1.680  0.0617 -0.0486 -0.0696
  129MOL0     C16956   9.488   8.410   1.754  0.5489 -0.3914  0.2937
  129MOL0     C16957   9.584   8.527   1.727 -0.3697  0.1039  0.5409
  129MOL0     C16958   9.730   8.515   1.803  0.0911 -0.4829  0.7179
  129MOL0     C16959   9.799   8.386   1.772  0.5815  0.1827 -0.0272
  129MOL0     C16960   9.856   8.286   1.747 -0.4212  0.5305  0.1458
  129MOL0     C16961   9.159   8.659   1.576  0.5089  0.1464 -0.0604
  129MOL0     C16962   9.033   8.698   1.519  0.1526 -0.2983 -0.2818
  129MOL0     H16963   8.695   8.611   1.240  3.1561  1.3344  2.1000
  129MOL0     H16964   8.511   8.650   1.083  0.0854  0.7236 -2.3274
  129MOL0     H16965   8.135   8.826   1.108  1.2257 -3.2774 -0.6078
  129MOL0     H16966   8.206   8.928   1.227 -1.0466 -1.2166 -0.1254
  129MOL0     H16967   8.246   8.764   1.373 -1.2862  0.8714 -0.0075
  129MOL0     H16968   8.292   8.640   1.259  1.0652  1.1470  0.4071
  129MOL0     H16969   8.091   8.573   1.216  1.4781 -0.0614 -0.5766
  129MOL0     H16970   8.007   8.713   1.291 -1.1147 -2.1284 -1.7467
  129MOL0     H16971   8.198   8.550   1.469 -0.0104  1.1765  1.9559
  129MOL0     H16972   8.099   8.683   1.506  1.2239  0.9283 -2.2888
  129MOL0     H16973   7.994   8.404   1.411  1.4716 -0.7951  2.0223
  129MOL0     H16974   7.876   8.537   1.427  0.3121  0.4793  0.0208
  129MOL0     H16975   7.941   8.555   1.672  0.1185 -0.2582  1.5775
  129MOL0     H16976   8.048   8.406   1.636 -0.8599 -0.9694  0.6260
  129MOL0     H16977   7.750   8.427   1.618 -0.7379  0.7490  2.1399
  129MOL0     H16978   7.843   8.284   1.561 -0.8318  1.2543 -1.8410
  129MOL0     H16979   7.856   8.402   1.838  0.2891  1.2647 -2.1013
  129MOL0     H16980   7.934   8.251   1.787  0.9544  0.8143  1.8284
  129MOL0     H16981   7.584   8.412   1.871 -0.2238 -0.4085 -0.4528
  129MOL0     H16982   7.354   8.313   1.961  0.5631 -0.7761  2.6870
  129MOL0     H16983   7.346   8.136   1.976  0.0265  0.3211 -1.2238
  129MOL0     H16984   7.278   8.109   1.741 -0.2831 -0.4605  1.5232
  129MOL0     H16985   7.263   8.290   1.722 -0.2195  1.3134  1.9122
  129MOL0     H16986   7.094   8.105   1.898  1.3905  2.3141  3.7780
  129MOL0     H16987   7.093   8.276   1.913  0.4292 -0.0800 -0.5571
  129MOL0     H16988   6.985   8.116   1.687  1.8021  1.6372 -4.4357
  129MOL0     H16989   7.046   8.273   1.656  0.0683 -2.3936 -0.8855
  129MOL0     H16990   6.928   8.357   1.513 -1.4718 -0.6052 -1.5480
  129MOL0     H16991   6.778   8.436   1.366 -0.5077 -0.9867 -0.1325
  129MOL0     H16992   6.201   8.547   1.552 -2.9961  1.4219  1.2562
  129MOL0     H16993   5.993   8.662   1.483 -0.9971  1.2215 -0.9852
  129MOL0     H16994   5.851   8.859   1.472  1.5422 -2.4712 -0.2442
  129MOL0     H16995   5.803   8.750   1.341  0.2860  0.1586 -0.8350
  129MOL0     H16996   5.782   8.958   1.187 -1.8136  1.7768  0.0719
  129MOL0     H16997   5.796   9.056   1.323  0.5209 -0.2898  0.6274
  129MOL0     H16998   5.592   8.966   1.426 -0.2404 -0.9212  0.4210
  129MOL0     H16999   5.580   8.833   1.301 -0.8440  0.9752 -0.7926
  129MOL0     H17000   5.540   9.127   1.235 -2.4056  0.4927 -0.2072
  129MOL0     H17001   5.511   8.983   1.135 -0.4386 -0.5188  0.6145
  129MOL0     H17002   5.375   9.069   1.399 -1.0344 -0.2652 -0.1200
  129MOL0     H17003   5.353   8.911   1.335  0.7856  1.2327  1.2176
  129MOL0     H17004   5.275   9.150   1.156 -1.2745 -0.0602 -0.7874
  129MOL0     H17005   5.167   9.054   1.256  0.2556  0.4544  0.9975
  129MOL0     H17006   5.345   8.940   1.034 -0.9149  1.1566 -0.0992
  129MOL0     H17007   5.206   8.856   1.104  1.3292 -1.3793 -0.2054
  129MOL0     H17008   5.062   9.049   1.032  0.5663  0.2349  0.6445
  129MOL0     H17009   5.112   8.950   0.896  1.1468  1.8810 -1.8982
  129MOL0     H17010   6.206   8.908   1.207 -0.7122 -1.5765 -0.6070
  129MOL0     H17011   6.416   8.799   1.280 -0.0110  0.6461 -2.3106
  129MOL0     H17012   6.482   8.462   1.690 -0.6988 -3.6744 -1.5789
  129MOL0     H17013   6.645   8.342   1.843 -1.1607 -1.4994  0.1187
  129MOL0     H17014   8.421   9.036   1.269 -0.7578  0.2658  1.8527
  129MOL0     H17015   8.637   9.007   1.403  1.4068  0.6481 -1.7606
  129MOL0     H17016   8.817   8.551   1.728  0.2465  0.8019  0.2165
  129MOL0     H17017   9.007   8.494   1.841 -0.8058  3.1779  1.6060
  129MOL0     H17018   9.364   8.445   1.573  0.4478 -2.6501 -0.6044
  129MOL0     H17019   9.301   8.330   1.703  1.6142 -0.5673  1.5853
  129MOL0     H17020   9.477   8.389   1.860  1.3679 -1.1976  0.2354
  129MOL0     H17021   9.534   8.318   1.717 -0.3702  0.4430 -3.3108
  129MOL0     H17022   9.541   8.626   1.743  0.8837  0.1104  5.7687
  129MOL0     H17023   9.604   8.536   1.620  1.6985  2.6127  1.0483
  129MOL0     H17024   9.791   8.600   1.769 -1.9732  0.2417 -1.4269
  129MOL0     H17025   9.709   8.533   1.909 -3.1206  1.7559 -0.1353
  129MOL0     H17026   9.915   8.201   1.718 -1.8345 -0.8408  1.1594
  129MOL0     H17027   9.254   8.684   1.530  1.3574 -1.7632  0.5318
  129MOL0     H17028   9.026   8.758   1.429 -1.0062 -0.6018 -0.4056
  130MOL0     O17029   2.983   4.056   9.534 -0.8651  0.5926  0.6719
  130MOL0     C17030   3.017   4.069   9.415  0.0018  1.0122  0.2951
  130MOL0     O17031   2.938   4.042   9.311 -0.1453 -1.0926  0.3751
  130MOL0     C17032   2.851   3.941   9.317  0.5630  1.1053  0.8807
  130MOL0     C17033   2.741   3.940   9.410 -0.6091 -0.2844  0.3030
  130MOL0     C17034   2.667   3.831   9.425  0.8444  0.7344  1.0321
  130MOL0     C17035   2.699   3.706   9.353  0.7926 -0.0149  0.5021
  130MOL0     O17036   2.632   3.589   9.367  0.3635 -0.4252 -0.2361
  130MOL0     C17037   2.628   3.552   9.508  0.0617  0.4997 -0.6748
  130MOL0     C17038   2.660   3.403   9.511 -0.2126  0.5646 -0.5635
  130MOL0     C17039   2.672   3.345   9.653  0.4879  0.5735 -0.0250
  130MOL0     C17040   2.530   3.317   9.720  0.4228  0.0874  0.4328
  130MOL0     C17041   2.541   3.236   9.843  0.2347  0.1148 -0.0760
  130MOL0     C17042   2.400   3.198   9.903 -0.1604  0.3965  0.8542
  130MOL0     C17043   2.330   3.092   9.822 -0.0194  0.5895 -0.7934
  130MOL0     C17044   2.193   3.053   9.887  0.3970 -0.0101  1.0029
  130MOL0     N17045   2.092   3.150   9.855  1.1672 -0.1903  0.3202
  130MOL0     C17046   2.065   3.254   9.938  0.3057  0.5472  0.2463
  130MOL0     C17047   1.953   3.310   9.884 -0.5737 -0.4635 -0.4661
  130MOL0     C17048   1.882   3.409   9.960  0.2915 -0.2215 -0.5944
  130MOL0     C17049   1.733   3.380   9.970  0.0633 -0.0434 -0.3265
  130MOL0     C17050   1.708   3.296  10.105  0.0444 -0.2505  0.3266
  130MOL0     C17051   1.563   3.260  10.113 -0.2201 -0.1197  0.0497
  130MOL0     O17052   1.533   3.167  10.019  1.0227  0.4935 -0.0045
  130MOL0     C17053   1.401   3.126  10.004 -0.6849 -0.8829  1.3491
  130MOL0     C17054   1.292   3.208  10.014  0.0784 -0.2232 -1.4508
  130MOL0     C17055   1.164   3.168   9.971  0.1624  0.1645  0.3748
  130MOL0     C17056   1.146   3.045   9.907  0.2856 -0.2761 -0.7518
  130MOL0     C17057   1.008   3.012   9.862 -0.4227 -1.2432 -0.0357
  130MOL0     O17058   0.919   3.112   9.885  0.5069  0.7167 -0.5592
  130MOL0     C17059   0.788   3.098   9.855  0.9055  0.6874 -0.3185
  130MOL0     C17060   0.728   3.035   9.746 -0.1076 -0.6336 -0.2742
  130MOL0     C17061   0.589   3.036   9.732  0.4884  0.0624  0.6098
  130MOL0     C17062   0.511   3.117   9.814 -0.2133  0.4664  0.0757
  130MOL0     O17063   0.381   3.135   9.789  0.3548 -0.3603 -0.9437
  130MOL0     C17064   0.291   3.123   9.900  0.2560 -0.9064  0.5681
  130MOL0     C17065   0.160   3.047   9.865  0.2718  0.2465 -0.4426
  130MOL0     C17066   0.081   3.120   9.758  0.5434  0.1816  0.1313
  130MOL0     C17067  -0.051   3.047   9.730  0.0344  0.3636  0.3617
  130MOL0     C17068  -0.169   3.088   9.826  0.1893  0.4044 -0.2894
  130MOL0     C17069  -0.308   3.034   9.801  0.3833 -0.5434 -1.2732
  130MOL0     C17070  -0.347   3.046   9.652 -0.4477 -0.7305  0.1803
  130MOL0     C17071  -0.489   3.037   9.626 -0.0120 -0.0801 -0.0733
  130MOL0    Cl17072  -0.551   2.883   9.681  0.0657 -0.3120 -0.3074
  130MOL0     C17073   0.580   3.200   9.901 -0.0259  0.3963 -0.0045
  130MOL0     C17074   0.710   3.179   9.935 -0.0289  0.1774  0.3020
  130MOL0     O17075   0.992   2.905   9.803 -0.0607 -0.5030 -0.0152
  130MOL0     C17076   1.263   2.965   9.888  0.4321 -0.5939 -0.0469
  130MOL0     C17077   1.386   3.008   9.936 -0.1118 -0.0975 -0.5063
  130MOL0     N17078   1.914   3.237   9.767  0.0823  0.8576 -0.0946
  130MOL0     N17079   1.994   3.140   9.760  0.2454  1.0967  0.1982
  130MOL0     C17080   2.799   3.711   9.256 -0.2517  0.1793 -0.4477
  130MOL0     C17081   2.877   3.827   9.246 -0.0939  0.3362  0.3318
  130MOL0     C17082   3.138   4.145   9.389 -0.5397 -0.0294 -0.2383
  130MOL0     C17083   3.173   4.183   9.261  0.0265  0.0954 -0.1183
  130MOL0     C17084   3.288   4.260   9.243 -0.6614  0.2031 -0.0994
  130MOL0     C17085   3.382   4.283   9.345 -0.7765 -1.0559  0.0946
  130MOL0     O17086   3.495   4.363   9.340 -0.6855  0.2878 -0.5760
  130MOL0     C17087   3.535   4.415   9.209  0.6202  0.4024 -0.1037
  130MOL0     C17088   3.672   4.462   9.238  0.3043 -0.4126  0.2233
  130MOL0     C17089   3.707   4.538   9.104 -0.5067  0.0560  0.2049
  130MOL0     C17090   3.848   4.610   9.112 -0.6137 -0.1907  0.3285
  130MOL0     C17091   3.881   4.652   8.978  0.3042  0.3703  1.1096
  130MOL0     C17092   3.909   4.693   8.869  0.7147 -0.0267  0.6615
  130MOL0     C17093   3.353   4.230   9.470 -0.4951 -1.3518 -0.7880
  130MOL0     C17094   3.234   4.162   9.490  0.1425  0.4918  0.1115
  130MOL0     H17095   2.726   4.034   9.461 -1.2041  0.5409 -1.3043
  130MOL0     H17096   2.589   3.837   9.501  1.4233  1.0854  1.6121
  130MOL0     H17097   2.525   3.567   9.543  0.3736  2.1863 -0.4074
  130MOL0     H17098   2.709   3.594   9.569  0.7302 -1.9563  0.2321
  130MOL0     H17099   2.753   3.374   9.461 -0.5030 -1.3096 -0.0807
  130MOL0     H17100   2.581   3.360   9.449  0.5197  2.4470 -2.9608
  130MOL0     H17101   2.731   3.415   9.713  3.6679 -0.4440 -1.7110
  130MOL0     H17102   2.723   3.248   9.645 -2.6776 -1.1833 -0.8076
  130MOL0     H17103   2.485   3.414   9.746 -0.1646 -0.2272  0.6179
  130MOL0     H17104   2.466   3.273   9.643  1.3478 -2.6970  1.1573
  130MOL0     H17105   2.603   3.286   9.917 -0.1863  2.7314 -1.3800
  130MOL0     H17106   2.589   3.142   9.812 -0.9357 -0.6793  0.4262
  130MOL0     H17107   2.341   3.290   9.906 -1.0612  0.0060 -2.0486
  130MOL0     H17108   2.417   3.157  10.004  0.5773  0.4354  0.7522
  130MOL0     H17109   2.311   3.121   9.718  0.3413  1.5856 -0.5929
  130MOL0     H17110   2.394   3.004   9.832  0.2695  1.0295  1.9189
  130MOL0     H17111   2.209   3.043   9.995 -0.0939 -1.0709  0.9801
  130MOL0     H17112   2.152   2.955   9.863  2.1626 -0.9335  1.6036
  130MOL0     H17113   2.131   3.281  10.019  1.1230 -2.5638  0.7638
  130MOL0     H17114   1.904   3.500   9.903  1.3447 -0.4803 -0.6135
  130MOL0     H17115   1.921   3.411  10.062  0.0501 -2.4323 -0.4028
  130MOL0     H17116   1.701   3.325   9.881  1.4243  0.3528 -1.0825
  130MOL0     H17117   1.679   3.473   9.992 -1.1829 -1.0835  1.2403
  130MOL0     H17118   1.765   3.204  10.121 -3.2697 -2.8300 -1.5276
  130MOL0     H17119   1.739   3.363  10.186 -0.7234 -0.0427  0.4592
  130MOL0     H17120   1.501   3.350  10.099 -0.1737  0.4564  2.9232
  130MOL0     H17121   1.532   3.215  10.208 -1.2586  0.0221 -0.2010
  130MOL0     H17122   1.302   3.309  10.053 -1.5844 -0.7305  0.5229
  130MOL0     H17123   1.085   3.239   9.992  1.7674  1.0917  4.1018
  130MOL0     H17124   0.795   2.982   9.679 -2.0220 -0.8069 -2.1327
  130MOL0     H17125   0.538   2.986   9.651  2.3927  0.9488 -1.2156
  130MOL0     H17126   0.276   3.227   9.933 -0.6830 -0.9450  0.2747
  130MOL0     H17127   0.332   3.073   9.988 -1.4942 -0.2026  1.8347
  130MOL0     H17128   0.102   3.054   9.958 -0.5544 -1.2993 -0.7996
  130MOL0     H17129   0.187   2.944   9.840 -0.3666 -0.4497  1.5834
  130MOL0     H17130   0.143   3.130   9.668 -1.1320  2.3554 -0.8761
  130MOL0     H17131   0.055   3.222   9.789 -1.7649 -0.6706  1.2144
  130MOL0     H17132  -0.088   3.091   9.636 -2.8380 -3.7095 -0.6613
  130MOL0     H17133  -0.037   2.940   9.712 -0.2608  0.4789 -0.6566
  130MOL0     H17134  -0.186   3.196   9.829  0.9297  0.5298 -0.3710
  130MOL0     H17135  -0.142   3.058   9.928 -3.2823  0.9952  0.9195
  130MOL0     H17136  -0.377   3.079   9.872  1.6475  0.9946 -0.9509
  130MOL0     H17137  -0.309   2.928   9.830  0.2049 -0.3682 -0.6351
  130MOL0     H17138  -0.311   3.140   9.609 -1.9218 -1.4059 -2.7947
  130MOL0     H17139  -0.298   2.963   9.601 -0.5564 -1.2834  0.9541
  130MOL0     H17140  -0.510   3.045   9.519 -0.2250 -0.7355 -0.0839
  130MOL0     H17141  -0.554   3.115   9.668 -3.5132 -0.5394 -3.9213
  130MOL0     H17142   0.525   3.271   9.961  2.1604  1.1890  1.1463
  130MOL0     H17143   0.743   3.234  10.023 -2.4340 -1.0179  2.0666
  130MOL0     H17144   1.257   2.876   9.826  0.1469 -1.1211  0.7351
  130MOL0     H17145   1.470   2.941   9.923 -1.5916 -1.8013 -2.0225
  130MOL0     H17146   2.814   3.621   9.197  0.1898  0.7035 -1.1456
  130MOL0     H17147   2.957   3.820   9.174 -0.3784 -1.9309  0.1575
  130MOL0     H17148   3.110   4.153   9.178  1.3727  1.0755 -1.5652
  130MOL0     H17149   3.311   4.314   9.151  0.9006 -0.8621 -0.3660
  130MOL0     H17150   3.473   4.501   9.182  0.7518  1.0953  1.6806
  130MOL0     H17151   3.536   4.342   9.128 -0.6309  1.4160 -1.0675
  130MOL0     H17152   3.664   4.531   9.322  0.2563 -3.9288  3.4029
  130MOL0     H17153   3.744   4.381   9.254 -1.0736 -1.7814 -0.1384
  130MOL0     H17154   3.639   4.618   9.075 -0.5909  0.0150  0.2904
  130MOL0     H17155   3.704   4.470   9.018 -3.7187  0.6781 -0.2782
  130MOL0     H17156   3.844   4.693   9.182  0.6941  0.2712 -0.1238
  130MOL0     H17157   3.918   4.534   9.146 -2.5883 -2.5947 -0.6252
  130MOL0     H17158   3.925   4.740   8.774  0.0642  0.9011  0.9890
  130MOL0     H17159   3.423   4.250   9.550  0.3478 -0.8745 -1.6211
  130MOL0     H17160   3.230   4.112   9.586 -0.9029 -2.7372 -1.4877
  131MOL0     O17161   6.219   6.103   2.637 -0.0140 -0.4792 -0.0849
  131MOL0     C17162   6.243   6.018   2.729  0.3774 -0.7842  0.1672
  131MOL0     O17163   6.158   5.998   2.833  0.6697 -0.1346 -0.1937
  131MOL0     C17164   6.041   6.063   2.862  0.1423 -0.4027  0.2332
  131MOL0     C17165   5.961   6.142   2.781  0.7304  0.3890  0.9244
  131MOL0     C17166   5.837   6.198   2.817 -1.6635 -0.5310  0.3974
  131MOL0     C17167   5.796   6.197   2.950 -0.1610 -0.0494 -0.2809
  131MOL0     O17168   5.671   6.238   2.979 -0.1350  0.2337 -0.5254
  131MOL0     C17169   5.590   6.139   3.047  0.4609  0.2808 -0.1044
  131MOL0     C17170   5.455   6.196   3.099 -0.3385  0.3623 -0.6593
  131MOL0     C17171   5.383   6.086   3.158 -0.0550  0.0973  0.2507
  131MOL0     C17172   5.412   6.068   3.310  0.1681  0.1557  0.4574
  131MOL0     C17173   5.395   5.918   3.350  0.6302  0.2322  0.6586
  131MOL0     C17174   5.434   5.892   3.494  0.0603  1.6184 -0.7531
  131MOL0     C17175   5.587   5.922   3.514  0.0473 -0.3895 -0.2173
  131MOL0     C17176   5.648   5.865   3.648  0.6185 -0.3815  0.8339
  131MOL0     N17177   5.776   5.935   3.685  0.1549  0.3367  0.3324
  131MOL0     C17178   5.901   5.890   3.651 -0.3520 -0.0224 -1.1505
  131MOL0     C17179   5.991   5.986   3.694 -0.2362  0.2026 -0.5899
  131MOL0     C17180   6.140   5.990   3.651 -0.5701  0.0534  0.6156
  131MOL0     C17181   6.214   5.991   3.779  0.2452  0.5804 -1.5545
  131MOL0     C17182   6.362   5.965   3.775  0.3436  0.0007 -0.4787
  131MOL0     C17183   6.412   5.869   3.678  0.7641  0.5127  0.5054
  131MOL0     O17184   6.543   5.827   3.718  0.3696 -0.0241  0.6315
  131MOL0     C17185   6.627   5.769   3.623 -0.3075  0.6536 -0.1920
  131MOL0     C17186   6.765   5.764   3.656  0.3500 -1.0920 -0.3394
  131MOL0     C17187   6.852   5.733   3.556 -0.7713 -0.3240 -0.5211
  131MOL0     C17188   6.819   5.681   3.435 -0.1208  0.1104  0.3131
  131MOL0     C17189   6.924   5.644   3.334  0.5706  0.1282 -1.0851
  131MOL0     O17190   7.053   5.644   3.366  0.3150 -0.5097 -0.3246
  131MOL0     C17191   7.150   5.617   3.267  0.5857  0.3305 -0.2248
  131MOL0     C17192   7.148   5.688   3.145  0.6603 -1.0972  0.0626
  131MOL0     C17193   7.252   5.674   3.053 -0.3562 -0.6001  0.0418
  131MOL0     C17194   7.366   5.601   3.087  0.3916  1.0056 -0.3346
  131MOL0     O17195   7.473   5.597   3.007 -0.2432  0.0818 -0.5153
  131MOL0     C17196   7.499   5.703   2.917 -0.5469 -0.5340  0.2322
  131MOL0     C17197   7.647   5.695   2.854 -0.5302  0.0061 -0.9302
  131MOL0     C17198   7.756   5.759   2.941 -0.0684  0.8129  0.3145
  131MOL0     C17199   7.768   5.703   3.087 -1.3428 -0.1939 -0.0093
  131MOL0     C17200   7.871   5.778   3.163  0.0408 -0.6849 -0.3067
  131MOL0     C17201   8.015   5.766   3.124 -0.5141 -0.3131  0.1074
  131MOL0     C17202   8.117   5.851   3.215 -0.0282 -0.3527  0.5563
  131MOL0     C17203   8.128   5.996   3.180 -0.7389 -1.1560  0.2412
  131MOL0    Cl17204   8.247   6.083   3.283 -0.3983  0.5451  0.2535
  131MOL0     C17205   7.371   5.535   3.210  0.0263 -0.2663 -0.2340
  131MOL0     C17206   7.262   5.542   3.303 -0.1469 -0.4653 -0.0220
  131MOL0     O17207   6.871   5.620   3.224  0.3279  0.6889  0.3699
  131MOL0     C17208   6.682   5.675   3.405 -0.1768  0.7118  0.0544
  131MOL0     C17209   6.586   5.718   3.500 -0.1109 -0.0699 -0.2210
  131MOL0     N17210   5.919   6.090   3.756 -0.5211 -0.1195  0.9196
  131MOL0     N17211   5.789   6.057   3.742  0.1275  0.2218 -0.5895
  131MOL0     C17212   5.882   6.130   3.038  0.1105  0.2665 -0.7355
  131MOL0     C17213   6.001   6.067   2.992 -0.6468  0.1365  0.1036
  131MOL0     C17214   6.365   5.936   2.726 -0.4597 -0.4276 -0.3463
  131MOL0     C17215   6.446   5.931   2.609 -0.2223 -0.1284  0.3642
  131MOL0     C17216   6.558   5.854   2.603  0.0420  0.1035  0.1756
  131MOL0     C17217   6.608   5.779   2.709 -0.4261 -0.4345  0.2306
  131MOL0     O17218   6.726   5.708   2.695  0.3406 -0.1521 -0.2745
  131MOL0     C17219   6.751   5.617   2.808 -0.0256 -0.3684  0.3475
  131MOL0     C17220   6.879   5.542   2.740  1.0807  0.3482  0.1240
  131MOL0     C17221   7.016   5.615   2.751  0.4573 -0.4874 -0.9190
  131MOL0     C17222   7.008   5.764   2.710 -0.1669 -0.0268 -0.2279
  131MOL0     C17223   7.145   5.798   2.667 -0.6152 -0.3490  0.5935
  131MOL0     C17224   7.259   5.844   2.659 -0.3845  0.0953 -0.6207
  131MOL0     C17225   6.524   5.782   2.824 -0.0149  0.1605  0.3259
  131MOL0     C17226   6.406   5.858   2.839 -0.4004  0.5487  0.3994
  131MOL0     H17227   5.993   6.162   2.679  1.1170  1.4723  1.2463
  131MOL0     H17228   5.799   6.257   2.734 -0.3937  0.6524  0.6098
  131MOL0     H17229   5.643   6.101   3.134 -0.2263  2.6331  1.4257
  131MOL0     H17230   5.576   6.053   2.981  2.9510 -0.4130  0.1844
  131MOL0     H17231   5.396   6.232   3.014 -1.7368  1.3765  0.6855
  131MOL0     H17232   5.475   6.276   3.170  1.8261 -1.7372  1.2390
  131MOL0     H17233   5.395   5.997   3.095  1.7877  0.6599 -0.2320
  131MOL0     H17234   5.274   6.100   3.159 -0.2229 -1.0953  0.5825
  131MOL0     H17235   5.515   6.101   3.326 -0.7076  3.6676 -0.2938
  131MOL0     H17236   5.342   6.128   3.368 -0.7251  1.6685 -2.0033
  131MOL0     H17237   5.454   5.853   3.285 -1.5836  1.7693 -3.2741
  131MOL0     H17238   5.290   5.893   3.332  1.3972 -2.2578 -0.8911
  131MOL0     H17239   5.411   5.788   3.520  0.6879  1.5002 -0.6627
  131MOL0     H17240   5.392   5.949   3.578  1.5540  1.0281  0.4478
  131MOL0     H17241   5.636   5.889   3.422 -0.2386 -0.1681 -0.4491
  131MOL0     H17242   5.600   6.030   3.508  0.9257 -0.5746 -3.4573
  131MOL0     H17243   5.652   5.757   3.631  1.4270 -0.2932  0.4259
  131MOL0     H17244   5.582   5.888   3.732 -2.2387  1.6361 -1.7695
  131MOL0     H17245   5.929   5.796   3.604  0.1281  0.6894 -2.3548
  131MOL0     H17246   6.168   6.080   3.596  0.6920 -0.8715 -0.3205
  131MOL0     H17247   6.175   5.905   3.591  0.8335 -0.9548  2.7668
  131MOL0     H17248   6.180   5.915   3.850 -1.4470  2.0452 -0.7416
  131MOL0     H17249   6.194   6.085   3.830 -4.0705 -0.8811 -0.1551
  131MOL0     H17250   6.413   6.062   3.769  0.6210 -0.1536 -0.5943
  131MOL0     H17251   6.393   5.927   3.873  1.8872  2.1669 -0.0498
  131MOL0     H17252   6.409   5.902   3.574 -2.4622 -0.4098  0.1939
  131MOL0     H17253   6.343   5.785   3.685  1.4674 -0.0826  0.4007
  131MOL0     H17254   6.808   5.807   3.746  0.2007  1.2031 -1.2922
  131MOL0     H17255   6.959   5.734   3.574 -0.4537 -4.1152 -1.4004
  131MOL0     H17256   7.069   5.759   3.125 -0.5950 -2.2468  0.7493
  131MOL0     H17257   7.240   5.734   2.963  2.1052  0.1124  0.1091
  131MOL0     H17258   7.477   5.794   2.973 -0.8588 -2.2500  3.1021
  131MOL0     H17259   7.421   5.704   2.840  0.4069 -0.1984 -0.7526
  131MOL0     H17260   7.645   5.752   2.760 -2.9485  0.6134 -0.5866
  131MOL0     H17261   7.664   5.591   2.826 -1.7750 -0.5969  0.4400
  131MOL0     H17262   7.721   5.862   2.942 -2.8553 -0.0494  1.9402
  131MOL0     H17263   7.851   5.760   2.886 -0.1031  3.1333  0.1854
  131MOL0     H17264   7.676   5.717   3.145 -1.5544 -1.2219 -0.0741
  131MOL0     H17265   7.805   5.600   3.091  2.5117  1.0499  0.4812
  131MOL0     H17266   7.864   5.740   3.266  1.3561 -0.3415 -0.0658
  131MOL0     H17267   7.845   5.884   3.165  0.8093 -0.4943  0.8934
  131MOL0     H17268   8.026   5.809   3.024  0.1834  0.0375  0.3300
  131MOL0     H17269   8.041   5.660   3.137 -0.3415  0.0182  3.0171
  131MOL0     H17270   8.080   5.848   3.318  0.8892  0.1049  0.9083
  131MOL0     H17271   8.220   5.815   3.222  0.4147  0.8999  0.8155
  131MOL0     H17272   8.029   6.043   3.182 -1.4201 -2.3277 -2.1325
  131MOL0     H17273   8.157   6.015   3.076 -0.0864  2.1662  0.9031
  131MOL0     H17274   7.464   5.481   3.223 -0.3680 -1.2231 -1.2767
  131MOL0     H17275   7.250   5.498   3.401 -2.0063  0.2374  0.1059
  131MOL0     H17276   6.642   5.626   3.317 -1.4016 -0.3772  1.1840
  131MOL0     H17277   6.480   5.729   3.482 -0.1349  0.0939  0.0090
  131MOL0     H17278   5.855   6.131   3.143 -1.2456  0.7925 -1.0618
  131MOL0     H17279   6.068   6.014   3.059  1.9483  0.8121 -1.7838
  131MOL0     H17280   6.427   5.992   2.522  0.3409 -1.0662 -0.4403
  131MOL0     H17281   6.624   5.861   2.517  0.1193 -0.8739  0.1435
  131MOL0     H17282   6.674   5.540   2.822  0.4488 -0.5833  2.0211
  131MOL0     H17283   6.770   5.665   2.905 -0.5553 -1.1551  0.8545
  131MOL0     H17284   6.882   5.446   2.793 -0.0494  0.1692 -0.0936
  131MOL0     H17285   6.864   5.516   2.635 -1.7783 -0.3234  0.5932
  131MOL0     H17286   7.093   5.547   2.712  0.3955 -2.0430  1.4110
  131MOL0     H17287   7.042   5.626   2.857  0.7563  1.9484 -1.1902
  131MOL0     H17288   6.936   5.779   2.629  0.4323 -0.9069 -0.9386
  131MOL0     H17289   6.980   5.830   2.793 -0.4665 -0.9102  0.3803
  131MOL0     H17290   7.358   5.885   2.661  0.0392 -0.9303  0.7820
  131MOL0     H17291   6.549   5.734   2.919 -1.5066  3.4549  2.5632
  131MOL0     H17292   6.362   5.875   2.937 -1.6418 -0.6082  0.0691
  132MOL0     O17293   8.149   2.226   3.234 -0.2359  0.1319  0.0191
  132MOL0     C17294   8.181   2.119   3.185 -0.1526 -0.0237  0.2303
  132MOL0     O17295   8.088   2.028   3.132 -0.1629  0.3902 -0.0344
  132MOL0     C17296   7.958   2.071   3.126 -0.4502 -0.0804 -0.5776
  132MOL0     C17297   7.881   2.026   3.229 -0.0851  0.4749  0.3242
  132MOL0     C17298   7.744   2.072   3.246 -0.3439  0.3576 -0.6630
  132MOL0     C17299   7.681   2.147   3.147 -1.2851  0.4884  0.1377
  132MOL0     O17300   7.549   2.192   3.134  0.9706  0.0837  0.7844
  132MOL0     C17301   7.467   2.202   3.250 -0.0277 -0.4997 -0.3353
  132MOL0     C17302   7.386   2.077   3.283 -0.6623 -0.7715 -1.0194
  132MOL0     C17303   7.279   2.086   3.390  0.3755  0.1204 -1.2783
  132MOL0     C17304   7.234   1.956   3.436 -0.2818  0.0406 -0.1812
  132MOL0     C17305   7.097   1.968   3.514 -0.5441  0.1590  0.6223
  132MOL0     C17306   7.101   2.045   3.648 -0.8882 -0.2341  0.5354
  132MOL0     C17307   6.969   2.015   3.730  0.0677 -0.4717  0.4225
  132MOL0     C17308   6.942   2.128   3.836 -0.0603  0.8601 -1.2064
  132MOL0     N17309   6.848   2.087   3.941 -0.0335  0.0896 -0.2372
  132MOL0     C17310   6.755   1.991   3.916  0.3100 -0.1160  0.4352
  132MOL0     C17311   6.700   1.958   4.033 -0.0416  0.0671 -0.1614
  132MOL0     C17312   6.581   1.873   4.056 -0.2074  0.6751  0.3393
  132MOL0     C17313   6.482   1.956   4.133  0.2104  1.3106  0.5610
  132MOL0     C17314   6.360   1.864   4.159 -0.9616 -0.6428  0.8513
  132MOL0     C17315   6.261   1.929   4.247 -0.3617  0.0906 -0.7919
  132MOL0     O17316   6.311   1.965   4.382  0.1717  0.2882  0.0446
  132MOL0     C17317   6.233   2.022   4.483  0.2594 -0.0365 -1.0349
  132MOL0     C17318   6.301   2.100   4.580  0.7327 -0.0385 -0.5324
  132MOL0     C17319   6.222   2.167   4.686 -1.2440  0.6417 -0.3359
  132MOL0     C17320   6.083   2.140   4.690 -0.8601  0.4492  0.2502
  132MOL0     C17321   5.995   2.192   4.804 -0.9336 -0.2337 -0.5265
  132MOL0     O17322   5.865   2.158   4.809 -0.2367  0.1336  0.5025
  132MOL0     C17323   5.775   2.218   4.890  1.4217  0.5053  0.7440
  132MOL0     C17324   5.777   2.352   4.949  0.6094  0.1952 -0.1859
  132MOL0     C17325   5.665   2.401   5.020 -0.1733 -0.4168 -0.0688
  132MOL0     C17326   5.546   2.332   5.030 -0.2273  0.5340  0.4290
  132MOL0     O17327   5.448   2.387   5.103  0.4656 -0.1509 -0.3370
  132MOL0     C17328   5.358   2.291   5.158  0.1436 -0.0373 -0.0856
  132MOL0     C17329   5.251   2.371   5.238  0.0465  0.1782  0.4104
  132MOL0     C17330   5.149   2.266   5.304  1.1160  0.2256  1.0162
  132MOL0     C17331   5.031   2.346   5.375 -0.3506 -0.7177 -0.4752
  132MOL0     C17332   4.903   2.261   5.381  0.5390 -0.8477 -0.2547
  132MOL0     C17333   4.929   2.139   5.453  0.0134  1.4112  0.1581
  132MOL0     C17334   4.807   2.061   5.498 -0.1654  1.0425  0.8248
  132MOL0     C17335   4.729   2.113   5.621 -0.4175 -0.6510  0.1488
  132MOL0    Cl17336   4.611   1.993   5.661  0.0036 -0.0230  0.0449
  132MOL0     C17337   5.535   2.211   4.958  0.3209  0.9913 -0.1216
  132MOL0     C17338   5.648   2.150   4.894  1.3941  0.3400 -0.3184
  132MOL0     O17339   6.052   2.272   4.881  0.6266  0.5192  0.7704
  132MOL0     C17340   6.025   2.055   4.598 -1.0470 -0.2593 -0.0167
  132MOL0     C17341   6.098   2.000   4.492  0.7566 -0.6496 -0.1006
  132MOL0     N17342   6.759   2.032   4.126  0.9857 -0.3135 -0.2744
  132MOL0     N17343   6.850   2.112   4.078  0.2558 -0.1986  0.3082
  132MOL0     C17344   7.760   2.176   3.036 -0.1567 -0.5757 -0.1939
  132MOL0     C17345   7.898   2.145   3.024  1.1909  0.1159 -0.1820
  132MOL0     C17346   8.324   2.081   3.182  0.0913 -0.1553 -0.5226
  132MOL0     C17347   8.421   2.159   3.245  0.5528  0.6265  0.3299
  132MOL0     C17348   8.550   2.107   3.241 -0.0971 -0.2581  0.1411
  132MOL0     C17349   8.588   1.989   3.176  0.2527 -0.4360 -0.8969
  132MOL0     O17350   8.717   1.953   3.165  0.1756  0.4728 -0.2115
  132MOL0     C17351   8.753   1.823   3.121 -0.5069 -0.0691  0.4840
  132MOL0     C17352   8.907   1.819   3.117  0.0732  0.2718 -0.1209
  132MOL0     C17353   8.964   1.794   3.260 -0.4721  0.3425  0.4091
  132MOL0     C17354   9.107   1.853   3.275 -0.0326 -0.5733 -0.1768
  132MOL0     C17355   9.199   1.818   3.167 -0.5978 -0.4956 -0.3358
  132MOL0     C17356   9.271   1.804   3.071  0.8223  0.6418  0.1539
  132MOL0     C17357   8.492   1.926   3.105 -0.2230 -0.0117 -0.2169
  132MOL0     C17358   8.366   1.967   3.112  0.7857 -0.9331 -0.1737
  132MOL0     H17359   7.922   1.953   3.299 -0.5762 -1.2743 -1.1225
  132MOL0     H17360   7.696   2.048   3.340 -0.7059 -2.6113 -1.5134
  132MOL0     H17361   7.403   2.291   3.245 -0.5450 -0.6728  1.8877
  132MOL0     H17362   7.536   2.216   3.334 -0.0361  2.0936 -0.6791
  132MOL0     H17363   7.456   1.996   3.306 -0.4162 -1.0638 -2.6841
  132MOL0     H17364   7.349   2.051   3.184  0.8453  0.1877 -1.8724
  132MOL0     H17365   7.205   2.152   3.343 -0.4984  1.2614  1.4922
  132MOL0     H17366   7.317   2.132   3.482 -0.5152 -2.3724  0.4258
  132MOL0     H17367   7.216   1.905   3.341  2.6600 -0.6580 -0.4604
  132MOL0     H17368   7.306   1.900   3.497 -0.9286 -1.1094 -0.4245
  132MOL0     H17369   7.058   1.867   3.532 -2.5257  0.5148 -1.3632
  132MOL0     H17370   7.024   2.026   3.458  0.1227  0.9228  0.5300
  132MOL0     H17371   7.106   2.153   3.632  0.4493 -0.1187  1.5050
  132MOL0     H17372   7.187   2.020   3.711  0.2695  0.4464 -0.7269
  132MOL0     H17373   6.887   2.021   3.658  0.7838  0.7762 -0.3192
  132MOL0     H17374   6.969   1.912   3.768 -1.0105 -1.4348 -1.9841
  132MOL0     H17375   6.899   2.208   3.775  0.0100  0.0012 -2.4153
  132MOL0     H17376   7.033   2.156   3.890  0.8332 -0.4984 -1.9711
  132MOL0     H17377   6.734   1.929   3.829  1.0353 -2.6008  1.9505
  132MOL0     H17378   6.602   1.777   4.104 -1.7783 -0.8382 -1.8332
  132MOL0     H17379   6.537   1.841   3.961 -0.3391  0.5852  0.4305
  132MOL0     H17380   6.462   2.040   4.066  1.1522 -0.0666 -1.5880
  132MOL0     H17381   6.532   1.995   4.222  5.4358  1.3192 -2.0082
  132MOL0     H17382   6.318   1.844   4.059  0.8380 -0.5401  0.0271
  132MOL0     H17383   6.395   1.775   4.212  3.4213  0.5778  0.4585
  132MOL0     H17384   6.191   1.848   4.270  0.1660 -0.2641 -0.4208
  132MOL0     H17385   6.213   2.010   4.192 -1.6340  1.7651  2.4883
  132MOL0     H17386   6.410   2.104   4.580  0.6884  1.5109 -0.8783
  132MOL0     H17387   6.274   2.216   4.767 -1.1218 -1.9942  1.2878
  132MOL0     H17388   5.858   2.424   4.939 -1.3177  2.1611 -3.8851
  132MOL0     H17389   5.669   2.493   5.078 -0.5323  0.0315 -0.7480
  132MOL0     H17390   5.417   2.223   5.220  1.1665 -0.7679 -1.7918
  132MOL0     H17391   5.302   2.235   5.083 -2.0812 -0.6431  1.8823
  132MOL0     H17392   5.192   2.430   5.167 -2.2986  0.0962  2.1703
  132MOL0     H17393   5.307   2.436   5.305  1.3686  0.5467 -1.0042
  132MOL0     H17394   5.200   2.196   5.370  1.9854 -0.4689 -0.3259
  132MOL0     H17395   5.109   2.206   5.221  1.4999 -0.1312  1.0841
  132MOL0     H17396   5.058   2.375   5.477 -1.7000 -5.3644  1.4815
  132MOL0     H17397   5.011   2.439   5.322 -1.2875 -0.2510  0.6700
  132MOL0     H17398   4.866   2.258   5.278  0.7611  1.6736 -0.4835
  132MOL0     H17399   4.826   2.318   5.434 -0.1590 -1.5705 -0.4735
  132MOL0     H17400   4.996   2.153   5.538  3.1563 -0.6298 -1.7978
  132MOL0     H17401   4.980   2.073   5.383  1.9401  2.5947  0.3769
  132MOL0     H17402   4.739   2.049   5.414  3.1067  0.1760 -1.9534
  132MOL0     H17403   4.858   1.967   5.523  0.7325  1.3824  0.3311
  132MOL0     H17404   4.667   2.200   5.594  0.7634  0.0545 -0.3777
  132MOL0     H17405   4.796   2.143   5.702  1.8441  1.6294 -2.3737
  132MOL0     H17406   5.441   2.157   4.961  0.5317  0.6647  1.2783
  132MOL0     H17407   5.628   2.055   4.845  0.7507  1.9204 -3.3794
  132MOL0     H17408   5.920   2.028   4.595 -0.5997 -2.0611 -1.6376
  132MOL0     H17409   6.061   1.929   4.419  1.7085 -0.0781 -1.1685
  132MOL0     H17410   7.713   2.226   2.952 -0.1609  0.9342  0.6779
  132MOL0     H17411   7.950   2.192   2.941 -1.8524  2.0359 -1.1904
  132MOL0     H17412   8.406   2.257   3.289  0.1773 -0.1442  2.0239
  132MOL0     H17413   8.626   2.160   3.297 -0.8134 -0.3945  1.2824
  132MOL0     H17414   8.726   1.816   3.015  1.4643  0.9518 -0.1349
  132MOL0     H17415   8.710   1.737   3.173  0.2007 -1.5474 -1.2823
  132MOL0     H17416   8.933   1.735   3.052 -1.4727 -0.1673 -0.2218
  132MOL0     H17417   8.935   1.910   3.062  1.0672  1.0097  1.5374
  132MOL0     H17418   8.968   1.687   3.277 -0.4445  0.5151  1.5128
  132MOL0     H17419   8.901   1.847   3.332  0.4135  1.0781  0.6609
  132MOL0     H17420   9.101   1.962   3.281 -2.3199 -0.5546 -1.6543
  132MOL0     H17421   9.151   1.812   3.367 -0.0274 -1.3942 -0.5434
  132MOL0     H17422   9.337   1.778   2.990  1.0663 -0.0378  0.5663
  132MOL0     H17423   8.521   1.839   3.048  0.7812  0.3736 -0.3164
  132MOL0     H17424   8.286   1.921   3.056  0.5139 -0.3342 -0.2813
  133MOL0     O17425   0.433   9.362   5.781 -0.6286 -0.0566  0.4202
  133MOL0     C17426   0.346   9.306   5.715  0.3671  0.2641  0.3833
  133MOL0     O17427   0.221   9.272   5.765 -0.4927  0.1162  0.5194
  133MOL0     C17428   0.174   9.333   5.879 -0.2355 -0.4767  0.1894
  133MOL0     C17429   0.223   9.459   5.934 -0.1000  0.2189  0.7891
  133MOL0     C17430   0.162   9.520   6.043  0.2130 -0.5240  1.1861
  133MOL0     C17431   0.051   9.455   6.101  0.8303 -0.2930 -0.7158
  133MOL0     O17432  -0.018   9.499   6.217 -0.4047 -0.3322  0.0314
  133MOL0     C17433  -0.150   9.565   6.193 -0.7462  1.1453  0.2952
  133MOL0     C17434  -0.225   9.600   6.322 -0.4999 -0.2944  1.0432
  133MOL0     C17435  -0.373   9.628   6.292 -0.1817  0.1500 -0.6051
  133MOL0     C17436  -0.471   9.512   6.269 -0.7563  0.3985  0.0714
  133MOL0     C17437  -0.609   9.591   6.257  0.0389  0.4973 -0.2037
  133MOL0     C17438  -0.720   9.496   6.221 -0.0368  0.5223  0.9902
  133MOL0     C17439  -0.775   9.420   6.347  0.4977 -0.3012 -0.4331
  133MOL0     C17440  -0.865   9.319   6.283  0.5341  0.4616  1.1852
  133MOL0     N17441  -0.995   9.364   6.223 -0.9801 -0.3264 -0.5531
  133MOL0     C17442  -1.098   9.418   6.293 -0.0185 -0.3839  0.5556
  133MOL0     C17443  -1.202   9.417   6.207  0.0499  0.3024 -0.6243
  133MOL0     C17444  -1.339   9.459   6.246  0.3884 -0.5197  0.9443
  133MOL0     C17445  -1.402   9.368   6.354 -0.3173  0.6895  0.8091
  133MOL0     C17446  -1.406   9.211   6.319  1.0581 -0.8799 -0.7541
  133MOL0     C17447  -1.458   9.180   6.178  1.0239  0.0257 -0.2661
  133MOL0     O17448  -1.578   9.252   6.132 -0.1868 -0.2547 -0.9823
  133MOL0     C17449  -1.692   9.242   6.212 -0.3196  0.3202  0.6334
  133MOL0     C17450  -1.748   9.113   6.235  0.0465 -0.8569  0.1293
  133MOL0     C17451  -1.868   9.100   6.301 -0.0373  0.1342 -0.4059
  133MOL0     C17452  -1.932   9.215   6.358  0.3716 -0.2513 -0.1231
  133MOL0     C17453  -2.055   9.201   6.445  0.0465 -0.2687 -0.4412
  133MOL0     O17454  -2.107   9.317   6.496 -0.9408  0.0811  0.2695
  133MOL0     C17455  -2.224   9.327   6.570 -0.7924  0.3726  0.3050
  133MOL0     C17456  -2.231   9.457   6.628  0.6734 -0.3611 -1.0038
  133MOL0     C17457  -2.344   9.476   6.709  0.5569 -0.0935  0.9096
  133MOL0     C17458  -2.441   9.388   6.728 -0.3421  0.3407 -0.9639
  133MOL0     O17459  -2.546   9.431   6.808  0.3162 -0.4750  0.1684
  133MOL0     C17460  -2.567   9.353   6.924  0.3844  0.2971 -0.1681
  133MOL0     C17461  -2.695   9.395   6.989  0.2031 -0.1694  0.3488
  133MOL0     C17462  -2.815   9.348   6.908  0.2919  1.0084 -0.1735
  133MOL0     C17463  -2.912   9.462   6.873 -0.1419  0.4002 -0.6183
  133MOL0     C17464  -2.987   9.424   6.754 -0.4700  0.2044  0.5076
  133MOL0     C17465  -3.092   9.533   6.734  0.2122  0.3362  0.5385
  133MOL0     C17466  -3.170   9.501   6.612 -0.8138  0.4196  0.6293
  133MOL0     C17467  -3.307   9.566   6.619 -0.1739 -0.9249 -1.2422
  133MOL0    Cl17468  -3.414   9.487   6.519  0.4264  0.1987 -0.1265
  133MOL0     C17469  -2.427   9.259   6.673  0.0014 -0.5902 -0.4023
  133MOL0     C17470  -2.320   9.229   6.595 -0.0066  1.2797  0.4133
  133MOL0     O17471  -2.096   9.089   6.467 -0.7799  0.4198  0.3286
  133MOL0     C17472  -1.875   9.335   6.328  0.1513  0.5304 -0.6854
  133MOL0     C17473  -1.758   9.353   6.258 -0.1032  0.4127 -0.3920
  133MOL0     N17474  -1.165   9.329   6.111 -0.3617  0.0636  0.1219
  133MOL0     N17475  -1.039   9.316   6.107  0.1756 -0.9920  0.2966
  133MOL0     C17476   0.010   9.332   6.050 -0.5234 -0.5941  0.7807
  133MOL0     C17477   0.074   9.276   5.940  1.5860 -0.4576  0.2086
  133MOL0     C17478   0.372   9.260   5.572 -0.4116 -0.6586 -0.4812
  133MOL0     C17479   0.291   9.163   5.515 -0.1216  0.7191  0.2190
  133MOL0     C17480   0.327   9.110   5.393 -0.6030  0.2596  0.8004
  133MOL0     C17481   0.440   9.149   5.322 -0.5608 -0.4504  1.3838
  133MOL0     O17482   0.484   9.077   5.212 -0.0305  0.0895  0.8415
  133MOL0     C17483   0.379   9.027   5.109 -1.0056  0.0694  0.6316
  133MOL0     C17484   0.435   9.069   4.979 -0.6763 -0.2840  0.0323
  133MOL0     C17485   0.388   9.214   4.950 -0.4022 -0.1175  0.2507
  133MOL0     C17486   0.483   9.297   4.865  0.3440  0.2160  0.4061
  133MOL0     C17487   0.515   9.220   4.743  0.5243 -0.4300 -0.2731
  133MOL0     C17488   0.524   9.156   4.647  0.0727  0.8751  1.1170
  133MOL0     C17489   0.509   9.258   5.363  0.7544  0.1700  0.2485
  133MOL0     C17490   0.479   9.311   5.494  1.2328 -1.3429  0.7385
  133MOL0     H17491   0.312   9.510   5.897  2.0855 -4.2445 -0.8270
  133MOL0     H17492   0.191   9.613   6.090  3.1565 -1.0042  0.5110
  133MOL0     H17493  -0.216   9.495   6.142 -1.4454  2.9184 -1.3587
  133MOL0     H17494  -0.132   9.655   6.134 -0.8528  0.4670 -0.7949
  133MOL0     H17495  -0.182   9.690   6.367 -1.3911 -1.0082  3.5034
  133MOL0     H17496  -0.224   9.514   6.390  0.4337 -1.2767 -0.1510
  133MOL0     H17497  -0.390   9.715   6.228 -2.1713  2.4884  2.7560
  133MOL0     H17498  -0.403   9.674   6.388  0.8128  0.6596 -0.5287
  133MOL0     H17499  -0.457   9.459   6.174  1.1863  1.4185 -0.2708
  133MOL0     H17500  -0.481   9.442   6.352 -2.4126  0.6361  0.0961
  133MOL0     H17501  -0.603   9.665   6.176 -1.1874  2.8515  1.7092
  133MOL0     H17502  -0.640   9.641   6.349 -3.3236  1.0552 -1.4915
  133MOL0     H17503  -0.680   9.413   6.162  1.0888  1.0346  1.0125
  133MOL0     H17504  -0.806   9.540   6.170  0.6490  2.9712  1.8232
  133MOL0     H17505  -0.694   9.377   6.408  0.7822 -1.0086 -1.2838
  133MOL0     H17506  -0.830   9.487   6.413  3.1401  0.3231  1.3123
  133MOL0     H17507  -0.891   9.254   6.367 -2.4626 -1.8863 -1.2996
  133MOL0     H17508  -0.823   9.246   6.213  0.5101 -0.4835  2.1360
  133MOL0     H17509  -1.094   9.444   6.398  3.2013 -0.2944  0.5069
  133MOL0     H17510  -1.392   9.464   6.151  3.3220 -3.0282 -1.0206
  133MOL0     H17511  -1.339   9.557   6.295 -2.8514  0.4293 -0.6780
  133MOL0     H17512  -1.508   9.392   6.361 -0.4180  0.3544  0.4552
  133MOL0     H17513  -1.342   9.371   6.446  2.8505 -0.2295 -1.0587
  133MOL0     H17514  -1.304   9.170   6.315  1.1952 -0.6354  0.0479
  133MOL0     H17515  -1.466   9.157   6.392  2.7408 -1.7829  0.0277
  133MOL0     H17516  -1.486   9.074   6.177 -1.5461  0.6533 -0.6772
  133MOL0     H17517  -1.384   9.190   6.098  0.6715 -2.1160 -0.9470
  133MOL0     H17518  -1.699   9.025   6.195  0.7790 -0.6590  0.5784
  133MOL0     H17519  -1.904   8.998   6.314 -0.2996 -0.0181 -2.0653
  133MOL0     H17520  -2.158   9.537   6.627 -0.7667  1.0040  0.0256
  133MOL0     H17521  -2.358   9.581   6.736 -0.0129  0.4879 -1.4088
  133MOL0     H17522  -2.483   9.370   6.992 -0.0471  0.6500  0.2849
  133MOL0     H17523  -2.570   9.244   6.911  0.2987 -0.0511  2.2309
  133MOL0     H17524  -2.702   9.503   7.008 -0.9346  0.4163 -2.7417
  133MOL0     H17525  -2.694   9.348   7.088 -1.4669  0.5102  0.7310
  133MOL0     H17526  -2.863   9.278   6.976  1.8586  0.4107  0.3611
  133MOL0     H17527  -2.789   9.297   6.815  1.5150 -1.6038  1.5120
  133MOL0     H17528  -2.988   9.466   6.951 -0.7273 -2.0089 -0.9897
  133MOL0     H17529  -2.865   9.559   6.854 -0.6310  0.2748 -2.7270
  133MOL0     H17530  -3.034   9.329   6.780  1.4744 -0.9020  0.1778
  133MOL0     H17531  -2.927   9.407   6.664 -1.5678 -1.0850 -0.0181
  133MOL0     H17532  -3.042   9.630   6.729  1.9361 -0.2224  4.0052
  133MOL0     H17533  -3.155   9.532   6.824  0.7909 -1.4726  0.9592
  133MOL0     H17534  -3.120   9.543   6.524 -0.6324  0.1675  0.6103
  133MOL0     H17535  -3.170   9.393   6.591  2.2759 -0.0801  2.5311
  133MOL0     H17536  -3.296   9.673   6.601  2.1879 -1.0639 -0.9599
  133MOL0     H17537  -3.336   9.560   6.724  3.9197  1.0493  0.2517
  133MOL0     H17538  -2.512   9.191   6.676 -1.3459  1.0342 -0.1890
  133MOL0     H17539  -2.308   9.131   6.550  2.1058  1.8085 -0.3077
  133MOL0     H17540  -1.921   9.421   6.376  1.7638  0.6797  0.6929
  133MOL0     H17541  -1.716   9.451   6.241  2.7680  0.1551  3.8353
  133MOL0     H17542  -0.074   9.275   6.090 -1.9260 -0.7574 -2.1727
  133MOL0     H17543   0.041   9.178   5.908  0.9825  0.1963 -1.2373
  133MOL0     H17544   0.206   9.127   5.572 -0.3136  1.3035  0.3091
  133MOL0     H17545   0.272   9.025   5.354 -0.1561  0.5784 -0.5731
  133MOL0     H17546   0.284   9.077   5.130  0.2037  1.0378  4.9765
  133MOL0     H17547   0.379   8.917   5.109 -0.8174  0.0686  0.3013
  133MOL0     H17548   0.544   9.058   4.985 -0.3275  1.7208 -1.3979
  133MOL0     H17549   0.404   9.012   4.891  1.4473 -0.6012 -0.5655
  133MOL0     H17550   0.376   9.275   5.040  0.7968 -2.1009  1.8579
  133MOL0     H17551   0.293   9.210   4.898 -0.2884 -0.1205  0.0431
  133MOL0     H17552   0.432   9.390   4.838  0.9633  0.4708  0.0749
  133MOL0     H17553   0.565   9.328   4.930  1.0922  1.8825 -1.2110
  133MOL0     H17554   0.519   9.111   4.550  0.2485  0.3020  1.3733
  133MOL0     H17555   0.600   9.296   5.317  0.3012 -0.9278 -1.6789
  133MOL0     H17556   0.543   9.397   5.511  0.8188 -0.7839 -0.4456
  134MOL0     O17557   3.909   5.100   4.874  0.6965 -0.0938 -0.0046
  134MOL0     C17558   3.942   4.990   4.900  0.2495 -0.1518 -0.2123
  134MOL0     O17559   3.852   4.889   4.918  0.3811 -0.2000  0.3906
  134MOL0     C17560   3.715   4.899   4.914  1.5367 -0.6309 -0.0667
  134MOL0     C17561   3.635   4.901   4.804  0.1520 -0.3211  0.6944
  134MOL0     C17562   3.493   4.916   4.823 -0.5747  0.3664 -0.9106
  134MOL0     C17563   3.431   4.925   4.949 -0.4249  0.6493  0.0455
  134MOL0     O17564   3.293   4.915   4.936 -0.2362  0.2049 -0.6751
  134MOL0     C17565   3.205   4.942   5.054  0.4537  0.8561 -0.5797
  134MOL0     C17566   3.104   5.051   5.026 -0.1688 -0.1521 -0.2919
  134MOL0     C17567   2.973   5.008   4.946 -0.6133 -0.3575  0.2968
  134MOL0     C17568   2.850   5.095   4.953 -0.0068 -0.5776 -0.1383
  134MOL0     C17569   2.739   5.040   4.865 -0.7885  0.1329 -0.4775
  134MOL0     C17570   2.697   4.897   4.900 -0.6682 -0.1231 -0.1113
  134MOL0     C17571   2.572   4.847   4.830  0.2209 -0.9701  0.0715
  134MOL0     C17572   2.590   4.840   4.675  0.3324  0.8393  0.1591
  134MOL0     N17573   2.470   4.798   4.608  0.5137  0.5706 -0.5761
  134MOL0     C17574   2.465   4.770   4.472  0.3447 -0.1978 -0.6246
  134MOL0     C17575   2.334   4.723   4.453  0.4265 -0.0846 -0.6529
  134MOL0     C17576   2.279   4.670   4.321 -1.2744 -0.3089  0.2332
  134MOL0     C17577   2.238   4.524   4.334 -0.0963  0.1205 -0.7446
  134MOL0     C17578   2.188   4.472   4.196  0.0064 -0.2284 -0.3464
  134MOL0     C17579   2.047   4.512   4.152 -0.5061  0.2624 -0.5220
  134MOL0     O17580   1.955   4.440   4.241  0.4355 -0.2984  0.0053
  134MOL0     C17581   1.818   4.433   4.211 -1.1769 -0.1030 -0.1141
  134MOL0     C17582   1.738   4.371   4.308 -0.0165 -0.2263 -0.1422
  134MOL0     C17583   1.601   4.372   4.305 -0.4866 -0.6275  0.9943
  134MOL0     C17584   1.533   4.438   4.192 -0.0372  0.0642  0.0612
  134MOL0     C17585   1.390   4.432   4.182 -0.5314 -0.3726 -0.5496
  134MOL0     O17586   1.326   4.478   4.072 -0.7343  0.3522 -0.1815
  134MOL0     C17587   1.191   4.458   4.054  0.0006 -0.2715 -1.3281
  134MOL0     C17588   1.135   4.334   4.074  0.8070  0.4846  0.2380
  134MOL0     C17589   0.995   4.319   4.070  0.5215 -0.4598  0.0732
  134MOL0     C17590   0.910   4.433   4.050 -0.5205  0.2121  0.4205
  134MOL0     O17591   0.774   4.432   4.060 -0.1761  0.6566  0.0255
  134MOL0     C17592   0.705   4.311   4.046  0.5152  0.6695 -0.4352
  134MOL0     C17593   0.560   4.364   4.063 -0.0429  0.0495  0.1679
  134MOL0     C17594   0.463   4.276   4.005  0.6881  0.3876 -0.4487
  134MOL0     C17595   0.319   4.318   3.978  0.5924 -1.0142  0.0108
  134MOL0     C17596   0.233   4.324   4.101  0.6972 -0.0568 -1.2029
  134MOL0     C17597   0.090   4.384   4.070  0.0576 -0.3356 -0.3623
  134MOL0     C17598   0.014   4.313   3.957 -0.0831  0.1587 -0.4619
  134MOL0     C17599  -0.007   4.397   3.831 -0.2851 -0.4809  0.1605
  134MOL0    Cl17600  -0.127   4.311   3.720  0.0146 -0.0555  0.3364
  134MOL0     C17601   0.971   4.556   4.019 -0.5062  0.1729  0.5530
  134MOL0     C17602   1.111   4.560   4.016  0.5147 -0.5166 -0.8784
  134MOL0     O17603   1.334   4.373   4.280 -0.4131 -0.2080 -0.0300
  134MOL0     C17604   1.619   4.482   4.092  0.2952  0.4928 -0.4570
  134MOL0     C17605   1.758   4.481   4.095  0.0504  0.0133  0.1546
  134MOL0     N17606   2.263   4.736   4.578 -0.9607 -0.1659 -0.8381
  134MOL0     N17607   2.348   4.776   4.668  0.5419 -0.1385  1.3389
  134MOL0     C17608   3.513   4.927   5.067 -1.1897 -0.6093 -0.8749
  134MOL0     C17609   3.654   4.905   5.042  0.3981 -0.6109 -0.5397
  134MOL0     C17610   4.082   4.958   4.930  0.2985  0.3645 -0.2918
  134MOL0     C17611   4.129   4.830   4.958  0.2898 -0.0549  0.3026
  134MOL0     C17612   4.256   4.789   4.991  0.1572 -0.2557  0.6847
  134MOL0     C17613   4.350   4.890   5.010  0.0595 -0.0088 -0.0437
  134MOL0     O17614   4.479   4.877   5.058 -0.3109 -0.4232  0.9203
  134MOL0     C17615   4.536   4.751   5.054 -0.3703 -0.4366  0.9598
  134MOL0     C17616   4.683   4.761   5.082  0.5355 -0.0573  0.1508
  134MOL0     C17617   4.760   4.626   5.056  0.5253 -0.6735 -0.7067
  134MOL0     C17618   4.872   4.608   5.158 -0.4710 -0.3185  0.0351
  134MOL0     C17619   4.927   4.472   5.137  0.4297  0.7148  0.2553
  134MOL0     C17620   4.967   4.359   5.133  1.0955 -0.5456 -0.1036
  134MOL0     C17621   4.315   5.020   4.985 -0.3049 -0.6036  0.4254
  134MOL0     C17622   4.188   5.060   4.943 -0.4042  0.3097 -0.4364
  134MOL0     H17623   3.673   4.898   4.703  1.4579  5.4583  0.6480
  134MOL0     H17624   3.425   4.914   4.739 -0.9947 -0.0273 -0.5687
  134MOL0     H17625   3.251   4.969   5.150 -0.8847 -0.2167  0.4091
  134MOL0     H17626   3.158   4.845   5.072 -0.4917  1.1757 -1.2746
  134MOL0     H17627   3.148   5.141   4.981 -0.6925 -1.3974 -3.5487
  134MOL0     H17628   3.074   5.069   5.129  0.9252  1.6807 -0.2425
  134MOL0     H17629   2.954   4.907   4.984  0.6673 -0.2179  1.3335
  134MOL0     H17630   2.999   4.995   4.840 -0.8387  0.8281  0.0851
  134MOL0     H17631   2.829   5.103   5.060  5.4027 -2.6368  1.3973
  134MOL0     H17632   2.867   5.199   4.925 -2.7837  0.2960  1.0736
  134MOL0     H17633   2.771   5.048   4.761  1.5053 -1.3785  0.0386
  134MOL0     H17634   2.656   5.109   4.877 -2.7649 -1.7323 -2.5417
  134MOL0     H17635   2.712   4.881   5.007  3.7114  1.2367 -0.3145
  134MOL0     H17636   2.778   4.840   4.854 -1.9420 -0.6726 -1.7688
  134MOL0     H17637   2.553   4.750   4.875  2.5460 -0.7270  1.7395
  134MOL0     H17638   2.484   4.908   4.852  0.9429  1.0792 -2.2260
  134MOL0     H17639   2.669   4.768   4.652 -1.2948 -1.0780  0.2879
  134MOL0     H17640   2.616   4.940   4.640  1.0907  1.0276  1.2373
  134MOL0     H17641   2.543   4.788   4.398  2.2139  2.6970  1.7986
  134MOL0     H17642   2.359   4.687   4.250  0.1875  0.6797  2.0367
  134MOL0     H17643   2.199   4.738   4.291  0.0115  0.4981 -1.5238
  134MOL0     H17644   2.163   4.522   4.414  3.3877 -1.9490  2.8261
  134MOL0     H17645   2.323   4.461   4.363  0.3316  0.3396 -1.5171
  134MOL0     H17646   2.259   4.499   4.118  2.3169  0.2439  1.7630
  134MOL0     H17647   2.188   4.364   4.210  1.7019 -0.3454 -1.0293
  134MOL0     H17648   2.034   4.485   4.046 -1.3752  2.0764 -0.9145
  134MOL0     H17649   2.040   4.621   4.160  3.1238  0.6600 -1.2110
  134MOL0     H17650   1.792   4.317   4.385  0.3098  2.0086  1.3199
  134MOL0     H17651   1.554   4.315   4.385 -0.7023  1.6308  2.5674
  134MOL0     H17652   1.193   4.246   4.097  0.1775 -0.2750 -0.9603
  134MOL0     H17653   0.954   4.220   4.084 -1.2568  0.2393  0.1301
  134MOL0     H17654   0.723   4.241   4.128  0.9552  1.8046  0.4780
  134MOL0     H17655   0.733   4.268   3.950 -0.2046 -2.1598  0.5245
  134MOL0     H17656   0.557   4.455   4.003 -1.9027 -2.7616 -4.5242
  134MOL0     H17657   0.528   4.395   4.163 -1.2718 -1.3580  0.2362
  134MOL0     H17658   0.463   4.182   4.061 -0.1744  0.8096  0.2851
  134MOL0     H17659   0.482   4.248   3.901 -1.6365  0.6461 -1.0139
  134MOL0     H17660   0.326   4.422   3.943 -2.2841 -1.0229 -0.8051
  134MOL0     H17661   0.271   4.268   3.894 -0.9892  2.9853 -1.7349
  134MOL0     H17662   0.280   4.394   4.171  0.2444 -0.7683 -0.1548
  134MOL0     H17663   0.231   4.225   4.148 -2.2402  0.9894  1.2008
  134MOL0     H17664   0.099   4.490   4.044  1.2842 -0.3682 -0.1147
  134MOL0     H17665   0.034   4.374   4.163  2.4243  1.8544  1.4357
  134MOL0     H17666   0.067   4.220   3.935 -0.4331  0.2903 -2.0036
  134MOL0     H17667  -0.085   4.276   3.985  0.3644 -1.6274 -1.0726
  134MOL0     H17668   0.087   4.396   3.775  0.0930 -0.8324  0.7948
  134MOL0     H17669  -0.037   4.502   3.844  1.3431  0.4215 -2.6321
  134MOL0     H17670   0.910   4.640   3.985 -1.0798 -0.0526  1.0034
  134MOL0     H17671   1.156   4.656   3.992 -0.1141  0.0438  0.1148
  134MOL0     H17672   1.570   4.511   4.000  3.0392 -0.1142 -2.2175
  134MOL0     H17673   1.802   4.534   4.012 -0.6724  0.3542 -0.0196
  134MOL0     H17674   3.461   4.944   5.160 -0.2116 -3.2255  0.2384
  134MOL0     H17675   3.721   4.904   5.127  0.2713 -0.5297 -0.4382
  134MOL0     H17676   4.058   4.748   4.955 -0.8833  0.9460 -1.3367
  134MOL0     H17677   4.275   4.684   5.010  0.6103 -0.4808 -0.9082
  134MOL0     H17678   4.529   4.709   4.953  1.8652  1.4793 -0.0868
  134MOL0     H17679   4.488   4.678   5.120 -1.3895 -2.6813 -1.9921
  134MOL0     H17680   4.726   4.839   5.019 -1.8956  0.8729 -0.4857
  134MOL0     H17681   4.681   4.786   5.189 -0.9060  1.4652 -0.1863
  134MOL0     H17682   4.803   4.622   4.956  0.4992 -5.2888 -0.7368
  134MOL0     H17683   4.695   4.538   5.053 -0.2221 -0.1025 -2.4018
  134MOL0     H17684   4.943   4.687   5.133 -1.3711  0.6420  0.4720
  134MOL0     H17685   4.835   4.613   5.261 -1.2262 -0.7578 -0.2027
  134MOL0     H17686   5.010   4.261   5.129 -0.2966 -1.1534 -0.8570
  134MOL0     H17687   4.387   5.101   4.985  0.4410 -1.2172 -0.9642
  134MOL0     H17688   4.163   5.164   4.923 -2.0951  0.0912  0.3740
  135MOL0     O17689  10.635   5.033  11.000  0.9918 -0.3421 -0.0239
  135MOL0     C17690  10.708   4.952  11.056 -0.5635 -1.2356  0.1291
  135MOL0     O17691  10.675   4.894  11.169 -0.3477  0.0985  0.8549
  135MOL0     C17692  10.547   4.879  11.203  0.5176 -0.9339 -0.2268
  135MOL0     C17693  10.483   4.957  11.296  0.0429 -0.4466 -0.0791
  135MOL0     C17694  10.359   4.915  11.348  0.3321 -0.2444  0.5296
  135MOL0     C17695  10.300   4.803  11.302 -0.1353 -0.4039  0.0773
  135MOL0     O17696  10.188   4.746  11.357 -0.6373  0.2736  0.0249
  135MOL0     C17697  10.131   4.795  11.479 -0.5251  0.6972  0.0792
  135MOL0     C17698  10.058   4.931  11.469 -0.0237  0.3109  0.7755
  135MOL0     C17699   9.911   4.902  11.417  0.1296  0.9961  0.5696
  135MOL0     C17700   9.838   5.033  11.412 -0.4409 -0.6064 -0.1226
  135MOL0     C17701   9.698   5.008  11.359 -0.3056 -0.2147  0.6254
  135MOL0     C17702   9.641   5.138  11.303  0.3769  0.3754  0.6027
  135MOL0     C17703   9.499   5.122  11.244 -0.1965 -0.3577  0.2299
  135MOL0     C17704   9.393   5.055  11.324 -0.5094  0.5487 -0.0219
  135MOL0     N17705   9.265   5.059  11.257 -0.4098 -0.6286 -1.1569
  135MOL0     C17706   9.233   4.999  11.135  0.2169  0.1972  0.0380
  135MOL0     C17707   9.113   5.050  11.097 -0.0354  0.0474  0.0779
  135MOL0     C17708   9.036   5.013  10.978 -0.4812 -0.0466  0.5889
  135MOL0     C17709   8.907   4.935  11.018  0.5357 -0.7654 -0.5740
  135MOL0     C17710   8.780   5.026  11.025 -0.6541 -0.3075 -0.1016
  135MOL0     C17711   8.654   4.949  10.972 -0.4161 -0.0004 -0.1152
  135MOL0     O17712   8.537   5.017  11.015  0.8278  0.6504 -0.2456
  135MOL0     C17713   8.425   4.971  10.955 -0.1521  0.2570  0.2279
  135MOL0     C17714   8.406   4.845  10.895  0.2529  0.7376  0.2779
  135MOL0     C17715   8.290   4.807  10.836  0.2798 -0.2667  0.5227
  135MOL0     C17716   8.181   4.891  10.836  0.0970 -0.4746  0.3757
  135MOL0     C17717   8.063   4.834  10.788  0.4296  0.9260 -0.6453
  135MOL0     O17718   8.053   4.699  10.790  0.3214  0.2363 -0.2936
  135MOL0     C17719   7.944   4.650  10.728  0.1928 -0.2992 -0.9745
  135MOL0     C17720   7.929   4.659  10.588 -0.6612  0.5856 -0.0355
  135MOL0     C17721   7.809   4.624  10.523  0.6983 -0.5756 -0.6783
  135MOL0     C17722   7.712   4.565  10.600 -0.3583 -0.6728 -0.0508
  135MOL0     O17723   7.598   4.530  10.536 -0.5202 -0.3964 -0.1045
  135MOL0     C17724   7.532   4.407  10.579  0.1420 -0.5089  0.4479
  135MOL0     C17725   7.446   4.346  10.480 -0.0976 -0.0989 -0.0952
  135MOL0     C17726   7.436   4.200  10.501  0.5566  1.1992  1.2929
  135MOL0     C17727   7.340   4.135  10.392 -0.0966 -0.8215  0.1931
  135MOL0     C17728   7.201   4.093  10.430  0.9979  0.5651  0.3733
  135MOL0     C17729   7.188   4.021  10.565 -0.0599 -0.4152  0.1324
  135MOL0     C17730   7.035   4.006  10.589 -0.8881  0.4198  0.2382
  135MOL0     C17731   6.947   3.927  10.486 -0.1796  0.3951  0.3505
  135MOL0    Cl17732   6.786   3.894  10.563 -0.1139 -0.4703 -0.3958
  135MOL0     C17733   7.735   4.534  10.740  0.2144  0.4208  0.8438
  135MOL0     C17734   7.848   4.583  10.805  0.5514 -0.1585  0.8650
  135MOL0     O17735   7.971   4.910  10.772 -0.2300 -0.0395 -0.1538
  135MOL0     C17736   8.199   5.019  10.888 -0.9033  0.0980 -0.6003
  135MOL0     C17737   8.322   5.065  10.949  0.1209 -0.1161 -0.4056
  135MOL0     N17738   9.077   5.143  11.198 -0.1128  0.0206  0.1979
  135MOL0     N17739   9.161   5.140  11.298 -0.9937 -0.2060  0.4248
  135MOL0     C17740  10.355   4.741  11.192  1.0397 -1.1503  0.6134
  135MOL0     C17741  10.478   4.776  11.150 -0.4747 -0.1403 -0.3781
  135MOL0     C17742  10.843   4.918  11.000 -0.6271  0.6451 -0.4935
  135MOL0     C17743  10.929   5.009  10.934  0.6495  0.5032  0.9046
  135MOL0     C17744  11.054   4.973  10.882  0.4551 -0.2342 -0.4421
  135MOL0     C17745  11.095   4.838  10.884 -0.9523 -0.1091 -0.2677
  135MOL0     O17746  11.219   4.808  10.827  0.5420 -1.0874 -1.0625
  135MOL0     C17747  11.317   4.790  10.928 -0.6049  0.4900  0.5123
  135MOL0     C17748  11.420   4.898  10.897  0.7779  0.1056  0.2062
  135MOL0     C17749  11.557   4.899  10.979  0.5172 -0.6561  0.0759
  135MOL0     C17750  11.639   5.015  10.922 -1.0893  0.6309 -0.2659
  135MOL0     C17751  11.782   4.987  10.942 -0.4227 -0.3890 -0.2096
  135MOL0     C17752  11.892   4.963  10.978  0.1678  0.4401  0.3042
  135MOL0     C17753  11.018   4.746  10.956  0.2162  0.2100 -0.0500
  135MOL0     C17754  10.899   4.787  11.014  0.2348  0.0280 -0.6956
  135MOL0     H17755  10.529   5.044  11.342 -0.6862 -2.3463  4.9384
  135MOL0     H17756  10.334   4.981  11.430 -2.0455  2.6763 -2.2690
  135MOL0     H17757  10.208   4.802  11.556  0.3980 -1.1500 -0.6374
  135MOL0     H17758  10.054   4.727  11.517 -0.9482  0.3555 -1.3417
  135MOL0     H17759  10.114   4.990  11.395  2.3027 -4.4653 -1.6934
  135MOL0     H17760  10.079   4.985  11.562  5.2099  0.9398 -0.4439
  135MOL0     H17761   9.859   4.829  11.481 -3.0894  0.1901 -2.6340
  135MOL0     H17762   9.916   4.859  11.317  1.2570  2.2034  0.0750
  135MOL0     H17763   9.834   5.076  11.513  3.5655  2.9242 -1.1623
  135MOL0     H17764   9.889   5.097  11.339 -0.2683  0.6514  1.0606
  135MOL0     H17765   9.642   4.972  11.446 -0.6606  0.0739  0.5182
  135MOL0     H17766   9.690   4.933  11.281 -0.5111  0.5088 -0.0656
  135MOL0     H17767   9.709   5.157  11.219 -2.7948 -0.0771 -2.3265
  135MOL0     H17768   9.639   5.220  11.375 -3.1056 -0.1819  1.3229
  135MOL0     H17769   9.473   5.225  11.219  1.1946 -0.3876 -1.5040
  135MOL0     H17770   9.509   5.067  11.150  1.3272 -1.7388  1.1231
  135MOL0     H17771   9.371   5.097  11.423 -2.1312  1.4905 -0.7383
  135MOL0     H17772   9.422   4.951  11.341  2.5001  1.0694 -1.3263
  135MOL0     H17773   9.295   4.937  11.072 -2.0893  1.1690 -3.4620
  135MOL0     H17774   9.079   4.943  10.905 -1.5032 -1.4375  1.2717
  135MOL0     H17775   9.020   5.104  10.921  1.9362 -0.9039 -1.6367
  135MOL0     H17776   8.920   4.888  11.116 -4.5439  1.7797  1.7030
  135MOL0     H17777   8.891   4.849  10.953 -2.1102  0.4501 -1.6809
  135MOL0     H17778   8.764   5.064  11.127 -2.4525 -1.4004  0.0644
  135MOL0     H17779   8.801   5.114  10.963  0.3467  1.3727  2.4500
  135MOL0     H17780   8.644   4.843  10.993  1.0976 -0.9500 -3.4878
  135MOL0     H17781   8.657   4.953  10.862 -0.1335  2.3215 -0.0926
  135MOL0     H17782   8.487   4.773  10.884 -1.6119 -1.4993  0.6415
  135MOL0     H17783   8.284   4.709  10.791  2.7630 -0.0479 -0.4372
  135MOL0     H17784   8.012   4.705  10.536  1.3796 -0.4538  2.1379
  135MOL0     H17785   7.793   4.636  10.416 -1.6432 -0.1508 -0.3302
  135MOL0     H17786   7.476   4.417  10.673  0.6148  0.7094  0.6179
  135MOL0     H17787   7.612   4.335  10.601 -0.7638 -1.1802  1.7432
  135MOL0     H17788   7.471   4.379  10.379  0.4537  2.2421  0.7277
  135MOL0     H17789   7.342   4.380  10.493 -0.2629 -1.0709  1.3810
  135MOL0     H17790   7.414   4.177  10.606  1.3643  0.1673  1.2577
  135MOL0     H17791   7.531   4.156  10.469 -1.6910  0.3950 -5.9605
  135MOL0     H17792   7.341   4.210  10.313  1.6122 -0.2837  0.6936
  135MOL0     H17793   7.392   4.046  10.357 -0.0376  0.1317 -2.3456
  135MOL0     H17794   7.147   4.050  10.345  2.2969 -0.5752  0.0913
  135MOL0     H17795   7.146   4.187  10.432  0.4668  0.2814 -0.3940
  135MOL0     H17796   7.218   4.075  10.655 -1.2396 -0.1756  0.4014
  135MOL0     H17797   7.227   3.919  10.561 -0.0127 -0.3714 -3.0983
  135MOL0     H17798   7.029   3.961  10.688 -0.9580  1.3079  0.6407
  135MOL0     H17799   6.994   4.107  10.593  1.0745  1.3879 -1.7031
  135MOL0     H17800   6.991   3.832  10.452  0.8783  0.5392  1.2732
  135MOL0     H17801   6.928   3.984  10.395  0.0901  1.9032  1.2145
  135MOL0     H17802   7.658   4.489  10.801 -0.3243  0.2263  0.0363
  135MOL0     H17803   7.851   4.570  10.913  1.5335  0.3411  0.9077
  135MOL0     H17804   8.115   5.088  10.877 -3.1042 -2.0200  1.5720
  135MOL0     H17805   8.323   5.160  11.000  2.2907 -0.8118  0.9627
  135MOL0     H17806  10.301   4.655  11.153  3.0191 -2.6342  1.0077
  135MOL0     H17807  10.535   4.719  11.077 -1.9592 -1.4988 -0.5232
  135MOL0     H17808  10.891   5.109  10.915  4.7032  2.0073 -0.2710
  135MOL0     H17809  11.119   5.042  10.829  0.2641 -0.8376 -1.4845
  135MOL0     H17810  11.364   4.692  10.916  0.7017  1.2008 -0.4479
  135MOL0     H17811  11.292   4.806  11.033  1.3103  3.4808  0.6382
  135MOL0     H17812  11.446   4.886  10.792 -1.5134 -0.5425 -0.3230
  135MOL0     H17813  11.379   5.000  10.899  1.1884  0.3397 -1.8595
  135MOL0     H17814  11.598   4.798  10.972 -1.6802 -1.5443 -1.1174
  135MOL0     H17815  11.541   4.926  11.084 -0.0553  0.6703 -0.3280
  135MOL0     H17816  11.623   5.012  10.814 -0.1303  0.7026 -0.4173
  135MOL0     H17817  11.618   5.117  10.957 -2.6488 -0.0737  0.9910
  135MOL0     H17818  11.988   4.945  11.023 -0.5624  0.3998  1.9174
  135MOL0     H17819  11.056   4.645  10.962 -1.7246 -0.4704  1.9947
  135MOL0     H17820  10.836   4.720  11.073 -0.6211 -0.4539 -2.0917
  136MOL0     O17821   5.940  10.381   1.827 -0.4164 -0.7195 -0.3955
  136MOL0     C17822   6.003  10.343   1.731  1.1087  0.3625 -0.8593
  136MOL0     O17823   5.976  10.369   1.604  0.0787 -0.1699  0.2309
  136MOL0     C17824   5.866  10.451   1.576  0.7780  0.2056  0.2097
  136MOL0     C17825   5.882  10.550   1.478  0.3703  0.0521  0.2360
  136MOL0     C17826   5.770  10.627   1.434  0.6244  0.9816 -0.0162
  136MOL0     C17827   5.646  10.607   1.490  0.2730  1.0238  0.1784
  136MOL0     O17828   5.531  10.681   1.465  0.5474  0.4820  0.1490
  136MOL0     C17829   5.534  10.754   1.345  0.1003  0.0088 -0.1892
  136MOL0     C17830   5.390  10.797   1.326  0.3489 -0.0194  0.3515
  136MOL0     C17831   5.356  10.890   1.215 -0.1586  0.1127 -0.9758
  136MOL0     C17832   5.198  10.898   1.217  0.1783  0.1159  0.6665
  136MOL0     C17833   5.139  10.974   1.336 -0.1013 -0.5622 -0.5272
  136MOL0     C17834   4.995  11.019   1.311 -0.9162  0.0844  0.4221
  136MOL0     C17835   4.946  11.087   1.445 -0.0048 -0.1841  0.4139
  136MOL0     C17836   4.908  10.983   1.550 -0.0654 -0.3108  0.0723
  136MOL0     N17837   4.809  10.883   1.500  0.3747  0.2142  0.2657
  136MOL0     C17838   4.841  10.762   1.441 -0.2341 -0.0402 -0.6433
  136MOL0     C17839   4.730  10.718   1.383 -0.2191 -0.1216 -0.0213
  136MOL0     C17840   4.716  10.605   1.296  0.0136 -0.3217  0.2106
  136MOL0     C17841   4.841  10.529   1.259 -0.7205  0.9241  0.3984
  136MOL0     C17842   4.912  10.616   1.144 -1.1023 -0.5824  0.8564
  136MOL0     C17843   5.033  10.556   1.091 -0.2333  0.3237 -0.7056
  136MOL0     O17844   5.092  10.465   1.190  0.1107  0.0534 -0.0279
  136MOL0     C17845   5.218  10.427   1.161 -0.3053 -0.5059 -0.2846
  136MOL0     C17846   5.311  10.425   1.270  0.3385  0.3916 -0.2859
  136MOL0     C17847   5.443  10.398   1.249 -0.3043  0.7714  0.3268
  136MOL0     C17848   5.488  10.363   1.124 -0.3263 -0.3361  0.1988
  136MOL0     C17849   5.630  10.331   1.113  0.2743 -0.2595 -0.6486
  136MOL0     O17850   5.705  10.375   1.227  0.3362 -0.4927  0.1015
  136MOL0     C17851   5.823  10.301   1.232  1.6270 -0.2410  1.0732
  136MOL0     C17852   5.938  10.338   1.169  0.1150 -0.2564  0.4020
  136MOL0     C17853   6.053  10.253   1.175 -0.4931  0.4069 -0.0755
  136MOL0     C17854   6.055  10.137   1.257 -0.4822 -0.0146 -0.3391
  136MOL0     O17855   6.158  10.043   1.271  0.2990 -0.1944 -0.1597
  136MOL0     C17856   6.274  10.077   1.196 -1.4806  0.3569  0.0387
  136MOL0     C17857   6.382   9.967   1.203  0.4576 -0.2079 -0.1049
  136MOL0     C17858   6.515  10.030   1.152 -0.2993  0.1591 -0.5250
  136MOL0     C17859   6.624   9.917   1.141  0.5837  0.1258 -0.0208
  136MOL0     C17860   6.760   9.979   1.090 -0.1091  0.5151  0.2443
  136MOL0     C17861   6.874   9.879   1.112  0.0625 -0.0388 -0.4497
  136MOL0     C17862   6.934   9.887   1.260 -0.9006 -0.3414  0.5100
  136MOL0     C17863   7.048   9.782   1.274 -0.5099 -0.1226  0.3028
  136MOL0    Cl17864   7.179   9.843   1.174  0.2785 -0.3250 -0.2914
  136MOL0     C17865   5.937  10.100   1.322  0.1778  0.3287  0.4961
  136MOL0     C17866   5.821  10.183   1.304  0.2276 -0.3907 -0.0906
  136MOL0     O17867   5.673  10.265   1.021 -0.0783  0.2223 -0.4485
  136MOL0     C17868   5.405  10.360   1.012 -0.2014  0.4017 -1.0695
  136MOL0     C17869   5.271  10.402   1.033  0.5105  0.0742  0.6512
  136MOL0     N17870   4.636  10.818   1.389  1.0202 -0.0554  0.5142
  136MOL0     N17871   4.678  10.911   1.467  0.1012  0.0111 -0.2917
  136MOL0     C17872   5.635  10.503   1.582 -0.1689 -0.1314 -0.3412
  136MOL0     C17873   5.736  10.428   1.624 -0.0043  0.5685 -0.9744
  136MOL0     C17874   6.117  10.257   1.769 -0.0490 -1.1968 -0.0062
  136MOL0     C17875   6.169  10.172   1.673 -0.6119  0.5525 -1.1134
  136MOL0     C17876   6.264  10.080   1.710 -0.0923  0.4273  0.3209
  136MOL0     C17877   6.320  10.073   1.838  0.4876  0.1126 -0.2588
  136MOL0     O17878   6.426   9.990   1.856 -0.5850  0.6102  0.3137
  136MOL0     C17879   6.508  10.010   1.968  0.2044 -0.7331 -0.2515
  136MOL0     C17880   6.648   9.961   1.934 -0.4451  0.0407  0.2927
  136MOL0     C17881   6.660   9.818   1.884 -0.8014 -0.1759 -0.8182
  136MOL0     C17882   6.601   9.793   1.747 -0.1975  0.7624  0.3236
  136MOL0     C17883   6.633   9.873   1.626  0.2200 -0.9014  0.2435
  136MOL0     C17884   6.649   9.937   1.522  0.4809 -0.7275  0.2202
  136MOL0     C17885   6.259  10.150   1.936  0.0113  0.1647 -0.1151
  136MOL0     C17886   6.158  10.246   1.904 -0.1710  0.5979 -0.1546
  136MOL0     H17887   5.987  10.556   1.450  1.3196 -1.7444  3.0200
  136MOL0     H17888   5.788  10.693   1.349 -1.5339  0.6849 -0.7614
  136MOL0     H17889   5.575  10.703   1.257  0.6964  2.2582 -1.3143
  136MOL0     H17890   5.603  10.838   1.362  0.5462 -0.5471  0.8223
  136MOL0     H17891   5.368  10.847   1.420  1.8650 -1.5015  1.5625
  136MOL0     H17892   5.327  10.708   1.315 -0.5023  0.6079  0.0440
  136MOL0     H17893   5.393  10.838   1.125  4.0716 -0.7538  0.9991
  136MOL0     H17894   5.410  10.985   1.225 -1.7468  0.9286  0.1765
  136MOL0     H17895   5.169  10.953   1.128 -0.2255 -2.1251 -0.6807
  136MOL0     H17896   5.140  10.806   1.203 -0.8162  0.2653  3.2242
  136MOL0     H17897   5.196  11.067   1.345 -0.0268 -0.5869 -0.7467
  136MOL0     H17898   5.137  10.916   1.428 -0.9623 -1.4886 -1.1084
  136MOL0     H17899   4.932  10.935   1.279  1.4386 -1.9610  0.8946
  136MOL0     H17900   4.996  11.091   1.229 -1.2633 -1.6311 -1.1353
  136MOL0     H17901   5.023  11.160   1.472  0.8039 -0.2824 -1.4436
  136MOL0     H17902   4.851  11.140   1.433 -0.2194 -0.5049  0.6961
  136MOL0     H17903   4.859  11.036   1.632  1.2434 -0.6524  1.1215
  136MOL0     H17904   4.998  10.934   1.588 -0.3989 -1.2337 -0.3119
  136MOL0     H17905   4.938  10.715   1.439 -0.9722 -1.6508 -0.6694
  136MOL0     H17906   4.682  10.638   1.197  1.2339 -0.6330 -0.3376
  136MOL0     H17907   4.640  10.545   1.347 -1.8466  2.2735  0.6992
  136MOL0     H17908   4.812  10.432   1.217  0.0296  1.4892 -1.5671
  136MOL0     H17909   4.910  10.518   1.343  0.6036 -0.7824 -0.8382
  136MOL0     H17910   4.851  10.622   1.054 -0.5318 -1.6527  0.3753
  136MOL0     H17911   4.940  10.715   1.183  2.6621 -0.8894 -0.6402
  136MOL0     H17912   5.111  10.628   1.065  2.8420 -2.8507 -0.9980
  136MOL0     H17913   5.006  10.515   0.993 -0.9426  0.8249 -0.7255
  136MOL0     H17914   5.269  10.423   1.370  1.7211 -1.8513  0.3232
  136MOL0     H17915   5.510  10.398   1.334 -0.7522 -2.8592  0.8200
  136MOL0     H17916   5.928  10.429   1.110  1.6248 -0.5593 -0.3668
  136MOL0     H17917   6.137  10.282   1.113  0.5604  0.2992  1.2612
  136MOL0     H17918   6.316  10.170   1.235 -1.9491 -0.4151  2.5982
  136MOL0     H17919   6.250  10.078   1.089 -0.4570 -1.9973 -0.2836
  136MOL0     H17920   6.356   9.882   1.139  4.3025 -0.9426 -0.9426
  136MOL0     H17921   6.393   9.933   1.306 -0.9361  0.4228  0.2713
  136MOL0     H17922   6.548  10.100   1.229  0.6342  0.3783 -1.1042
  136MOL0     H17923   6.509  10.084   1.057 -1.4086 -0.6149 -0.9124
  136MOL0     H17924   6.648   9.864   1.233 -0.1829  0.3142  0.3011
  136MOL0     H17925   6.601   9.846   1.061 -0.1065  0.8993 -0.5282
  136MOL0     H17926   6.774  10.077   1.136  0.2103  2.1698 -3.0816
  136MOL0     H17927   6.752   9.992   0.982  1.0643  2.8027  0.3599
  136MOL0     H17928   6.952   9.895   1.037 -0.2427 -0.1818 -0.8004
  136MOL0     H17929   6.837   9.777   1.098 -0.6645 -0.1995  2.0912
  136MOL0     H17930   6.980   9.982   1.287  0.6232 -0.5800 -1.1122
  136MOL0     H17931   6.857   9.865   1.336 -2.2996  3.4150  0.3828
  136MOL0     H17932   7.023   9.678   1.248 -0.8290  0.3200 -1.2604
  136MOL0     H17933   7.077   9.776   1.379 -0.0575 -1.3126  0.1328
  136MOL0     H17934   5.941  10.013   1.386  0.0591  0.6692  0.9720
  136MOL0     H17935   5.729  10.165   1.359  0.1227  0.8801  0.1883
  136MOL0     H17936   5.448  10.338   0.915 -1.3297  0.2041 -1.5352
  136MOL0     H17937   5.202  10.414   0.949 -1.4275  1.7061  2.3474
  136MOL0     H17938   5.533  10.484   1.614  0.0867  0.9773  1.1978
  136MOL0     H17939   5.713  10.347   1.691  0.0388 -0.0192 -1.6561
  136MOL0     H17940   6.146  10.171   1.567 -1.3080 -0.2853 -0.9644
  136MOL0     H17941   6.304  10.003   1.644  1.3096  0.3316  1.2331
  136MOL0     H17942   6.482   9.943   2.050  0.4160 -1.1885 -0.5561
  136MOL0     H17943   6.519  10.115   2.000  2.0581 -0.5111 -1.4613
  136MOL0     H17944   6.681  10.027   1.853  0.3220  1.2505  1.5542
  136MOL0     H17945   6.724   9.978   2.010  1.3686 -1.3125 -1.1257
  136MOL0     H17946   6.597   9.756   1.948  0.2948 -0.1649  0.3111
  136MOL0     H17947   6.765   9.787   1.881 -0.3438  1.3368 -2.3597
  136MOL0     H17948   6.628   9.693   1.713 -0.4782  0.8877 -0.2851
  136MOL0     H17949   6.492   9.786   1.751 -0.2383  1.4259  0.5424
  136MOL0     H17950   6.663   9.996   1.434  0.6673 -1.6774 -0.4047
  136MOL0     H17951   6.286  10.150   2.041 -0.1675  1.1445 -0.0597
  136MOL0     H17952   6.112  10.311   1.978 -3.7309  1.2089 -2.6337
  137MOL0     O17953   1.936   5.415   7.144  0.6676 -0.7000  0.1230
  137MOL0     C17954   1.998   5.512   7.100 -0.3309  0.0550 -0.2836
  137MOL0     O17955   1.963   5.600   6.996 -0.9106 -0.2331  0.1879
  137MOL0     C17956   1.840   5.597   6.932 -0.7642 -0.7672  0.6070
  137MOL0     C17957   1.776   5.720   6.920  0.1285  0.4938  0.2513
  137MOL0     C17958   1.650   5.731   6.865 -0.0923 -0.1629 -0.4959
  137MOL0     C17959   1.580   5.619   6.811  0.0697  0.6501  0.5073
  137MOL0     O17960   1.454   5.607   6.757  0.8398 -0.4643  0.3986
  137MOL0     C17961   1.372   5.711   6.811 -0.7377 -0.0095 -0.2610
  137MOL0     C17962   1.235   5.670   6.782  0.4409 -0.7106  0.7928
  137MOL0     C17963   1.202   5.681   6.632 -0.0561 -0.8464 -0.0457
  137MOL0     C17964   1.057   5.639   6.608  0.7313 -0.1473 -0.4595
  137MOL0     C17965   1.028   5.647   6.451 -0.6162 -0.5190  0.1427
  137MOL0     C17966   1.019   5.791   6.407  0.3717 -0.1304 -0.0230
  137MOL0     C17967   0.964   5.793   6.258 -0.3409 -0.8204 -1.3935
  137MOL0     C17968   0.934   5.936   6.213 -0.0230  1.4938  0.2836
  137MOL0     N17969   0.859   5.924   6.077  0.3439 -0.2501 -0.1774
  137MOL0     C17970   0.919   5.915   5.954  0.5963 -0.1425  0.2752
  137MOL0     C17971   0.825   5.921   5.864 -0.1560  0.1650  0.3847
  137MOL0     C17972   0.855   5.904   5.714  0.1768 -0.5998  0.0200
  137MOL0     C17973   0.717   5.903   5.641  0.3087 -0.0647  0.4659
  137MOL0     C17974   0.726   5.912   5.487 -0.2040 -0.0346  0.0737
  137MOL0     C17975   0.582   5.928   5.431  0.4884  0.1861 -0.9002
  137MOL0     O17976   0.582   5.916   5.288  0.0094  0.1563 -0.6901
  137MOL0     C17977   0.468   5.872   5.218 -0.2637 -0.2588  0.5910
  137MOL0     C17978   0.484   5.801   5.095  0.4932 -0.3394  0.0009
  137MOL0     C17979   0.374   5.749   5.022 -0.1791 -0.5930  0.3360
  137MOL0     C17980   0.241   5.775   5.067 -0.0259  0.0630  0.2075
  137MOL0     C17981   0.123   5.744   4.981  0.0799  0.0061  0.1825
  137MOL0     O17982   0.001   5.754   5.031 -0.1156 -1.3952 -0.3699
  137MOL0     C17983  -0.112   5.763   4.959 -0.2845  0.3382 -0.3951
  137MOL0     C17984  -0.228   5.788   5.032  0.4598 -0.4622 -0.8422
  137MOL0     C17985  -0.355   5.788   4.967  0.4492  0.3017  0.0789
  137MOL0     C17986  -0.369   5.763   4.829 -0.1332 -0.6488 -0.0926
  137MOL0     O17987  -0.482   5.770   4.752 -0.2410  0.0302  0.2578
  137MOL0     C17988  -0.611   5.781   4.820 -1.0084  0.4798 -0.3096
  137MOL0     C17989  -0.648   5.921   4.869 -0.1820  0.0147 -0.2934
  137MOL0     C17990  -0.790   5.934   4.928  0.2871 -0.0711 -1.1925
  137MOL0     C17991  -0.906   5.885   4.845 -0.3321 -0.1012 -0.0300
  137MOL0     C17992  -0.963   6.013   4.772  0.4109  0.6105 -0.0850
  137MOL0     C17993  -1.075   6.000   4.674  0.1244 -1.0373  0.3080
  137MOL0     C17994  -1.202   5.945   4.745 -0.1273 -0.0278  0.1004
  137MOL0     C17995  -1.285   5.860   4.648  0.0143 -0.0172  0.3351
  137MOL0    Cl17996  -1.206   5.718   4.594 -0.1540 -0.1707 -0.0791
  137MOL0     C17997  -0.252   5.755   4.760 -0.7298  0.0332  0.1119
  137MOL0     C17998  -0.126   5.756   4.819 -0.7838 -0.2722 -0.0062
  137MOL0     O17999   0.156   5.704   4.866 -0.0158  0.1714  0.2507
  137MOL0     C18000   0.232   5.847   5.191  0.5333 -0.1204 -0.8162
  137MOL0     C18001   0.342   5.883   5.268  0.0067 -0.8898  0.4298
  137MOL0     N18002   0.709   5.950   5.935 -0.2255  0.0225  1.0248
  137MOL0     N18003   0.728   5.949   6.054  0.1356 -0.1633  0.6215
  137MOL0     C18004   1.650   5.503   6.816  0.0053  1.6250  0.3395
  137MOL0     C18005   1.775   5.488   6.877 -1.2100  0.2327  0.2936
  137MOL0     C18006   2.132   5.539   7.161  0.5032 -0.2374 -0.2246
  137MOL0     C18007   2.169   5.480   7.282 -0.2974 -0.4275  0.0500
  137MOL0     C18008   2.293   5.518   7.340  0.2655  0.4433 -0.6473
  137MOL0     C18009   2.379   5.614   7.276 -0.5953  0.3017  0.5922
  137MOL0     O18010   2.489   5.667   7.337 -0.2240  0.0012  0.6600
  137MOL0     C18011   2.605   5.591   7.317  0.6588 -0.3692 -0.3458
  137MOL0     C18012   2.722   5.646   7.401 -0.1396  0.7494 -0.5968
  137MOL0     C18013   2.746   5.798   7.386 -0.3871 -0.1404 -0.2531
  137MOL0     C18014   2.667   5.871   7.490  1.0130  0.5627 -0.2626
  137MOL0     C18015   2.751   5.930   7.593 -0.3398  0.0848  0.3554
  137MOL0     C18016   2.812   6.014   7.665  0.3559  0.1638 -0.0973
  137MOL0     C18017   2.338   5.675   7.153 -0.8773  0.2701 -0.6699
  137MOL0     C18018   2.211   5.643   7.112 -0.5427  0.0343  0.6954
  137MOL0     H18019   1.824   5.807   6.964 -0.6180  1.2836 -0.4672
  137MOL0     H18020   1.604   5.829   6.870  1.7108  0.7323 -0.8932
  137MOL0     H18021   1.405   5.810   6.781  1.1722  0.0430  1.7942
  137MOL0     H18022   1.390   5.709   6.919  0.5122  0.3005 -0.4574
  137MOL0     H18023   1.169   5.740   6.835 -1.0776 -0.9469 -0.6761
  137MOL0     H18024   1.233   5.568   6.820  3.5181 -1.8469 -1.6667
  137MOL0     H18025   1.269   5.615   6.575  1.7577 -0.0283  1.0341
  137MOL0     H18026   1.218   5.783   6.597 -2.1493 -0.2504  0.5722
  137MOL0     H18027   1.059   5.532   6.633  1.2637 -0.2113 -0.7692
  137MOL0     H18028   0.983   5.697   6.665  1.4222  0.2976  0.0073
  137MOL0     H18029   0.927   5.608   6.439 -0.3373 -2.4982  3.0225
  137MOL0     H18030   1.101   5.578   6.407 -1.6697 -0.1531 -2.2931
  137MOL0     H18031   1.117   5.838   6.403  0.5086 -0.4660 -1.0969
  137MOL0     H18032   0.964   5.864   6.467  1.6992  2.7122 -2.0109
  137MOL0     H18033   1.035   5.741   6.192 -2.0531 -1.5722 -2.7435
  137MOL0     H18034   0.870   5.736   6.261  0.3562 -1.9569  0.3677
  137MOL0     H18035   1.028   5.991   6.207  2.4557 -2.4278 -0.2335
  137MOL0     H18036   0.870   5.981   6.290  0.6046  2.5521  0.1976
  137MOL0     H18037   1.024   5.917   5.928  1.2971 -1.6265  2.6943
  137MOL0     H18038   0.902   5.807   5.701 -0.7583 -1.4997  2.6650
  137MOL0     H18039   0.927   5.979   5.680  0.3386 -0.4467  0.6769
  137MOL0     H18040   0.659   5.985   5.683  1.6004  1.6338 -0.9350
  137MOL0     H18041   0.661   5.817   5.679  0.3480  0.9007  2.8962
  137MOL0     H18042   0.786   5.998   5.457 -2.9785  1.6095 -1.2172
  137MOL0     H18043   0.773   5.820   5.451  0.8364  0.8621 -0.9271
  137MOL0     H18044   0.547   6.028   5.459  2.1108  0.5194  0.0601
  137MOL0     H18045   0.514   5.850   5.466 -0.2272  1.1420 -0.0939
  137MOL0     H18046   0.581   5.775   5.054 -0.9582 -1.9883 -2.6773
  137MOL0     H18047   0.390   5.684   4.936  0.0100  1.2649 -1.1053
  137MOL0     H18048  -0.210   5.803   5.138  3.0359  0.9375 -1.3979
  137MOL0     H18049  -0.437   5.817   5.032 -1.4104  0.1982 -2.1358
  137MOL0     H18050  -0.618   5.708   4.901 -1.2907  1.2623  0.3857
  137MOL0     H18051  -0.674   5.748   4.737 -1.2025  1.6993 -0.6696
  137MOL0     H18052  -0.636   5.996   4.790  2.1500  1.0979  1.0023
  137MOL0     H18053  -0.585   5.948   4.954  0.1325 -0.4500 -0.3731
  137MOL0     H18054  -0.804   6.041   4.943  1.6230 -0.0386 -0.0097
  137MOL0     H18055  -0.799   5.886   5.026  1.0210  2.6231  0.3022
  137MOL0     H18056  -0.887   5.807   4.771 -2.6896 -0.7088 -0.0490
  137MOL0     H18057  -0.981   5.842   4.912  1.1801 -3.2687 -0.1860
  137MOL0     H18058  -0.881   6.060   4.716  0.3640  3.8941  2.3104
  137MOL0     H18059  -1.002   6.082   4.848  1.5459 -0.1821  1.2634
  137MOL0     H18060  -1.036   5.923   4.606  3.3809  0.2570  0.5011
  137MOL0     H18061  -1.086   6.090   4.614  2.1272 -1.6654 -1.1206
  137MOL0     H18062  -1.181   5.889   4.837 -0.9817 -0.2083  0.1939
  137MOL0     H18063  -1.272   6.023   4.774 -1.4311 -1.0161 -0.2519
  137MOL0     H18064  -1.310   5.925   4.563 -2.2007 -0.3590  0.6728
  137MOL0     H18065  -1.381   5.830   4.691 -0.7783 -2.4469 -2.7032
  137MOL0     H18066  -0.256   5.746   4.652  0.8184  1.5420 -0.1147
  137MOL0     H18067  -0.035   5.769   4.761  0.2525  0.9005  1.7765
  137MOL0     H18068   0.129   5.855   5.223  0.5122 -1.5398 -0.4594
  137MOL0     H18069   0.322   5.915   5.370 -2.6709  2.4211 -0.9289
  137MOL0     H18070   1.613   5.411   6.772 -0.1994  2.1121 -0.5355
  137MOL0     H18071   1.817   5.390   6.894  1.0061  0.7740 -1.5642
  137MOL0     H18072   2.109   5.408   7.336  2.3162 -1.6791  1.4699
  137MOL0     H18073   2.325   5.496   7.441 -2.1724 -0.7928 -0.0521
  137MOL0     H18074   2.641   5.593   7.214  5.0933 -0.4836  1.0118
  137MOL0     H18075   2.589   5.489   7.354 -0.6137  0.7272  2.4665
  137MOL0     H18076   2.710   5.616   7.506 -0.6300  4.3638  0.5319
  137MOL0     H18077   2.819   5.600   7.377 -1.6549 -3.1968  0.1377
  137MOL0     H18078   2.719   5.830   7.285  0.9949 -1.6286 -1.1410
  137MOL0     H18079   2.855   5.807   7.400 -0.3227 -0.2929 -0.6391
  137MOL0     H18080   2.617   5.952   7.436 -1.6618  0.0366  1.2704
  137MOL0     H18081   2.592   5.808   7.539  2.4121 -1.3108 -0.4302
  137MOL0     H18082   2.866   6.095   7.709  0.9656 -0.0589 -0.4092
  137MOL0     H18083   2.396   5.752   7.104 -0.1294 -0.2956 -0.6867
  137MOL0     H18084   2.177   5.692   7.021 -0.6209 -0.9919  0.1588
  138MOL0     O18085   8.210   5.142   1.424  0.6353 -0.0301 -1.1029
  138MOL0     C18086   8.249   5.068   1.331 -0.3606 -0.8104 -0.2655
  138MOL0     O18087   8.172   5.015   1.228 -0.2358 -0.2411  0.0175
  138MOL0     C18088   8.043   5.050   1.210 -0.6247 -0.4394  0.1768
  138MOL0     C18089   7.948   4.996   1.292  0.2193  0.2731  0.4618
  138MOL0     C18090   7.818   5.037   1.278  0.5909  0.1144  0.3425
  138MOL0     C18091   7.780   5.133   1.188  0.5366  0.3546  0.3937
  138MOL0     O18092   7.651   5.176   1.193  0.3666 -0.5120 -0.5969
  138MOL0     C18093   7.590   5.233   1.083 -0.3088  0.6074 -0.7583
  138MOL0     C18094   7.436   5.233   1.100 -0.3108  0.3350  0.0233
  138MOL0     C18095   7.385   5.303   0.977 -0.6706 -0.4074  0.2312
  138MOL0     C18096   7.242   5.368   0.986 -0.0347 -0.1478 -0.3986
  138MOL0     C18097   7.202   5.387   0.837  0.2638 -0.3306 -0.0063
  138MOL0     C18098   7.052   5.440   0.828 -0.6351 -0.4619 -0.1479
  138MOL0     C18099   7.057   5.586   0.866 -0.2052 -0.5211  0.1008
  138MOL0     C18100   6.916   5.657   0.854 -0.3679  0.1116  0.0598
  138MOL0     N18101   6.813   5.596   0.929  0.5676  0.2518 -0.3484
  138MOL0     C18102   6.827   5.588   1.068  0.5075  0.1989  0.1365
  138MOL0     C18103   6.705   5.539   1.117 -0.3849  0.1989  1.1536
  138MOL0     C18104   6.677   5.516   1.265  0.0112 -0.7422  0.0762
  138MOL0     C18105   6.570   5.611   1.325  0.5221 -0.1411  0.1436
  138MOL0     C18106   6.428   5.588   1.256 -0.0965 -0.3318 -0.7948
  138MOL0     C18107   6.307   5.637   1.339  0.7147 -0.2292 -0.5387
  138MOL0     O18108   6.284   5.556   1.455  0.2547 -0.0760 -1.1786
  138MOL0     C18109   6.161   5.569   1.524  0.4787 -1.0381 -0.3927
  138MOL0     C18110   6.082   5.683   1.511 -0.8004  0.7030 -0.7462
  138MOL0     C18111   5.960   5.693   1.579  0.1683 -0.3930  0.1265
  138MOL0     C18112   5.904   5.588   1.653  0.4323 -0.1345  0.5112
  138MOL0     C18113   5.787   5.606   1.728  0.4506 -0.1177  0.0974
  138MOL0     O18114   5.697   5.505   1.731  0.0197  0.8639 -0.5959
  138MOL0     C18115   5.576   5.526   1.797  0.2984  0.0985  0.1361
  138MOL0     C18116   5.446   5.507   1.725  0.0459 -0.0686  0.0494
  138MOL0     C18117   5.323   5.523   1.784  0.0293  0.4715 -0.4570
  138MOL0     C18118   5.325   5.551   1.921 -1.0856  0.3391 -0.0384
  138MOL0     O18119   5.207   5.542   1.982  0.1422 -0.4971 -0.4132
  138MOL0     C18120   5.185   5.598   2.109 -0.4977  0.0343 -0.0899
  138MOL0     C18121   5.036   5.636   2.130  0.4526 -0.5352  0.1981
  138MOL0     C18122   4.959   5.504   2.144 -0.5877 -0.3709  0.7487
  138MOL0     C18123   4.807   5.533   2.138 -0.4154 -0.0085  0.0695
  138MOL0     C18124   4.758   5.593   2.267  0.4157 -0.0122 -0.1383
  138MOL0     C18125   4.603   5.628   2.265  0.0949 -0.0152  0.3228
  138MOL0     C18126   4.551   5.690   2.133 -0.2571 -1.4774 -0.2858
  138MOL0     C18127   4.621   5.825   2.095  0.0439 -0.4201 -0.0225
  138MOL0    Cl18128   4.599   5.940   2.227 -0.3762 -0.2988  0.3041
  138MOL0     C18129   5.444   5.577   1.990 -0.5104 -0.8016 -0.1518
  138MOL0     C18130   5.569   5.547   1.931 -0.1165 -1.0638  0.8875
  138MOL0     O18131   5.767   5.718   1.780  0.4246 -0.3284  0.6544
  138MOL0     C18132   5.965   5.460   1.650  0.1322 -0.5986  0.5027
  138MOL0     C18133   6.094   5.458   1.592 -0.0057 -0.0473 -0.2348
  138MOL0     N18134   6.620   5.521   1.006 -0.0008 -0.4650 -0.4775
  138MOL0     N18135   6.693   5.554   0.900 -0.1268 -0.2886  0.1242
  138MOL0     C18136   7.874   5.194   1.104 -0.4307 -0.1538 -0.1566
  138MOL0     C18137   8.007   5.156   1.123  0.1780  0.3193 -0.4245
  138MOL0     C18138   8.393   5.030   1.325  0.1388  0.2882 -0.5781
  138MOL0     C18139   8.445   4.952   1.222 -0.2550  0.5575 -0.2295
  138MOL0     C18140   8.581   4.915   1.219  0.2713  0.1483 -0.5297
  138MOL0     C18141   8.671   4.959   1.315 -0.7010 -0.1954 -0.4942
  138MOL0     O18142   8.804   4.917   1.305  0.4967  0.2385  0.0512
  138MOL0     C18143   8.900   5.017   1.316  0.1598  0.1954  0.5152
  138MOL0     C18144   9.041   4.961   1.331  0.0597  0.2005  0.0114
  138MOL0     C18145   9.070   4.872   1.451  0.6072 -0.2482  0.2884
  138MOL0     C18146   9.189   4.793   1.415  0.1681  0.0364 -0.0281
  138MOL0     C18147   9.297   4.885   1.375  0.2647  0.3413  0.2751
  138MOL0     C18148   9.373   4.974   1.343 -0.6238  0.7920  0.0129
  138MOL0     C18149   8.619   5.032   1.421  0.3635  0.4016  0.5074
  138MOL0     C18150   8.481   5.070   1.428 -0.2801 -0.4366 -0.0051
  138MOL0     H18151   7.969   4.926   1.372 -1.9764 -1.7367 -0.5761
  138MOL0     H18152   7.744   4.983   1.337  0.4483 -0.2047 -0.1201
  138MOL0     H18153   7.621   5.185   0.990  4.3721 -1.0825  1.3474
  138MOL0     H18154   7.621   5.338   1.079  1.4064  0.1590 -0.2908
  138MOL0     H18155   7.415   5.300   1.184 -0.0323  0.6209 -0.1278
  138MOL0     H18156   7.401   5.131   1.116  4.1500 -1.5308 -0.5400
  138MOL0     H18157   7.399   5.241   0.888  2.6291  0.3528  0.0774
  138MOL0     H18158   7.450   5.389   0.957 -1.9895  0.0521 -2.5224
  138MOL0     H18159   7.164   5.303   1.028 -0.8188  1.6906  1.1285
  138MOL0     H18160   7.251   5.462   1.040 -0.0939 -0.7359  0.6713
  138MOL0     H18161   7.203   5.286   0.795  1.8344 -0.1326 -0.5139
  138MOL0     H18162   7.268   5.446   0.773 -0.7337  0.0839 -0.6893
  138MOL0     H18163   6.985   5.385   0.895 -2.9397  0.9441 -1.1729
  138MOL0     H18164   7.022   5.423   0.725  0.7151 -0.1497 -0.6164
  138MOL0     H18165   7.102   5.596   0.965 -2.7285 -0.3392  1.3170
  138MOL0     H18166   7.133   5.635   0.804  0.1624 -0.8305  0.3031
  138MOL0     H18167   6.874   5.645   0.754 -0.0579 -0.6753  0.0185
  138MOL0     H18168   6.921   5.763   0.878  1.1471 -0.4182  2.4439
  138MOL0     H18169   6.912   5.612   1.131  0.9312 -2.2262  0.5945
  138MOL0     H18170   6.766   5.527   1.328  0.6327  0.0408 -0.9203
  138MOL0     H18171   6.636   5.416   1.281 -1.2606 -1.0746 -4.0649
  138MOL0     H18172   6.596   5.712   1.293 -0.4809 -0.8021 -3.0901
  138MOL0     H18173   6.559   5.594   1.432  0.2989 -0.1351  0.1221
  138MOL0     H18174   6.431   5.645   1.162 -1.4676  1.3437  0.1165
  138MOL0     H18175   6.419   5.482   1.228 -1.9839  0.0857 -1.9931
  138MOL0     H18176   6.226   5.640   1.266 -0.7988 -0.4976  1.0756
  138MOL0     H18177   6.323   5.742   1.365 -0.0789  0.5180 -2.8082
  138MOL0     H18178   6.113   5.769   1.453 -0.5490  0.2123 -1.3484
  138MOL0     H18179   5.912   5.790   1.572  0.8485 -0.1215 -1.3076
  138MOL0     H18180   5.453   5.466   1.624  2.4194 -0.4601  0.3115
  138MOL0     H18181   5.234   5.511   1.724 -0.2120  0.2748 -0.0638
  138MOL0     H18182   5.240   5.692   2.124  1.3757 -1.2910  1.9644
  138MOL0     H18183   5.200   5.521   2.185 -5.7686 -0.8319  0.4657
  138MOL0     H18184   4.993   5.691   2.046 -0.2983  0.3738  1.1599
  138MOL0     H18185   5.024   5.704   2.214 -3.5828  0.3044 -0.8411
  138MOL0     H18186   4.974   5.446   2.235 -0.5596 -0.4676  0.6828
  138MOL0     H18187   4.985   5.430   2.068  2.2603  0.5245  0.7420
  138MOL0     H18188   4.784   5.594   2.050  1.6405 -1.3214 -1.4749
  138MOL0     H18189   4.746   5.444   2.119  0.1341 -0.7971  1.7991
  138MOL0     H18190   4.811   5.688   2.281 -1.1814  0.6588  1.8868
  138MOL0     H18191   4.774   5.529   2.354  0.2298 -1.9990 -1.4925
  138MOL0     H18192   4.582   5.690   2.352 -0.1766  1.1246 -0.5409
  138MOL0     H18193   4.533   5.544   2.273 -0.0144 -0.1394 -1.6449
  138MOL0     H18194   4.555   5.617   2.052  0.7108 -1.8930  0.1180
  138MOL0     H18195   4.447   5.722   2.148  0.1076  0.2582 -1.1287
  138MOL0     H18196   4.577   5.864   2.003  0.4381  1.3448  0.5000
  138MOL0     H18197   4.730   5.815   2.083  0.1784 -0.4233  1.1226
  138MOL0     H18198   5.450   5.594   2.097 -1.3517  0.2809 -0.2562
  138MOL0     H18199   5.666   5.552   1.979  1.4090  2.4264 -2.1013
  138MOL0     H18200   5.921   5.367   1.686 -0.6546 -0.4252  0.0246
  138MOL0     H18201   6.152   5.366   1.598 -1.4572 -0.9050  1.1734
  138MOL0     H18202   7.852   5.262   1.023  0.4315 -2.1343 -2.1634
  138MOL0     H18203   8.082   5.217   1.073  0.0109  1.8047  1.0410
  138MOL0     H18204   8.373   4.917   1.148  0.3869 -0.2912 -0.4725
  138MOL0     H18205   8.618   4.859   1.134 -2.1990 -1.6961 -0.4849
  138MOL0     H18206   8.888   5.089   1.398  4.7081  3.8426 -1.5954
  138MOL0     H18207   8.898   5.078   1.226  1.6775  1.1763  1.1171
  138MOL0     H18208   9.066   4.905   1.240 -1.0503 -1.0759  0.4595
  138MOL0     H18209   9.103   5.052   1.337 -1.5056  1.2751  0.6029
  138MOL0     H18210   8.993   4.796   1.462 -1.0287  1.0542 -1.3881
  138MOL0     H18211   9.079   4.919   1.549 -2.0906 -1.5202  1.2148
  138MOL0     H18212   9.227   4.750   1.509 -1.3669  3.1593  2.2154
  138MOL0     H18213   9.166   4.722   1.335 -1.0391 -0.0129  0.3435
  138MOL0     H18214   9.430   5.062   1.319 -1.0298  2.5513  4.4623
  138MOL0     H18215   8.678   5.065   1.506  2.6995 -0.9256 -0.5169
  138MOL0     H18216   8.450   5.124   1.517 -1.3458 -0.7899 -0.1453
  139MOL0     O18217   7.208   9.702   6.755  0.3498  0.5834  0.0090
  139MOL0     C18218   7.221   9.581   6.752 -0.0801  0.4883 -0.1161
  139MOL0     O18219   7.131   9.495   6.701 -1.1174  0.6596 -0.4084
  139MOL0     C18220   7.018   9.553   6.655  0.2153 -0.7213  0.5628
  139MOL0     C18221   6.900   9.551   6.733  0.0406  0.1300  1.0291
  139MOL0     C18222   6.782   9.609   6.671 -0.2834 -0.4046 -0.8338
  139MOL0     C18223   6.780   9.657   6.544 -0.5285 -0.0513  0.1530
  139MOL0     O18224   6.678   9.735   6.501  0.4433 -0.0820  1.0604
  139MOL0     C18225   6.657   9.745   6.362  0.3564 -0.6347 -0.2488
  139MOL0     C18226   6.522   9.807   6.340  0.1848 -0.8922  0.1967
  139MOL0     C18227   6.401   9.725   6.369  0.2566 -0.6550  0.5281
  139MOL0     C18228   6.268   9.805   6.386  0.6220  0.6655  0.2143
  139MOL0     C18229   6.193   9.794   6.254  0.2177 -0.4366  0.4857
  139MOL0     C18230   6.064   9.880   6.229  0.0421  0.8585  0.6158
  139MOL0     C18231   5.950   9.832   6.312 -0.1875  0.3207  0.1572
  139MOL0     C18232   5.815   9.890   6.263 -0.4240  0.6023 -0.9199
  139MOL0     N18233   5.703   9.859   6.360 -1.4424  0.3476  0.0495
  139MOL0     C18234   5.661   9.941   6.459  0.0285 -0.3530  0.2612
  139MOL0     C18235   5.574   9.875   6.531  0.2035  0.2917  0.1593
  139MOL0     C18236   5.504   9.925   6.652 -0.5739 -0.0447  0.0824
  139MOL0     C18237   5.354   9.895   6.638  0.1790  0.4788  0.4433
  139MOL0     C18238   5.269   9.989   6.723  0.7944 -0.2210  0.2166
  139MOL0     C18239   5.127   9.935   6.746  0.4165 -0.1688  0.1499
  139MOL0     O18240   5.070   9.911   6.618  0.0234  0.0946  1.1165
  139MOL0     C18241   4.941   9.878   6.622 -0.0578 -0.4947 -0.1887
  139MOL0     C18242   4.844   9.934   6.549  0.1494 -0.2814 -0.0858
  139MOL0     C18243   4.710   9.903   6.565  0.9085  0.2203  0.0781
  139MOL0     C18244   4.663   9.807   6.655  0.5020  0.0806 -0.6271
  139MOL0     C18245   4.529   9.756   6.650 -0.0420 -0.4411 -1.2777
  139MOL0     O18246   4.477   9.750   6.775  0.5419  0.7703 -0.1463
  139MOL0     C18247   4.349   9.693   6.790 -0.4091 -0.1914  0.0372
  139MOL0     C18248   4.332   9.596   6.889 -0.1533  0.3181 -0.5855
  139MOL0     C18249   4.204   9.530   6.907 -0.0592 -0.0597 -0.4045
  139MOL0     C18250   4.091   9.587   6.842  0.6374 -1.2849 -0.7235
  139MOL0     O18251   3.958   9.563   6.863  0.5214 -0.0217  0.3136
  139MOL0     C18252   3.914   9.453   6.934  0.3059 -0.2570 -0.3870
  139MOL0     C18253   3.759   9.481   6.956 -0.5364  0.3415  0.3695
  139MOL0     C18254   3.676   9.359   6.983 -0.0925  0.1869  0.6131
  139MOL0     C18255   3.728   9.281   7.103  0.7603 -0.1970  0.4358
  139MOL0     C18256   3.609   9.207   7.172  0.4560  0.5207  0.3118
  139MOL0     C18257   3.658   9.085   7.257 -0.1847  0.0657  0.6861
  139MOL0     C18258   3.674   8.967   7.169 -0.5544  0.3374  0.1823
  139MOL0     C18259   3.752   8.858   7.236  1.0171  0.1977  0.7026
  139MOL0    Cl18260   3.751   8.707   7.136 -0.3512  0.2427 -0.0165
  139MOL0     C18261   4.114   9.692   6.755  0.8509 -0.1676 -0.4810
  139MOL0     C18262   4.234   9.744   6.727  0.1158  0.6465 -0.5913
  139MOL0     O18263   4.467   9.749   6.544 -0.1913 -0.0215 -0.7213
  139MOL0     C18264   4.763   9.753   6.736 -0.4661  0.2508 -0.5441
  139MOL0     C18265   4.896   9.780   6.717 -0.7147 -0.0802  0.1562
  139MOL0     N18266   5.571   9.751   6.479  0.2935 -0.2789  0.2866
  139MOL0     N18267   5.644   9.743   6.372 -0.0230 -0.5274 -0.1212
  139MOL0     C18268   6.894   9.650   6.462  0.3131  0.0927  0.5593
  139MOL0     C18269   7.012   9.603   6.520 -0.1744  0.1035 -0.9588
  139MOL0     C18270   7.344   9.523   6.799 -0.5293 -0.1066  0.1446
  139MOL0     C18271   7.364   9.378   6.813 -0.1149  0.4820  0.6391
  139MOL0     C18272   7.484   9.334   6.857 -0.1195  0.7109 -1.0794
  139MOL0     C18273   7.590   9.419   6.877 -0.4583 -0.4592 -0.1382
  139MOL0     O18274   7.714   9.373   6.906 -0.1439 -0.0182 -0.0177
  139MOL0     C18275   7.734   9.227   6.917 -0.1041  0.1437 -0.9402
  139MOL0     C18276   7.879   9.202   6.942  0.2282 -0.6593  0.2751
  139MOL0     C18277   7.939   9.276   7.062  0.6981 -1.6618  0.1067
  139MOL0     C18278   8.090   9.227   7.085  0.1793  0.7021 -0.8033
  139MOL0     C18279   8.156   9.294   7.202  0.4848 -0.1785 -0.2614
  139MOL0     C18280   8.218   9.355   7.286 -0.0359  0.5040 -0.3648
  139MOL0     C18281   7.575   9.552   6.869 -1.1111 -0.1177  0.2263
  139MOL0     C18282   7.453   9.608   6.836  0.1627 -0.3842  0.3031
  139MOL0     H18283   6.893   9.509   6.832  0.6222 -2.0181  0.2022
  139MOL0     H18284   6.698   9.622   6.738 -0.1749  0.9364 -0.9367
  139MOL0     H18285   6.656   9.646   6.315  1.7140 -0.3604 -0.8903
  139MOL0     H18286   6.728   9.815   6.317 -1.0968 -0.2492 -2.0719
  139MOL0     H18287   6.520   9.839   6.235  1.8961  1.1214  0.6975
  139MOL0     H18288   6.510   9.901   6.394  0.3845  0.7288 -2.3861
  139MOL0     H18289   6.420   9.669   6.461 -1.1694 -0.9902  0.6543
  139MOL0     H18290   6.391   9.644   6.297  0.8806  1.0990 -1.6525
  139MOL0     H18291   6.211   9.759   6.468 -1.8117 -0.9019 -2.1859
  139MOL0     H18292   6.290   9.910   6.406  1.3752  1.1148 -2.5739
  139MOL0     H18293   6.170   9.692   6.223  0.2901 -0.0932 -0.7532
  139MOL0     H18294   6.254   9.830   6.170 -5.2157  0.8556 -3.4856
  139MOL0     H18295   6.039   9.881   6.122  1.0426 -2.1989  0.2698
  139MOL0     H18296   6.073   9.983   6.265 -0.4463  1.1048  0.0606
  139MOL0     H18297   5.936   9.724   6.310 -0.4945  0.3618  0.0130
  139MOL0     H18298   5.949   9.868   6.415 -0.2604  0.2452  0.1828
  139MOL0     H18299   5.796   9.834   6.171 -1.3058 -0.0837 -0.3345
  139MOL0     H18300   5.831   9.997   6.245 -0.2242  1.1662  2.0462
  139MOL0     H18301   5.684  10.045   6.482 -1.1758  0.0936 -0.4477
  139MOL0     H18302   5.508  10.034   6.651 -0.1909 -0.0566 -0.6382
  139MOL0     H18303   5.557   9.887   6.740 -0.0396 -4.3451 -1.8051
  139MOL0     H18304   5.324   9.794   6.669 -1.4013  1.0780  0.9529
  139MOL0     H18305   5.319   9.914   6.537 -2.0832 -1.1831  0.8266
  139MOL0     H18306   5.322  10.003   6.818  0.1034 -0.1582  0.5961
  139MOL0     H18307   5.252  10.093   6.696 -0.3827 -1.0710 -2.6025
  139MOL0     H18308   5.067  10.003   6.806 -1.5070 -0.8600 -0.9034
  139MOL0     H18309   5.129   9.838   6.797 -2.0687 -0.9085 -1.0304
  139MOL0     H18310   4.872  10.020   6.489 -1.0569  1.5535  1.8204
  139MOL0     H18311   4.639   9.947   6.497  0.3912 -0.0281  0.4471
  139MOL0     H18312   4.419   9.570   6.949  0.6372 -0.6189 -2.0646
  139MOL0     H18313   4.187   9.442   6.969  0.0222 -0.1747 -0.5438
  139MOL0     H18314   3.962   9.455   7.033 -1.8595  0.8309  0.7078
  139MOL0     H18315   3.941   9.359   6.884 -0.1365 -1.5709  1.7024
  139MOL0     H18316   3.712   9.518   6.865  0.6999  0.3195 -0.2856
  139MOL0     H18317   3.746   9.555   7.035 -3.4092 -1.9595  2.2990
  139MOL0     H18318   3.678   9.286   6.901  2.1994 -1.0495  1.6660
  139MOL0     H18319   3.572   9.390   6.997 -0.1267  0.4284 -0.1336
  139MOL0     H18320   3.803   9.208   7.073  0.2389 -1.2151  1.5558
  139MOL0     H18321   3.782   9.350   7.168  1.5685 -0.8275  0.4403
  139MOL0     H18322   3.543   9.166   7.095 -2.1236  1.8299  1.6931
  139MOL0     H18323   3.561   9.272   7.245  2.7088  2.2611  0.3519
  139MOL0     H18324   3.576   9.067   7.328 -0.2231  2.4693  1.3436
  139MOL0     H18325   3.752   9.108   7.309 -1.2736  1.9609  1.9248
  139MOL0     H18326   3.575   8.930   7.140  0.9118 -1.3510 -3.3691
  139MOL0     H18327   3.720   8.994   7.073 -0.6299 -0.2571 -0.0271
  139MOL0     H18328   3.690   8.840   7.324 -0.7748 -1.0647 -0.7165
  139MOL0     H18329   3.852   8.893   7.265  1.0200 -1.0279  2.3239
  139MOL0     H18330   4.025   9.732   6.708  1.7676  1.4282 -0.9527
  139MOL0     H18331   4.254   9.824   6.656  1.7170 -1.6023 -2.8611
  139MOL0     H18332   4.734   9.680   6.811 -3.0609 -1.2111 -2.7802
  139MOL0     H18333   4.963   9.722   6.780  1.3377  0.5222 -1.3807
  139MOL0     H18334   6.885   9.676   6.357  0.0612 -2.1711 -0.0404
  139MOL0     H18335   7.104   9.586   6.465  0.3525 -2.1764  0.4846
  139MOL0     H18336   7.282   9.312   6.790  0.2344  0.7772 -1.7312
  139MOL0     H18337   7.501   9.227   6.871 -3.2262  0.3920  1.2594
  139MOL0     H18338   7.703   9.183   6.822 -1.9888 -1.0435  0.1500
  139MOL0     H18339   7.689   9.172   7.000 -0.2660  0.3802 -0.8720
  139MOL0     H18340   7.891   9.093   6.949 -2.4300 -1.1630 -1.3933
  139MOL0     H18341   7.929   9.235   6.852  0.1824 -3.0078 -0.6926
  139MOL0     H18342   7.880   9.270   7.154  3.2786 -2.1295  1.8403
  139MOL0     H18343   7.948   9.382   7.039  0.6734 -1.4371  1.0697
  139MOL0     H18344   8.085   9.120   7.107 -1.8940  1.3253  2.4063
  139MOL0     H18345   8.150   9.247   6.996  0.6852  1.9596 -0.2041
  139MOL0     H18346   8.271   9.411   7.360  0.9565  1.6815 -1.8862
  139MOL0     H18347   7.658   9.610   6.908  0.2756  0.5036 -3.2620
  139MOL0     H18348   7.441   9.716   6.840  1.5806 -0.1220 -1.2871
  140MOL0     O18349   1.390   1.426   8.394 -0.3662  0.2057 -0.0089
  140MOL0     C18350   1.422   1.327   8.331 -0.1596  0.0795 -0.3054
  140MOL0     O18351   1.365   1.282   8.211 -0.1777  1.5480  0.4254
  140MOL0     C18352   1.256   1.343   8.162 -0.1868 -0.4396 -0.8238
  140MOL0     C18353   1.132   1.316   8.220  0.3378  1.2591  0.3006
  140MOL0     C18354   1.017   1.358   8.158 -0.1328  0.5693 -0.1075
  140MOL0     C18355   1.018   1.428   8.044 -0.9589 -0.5562  1.0881
  140MOL0     O18356   0.904   1.481   7.989 -0.3675  0.3639  0.6561
  140MOL0     C18357   0.905   1.546   7.859 -0.4270  0.7244  0.6055
  140MOL0     C18358   0.782   1.634   7.851 -0.4883 -0.7530  0.0304
  140MOL0     C18359   0.653   1.546   7.836  0.1934 -0.1567 -0.9992
  140MOL0     C18360   0.540   1.638   7.804  0.2996  0.8765 -0.9594
  140MOL0     C18361   0.406   1.563   7.808  0.0804 -0.4753 -0.8065
  140MOL0     C18362   0.287   1.664   7.785  0.7261 -0.0569  0.0201
  140MOL0     C18363   0.159   1.588   7.784  0.1726  0.0589 -0.3019
  140MOL0     C18364   0.042   1.689   7.773  0.5204 -0.4019  0.3385
  140MOL0     N18365  -0.074   1.629   7.720 -0.0110  0.7147  0.6783
  140MOL0     C18366  -0.093   1.586   7.592  0.3888  0.2871  1.0842
  140MOL0     C18367  -0.226   1.549   7.585  0.2102 -0.1007  0.1555
  140MOL0     C18368  -0.297   1.519   7.453  0.1280  0.4836 -0.7879
  140MOL0     C18369  -0.387   1.646   7.412 -0.1967  0.3114  0.0260
  140MOL0     C18370  -0.448   1.621   7.271 -0.5473  0.0443 -0.3979
  140MOL0     C18371  -0.505   1.749   7.217  0.4681 -0.1165 -0.8597
  140MOL0     O18372  -0.595   1.727   7.105  0.2642 -0.0479  0.4799
  140MOL0     C18373  -0.731   1.706   7.124  0.5281  0.3610 -0.0367
  140MOL0     C18374  -0.821   1.708   7.020 -0.2479  0.6645 -1.1059
  140MOL0     C18375  -0.955   1.719   7.032  0.7498  0.4139 -0.4738
  140MOL0     C18376  -1.004   1.701   7.159 -0.2493  0.3947 -0.1524
  140MOL0     C18377  -1.152   1.694   7.170  0.4183 -0.5915 -0.3242
  140MOL0     O18378  -1.232   1.720   7.061 -0.3236 -0.2582 -0.3380
  140MOL0     C18379  -1.367   1.731   7.082 -0.2597  0.4119  0.8625
  140MOL0     C18380  -1.413   1.837   7.154  0.4213 -0.2847  0.4318
  140MOL0     C18381  -1.549   1.859   7.169  0.2200 -0.4509 -0.1260
  140MOL0     C18382  -1.652   1.776   7.129 -0.8511  0.2744  0.8759
  140MOL0     O18383  -1.779   1.823   7.139 -0.3426  0.5190  0.1410
  140MOL0     C18384  -1.878   1.719   7.149  0.2379  0.0306  0.0062
  140MOL0     C18385  -1.995   1.784   7.231  1.0081  0.0942  0.1664
  140MOL0     C18386  -2.081   1.883   7.139 -0.2620 -0.2507  0.2883
  140MOL0     C18387  -2.112   2.003   7.225  0.6052  0.1841  0.5096
  140MOL0     C18388  -2.230   2.092   7.186 -0.1773  0.0497  0.9350
  140MOL0     C18389  -2.359   2.033   7.237  0.5469  0.2121  0.4201
  140MOL0     C18390  -2.476   2.107   7.168 -0.0907  0.2732 -0.1826
  140MOL0     C18391  -2.611   2.059   7.221  0.0953  0.8676 -0.7827
  140MOL0    Cl18392  -2.665   1.895   7.200  0.3730  0.6790  0.3630
  140MOL0     C18393  -1.603   1.657   7.044  0.6149 -0.0857 -0.1761
  140MOL0     C18394  -1.469   1.640   7.023 -0.4220  0.1286  0.9442
  140MOL0     O18395  -1.193   1.661   7.284 -0.0628  0.1951 -0.4280
  140MOL0     C18396  -0.919   1.677   7.271  0.1553  0.4485  0.6545
  140MOL0     C18397  -0.779   1.690   7.253 -0.1842 -0.7901  0.1271
  140MOL0     N18398  -0.292   1.578   7.704 -0.9565  0.3815 -0.4704
  140MOL0     N18399  -0.196   1.615   7.786 -1.0353 -0.4720  0.3406
  140MOL0     C18400   1.144   1.471   7.997 -0.0266  0.2672 -0.6178
  140MOL0     C18401   1.265   1.430   8.056  0.0774  0.1975  0.4963
  140MOL0     C18402   1.536   1.253   8.397 -0.2116  0.8365  0.4960
  140MOL0     C18403   1.572   1.125   8.350 -0.7239  0.8031 -0.2490
  140MOL0     C18404   1.681   1.046   8.405  0.1527 -0.3761 -0.9799
  140MOL0     C18405   1.748   1.096   8.521 -0.6326  0.4412  0.3098
  140MOL0     O18406   1.839   1.010   8.577 -0.5625  0.6530  0.2846
  140MOL0     C18407   1.938   1.051   8.669  0.4585 -0.2862  0.7060
  140MOL0     C18408   2.053   0.955   8.645  0.5160 -0.6049  0.4376
  140MOL0     C18409   2.031   0.801   8.660 -0.0166 -0.3298 -0.2547
  140MOL0     C18410   2.017   0.774   8.808 -0.8159 -0.3875 -0.2712
  140MOL0     C18411   1.984   0.632   8.834  0.1648  0.1793  0.3472
  140MOL0     C18412   1.936   0.520   8.851  0.1022 -0.3180 -0.7927
  140MOL0     C18413   1.697   1.213   8.577 -0.2758 -0.3622 -0.2424
  140MOL0     C18414   1.601   1.293   8.519  0.0417  0.5730  1.0121
  140MOL0     H18415   1.118   1.253   8.308  0.8084 -1.2274 -1.3123
  140MOL0     H18416   0.921   1.343   8.207  0.5918  2.8311  2.2416
  140MOL0     H18417   0.911   1.470   7.781  3.3815 -0.3946  1.7499
  140MOL0     H18418   0.990   1.611   7.837  1.0519 -1.6421 -1.2125
  140MOL0     H18419   0.793   1.699   7.763 -0.3668 -0.2549  0.4085
  140MOL0     H18420   0.790   1.700   7.938  2.1045 -0.5267 -0.2896
  140MOL0     H18421   0.637   1.501   7.934  1.0711  1.7155  0.0564
  140MOL0     H18422   0.651   1.466   7.761  0.1649 -1.6556  0.5388
  140MOL0     H18423   0.534   1.726   7.868  1.7286 -1.6087  2.9869
  140MOL0     H18424   0.562   1.682   7.707 -2.2257 -0.6002 -2.3182
  140MOL0     H18425   0.388   1.526   7.909  1.2829  2.7665  0.7126
  140MOL0     H18426   0.405   1.474   7.744 -2.2710  0.5390 -2.2976
  140MOL0     H18427   0.300   1.701   7.683 -0.6264 -1.2279 -0.5963
  140MOL0     H18428   0.290   1.749   7.854  2.1339  0.0568 -0.1572
  140MOL0     H18429   0.148   1.520   7.700 -1.1479  1.6053 -1.4586
  140MOL0     H18430   0.152   1.532   7.878  2.2445  1.6148  0.8646
  140MOL0     H18431   0.076   1.775   7.714  1.0394  0.4016  1.7740
  140MOL0     H18432   0.033   1.736   7.871  3.6694  0.6877  0.2431
  140MOL0     H18433  -0.025   1.591   7.508  1.4428  1.1016  1.9642
  140MOL0     H18434  -0.360   1.431   7.470 -0.5691  0.8145 -1.5966
  140MOL0     H18435  -0.226   1.496   7.373  0.3815 -0.3585 -0.3360
  140MOL0     H18436  -0.323   1.735   7.412 -0.6941  0.6700  0.0226
  140MOL0     H18437  -0.462   1.663   7.490 -1.0464  1.6818 -1.0374
  140MOL0     H18438  -0.374   1.582   7.201 -1.6377 -0.0796 -1.5312
  140MOL0     H18439  -0.515   1.536   7.288  0.3237 -0.0326  3.7883
  140MOL0     H18440  -0.420   1.806   7.179  1.0360  1.2462  2.1398
  140MOL0     H18441  -0.550   1.816   7.291  0.8684  2.4733 -2.8122
  140MOL0     H18442  -0.784   1.702   6.918 -0.0230  0.7754 -1.0295
  140MOL0     H18443  -1.024   1.741   6.952  1.9346  0.4715 -1.5088
  140MOL0     H18444  -1.337   1.902   7.195 -0.6623  0.6226  1.0436
  140MOL0     H18445  -1.579   1.949   7.222 -1.1326  1.2136 -3.4100
  140MOL0     H18446  -1.839   1.638   7.211  2.5666  1.3003  0.3034
  140MOL0     H18447  -1.913   1.685   7.051  1.3478 -0.0014 -0.3991
  140MOL0     H18448  -1.939   1.835   7.310 -1.3671 -0.7737  2.5250
  140MOL0     H18449  -2.055   1.717   7.293  1.6367 -0.1217  0.5454
  140MOL0     H18450  -2.170   1.828   7.109  1.2690 -1.4174 -2.4795
  140MOL0     H18451  -2.021   1.909   7.051 -2.0939 -1.5904 -1.4479
  140MOL0     H18452  -2.122   1.981   7.331  1.8466  2.4261  1.1582
  140MOL0     H18453  -2.019   2.061   7.225  1.2488 -0.7982  1.8144
  140MOL0     H18454  -2.237   2.092   7.077  1.1734 -0.9737  0.8287
  140MOL0     H18455  -2.224   2.192   7.230 -2.0289  1.1402 -1.0584
  140MOL0     H18456  -2.353   2.072   7.339 -0.1447 -2.2509  1.4717
  140MOL0     H18457  -2.364   1.924   7.234  4.8256 -0.1279 -1.2951
  140MOL0     H18458  -2.466   2.212   7.195  1.4201 -0.2284  1.3952
  140MOL0     H18459  -2.465   2.089   7.060 -0.2803 -2.8613  0.2126
  140MOL0     H18460  -2.684   2.126   7.174  0.7376  0.3427 -2.6155
  140MOL0     H18461  -2.632   2.078   7.327 -0.4581  0.5776 -0.8387
  140MOL0     H18462  -1.678   1.586   7.011  1.8748 -0.6687 -1.9001
  140MOL0     H18463  -1.434   1.559   6.961 -0.4095 -0.2755  1.4750
  140MOL0     H18464  -0.963   1.648   7.366  0.7606 -0.5269  0.6470
  140MOL0     H18465  -0.712   1.672   7.336  0.5873 -1.9411 -0.6983
  140MOL0     H18466   1.154   1.529   7.906  2.2314  0.8585 -0.0486
  140MOL0     H18467   1.349   1.453   7.993 -1.7961  2.2900 -1.3909
  140MOL0     H18468   1.524   1.088   8.260 -4.0446 -1.0137  2.0349
  140MOL0     H18469   1.712   0.949   8.368  1.4754 -0.4144  0.1744
  140MOL0     H18470   1.899   1.038   8.770 -3.8530 -1.7785 -0.9348
  140MOL0     H18471   1.975   1.154   8.658 -0.6110  0.1939  1.4215
  140MOL0     H18472   2.074   0.964   8.538 -1.8482  1.3236  0.0529
  140MOL0     H18473   2.138   0.991   8.703 -1.1419 -1.3300  3.5370
  140MOL0     H18474   2.119   0.748   8.622 -1.6712 -1.7163 -2.4074
  140MOL0     H18475   1.950   0.759   8.600 -0.5479  0.8875 -0.4075
  140MOL0     H18476   2.109   0.806   8.859 -1.1176  1.2820 -0.7241
  140MOL0     H18477   1.935   0.836   8.845 -0.6966 -0.8896  0.8734
  140MOL0     H18478   1.909   0.417   8.864 -0.4668  0.0446  1.2098
  140MOL0     H18479   1.727   1.230   8.680 -2.9310 -1.4951  0.8030
  140MOL0     H18480   1.548   1.376   8.566 -1.4695  1.5297 -2.1234
  141MOL0     O18481   4.137   5.365   3.355  0.5958  0.1767 -0.5988
  141MOL0     C18482   4.199   5.472   3.318  0.3249  0.0308 -0.0459
  141MOL0     O18483   4.140   5.597   3.299  0.4350  0.3094 -0.4898
  141MOL0     C18484   4.011   5.608   3.325  0.8231 -0.6383  0.0518
  141MOL0     C18485   3.923   5.635   3.215  0.7137  0.3759  1.1441
  141MOL0     C18486   3.785   5.641   3.230  0.3748  0.0648 -1.2248
  141MOL0     C18487   3.722   5.607   3.355 -0.8826 -0.6893  0.2572
  141MOL0     O18488   3.590   5.614   3.350  0.1708  0.1812 -0.8525
  141MOL0     C18489   3.529   5.698   3.450 -0.5378  0.2079  0.3547
  141MOL0     C18490   3.386   5.717   3.401  0.9534  0.8928  0.4563
  141MOL0     C18491   3.312   5.804   3.499 -0.7086 -0.4532 -0.1548
  141MOL0     C18492   3.160   5.816   3.479  1.2869 -0.2956 -0.8826
  141MOL0     C18493   3.106   5.926   3.571 -0.5029 -0.9754 -0.2325
  141MOL0     C18494   2.955   5.943   3.574  0.3963  0.8170 -0.4022
  141MOL0     C18495   2.877   5.817   3.620  0.0534  0.1611  0.2889
  141MOL0     C18496   2.732   5.845   3.666  0.1624 -0.4440 -0.7844
  141MOL0     N18497   2.628   5.826   3.558 -0.0176 -0.4422  0.4343
  141MOL0     C18498   2.611   5.914   3.455  0.1850 -0.2265 -0.9731
  141MOL0     C18499   2.536   5.844   3.369  0.6551  0.6844  0.4997
  141MOL0     C18500   2.512   5.882   3.229 -1.2415  0.2730  0.3823
  141MOL0     C18501   2.471   5.771   3.131 -0.5994  0.2113  0.3631
  141MOL0     C18502   2.329   5.726   3.152  0.1467  0.1103  0.8908
  141MOL0     C18503   2.290   5.621   3.050 -0.4331 -0.0978 -1.2299
  141MOL0     O18504   2.251   5.667   2.923 -0.1443 -0.1352 -0.0305
  141MOL0     C18505   2.159   5.596   2.848  0.3588 -0.5669  0.0036
  141MOL0     C18506   2.061   5.656   2.772  0.3027  0.2103  0.4444
  141MOL0     C18507   1.969   5.583   2.688  0.6786 -0.8912 -0.4309
  141MOL0     C18508   1.967   5.442   2.705  0.0784  0.1442  0.2720
  141MOL0     C18509   1.869   5.366   2.625 -0.3494 -0.3667 -0.6030
  141MOL0     O18510   1.768   5.442   2.566 -0.1525  0.4280 -0.0938
  141MOL0     C18511   1.663   5.379   2.510  0.5541 -0.1943  0.2398
  141MOL0     C18512   1.684   5.314   2.386 -0.4840 -0.1352  0.1343
  141MOL0     C18513   1.573   5.259   2.332 -0.0890 -0.4230  0.5880
  141MOL0     C18514   1.442   5.258   2.390  0.5926  0.1369  0.0316
  141MOL0     O18515   1.331   5.198   2.336  0.8308 -0.1441  0.3826
  141MOL0     C18516   1.352   5.112   2.223 -0.1373  0.7009  0.4629
  141MOL0     C18517   1.223   5.029   2.190 -0.3744 -0.9262 -0.3102
  141MOL0     C18518   1.244   4.948   2.062 -0.6340 -0.0258  0.5550
  141MOL0     C18519   1.132   4.850   2.026  0.5805 -0.5052 -0.1734
  141MOL0     C18520   1.153   4.802   1.883  0.1017 -0.1833 -0.5815
  141MOL0     C18521   1.036   4.713   1.845  0.2878  0.8541 -0.0354
  141MOL0     C18522   1.059   4.656   1.712  0.3048 -0.3197 -0.0773
  141MOL0     C18523   0.953   4.557   1.662  0.7852 -0.2788  0.0321
  141MOL0    Cl18524   0.984   4.506   1.484  0.5188 -0.2050 -0.2278
  141MOL0     C18525   1.434   5.325   2.512  0.4212  0.2745 -0.0507
  141MOL0     C18526   1.536   5.388   2.579 -0.2802 -0.0627 -0.3836
  141MOL0     O18527   1.892   5.250   2.614 -0.0786 -0.3430  0.3197
  141MOL0     C18528   2.065   5.376   2.779  0.2945 -0.0619 -0.6203
  141MOL0     C18529   2.157   5.448   2.848 -0.6288 -1.0647 -0.4062
  141MOL0     N18530   2.522   5.711   3.417 -0.0320 -0.2897  0.1966
  141MOL0     N18531   2.573   5.701   3.530 -0.3116  0.0307  0.3537
  141MOL0     C18532   3.805   5.570   3.465 -0.0742  0.1746  0.0922
  141MOL0     C18533   3.947   5.563   3.449 -0.6370 -0.9069  0.4496
  141MOL0     C18534   4.343   5.461   3.294  1.0850  0.5415  0.4981
  141MOL0     C18535   4.415   5.573   3.251 -0.1876 -0.6087 -0.1061
  141MOL0     C18536   4.551   5.567   3.217 -0.1876  0.7549  0.9573
  141MOL0     C18537   4.623   5.444   3.242 -0.2415 -0.4676 -0.7786
  141MOL0     O18538   4.764   5.442   3.239  0.0259 -0.3903  0.4883
  141MOL0     C18539   4.836   5.535   3.151  0.1899 -0.1491 -0.3543
  141MOL0     C18540   4.987   5.500   3.163  1.0448 -0.8015  1.2364
  141MOL0     C18541   5.082   5.563   3.055  0.2539  0.4684 -0.6500
  141MOL0     C18542   5.200   5.647   3.113  0.3395 -0.4877  0.0131
  141MOL0     C18543   5.300   5.654   3.009 -0.8758  0.8036  1.6488
  141MOL0     C18544   5.385   5.662   2.923  0.8267  0.1831  0.4668
  141MOL0     C18545   4.551   5.338   3.297  0.2139  0.0711 -0.7691
  141MOL0     C18546   4.412   5.344   3.313  0.5302 -0.2268 -0.7486
  141MOL0     H18547   3.963   5.644   3.114  4.2012 -2.3102  2.0977
  141MOL0     H18548   3.726   5.686   3.150  0.6236 -2.3663 -2.8715
  141MOL0     H18549   3.590   5.786   3.471 -2.0990  1.1526  1.0906
  141MOL0     H18550   3.522   5.640   3.543  2.4772  0.6513  0.9562
  141MOL0     H18551   3.326   5.626   3.389 -0.5646  1.9849 -0.7029
  141MOL0     H18552   3.379   5.778   3.310 -2.8703  2.1053  1.3565
  141MOL0     H18553   3.358   5.903   3.493  2.2690 -1.6842  0.8033
  141MOL0     H18554   3.334   5.756   3.595  2.8064 -0.1637 -0.6744
  141MOL0     H18555   3.143   5.845   3.375 -2.2515 -0.2824 -0.4163
  141MOL0     H18556   3.109   5.721   3.491  2.2128 -0.9370 -1.8614
  141MOL0     H18557   3.147   6.019   3.533 -1.8602 -0.3443 -0.2324
  141MOL0     H18558   3.132   5.905   3.676 -0.5258 -1.8421 -0.3885
  141MOL0     H18559   2.927   5.976   3.474  0.5196 -1.3807 -1.2245
  141MOL0     H18560   2.938   6.025   3.645  2.1991 -0.5332  1.7295
  141MOL0     H18561   2.879   5.742   3.541 -0.8151 -0.0933  0.4935
  141MOL0     H18562   2.929   5.778   3.708 -0.3681  3.3641  2.1183
  141MOL0     H18563   2.733   5.945   3.712  0.4348  0.0325 -1.7947
  141MOL0     H18564   2.716   5.770   3.744  0.0242 -2.9694 -3.1288
  141MOL0     H18565   2.646   6.017   3.448 -0.2745 -0.0298 -0.3979
  141MOL0     H18566   2.598   5.940   3.195 -1.1374 -0.1393 -0.0706
  141MOL0     H18567   2.432   5.956   3.217  0.6012  2.2049 -0.6635
  141MOL0     H18568   2.538   5.685   3.139  1.3485  1.1659 -3.3225
  141MOL0     H18569   2.481   5.812   3.030 -1.2152  0.8538  0.5538
  141MOL0     H18570   2.320   5.679   3.250 -1.3068 -1.2828  0.1465
  141MOL0     H18571   2.261   5.812   3.147  1.0723  0.8116 -0.2384
  141MOL0     H18572   2.214   5.561   3.101  0.3523  0.8920  1.2569
  141MOL0     H18573   2.373   5.551   3.040  0.4170  0.8459 -0.9265
  141MOL0     H18574   2.055   5.764   2.763 -0.4599  0.1529  0.2762
  141MOL0     H18575   1.892   5.624   2.624 -0.5334 -0.6050  1.1495
  141MOL0     H18576   1.782   5.310   2.339 -1.4523 -0.7854 -1.9669
  141MOL0     H18577   1.587   5.236   2.227  1.3016  2.0256  0.1613
  141MOL0     H18578   1.433   5.042   2.248  0.1759  1.7862  2.6726
  141MOL0     H18579   1.377   5.177   2.138 -0.3124 -0.1941 -0.2802
  141MOL0     H18580   1.127   5.078   2.170 -2.0589 -2.3438  3.2831
  141MOL0     H18581   1.203   4.964   2.275  0.8177 -0.0366  0.6970
  141MOL0     H18582   1.335   4.888   2.056 -0.9734 -0.5016 -0.0907
  141MOL0     H18583   1.259   5.019   1.980 -0.8681 -0.8926 -0.2663
  141MOL0     H18584   1.131   4.757   2.084 -1.7544  0.6732  1.8695
  141MOL0     H18585   1.038   4.895   2.058  0.7239 -0.9815  0.9884
  141MOL0     H18586   1.240   4.735   1.886 -0.4936 -0.9340  0.6330
  141MOL0     H18587   1.159   4.882   1.809  0.1646  0.0809 -0.2889
  141MOL0     H18588   0.945   4.773   1.847 -0.4400 -0.1726 -1.1021
  141MOL0     H18589   1.024   4.628   1.913 -0.4690  2.2261  1.6033
  141MOL0     H18590   1.061   4.734   1.634 -1.0625  0.8015  0.9572
  141MOL0     H18591   1.160   4.616   1.706  0.6068  0.1228  1.6799
  141MOL0     H18592   0.861   4.615   1.672  1.4869  1.8369 -3.6626
  141MOL0     H18593   0.949   4.467   1.723 -4.2136 -1.1660 -1.2113
  141MOL0     H18594   1.340   5.312   2.566  1.2486 -0.0684  1.3507
  141MOL0     H18595   1.533   5.432   2.678 -2.4195 -1.0909  0.0533
  141MOL0     H18596   2.081   5.269   2.789 -0.2006 -0.1490 -0.7523
  141MOL0     H18597   2.231   5.396   2.908 -0.8885 -1.0460 -0.0636
  141MOL0     H18598   3.752   5.544   3.555 -2.1125 -0.4151 -1.2166
  141MOL0     H18599   4.008   5.532   3.533 -0.2539 -3.0458 -0.5458
  141MOL0     H18600   4.366   5.669   3.235  1.0341 -0.2358 -1.8878
  141MOL0     H18601   4.606   5.659   3.196 -1.5321  1.0491 -1.6896
  141MOL0     H18602   4.819   5.638   3.184  3.9449  0.7158 -0.6751
  141MOL0     H18603   4.809   5.523   3.046  1.9400  0.0646 -0.8511
  141MOL0     H18604   5.017   5.539   3.261 -0.2044  2.6135  0.4046
  141MOL0     H18605   5.002   5.392   3.166  0.3133 -0.9098  1.1714
  141MOL0     H18606   5.017   5.622   2.989  1.0583  0.0831 -1.8206
  141MOL0     H18607   5.133   5.488   2.993  2.3075  3.0411 -2.2755
  141MOL0     H18608   5.173   5.748   3.145  0.0246 -0.9750  1.3616
  141MOL0     H18609   5.248   5.595   3.197  3.7449  3.0883  0.5406
  141MOL0     H18610   5.455   5.670   2.842  0.1611 -0.2702 -0.1794
  141MOL0     H18611   4.613   5.251   3.319 -0.8729 -0.7848 -1.0136
  141MOL0     H18612   4.356   5.256   3.346  0.6450 -0.4588 -1.1669
  142MOL0     O18613   8.877   4.179   4.463 -0.5563 -0.0663 -0.5736
  142MOL0     C18614   8.994   4.139   4.484  0.6216 -0.8140  0.4942
  142MOL0     O18615   9.032   4.009   4.488 -0.0713  0.3033  0.1614
  142MOL0     C18616   8.931   3.916   4.517  0.0760  0.1978 -0.7194
  142MOL0     C18617   8.849   3.928   4.633 -0.8203  0.0364 -0.6472
  142MOL0     C18618   8.759   3.825   4.666  0.1004  0.0782 -0.5105
  142MOL0     C18619   8.750   3.707   4.593  0.5202 -0.4839  0.7710
  142MOL0     O18620   8.667   3.602   4.614 -0.0649 -0.0493  0.1788
  142MOL0     C18621   8.702   3.541   4.739 -0.0515 -0.3113  0.4287
  142MOL0     C18622   8.600   3.558   4.848 -0.2736 -0.8862 -0.2605
  142MOL0     C18623   8.650   3.521   4.986 -0.0797 -0.9160  0.6783
  142MOL0     C18624   8.739   3.635   5.038 -1.0649 -1.0388 -0.1762
  142MOL0     C18625   8.786   3.603   5.180  0.1249  0.5444  0.3236
  142MOL0     C18626   8.726   3.672   5.298 -0.0156 -0.8869  0.2972
  142MOL0     C18627   8.573   3.684   5.303 -0.6945  0.1181 -0.7601
  142MOL0     C18628   8.524   3.760   5.427 -0.5272 -0.2584  0.1663
  142MOL0     N18629   8.381   3.803   5.412 -0.3264  0.1968  0.4047
  142MOL0     C18630   8.283   3.748   5.340 -0.4418  0.3538 -1.0206
  142MOL0     C18631   8.180   3.824   5.358  0.6650 -0.3349 -0.1767
  142MOL0     C18632   8.047   3.819   5.285 -0.2915  0.4800 -0.2328
  142MOL0     C18633   7.964   3.703   5.342  0.2386 -0.0660 -0.1059
  142MOL0     C18634   7.958   3.699   5.500  0.4382  0.7645  0.0102
  142MOL0     C18635   7.895   3.576   5.553  0.4995 -0.1036 -0.6485
  142MOL0     O18636   7.763   3.560   5.507  0.1052 -0.6399  0.3078
  142MOL0     C18637   7.667   3.638   5.569 -0.2606 -0.3704 -0.2885
  142MOL0     C18638   7.541   3.640   5.510 -0.9268 -0.7669 -0.1736
  142MOL0     C18639   7.435   3.710   5.557 -0.3611  0.0201 -0.2422
  142MOL0     C18640   7.436   3.782   5.680  0.5997 -0.2922  0.0928
  142MOL0     C18641   7.317   3.849   5.734 -0.1164  0.2534  0.2293
  142MOL0     O18642   7.204   3.819   5.670 -0.1097 -0.5820 -0.2092
  142MOL0     C18643   7.081   3.879   5.694 -0.7834 -0.2616 -0.6103
  142MOL0     C18644   6.969   3.803   5.646 -0.0609 -0.5332 -0.3347
  142MOL0     C18645   6.841   3.849   5.677  0.2034 -0.4018 -0.8421
  142MOL0     C18646   6.820   3.970   5.740 -0.1715 -0.4843  0.3382
  142MOL0     O18647   6.689   4.004   5.775 -0.7595 -0.6662  0.9453
  142MOL0     C18648   6.642   4.126   5.699 -0.1425 -0.5866  0.5023
  142MOL0     C18649   6.497   4.165   5.742 -0.6316  0.1048 -0.1537
  142MOL0     C18650   6.416   4.031   5.756 -0.2242 -0.4175 -0.0310
  142MOL0     C18651   6.267   4.056   5.777  0.1179 -0.4031  0.1455
  142MOL0     C18652   6.195   3.932   5.820  0.0776  0.0725  0.1844
  142MOL0     C18653   6.051   3.952   5.858 -0.0576  0.3904  0.7162
  142MOL0     C18654   5.953   3.956   5.743 -0.5434  0.2201  0.0670
  142MOL0     C18655   5.812   4.004   5.772  0.2276  0.6182 -0.0141
  142MOL0    Cl18656   5.729   3.881   5.886  0.1333 -0.0688 -0.0485
  142MOL0     C18657   6.938   4.051   5.775 -0.3235 -0.2029  0.4154
  142MOL0     C18658   7.064   4.006   5.754 -0.1632  0.4779  0.0348
  142MOL0     O18659   7.324   3.927   5.831 -0.4901 -0.5692 -0.1824
  142MOL0     C18660   7.564   3.794   5.740  0.5781 -0.0594  1.2352
  142MOL0     C18661   7.678   3.725   5.685  0.2709 -0.6356  0.0271
  142MOL0     N18662   8.214   3.932   5.437  0.1925 -1.0086 -0.6932
  142MOL0     N18663   8.334   3.912   5.474  0.6196  1.0061  0.5435
  142MOL0     C18664   8.827   3.704   4.472 -0.1304 -0.6589 -0.6362
  142MOL0     C18665   8.922   3.805   4.439 -1.5466  0.1385 -0.0799
  142MOL0     C18666   9.094   4.242   4.491 -1.1965  0.1167 -0.1490
  142MOL0     C18667   9.073   4.368   4.542 -0.0693  0.0779  0.6717
  142MOL0     C18668   9.178   4.469   4.526 -0.3390 -0.1883 -0.7731
  142MOL0     C18669   9.303   4.438   4.480  0.5063  0.1391  0.2914
  142MOL0     O18670   9.422   4.514   4.473  0.7324  0.5601 -0.6214
  142MOL0     C18671   9.419   4.607   4.364  0.0045 -0.4913 -0.6132
  142MOL0     C18672   9.552   4.671   4.339  0.0961  0.7199 -1.0014
  142MOL0     C18673   9.658   4.586   4.300 -0.1779  0.3502  0.4603
  142MOL0     C18674   9.785   4.663   4.265 -0.6123  0.2788  1.2341
  142MOL0     C18675   9.779   4.750   4.149 -0.0556 -0.5575 -0.3098
  142MOL0     C18676   9.780   4.834   4.065  0.0691 -0.2401  0.2391
  142MOL0     C18677   9.319   4.312   4.420  0.0633 -0.1541 -0.3797
  142MOL0     C18678   9.220   4.222   4.430  0.6726 -0.8817  1.0230
  142MOL0     H18679   8.858   4.020   4.689  2.1652 -0.6507  0.1940
  142MOL0     H18680   8.717   3.853   4.762 -2.2497  3.2272 -2.2601
  142MOL0     H18681   8.792   3.590   4.777 -1.4775  2.3849  0.5958
  142MOL0     H18682   8.718   3.433   4.728 -1.2501 -0.4323 -0.2863
  142MOL0     H18683   8.510   3.498   4.827  1.5328 -2.5474 -4.3483
  142MOL0     H18684   8.571   3.663   4.855  0.5645 -0.6827  0.3364
  142MOL0     H18685   8.701   3.425   4.977  0.2986 -0.5471 -3.0764
  142MOL0     H18686   8.565   3.498   5.051  0.8631 -1.4544  1.7421
  142MOL0     H18687   8.827   3.658   4.977 -1.6713  1.2588 -0.2720
  142MOL0     H18688   8.677   3.725   5.042  2.0556  1.3576 -1.0293
  142MOL0     H18689   8.895   3.610   5.185  0.1153  1.0771 -0.1252
  142MOL0     H18690   8.765   3.497   5.195 -0.8218  0.2351 -2.6205
  142MOL0     H18691   8.764   3.774   5.310 -0.3933 -0.8713  1.5958
  142MOL0     H18692   8.750   3.617   5.390 -0.7725 -1.7392 -0.0003
  142MOL0     H18693   8.543   3.732   5.209  2.3943  0.5932 -1.6018
  142MOL0     H18694   8.527   3.585   5.302  1.3942 -0.9928  1.7717
  142MOL0     H18695   8.569   3.859   5.431 -2.4716  0.7185 -0.7163
  142MOL0     H18696   8.526   3.695   5.516  1.5814  1.7911  1.7289
  142MOL0     H18697   8.293   3.659   5.279 -1.7416  0.2875 -1.1732
  142MOL0     H18698   8.062   3.822   5.177 -1.6196 -0.5747 -0.4690
  142MOL0     H18699   7.987   3.908   5.302 -1.4866 -0.2973 -0.2947
  142MOL0     H18700   8.003   3.603   5.321  1.1835  0.0829  0.8902
  142MOL0     H18701   7.870   3.697   5.286 -0.4957 -1.2302  1.1943
  142MOL0     H18702   8.061   3.691   5.535  0.6609 -1.1529 -0.9327
  142MOL0     H18703   7.928   3.794   5.546 -1.8723  0.0094  0.2004
  142MOL0     H18704   7.894   3.571   5.662 -1.5140  3.0955 -0.4083
  142MOL0     H18705   7.955   3.492   5.515  3.0260  1.7848 -1.0442
  142MOL0     H18706   7.524   3.587   5.417 -1.4212  0.6706 -0.9413
  142MOL0     H18707   7.342   3.711   5.501  0.3684  2.2396 -1.5481
  142MOL0     H18708   6.978   3.712   5.588  0.2574  0.8579 -2.5942
  142MOL0     H18709   6.761   3.783   5.644 -0.2095 -0.8547  0.9551
  142MOL0     H18710   6.646   4.120   5.590  2.5873  4.3098  0.0407
  142MOL0     H18711   6.700   4.217   5.719 -1.4601 -0.1204  2.5601
  142MOL0     H18712   6.442   4.226   5.669  1.9000 -1.2503 -3.4502
  142MOL0     H18713   6.506   4.217   5.838  0.6602  3.2721 -1.8487
  142MOL0     H18714   6.458   3.957   5.825  0.9329  0.6526  0.4569
  142MOL0     H18715   6.420   3.972   5.664  1.5592 -1.9309  0.9445
  142MOL0     H18716   6.255   4.134   5.853  0.8055 -0.3705  0.2228
  142MOL0     H18717   6.233   4.095   5.681  1.7282  3.0094  0.8282
  142MOL0     H18718   6.242   3.895   5.911 -0.2135  1.7532  1.0683
  142MOL0     H18719   6.214   3.863   5.737 -0.5473 -1.4947  1.2941
  142MOL0     H18720   6.037   4.045   5.913 -0.5189  1.1457 -0.6336
  142MOL0     H18721   6.033   3.874   5.933  2.3200  0.5671  1.5635
  142MOL0     H18722   5.996   4.030   5.675  2.1629 -1.6652 -0.4562
  142MOL0     H18723   5.940   3.859   5.693  2.8950  0.4401 -1.5858
  142MOL0     H18724   5.773   4.024   5.672  1.4689 -1.4741 -0.9771
  142MOL0     H18725   5.814   4.106   5.812 -1.1714  2.5930 -4.3793
  142MOL0     H18726   6.922   4.148   5.821 -1.1217 -1.0267  1.9557
  142MOL0     H18727   7.155   4.054   5.790  0.5793 -1.7472  1.2800
  142MOL0     H18728   7.587   3.847   5.831  1.0318  2.0923 -0.0725
  142MOL0     H18729   7.767   3.733   5.746  0.4512 -0.1816 -0.2852
  142MOL0     H18730   8.798   3.619   4.411 -3.1639 -1.9940  2.3799
  142MOL0     H18731   8.981   3.802   4.348 -2.0770  2.8876 -0.5930
  142MOL0     H18732   8.980   4.401   4.588 -0.8012  0.7503 -1.2207
  142MOL0     H18733   9.167   4.572   4.560 -2.5104  0.0784 -2.0758
  142MOL0     H18734   9.348   4.683   4.399 -1.3179 -2.6504  1.7301
  142MOL0     H18735   9.380   4.554   4.276 -0.3418 -0.8875 -0.2236
  142MOL0     H18736   9.538   4.754   4.270  0.2723  2.6719  1.2034
  142MOL0     H18737   9.572   4.722   4.433 -1.4257  3.8095 -2.2253
  142MOL0     H18738   9.621   4.525   4.216  1.6192 -1.1353  0.6964
  142MOL0     H18739   9.675   4.528   4.391  0.5962 -0.2539 -0.0598
  142MOL0     H18740   9.813   4.716   4.357 -2.4148  1.0668  1.3665
  142MOL0     H18741   9.863   4.587   4.254  0.2812  1.2029  1.0095
  142MOL0     H18742   9.786   4.900   3.981  0.0756 -1.1619 -0.4922
  142MOL0     H18743   9.413   4.291   4.370  0.2600  2.2551 -1.1218
  142MOL0     H18744   9.228   4.129   4.374  0.4276 -0.7862  0.8252
  143MOL0     O18745   4.922   4.362   8.343  0.0636  0.8346  0.1785
  143MOL0     C18746   5.002   4.360   8.439 -1.0503 -0.2469  0.8865
  143MOL0     O18747   4.977   4.403   8.565  0.0716 -0.0436  0.1292
  143MOL0     C18748   4.855   4.413   8.607  0.0057  0.3905 -0.0958
  143MOL0     C18749   4.807   4.311   8.688 -0.4881  0.5391 -0.2045
  143MOL0     C18750   4.671   4.312   8.723 -0.7056  0.1167 -0.7292
  143MOL0     C18751   4.588   4.417   8.695  0.2111 -0.0221  0.7840
  143MOL0     O18752   4.462   4.439   8.749  0.4858  0.2179  0.2378
  143MOL0     C18753   4.430   4.378   8.874  0.1719 -0.4017 -0.4435
  143MOL0     C18754   4.275   4.388   8.897 -0.0586 -0.2006 -0.2869
  143MOL0     C18755   4.217   4.525   8.919  0.0861 -0.8489 -0.8127
  143MOL0     C18756   4.281   4.601   9.047 -1.2491  0.2421  0.2137
  143MOL0     C18757   4.267   4.537   9.184  0.2517  0.4946  0.0545
  143MOL0     C18758   4.328   4.627   9.301  0.1451 -0.1049  0.5360
  143MOL0     C18759   4.279   4.772   9.292  0.8652  0.3998 -0.5540
  143MOL0     C18760   4.128   4.774   9.286  0.0365 -0.1157 -0.7524
  143MOL0     N18761   4.058   4.711   9.407  0.2198 -0.6372  0.2044
  143MOL0     C18762   4.073   4.748   9.542 -0.1386  0.3651 -0.0663
  143MOL0     C18763   3.977   4.676   9.612 -1.0732 -0.3224 -0.0286
  143MOL0     C18764   3.927   4.705   9.751  0.0113 -0.5342 -0.4972
  143MOL0     C18765   3.777   4.709   9.758  0.6855 -0.0301  0.1177
  143MOL0     C18766   3.730   4.742   9.901  0.3001  0.3900  0.2876
  143MOL0     C18767   3.575   4.742   9.913  0.3080  0.0927 -0.3353
  143MOL0     O18768   3.516   4.628   9.843 -0.0352  0.1010 -0.1708
  143MOL0     C18769   3.388   4.585   9.875  0.1383 -0.4462 -0.4826
  143MOL0     C18770   3.352   4.453   9.846  0.9662  0.2879 -0.0439
  143MOL0     C18771   3.227   4.392   9.876  0.7537  0.7935 -0.3313
  143MOL0     C18772   3.120   4.483   9.901  0.8356 -0.8686 -0.2476
  143MOL0     C18773   2.984   4.443   9.922 -0.7578 -0.1234  1.4091
  143MOL0     O18774   2.952   4.328   9.856  0.2511 -0.0976  0.2338
  143MOL0     C18775   2.818   4.293   9.836  0.5914 -0.2511  0.4183
  143MOL0     C18776   2.777   4.241   9.717 -0.0575  0.0363 -0.1799
  143MOL0     C18777   2.647   4.216   9.689 -1.1340  0.2900  0.2886
  143MOL0     C18778   2.552   4.213   9.793 -0.6972  0.1329  0.2093
  143MOL0     O18779   2.419   4.162   9.780 -0.5115  0.0206  0.2068
  143MOL0     C18780   2.369   4.128   9.652  0.0715  0.1420 -0.1356
  143MOL0     C18781   2.229   4.069   9.671  0.2026 -0.1109  0.1524
  143MOL0     C18782   2.148   4.166   9.755  0.1978 -0.4084 -0.1207
  143MOL0     C18783   1.995   4.120   9.749  0.2848 -0.3231  0.5387
  143MOL0     C18784   1.893   4.208   9.817  0.2976 -0.5477 -0.2496
  143MOL0     C18785   1.951   4.253   9.951 -0.7564  0.3658 -0.3588
  143MOL0     C18786   1.839   4.286  10.046 -0.0812  0.1620  0.2434
  143MOL0     C18787   1.737   4.401  10.001 -0.3368  0.4365  0.2313
  143MOL0    Cl18788   1.639   4.453  10.146 -0.5023 -0.0728  0.3813
  143MOL0     C18789   2.595   4.250   9.926 -0.1662 -0.7145  0.4832
  143MOL0     C18790   2.728   4.293   9.945 -0.3606 -0.4064  0.2665
  143MOL0     O18791   2.919   4.503   9.998  0.6681  0.2047  0.3743
  143MOL0     C18792   3.146   4.612   9.928 -0.7023 -0.4463  0.2268
  143MOL0     C18793   3.280   4.663   9.919 -0.4208  0.5088 -0.7052
  143MOL0     N18794   3.922   4.587   9.518  1.3633  0.0092 -0.0810
  143MOL0     N18795   3.969   4.614   9.399 -0.5537 -0.3059  0.0641
  143MOL0     C18796   4.628   4.504   8.595 -0.6567 -0.5571  0.7215
  143MOL0     C18797   4.764   4.507   8.557 -0.1829  1.2469 -0.1960
  143MOL0     C18798   5.144   4.354   8.406  0.2050  1.0888 -0.3149
  143MOL0     C18799   5.240   4.349   8.512  0.5514 -0.4205  1.0141
  143MOL0     C18800   5.381   4.345   8.481 -0.0035  0.0222 -0.4699
  143MOL0     C18801   5.420   4.333   8.350  0.5256 -0.3294 -0.0769
  143MOL0     O18802   5.562   4.323   8.329  0.2430  0.1486 -0.6913
  143MOL0     C18803   5.607   4.330   8.195  0.1363  0.5889 -0.4079
  143MOL0     C18804   5.760   4.338   8.183  0.4230 -0.0665 -0.4401
  143MOL0     C18805   5.806   4.467   8.248 -0.4479 -0.9679  0.6694
  143MOL0     C18806   5.921   4.530   8.170 -0.2752 -0.3860 -0.4571
  143MOL0     C18807   5.950   4.672   8.225 -0.6565 -0.3580 -0.1280
  143MOL0     C18808   5.980   4.783   8.274 -0.2631 -0.1880 -0.1107
  143MOL0     C18809   5.328   4.342   8.247  0.2092  0.3842 -0.1228
  143MOL0     C18810   5.192   4.345   8.275  0.3650 -0.7099 -0.5624
  143MOL0     H18811   4.873   4.230   8.717  0.3225  0.6150 -1.7532
  143MOL0     H18812   4.635   4.231   8.785 -1.7391  0.8390 -0.3571
  143MOL0     H18813   4.478   4.431   8.957 -1.2753  0.0622  0.1283
  143MOL0     H18814   4.446   4.270   8.875 -1.0353 -0.5946 -0.4012
  143MOL0     H18815   4.249   4.325   8.983 -1.6811  1.5698  0.6072
  143MOL0     H18816   4.224   4.343   8.811  0.0229  0.7536 -0.8454
  143MOL0     H18817   4.110   4.514   8.941  0.6311 -1.1355  2.0539
  143MOL0     H18818   4.228   4.581   8.825 -0.7176 -0.2252 -0.5512
  143MOL0     H18819   4.387   4.612   9.024 -0.8281  2.8078  2.8793
  143MOL0     H18820   4.232   4.699   9.046 -1.4118  0.1904 -2.0603
  143MOL0     H18821   4.314   4.439   9.174  0.4318  0.5169  0.6542
  143MOL0     H18822   4.158   4.529   9.197  0.1297  0.5581 -0.9142
  143MOL0     H18823   4.435   4.616   9.282  0.8298  3.2048  1.7886
  143MOL0     H18824   4.294   4.579   9.393 -1.9380 -0.7832 -0.5246
  143MOL0     H18825   4.307   4.815   9.388  0.0269 -0.1346 -0.0610
  143MOL0     H18826   4.321   4.822   9.204 -1.9412 -0.2154 -2.3631
  143MOL0     H18827   4.088   4.741   9.189 -1.1871 -0.1762 -0.2408
  143MOL0     H18828   4.102   4.880   9.297 -2.3950 -0.2459 -3.8682
  143MOL0     H18829   4.137   4.823   9.586 -0.0859 -1.0605  2.5120
  143MOL0     H18830   3.963   4.804   9.782 -1.1143 -0.7816  1.7993
  143MOL0     H18831   3.970   4.648   9.834 -0.7946  2.2125  1.9714
  143MOL0     H18832   3.717   4.626   9.718 -3.0483  0.9142  3.1833
  143MOL0     H18833   3.749   4.797   9.700 -1.9448  1.5179  3.4532
  143MOL0     H18834   3.773   4.668   9.969  0.6781  0.5069  0.1767
  143MOL0     H18835   3.786   4.829   9.935  1.0272 -0.0484  0.2367
  143MOL0     H18836   3.527   4.835   9.880 -1.4459 -0.2502  1.1069
  143MOL0     H18837   3.567   4.743  10.022  1.2292  4.3741 -0.1313
  143MOL0     H18838   3.439   4.402   9.806 -0.7005 -2.4486 -0.3771
  143MOL0     H18839   3.203   4.287   9.866 -0.8075  1.0826  0.0919
  143MOL0     H18840   2.850   4.229   9.638  2.2199  0.5134  1.7400
  143MOL0     H18841   2.621   4.189   9.587  1.0857 -1.2321  0.0635
  143MOL0     H18842   2.429   4.045   9.614 -1.7129 -0.1236 -2.6544
  143MOL0     H18843   2.368   4.215   9.586 -0.0040  1.8659  2.0371
  143MOL0     H18844   2.237   3.975   9.727 -0.6177  0.6770  1.6536
  143MOL0     H18845   2.190   4.056   9.569 -2.1770 -1.6337  1.1763
  143MOL0     H18846   2.153   4.271   9.725 -2.4759  0.3896  1.8399
  143MOL0     H18847   2.179   4.156   9.860  0.8655  2.3309  0.0028
  143MOL0     H18848   1.958   4.083   9.654 -0.9658 -3.7762  2.2227
  143MOL0     H18849   2.005   4.027   9.805  1.7512 -0.3719  0.2426
  143MOL0     H18850   1.805   4.146   9.832  0.6212 -0.6840  1.2447
  143MOL0     H18851   1.876   4.296   9.755 -0.5907 -1.1510 -0.8794
  143MOL0     H18852   2.027   4.331   9.942  0.5802 -0.6879  1.1297
  143MOL0     H18853   2.000   4.161   9.987 -0.7680 -0.2755 -1.9123
  143MOL0     H18854   1.789   4.191  10.070  2.5451 -1.0208  1.4755
  143MOL0     H18855   1.893   4.304  10.139 -0.0529 -1.0280  0.4747
  143MOL0     H18856   1.676   4.360   9.921  1.6272 -1.2461 -0.4913
  143MOL0     H18857   1.796   4.487   9.967 -1.5552  1.2554  0.1259
  143MOL0     H18858   2.523   4.248  10.007 -0.8296 -0.7230 -0.0927
  143MOL0     H18859   2.768   4.326  10.041 -1.0425 -1.1591  0.8278
  143MOL0     H18860   3.073   4.681   9.967  3.0383  3.0065  1.8768
  143MOL0     H18861   3.306   4.766   9.944  0.3070 -0.3990  2.8151
  143MOL0     H18862   4.559   4.563   8.535  3.2357  1.9829 -1.7131
  143MOL0     H18863   4.806   4.579   8.487  0.9126  0.3636 -0.4874
  143MOL0     H18864   5.222   4.324   8.617  1.9711 -1.2990  1.0720
  143MOL0     H18865   5.453   4.341   8.562 -1.9639 -0.3539  1.3290
  143MOL0     H18866   5.554   4.405   8.136  1.8554  0.3836 -2.3158
  143MOL0     H18867   5.578   4.242   8.135 -0.8207  0.4948  0.1708
  143MOL0     H18868   5.791   4.254   8.245 -0.4522  1.2936  1.9927
  143MOL0     H18869   5.793   4.318   8.081 -0.3193 -2.4126 -0.2652
  143MOL0     H18870   5.851   4.440   8.344 -0.3189 -2.9247  0.1090
  143MOL0     H18871   5.723   4.537   8.257  2.2399  2.2861  2.0312
  143MOL0     H18872   6.009   4.467   8.184  0.1401  0.0967 -0.8281
  143MOL0     H18873   5.893   4.536   8.064 -1.7857 -1.3186 -0.1437
  143MOL0     H18874   5.998   4.882   8.312  0.8472 -0.6059  0.5289
  143MOL0     H18875   5.345   4.329   8.141  1.4021 -2.7702  0.3563
  143MOL0     H18876   5.121   4.334   8.194  0.4179 -0.1927 -0.6749
  144MOL0     O18877   8.317   9.226   9.979  0.7799  0.3562  0.2159
  144MOL0     C18878   8.387   9.130   9.968 -0.4407  0.6896  0.2122
  144MOL0     O18879   8.364   9.022   9.879  0.4431 -0.4728 -0.3092
  144MOL0     C18880   8.263   9.027   9.792  0.3087  0.2758 -0.4186
  144MOL0     C18881   8.122   9.025   9.819 -0.6484 -0.9744 -0.0815
  144MOL0     C18882   8.028   9.035   9.714 -0.1202 -0.0782  0.4699
  144MOL0     C18883   8.061   9.062   9.583 -0.4091  0.0507  0.6384
  144MOL0     O18884   7.975   9.089   9.486  0.4513  0.5972 -0.8130
  144MOL0     C18885   7.875   8.989   9.463 -0.5389  0.1960  0.3260
  144MOL0     C18886   7.803   9.026   9.326  0.1917 -0.4081  0.1222
  144MOL0     C18887   7.760   9.181   9.320  0.7848  0.2325  0.4647
  144MOL0     C18888   7.668   9.213   9.196 -0.1654 -0.4271  0.3096
  144MOL0     C18889   7.535   9.157   9.203  0.0150  0.2126  0.0839
  144MOL0     C18890   7.452   9.211   9.088 -0.4486 -0.3935 -0.5401
  144MOL0     C18891   7.309   9.194   9.136 -0.2885 -0.3009  0.2363
  144MOL0     C18892   7.194   9.225   9.037  0.2176  0.4607 -0.3960
  144MOL0     N18893   7.077   9.237   9.122 -0.1557  0.5652  0.5303
  144MOL0     C18894   7.002   9.350   9.136 -0.1017  0.2315  0.1930
  144MOL0     C18895   6.912   9.317   9.230 -0.0517 -0.6468 -0.1034
  144MOL0     C18896   6.825   9.405   9.304 -0.9336 -0.3550  0.4923
  144MOL0     C18897   6.689   9.398   9.239 -0.6230 -0.3618  0.2024
  144MOL0     C18898   6.576   9.495   9.291 -0.2834 -0.0352 -0.2407
  144MOL0     C18899   6.454   9.499   9.209  0.2598 -0.2992  0.6065
  144MOL0     O18900   6.393   9.368   9.197  0.0983 -0.3628  0.2156
  144MOL0     C18901   6.276   9.346   9.130  0.2242 -0.1083  0.1671
  144MOL0     C18902   6.223   9.219   9.135  0.7158  1.0905 -0.6109
  144MOL0     C18903   6.092   9.194   9.092 -0.3691  0.1480  0.2365
  144MOL0     C18904   6.025   9.296   9.022  0.6312  0.3091  0.8545
  144MOL0     C18905   5.879   9.271   8.984  0.1945 -0.0840 -0.5882
  144MOL0     O18906   5.827   9.162   9.045  0.4080  0.1871 -0.1364
  144MOL0     C18907   5.696   9.142   9.067  0.0729 -0.0003  0.8182
  144MOL0     C18908   5.668   9.016   9.106  0.7569  0.3123 -0.1147
  144MOL0     C18909   5.534   8.971   9.129  0.1575 -0.0311 -0.5978
  144MOL0     C18910   5.423   9.067   9.127 -0.5836  0.1712  0.0048
  144MOL0     O18911   5.296   9.032   9.155  0.6416 -0.3195  0.3819
  144MOL0     C18912   5.266   8.900   9.213  0.2210 -0.4372 -0.4221
  144MOL0     C18913   5.119   8.888   9.234 -0.6405  0.1504  0.1635
  144MOL0     C18914   5.089   8.756   9.302 -0.0260  1.0686 -0.5056
  144MOL0     C18915   5.146   8.755   9.449  0.1287 -0.5777  0.6381
  144MOL0     C18916   5.100   8.627   9.525  0.3723 -0.8762 -0.3309
  144MOL0     C18917   4.954   8.576   9.513 -0.0792  0.8310  0.0093
  144MOL0     C18918   4.837   8.667   9.552  0.2406 -0.1003 -0.6351
  144MOL0     C18919   4.706   8.592   9.556 -0.1627 -0.4261  0.4015
  144MOL0    Cl18920   4.568   8.709   9.598 -0.6969  0.0272 -0.6486
  144MOL0     C18921   5.452   9.194   9.089 -0.3720  0.1959 -0.3345
  144MOL0     C18922   5.588   9.237   9.056  0.1228 -0.8500 -0.4658
  144MOL0     O18923   5.821   9.351   8.905 -0.2610  0.0474  0.1083
  144MOL0     C18924   6.077   9.420   8.996 -0.0425  0.2560 -0.3672
  144MOL0     C18925   6.206   9.443   9.055  0.6613  0.5138 -0.3518
  144MOL0     N18926   6.906   9.182   9.240 -0.2802  0.1400 -0.8368
  144MOL0     N18927   7.007   9.141   9.180 -0.5096 -0.0408  0.2671
  144MOL0     C18928   8.204   9.054   9.552  0.7361  0.2809 -0.6903
  144MOL0     C18929   8.293   9.025   9.658 -0.1066  0.6493 -0.1887
  144MOL0     C18930   8.526   9.145  10.022 -0.1294  0.7372  0.0845
  144MOL0     C18931   8.641   9.096   9.960 -0.0611 -0.2631 -0.6289
  144MOL0     C18932   8.771   9.098  10.018 -0.5939  0.7607 -0.0811
  144MOL0     C18933   8.787   9.150  10.147  0.4417  0.4365 -0.0520
  144MOL0     O18934   8.907   9.136  10.209 -0.4134  0.8003 -0.2591
  144MOL0     C18935   8.931   9.239  10.314 -0.1484  0.5793 -0.5922
  144MOL0     C18936   9.076   9.220  10.359  0.0616  0.4875 -0.2412
  144MOL0     C18937   9.112   9.330  10.465 -0.7997  0.5359 -0.5888
  144MOL0     C18938   9.255   9.386  10.446 -0.2632 -0.3222  0.7761
  144MOL0     C18939   9.280   9.465  10.563  0.0242 -0.4395  0.2500
  144MOL0     C18940   9.296   9.560  10.632  0.2665  0.2577  0.0807
  144MOL0     C18941   8.672   9.200  10.211  0.3580 -0.3509  0.3756
  144MOL0     C18942   8.542   9.194  10.152 -1.5853 -0.5688  0.0394
  144MOL0     H18943   8.092   9.009   9.922 -0.9990  0.8542  0.1235
  144MOL0     H18944   7.921   9.020   9.727 -0.3093 -0.6547 -1.5145
  144MOL0     H18945   7.800   8.983   9.542 -0.3424  1.9218  0.6814
  144MOL0     H18946   7.912   8.886   9.452 -0.6260  0.0877  1.0235
  144MOL0     H18947   7.710   8.970   9.315  0.2854 -0.6921  0.7113
  144MOL0     H18948   7.864   9.008   9.237  0.6643  1.6679 -0.0132
  144MOL0     H18949   7.847   9.246   9.314  0.1730  0.9908 -0.5134
  144MOL0     H18950   7.696   9.195   9.407 -2.9785 -3.0553 -1.4475
  144MOL0     H18951   7.652   9.321   9.189 -0.6591 -0.4308  1.1662
  144MOL0     H18952   7.718   9.182   9.104 -1.4555 -3.4642  0.5223
  144MOL0     H18953   7.492   9.204   9.292 -3.0539 -0.6052 -0.8524
  144MOL0     H18954   7.528   9.048   9.198 -1.6424  0.2755  0.6693
  144MOL0     H18955   7.464   9.153   8.996  0.2876 -2.6132  0.8671
  144MOL0     H18956   7.466   9.318   9.069 -1.9501 -0.3854 -1.7876
  144MOL0     H18957   7.300   9.091   9.170  0.3427 -0.4866 -0.1389
  144MOL0     H18958   7.298   9.257   9.225 -2.3034  0.2452 -0.3421
  144MOL0     H18959   7.189   9.136   8.973 -2.0724 -1.8610  2.6922
  144MOL0     H18960   7.215   9.324   8.996  1.3977  2.1033  3.7294
  144MOL0     H18961   7.018   9.448   9.093 -0.6431  0.1411 -0.2233
  144MOL0     H18962   6.861   9.508   9.292 -1.8426 -0.0655  0.1847
  144MOL0     H18963   6.829   9.367   9.407  0.0649  0.2511  0.6877
  144MOL0     H18964   6.655   9.295   9.254  0.5171 -1.4788 -3.6584
  144MOL0     H18965   6.699   9.427   9.134 -0.6040  2.2215  0.8460
  144MOL0     H18966   6.553   9.459   9.392 -0.9815  1.4223  0.1537
  144MOL0     H18967   6.616   9.597   9.302  0.5441 -0.4079  0.3412
  144MOL0     H18968   6.479   9.546   9.114 -0.2393 -0.7388  0.2543
  144MOL0     H18969   6.379   9.561   9.260 -0.8682  0.4852 -1.8278
  144MOL0     H18970   6.280   9.146   9.192 -2.1150 -1.1411 -0.3799
  144MOL0     H18971   6.033   9.106   9.115 -0.4108  0.3121  0.7762
  144MOL0     H18972   5.746   8.942   9.117  0.9915  0.3594 -1.3421
  144MOL0     H18973   5.519   8.865   9.147  2.8439 -0.8886 -2.7635
  144MOL0     H18974   5.319   8.898   9.309 -1.3194 -2.1687  0.4491
  144MOL0     H18975   5.303   8.815   9.155  1.1587 -1.2085  1.2381
  144MOL0     H18976   5.062   8.889   9.140 -0.3271 -1.0571 -0.0657
  144MOL0     H18977   5.082   8.983   9.271 -0.5618 -0.0366  0.7278
  144MOL0     H18978   5.144   8.677   9.249  0.5061  1.4648 -0.5456
  144MOL0     H18979   4.982   8.733   9.302 -0.2743  2.0222 -2.1225
  144MOL0     H18980   5.252   8.779   9.456 -0.5052  3.0852 -0.1769
  144MOL0     H18981   5.093   8.833   9.506 -0.6117 -2.3581  2.5196
  144MOL0     H18982   5.107   8.649   9.632 -2.0048 -0.6683 -0.1546
  144MOL0     H18983   5.158   8.539   9.494  2.1307  0.1380 -0.0309
  144MOL0     H18984   4.954   8.485   9.574  2.3923 -0.4953 -1.8191
  144MOL0     H18985   4.925   8.539   9.414  0.6465  1.4902 -0.4605
  144MOL0     H18986   4.845   8.718   9.648  1.0164 -1.4430  0.0426
  144MOL0     H18987   4.825   8.739   9.471 -1.0899  0.0558 -0.3229
  144MOL0     H18988   4.714   8.512   9.630 -0.9209 -1.4250 -0.5641
  144MOL0     H18989   4.679   8.554   9.457  0.3861  2.7323 -1.0952
  144MOL0     H18990   5.378   9.273   9.076 -1.0461 -0.7233 -2.4985
  144MOL0     H18991   5.600   9.339   9.019 -1.7755 -0.1104  0.7562
  144MOL0     H18992   6.025   9.505   8.951  0.5350  0.9212  0.1992
  144MOL0     H18993   6.255   9.539   9.041 -0.7143  1.2635 -0.2322
  144MOL0     H18994   8.229   9.074   9.448  0.6052  0.3662 -0.7075
  144MOL0     H18995   8.398   9.032   9.633 -0.1322 -0.6809 -0.7737
  144MOL0     H18996   8.632   9.057   9.859 -1.7472  3.3303 -2.0756
  144MOL0     H18997   8.844   9.049   9.953 -0.5802 -2.5900  2.2193
  144MOL0     H18998   8.861   9.226  10.398 -0.9106 -1.4695 -1.4840
  144MOL0     H18999   8.915   9.336  10.266 -0.1357  1.3380  0.8546
  144MOL0     H19000   9.091   9.118  10.395  2.2493  0.6778 -0.4816
  144MOL0     H19001   9.136   9.237  10.270  0.9168 -1.3469 -0.0556
  144MOL0     H19002   9.116   9.278  10.561  1.5503  0.3403 -0.7331
  144MOL0     H19003   9.041   9.412  10.460 -1.6404 -0.1055  0.4950
  144MOL0     H19004   9.338   9.315  10.440  0.4338  0.5958 -1.2869
  144MOL0     H19005   9.261   9.432  10.347  2.6478  0.7208  1.3133
  144MOL0     H19006   9.321   9.645  10.693  1.0244  0.1480 -0.0676
  144MOL0     H19007   8.684   9.249  10.307 -0.6656  2.5252 -0.8435
  144MOL0     H19008   8.457   9.233  10.207 -0.8638 -0.5513  1.1785
  145MOL0     O19009   9.190   4.035   3.140  0.4259  0.3692 -0.2154
  145MOL0     C19010   9.303   4.058   3.101  0.3554 -0.4399  0.2646
  145MOL0     O19011   9.389   3.991   3.020  0.1268  0.0353 -0.1755
  145MOL0     C19012   9.333   3.892   2.944 -0.2177  0.1146 -0.2847
  145MOL0     C19013   9.230   3.791   2.980 -1.1695  0.4484  0.4571
  145MOL0     C19014   9.201   3.676   2.904 -0.0197 -0.3571  0.1472
  145MOL0     C19015   9.263   3.658   2.778  0.0692  0.9469 -1.3283
  145MOL0     O19016   9.223   3.562   2.698  0.2239  0.0753 -0.4210
  145MOL0     C19017   9.293   3.542   2.574  0.0192  0.7099  0.9266
  145MOL0     C19018   9.250   3.405   2.520 -0.0243  0.8044  0.4195
  145MOL0     C19019   9.343   3.380   2.395 -1.0294 -0.5322  0.1388
  145MOL0     C19020   9.491   3.347   2.429 -0.7453  0.8156  0.2706
  145MOL0     C19021   9.551   3.227   2.366 -0.1578 -0.4620  0.3078
  145MOL0     C19022   9.698   3.200   2.399  0.1605 -0.5062  0.4856
  145MOL0     C19023   9.765   3.105   2.301 -0.7911 -0.0118 -0.8007
  145MOL0     C19024   9.894   3.041   2.366 -0.7350 -0.2478  0.5122
  145MOL0     N19025   9.951   2.911   2.303 -0.2401 -0.1008 -0.3024
  145MOL0     C19026   9.925   2.785   2.347 -0.6457 -0.2543  0.1255
  145MOL0     C19027  10.008   2.708   2.270  0.0171  0.0744 -0.7695
  145MOL0     C19028  10.015   2.559   2.303  0.4078 -0.0009 -0.0927
  145MOL0     C19029   9.877   2.495   2.289 -0.2177  0.0090  0.1213
  145MOL0     C19030   9.863   2.367   2.378 -0.8738  0.0179 -0.3598
  145MOL0     C19031   9.887   2.247   2.287  0.4291  0.0485  0.2073
  145MOL0     O19032   9.916   2.135   2.374 -0.2545 -0.3959 -0.2269
  145MOL0     C19033  10.047   2.108   2.415 -0.0008  0.5438 -0.2206
  145MOL0     C19034  10.067   2.010   2.512 -0.1237 -0.5793 -0.0967
  145MOL0     C19035  10.193   1.982   2.561 -0.0039 -0.0218  0.3903
  145MOL0     C19036  10.302   2.053   2.516  0.0179  0.2726 -0.2054
  145MOL0     C19037  10.435   2.030   2.581  0.0030 -0.3333 -0.6994
  145MOL0     O19038  10.436   1.998   2.713  0.1929 -0.6803 -0.5871
  145MOL0     C19039  10.554   1.957   2.766 -0.2638  0.6504 -0.8666
  145MOL0     C19040  10.563   1.836   2.824 -0.3773 -0.1280  0.0829
  145MOL0     C19041  10.679   1.786   2.892  1.0964  0.2026 -0.0803
  145MOL0     C19042  10.772   1.887   2.937  0.8137  0.0285  0.5985
  145MOL0     O19043  10.884   1.858   3.013  0.3863 -0.4754 -0.5548
  145MOL0     C19044  10.949   1.734   2.994 -0.0090 -0.0657  0.5193
  145MOL0     C19045  11.073   1.734   3.070 -0.1842  0.9368  0.3715
  145MOL0     C19046  11.160   1.603   3.042  0.6801 -0.1540  0.3841
  145MOL0     C19047  11.293   1.620   3.112  0.2742 -0.1034  0.6155
  145MOL0     C19048  11.381   1.494   3.101 -0.2618  0.3833 -0.0081
  145MOL0     C19049  11.514   1.510   3.168  0.0902  0.1281  0.2149
  145MOL0     C19050  11.605   1.394   3.146 -0.3832  0.2947  0.1685
  145MOL0     C19051  11.734   1.415   3.221  0.0321 -0.0611  0.7606
  145MOL0    Cl19052  11.843   1.283   3.144  0.5061  0.1770 -0.0498
  145MOL0     C19053  10.749   2.018   2.887 -0.4863  0.0024 -0.4151
  145MOL0     C19054  10.644   2.048   2.806  0.6094 -0.1503  0.5161
  145MOL0     O19055  10.535   2.038   2.506  0.3524  0.2962 -0.1594
  145MOL0     C19056  10.288   2.146   2.411  0.0350  0.3577  0.9182
  145MOL0     C19057  10.163   2.170   2.360  0.1295 -0.5923  0.1263
  145MOL0     N19058  10.086   2.790   2.193 -0.8643 -0.0114  0.5800
  145MOL0     N19059  10.067   2.909   2.233  0.3146 -0.3699  0.1134
  145MOL0     C19060   9.361   3.753   2.746 -1.0061 -0.1369 -0.6754
  145MOL0     C19061   9.396   3.863   2.826 -0.4866  0.1693  0.0329
  145MOL0     C19062   9.368   4.180   3.153 -0.0583  0.1523  0.1988
  145MOL0     C19063   9.473   4.243   3.081  0.3164 -0.4509 -0.3020
  145MOL0     C19064   9.532   4.361   3.130 -0.1225 -0.4148  0.2289
  145MOL0     C19065   9.495   4.411   3.261 -0.0552  0.6137 -0.7126
  145MOL0     O19066   9.532   4.529   3.312  0.1797  0.1566  0.1310
  145MOL0     C19067   9.647   4.595   3.251  0.8729 -0.4607 -0.3362
  145MOL0     C19068   9.683   4.717   3.335 -0.2666  0.2586 -0.0225
  145MOL0     C19069   9.800   4.784   3.263 -0.0836 -0.3847 -0.2105
  145MOL0     C19070   9.876   4.893   3.341 -0.9961 -0.1647 -0.1968
  145MOL0     C19071   9.786   4.959   3.438  0.8257  0.0103 -0.5710
  145MOL0     C19072   9.704   5.017   3.507 -0.0824  0.0875 -0.8035
  145MOL0     C19073   9.390   4.349   3.332 -0.2830  0.2027  0.7654
  145MOL0     C19074   9.335   4.230   3.281  0.5946 -0.3122 -0.2130
  145MOL0     H19075   9.187   3.795   3.079  3.6196 -0.8707  2.9093
  145MOL0     H19076   9.136   3.598   2.942  0.1239 -0.2583  0.6075
  145MOL0     H19077   9.402   3.533   2.581 -0.0355 -2.2446 -0.5320
  145MOL0     H19078   9.267   3.622   2.504  2.0203 -1.8162 -3.0635
  145MOL0     H19079   9.143   3.395   2.501  0.0398 -0.5696  0.6866
  145MOL0     H19080   9.274   3.332   2.598 -3.1126 -0.5388  0.2562
  145MOL0     H19081   9.336   3.456   2.318 -0.1099 -0.1272  0.4378
  145MOL0     H19082   9.307   3.283   2.360  1.2426 -1.5667  0.4478
  145MOL0     H19083   9.558   3.433   2.417  3.1073 -1.9132  0.4191
  145MOL0     H19084   9.489   3.312   2.533 -1.0387 -0.0232 -0.0132
  145MOL0     H19085   9.534   3.249   2.260 -2.8168 -3.0576  0.0517
  145MOL0     H19086   9.496   3.135   2.386  1.4150 -1.6754 -0.6984
  145MOL0     H19087   9.705   3.157   2.500 -0.2019 -2.5134 -0.2914
  145MOL0     H19088   9.759   3.291   2.392  0.4352 -0.6846  0.5388
  145MOL0     H19089   9.696   3.022   2.282  0.2073 -1.1340  0.2680
  145MOL0     H19090   9.787   3.161   2.211  0.0351  2.3191  0.7623
  145MOL0     H19091   9.857   3.013   2.465 -2.1825 -0.0553  0.0505
  145MOL0     H19092   9.987   3.100   2.366 -0.9120  0.0408  0.9177
  145MOL0     H19093   9.855   2.751   2.423 -0.7089 -0.9614 -0.2473
  145MOL0     H19094  10.068   2.533   2.395  0.0639 -0.6127 -0.0625
  145MOL0     H19095  10.079   2.516   2.226 -1.0168 -0.8507 -0.8635
  145MOL0     H19096   9.854   2.483   2.183  0.5471 -1.7019  0.1270
  145MOL0     H19097   9.805   2.570   2.325 -0.1290 -0.1926  0.7442
  145MOL0     H19098   9.931   2.365   2.463 -3.7568 -1.8035  2.1244
  145MOL0     H19099   9.766   2.361   2.428  0.3227 -3.4353  1.9012
  145MOL0     H19100   9.961   2.280   2.213 -3.3742  2.5458 -2.8922
  145MOL0     H19101   9.797   2.229   2.228  0.9668  3.2245 -1.8481
  145MOL0     H19102   9.991   1.945   2.553 -0.6150 -0.8198 -1.3389
  145MOL0     H19103  10.195   1.909   2.642  1.0762  0.9624  1.2860
  145MOL0     H19104  10.490   1.760   2.797  1.0936 -1.4951 -0.2187
  145MOL0     H19105  10.703   1.687   2.929  2.7755  0.9466  0.9506
  145MOL0     H19106  10.971   1.721   2.888 -4.0750 -1.3236 -0.3488
  145MOL0     H19107  10.891   1.646   3.023 -1.6785  0.8958  0.2231
  145MOL0     H19108  11.049   1.741   3.177  0.0348 -1.5644  0.6386
  145MOL0     H19109  11.138   1.821   3.057  1.5464 -0.1940  1.0297
  145MOL0     H19110  11.182   1.585   2.936  2.0731  0.3128  0.5719
  145MOL0     H19111  11.115   1.513   3.084 -0.0281  0.5534  1.1640
  145MOL0     H19112  11.343   1.701   3.058 -0.6348  0.1171  0.0859
  145MOL0     H19113  11.282   1.653   3.216 -1.4498 -1.8662  1.0538
  145MOL0     H19114  11.389   1.455   2.999  1.1292 -2.1303  0.9523
  145MOL0     H19115  11.333   1.417   3.163  0.5568  0.6994  1.0572
  145MOL0     H19116  11.501   1.520   3.276 -2.0717 -0.4639  0.0562
  145MOL0     H19117  11.563   1.598   3.127  0.5983 -0.5496 -0.6745
  145MOL0     H19118  11.554   1.302   3.176  0.5340 -0.4428 -0.4665
  145MOL0     H19119  11.617   1.385   3.037 -1.3783  1.9424 -0.1195
  145MOL0     H19120  11.719   1.410   3.329  0.4753 -0.3598  0.8082
  145MOL0     H19121  11.780   1.513   3.204 -0.0750 -0.3901 -2.0201
  145MOL0     H19122  10.811   2.105   2.910 -4.6944  2.8127  1.5028
  145MOL0     H19123  10.609   2.147   2.779  0.1416 -0.2300  0.8181
  145MOL0     H19124  10.376   2.197   2.372 -0.3094  0.0559 -0.2866
  145MOL0     H19125  10.161   2.231   2.271  1.7536 -0.1361  0.3615
  145MOL0     H19126   9.425   3.737   2.660 -0.2743 -1.5483  0.1011
  145MOL0     H19127   9.477   3.926   2.793 -1.4322  1.1133 -0.5626
  145MOL0     H19128   9.497   4.219   2.978  0.1796 -0.0782 -0.4252
  145MOL0     H19129   9.598   4.409   3.058 -0.9303  1.9617  0.9638
  145MOL0     H19130   9.623   4.626   3.149  0.0775 -1.1748 -0.3830
  145MOL0     H19131   9.732   4.529   3.232  2.0888  0.7914  0.6094
  145MOL0     H19132   9.599   4.787   3.339  0.9068  1.8526 -1.5860
  145MOL0     H19133   9.713   4.675   3.431  2.6920 -2.5688 -1.9429
  145MOL0     H19134   9.780   4.830   3.166 -0.3189 -0.1935 -0.0747
  145MOL0     H19135   9.878   4.712   3.237  1.9779  2.1636 -1.6613
  145MOL0     H19136   9.961   4.863   3.403 -0.1413  0.7659 -0.8802
  145MOL0     H19137   9.915   4.965   3.268 -0.0538  0.5154  0.9418
  145MOL0     H19138   9.640   5.065   3.578  1.3304 -1.1622  1.4078
  145MOL0     H19139   9.353   4.384   3.428 -1.7600  3.5418 -0.8642
  145MOL0     H19140   9.259   4.180   3.340 -0.8667  0.1106 -1.6717
  146MOL0     O19141  11.031   2.557   6.623  0.3842 -0.3727  0.7347
  146MOL0     C19142  11.151   2.580   6.598  0.2205  0.2956  0.3159
  146MOL0     O19143  11.235   2.490   6.528  0.2088  0.2924 -0.0048
  146MOL0     C19144  11.170   2.380   6.490  0.3025  0.1204  0.2515
  146MOL0     C19145  11.129   2.272   6.569  0.8579  0.9553 -0.4583
  146MOL0     C19146  11.068   2.158   6.516 -0.0828 -0.8740  0.4261
  146MOL0     C19147  11.079   2.132   6.379  0.4329 -0.7519  0.7839
  146MOL0     O19148  11.014   2.026   6.324  0.1759  0.0435  0.3218
  146MOL0     C19149  10.991   1.909   6.412  0.4303  0.4852  0.7068
  146MOL0     C19150  10.974   1.780   6.325  0.4525 -0.0566  0.4307
  146MOL0     C19151  10.863   1.780   6.221  0.4498 -0.0376 -0.0971
  146MOL0     C19152  10.733   1.775   6.296  1.0638 -0.0583  0.1182
  146MOL0     C19153  10.611   1.769   6.190  0.3196 -0.1885  0.0751
  146MOL0     C19154  10.643   1.676   6.071 -0.4159 -0.2357  0.3104
  146MOL0     C19155  10.503   1.664   6.005  0.5241 -0.4290  0.5121
  146MOL0     C19156  10.497   1.570   5.877  0.2882  0.4065  0.0914
  146MOL0     N19157  10.364   1.573   5.822 -0.0861  0.5882 -0.3334
  146MOL0     C19158  10.257   1.544   5.898  1.3325 -0.1516 -0.2814
  146MOL0     C19159  10.164   1.533   5.800  0.1852  0.8157 -0.7991
  146MOL0     C19160  10.026   1.511   5.844  0.0178 -0.9339 -0.3435
  146MOL0     C19161   9.941   1.447   5.729  0.0118 -0.1202 -0.0261
  146MOL0     C19162   9.796   1.453   5.779 -0.5188  0.2230 -0.6873
  146MOL0     C19163   9.702   1.437   5.660 -0.2314  0.1626 -1.2020
  146MOL0     O19164   9.564   1.405   5.691  0.1728  0.1373 -0.0408
  146MOL0     C19165   9.470   1.385   5.596 -0.1834 -0.1494 -0.0434
  146MOL0     C19166   9.350   1.319   5.629  0.3767 -0.0845  1.0995
  146MOL0     C19167   9.254   1.289   5.526  0.1498 -0.2506 -0.6368
  146MOL0     C19168   9.272   1.341   5.393  0.1238  0.0225 -0.0965
  146MOL0     C19169   9.170   1.321   5.288  1.3551  0.7248  0.5552
  146MOL0     O19170   9.199   1.366   5.159  0.1562  0.2487 -0.2332
  146MOL0     C19171   9.107   1.319   5.059 -0.1121  0.4262 -0.1490
  146MOL0     C19172   8.969   1.346   5.051  0.4215  1.2520 -0.7282
  146MOL0     C19173   8.889   1.299   4.954 -0.1129 -0.7873  0.0094
  146MOL0     C19174   8.948   1.207   4.859  1.4001 -0.5009  0.5587
  146MOL0     O19175   8.878   1.140   4.760  0.1836 -0.0429  0.4230
  146MOL0     C19176   8.741   1.154   4.738  0.1733 -0.3141  0.2165
  146MOL0     C19177   8.707   1.100   4.597  0.0979 -0.1176  0.0896
  146MOL0     C19178   8.559   1.110   4.565  0.6338  0.2527 -0.3365
  146MOL0     C19179   8.526   1.080   4.422  0.0183  0.2609 -0.3714
  146MOL0     C19180   8.378   1.096   4.379 -0.6271 -0.6571 -0.8261
  146MOL0     C19181   8.304   1.206   4.459 -0.5451 -0.1560 -0.4604
  146MOL0     C19182   8.154   1.220   4.438  0.2652  0.4979  0.2520
  146MOL0     C19183   8.069   1.099   4.481 -0.8550 -0.6113 -0.3253
  146MOL0    Cl19184   7.899   1.146   4.459 -0.0863 -0.3955  0.0572
  146MOL0     C19185   9.085   1.180   4.862 -0.8984 -0.7874  0.4484
  146MOL0     C19186   9.165   1.236   4.965 -0.1415  0.2262 -0.2301
  146MOL0     O19187   9.075   1.242   5.309  0.0293 -0.3221 -0.1129
  146MOL0     C19188   9.393   1.407   5.362 -1.0211  0.1373 -1.0724
  146MOL0     C19189   9.496   1.429   5.460 -0.0124 -0.1043 -0.5204
  146MOL0     N19190  10.214   1.558   5.674 -0.3246  1.2259 -1.0371
  146MOL0     N19191  10.339   1.580   5.689  0.5714  0.0957 -0.1418
  146MOL0     C19192  11.135   2.233   6.296  0.3406  0.6373 -0.2555
  146MOL0     C19193  11.168   2.355   6.350  0.1149 -0.4107  0.4070
  146MOL0     C19194  11.202   2.719   6.637  0.7794  0.1307 -1.1753
  146MOL0     C19195  11.339   2.733   6.651  0.2410 -0.1298 -0.2086
  146MOL0     C19196  11.400   2.852   6.698  0.1076 -0.5661 -0.0697
  146MOL0     C19197  11.314   2.961   6.740  0.2504 -1.0013  0.2231
  146MOL0     O19198  11.355   3.081   6.799  0.2340 -0.4687 -0.5970
  146MOL0     C19199  11.498   3.102   6.783 -0.1563 -0.1128  0.2760
  146MOL0     C19200  11.537   3.235   6.842  0.7484 -0.4328  0.3771
  146MOL0     C19201  11.690   3.249   6.823  0.1716  0.6441 -0.0210
  146MOL0     C19202  11.752   3.392   6.834  0.0631  0.6708  0.7552
  146MOL0     C19203  11.712   3.445   6.963 -0.6951 -0.4169  0.1288
  146MOL0     C19204  11.680   3.476   7.074  0.0562 -0.1079 -0.4791
  146MOL0     C19205  11.178   2.955   6.710  0.6846  0.2176 -0.6636
  146MOL0     C19206  11.118   2.832   6.674 -0.0887  0.5960  0.7062
  146MOL0     H19207  11.155   2.273   6.674 -0.8222 -0.7019  0.0443
  146MOL0     H19208  11.011   2.093   6.581 -1.2559  0.0177  0.3078
  146MOL0     H19209  10.895   1.922   6.463 -1.8176 -2.8656 -2.1891
  146MOL0     H19210  11.067   1.887   6.488 -0.1651 -0.5926  1.0155
  146MOL0     H19211  10.960   1.690   6.386  2.0232  0.1947  1.2100
  146MOL0     H19212  11.067   1.770   6.268  0.2151  4.6654 -1.2582
  146MOL0     H19213  10.877   1.689   6.163 -0.0819 -0.0803 -0.1661
  146MOL0     H19214  10.867   1.863   6.150  1.2518 -0.0660 -0.0941
  146MOL0     H19215  10.723   1.685   6.358  1.2460  1.1271  1.9673
  146MOL0     H19216  10.723   1.862   6.362 -0.1179  0.2394 -0.4150
  146MOL0     H19217  10.604   1.872   6.156  1.7321  0.6607  2.1864
  146MOL0     H19218  10.518   1.743   6.242 -0.4956  2.5723  0.1160
  146MOL0     H19219  10.674   1.578   6.108 -4.1175 -2.0508 -0.8362
  146MOL0     H19220  10.702   1.729   5.996 -0.0275  1.2659  1.6181
  146MOL0     H19221  10.430   1.620   6.073  0.4172 -0.1804  0.5600
  146MOL0     H19222  10.471   1.765   5.976 -0.7122 -0.6524  1.0375
  146MOL0     H19223  10.529   1.468   5.902  0.4737  0.7717  1.3841
  146MOL0     H19224  10.564   1.617   5.804 -1.2769 -0.9836 -2.4100
  146MOL0     H19225  10.246   1.522   6.003 -2.1670  0.4640 -0.3997
  146MOL0     H19226   9.987   1.607   5.879 -0.5541 -1.1475 -0.3783
  146MOL0     H19227  10.024   1.454   5.938  1.8445  0.3101  0.5178
  146MOL0     H19228   9.967   1.347   5.693 -0.2442 -0.3493  0.4037
  146MOL0     H19229   9.959   1.522   5.652 -1.4530 -0.6299 -0.8968
  146MOL0     H19230   9.786   1.375   5.856  1.4120  2.2309  1.7985
  146MOL0     H19231   9.772   1.547   5.829 -1.4655 -0.9690  1.2307
  146MOL0     H19232   9.733   1.349   5.603 -0.8263  0.8410 -2.6270
  146MOL0     H19233   9.694   1.532   5.605  0.8680 -0.0545 -1.7746
  146MOL0     H19234   9.322   1.289   5.729 -2.7610 -1.3788 -0.0365
  146MOL0     H19235   9.170   1.231   5.562 -1.2496  2.9720  1.8471
  146MOL0     H19236   8.925   1.404   5.131  0.5942 -0.4300  0.6566
  146MOL0     H19237   8.781   1.308   4.964 -0.0081  0.1265  0.4685
  146MOL0     H19238   8.702   1.254   4.755 -1.4095 -0.3067 -2.7415
  146MOL0     H19239   8.684   1.091   4.807 -0.7892 -3.0501 -2.8280
  146MOL0     H19240   8.729   0.993   4.591 -0.0557 -0.2333  1.3816
  146MOL0     H19241   8.782   1.146   4.531  0.5134 -0.8448  0.0449
  146MOL0     H19242   8.532   1.215   4.579 -1.6884  0.0020 -2.1425
  146MOL0     H19243   8.494   1.063   4.640 -0.1390 -0.2931 -1.3088
  146MOL0     H19244   8.578   1.153   4.359  0.6621 -0.5663 -0.8243
  146MOL0     H19245   8.551   0.976   4.398  0.4976  0.0819  0.8173
  146MOL0     H19246   8.339   0.996   4.405  0.0469 -0.7705 -0.2293
  146MOL0     H19247   8.383   1.111   4.271 -1.3918 -0.4401 -0.8434
  146MOL0     H19248   8.352   1.303   4.455  0.5638 -0.6272  0.8206
  146MOL0     H19249   8.312   1.165   4.560 -2.6576  0.0271 -0.1705
  146MOL0     H19250   8.120   1.308   4.494  1.3091  0.5221  0.8815
  146MOL0     H19251   8.127   1.246   4.335  0.7966 -0.9840 -0.2881
  146MOL0     H19252   8.099   1.066   4.581 -1.2618 -0.7707 -0.2552
  146MOL0     H19253   8.089   1.007   4.425  1.5972 -2.2199  2.8676
  146MOL0     H19254   9.135   1.107   4.799  5.1517  1.7382  1.6723
  146MOL0     H19255   9.268   1.204   4.973 -0.8226 -3.5471 -3.5128
  146MOL0     H19256   9.398   1.460   5.267 -1.5688  0.4063 -0.9543
  146MOL0     H19257   9.584   1.485   5.429 -1.2434  1.5926 -1.1100
  146MOL0     H19258  11.122   2.230   6.188  0.6670  0.7487 -0.2983
  146MOL0     H19259  11.189   2.434   6.279 -0.7358 -1.2153 -0.7619
  146MOL0     H19260  11.407   2.655   6.621  2.6713  0.9158  2.1171
  146MOL0     H19261  11.509   2.857   6.692  0.0103  2.5379 -1.3073
  146MOL0     H19262  11.523   3.107   6.676  1.8644  0.5554  0.7405
  146MOL0     H19263  11.557   3.023   6.831  0.0902  0.6835  1.2923
  146MOL0     H19264  11.478   3.320   6.806  0.0483 -1.0922 -0.0469
  146MOL0     H19265  11.530   3.227   6.951 -0.1264 -0.0177  0.3599
  146MOL0     H19266  11.710   3.204   6.726  2.6321 -1.3135  1.2684
  146MOL0     H19267  11.750   3.194   6.897 -0.0928  0.6262  0.1814
  146MOL0     H19268  11.860   3.389   6.819 -0.2092  0.8923 -1.5253
  146MOL0     H19269  11.709   3.462   6.762  0.7317  0.1076 -0.2055
  146MOL0     H19270  11.668   3.516   7.172  1.3931  1.9047 -1.0470
  146MOL0     H19271  11.123   3.048   6.700 -0.0843 -0.4169 -2.9570
  146MOL0     H19272  11.011   2.827   6.653 -0.4130 -0.5881  2.3771
  147MOL0     O19273   6.317   9.385  10.551 -0.3234  1.1579 -0.0237
  147MOL0     C19274   6.220   9.324  10.598  0.6666  0.6249  0.0658
  147MOL0     O19275   6.214   9.250  10.720 -0.4214  0.2624 -0.0398
  147MOL0     C19276   6.319   9.241  10.821  1.2351  0.7992  0.0173
  147MOL0     C19277   6.447   9.300  10.814 -0.7168  0.4049 -0.4822
  147MOL0     C19278   6.535   9.306  10.919  0.3513  0.0762  0.4835
  147MOL0     C19279   6.489   9.262  11.046  0.1109 -0.0454 -0.4942
  147MOL0     O19280   6.576   9.272  11.157 -0.5976 -0.4392 -0.3341
  147MOL0     C19281   6.615   9.135  11.197 -0.4561 -0.1634 -0.1252
  147MOL0     C19282   6.676   9.131  11.337  0.4952 -0.5528  0.0229
  147MOL0     C19283   6.784   9.231  11.371  0.9158 -0.2605  0.5790
  147MOL0     C19284   6.732   9.370  11.420 -0.3149 -0.4612 -0.2691
  147MOL0     C19285   6.858   9.440  11.483 -0.2606 -0.0205 -0.4711
  147MOL0     C19286   6.841   9.595  11.491  0.4723 -0.5044 -0.5673
  147MOL0     C19287   6.972   9.664  11.532 -1.4161  0.4296  0.3646
  147MOL0     C19288   6.965   9.817  11.532 -0.4647  0.2804  0.0669
  147MOL0     N19289   6.876   9.864  11.642  0.3482  0.1914  0.5046
  147MOL0     C19290   6.866   9.826  11.775  0.2722 -0.8185  0.0110
  147MOL0     C19291   6.758   9.899  11.829  0.0182 -0.5299 -0.1589
  147MOL0     C19292   6.707   9.912  11.967 -0.0280 -0.0619 -0.7732
  147MOL0     C19293   6.558   9.915  11.983  0.6441 -0.5697  0.2822
  147MOL0     C19294   6.504  10.065  11.985  0.6108 -0.1635  0.4597
  147MOL0     C19295   6.344  10.071  12.007 -0.4602  1.2026 -0.1952
  147MOL0     O19296   6.306  10.205  12.040  0.6405  0.3830  0.4321
  147MOL0     C19297   6.171  10.243  12.040 -0.4160 -0.2686  0.6227
  147MOL0     C19298   6.143  10.382  12.032 -0.3818 -0.0433 -0.5113
  147MOL0     C19299   6.004  10.425  12.020 -0.3569 -0.6753  0.6446
  147MOL0     C19300   5.904  10.334  12.013  0.2356 -0.5479  0.1509
  147MOL0     C19301   5.770  10.377  12.011  0.1480  0.1947 -0.3481
  147MOL0     O19302   5.736  10.506  12.036  0.7573  0.1641  0.1953
  147MOL0     C19303   5.603  10.547  12.021  0.7070  0.4893 -0.7810
  147MOL0     C19304   5.543  10.622  12.125 -0.6869  0.8087 -0.7574
  147MOL0     C19305   5.410  10.669  12.119  0.3420 -0.3505  0.2455
  147MOL0     C19306   5.329  10.633  12.011  0.1114  0.6880  0.2548
  147MOL0     O19307   5.202  10.669  12.023  0.3778 -0.5942  0.1627
  147MOL0     C19308   5.106  10.630  11.925  0.0161  0.3257  0.0783
  147MOL0     C19309   4.971  10.692  11.965  0.5322  0.1367 -1.1854
  147MOL0     C19310   4.860  10.663  11.857  0.2102  0.3565  0.3185
  147MOL0     C19311   4.735  10.739  11.878 -0.1268 -0.7402 -0.7651
  147MOL0     C19312   4.691  10.722  12.031  0.0578 -0.2763  0.1254
  147MOL0     C19313   4.541  10.773  12.057  0.2843 -0.1132 -0.5282
  147MOL0     C19314   4.510  10.915  11.986  0.5913 -0.4949  0.1550
  147MOL0     C19315   4.379  10.992  12.013 -0.9303 -1.2856 -0.0070
  147MOL0    Cl19316   4.357  11.140  11.908 -0.6060  0.2585 -0.3451
  147MOL0     C19317   5.385  10.547  11.912 -0.0080  0.3601 -0.1054
  147MOL0     C19318   5.524  10.513  11.913  0.3935 -0.9037  0.0878
  147MOL0     O19319   5.693  10.289  11.982  0.7077  0.7401 -0.6506
  147MOL0     C19320   5.936  10.200  12.014  0.6141 -0.0622 -0.0221
  147MOL0     C19321   6.064  10.159  12.043 -0.0546 -0.5199  0.0957
  147MOL0     N19322   6.707   9.974  11.716  0.7566 -0.6008 -0.6239
  147MOL0     N19323   6.774   9.946  11.610 -0.7257  0.3415 -0.0319
  147MOL0     C19324   6.358   9.210  11.064 -0.1461 -0.7429  0.1486
  147MOL0     C19325   6.273   9.213  10.951  0.0860 -0.9269 -0.6103
  147MOL0     C19326   6.104   9.326  10.510 -0.8915  0.6435  0.3502
  147MOL0     C19327   6.108   9.368  10.376  0.6512 -1.0897  0.5851
  147MOL0     C19328   5.991   9.360  10.292  0.4856  0.9204 -0.4835
  147MOL0     C19329   5.871   9.323  10.342  0.1868  0.2214 -0.0275
  147MOL0     O19330   5.760   9.304  10.262 -0.8003 -0.2496 -0.0325
  147MOL0     C19331   5.771   9.317  10.124  0.1271  0.0799  0.2545
  147MOL0     C19332   5.640   9.253  10.069  0.7752 -0.8716  0.2581
  147MOL0     C19333   5.509   9.328  10.118  0.3826 -0.1039 -0.0498
  147MOL0     C19334   5.388   9.263  10.047  0.4228 -0.0386  0.0365
  147MOL0     C19335   5.257   9.292  10.098 -0.1165  0.7760 -0.0397
  147MOL0     C19336   5.147   9.317  10.150  0.0175  0.5086  0.6010
  147MOL0     C19337   5.861   9.289  10.477 -0.4708  0.7846 -0.0303
  147MOL0     C19338   5.982   9.284  10.558 -0.5923 -0.1231 -0.2689
  147MOL0     H19339   6.486   9.350  10.726 -1.7286  4.5837  1.1888
  147MOL0     H19340   6.629   9.360  10.911  0.4584 -0.0739  0.7143
  147MOL0     H19341   6.689   9.101  11.124 -2.9347 -3.1495 -1.4423
  147MOL0     H19342   6.531   9.066  11.191 -2.7091  2.1800  1.8608
  147MOL0     H19343   6.724   9.033  11.352  1.2779 -0.5039 -1.8759
  147MOL0     H19344   6.589   9.123  11.402 -0.5018  0.1304 -1.1925
  147MOL0     H19345   6.840   9.239  11.278 -0.2297 -1.2096 -0.2315
  147MOL0     H19346   6.853   9.185  11.443  4.8275  1.0745 -2.0090
  147MOL0     H19347   6.699   9.428  11.333  0.2413  0.0247 -0.1629
  147MOL0     H19348   6.650   9.362  11.491 -0.0090 -2.5277 -0.0729
  147MOL0     H19349   6.937   9.421  11.410  0.6666 -2.8920  1.0788
  147MOL0     H19350   6.889   9.391  11.576 -2.2732 -0.5198 -0.0175
  147MOL0     H19351   6.761   9.618  11.561 -0.9724  0.1249 -2.3553
  147MOL0     H19352   6.811   9.633  11.393  2.3441  2.1148 -0.2298
  147MOL0     H19353   6.999   9.631  11.632 -3.4461 -1.7359  0.2863
  147MOL0     H19354   7.056   9.628  11.472 -2.8679 -3.0484  0.1986
  147MOL0     H19355   6.917   9.854  11.440 -1.3781 -0.3414  0.2764
  147MOL0     H19356   7.058   9.874  11.541 -0.7329  0.7249  0.0907
  147MOL0     H19357   6.930   9.753  11.822 -0.8458 -2.9498 -1.6001
  147MOL0     H19358   6.747  10.007  12.005 -0.8206 -0.0744  0.1145
  147MOL0     H19359   6.738   9.826  12.027 -0.3617  0.2353 -0.1721
  147MOL0     H19360   6.517   9.851  12.060 -2.0570 -1.2296 -1.5687
  147MOL0     H19361   6.527   9.877  11.885  0.5564 -0.7255  0.3722
  147MOL0     H19362   6.546  10.126  12.065  0.2875  1.4082 -0.5382
  147MOL0     H19363   6.526  10.117  11.892  0.0929 -1.2220 -0.2840
  147MOL0     H19364   6.308  10.007  12.088 -0.1297  1.7325  0.3838
  147MOL0     H19365   6.298  10.053  11.909  0.7146 -0.7675 -0.4375
  147MOL0     H19366   6.227  10.451  12.040  0.0810 -0.4204 -1.8339
  147MOL0     H19367   5.977  10.530  12.012  0.7719 -0.4818 -1.1666
  147MOL0     H19368   5.613  10.652  12.203  0.0894 -0.3112 -0.9944
  147MOL0     H19369   5.376  10.733  12.199  1.3322 -1.5545  1.6962
  147MOL0     H19370   5.097  10.521  11.921  1.9902  0.0985  1.0792
  147MOL0     H19371   5.134  10.666  11.826  2.3385 -0.7314  0.3027
  147MOL0     H19372   4.998  10.798  11.961  0.7862  0.0470 -2.8161
  147MOL0     H19373   4.954  10.655  12.066  2.5425  3.3190  0.4971
  147MOL0     H19374   4.837  10.557  11.865  0.8826  0.1322 -0.6045
  147MOL0     H19375   4.900  10.694  11.760 -0.3018  1.6856  0.5095
  147MOL0     H19376   4.755  10.846  11.863 -0.1673 -0.2663  2.0752
  147MOL0     H19377   4.663  10.706  11.802 -0.8129 -0.7115 -0.1451
  147MOL0     H19378   4.757  10.778  12.098 -1.0668  0.2848  0.7942
  147MOL0     H19379   4.696  10.614  12.043 -0.5522 -0.4390 -0.9983
  147MOL0     H19380   4.523  10.777  12.165 -0.6259 -1.7476 -0.5895
  147MOL0     H19381   4.468  10.698  12.024 -0.7605  1.1498 -1.2287
  147MOL0     H19382   4.597  10.975  12.012  0.1333  0.3488 -0.2243
  147MOL0     H19383   4.515  10.899  11.878  0.7814 -0.2102  0.1222
  147MOL0     H19384   4.384  11.029  12.116 -0.6339  1.7030 -0.9961
  147MOL0     H19385   4.292  10.926  12.002 -0.5509 -1.9885  1.0170
  147MOL0     H19386   5.324  10.528  11.824  1.2772 -0.4825 -0.8430
  147MOL0     H19387   5.565  10.463  11.826  1.5919 -3.0081  1.7520
  147MOL0     H19388   5.850  10.134  12.019  0.1227  0.4509 -1.4708
  147MOL0     H19389   6.067  10.053  12.068 -1.2504 -0.0252  2.5527
  147MOL0     H19390   6.308   9.196  11.160  1.1617 -1.1253  0.7936
  147MOL0     H19391   6.165   9.199  10.956 -0.2942  1.2471 -1.6029
  147MOL0     H19392   6.195   9.395  10.316  2.4531 -3.1211  2.1415
  147MOL0     H19393   6.003   9.389  10.188 -0.9839 -3.2301 -2.0190
  147MOL0     H19394   5.857   9.267  10.078  0.5248 -0.8021  1.8650
  147MOL0     H19395   5.769   9.422  10.095 -2.7327  0.7758  2.6053
  147MOL0     H19396   5.641   9.257   9.959  0.2461 -0.6346  0.2580
  147MOL0     H19397   5.638   9.153  10.111  2.4483  0.0686  2.7943
  147MOL0     H19398   5.517   9.432  10.084 -0.7854 -0.3350 -1.0813
  147MOL0     H19399   5.499   9.311  10.225 -0.8573 -2.0578 -0.4357
  147MOL0     H19400   5.400   9.280   9.939  0.7459  1.6957  0.3095
  147MOL0     H19401   5.395   9.154  10.052 -3.7860 -0.5829 -1.7934
  147MOL0     H19402   5.061   9.351  10.203 -1.3364  0.0719 -1.1995
  147MOL0     H19403   5.765   9.255  10.513  0.4630 -0.9272  1.0073
  147MOL0     H19404   5.961   9.250  10.658  1.4457  1.7278  0.8750
  148MOL0     O19405   0.993   8.777  11.160 -0.1089  0.4815  0.7415
  148MOL0     C19406   0.939   8.880  11.123  0.1034 -0.0660 -0.5961
  148MOL0     O19407   0.928   8.992  11.204 -0.3688 -0.1185 -0.9813
  148MOL0     C19408   1.004   9.007  11.314  0.4109  0.1524  1.3822
  148MOL0     C19409   1.143   8.991  11.311  0.6622 -1.2645  0.2332
  148MOL0     C19410   1.218   8.982  11.427 -0.1481 -0.0904 -0.5174
  148MOL0     C19411   1.154   9.015  11.547 -0.0539 -0.3875 -0.2623
  148MOL0     O19412   1.213   9.015  11.669 -0.3993  0.3675  0.1891
  148MOL0     C19413   1.354   9.019  11.681  0.4345 -0.1442 -0.0218
  148MOL0     C19414   1.387   9.025  11.835 -0.2036  0.6111 -0.0662
  148MOL0     C19415   1.310   8.902  11.904 -0.9351  0.0095 -0.5372
  148MOL0     C19416   1.357   8.764  11.855  0.2003  0.1066  0.3046
  148MOL0     C19417   1.514   8.745  11.827  0.0190  0.8877 -0.1130
  148MOL0     C19418   1.555   8.599  11.780  0.1246 -0.8206  0.7935
  148MOL0     C19419   1.674   8.553  11.860 -0.7247  0.5435  0.2896
  148MOL0     C19420   1.656   8.520  12.009  0.3399  0.2768 -1.2505
  148MOL0     N19421   1.550   8.415  12.028  0.6265 -0.2470  0.0484
  148MOL0     C19422   1.563   8.288  11.987  0.9186  0.6666 -0.1084
  148MOL0     C19423   1.455   8.224  12.027 -0.1034 -0.1947 -0.0266
  148MOL0     C19424   1.431   8.086  11.999 -0.3184 -0.4851  0.5390
  148MOL0     C19425   1.290   8.056  11.945  0.0259 -0.1520  0.9229
  148MOL0     C19426   1.270   8.119  11.799  0.0081 -1.2446  0.2781
  148MOL0     C19427   1.130   8.111  11.744  0.9402 -0.4618 -0.3914
  148MOL0     O19428   1.038   8.173  11.844 -0.5336  0.0542 -0.4969
  148MOL0     C19429   0.901   8.166  11.823  0.4405  0.5857  0.1669
  148MOL0     C19430   0.832   8.231  11.919 -0.8296  0.3510 -0.7967
  148MOL0     C19431   0.695   8.242  11.921 -0.3630 -0.3318 -0.4408
  148MOL0     C19432   0.626   8.177  11.816  0.0617 -0.5499  0.7194
  148MOL0     C19433   0.473   8.177  11.806 -0.8274  0.5507 -0.1797
  148MOL0     O19434   0.413   8.227  11.923  0.0631  0.1379  0.0207
  148MOL0     C19435   0.279   8.228  11.906  0.2091  0.1651  0.2650
  148MOL0     C19436   0.201   8.118  11.923  0.3752 -0.9017  0.3952
  148MOL0     C19437   0.062   8.128  11.902 -0.1217 -0.9111 -0.3829
  148MOL0     C19438  -0.002   8.255  11.867 -0.9734  1.3962  1.0490
  148MOL0     O19439  -0.137   8.274  11.837  0.0719 -0.1066 -0.2271
  148MOL0     C19440  -0.241   8.209  11.911 -1.5055  0.2071  0.2365
  148MOL0     C19441  -0.355   8.297  11.940 -0.1761 -0.8333 -0.3178
  148MOL0     C19442  -0.428   8.327  11.804 -0.0596 -0.5705  0.1360
  148MOL0     C19443  -0.539   8.413  11.853 -0.4835  0.7561  0.1156
  148MOL0     C19444  -0.638   8.465  11.748  0.2207  0.5656 -0.1647
  148MOL0     C19445  -0.736   8.556  11.825  0.0637 -0.5375 -0.4191
  148MOL0     C19446  -0.849   8.603  11.731 -0.7084 -0.5760 -0.8086
  148MOL0     C19447  -0.977   8.655  11.803 -0.2978  0.8505  1.1469
  148MOL0    Cl19448  -1.114   8.641  11.691 -0.3325  0.4361 -0.2511
  148MOL0     C19449   0.081   8.367  11.850 -0.1578  0.4315  0.2749
  148MOL0     C19450   0.217   8.346  11.865  0.1983  0.3433  1.4406
  148MOL0     O19451   0.420   8.145  11.697  0.2571 -0.4482 -0.0928
  148MOL0     C19452   0.696   8.114  11.712 -0.4270 -0.8718  0.4247
  148MOL0     C19453   0.836   8.107  11.716  0.1014  0.2995 -0.0735
  148MOL0     N19454   1.373   8.319  12.082 -0.2669 -0.2480 -0.0269
  148MOL0     N19455   1.427   8.432  12.080  0.1660  0.2776 -0.7316
  148MOL0     C19456   1.012   9.034  11.552 -1.1882 -0.2291  0.7796
  148MOL0     C19457   0.936   9.019  11.431  0.0654 -0.1332 -0.1515
  148MOL0     C19458   0.880   8.879  10.987 -0.1144 -0.5830 -0.5754
  148MOL0     C19459   0.790   8.978  10.951 -0.2155 -0.8647 -0.0314
  148MOL0     C19460   0.745   8.999  10.820 -0.0188 -0.1703 -1.2857
  148MOL0     C19461   0.781   8.912  10.721  1.0130 -0.6798 -0.3138
  148MOL0     O19462   0.744   8.914  10.586  0.6527 -0.7276 -0.3123
  148MOL0     C19463   0.619   8.967  10.549 -0.4674 -0.4077  0.3337
  148MOL0     C19464   0.615   8.966  10.398  0.0245 -0.2042  0.3058
  148MOL0     C19465   0.480   9.014  10.348  0.3087 -1.0991  0.9303
  148MOL0     C19466   0.484   9.003  10.197  1.0574 -0.5072  0.2255
  148MOL0     C19467   0.372   9.088  10.145 -0.0096  0.0958  0.3927
  148MOL0     C19468   0.272   9.139  10.101  0.1037  0.1027 -0.0095
  148MOL0     C19469   0.869   8.812  10.757 -0.0020 -0.0730 -0.3477
  148MOL0     C19470   0.921   8.794  10.887  0.5241 -0.3303 -0.2382
  148MOL0     H19471   1.195   8.996  11.216 -1.8617  0.9151 -1.1708
  148MOL0     H19472   1.321   8.951  11.415 -0.8806 -2.4393 -1.4199
  148MOL0     H19473   1.393   9.110  11.632  0.8285 -0.6126 -0.5963
  148MOL0     H19474   1.408   8.936  11.636  2.1856  1.1616 -0.4542
  148MOL0     H19475   1.348   9.119  11.875 -2.4814 -0.0493 -0.5799
  148MOL0     H19476   1.495   9.032  11.848  0.5512  0.2376 -4.6541
  148MOL0     H19477   1.204   8.906  11.877 -1.0823  2.4797  0.2083
  148MOL0     H19478   1.323   8.896  12.012 -0.7984 -0.6085 -0.5831
  148MOL0     H19479   1.321   8.694  11.931  2.2351  2.6237  3.9160
  148MOL0     H19480   1.290   8.744  11.771  0.1931  1.8215 -0.1345
  148MOL0     H19481   1.570   8.776  11.915 -0.9736 -0.2700  0.9612
  148MOL0     H19482   1.540   8.819  11.751 -1.1153 -0.5902 -2.0549
  148MOL0     H19483   1.580   8.592  11.674  0.5863 -1.3715  0.9372
  148MOL0     H19484   1.470   8.534  11.802 -1.6729  1.1617  0.1298
  148MOL0     H19485   1.715   8.465  11.808 -2.1064  1.0681 -1.8224
  148MOL0     H19486   1.754   8.627  11.848  0.0101 -0.0022  1.6055
  148MOL0     H19487   1.622   8.605  12.068 -0.1595 -1.5383  1.2501
  148MOL0     H19488   1.751   8.479  12.046 -0.8372 -0.0158  1.6439
  148MOL0     H19489   1.650   8.238  11.945 -1.5377 -0.8629 -3.8684
  148MOL0     H19490   1.452   8.043  12.097  0.7155  0.6279  0.8314
  148MOL0     H19491   1.501   8.051  11.922  0.9706 -1.6494  2.1806
  148MOL0     H19492   1.226   8.100  12.022 -1.0866  0.6688 -0.4081
  148MOL0     H19493   1.283   7.947  11.941  2.6452 -0.4253  1.9145
  148MOL0     H19494   1.298   8.224  11.807 -0.0242 -1.0547 -1.5685
  148MOL0     H19495   1.341   8.068  11.733 -0.3425  1.1542 -2.1357
  148MOL0     H19496   1.095   8.014  11.710  0.1761 -0.2955 -0.1001
  148MOL0     H19497   1.129   8.176  11.656  3.3460 -1.3422 -1.1671
  148MOL0     H19498   0.888   8.293  11.989  0.2227 -0.4521 -0.9086
  148MOL0     H19499   0.652   8.311  11.992  4.5948  0.4976  2.2122
  148MOL0     H19500   0.249   8.025  11.951  2.2306  0.4557  2.0539
  148MOL0     H19501  -0.003   8.041  11.901 -0.0942 -1.0624  2.3256
  148MOL0     H19502  -0.198   8.157  11.998  0.3762 -1.5865 -1.6160
  148MOL0     H19503  -0.278   8.134  11.840  1.0310 -1.2289  0.3038
  148MOL0     H19504  -0.303   8.382  11.984 -0.3456 -2.3685  3.2316
  148MOL0     H19505  -0.423   8.263  12.019 -0.4054  0.9083  0.2863
  148MOL0     H19506  -0.474   8.239  11.756 -1.6550 -0.6333  1.6823
  148MOL0     H19507  -0.368   8.375  11.727  1.2286 -4.0841 -1.2777
  148MOL0     H19508  -0.593   8.368  11.938  1.9227 -0.1545  1.2355
  148MOL0     H19509  -0.491   8.495  11.907  0.8664  0.2668 -0.3059
  148MOL0     H19510  -0.694   8.378  11.711 -0.0145  1.2949 -1.5775
  148MOL0     H19511  -0.596   8.526  11.668 -2.7340  6.0453  1.9238
  148MOL0     H19512  -0.680   8.641  11.867  0.3779 -2.6102  3.9339
  148MOL0     H19513  -0.777   8.504  11.912  3.2463 -0.5763  1.2080
  148MOL0     H19514  -0.815   8.684  11.666  2.0275 -0.4439  0.6546
  148MOL0     H19515  -0.876   8.516  11.670  0.8524 -0.2612 -2.0242
  148MOL0     H19516  -0.961   8.758  11.836  1.0122  1.7648 -2.0272
  148MOL0     H19517  -1.009   8.600  11.892 -1.0591  4.4545  3.2876
  148MOL0     H19518   0.027   8.458  11.824 -1.6417 -0.1560  1.1651
  148MOL0     H19519   0.288   8.427  11.849  0.1860  0.7804  3.3743
  148MOL0     H19520   0.636   8.079  11.629 -0.7816  1.3558 -0.3409
  148MOL0     H19521   0.893   8.044  11.649  2.5045  1.3913  0.8130
  148MOL0     H19522   0.966   9.054  11.649 -1.7357  2.8358 -0.0258
  148MOL0     H19523   0.828   9.029  11.430 -0.1351  0.0725  4.3488
  148MOL0     H19524   0.765   9.059  11.019  0.6407  0.5486 -1.3366
  148MOL0     H19525   0.682   9.084  10.797 -2.3688 -1.9986 -1.9734
  148MOL0     H19526   0.603   9.068  10.587 -1.9166  0.1376 -1.5608
  148MOL0     H19527   0.539   8.906  10.593  0.1507 -0.3416  1.5832
  148MOL0     H19528   0.696   9.023  10.352 -0.1870  0.0032  0.1880
  148MOL0     H19529   0.622   8.861  10.368 -2.2764 -0.3903  0.2797
  148MOL0     H19530   0.471   9.118  10.381  4.6145 -1.0500  2.6096
  148MOL0     H19531   0.399   8.959  10.397 -0.9271  1.9891  2.6387
  148MOL0     H19532   0.576   9.051  10.161 -1.3898  3.7506 -1.1531
  148MOL0     H19533   0.467   8.897  10.176 -0.1712 -1.1785  3.9736
  148MOL0     H19534   0.179   9.184  10.071 -2.5247 -2.4884  3.3961
  148MOL0     H19535   0.891   8.740  10.678  0.8807  2.6198 -2.7397
  148MOL0     H19536   0.990   8.712  10.902 -0.6899 -1.2834  0.3746
  149MOL0     O19537   8.788   2.618  10.356  0.3840  0.3015 -0.2918
  149MOL0     C19538   8.860   2.522  10.333 -0.7319  0.9622  0.8411
  149MOL0     O19539   8.859   2.449  10.221  0.3463  0.1144  0.0296
  149MOL0     C19540   8.774   2.475  10.112 -0.5826 -0.7948 -0.2832
  149MOL0     C19541   8.639   2.499  10.127 -0.1386 -0.7156 -0.3973
  149MOL0     C19542   8.554   2.513  10.015 -0.2807  0.4846  0.4743
  149MOL0     C19543   8.609   2.527   9.890  0.1128  1.0534 -0.0362
  149MOL0     O19544   8.525   2.545   9.778 -0.0394  1.1218  0.5129
  149MOL0     C19545   8.578   2.569   9.651  0.0900  0.5071 -0.3886
  149MOL0     C19546   8.448   2.579   9.563 -0.0836  0.0578  0.7416
  149MOL0     C19547   8.485   2.586   9.413 -0.5150 -0.4525 -0.6968
  149MOL0     C19548   8.350   2.566   9.339 -0.2779 -0.4034 -0.1847
  149MOL0     C19549   8.360   2.543   9.187 -0.4129 -1.1430 -0.1620
  149MOL0     C19550   8.221   2.501   9.138  0.1167 -0.4226 -0.2630
  149MOL0     C19551   8.217   2.474   8.986  0.1793 -0.1284  0.2662
  149MOL0     C19552   8.073   2.423   8.955 -0.5252  0.2979 -0.6984
  149MOL0     N19553   7.965   2.520   8.970 -0.6636 -0.0943  0.6449
  149MOL0     C19554   7.964   2.635   8.898 -0.3755 -0.1922 -0.2688
  149MOL0     C19555   7.862   2.703   8.948  0.6077 -0.1474 -1.0044
  149MOL0     C19556   7.815   2.834   8.887  0.6465  0.3496 -0.3212
  149MOL0     C19557   7.712   2.828   8.778  0.4602  0.9333 -0.7242
  149MOL0     C19558   7.673   2.971   8.744  0.6000 -0.4976  0.0347
  149MOL0     C19559   7.530   2.986   8.684 -0.5180  0.4605 -0.0137
  149MOL0     O19560   7.530   2.987   8.539  0.3699  0.0621  0.2336
  149MOL0     C19561   7.410   2.988   8.468  0.4281  0.7806 -0.5460
  149MOL0     C19562   7.416   3.011   8.330  0.4426 -0.2174 -0.4774
  149MOL0     C19563   7.293   3.036   8.257  0.1642  0.3642 -0.0819
  149MOL0     C19564   7.163   3.029   8.310 -0.0679  0.6000  0.4324
  149MOL0     C19565   7.044   3.034   8.233  0.1334  0.1045 -0.5743
  149MOL0     O19566   6.919   3.033   8.300 -0.9354 -0.1080 -0.3155
  149MOL0     C19567   6.818   3.014   8.217  0.5652 -0.2422  0.2882
  149MOL0     C19568   6.786   2.879   8.169 -0.1219 -0.7219  0.4317
  149MOL0     C19569   6.678   2.867   8.086  0.5598  1.0395 -0.2749
  149MOL0     C19570   6.596   2.971   8.035 -0.4926 -0.6686 -0.3266
  149MOL0     O19571   6.496   2.954   7.933  0.2250  0.6357 -0.2507
  149MOL0     C19572   6.442   2.823   7.922  0.1438 -0.5530  0.5556
  149MOL0     C19573   6.356   2.821   7.805  0.3535 -0.2968  0.0606
  149MOL0     C19574   6.311   2.676   7.781 -1.3115  0.0822 -0.1792
  149MOL0     C19575   6.193   2.677   7.685 -0.4019 -0.0231 -0.7459
  149MOL0     C19576   6.142   2.538   7.653  0.3720 -0.2793 -0.0280
  149MOL0     C19577   6.067   2.546   7.525  0.5851  0.3683 -0.9801
  149MOL0     C19578   6.014   2.413   7.499  0.2257 -0.0031  0.1420
  149MOL0     C19579   5.920   2.405   7.383 -0.4780  0.7638 -0.6469
  149MOL0    Cl19580   5.771   2.511   7.387 -0.2479 -0.2679 -0.4531
  149MOL0     C19581   6.631   3.099   8.087  0.1437 -0.0789 -0.4329
  149MOL0     C19582   6.732   3.116   8.177 -0.0279 -0.0016  0.0794
  149MOL0     O19583   7.062   3.044   8.110  0.3634 -0.3794 -0.0797
  149MOL0     C19584   7.158   2.996   8.446  0.5678 -0.6168 -0.0665
  149MOL0     C19585   7.274   2.981   8.519  0.0980  0.2941 -0.0456
  149MOL0     N19586   7.808   2.633   9.056 -0.3738  0.0398 -0.0403
  149MOL0     N19587   7.864   2.510   9.059 -0.2517 -1.1179 -0.6967
  149MOL0     C19588   8.752   2.511   9.876 -0.2264  0.2806 -0.5480
  149MOL0     C19589   8.832   2.489   9.988 -0.4956  0.6793 -1.1913
  149MOL0     C19590   8.962   2.503  10.438  0.7667  0.3877  0.0583
  149MOL0     C19591   9.074   2.426  10.408  0.0854  1.2469  0.2195
  149MOL0     C19592   9.168   2.406  10.509  0.9648  0.4551 -0.6899
  149MOL0     C19593   9.160   2.459  10.635  0.6931 -0.1894  0.1391
  149MOL0     O19594   9.261   2.446  10.718  0.1697  0.6414 -0.6176
  149MOL0     C19595   9.256   2.479  10.860 -0.1495 -0.3898  0.2985
  149MOL0     C19596   9.392   2.437  10.925  0.3262 -0.5515 -0.1938
  149MOL0     C19597   9.510   2.516  10.878 -0.8587 -0.1501 -0.8305
  149MOL0     C19598   9.635   2.483  10.948 -0.1085  0.3291 -0.1463
  149MOL0     C19599   9.748   2.536  10.877  0.4125 -0.3020  0.3349
  149MOL0     C19600   9.837   2.585  10.806 -0.0313  0.1506  0.0150
  149MOL0     C19601   9.045   2.537  10.669 -1.1742  0.4821  0.0718
  149MOL0     C19602   8.946   2.557  10.569 -0.6385 -0.3411  0.1605
  149MOL0     H19603   8.602   2.502  10.229 -0.2561 -0.1823 -0.4511
  149MOL0     H19604   8.446   2.519  10.029 -0.5062  0.5071 -1.1372
  149MOL0     H19605   8.640   2.487   9.613 -2.5931 -0.7009 -2.5332
  149MOL0     H19606   8.633   2.664   9.649 -3.2120  2.5804 -0.1179
  149MOL0     H19607   8.405   2.677   9.587  0.6176  0.5664 -0.0309
  149MOL0     H19608   8.381   2.493   9.578  1.6230 -1.7849 -1.5453
  149MOL0     H19609   8.555   2.507   9.385  1.3314  0.7698  0.2110
  149MOL0     H19610   8.531   2.680   9.381 -0.7133  0.5272  1.6800
  149MOL0     H19611   8.299   2.478   9.378  1.2703 -0.5404  1.7253
  149MOL0     H19612   8.286   2.651   9.365  2.9798  1.6102  2.0108
  149MOL0     H19613   8.426   2.459   9.163 -1.6815 -2.8214  1.7948
  149MOL0     H19614   8.388   2.632   9.131  1.1453 -1.4881  0.0195
  149MOL0     H19615   8.150   2.581   9.162  1.1917 -0.0568  2.0218
  149MOL0     H19616   8.194   2.406   9.186  0.3005  0.4414  1.6523
  149MOL0     H19617   8.244   2.563   8.929  2.2235 -0.0185  1.3439
  149MOL0     H19618   8.298   2.408   8.954 -0.0390  1.2511 -3.6230
  149MOL0     H19619   8.051   2.324   8.998 -1.3692  0.7422 -0.0987
  149MOL0     H19620   8.065   2.405   8.848 -1.0581  0.4761 -0.6895
  149MOL0     H19621   8.016   2.660   8.805 -0.0244 -0.6442 -0.1989
  149MOL0     H19622   7.908   2.873   8.844  2.3771 -1.2243  1.7477
  149MOL0     H19623   7.786   2.900   8.969 -1.2989 -1.2413  0.3526
  149MOL0     H19624   7.628   2.780   8.830  1.5893  1.2343  1.4876
  149MOL0     H19625   7.739   2.768   8.690 -2.3395  0.9913 -1.7346
  149MOL0     H19626   7.657   3.038   8.829  0.5530  2.1328 -1.9401
  149MOL0     H19627   7.747   3.023   8.682  0.6822 -0.9071 -0.2116
  149MOL0     H19628   7.480   3.075   8.724  1.3951  1.0065  1.2385
  149MOL0     H19629   7.469   2.900   8.715  1.2170 -0.4772  0.8935
  149MOL0     H19630   7.516   3.024   8.291  1.9934  1.7450  3.5569
  149MOL0     H19631   7.309   3.058   8.152  0.3667 -2.1288 -0.6392
  149MOL0     H19632   6.847   2.795   8.201  2.2879  0.0906 -1.6488
  149MOL0     H19633   6.645   2.766   8.066 -0.7655  0.9300  2.1664
  149MOL0     H19634   6.385   2.792   8.010 -2.2990 -0.0715 -0.7856
  149MOL0     H19635   6.523   2.751   7.906  1.0047  0.7115 -0.9572
  149MOL0     H19636   6.409   2.848   7.714  2.4271 -0.1536  1.2481
  149MOL0     H19637   6.268   2.885   7.819 -2.6226 -3.3506 -2.6405
  149MOL0     H19638   6.286   2.620   7.872 -1.0971  0.4226  0.0907
  149MOL0     H19639   6.395   2.627   7.732 -3.5555 -3.2778 -1.0473
  149MOL0     H19640   6.119   2.749   7.722 -1.7994 -0.9602 -1.6243
  149MOL0     H19641   6.230   2.717   7.590  0.4872 -0.2041 -0.4881
  149MOL0     H19642   6.074   2.507   7.733  1.1011  4.2429  2.6772
  149MOL0     H19643   6.221   2.465   7.634 -0.4772 -1.3488  0.4561
  149MOL0     H19644   6.133   2.577   7.443  1.9452  3.1619  0.9767
  149MOL0     H19645   5.990   2.623   7.525  0.2266  0.4498  4.9514
  149MOL0     H19646   6.096   2.344   7.478  0.5123  0.5401 -0.5383
  149MOL0     H19647   5.961   2.371   7.586  0.4983  0.3312  0.4721
  149MOL0     H19648   5.888   2.301   7.390  0.4096  0.3703 -2.0907
  149MOL0     H19649   5.974   2.431   7.291 -2.0656 -2.1125 -2.5291
  149MOL0     H19650   6.565   3.180   8.056  1.3572  0.5166 -1.5765
  149MOL0     H19651   6.757   3.217   8.209 -0.3936 -0.0236  0.4321
  149MOL0     H19652   7.065   2.968   8.493  0.4229 -1.3541 -0.7657
  149MOL0     H19653   7.272   2.957   8.625  1.0549  2.4835  0.5162
  149MOL0     H19654   8.802   2.498   9.780  3.0415 -1.7119  1.2519
  149MOL0     H19655   8.939   2.471   9.996 -0.8237 -0.5443  1.4583
  149MOL0     H19656   9.091   2.369  10.317 -1.9669 -1.4008  1.3478
  149MOL0     H19657   9.256   2.343  10.499 -0.5292 -1.6135 -1.7066
  149MOL0     H19658   9.166   2.439  10.910 -0.1284  1.1246  1.6259
  149MOL0     H19659   9.242   2.587  10.852  3.0814  0.0558 -0.3767
  149MOL0     H19660   9.375   2.461  11.031 -1.6626  5.5146 -1.4327
  149MOL0     H19661   9.406   2.330  10.909  1.5937 -0.2536 -1.1266
  149MOL0     H19662   9.483   2.622  10.883 -1.7548 -0.1600 -3.6720
  149MOL0     H19663   9.522   2.494  10.771 -2.0843 -0.5109 -0.9148
  149MOL0     H19664   9.645   2.517  11.051  0.5691  0.3263 -0.2059
  149MOL0     H19665   9.643   2.374  10.944 -2.0017  0.2047 -1.7829
  149MOL0     H19666   9.913   2.619  10.739  0.8622 -1.3607  0.2188
  149MOL0     H19667   9.027   2.580  10.767  1.5054  1.1375  0.3476
  149MOL0     H19668   8.853   2.612  10.578 -1.6446 -1.5689 -1.9366
  150MOL0     O19669   0.117   9.845   9.246 -0.2584  0.4533  0.0253
  150MOL0     C19670   0.153   9.961   9.212  0.0439 -1.2184  0.2969
  150MOL0     O19671   0.091  10.084   9.240  0.1491  0.0206  0.4308
  150MOL0     C19672  -0.040  10.076   9.278  0.7532  0.3124  0.5660
  150MOL0     C19673  -0.139  10.030   9.194  0.2007  0.2532  0.5356
  150MOL0     C19674  -0.275  10.048   9.218  1.3455 -1.0630  0.1656
  150MOL0     C19675  -0.315  10.120   9.335  1.0512  0.1493  0.4544
  150MOL0     O19676  -0.442  10.136   9.373 -0.4702  0.8906 -0.1052
  150MOL0     C19677  -0.548  10.078   9.298 -0.2025  0.0047 -0.0962
  150MOL0     C19678  -0.687  10.104   9.354  0.2056 -0.3389  0.7376
  150MOL0     C19679  -0.702  10.070   9.503  1.3256  0.2946 -0.3595
  150MOL0     C19680  -0.657   9.936   9.559 -0.1290 -0.2034  0.7783
  150MOL0     C19681  -0.708   9.919   9.706 -0.4077  1.0966  0.0491
  150MOL0     C19682  -0.630   9.804   9.770 -0.3343 -0.2157 -0.3374
  150MOL0     C19683  -0.736   9.732   9.851  0.4495 -0.0209 -0.3279
  150MOL0     C19684  -0.682   9.633   9.956 -0.0657 -0.5444  0.0638
  150MOL0     N19685  -0.616   9.506   9.908  0.5157  0.3271 -0.0659
  150MOL0     C19686  -0.484   9.516   9.865 -0.5543  0.6857 -0.3365
  150MOL0     C19687  -0.461   9.395   9.817  0.1516  0.7029 -0.4223
  150MOL0     C19688  -0.338   9.344   9.756  0.2107 -0.2033  0.0748
  150MOL0     C19689  -0.235   9.289   9.854  0.0473  0.0369 -0.1798
  150MOL0     C19690  -0.088   9.305   9.804 -0.3958 -0.4941 -0.0423
  150MOL0     C19691  -0.048   9.236   9.673 -0.3591  0.8733 -0.8790
  150MOL0     O19692  -0.080   9.098   9.680 -0.1913  0.1714  0.3076
  150MOL0     C19693  -0.108   9.041   9.559 -0.4378 -0.7948  0.4947
  150MOL0     C19694  -0.032   9.054   9.441  0.1981 -0.3599 -0.0872
  150MOL0     C19695  -0.078   9.001   9.320  0.7828  0.6142  0.3477
  150MOL0     C19696  -0.205   8.934   9.314  0.7427 -0.4850 -0.4519
  150MOL0     C19697  -0.263   8.890   9.184 -0.5294 -0.1975  0.4484
  150MOL0     O19698  -0.210   8.950   9.072 -0.1131  0.4032  0.9768
  150MOL0     C19699  -0.277   8.930   8.950 -0.6541 -0.7384  0.1075
  150MOL0     C19700  -0.336   8.814   8.908 -0.0134  0.4352 -0.1113
  150MOL0     C19701  -0.406   8.809   8.784  0.0925  0.1775 -0.2850
  150MOL0     C19702  -0.399   8.921   8.695  0.3217 -0.0952 -0.4290
  150MOL0     O19703  -0.457   8.925   8.573  0.0601 -0.5292  0.3837
  150MOL0     C19704  -0.462   8.807   8.492 -0.0470 -0.0412 -0.1424
  150MOL0     C19705  -0.522   8.838   8.353  0.9291  0.1999 -0.7701
  150MOL0     C19706  -0.656   8.905   8.385 -0.5101  0.4450  0.2028
  150MOL0     C19707  -0.710   8.943   8.250  0.1508 -0.8678 -0.8140
  150MOL0     C19708  -0.860   8.970   8.257  0.4390  0.0101 -0.5081
  150MOL0     C19709  -0.931   9.012   8.123 -0.8213 -0.4295 -0.3721
  150MOL0     C19710  -0.891   9.153   8.079  0.5385  0.1417  0.9497
  150MOL0     C19711  -1.002   9.213   7.987 -0.4738  0.2690  0.1382
  150MOL0    Cl19712  -0.922   9.361   7.928  0.2179  0.6393  0.0187
  150MOL0     C19713  -0.328   9.031   8.744  0.0059  0.1822 -0.0937
  150MOL0     C19714  -0.275   9.034   8.868 -0.5830 -0.3913 -0.5843
  150MOL0     O19715  -0.343   8.802   9.188 -0.1964 -0.0970 -0.7077
  150MOL0     C19716  -0.282   8.925   9.436  0.6528 -0.1468  0.1040
  150MOL0     C19717  -0.232   8.977   9.555 -0.9600  0.0676  0.4389
  150MOL0     N19718  -0.574   9.314   9.827 -0.5254 -0.2891  0.3728
  150MOL0     N19719  -0.671   9.393   9.859  0.4204 -0.7069 -0.4043
  150MOL0     C19720  -0.213  10.144   9.425 -0.0284  1.0757  0.1724
  150MOL0     C19721  -0.076  10.131   9.395  0.0741 -0.0205  0.0172
  150MOL0     C19722   0.271   9.951   9.142 -0.6880  1.8137  0.5996
  150MOL0     C19723   0.321   9.839   9.079 -0.2702  0.7340 -0.4778
  150MOL0     C19724   0.433   9.843   8.995  0.9500  0.1293 -0.4764
  150MOL0     C19725   0.507   9.957   8.978 -1.5755 -0.7494  0.3323
  150MOL0     O19726   0.628   9.966   8.912 -0.3750  0.0618  0.4690
  150MOL0     C19727   0.682   9.859   8.832 -0.1034 -0.7120 -0.9961
  150MOL0     C19728   0.838   9.871   8.836  0.6234  0.0777  0.0447
  150MOL0     C19729   0.868   9.784   8.709  0.1000 -0.7482  0.5689
  150MOL0     C19730   1.018   9.765   8.707 -0.1126 -0.6940 -0.0022
  150MOL0     C19731   1.053   9.674   8.594 -0.5443 -0.7584  0.0989
  150MOL0     C19732   1.091   9.608   8.497 -0.2562 -0.0135  0.0465
  150MOL0     C19733   0.468  10.068   9.050  0.0183 -0.4157 -0.0336
  150MOL0     C19734   0.355  10.062   9.135 -1.2787 -0.3303  0.3813
  150MOL0     H19735  -0.095   9.991   9.103  1.4077 -2.6447  2.2330
  150MOL0     H19736  -0.343  10.016   9.139 -1.2531  0.5057  1.6028
  150MOL0     H19737  -0.543   9.968   9.299 -3.3305 -0.2040  0.0028
  150MOL0     H19738  -0.559  10.126   9.200 -2.9089  0.0787  0.1942
  150MOL0     H19739  -0.757  10.038   9.301  2.8747 -2.2100 -0.6564
  150MOL0     H19740  -0.716  10.209   9.351 -1.5608 -0.8061  0.1717
  150MOL0     H19741  -0.810  10.063   9.517  1.2083 -0.2094 -1.3902
  150MOL0     H19742  -0.666  10.151   9.568 -5.1233  1.7701  2.1152
  150MOL0     H19743  -0.701   9.852   9.505 -0.4281  1.1846 -1.2509
  150MOL0     H19744  -0.548   9.939   9.546 -0.2860 -1.4770 -1.1208
  150MOL0     H19745  -0.816   9.907   9.715 -0.4884  2.9638  2.6448
  150MOL0     H19746  -0.668  10.004   9.764  1.8300  0.3054 -0.2372
  150MOL0     H19747  -0.543   9.834   9.829  0.1852  0.5408 -1.4494
  150MOL0     H19748  -0.586   9.741   9.693  0.0117  2.6298 -2.6690
  150MOL0     H19749  -0.793   9.806   9.907  1.9611 -1.1667  2.9248
  150MOL0     H19750  -0.803   9.687   9.777  0.8705  1.7183 -1.8495
  150MOL0     H19751  -0.770   9.590  10.005 -0.0550 -1.1080 -0.3869
  150MOL0     H19752  -0.621   9.691  10.025  2.3217 -1.8756 -0.8161
  150MOL0     H19753  -0.412   9.597   9.871 -0.6931  0.7231  2.2514
  150MOL0     H19754  -0.285   9.427   9.707  1.5856 -2.0437 -1.7277
  150MOL0     H19755  -0.354   9.277   9.671  1.4582  0.6467 -0.8808
  150MOL0     H19756  -0.251   9.181   9.844  2.4951 -0.3699 -0.3804
  150MOL0     H19757  -0.267   9.327   9.951 -0.1746  2.5359 -1.1414
  150MOL0     H19758  -0.060   9.409   9.819  2.6995 -1.3932  1.3445
  150MOL0     H19759  -0.023   9.270   9.885  0.5698 -1.0285 -1.0305
  150MOL0     H19760   0.057   9.249   9.646  0.0742  0.0298  0.2760
  150MOL0     H19761  -0.111   9.277   9.594 -0.0230  2.8050 -0.2132
  150MOL0     H19762   0.065   9.102   9.443  0.9359 -1.0284 -5.2868
  150MOL0     H19763  -0.020   9.004   9.229 -1.7511  1.3164 -1.3579
  150MOL0     H19764  -0.317   8.723   8.964 -0.4754 -0.0861 -0.7952
  150MOL0     H19765  -0.455   8.721   8.743 -0.6273  0.4962 -0.1216
  150MOL0     H19766  -0.525   8.731   8.538 -1.8602  0.0606 -2.2264
  150MOL0     H19767  -0.360   8.777   8.467 -0.8388 -0.8697 -2.7249
  150MOL0     H19768  -0.530   8.745   8.296  0.1244 -0.9782  1.1737
  150MOL0     H19769  -0.453   8.910   8.309 -0.8481  3.9404  1.9401
  150MOL0     H19770  -0.660   8.997   8.444 -1.4960  1.0042 -0.6991
  150MOL0     H19771  -0.724   8.835   8.435 -2.3876  1.0801 -1.3130
  150MOL0     H19772  -0.665   9.040   8.227 -0.7523 -0.0823  0.5770
  150MOL0     H19773  -0.673   8.871   8.177  0.9736 -0.4490 -0.8245
  150MOL0     H19774  -0.877   9.048   8.332  2.7109  0.5506 -0.4630
  150MOL0     H19775  -0.901   8.878   8.298  0.2971 -0.7407 -2.2340
  150MOL0     H19776  -1.037   9.013   8.146 -0.4909  2.9362  1.6586
  150MOL0     H19777  -0.916   8.930   8.051  0.0257 -0.6658  0.0505
  150MOL0     H19778  -0.881   9.216   8.168 -1.2539 -0.1308  1.3849
  150MOL0     H19779  -0.801   9.151   8.017  1.3322 -1.7145  2.0793
  150MOL0     H19780  -1.099   9.226   8.036  0.0730 -1.3263  1.7598
  150MOL0     H19781  -1.013   9.150   7.898 -2.0251  0.5761  0.0742
  150MOL0     H19782  -0.320   9.117   8.679 -0.7598  0.7888  0.5918
  150MOL0     H19783  -0.223   9.122   8.906 -0.8797  1.1912 -3.4786
  150MOL0     H19784  -0.373   8.865   9.428  0.9767 -0.3720 -3.8590
  150MOL0     H19785  -0.290   8.981   9.647 -1.2149  0.8849  0.2528
  150MOL0     H19786  -0.243  10.197   9.515 -1.1279  1.0812 -0.1821
  150MOL0     H19787  -0.008  10.183   9.462  0.5955  1.2727 -1.4598
  150MOL0     H19788   0.272   9.742   9.080 -0.0318  0.6160 -0.0910
  150MOL0     H19789   0.433   9.758   8.927 -0.5542 -1.4874  1.4217
  150MOL0     H19790   0.642   9.867   8.731 -1.5576 -1.2485 -0.4896
  150MOL0     H19791   0.654   9.760   8.870  0.3064 -1.1696 -1.8387
  150MOL0     H19792   0.865   9.975   8.818 -0.1976  0.1810 -0.6608
  150MOL0     H19793   0.890   9.828   8.922  0.4416 -0.8444 -0.2904
  150MOL0     H19794   0.828   9.829   8.618  1.7989  0.9569  0.5982
  150MOL0     H19795   0.817   9.688   8.716 -0.3495 -0.4540  1.5346
  150MOL0     H19796   1.063   9.862   8.683 -1.4284  0.3787  1.6820
  150MOL0     H19797   1.044   9.731   8.807  1.2323  3.8673  1.4563
  150MOL0     H19798   1.125   9.553   8.411 -1.2773 -2.1765  0.9505
  150MOL0     H19799   0.519  10.163   9.034  0.5210 -0.3424  1.7860
  150MOL0     H19800   0.319  10.153   9.183 -1.3203  0.2702 -0.7455
  151MOL0     O19801   6.582   7.994  10.168  0.1280 -0.2822  0.0648
  151MOL0     C19802   6.680   7.912  10.181  0.6933  0.1877 -0.9325
  151MOL0     O19803   6.676   7.781  10.211 -0.3908 -0.0092  0.4846
  151MOL0     C19804   6.557   7.728  10.231 -0.2752 -0.7910  0.1475
  151MOL0     C19805   6.446   7.732  10.143 -0.0097 -0.1858  1.4196
  151MOL0     C19806   6.327   7.675  10.185  0.8528  0.2033  0.3226
  151MOL0     C19807   6.302   7.633  10.316 -0.8411 -0.5837  0.6212
  151MOL0     O19808   6.172   7.598  10.340  0.2351  0.3234  0.3592
  151MOL0     C19809   6.127   7.472  10.299 -0.0360 -0.5651  0.5780
  151MOL0     C19810   5.979   7.460  10.341 -1.4860  0.4863  0.3844
  151MOL0     C19811   5.918   7.323  10.290  0.3303 -0.3790  0.2348
  151MOL0     C19812   5.763   7.312  10.268 -0.0859 -0.0092 -0.1700
  151MOL0     C19813   5.692   7.316  10.397 -0.3698  0.0467 -0.0655
  151MOL0     C19814   5.547   7.266  10.378  0.0717  0.4588 -0.4497
  151MOL0     C19815   5.464   7.255  10.508 -0.1763 -1.2154  0.2214
  151MOL0     C19816   5.345   7.168  10.473  1.1004  0.2204 -0.2092
  151MOL0     N19817   5.248   7.165  10.591  0.9913  0.6713 -0.5751
  151MOL0     C19818   5.270   7.189  10.724 -0.4154 -0.3647  0.0949
  151MOL0     C19819   5.149   7.194  10.779 -0.2149  0.2286 -0.0568
  151MOL0     C19820   5.102   7.207  10.919  0.4732  0.0780  0.1101
  151MOL0     C19821   4.949   7.189  10.918 -0.6508 -0.1631  0.1811
  151MOL0     C19822   4.892   7.161  11.057 -0.7404  0.2673 -0.1966
  151MOL0     C19823   4.741   7.131  11.037 -1.1938  0.5314 -0.3370
  151MOL0     O19824   4.685   7.101  11.165 -0.3565 -0.6016 -0.0772
  151MOL0     C19825   4.544   7.101  11.178 -0.2375 -0.1473  0.9786
  151MOL0     C19826   4.450   7.094  11.071  0.3829  0.1467 -0.0197
  151MOL0     C19827   4.312   7.114  11.081  0.3242 -0.2325 -0.2416
  151MOL0     C19828   4.259   7.144  11.207 -0.2748 -0.7982  0.0056
  151MOL0     C19829   4.119   7.196  11.221 -1.1561 -0.3643  0.0235
  151MOL0     O19830   4.027   7.155  11.130 -0.3226 -1.1363 -0.0254
  151MOL0     C19831   3.896   7.196  11.147  0.0373  0.2049  0.7231
  151MOL0     C19832   3.822   7.236  11.030  0.0976 -0.1964 -0.2169
  151MOL0     C19833   3.685   7.284  11.034 -0.3117  0.3098  0.1909
  151MOL0     C19834   3.615   7.278  11.158  0.3894 -0.9183  0.2664
  151MOL0     O19835   3.488   7.299  11.188 -0.1632  0.0434 -0.0814
  151MOL0     C19836   3.397   7.294  11.085  0.1085 -0.1084  0.9650
  151MOL0     C19837   3.254   7.278  11.145 -0.9030 -0.5753 -0.0286
  151MOL0     C19838   3.139   7.318  11.048  0.1838  0.2624 -0.7554
  151MOL0     C19839   3.008   7.281  11.116 -0.0795  0.0027 -0.2474
  151MOL0     C19840   2.892   7.310  11.031 -0.6440 -0.3575  0.5096
  151MOL0     C19841   2.760   7.264  11.093 -0.1516  0.5831 -0.3272
  151MOL0     C19842   2.656   7.298  10.987 -0.5150 -0.0019  0.6567
  151MOL0     C19843   2.516   7.271  11.033  0.0817 -0.1093  0.2099
  151MOL0    Cl19844   2.399   7.319  10.901 -0.5640 -0.3627  0.2699
  151MOL0     C19845   3.694   7.252  11.272 -0.3456  0.5084  0.5552
  151MOL0     C19846   3.824   7.217  11.268  0.0717  0.3662  0.0489
  151MOL0     O19847   4.091   7.276  11.315 -0.5042 -0.1101  0.2633
  151MOL0     C19848   4.350   7.157  11.317 -0.4628  0.2679 -0.3405
  151MOL0     C19849   4.491   7.128  11.304  0.7236  0.0472  0.0756
  151MOL0     N19850   5.054   7.172  10.676  0.4699 -0.6572  0.1838
  151MOL0     N19851   5.119   7.147  10.570  0.1846 -0.1070  0.6291
  151MOL0     C19852   6.408   7.624  10.404 -0.1276  0.1275  0.2958
  151MOL0     C19853   6.532   7.680  10.356  0.0857  0.4624 -0.1304
  151MOL0     C19854   6.808   7.979  10.173 -1.0887 -0.0381  0.1325
  151MOL0     C19855   6.919   7.906  10.220  0.3707 -0.0240 -0.1981
  151MOL0     C19856   7.047   7.970  10.222  0.0960  0.5275 -0.5636
  151MOL0     C19857   7.078   8.086  10.153 -1.0253 -0.1644 -0.1443
  151MOL0     O19858   7.213   8.108  10.129  0.1604  0.5720 -0.0333
  151MOL0     C19859   7.250   8.101   9.990  1.3431 -0.4876 -1.0999
  151MOL0     C19860   7.355   7.994   9.973  0.2559  0.7624  0.3966
  151MOL0     C19861   7.294   7.853  10.009  0.4283 -0.0573  0.7635
  151MOL0     C19862   7.404   7.762  10.052  0.2391  0.4240 -0.2718
  151MOL0     C19863   7.495   7.735   9.946 -0.3305 -0.0716  0.2476
  151MOL0     C19864   7.573   7.713   9.857 -0.4510 -0.3315  0.0590
  151MOL0     C19865   6.974   8.137  10.082  0.4004 -0.1058  0.6486
  151MOL0     C19866   6.843   8.088  10.091 -0.0840 -0.7086  0.2040
  151MOL0     H19867   6.447   7.771  10.042 -2.7948 -1.4269  0.8044
  151MOL0     H19868   6.236   7.690  10.127 -1.3022  1.3397  3.6834
  151MOL0     H19869   6.192   7.403  10.352  1.9994  0.9335  0.1433
  151MOL0     H19870   6.145   7.462  10.192  1.7434  2.1923  0.5372
  151MOL0     H19871   5.927   7.546  10.298  2.2794  2.9451  0.3529
  151MOL0     H19872   5.966   7.457  10.450  2.5647 -2.7193  1.0558
  151MOL0     H19873   5.948   7.250  10.366  0.3905 -1.6875 -1.0063
  151MOL0     H19874   5.960   7.286  10.196 -0.3810  3.0245 -1.5493
  151MOL0     H19875   5.722   7.387  10.200 -2.0619 -0.7443  0.1555
  151MOL0     H19876   5.739   7.225  10.207 -0.8479  0.8343 -1.0908
  151MOL0     H19877   5.693   7.423  10.418 -1.4241  0.5130 -2.1049
  151MOL0     H19878   5.754   7.260  10.468  0.4322  0.2655 -0.5800
  151MOL0     H19879   5.565   7.166  10.339 -2.8408 -1.5345  2.7568
  151MOL0     H19880   5.494   7.334  10.311 -0.9865  0.6641  0.5491
  151MOL0     H19881   5.525   7.219  10.592  0.7119  1.5047  0.8254
  151MOL0     H19882   5.440   7.361  10.519 -0.3208 -1.0117 -1.7415
  151MOL0     H19883   5.367   7.063  10.450 -3.3656 -0.2701 -3.6599
  151MOL0     H19884   5.296   7.225  10.394 -1.4001  2.3588  2.6166
  151MOL0     H19885   5.370   7.209  10.761 -0.0699  0.1202 -1.0704
  151MOL0     H19886   5.129   7.303  10.965  1.5169  0.1622 -0.6507
  151MOL0     H19887   5.148   7.133  10.985  0.5211  0.4531  0.4997
  151MOL0     H19888   4.915   7.102  10.860 -0.9936  1.4004 -2.0818
  151MOL0     H19889   4.901   7.279  10.879  1.1636  0.4719 -0.6506
  151MOL0     H19890   4.947   7.074  11.094 -3.8469 -2.0690 -0.5767
  151MOL0     H19891   4.903   7.245  11.126 -3.7818  0.6273  0.0015
  151MOL0     H19892   4.719   7.055  10.961 -0.2927 -0.0386 -0.0482
  151MOL0     H19893   4.693   7.223  11.003 -3.5614  0.5604  2.6953
  151MOL0     H19894   4.483   7.075  10.969 -1.6373 -1.8882 -0.3831
  151MOL0     H19895   4.239   7.105  11.001 -0.1080 -2.4970  0.3234
  151MOL0     H19896   3.880   7.234  10.938  0.6366  0.5213  0.0874
  151MOL0     H19897   3.636   7.326  10.947  1.4758 -0.4455 -1.2450
  151MOL0     H19898   3.413   7.206  11.021 -1.3558 -1.6786  2.6153
  151MOL0     H19899   3.408   7.389  11.033 -1.6608 -1.1824 -1.6462
  151MOL0     H19900   3.250   7.346  11.232  2.8782 -2.7676  2.1134
  151MOL0     H19901   3.247   7.174  11.178 -1.9669 -0.5465 -0.1329
  151MOL0     H19902   3.152   7.270  10.951 -3.9158  0.3843 -1.5640
  151MOL0     H19903   3.136   7.427  11.035 -0.0631  0.3701  0.1356
  151MOL0     H19904   3.010   7.176  11.150 -0.4267  0.4460  1.2177
  151MOL0     H19905   2.996   7.344  11.204 -1.4954 -0.8551  0.2077
  151MOL0     H19906   2.900   7.262  10.933 -0.3091  2.0949 -0.7487
  151MOL0     H19907   2.901   7.418  11.017 -0.9250 -0.3716  0.2138
  151MOL0     H19908   2.747   7.317  11.189 -2.5466  0.8868 -0.7588
  151MOL0     H19909   2.765   7.159  11.123 -0.5555  0.3344 -1.1162
  151MOL0     H19910   2.650   7.404  10.962 -1.0070  0.0181  0.8545
  151MOL0     H19911   2.676   7.240  10.896  0.0520  0.4898  0.4588
  151MOL0     H19912   2.481   7.327  11.120  2.3681 -0.3427  1.3397
  151MOL0     H19913   2.487   7.166  11.046 -4.0283  0.9367  0.9073
  151MOL0     H19914   3.652   7.263  11.372  0.3756 -2.9327  1.3487
  151MOL0     H19915   3.877   7.202  11.361 -0.6274  0.5324  0.4806
  151MOL0     H19916   4.315   7.175  11.418 -0.8425 -3.2654  0.2990
  151MOL0     H19917   4.549   7.132  11.396  0.6249  0.0959  0.1355
  151MOL0     H19918   6.391   7.566  10.493  1.8966 -0.4386  0.3704
  151MOL0     H19919   6.619   7.666  10.420 -1.7189 -2.4864  1.9362
  151MOL0     H19920   6.903   7.811  10.269  0.2492 -0.6956 -1.4814
  151MOL0     H19921   7.136   7.935  10.274  0.0398 -0.5109 -1.1396
  151MOL0     H19922   7.292   8.200   9.972  1.5130 -0.3218  0.0843
  151MOL0     H19923   7.169   8.093   9.917  1.4736  1.0272 -1.4422
  151MOL0     H19924   7.392   7.996   9.870  3.1105  0.4715  1.3374
  151MOL0     H19925   7.440   8.013  10.039 -0.5294  2.2574  1.0087
  151MOL0     H19926   7.244   7.814   9.920  2.1970  0.5200 -0.5341
  151MOL0     H19927   7.224   7.851  10.094  0.9640 -2.6897  1.2445
  151MOL0     H19928   7.463   7.803  10.135 -1.6960  0.5987  1.0855
  151MOL0     H19929   7.357   7.667  10.078 -0.1500  0.3962 -1.0467
  151MOL0     H19930   7.645   7.698   9.779 -1.1034 -3.0805 -0.1067
  151MOL0     H19931   6.993   8.229  10.027  3.3439 -0.5045  0.8417
  151MOL0     H19932   6.762   8.140  10.041  1.1738  2.3066  1.0579
  152MOL0     O19933   8.406   1.308   3.303 -0.8722  0.5280  0.8884
  152MOL0     C19934   8.453   1.213   3.236 -0.1155  0.4171 -0.4565
  152MOL0     O19935   8.375   1.106   3.185  0.1579  0.0616  0.6796
  152MOL0     C19936   8.233   1.107   3.186 -0.4447  0.2041 -0.5178
  152MOL0     C19937   8.179   1.014   3.096 -0.4077  0.3247 -0.6475
  152MOL0     C19938   8.038   1.016   3.077 -0.0410  0.2937 -0.6759
  152MOL0     C19939   7.955   1.093   3.157 -0.2860  0.6338 -0.2308
  152MOL0     O19940   7.823   1.063   3.142  0.8298  0.4101 -0.6907
  152MOL0     C19941   7.729   1.161   3.176  0.8492  0.3248  0.7904
  152MOL0     C19942   7.590   1.106   3.158 -0.5957 -0.5184 -0.5134
  152MOL0     C19943   7.485   1.217   3.139 -0.5559  0.3835  0.9460
  152MOL0     C19944   7.344   1.158   3.145 -0.4244  0.0420  0.3522
  152MOL0     C19945   7.240   1.273   3.118 -0.1180  0.0309 -0.3838
  152MOL0     C19946   7.113   1.232   3.190  0.4421  0.2217 -0.9077
  152MOL0     C19947   7.006   1.342   3.182 -0.4112 -0.6679 -0.6356
  152MOL0     C19948   6.868   1.298   3.229 -0.3573  0.1771  0.6504
  152MOL0     N19949   6.767   1.400   3.182 -0.2368 -0.2896  0.0680
  152MOL0     C19950   6.670   1.393   3.090 -0.0468  0.0307  0.7678
  152MOL0     C19951   6.617   1.516   3.071 -0.3011  0.3661 -0.5132
  152MOL0     C19952   6.513   1.572   2.992  0.3376  0.7225  0.1577
  152MOL0     C19953   6.381   1.543   3.070  0.8117  0.1567 -0.0733
  152MOL0     C19954   6.329   1.680   3.134 -0.8423  0.3183  0.1728
  152MOL0     C19955   6.225   1.656   3.231 -0.0713 -0.5812 -0.0175
  152MOL0     O19956   6.286   1.612   3.355  0.0086 -0.1755  0.1436
  152MOL0     C19957   6.197   1.617   3.458  0.1751  0.1614  0.3687
  152MOL0     C19958   6.047   1.621   3.445  0.1012 -0.3593  0.0110
  152MOL0     C19959   5.967   1.644   3.554 -0.5463  0.7634  0.5240
  152MOL0     C19960   6.027   1.646   3.688  0.1574  0.0606 -0.6696
  152MOL0     C19961   5.936   1.673   3.803 -1.0046 -0.3081 -0.0612
  152MOL0     O19962   5.992   1.710   3.921 -0.5369  0.0710  0.2835
  152MOL0     C19963   5.918   1.781   4.012 -0.5393 -0.7336  0.4904
  152MOL0     C19964   5.812   1.716   4.072  0.2435 -0.1839 -0.2546
  152MOL0     C19965   5.751   1.778   4.178 -0.5905 -0.4469  0.3251
  152MOL0     C19966   5.781   1.913   4.207  0.3076  0.1559 -0.3933
  152MOL0     O19967   5.714   1.977   4.318 -0.6197  0.2363  0.0418
  152MOL0     C19968   5.713   2.115   4.349 -0.6182 -0.2844 -0.1446
  152MOL0     C19969   5.629   2.147   4.474 -0.4091  0.0474  0.4383
  152MOL0     C19970   5.486   2.158   4.429  0.2725  0.4780 -0.9790
  152MOL0     C19971   5.398   2.188   4.555  0.3800 -0.1756 -0.4233
  152MOL0     C19972   5.326   2.316   4.512  0.0988 -0.6704 -1.6025
  152MOL0     C19973   5.212   2.345   4.602 -0.4775  0.0681  0.7289
  152MOL0     C19974   5.263   2.385   4.738  0.5739 -0.3644 -0.2605
  152MOL0     C19975   5.151   2.458   4.816  0.1063 -0.2464  0.0332
  152MOL0    Cl19976   5.006   2.346   4.818  0.0520 -0.4106 -0.0651
  152MOL0     C19977   5.885   1.985   4.140  0.7301  0.1656 -0.9697
  152MOL0     C19978   5.959   1.913   4.052 -0.1448  1.1335  0.1942
  152MOL0     O19979   5.816   1.657   3.789  0.0999  0.0906 -0.5639
  152MOL0     C19980   6.173   1.647   3.698 -0.0412  0.8731  0.7892
  152MOL0     C19981   6.252   1.616   3.587 -0.4048 -0.0478 -0.1632
  152MOL0     N19982   6.674   1.592   3.170 -0.3089  0.1705 -0.4213
  152MOL0     N19983   6.749   1.521   3.242 -0.5786  0.0093  0.0584
  152MOL0     C19984   8.009   1.183   3.251  0.6868 -0.1098 -0.2051
  152MOL0     C19985   8.151   1.197   3.256 -0.5022  1.1460 -1.2131
  152MOL0     C19986   8.593   1.209   3.218 -0.1407  0.2199  1.4952
  152MOL0     C19987   8.668   1.334   3.206  0.5596  0.4650 -0.8526
  152MOL0     C19988   8.806   1.347   3.168  0.2921  0.8965 -0.4209
  152MOL0     C19989   8.862   1.220   3.158  0.5664  0.1063  0.0788
  152MOL0     O19990   8.995   1.208   3.133  0.9933  0.7660  0.7926
  152MOL0     C19991   9.080   1.314   3.101 -0.5491  0.1179  0.3816
  152MOL0     C19992   9.223   1.249   3.089  0.1891 -0.1856 -0.6756
  152MOL0     C19993   9.328   1.361   3.117 -0.1220  0.4151 -0.5872
  152MOL0     C19994   9.470   1.319   3.100  0.2490 -0.3789 -0.0016
  152MOL0     C19995   9.564   1.439   3.119  0.7719 -0.1820  0.1119
  152MOL0     C19996   9.634   1.525   3.158  0.3740 -0.9603  0.7947
  152MOL0     C19997   8.793   1.099   3.167 -0.0536 -0.3354  0.1251
  152MOL0     C19998   8.658   1.085   3.193  0.6560 -0.4530 -0.0361
  152MOL0     H19999   8.240   0.939   3.048  1.3512 -0.9207  3.1683
  152MOL0     H20000   7.997   0.937   3.014 -2.4375  1.0357 -0.1447
  152MOL0     H20001   7.741   1.248   3.111 -1.9020  1.7629  2.0306
  152MOL0     H20002   7.750   1.186   3.280  3.0475  0.0580  0.4680
  152MOL0     H20003   7.556   1.058   3.250 -2.5143 -0.2237 -1.0085
  152MOL0     H20004   7.587   1.048   3.065  0.0893 -1.0300 -0.2227
  152MOL0     H20005   7.508   1.264   3.042 -1.1550  1.4541  1.3043
  152MOL0     H20006   7.493   1.297   3.214  0.6254  1.4959 -0.2997
  152MOL0     H20007   7.342   1.075   3.074  1.5107  2.4490 -2.7900
  152MOL0     H20008   7.332   1.132   3.250 -1.0680  3.3798  1.2311
  152MOL0     H20009   7.226   1.285   3.010 -2.4724  0.5170 -0.0769
  152MOL0     H20010   7.282   1.366   3.157  0.6945  0.5197 -2.2972
  152MOL0     H20011   7.142   1.219   3.295  0.0829  1.5809 -0.6176
  152MOL0     H20012   7.071   1.135   3.162  0.0120 -0.5392  1.9850
  152MOL0     H20013   7.031   1.432   3.238  2.2703 -0.4766 -1.9613
  152MOL0     H20014   6.999   1.375   3.078  0.5681  0.7334 -0.2782
  152MOL0     H20015   6.860   1.298   3.338  1.5795 -1.7367  0.8738
  152MOL0     H20016   6.842   1.199   3.189  1.7667  0.3833 -1.3940
  152MOL0     H20017   6.665   1.304   3.028  1.7195  1.3384 -1.3731
  152MOL0     H20018   6.509   1.515   2.899  1.4597  0.3783  0.3049
  152MOL0     H20019   6.521   1.680   2.981  2.1506  1.0466  3.3106
  152MOL0     H20020   6.403   1.470   3.148  1.8045 -0.3961 -0.8419
  152MOL0     H20021   6.304   1.497   3.008  0.9460 -2.4935  1.5564
  152MOL0     H20022   6.416   1.727   3.181 -0.8198 -0.3983  0.8559
  152MOL0     H20023   6.284   1.748   3.061 -0.7050 -2.7829 -3.0328
  152MOL0     H20024   6.147   1.586   3.200  0.5377 -1.1310 -0.3437
  152MOL0     H20025   6.168   1.749   3.232 -0.6831 -0.8366 -2.6431
  152MOL0     H20026   5.999   1.612   3.348  0.4776  0.2077 -0.2354
  152MOL0     H20027   5.862   1.660   3.537 -0.1952  1.6964 -0.8651
  152MOL0     H20028   5.786   1.614   4.046  3.0673 -1.6780  2.1178
  152MOL0     H20029   5.674   1.729   4.238 -0.5629 -0.2237  0.5473
  152MOL0     H20030   5.679   2.173   4.263  1.6447  0.3134 -0.7164
  152MOL0     H20031   5.816   2.148   4.367  0.1007 -0.8252 -2.8080
  152MOL0     H20032   5.653   2.243   4.520 -0.0029 -0.2916  0.9402
  152MOL0     H20033   5.639   2.065   4.546  3.0253 -1.9293 -1.9781
  152MOL0     H20034   5.456   2.065   4.380 -2.5121  0.8262 -0.1278
  152MOL0     H20035   5.473   2.244   4.363 -1.2097  2.3477  1.5230
  152MOL0     H20036   5.313   2.120   4.567 -0.6178  0.7230 -2.0034
  152MOL0     H20037   5.460   2.198   4.645 -0.9594  0.9052  0.4206
  152MOL0     H20038   5.265   2.292   4.425 -1.2342 -1.6582 -0.4427
  152MOL0     H20039   5.396   2.399   4.501  2.2765 -2.1655 -0.0255
  152MOL0     H20040   5.145   2.258   4.607 -0.5308 -0.1078 -1.6725
  152MOL0     H20041   5.163   2.430   4.554  0.2923  0.7948  1.2124
  152MOL0     H20042   5.292   2.299   4.799  4.4597  1.2426  0.4965
  152MOL0     H20043   5.351   2.450   4.732  0.4844 -0.3088 -1.0828
  152MOL0     H20044   5.128   2.560   4.784 -2.3430 -0.4624  0.9098
  152MOL0     H20045   5.181   2.466   4.921  0.9528 -0.2564 -0.1970
  152MOL0     H20046   5.907   2.088   4.162 -1.3790  0.1263  1.8607
  152MOL0     H20047   6.044   1.955   4.000  0.1760  0.2165 -0.0476
  152MOL0     H20048   6.217   1.645   3.797  0.1562 -0.6528  0.6923
  152MOL0     H20049   6.359   1.600   3.596 -0.2071  1.1262 -0.3424
  152MOL0     H20050   7.948   1.244   3.317 -2.8114 -5.2669  1.9964
  152MOL0     H20051   8.183   1.263   3.336 -0.0115 -2.2863  1.6707
  152MOL0     H20052   8.611   1.420   3.240  2.4472  0.1297  3.9033
  152MOL0     H20053   8.855   1.444   3.158 -0.7146  1.6101  1.0727
  152MOL0     H20054   9.074   1.389   3.181 -1.0881 -1.6852  2.1301
  152MOL0     H20055   9.063   1.364   3.005  0.0737  1.8160  1.1121
  152MOL0     H20056   9.229   1.163   3.157 -1.3350 -1.0601 -1.5783
  152MOL0     H20057   9.232   1.213   2.986 -3.2514  1.4513 -1.6976
  152MOL0     H20058   9.307   1.415   3.210  0.1422  2.0754 -1.4484
  152MOL0     H20059   9.326   1.440   3.041  2.4052  1.3711  0.2545
  152MOL0     H20060   9.497   1.247   3.177 -2.1370  1.5791  2.8879
  152MOL0     H20061   9.478   1.291   2.994  0.8411  2.6900 -0.8690
  152MOL0     H20062   9.696   1.611   3.174 -0.9796  0.6229 -1.8172
  152MOL0     H20063   8.857   1.014   3.145  0.0572 -0.3583  0.5185
  152MOL0     H20064   8.608   0.991   3.209 -0.9039  0.1879 -0.8413
  153MOL0     O20065   9.129   8.542   8.350  0.3751 -0.0914 -0.3353
  153MOL0     C20066   9.118   8.425   8.329 -0.3867  0.3616 -1.3763
  153MOL0     O20067   9.005   8.356   8.286  0.5886  0.9105 -0.0778
  153MOL0     C20068   8.890   8.423   8.251 -0.6833  0.1643  0.0721
  153MOL0     C20069   8.817   8.361   8.149  0.1340  0.1404  0.3692
  153MOL0     C20070   8.692   8.412   8.116 -0.0034 -0.2215  0.2090
  153MOL0     C20071   8.637   8.522   8.186  0.6104  0.2405 -0.5580
  153MOL0     O20072   8.513   8.575   8.160 -0.0076  0.6153  0.5134
  153MOL0     C20073   8.410   8.495   8.094 -0.7476  0.5785  0.6654
  153MOL0     C20074   8.276   8.581   8.096  0.6214  1.1715 -0.3449
  153MOL0     C20075   8.188   8.540   7.976  0.0333 -0.7433 -0.0923
  153MOL0     C20076   8.044   8.586   8.020 -0.5752  0.7498 -0.4361
  153MOL0     C20077   7.934   8.579   7.910 -0.2036  0.3044  0.9296
  153MOL0     C20078   7.803   8.631   7.967 -0.2968 -0.4100 -0.1692
  153MOL0     C20079   7.688   8.625   7.869  0.0811  0.4814  1.1077
  153MOL0     C20080   7.643   8.483   7.826 -0.1090 -0.2668 -0.4410
  153MOL0     N20081   7.564   8.400   7.923 -0.8258  0.1936  0.5828
  153MOL0     C20082   7.619   8.324   8.029  0.4904 -1.0947 -0.1423
  153MOL0     C20083   7.517   8.258   8.084  0.3223  0.2367  0.5230
  153MOL0     C20084   7.518   8.149   8.192  0.1790 -0.0389  0.1421
  153MOL0     C20085   7.387   8.177   8.277 -0.1610 -0.3716  0.0694
  153MOL0     C20086   7.425   8.160   8.430  0.7075 -0.0283 -1.0266
  153MOL0     C20087   7.492   8.292   8.492  0.1129  1.3812  0.6638
  153MOL0     O20088   7.501   8.291   8.635 -0.0798 -0.8026 -0.0094
  153MOL0     C20089   7.625   8.321   8.690 -1.4356  0.4926 -0.8448
  153MOL0     C20090   7.741   8.246   8.660 -0.0986 -0.2768  0.3130
  153MOL0     C20091   7.865   8.294   8.709  0.5550  0.0474 -0.5795
  153MOL0     C20092   7.877   8.396   8.805  0.8199  0.1418 -1.0920
  153MOL0     C20093   8.006   8.431   8.868  0.2358 -0.8194 -0.1174
  153MOL0     O20094   8.110   8.347   8.846  0.0715  0.7689 -0.1499
  153MOL0     C20095   8.235   8.396   8.888 -0.3191  1.0168 -0.3105
  153MOL0     C20096   8.296   8.522   8.864 -0.1692  0.4431 -0.2539
  153MOL0     C20097   8.422   8.551   8.920 -1.0338 -0.5627  0.2739
  153MOL0     C20098   8.505   8.458   8.975  0.3450 -0.2941  0.0095
  153MOL0     O20099   8.626   8.501   9.026 -0.1499 -0.2785  0.0679
  153MOL0     C20100   8.714   8.398   9.079  0.5993 -0.3188 -0.4234
  153MOL0     C20101   8.847   8.469   9.115  0.0625  0.0493 -0.7654
  153MOL0     C20102   8.960   8.380   9.139 -0.4017 -0.7281  0.5741
  153MOL0     C20103   9.093   8.473   9.123 -0.0060  0.1661  0.0346
  153MOL0     C20104   9.212   8.390   9.179  0.5432 -0.2894  0.2123
  153MOL0     C20105   9.350   8.455   9.164  0.4663 -0.6485 -1.0743
  153MOL0     C20106   9.395   8.470   9.017  0.5859  0.9233  0.1926
  153MOL0     C20107   9.544   8.522   9.015 -0.9127  0.9825 -0.5274
  153MOL0    Cl20108   9.544   8.696   9.062  0.0774 -0.2324  0.0910
  153MOL0     C20109   8.449   8.322   8.977  0.1346  0.3836 -0.3049
  153MOL0     C20110   8.312   8.294   8.937 -1.0249 -0.1419 -0.0393
  153MOL0     O20111   8.006   8.531   8.943  0.3178  0.4371 -0.1961
  153MOL0     C20112   7.758   8.462   8.840 -0.0952 -0.0783  0.4294
  153MOL0     C20113   7.640   8.424   8.779  0.7358  0.6102  0.4917
  153MOL0     N20114   7.402   8.291   8.011  0.6372 -0.0682  0.6655
  153MOL0     N20115   7.438   8.365   7.909  0.7551  0.7375 -0.4386
  153MOL0     C20116   8.705   8.579   8.285 -0.5610  0.2058  0.7066
  153MOL0     C20117   8.837   8.532   8.320 -0.2358 -0.5074 -0.6996
  153MOL0     C20118   9.237   8.335   8.344 -0.2771 -0.0729 -0.0830
  153MOL0     C20119   9.221   8.199   8.334 -0.9836 -0.1925 -0.7233
  153MOL0     C20120   9.333   8.111   8.352  0.5427  0.0453 -0.5811
  153MOL0     C20121   9.464   8.165   8.365  0.2241 -0.2296 -0.4844
  153MOL0     O20122   9.576   8.079   8.394  0.6000  0.3062 -0.4585
  153MOL0     C20123   9.570   7.934   8.410  0.6105  0.0678  0.2842
  153MOL0     C20124   9.708   7.882   8.434 -0.4891  0.5413  0.4401
  153MOL0     C20125   9.743   7.903   8.586  0.1983 -0.9363  0.7012
  153MOL0     C20126   9.901   7.907   8.596 -0.2792 -0.7436 -0.5463
  153MOL0     C20127   9.946   7.768   8.601 -0.7936 -0.3792 -0.4822
  153MOL0     C20128   9.987   7.657   8.608 -0.6789 -0.2188 -0.2351
  153MOL0     C20129   9.481   8.301   8.387 -1.1344  0.2486  0.6948
  153MOL0     C20130   9.369   8.386   8.373 -0.6689 -0.3082 -0.3836
  153MOL0     H20131   8.869   8.281   8.098  1.5943  0.4275  1.3244
  153MOL0     H20132   8.646   8.352   8.038  1.5559 -2.0165  0.6013
  153MOL0     H20133   8.395   8.403   8.151 -0.8475  1.2901  1.8203
  153MOL0     H20134   8.445   8.480   7.991  0.3522  3.3709  0.5430
  153MOL0     H20135   8.297   8.689   8.090 -2.0586  1.7803  0.0854
  153MOL0     H20136   8.226   8.552   8.189 -0.5976 -1.1686 -1.6310
  153MOL0     H20137   8.183   8.432   7.958 -0.1263 -0.6060 -0.8975
  153MOL0     H20138   8.221   8.603   7.894  0.8044 -1.2949 -0.2190
  153MOL0     H20139   8.019   8.521   8.105 -4.5556  3.0649  0.4432
  153MOL0     H20140   8.055   8.692   8.046 -2.8945  0.6065  1.4476
  153MOL0     H20141   7.934   8.480   7.865  3.5538  1.8203 -3.1139
  153MOL0     H20142   7.959   8.650   7.831  0.4681  0.7688  1.5513
  153MOL0     H20143   7.819   8.735   7.998  1.1281 -1.3441  2.5796
  153MOL0     H20144   7.782   8.580   8.061 -2.3318  0.4610 -0.1057
  153MOL0     H20145   7.594   8.666   7.907  0.1339 -1.8915  4.3121
  153MOL0     H20146   7.710   8.677   7.776  0.2456 -0.4068  0.6373
  153MOL0     H20147   7.732   8.427   7.795  1.0018  2.2277 -2.0293
  153MOL0     H20148   7.591   8.487   7.730 -0.5691  0.8571 -0.1527
  153MOL0     H20149   7.725   8.325   8.052  0.7032  1.0939 -0.9267
  153MOL0     H20150   7.605   8.165   8.255 -0.8037 -1.4481  1.9391
  153MOL0     H20151   7.536   8.049   8.153 -0.9998  0.4591 -1.8669
  153MOL0     H20152   7.303   8.116   8.243 -0.3374  0.5072 -1.1453
  153MOL0     H20153   7.357   8.281   8.260 -0.9218 -0.1337  2.5427
  153MOL0     H20154   7.342   8.129   8.493  2.7918  0.0856  2.0013
  153MOL0     H20155   7.496   8.077   8.427  2.0141  1.0133 -0.4183
  153MOL0     H20156   7.428   8.377   8.468 -1.9618  0.0374  1.2353
  153MOL0     H20157   7.590   8.314   8.448 -0.7493 -0.0478 -2.2003
  153MOL0     H20158   7.742   8.155   8.601  1.5498  1.8084 -3.2188
  153MOL0     H20159   7.957   8.254   8.667  0.3702  0.2393 -1.1797
  153MOL0     H20160   8.235   8.597   8.814  1.9487  0.5432 -2.9277
  153MOL0     H20161   8.468   8.649   8.914  1.8146 -1.8314 -0.1701
  153MOL0     H20162   8.731   8.324   9.000  0.5594  0.9498 -1.6746
  153MOL0     H20163   8.682   8.350   9.171  1.1471  0.3814  0.1385
  153MOL0     H20164   8.823   8.509   9.214 -0.0518 -1.7493 -0.0313
  153MOL0     H20165   8.879   8.548   9.046 -2.8856  2.9332  0.8675
  153MOL0     H20166   8.969   8.300   9.065  3.1176  2.2315 -2.6785
  153MOL0     H20167   8.953   8.343   9.242  1.6611  3.8185  2.6452
  153MOL0     H20168   9.118   8.482   9.017  1.6685 -0.8504  0.3007
  153MOL0     H20169   9.084   8.571   9.171 -1.6846  1.1086 -2.0443
  153MOL0     H20170   9.204   8.293   9.129 -0.4829 -0.9297  1.5561
  153MOL0     H20171   9.194   8.385   9.287 -1.4056  2.3535  0.1038
  153MOL0     H20172   9.415   8.378   9.206 -0.5415 -1.0326 -0.1887
  153MOL0     H20173   9.358   8.551   9.215 -1.3038 -1.0544  0.0332
  153MOL0     H20174   9.375   8.377   8.963 -0.7986  1.2180  0.1641
  153MOL0     H20175   9.342   8.551   8.967 -0.0779  1.6434  1.9690
  153MOL0     H20176   9.602   8.513   8.923  0.3584  0.4653  0.2987
  153MOL0     H20177   9.602   8.478   9.097  1.2600  2.2841 -1.2682
  153MOL0     H20178   8.508   8.238   9.013  0.8859  0.4817 -1.2595
  153MOL0     H20179   8.271   8.193   8.938 -0.9069 -0.2382 -2.0837
  153MOL0     H20180   7.748   8.537   8.918 -1.1603 -1.3742  1.5683
  153MOL0     H20181   7.552   8.481   8.806  0.1701 -0.7292  1.6065
  153MOL0     H20182   8.651   8.665   8.324 -0.7051  1.6323 -2.3301
  153MOL0     H20183   8.891   8.572   8.405 -0.5271 -1.2767 -0.1378
  153MOL0     H20184   9.129   8.143   8.325  0.0990 -2.0947 -0.5029
  153MOL0     H20185   9.341   8.003   8.357  0.5887  0.0946  1.5325
  153MOL0     H20186   9.536   7.892   8.315 -0.2157 -0.0850  0.6383
  153MOL0     H20187   9.511   7.917   8.501  2.0552  0.2077  1.2730
  153MOL0     H20188   9.714   7.776   8.412  0.0543  0.7278 -0.3382
  153MOL0     H20189   9.783   7.932   8.372 -1.2179  0.4662 -0.5186
  153MOL0     H20190   9.709   7.829   8.659  0.8670 -1.0524  0.9053
  153MOL0     H20191   9.701   7.998   8.621  0.6920  0.7017 -2.7259
  153MOL0     H20192   9.940   7.971   8.516  1.7149  0.3115  1.1586
  153MOL0     H20193   9.919   7.961   8.690 -4.1596 -2.0150  1.1373
  153MOL0     H20194  10.039   7.564   8.612 -0.7348 -0.2194  0.5131
  153MOL0     H20195   9.579   8.346   8.402 -0.9470 -0.7202  2.9004
  153MOL0     H20196   9.388   8.489   8.399  2.2811 -0.9157  0.2290
  154MOL0     O20197   8.753   4.188   7.963 -0.4565 -0.5783  0.0474
  154MOL0     C20198   8.797   4.174   7.850 -0.2533  0.5447  0.2758
  154MOL0     O20199   8.723   4.145   7.739  0.6529 -0.2781 -0.0263
  154MOL0     C20200   8.597   4.087   7.754 -0.3166  0.2024 -0.0216
  154MOL0     C20201   8.486   4.140   7.688  0.0670 -0.2011  0.4709
  154MOL0     C20202   8.364   4.078   7.691  0.7143  0.1968  0.0122
  154MOL0     C20203   8.345   3.966   7.765  0.5230 -0.1096 -0.8686
  154MOL0     O20204   8.234   3.895   7.758 -0.1925  0.5390  0.3662
  154MOL0     C20205   8.137   3.956   7.849 -1.0552 -0.4970 -0.7691
  154MOL0     C20206   7.993   3.951   7.796  0.2656 -0.1358  0.0367
  154MOL0     C20207   7.887   4.013   7.888 -0.3387  0.5563 -0.0875
  154MOL0     C20208   7.744   4.033   7.831  0.1700 -0.7849 -0.0317
  154MOL0     C20209   7.686   3.901   7.791 -0.2194  0.6563 -0.2079
  154MOL0     C20210   7.662   3.810   7.907  0.9952  0.6839 -0.3908
  154MOL0     C20211   7.591   3.678   7.872 -0.5596 -0.0550 -0.0543
  154MOL0     C20212   7.580   3.611   8.009  0.4700 -0.2460 -0.3587
  154MOL0     N20213   7.565   3.470   7.998  0.4033 -0.4573  0.6732
  154MOL0     C20214   7.661   3.383   7.981 -0.7891 -0.5245 -0.0824
  154MOL0     C20215   7.604   3.269   7.947  0.6786  0.3281 -0.9997
  154MOL0     C20216   7.681   3.139   7.901  0.0464  0.3666  0.1642
  154MOL0     C20217   7.687   3.033   8.017  0.1978  0.7494  0.7994
  154MOL0     C20218   7.780   2.912   7.998  0.3820 -0.6262  0.7749
  154MOL0     C20219   7.933   2.935   8.016 -0.7558 -0.2657  0.2575
  154MOL0     O20220   7.982   2.826   8.096  0.1434 -0.5167 -0.2339
  154MOL0     C20221   8.116   2.838   8.134  0.3178  0.7516  0.1266
  154MOL0     C20222   8.165   2.749   8.230  0.1405  0.4493  0.1894
  154MOL0     C20223   8.293   2.742   8.269  0.7765 -0.3662 -0.1315
  154MOL0     C20224   8.385   2.838   8.221  0.6270  0.3581  0.6233
  154MOL0     C20225   8.522   2.819   8.268  0.8062 -0.1990  0.1512
  154MOL0     O20226   8.555   2.722   8.360  0.2149  0.4031  0.8347
  154MOL0     C20227   8.679   2.736   8.422  0.4200 -0.2086 -0.1618
  154MOL0     C20228   8.756   2.625   8.436  0.3766 -0.0564  0.6787
  154MOL0     C20229   8.883   2.648   8.493  0.4427 -0.0011 -0.7616
  154MOL0     C20230   8.943   2.772   8.533  1.1594  0.6395  1.5154
  154MOL0     O20231   9.058   2.759   8.608  0.1637  0.3537  1.1814
  154MOL0     C20232   9.139   2.875   8.613 -0.6696  0.6135 -0.4955
  154MOL0     C20233   9.117   2.970   8.729  1.1226  0.3900 -0.0170
  154MOL0     C20234   9.183   3.103   8.707 -0.9161 -0.6706 -0.5984
  154MOL0     C20235   9.184   3.197   8.827 -0.0765  0.4253  0.0098
  154MOL0     C20236   9.195   3.341   8.782 -1.4340  0.2413 -0.3992
  154MOL0     C20237   9.092   3.407   8.694 -0.1707  0.4620  0.2100
  154MOL0     C20238   8.962   3.433   8.768  0.9158  0.2660 -0.2605
  154MOL0     C20239   8.837   3.421   8.673  0.3664 -0.6850  0.3135
  154MOL0    Cl20240   8.784   3.253   8.633  0.3646  0.4039 -0.3796
  154MOL0     C20241   8.864   2.881   8.514  0.6000  0.4856  0.1728
  154MOL0     C20242   8.730   2.866   8.462 -0.6248  0.0931 -1.1244
  154MOL0     O20243   8.602   2.901   8.208  0.5478 -0.5276  0.1258
  154MOL0     C20244   8.349   2.923   8.122  0.1579  0.0938 -0.1949
  154MOL0     C20245   8.216   2.920   8.074  1.1616  0.2473  1.0729
  154MOL0     N20246   7.474   3.279   7.960 -0.7959  0.1795  0.3643
  154MOL0     N20247   7.442   3.397   8.001 -0.4679  0.3445  0.3124
  154MOL0     C20248   8.447   3.917   7.846  0.0290  0.0687  0.9066
  154MOL0     C20249   8.578   3.975   7.840  0.9760  0.0301 -0.4710
  154MOL0     C20250   8.941   4.183   7.842 -0.3550  0.8550 -0.7823
  154MOL0     C20251   9.016   4.191   7.962  0.8566  0.7111 -0.1411
  154MOL0     C20252   9.153   4.187   7.970  0.5809  0.6165 -1.1359
  154MOL0     C20253   9.221   4.179   7.845 -0.4775 -0.5474  0.4856
  154MOL0     O20254   9.359   4.175   7.826 -0.0190 -0.5610 -0.6415
  154MOL0     C20255   9.448   4.155   7.943 -0.3658 -0.2863 -0.4469
  154MOL0     C20256   9.598   4.187   7.901 -0.3600 -1.0732 -0.3597
  154MOL0     C20257   9.619   4.329   7.858  0.2220  0.1238 -0.6564
  154MOL0     C20258   9.582   4.378   7.715 -0.5096  0.3817 -0.2531
  154MOL0     C20259   9.684   4.475   7.666  0.2850 -0.5234  0.0648
  154MOL0     C20260   9.766   4.556   7.619 -0.5862 -0.4714 -0.3621
  154MOL0     C20261   9.151   4.184   7.724  0.6238 -0.4434  0.2098
  154MOL0     C20262   9.009   4.185   7.722  0.4719  0.0121  0.6649
  154MOL0     H20263   8.504   4.228   7.627 -1.1159 -0.1860  0.1213
  154MOL0     H20264   8.270   4.112   7.647 -0.6347 -0.1373  2.4481
  154MOL0     H20265   8.155   4.062   7.871 -0.8947 -0.8088  0.6951
  154MOL0     H20266   8.146   3.898   7.941 -3.5404  0.9597  0.5010
  154MOL0     H20267   7.971   3.851   7.759  1.8862  0.6724 -3.5784
  154MOL0     H20268   7.983   4.015   7.707  1.9805 -1.7796 -1.4170
  154MOL0     H20269   7.924   4.112   7.916  0.2648  0.5611 -0.8726
  154MOL0     H20270   7.878   3.944   7.972  0.3509 -2.1154 -2.0850
  154MOL0     H20271   7.666   4.078   7.894 -1.1597 -1.2554 -1.2875
  154MOL0     H20272   7.743   4.087   7.736  0.9431 -4.1610 -2.1238
  154MOL0     H20273   7.733   3.854   7.704 -1.8368  0.7163 -1.1594
  154MOL0     H20274   7.587   3.931   7.756 -0.7762  0.2570  0.9772
  154MOL0     H20275   7.610   3.864   7.986  0.7762 -3.4313  2.5895
  154MOL0     H20276   7.762   3.784   7.944  1.0947  1.0510 -0.4059
  154MOL0     H20277   7.494   3.681   7.822  0.0529 -0.9092 -1.3761
  154MOL0     H20278   7.659   3.619   7.809  2.0073 -0.2053  2.6474
  154MOL0     H20279   7.497   3.647   8.070  0.5971 -1.4597  0.5643
  154MOL0     H20280   7.666   3.623   8.076 -0.3181 -0.6837  0.7615
  154MOL0     H20281   7.768   3.401   7.988 -0.7440 -0.4722 -0.7949
  154MOL0     H20282   7.780   3.166   7.862 -0.6676  2.2271 -0.4661
  154MOL0     H20283   7.640   3.090   7.812 -1.3504  0.5789  0.6626
  154MOL0     H20284   7.585   2.991   8.018 -0.0217  1.2908  2.0027
  154MOL0     H20285   7.707   3.077   8.114  1.1355  0.3955  0.7736
  154MOL0     H20286   7.749   2.845   8.079  0.3390  2.1669  3.2347
  154MOL0     H20287   7.761   2.867   7.900 -0.4734 -0.6154  0.9241
  154MOL0     H20288   7.934   3.033   8.064 -2.2624  0.3602 -0.8908
  154MOL0     H20289   7.979   2.940   7.917  1.1109 -1.3861  1.0199
  154MOL0     H20290   8.094   2.677   8.270  0.0767 -0.0831 -0.8435
  154MOL0     H20291   8.319   2.679   8.353  1.5267  1.2488  0.9053
  154MOL0     H20292   8.727   2.525   8.408 -0.0604  0.0478  0.7488
  154MOL0     H20293   8.945   2.559   8.498  0.5764  0.1364  0.0404
  154MOL0     H20294   9.138   2.923   8.514  1.0341 -0.9733 -1.3310
  154MOL0     H20295   9.242   2.842   8.624 -0.2884  2.3835  2.3247
  154MOL0     H20296   9.153   2.919   8.819 -2.1557 -2.8051 -0.2596
  154MOL0     H20297   9.009   2.976   8.746  1.1316  1.4295 -0.2853
  154MOL0     H20298   9.140   3.150   8.619  2.5611 -1.4109 -2.9012
  154MOL0     H20299   9.287   3.085   8.676 -1.3755 -0.9003 -2.0842
  154MOL0     H20300   9.092   3.185   8.885  0.6351 -2.1597  0.7831
  154MOL0     H20301   9.258   3.175   8.905 -1.4155  3.1352  2.2499
  154MOL0     H20302   9.295   3.353   8.740  0.5084  4.3055  4.3253
  154MOL0     H20303   9.192   3.400   8.874  2.2841 -2.5038  1.7623
  154MOL0     H20304   9.079   3.353   8.600  2.5496  2.6233 -1.5775
  154MOL0     H20305   9.133   3.505   8.668  1.2259  0.5405  2.4882
  154MOL0     H20306   8.946   3.361   8.849  0.5606  2.4806  1.7830
  154MOL0     H20307   8.956   3.534   8.811 -0.3291 -0.0011  0.2431
  154MOL0     H20308   8.873   3.473   8.584  1.2952  0.3995  1.2976
  154MOL0     H20309   8.751   3.477   8.711 -0.4260 -0.8945 -1.1034
  154MOL0     H20310   8.902   2.976   8.550 -3.9998  1.7664  2.5756
  154MOL0     H20311   8.665   2.951   8.441 -1.2072  0.2609  1.0636
  154MOL0     H20312   8.422   2.993   8.083  0.7056 -0.0975  0.4630
  154MOL0     H20313   8.183   2.979   7.989  0.4053  1.0123  1.8754
  154MOL0     H20314   8.428   3.840   7.920  1.0786  0.2405  1.3818
  154MOL0     H20315   8.656   3.945   7.910  1.2949  2.0330  0.0736
  154MOL0     H20316   8.960   4.188   8.055 -1.4260  1.4764 -1.3866
  154MOL0     H20317   9.202   4.185   8.067  0.9915 -0.5398 -1.3523
  154MOL0     H20318   9.420   4.052   7.968  0.7133 -0.3912  0.3814
  154MOL0     H20319   9.426   4.230   8.019 -1.2489  1.7060 -2.5285
  154MOL0     H20320   9.667   4.167   7.984  1.7922  0.3621 -1.6862
  154MOL0     H20321   9.627   4.121   7.819  1.9819 -2.1788  1.2208
  154MOL0     H20322   9.728   4.332   7.868  0.1443 -0.7736  0.6957
  154MOL0     H20323   9.587   4.401   7.933  4.1659  2.4694 -0.9598
  154MOL0     H20324   9.581   4.298   7.640 -2.8616  0.9999 -0.9948
  154MOL0     H20325   9.482   4.423   7.712  0.2070  2.0073 -0.9714
  154MOL0     H20326   9.843   4.623   7.585 -1.2111  1.3057  1.5343
  154MOL0     H20327   9.206   4.176   7.631  0.7844 -1.1695  0.3664
  154MOL0     H20328   8.949   4.168   7.634  0.3083 -3.9259  1.3512
  155MOL0     O20329   3.477   2.098   9.931 -0.7037  0.5588 -1.0361
  155MOL0     C20330   3.515   2.217   9.921  0.9215 -0.3371 -0.0903
  155MOL0     O20331   3.426   2.328   9.906  0.2832 -0.1352 -0.7883
  155MOL0     C20332   3.294   2.300   9.928 -0.3399  0.2497  0.1218
  155MOL0     C20333   3.247   2.228  10.033  0.1985  0.5521  0.2267
  155MOL0     C20334   3.115   2.180  10.034 -0.2137  0.5507  0.5078
  155MOL0     C20335   3.028   2.221   9.927  0.1389 -0.6492  0.2169
  155MOL0     O20336   2.897   2.189   9.932  0.3026 -0.9085  0.2876
  155MOL0     C20337   2.836   2.193  10.058  0.2765  0.3765 -0.4409
  155MOL0     C20338   2.690   2.214  10.029 -0.0283  1.1405  0.0005
  155MOL0     C20339   2.660   2.345   9.965  0.3267  0.0649  0.3249
  155MOL0     C20340   2.510   2.376   9.966 -0.1068 -0.1864 -0.0933
  155MOL0     C20341   2.420   2.300   9.870 -0.4443  0.0856  0.5072
  155MOL0     C20342   2.360   2.172   9.928 -0.1657 -0.2361  0.4865
  155MOL0     C20343   2.227   2.201  10.005 -0.3636 -0.4047 -0.0482
  155MOL0     C20344   2.113   2.181   9.900  0.1157  0.2677 -0.3309
  155MOL0     N20345   1.990   2.208   9.975 -0.3070  0.6402 -0.6111
  155MOL0     C20346   1.945   2.117  10.066  0.2375 -0.3777  0.1893
  155MOL0     C20347   1.857   2.191  10.137  0.6374 -0.3444  0.0508
  155MOL0     C20348   1.784   2.138  10.263 -0.1410  0.4703  0.5380
  155MOL0     C20349   1.645   2.083  10.215  0.7254  0.4407  0.8309
  155MOL0     C20350   1.590   1.963  10.303 -0.4799 -0.8398 -0.3676
  155MOL0     C20351   1.496   1.880  10.217  0.4348 -0.2337  0.2501
  155MOL0     O20352   1.450   1.762  10.288  0.4799 -0.3039  0.4051
  155MOL0     C20353   1.363   1.677  10.219  1.2354  0.7505 -0.0140
  155MOL0     C20354   1.222   1.663  10.244 -1.0716 -0.6603 -0.9849
  155MOL0     C20355   1.139   1.574  10.174  0.5124  0.0903 -0.4912
  155MOL0     C20356   1.192   1.505  10.066  0.0161  0.4751 -0.6327
  155MOL0     C20357   1.115   1.424   9.977 -0.5962 -0.2421  0.4937
  155MOL0     O20358   1.192   1.362   9.870 -0.7866 -0.0657  0.4432
  155MOL0     C20359   1.118   1.286   9.782 -1.0807  0.4022 -0.3556
  155MOL0     C20360   1.106   1.152   9.812  0.0985  0.4576 -0.2114
  155MOL0     C20361   1.035   1.074   9.725 -1.0722 -0.5514  0.0310
  155MOL0     C20362   0.979   1.122   9.609  1.1896  0.6102 -0.3762
  155MOL0     O20363   0.906   1.023   9.537 -0.2039 -0.3230 -0.3526
  155MOL0     C20364   0.827   1.063   9.422  0.3262  0.0009  0.6372
  155MOL0     C20365   0.790   0.930   9.342  0.3138  0.1071 -0.3071
  155MOL0     C20366   0.734   0.823   9.441  0.3955  0.0881  0.1151
  155MOL0     C20367   0.707   0.688   9.360  0.0127  0.1404 -0.4009
  155MOL0     C20368   0.742   0.569   9.450  0.1687  0.2630 -0.6767
  155MOL0     C20369   0.681   0.441   9.404  0.3426  0.2187  1.0509
  155MOL0     C20370   0.693   0.327   9.505 -0.3858  0.3708  0.1318
  155MOL0     C20371   0.694   0.195   9.436  0.6863 -0.2092  0.1124
  155MOL0    Cl20372   0.624   0.082   9.554  0.0058 -0.2192  0.5810
  155MOL0     C20373   0.993   1.255   9.582  0.7715 -0.3355 -0.5795
  155MOL0     C20374   1.065   1.340   9.669  0.6763 -0.4571  0.1021
  155MOL0     O20375   0.994   1.410   9.988 -0.2981  0.9069  0.4519
  155MOL0     C20376   1.329   1.521  10.032 -0.1278 -0.6043 -0.2118
  155MOL0     C20377   1.413   1.607  10.105  0.3784  0.8291 -0.3418
  155MOL0     N20378   1.844   2.317  10.097 -0.7892  0.0856 -0.1451
  155MOL0     N20379   1.930   2.326   9.999 -0.0437 -0.0627  0.4625
  155MOL0     C20380   3.078   2.306   9.828 -0.0590  0.1449  0.7800
  155MOL0     C20381   3.208   2.341   9.832  0.1285 -0.0162  0.4523
  155MOL0     C20382   3.654   2.259   9.911  0.1567 -0.4842  0.6036
  155MOL0     C20383   3.692   2.388   9.850 -0.4283  0.8419 -0.9824
  155MOL0     C20384   3.824   2.430   9.868 -0.2700  0.2784 -0.2931
  155MOL0     C20385   3.921   2.347   9.917  0.1221 -0.0489 -0.1304
  155MOL0     O20386   4.056   2.380   9.924  0.1198 -0.3944 -0.0706
  155MOL0     C20387   4.097   2.522   9.908 -0.1416 -0.1699  0.0024
  155MOL0     C20388   4.136   2.558   9.764 -1.2594  1.2957 -0.9414
  155MOL0     C20389   4.254   2.464   9.730 -0.0734 -0.0647 -0.8308
  155MOL0     C20390   4.310   2.518   9.601  0.4749  1.4846  0.0999
  155MOL0     C20391   4.446   2.473   9.585 -0.3315  0.3103  0.0234
  155MOL0     C20392   4.561   2.448   9.556  0.1380 -0.7522  0.2139
  155MOL0     C20393   3.882   2.216   9.960  0.3441  0.4543  0.0275
  155MOL0     C20394   3.752   2.187   9.975 -0.3901  0.7197 -0.5064
  155MOL0     H20395   3.316   2.197  10.111  1.8357 -0.4350 -1.5320
  155MOL0     H20396   3.089   2.108  10.111  2.5133 -1.5437 -0.3672
  155MOL0     H20397   2.887   2.269  10.118 -1.2540  0.9689  0.1381
  155MOL0     H20398   2.847   2.095  10.106  0.2144  1.1463  1.2085
  155MOL0     H20399   2.635   2.207  10.124 -1.0275  1.0977 -0.5712
  155MOL0     H20400   2.659   2.130   9.967  1.1206  0.0031  0.8892
  155MOL0     H20401   2.696   2.349   9.862 -0.8284  2.0496 -0.0477
  155MOL0     H20402   2.707   2.427  10.019  0.0858  2.0549 -2.3197
  155MOL0     H20403   2.468   2.357  10.065  1.8261 -1.1375  0.5885
  155MOL0     H20404   2.491   2.481   9.942 -2.3077 -0.6370 -0.5551
  155MOL0     H20405   2.473   2.288   9.775  1.1555  3.8403  0.7470
  155MOL0     H20406   2.350   2.378   9.839  1.6693  2.4256  1.2002
  155MOL0     H20407   2.437   2.125   9.989  2.5360  1.1811 -1.6012
  155MOL0     H20408   2.336   2.103   9.846 -1.0467  0.7804 -0.1476
  155MOL0     H20409   2.229   2.121  10.079 -1.8023  2.9555  3.9959
  155MOL0     H20410   2.226   2.298  10.057  3.5453  0.0562 -0.5317
  155MOL0     H20411   2.111   2.080   9.856 -1.6199  0.8464 -1.7047
  155MOL0     H20412   2.113   2.256   9.820 -2.1097 -1.4464 -2.0900
  155MOL0     H20413   1.969   2.012  10.068 -0.0779 -0.4342  1.7506
  155MOL0     H20414   1.777   2.221  10.334  3.2566 -0.2920  1.9613
  155MOL0     H20415   1.852   2.060  10.299 -3.0544 -2.6548 -0.1706
  155MOL0     H20416   1.643   2.050  10.110  1.6419  3.2512 -0.1715
  155MOL0     H20417   1.572   2.163  10.226 -1.9961 -1.5759 -1.1805
  155MOL0     H20418   1.673   1.901  10.339 -0.3545  0.0468  0.9620
  155MOL0     H20419   1.535   1.996  10.392 -2.3865 -3.0343 -0.6729
  155MOL0     H20420   1.553   1.843  10.131  0.6913 -0.5203  0.5401
  155MOL0     H20421   1.410   1.938  10.183 -0.1971 -1.7456 -0.8035
  155MOL0     H20422   1.178   1.733  10.314  0.2760 -2.2828  1.6521
  155MOL0     H20423   1.036   1.561  10.203  0.2208  0.9982 -1.0876
  155MOL0     H20424   1.158   1.114   9.899  2.1419 -2.1282 -2.3749
  155MOL0     H20425   1.020   0.968   9.747  0.2185 -0.6569  0.4373
  155MOL0     H20426   0.887   1.128   9.358 -0.6951 -2.6016 -3.3279
  155MOL0     H20427   0.733   1.109   9.453  0.4580  1.3564 -0.8669
  155MOL0     H20428   0.872   0.885   9.285  0.2670 -2.7444  1.6739
  155MOL0     H20429   0.708   0.963   9.278 -0.4909  0.4524  0.8738
  155MOL0     H20430   0.640   0.863   9.480 -1.4878 -0.5333 -3.3767
  155MOL0     H20431   0.802   0.802   9.524  0.7480 -0.3657 -0.2850
  155MOL0     H20432   0.604   0.686   9.325 -0.1585  3.8825 -0.5601
  155MOL0     H20433   0.779   0.691   9.277  2.5262 -1.2836  1.5788
  155MOL0     H20434   0.710   0.571   9.554  0.4531 -1.5949 -0.5074
  155MOL0     H20435   0.849   0.547   9.447  0.1473 -0.1416  0.7278
  155MOL0     H20436   0.740   0.417   9.315 -0.0556  1.5960  0.3922
  155MOL0     H20437   0.574   0.458   9.387  0.5441  3.1048  2.1756
  155MOL0     H20438   0.785   0.349   9.560  0.5765  3.2890 -2.3648
  155MOL0     H20439   0.614   0.335   9.579  0.2616 -1.6891  1.1197
  155MOL0     H20440   0.786   0.162   9.386  0.5344  1.2704 -1.2184
  155MOL0     H20441   0.619   0.188   9.357 -1.3864  2.3453  1.6916
  155MOL0     H20442   0.945   1.294   9.493 -1.3674 -0.1479  0.5903
  155MOL0     H20443   1.070   1.445   9.642  0.6610 -0.3637  0.4519
  155MOL0     H20444   1.378   1.454   9.962 -2.8604 -1.5185 -1.4058
  155MOL0     H20445   1.521   1.616  10.094  0.3000  3.2586  0.2770
  155MOL0     H20446   3.015   2.341   9.747  0.4220 -0.0800  0.2985
  155MOL0     H20447   3.241   2.388   9.740  0.2552  0.7005  0.8618
  155MOL0     H20448   3.610   2.439   9.801 -2.6529 -1.9834 -0.4354
  155MOL0     H20449   3.833   2.533   9.837 -1.4486  0.3945 -0.2976
  155MOL0     H20450   4.182   2.554   9.969 -2.0149 -0.7921  3.1780
  155MOL0     H20451   4.023   2.596   9.940  0.3013  0.3907 -0.2559
  155MOL0     H20452   4.048   2.528   9.706 -1.9522 -1.1231  1.1347
  155MOL0     H20453   4.156   2.664   9.748  2.4323  0.9223  0.3800
  155MOL0     H20454   4.226   2.359   9.724 -1.6862  0.1825  1.3544
  155MOL0     H20455   4.330   2.484   9.806  0.3150  0.4944 -1.3578
  155MOL0     H20456   4.252   2.486   9.514  1.4177  1.9325 -0.7176
  155MOL0     H20457   4.306   2.626   9.585 -0.1754  1.2757 -1.2699
  155MOL0     H20458   4.663   2.419   9.546  0.2043  0.0819 -2.1629
  155MOL0     H20459   3.957   2.153  10.008  0.5475 -0.4356 -1.4163
  155MOL0     H20460   3.722   2.098  10.030  0.6879  0.1535 -0.8068
  156MOL0     O20461   0.045   2.060   6.775  0.0227 -0.5689 -0.2987
  156MOL0     C20462   0.133   1.995   6.834 -0.8428 -0.1921 -0.2723
  156MOL0     O20463   0.135   1.857   6.852  0.2497 -0.0657 -0.2330
  156MOL0     C20464   0.021   1.800   6.799  0.6464  0.3989 -0.3168
  156MOL0     C20465   0.003   1.718   6.685  0.0684  0.0936  0.4695
  156MOL0     C20466  -0.112   1.649   6.658 -0.2323 -0.1538  0.4165
  156MOL0     C20467  -0.221   1.653   6.741  0.8428 -0.1813  0.4867
  156MOL0     O20468  -0.340   1.586   6.718  0.1050  0.0084  0.3335
  156MOL0     C20469  -0.438   1.574   6.823  1.1170  0.8252  0.2463
  156MOL0     C20470  -0.537   1.455   6.776  0.1329 -0.3800 -0.6176
  156MOL0     C20471  -0.631   1.409   6.880  1.5847 -0.4835 -0.1632
  156MOL0     C20472  -0.686   1.277   6.848  0.4250  0.5018 -0.0854
  156MOL0     C20473  -0.809   1.285   6.754  0.4870  0.2355 -0.2424
  156MOL0     C20474  -0.945   1.313   6.825  1.3221 -1.3307  0.4929
  156MOL0     C20475  -1.054   1.359   6.734  1.1281  0.5198  0.1452
  156MOL0     C20476  -1.186   1.365   6.808  0.3859 -0.2162 -0.3988
  156MOL0     N20477  -1.289   1.409   6.727  0.6622 -0.4779  0.3864
  156MOL0     C20478  -1.316   1.543   6.702  0.8520  0.8975  0.5392
  156MOL0     C20479  -1.431   1.543   6.625  0.8424 -0.2552 -0.5225
  156MOL0     C20480  -1.497   1.663   6.561  0.0408  0.5921 -0.5993
  156MOL0     C20481  -1.601   1.725   6.655 -0.4696  0.5009  0.1202
  156MOL0     C20482  -1.707   1.625   6.704  0.5597  0.0985  0.5303
  156MOL0     C20483  -1.762   1.535   6.592 -0.9238  0.2365 -0.4183
  156MOL0     O20484  -1.872   1.587   6.525 -0.3449  0.1125 -0.0091
  156MOL0     C20485  -1.976   1.506   6.489  0.7201  0.0192  0.1393
  156MOL0     C20486  -1.959   1.367   6.471 -0.4108 -0.5530 -0.0579
  156MOL0     C20487  -2.072   1.294   6.436  0.2816  0.9157  0.3323
  156MOL0     C20488  -2.197   1.359   6.423  0.5096  0.8368  0.3444
  156MOL0     C20489  -2.314   1.262   6.407  0.0841 -0.1786 -0.1771
  156MOL0     O20490  -2.432   1.319   6.356 -0.9589 -0.0025 -0.1727
  156MOL0     C20491  -2.545   1.248   6.346  0.0894  0.1775  0.0632
  156MOL0     C20492  -2.659   1.285   6.403  0.6544 -0.1056  0.6219
  156MOL0     C20493  -2.776   1.226   6.371  0.7590 -0.2835  0.2715
  156MOL0     C20494  -2.783   1.122   6.269 -0.1122 -0.6623 -0.8213
  156MOL0     O20495  -2.903   1.063   6.229 -0.0995  0.4063 -0.2807
  156MOL0     C20496  -2.931   1.023   6.094 -0.3870  0.5946 -0.1735
  156MOL0     C20497  -3.077   0.996   6.078  0.1696 -0.2620  0.1168
  156MOL0     C20498  -3.130   0.868   6.149 -0.7804 -0.2674 -0.3065
  156MOL0     C20499  -3.272   0.842   6.125  0.1785 -0.0273 -0.4747
  156MOL0     C20500  -3.317   0.698   6.157 -0.1460 -1.2227 -0.5416
  156MOL0     C20501  -3.293   0.643   6.307 -0.0111  0.7154  0.4370
  156MOL0     C20502  -3.355   0.745   6.407 -0.0840 -0.6199 -0.5213
  156MOL0     C20503  -3.313   0.701   6.545 -0.3373 -0.7516  0.4689
  156MOL0    Cl20504  -3.129   0.732   6.546 -0.1839  0.5891 -0.1273
  156MOL0     C20505  -2.660   1.073   6.226 -0.2300 -0.3129  0.3664
  156MOL0     C20506  -2.538   1.137   6.258 -0.0679  0.7456  0.1728
  156MOL0     O20507  -2.313   1.142   6.445 -0.1264 -0.4835 -0.1448
  156MOL0     C20508  -2.212   1.494   6.448  0.6194 -0.2316  0.1837
  156MOL0     C20509  -2.099   1.570   6.481  1.3411 -0.6457 -0.8081
  156MOL0     N20510  -1.464   1.410   6.593  0.0499  0.1093  0.5460
  156MOL0     N20511  -1.392   1.329   6.674  0.3846 -0.4044  0.2270
  156MOL0     C20512  -0.218   1.742   6.849 -0.3207  0.5364  0.4145
  156MOL0     C20513  -0.096   1.811   6.875 -0.3178  0.6309 -1.0196
  156MOL0     C20514   0.265   2.074   6.866 -0.4703 -0.0536 -0.4115
  156MOL0     C20515   0.377   2.004   6.916 -0.5483  0.8977  0.3167
  156MOL0     C20516   0.503   2.071   6.943  0.9941  0.3325  0.5279
  156MOL0     C20517   0.522   2.205   6.899 -0.4568 -0.2796 -0.8142
  156MOL0     O20518   0.640   2.277   6.885 -0.0997 -0.1320  0.2334
  156MOL0     C20519   0.767   2.204   6.888  0.4422 -0.0386 -0.0809
  156MOL0     C20520   0.874   2.278   6.976  0.2385 -0.4233  0.4483
  156MOL0     C20521   0.800   2.321   7.108  0.1957 -0.1806  0.2839
  156MOL0     C20522   0.909   2.359   7.208 -0.3761  0.6252 -0.5842
  156MOL0     C20523   1.000   2.469   7.165  0.6677  0.9047 -0.8627
  156MOL0     C20524   1.078   2.554   7.126 -0.1639  0.1709  0.3659
  156MOL0     C20525   0.401   2.269   6.856  0.5484  0.1887 -0.3415
  156MOL0     C20526   0.281   2.209   6.843  0.6919 -0.7288 -0.0123
  156MOL0     H20527   0.092   1.692   6.628 -1.5240 -1.9837 -1.2747
  156MOL0     H20528  -0.103   1.579   6.575  0.3916  0.9316 -0.4476
  156MOL0     H20529  -0.500   1.659   6.850  0.1480  0.2756 -0.2128
  156MOL0     H20530  -0.395   1.532   6.915  0.4318  0.1884  0.2850
  156MOL0     H20531  -0.476   1.374   6.735 -0.1998 -0.7673 -0.3567
  156MOL0     H20532  -0.590   1.489   6.687  0.9587 -1.3500 -1.5036
  156MOL0     H20533  -0.718   1.475   6.882 -0.2648 -2.8403  0.6088
  156MOL0     H20534  -0.588   1.392   6.980  1.1807 -2.4584 -0.2903
  156MOL0     H20535  -0.610   1.216   6.798 -0.4983 -0.8367  0.0791
  156MOL0     H20536  -0.718   1.233   6.943  1.8226  1.7649  1.0241
  156MOL0     H20537  -0.811   1.188   6.702 -1.9944  0.1198 -0.0129
  156MOL0     H20538  -0.790   1.364   6.681  0.8325  0.8768  0.5317
  156MOL0     H20539  -0.933   1.393   6.898 -0.0062 -2.7958  2.4258
  156MOL0     H20540  -0.983   1.221   6.870 -1.8886 -1.4763 -2.1329
  156MOL0     H20541  -1.030   1.460   6.698 -1.3242  1.5595  1.2258
  156MOL0     H20542  -1.070   1.302   6.642  1.5033  2.3877 -1.1638
  156MOL0     H20543  -1.171   1.418   6.902  0.9661 -3.0998  1.2536
  156MOL0     H20544  -1.210   1.264   6.842 -0.8762  0.6926  1.6193
  156MOL0     H20545  -1.254   1.626   6.733  1.0843  0.5842  0.9205
  156MOL0     H20546  -1.533   1.638   6.461  2.7498 -0.8451 -1.3106
  156MOL0     H20547  -1.416   1.734   6.543  2.1672 -1.4043  0.5781
  156MOL0     H20548  -1.653   1.818   6.628 -1.0283  0.1245 -0.1156
  156MOL0     H20549  -1.550   1.761   6.745 -0.2132  5.3325 -1.6332
  156MOL0     H20550  -1.671   1.556   6.781  1.2197 -2.1266 -1.6533
  156MOL0     H20551  -1.794   1.675   6.747 -0.9858 -0.9644 -1.2040
  156MOL0     H20552  -1.788   1.442   6.644 -0.3692  1.6800  2.6052
  156MOL0     H20553  -1.690   1.510   6.513 -0.7804 -0.0385 -0.1998
  156MOL0     H20554  -1.860   1.322   6.468 -0.2299 -0.1337 -0.9753
  156MOL0     H20555  -2.064   1.186   6.431  0.5839  1.0131 -2.2126
  156MOL0     H20556  -2.665   1.369   6.473 -0.6768 -0.6480  1.1963
  156MOL0     H20557  -2.864   1.273   6.411  2.0555  1.7642  0.8509
  156MOL0     H20558  -2.882   0.927   6.076  1.3982  1.1121  1.5196
  156MOL0     H20559  -2.898   1.090   6.014 -1.9322  2.1957  0.4359
  156MOL0     H20560  -3.101   0.988   5.972 -1.9610 -1.4994  0.6464
  156MOL0     H20561  -3.137   1.077   6.120 -2.0602 -1.0388 -1.4332
  156MOL0     H20562  -3.118   0.909   6.249  1.0957  2.2374 -1.4596
  156MOL0     H20563  -3.075   0.774   6.138 -0.3357 -0.0444  0.0173
  156MOL0     H20564  -3.321   0.918   6.186  0.6425 -0.9962  1.1552
  156MOL0     H20565  -3.291   0.859   6.018 -1.2368 -0.6085 -0.3390
  156MOL0     H20566  -3.260   0.633   6.089 -1.3472 -3.8535  0.8043
  156MOL0     H20567  -3.421   0.673   6.134 -0.1689  0.1718 -2.1561
  156MOL0     H20568  -3.188   0.624   6.329 -0.0690  1.1185  1.1070
  156MOL0     H20569  -3.344   0.546   6.309  4.0365 -1.6628 -1.0521
  156MOL0     H20570  -3.310   0.840   6.379 -0.2651 -0.0512  0.9910
  156MOL0     H20571  -3.464   0.734   6.398 -0.1219 -0.7863  0.0473
  156MOL0     H20572  -3.339   0.595   6.556 -0.4279 -0.8894 -0.9264
  156MOL0     H20573  -3.358   0.767   6.619 -1.6451 -3.0928  1.8797
  156MOL0     H20574  -2.651   0.992   6.155  0.2966  0.2852 -0.2662
  156MOL0     H20575  -2.447   1.100   6.210 -1.9744 -2.8845 -1.0395
  156MOL0     H20576  -2.306   1.546   6.460  1.2426  0.6465  1.4705
  156MOL0     H20577  -2.103   1.676   6.505  3.8977 -0.5921 -0.3813
  156MOL0     H20578  -0.299   1.754   6.921  0.0865  1.5129  0.7341
  156MOL0     H20579  -0.102   1.863   6.970 -0.3842 -2.0025  0.5239
  156MOL0     H20580   0.374   1.900   6.947  0.1355  0.4259 -1.0955
  156MOL0     H20581   0.582   2.009   6.983  1.4851 -1.2381 -2.5812
  156MOL0     H20582   0.803   2.174   6.789  0.1724  0.6927 -0.4082
  156MOL0     H20583   0.753   2.111   6.944  1.3547 -0.2612 -0.2122
  156MOL0     H20584   0.945   2.196   6.990  1.1349 -0.6796 -4.0703
  156MOL0     H20585   0.920   2.356   6.915 -0.4491  0.0610  0.5481
  156MOL0     H20586   0.738   2.243   7.153 -0.0185  0.2617  0.7650
  156MOL0     H20587   0.751   2.417   7.095  0.4897 -0.2626 -1.7609
  156MOL0     H20588   0.872   2.382   7.309 -2.0085  0.8509 -1.2013
  156MOL0     H20589   0.965   2.267   7.230  1.4812  1.7052 -0.6192
  156MOL0     H20590   1.151   2.616   7.078  1.9394 -3.0420 -0.9253
  156MOL0     H20591   0.411   2.372   6.822  1.7778 -0.1987 -1.2589
  156MOL0     H20592   0.196   2.264   6.804  0.0357 -2.0345 -0.4868
  157MOL0     O20593   8.453   4.268   0.022 -0.4267 -0.4032  0.1521
  157MOL0     C20594   8.515   4.159   0.012  0.6159 -0.5445  0.2666
  157MOL0     O20595   8.460   4.038  -0.007 -0.0283 -0.0179  0.7006
  157MOL0     C20596   8.324   4.036  -0.006 -0.2207  0.2979 -0.1050
  157MOL0     C20597   8.253   4.009   0.116 -0.6642  0.4817 -0.2724
  157MOL0     C20598   8.120   4.021   0.123  0.7324  0.8031  0.0557
  157MOL0     C20599   8.040   4.052   0.006 -0.5658 -0.0811  0.5279
  157MOL0     O20600   7.902   4.082  -0.005 -0.7424  0.3380 -0.1211
  157MOL0     C20601   7.832   4.104   0.121 -0.5126  0.7458 -0.6126
  157MOL0     C20602   7.696   4.132   0.086  0.6794  0.7422  0.4904
  157MOL0     C20603   7.621   4.154   0.212 -0.7787  0.0268 -0.7748
  157MOL0     C20604   7.467   4.178   0.199 -0.0747  0.0747 -0.0860
  157MOL0     C20605   7.409   4.241   0.326 -0.2546  0.2849  0.1763
  157MOL0     C20606   7.374   4.155   0.450  0.5013 -0.6963 -0.6432
  157MOL0     C20607   7.265   4.051   0.435 -0.2122  0.1791 -0.4499
  157MOL0     C20608   7.256   3.975   0.567 -0.1463  0.5672 -0.0118
  157MOL0     N20609   7.138   3.882   0.541  0.1205  0.1254 -0.5274
  157MOL0     C20610   7.010   3.919   0.562  0.3894  0.0099  0.3864
  157MOL0     C20611   6.941   3.820   0.499  0.0308  0.3497  0.5673
  157MOL0     C20612   6.799   3.797   0.499  0.0090  0.2087 -0.1887
  157MOL0     C20613   6.766   3.696   0.614  0.1848 -0.0628 -0.0044
  157MOL0     C20614   6.639   3.606   0.603  0.0242 -0.1327 -0.4117
  157MOL0     C20615   6.625   3.532   0.463  0.3080 -0.5851  0.5568
  157MOL0     O20616   6.522   3.434   0.488  0.2264 -0.2307 -0.3560
  157MOL0     C20617   6.389   3.475   0.465 -0.6642  0.5387 -0.3441
  157MOL0     C20618   6.350   3.605   0.414  0.2149 -0.2216 -0.0592
  157MOL0     C20619   6.213   3.632   0.406 -0.1553 -0.3479  0.4112
  157MOL0     C20620   6.116   3.550   0.464 -0.2404 -0.3002 -0.4571
  157MOL0     C20621   5.971   3.589   0.484  0.9409  0.0357 -0.9423
  157MOL0     O20622   5.880   3.507   0.544 -0.2527 -0.0020  0.8020
  157MOL0     C20623   5.749   3.547   0.526  0.0676 -0.1034 -0.1705
  157MOL0     C20624   5.685   3.575   0.403 -0.1154 -0.3869  0.1302
  157MOL0     C20625   5.548   3.606   0.408  0.9496 -0.3655 -0.5824
  157MOL0     C20626   5.467   3.608   0.524  0.4487 -0.0727  0.2678
  157MOL0     O20627   5.324   3.620   0.536 -0.1926  0.0773  0.6615
  157MOL0     C20628   5.256   3.555   0.420  0.7655 -0.9005 -0.5802
  157MOL0     C20629   5.201   3.673   0.341  0.5265  0.1402  0.3225
  157MOL0     C20630   5.174   3.630   0.198 -0.6832 -0.7351 -0.4369
  157MOL0     C20631   5.091   3.500   0.185  0.8434  0.2636  0.8451
  157MOL0     C20632   4.962   3.498   0.253  0.6055  0.8908 -0.3801
  157MOL0     C20633   4.855   3.586   0.204  0.2279 -0.4935  0.4096
  157MOL0     C20634   4.787   3.541   0.076  0.5980  0.0032 -0.2040
  157MOL0     C20635   4.667   3.630   0.034  0.0076 -0.2414  0.7859
  157MOL0    Cl20636   4.523   3.594   0.136 -0.0156  0.1973 -0.3310
  157MOL0     C20637   5.538   3.573   0.638  0.0497  1.1408 -0.3015
  157MOL0     C20638   5.680   3.553   0.644 -0.2085 -0.0259  0.0402
  157MOL0     O20639   5.940   3.700   0.436 -0.4126 -0.3065 -0.5163
  157MOL0     C20640   6.157   3.439   0.532 -0.7346  0.8600  0.8068
  157MOL0     C20641   6.292   3.396   0.527  0.3560  0.2275  0.6016
  157MOL0     N20642   7.030   3.722   0.467  0.1322  0.3136 -0.3611
  157MOL0     N20643   7.146   3.752   0.501  0.1900 -0.1823 -0.1181
  157MOL0     C20644   8.105   4.076  -0.118 -0.5504 -0.5103  0.1127
  157MOL0     C20645   8.249   4.071  -0.122  0.2698  0.4990 -0.2168
  157MOL0     C20646   8.661   4.157   0.015  0.0540 -1.1469  0.6961
  157MOL0     C20647   8.735   4.060  -0.044 -1.1009 -0.0361  0.0697
  157MOL0     C20648   8.880   4.082  -0.043  0.0926  0.3510  0.5527
  157MOL0     C20649   8.939   4.184   0.031  0.4080 -0.5569  0.8554
  157MOL0     O20650   9.070   4.212   0.037 -0.0348 -0.1393  0.3438
  157MOL0     C20651   9.159   4.098   0.033 -0.2331  0.1583  0.0275
  157MOL0     C20652   9.290   4.128   0.098 -0.3676 -0.5362  0.2262
  157MOL0     C20653   9.293   4.175   0.244  0.4246  0.7493 -0.2941
  157MOL0     C20654   9.222   4.068   0.341 -0.6551 -0.1183  0.2997
  157MOL0     C20655   9.075   4.085   0.341 -0.3173 -0.3473  0.1254
  157MOL0     C20656   8.956   4.081   0.354 -0.2254 -0.0151  0.5834
  157MOL0     C20657   8.854   4.266   0.102 -0.3355 -0.0112  0.2796
  157MOL0     C20658   8.718   4.264   0.087 -0.6683 -0.2858  0.0151
  157MOL0     H20659   8.319   3.998   0.201 -0.2646  2.7500 -0.2477
  157MOL0     H20660   8.057   4.019   0.211  1.5424  1.2191  0.6615
  157MOL0     H20661   7.881   4.184   0.177  1.8326 -1.1691  0.2104
  157MOL0     H20662   7.847   4.009   0.173  1.8428  0.4698 -1.6630
  157MOL0     H20663   7.641   4.053   0.035 -0.8434  2.5826 -0.8666
  157MOL0     H20664   7.692   4.221   0.022  2.3923 -1.2484 -2.6750
  157MOL0     H20665   7.665   4.242   0.261 -0.9690 -0.5999  0.5624
  157MOL0     H20666   7.636   4.072   0.282  1.8576  1.1906  0.1541
  157MOL0     H20667   7.449   4.246   0.115  0.2738  1.9862  1.3367
  157MOL0     H20668   7.420   4.080   0.187  0.3553 -0.1845  0.3494
  157MOL0     H20669   7.312   4.284   0.300 -2.3741 -3.1149  1.6597
  157MOL0     H20670   7.482   4.311   0.367 -0.0466 -0.2207  0.6852
  157MOL0     H20671   7.346   4.217   0.535  0.0959 -2.8870  0.9110
  157MOL0     H20672   7.465   4.103   0.481 -0.2805 -2.1289 -0.6443
  157MOL0     H20673   7.164   4.094   0.440  0.8134  2.6904  0.2712
  157MOL0     H20674   7.278   3.990   0.345  0.1495  0.6430 -0.7173
  157MOL0     H20675   7.232   4.046   0.647 -2.3210  0.9656 -0.9486
  157MOL0     H20676   7.352   3.922   0.572 -0.4929 -0.0200  0.4420
  157MOL0     H20677   6.974   4.007   0.614 -1.7188  1.0515 -2.5932
  157MOL0     H20678   6.758   3.754   0.407 -1.2103 -2.8959  1.6627
  157MOL0     H20679   6.756   3.894   0.526 -0.1762 -0.5407  2.5015
  157MOL0     H20680   6.742   3.752   0.705 -2.3954 -2.3253  0.8364
  157MOL0     H20681   6.848   3.625   0.625 -0.4226 -0.5922  1.2784
  157MOL0     H20682   6.657   3.522   0.671 -0.7449 -0.2586 -0.3620
  157MOL0     H20683   6.552   3.663   0.636 -0.6062 -2.0743  1.4850
  157MOL0     H20684   6.717   3.478   0.440 -0.2798 -0.8481 -1.3124
  157MOL0     H20685   6.608   3.615   0.395  0.6100  1.1513  2.5053
  157MOL0     H20686   6.417   3.680   0.373 -0.9101  0.0048 -1.5761
  157MOL0     H20687   6.178   3.724   0.359  1.3571 -1.1901 -2.6150
  157MOL0     H20688   5.746   3.574   0.314 -0.4505  2.1877 -0.1956
  157MOL0     H20689   5.494   3.634   0.318 -0.6452 -0.4889  0.2966
  157MOL0     H20690   5.175   3.495   0.462  3.5746 -1.8259  4.2153
  157MOL0     H20691   5.316   3.492   0.353  1.2072  0.0577 -1.1069
  157MOL0     H20692   5.279   3.749   0.341  2.1132 -1.3988  1.7146
  157MOL0     H20693   5.115   3.722   0.389 -0.1808  0.9241 -1.6302
  157MOL0     H20694   5.266   3.622   0.139  0.5421  1.4376  1.0240
  157MOL0     H20695   5.106   3.705   0.157  0.0133  0.6464  0.8300
  157MOL0     H20696   5.083   3.462   0.083  2.7759  0.9788  0.3890
  157MOL0     H20697   5.142   3.414   0.229 -0.9489 -1.5705 -0.4222
  157MOL0     H20698   4.974   3.512   0.360 -0.1395  0.2993 -0.2101
  157MOL0     H20699   4.927   3.395   0.243  1.5583  0.6274 -1.2192
  157MOL0     H20700   4.892   3.688   0.190  0.1464 -0.5102  0.0682
  157MOL0     H20701   4.787   3.595   0.290  1.7964 -0.6702  1.7262
  157MOL0     H20702   4.855   3.548  -0.010 -2.7672 -0.4300 -3.1593
  157MOL0     H20703   4.757   3.437   0.091 -1.6754  0.3392 -1.7986
  157MOL0     H20704   4.639   3.598  -0.066 -1.1003  2.6841  0.0638
  157MOL0     H20705   4.702   3.733   0.039 -3.0080  1.0819 -1.9907
  157MOL0     H20706   5.479   3.575   0.729 -0.1328  1.9386 -0.4294
  157MOL0     H20707   5.735   3.546   0.737 -2.4699  3.1556  1.8065
  157MOL0     H20708   6.087   3.373   0.583 -2.4302  1.8267 -0.1784
  157MOL0     H20709   6.328   3.305   0.575 -1.2372 -0.0776  1.2847
  157MOL0     H20710   8.051   4.111  -0.205 -0.5487  1.9521  1.0401
  157MOL0     H20711   8.301   4.093  -0.215 -0.2507  1.6387 -0.2561
  157MOL0     H20712   8.699   3.968  -0.089  1.5960 -0.3930 -1.6099
  157MOL0     H20713   8.956   4.024  -0.095  1.4977  3.2647 -0.8375
  157MOL0     H20714   9.176   4.077  -0.073  1.3414 -1.0538  0.4862
  157MOL0     H20715   9.112   4.008   0.074  4.1118 -3.4133 -2.0634
  157MOL0     H20716   9.364   4.048   0.091 -0.3559 -0.7946  2.3977
  157MOL0     H20717   9.334   4.215   0.049  2.4275 -1.5224  0.8107
  157MOL0     H20718   9.246   4.273   0.254  2.9877  1.8936  1.7229
  157MOL0     H20719   9.396   4.174   0.281  0.4517 -1.5026 -0.2856
  157MOL0     H20720   9.236   3.964   0.310  0.3401  0.0014  0.2958
  157MOL0     H20721   9.274   4.080   0.437 -4.9764  1.4513  2.7427
  157MOL0     H20722   8.850   4.093   0.367 -0.0787  0.6984  1.2005
  157MOL0     H20723   8.894   4.348   0.162 -0.2241 -0.3034  0.6088
  157MOL0     H20724   8.659   4.328   0.152  2.9990  0.5921  2.8218
  158MOL0     O20725   2.826   5.241  10.220 -0.0874 -0.2199  0.4996
  158MOL0     C20726   2.829   5.350  10.151  0.6075 -0.5746  0.1750
  158MOL0     O20727   2.724   5.439  10.141 -0.0721  0.3088  0.4844
  158MOL0     C20728   2.594   5.394  10.171  0.3030 -0.1568 -0.4837
  158MOL0     C20729   2.547   5.263  10.148 -0.0115  0.1621  1.5175
  158MOL0     C20730   2.412   5.232  10.169 -0.3189  0.3646 -0.3852
  158MOL0     C20731   2.322   5.328  10.224  0.3630 -0.7934 -0.8523
  158MOL0     O20732   2.187   5.290  10.249  0.3556 -0.5932 -0.3139
  158MOL0     C20733   2.096   5.401  10.285 -0.5482 -0.1096 -1.0898
  158MOL0     C20734   2.050   5.492  10.180 -0.0483  0.2753 -0.4981
  158MOL0     C20735   1.985   5.410  10.074  0.1742  0.1724 -0.8374
  158MOL0     C20736   1.845   5.355  10.125 -0.1485 -0.0848 -0.0034
  158MOL0     C20737   1.752   5.298  10.015 -0.4759  0.4938  0.2604
  158MOL0     C20738   1.657   5.400   9.952 -0.0162 -0.5452 -0.7573
  158MOL0     C20739   1.552   5.351   9.858 -0.3973  0.5403  0.3154
  158MOL0     C20740   1.440   5.270   9.932  0.0765 -0.2237 -0.1208
  158MOL0     N20741   1.351   5.214   9.829 -0.1319  0.1394 -0.2729
  158MOL0     C20742   1.230   5.255   9.790 -0.3749  0.1488 -1.2070
  158MOL0     C20743   1.201   5.180   9.681  0.1488 -0.0236  0.2374
  158MOL0     C20744   1.070   5.183   9.606 -0.0312  0.5045 -0.2944
  158MOL0     C20745   0.983   5.064   9.640 -0.1050  0.0428 -0.3532
  158MOL0     C20746   1.018   4.937   9.555 -0.5162 -0.2038  0.1297
  158MOL0     C20747   0.990   4.951   9.407 -0.0929  0.5316 -0.2109
  158MOL0     O20748   0.859   5.015   9.388  0.2063  0.0486 -0.0929
  158MOL0     C20749   0.740   4.951   9.403  0.6361  0.1723  0.5391
  158MOL0     C20750   0.712   4.817   9.454 -0.2410 -0.4938 -0.0250
  158MOL0     C20751   0.588   4.758   9.452 -0.0421  0.0317  0.0309
  158MOL0     C20752   0.479   4.827   9.427  0.8764 -0.4116  0.6676
  158MOL0     C20753   0.338   4.772   9.445  0.5334 -0.3379  0.1500
  158MOL0     O20754   0.225   4.845   9.404  0.2366 -0.1393 -0.2932
  158MOL0     C20755   0.098   4.796   9.403 -0.4179 -0.5995  0.4101
  158MOL0     C20756  -0.001   4.889   9.433  0.0480 -1.1144 -0.3846
  158MOL0     C20757  -0.130   4.844   9.448 -0.4808  0.3009  0.0008
  158MOL0     C20758  -0.168   4.717   9.424  0.0788  0.4697  0.3674
  158MOL0     O20759  -0.293   4.680   9.473  0.0762 -0.2680  0.2272
  158MOL0     C20760  -0.371   4.590   9.388  0.3438  0.0190  0.4217
  158MOL0     C20761  -0.522   4.600   9.432 -0.6876 -0.2143 -0.5650
  158MOL0     C20762  -0.581   4.741   9.409  0.6367  1.3664  0.0067
  158MOL0     C20763  -0.736   4.741   9.388 -0.2516  0.2635 -0.2973
  158MOL0     C20764  -0.815   4.689   9.509 -0.6053 -0.0519  0.3076
  158MOL0     C20765  -0.969   4.703   9.478  0.2585 -0.5197  0.1926
  158MOL0     C20766  -1.050   4.611   9.574  0.3122  0.9011 -0.4180
  158MOL0     C20767  -1.184   4.679   9.610 -0.4208 -0.4459 -0.8822
  158MOL0    Cl20768  -1.281   4.606   9.734  0.2241  0.1799  0.0949
  158MOL0     C20769  -0.076   4.631   9.379 -0.4428  0.0297 -0.2616
  158MOL0     C20770   0.059   4.667   9.367  0.5302 -0.0479  0.1806
  158MOL0     O20771   0.331   4.665   9.501  0.2075 -0.0443  0.1780
  158MOL0     C20772   0.499   4.959   9.391 -0.0551 -0.8330 -0.2702
  158MOL0     C20773   0.619   5.024   9.374  1.1022  0.5066  0.1340
  158MOL0     N20774   1.308   5.094   9.655 -0.4227  0.6267  0.2413
  158MOL0     N20775   1.391   5.114   9.749  0.0491 -0.9213 -0.1938
  158MOL0     C20776   2.372   5.460  10.244  0.9528 -0.1920 -0.3640
  158MOL0     C20777   2.504   5.491  10.218 -0.3742 -1.0667  0.5232
  158MOL0     C20778   2.954   5.378  10.080  0.3195  0.3531  0.3502
  158MOL0     C20779   3.073   5.354  10.131 -1.1213 -0.5976 -0.2299
  158MOL0     C20780   3.193   5.391  10.067  0.5799  0.3023 -0.0929
  158MOL0     C20781   3.189   5.461   9.947  0.6842 -0.4741 -0.7758
  158MOL0     O20782   3.296   5.497   9.868 -0.4261  0.2033 -0.1236
  158MOL0     C20783   3.432   5.455   9.898  0.1336  0.6343  0.0737
  158MOL0     C20784   3.517   5.541   9.802 -0.3847  0.2433  0.2121
  158MOL0     C20785   3.650   5.476   9.778  0.1624 -0.0630  0.2601
  158MOL0     C20786   3.748   5.505   9.895 -0.2654 -0.1071  0.4686
  158MOL0     C20787   3.884   5.474   9.846  0.8509  0.6142  0.7655
  158MOL0     C20788   3.997   5.434   9.821  0.5721 -0.2744 -0.2191
  158MOL0     C20789   3.064   5.494   9.903  0.2252 -0.0491 -0.1616
  158MOL0     C20790   2.945   5.455   9.965 -1.0862 -0.3112 -0.3473
  158MOL0     H20791   2.605   5.183  10.103 -1.2204  0.5164 -0.8456
  158MOL0     H20792   2.376   5.132  10.146 -0.6330  0.1907  0.8140
  158MOL0     H20793   2.133   5.462  10.368 -1.9501 -1.8864  0.9563
  158MOL0     H20794   2.006   5.360  10.332  0.4951  1.1196  2.2727
  158MOL0     H20795   2.145   5.539  10.149  0.7777 -0.3850  0.9305
  158MOL0     H20796   1.986   5.574  10.215  0.9405  0.6010  0.6361
  158MOL0     H20797   2.061   5.344  10.032  2.6615  2.5237 -0.3232
  158MOL0     H20798   1.963   5.480   9.993  2.7715  0.2973 -1.5348
  158MOL0     H20799   1.859   5.265  10.185  1.5196 -1.1433 -1.8315
  158MOL0     H20800   1.788   5.434  10.175 -0.8234 -0.7719  0.3301
  158MOL0     H20801   1.690   5.229  10.074 -0.9357 -0.4425 -1.2451
  158MOL0     H20802   1.811   5.243   9.941  0.2608  0.3740  0.9103
  158MOL0     H20803   1.724   5.462   9.894 -1.0468  1.4759  0.0995
  158MOL0     H20804   1.604   5.448  10.035  0.4468 -0.9909 -0.1918
  158MOL0     H20805   1.493   5.432   9.815  1.0221  0.6313 -1.5768
  158MOL0     H20806   1.598   5.292   9.778  1.4508 -1.1038  2.4582
  158MOL0     H20807   1.390   5.340  10.001  1.9322  0.7015  0.3500
  158MOL0     H20808   1.491   5.197   9.995  1.6003  0.1331 -0.8951
  158MOL0     H20809   1.163   5.330   9.830 -0.9373  0.4363 -2.6258
  158MOL0     H20810   1.076   5.186   9.497 -1.6699 -3.3860 -0.6784
  158MOL0     H20811   1.012   5.271   9.633 -0.0368  0.2828  0.4489
  158MOL0     H20812   0.881   5.095   9.617 -0.1266 -0.5553 -1.0726
  158MOL0     H20813   0.996   5.059   9.749  1.2021  0.4003 -0.4654
  158MOL0     H20814   1.117   4.902   9.583 -1.1092 -1.5247  0.6525
  158MOL0     H20815   0.951   4.856   9.587 -1.1236  1.1008  2.4441
  158MOL0     H20816   0.991   4.851   9.362 -1.5512  0.5043 -0.2260
  158MOL0     H20817   1.057   5.009   9.342 -1.0231  0.1956 -1.5149
  158MOL0     H20818   0.786   4.753   9.500 -1.5476 -2.2577 -0.2690
  158MOL0     H20819   0.588   4.651   9.469  2.3638 -0.0753 -0.2293
  158MOL0     H20820   0.027   4.992   9.456  2.8372 -1.5197 -1.5737
  158MOL0     H20821  -0.214   4.910   9.468  1.1855  2.4329  0.3428
  158MOL0     H20822  -0.336   4.487   9.398  0.5774 -0.1790 -2.0361
  158MOL0     H20823  -0.356   4.615   9.283  0.9503 -1.4059  0.1549
  158MOL0     H20824  -0.523   4.574   9.538  1.1572 -2.1876 -0.9811
  158MOL0     H20825  -0.582   4.524   9.381 -2.2802  0.4462  0.2540
  158MOL0     H20826  -0.538   4.770   9.313 -1.0937 -0.3366 -1.3756
  158MOL0     H20827  -0.548   4.813   9.484 -1.1428  0.7603  1.4650
  158MOL0     H20828  -0.767   4.845   9.369 -0.6168  0.1076 -0.5675
  158MOL0     H20829  -0.752   4.681   9.298 -3.6696  0.7208 -0.1441
  158MOL0     H20830  -0.798   4.754   9.595  0.1809  0.5883 -0.3187
  158MOL0     H20831  -0.780   4.587   9.529  0.5080 -0.0782 -1.5368
  158MOL0     H20832  -1.000   4.672   9.378 -4.5671  0.7158  1.0824
  158MOL0     H20833  -0.994   4.808   9.491  0.1999 -0.6139  0.8441
  158MOL0     H20834  -1.074   4.515   9.529  1.8284 -0.1764  0.9508
  158MOL0     H20835  -0.992   4.591   9.664 -0.5438 -0.1963 -0.0931
  158MOL0     H20836  -1.249   4.670   9.523 -2.1302  1.7859  0.0602
  158MOL0     H20837  -1.159   4.781   9.640 -0.3870 -0.4498 -0.8960
  158MOL0     H20838  -0.102   4.529   9.355  0.2419 -0.1698 -0.1652
  158MOL0     H20839   0.135   4.595   9.339  1.8259  0.4193  2.3017
  158MOL0     H20840   0.409   5.011   9.359 -0.8336 -0.7896  1.8485
  158MOL0     H20841   0.630   5.121   9.327  0.0050  0.4450 -0.2747
  158MOL0     H20842   2.311   5.537  10.290  2.2356 -1.3674  3.7159
  158MOL0     H20843   2.543   5.592  10.224 -0.7857 -0.8927  0.2916
  158MOL0     H20844   3.081   5.303  10.226  1.4674 -0.7133 -0.4166
  158MOL0     H20845   3.287   5.353  10.107  1.0572  2.5943  1.1266
  158MOL0     H20846   3.441   5.350   9.869  0.0359  0.7114 -0.2406
  158MOL0     H20847   3.465   5.480   9.999 -2.6323 -0.6142  1.3814
  158MOL0     H20848   3.464   5.560   9.708 -0.1865  0.7294  0.1968
  158MOL0     H20849   3.530   5.640   9.845 -2.0560  1.3477 -1.6305
  158MOL0     H20850   3.687   5.530   9.691 -1.3779 -0.4712 -0.6839
  158MOL0     H20851   3.637   5.370   9.756  0.1239  0.1938 -1.0330
  158MOL0     H20852   3.741   5.606   9.936 -0.2167  1.4859 -3.0889
  158MOL0     H20853   3.728   5.434   9.976  0.1922 -0.4358  0.2943
  158MOL0     H20854   4.104   5.430   9.813  0.4194 -1.2782 -2.5953
  158MOL0     H20855   3.071   5.547   9.809  2.0044 -2.8301 -1.7515
  158MOL0     H20856   2.856   5.489   9.913  0.5442  1.7751 -1.9377
  159MOL0     O20857   1.962   2.981   4.117  0.4773  0.5983 -0.4571
  159MOL0     C20858   1.985   3.024   4.006 -0.7054  0.1884  0.2463
  159MOL0     O20859   1.905   3.005   3.898  0.3235 -0.0675 -0.0809
  159MOL0     C20860   1.775   2.969   3.926 -0.5087  1.7193 -0.4292
  159MOL0     C20861   1.683   3.061   3.973 -0.5976 -0.3623 -0.0661
  159MOL0     C20862   1.550   3.025   3.991 -0.2546 -0.2264  0.2387
  159MOL0     C20863   1.511   2.889   3.967  0.4386 -0.4855 -0.2356
  159MOL0     O20864   1.383   2.848   3.991  0.3794  0.5665 -0.4776
  159MOL0     C20865   1.280   2.946   4.006  0.2686  0.5064  0.8403
  159MOL0     C20866   1.149   2.876   4.039 -0.1356 -0.7315  0.0316
  159MOL0     C20867   1.028   2.970   4.017 -0.2577 -0.8201  0.7289
  159MOL0     C20868   0.899   2.892   4.040  1.1843 -0.3650  0.1584
  159MOL0     C20869   0.780   3.001   4.079  0.9028  0.2203 -0.1259
  159MOL0     C20870   0.745   3.106   3.961 -0.0302 -0.1916  0.3865
  159MOL0     C20871   0.736   3.027   3.828 -0.5299  0.0469  0.1522
  159MOL0     C20872   0.700   3.111   3.705  0.5032 -0.6339  0.0340
  159MOL0     N20873   0.727   3.029   3.590  0.3523 -0.9940 -1.1493
  159MOL0     C20874   0.670   2.910   3.554  0.2490 -0.4744  0.4754
  159MOL0     C20875   0.730   2.871   3.435  1.0376  0.6616 -1.0950
  159MOL0     C20876   0.691   2.772   3.333  0.0938  0.6244  0.1906
  159MOL0     C20877   0.581   2.821   3.243  0.6764 -0.7527  0.2670
  159MOL0     C20878   0.559   2.715   3.127  0.0060  0.5359  0.7305
  159MOL0     C20879   0.427   2.754   3.053 -0.3525 -0.0474 -0.7870
  159MOL0     O20880   0.330   2.736   3.158  0.4856  0.5518  0.5911
  159MOL0     C20881   0.197   2.765   3.146  0.5593 -0.0571 -0.4453
  159MOL0     C20882   0.150   2.830   3.033 -0.3574 -0.1393 -0.1500
  159MOL0     C20883   0.013   2.853   3.010 -0.5441 -0.5434 -0.4607
  159MOL0     C20884  -0.078   2.817   3.109 -0.0395 -0.3171 -0.6098
  159MOL0     C20885  -0.220   2.842   3.089 -0.3202  0.0530 -0.1547
  159MOL0     O20886  -0.307   2.840   3.202 -0.2875  0.6721 -0.3442
  159MOL0     C20887  -0.421   2.910   3.186  0.1165  0.5734 -0.6194
  159MOL0     C20888  -0.545   2.858   3.209 -0.6190 -0.4631 -1.3973
  159MOL0     C20889  -0.660   2.938   3.204 -0.0650  0.8256 -0.4234
  159MOL0     C20890  -0.649   3.076   3.192  0.4182  0.6494  0.0804
  159MOL0     O20891  -0.755   3.176   3.168 -0.5782  0.5302 -0.1917
  159MOL0     C20892  -0.893   3.139   3.164 -0.2816 -0.5388  0.1227
  159MOL0     C20893  -0.999   3.249   3.171  0.1058  0.3487 -0.3038
  159MOL0     C20894  -0.953   3.377   3.081 -0.2546  0.5140 -0.1746
  159MOL0     C20895  -1.060   3.476   3.081 -0.8485 -0.4354 -0.5771
  159MOL0     C20896  -1.007   3.595   2.991 -0.2594 -0.0341 -0.1903
  159MOL0     C20897  -1.119   3.690   2.944 -0.4141  0.0929  0.2858
  159MOL0     C20898  -1.188   3.772   3.055  0.4425  0.4615 -0.5254
  159MOL0     C20899  -1.100   3.891   3.110 -0.0173 -0.0178  0.4795
  159MOL0    Cl20900  -1.143   3.907   3.277  0.0924  0.1773 -0.3277
  159MOL0     C20901  -0.518   3.128   3.163 -0.0445 -0.7270 -0.0119
  159MOL0     C20902  -0.406   3.048   3.165  0.5924 -0.9477  0.3760
  159MOL0     O20903  -0.254   2.875   2.977 -0.3319  0.1293 -0.0417
  159MOL0     C20904  -0.030   2.752   3.221  0.2904  0.1787 -0.1091
  159MOL0     C20905   0.110   2.722   3.239  1.5339  0.4258  0.2061
  159MOL0     N20906   0.834   2.955   3.425 -0.4109  0.1373  0.7017
  159MOL0     N20907   0.830   3.051   3.510  0.2855  0.6519 -0.3507
  159MOL0     C20908   1.600   2.796   3.917 -0.7584 -0.5200  0.7007
  159MOL0     C20909   1.728   2.835   3.898  0.0655  1.2596 -0.0405
  159MOL0     C20910   2.116   3.086   3.992  0.0968 -0.1483  0.5695
  159MOL0     C20911   2.189   3.089   3.868  0.4624 -0.9113  0.6006
  159MOL0     C20912   2.312   3.159   3.848  0.2537 -0.2301 -0.0860
  159MOL0     C20913   2.374   3.217   3.965 -0.2067 -0.1771  0.1845
  159MOL0     O20914   2.494   3.263   3.942 -0.5843 -0.5390 -0.5030
  159MOL0     C20915   2.497   3.402   3.944 -0.4623 -0.3394  0.4359
  159MOL0     C20916   2.496   3.471   3.809  0.0810  0.9268 -0.7259
  159MOL0     C20917   2.485   3.622   3.841  0.4652  0.5055  0.3883
  159MOL0     C20918   2.588   3.712   3.771  0.0297  0.4861 -0.0298
  159MOL0     C20919   2.717   3.705   3.830 -0.4119  0.4754  0.3076
  159MOL0     C20920   2.828   3.706   3.883  0.3033 -0.7837 -0.5483
  159MOL0     C20921   2.309   3.207   4.091  0.3023 -0.6128  0.1697
  159MOL0     C20922   2.185   3.144   4.099 -0.4779  1.3604 -0.1664
  159MOL0     H20923   1.711   3.166   3.975 -1.4843 -0.0930 -0.7237
  159MOL0     H20924   1.485   3.104   4.027 -2.4238 -0.4584 -2.7852
  159MOL0     H20925   1.267   2.997   3.910 -0.2444 -2.0397 -0.5345
  159MOL0     H20926   1.298   3.032   4.072  2.6029  0.6150  0.1805
  159MOL0     H20927   1.158   2.840   4.142  0.2311 -0.9201 -0.0679
  159MOL0     H20928   1.132   2.793   3.970 -0.0611 -0.4998 -0.2668
  159MOL0     H20929   1.019   3.008   3.915  2.4552  2.0014  1.3988
  159MOL0     H20930   1.043   3.050   4.090  1.7585  0.2487 -0.7541
  159MOL0     H20931   0.856   2.835   3.957 -1.7271  0.2635  1.1021
  159MOL0     H20932   0.914   2.814   4.116 -2.0732  0.7404  2.1587
  159MOL0     H20933   0.809   3.062   4.166  0.6336  0.8739 -0.4924
  159MOL0     H20934   0.692   2.950   4.119 -0.0274 -1.2205 -3.7145
  159MOL0     H20935   0.825   3.181   3.955 -1.0999  1.4895  4.2067
  159MOL0     H20936   0.652   3.155   3.989  0.0889  0.8338 -0.9443
  159MOL0     H20937   0.838   2.990   3.809  0.1324  1.5926  0.5516
  159MOL0     H20938   0.668   2.942   3.837 -0.3832 -0.3822 -2.2874
  159MOL0     H20939   0.758   3.204   3.713  0.0334 -0.1945 -1.4072
  159MOL0     H20940   0.595   3.140   3.708  0.9718  2.4791 -3.9652
  159MOL0     H20941   0.584   2.860   3.598 -1.8576 -0.0367 -2.8116
  159MOL0     H20942   0.671   2.675   3.379  2.4244  0.1482  0.3275
  159MOL0     H20943   0.780   2.758   3.271  0.0382 -1.9054  0.5553
  159MOL0     H20944   0.605   2.915   3.191  1.7552 -1.2527 -0.1829
  159MOL0     H20945   0.494   2.838   3.307  1.1090 -0.3408  0.7558
  159MOL0     H20946   0.643   2.715   3.057  0.1282 -1.5059  0.8137
  159MOL0     H20947   0.546   2.613   3.164  2.6693  0.8685  2.9257
  159MOL0     H20948   0.415   2.684   2.970 -2.8675 -0.8029  0.1362
  159MOL0     H20949   0.436   2.855   3.013 -2.6507 -0.6914 -3.2603
  159MOL0     H20950   0.213   2.851   2.947 -0.0254 -0.1687  0.0826
  159MOL0     H20951  -0.009   2.895   2.912  0.6337  1.9783  0.2645
  159MOL0     H20952  -0.542   2.754   3.239 -1.2321 -0.2659 -0.6232
  159MOL0     H20953  -0.764   2.907   3.215 -0.4339  2.2615  0.4683
  159MOL0     H20954  -0.914   3.063   3.241  4.0521 -3.4764 -1.2038
  159MOL0     H20955  -0.900   3.087   3.068  0.9904 -2.8913  1.2137
  159MOL0     H20956  -1.005   3.283   3.275 -1.9956  1.8299 -0.8418
  159MOL0     H20957  -1.098   3.207   3.157 -0.0384 -1.5618  4.4329
  159MOL0     H20958  -0.944   3.341   2.978 -0.6820 -0.2488  0.0428
  159MOL0     H20959  -0.856   3.415   3.114 -0.2330  0.2033  0.1328
  159MOL0     H20960  -1.148   3.434   3.032 -0.0301 -2.0720 -0.7150
  159MOL0     H20961  -1.089   3.505   3.183 -2.6859  2.0609 -1.7011
  159MOL0     H20962  -0.988   3.539   2.899 -0.1013  0.4372 -0.4499
  159MOL0     H20963  -0.923   3.653   3.030 -0.9801  1.1285 -0.2804
  159MOL0     H20964  -1.190   3.630   2.886 -0.4879  2.2356 -2.0046
  159MOL0     H20965  -1.087   3.762   2.869  0.3736 -1.4940 -0.9679
  159MOL0     H20966  -1.276   3.825   3.016 -0.4733 -0.5669  0.0947
  159MOL0     H20967  -1.234   3.706   3.129  1.0713  1.2563  0.6209
  159MOL0     H20968  -1.125   3.982   3.054  1.0899 -0.1002 -0.2009
  159MOL0     H20969  -0.991   3.880   3.102  0.1905  1.4629  1.0819
  159MOL0     H20970  -0.509   3.233   3.134  1.8926 -2.0767 -5.7846
  159MOL0     H20971  -0.308   3.093   3.152  0.6620 -0.3257  2.6594
  159MOL0     H20972  -0.097   2.713   3.298 -1.0403  1.0303 -0.8079
  159MOL0     H20973   0.143   2.669   3.328  1.9657 -0.0212 -0.2111
  159MOL0     H20974   1.569   2.695   3.895 -0.3768 -0.7301  1.1036
  159MOL0     H20975   1.804   2.765   3.865 -0.5274 -0.8332  2.7146
  159MOL0     H20976   2.141   3.031   3.791 -0.7436 -1.2435  1.5688
  159MOL0     H20977   2.364   3.149   3.754  0.8012 -0.5661  0.2482
  159MOL0     H20978   2.585   3.438   3.997  0.4407  0.8043 -1.7043
  159MOL0     H20979   2.411   3.437   4.002 -0.8443  1.1032 -0.9410
  159MOL0     H20980   2.573   3.436   3.740  2.4878  0.7267  1.8566
  159MOL0     H20981   2.403   3.459   3.753  0.2989  0.1069 -0.9192
  159MOL0     H20982   2.490   3.642   3.949 -0.5548  0.8821  0.3689
  159MOL0     H20983   2.382   3.651   3.820  0.6656  0.5181 -0.5879
  159MOL0     H20984   2.582   3.706   3.662 -0.6454  3.6281 -0.2502
  159MOL0     H20985   2.568   3.818   3.787  0.7817  0.7557 -0.7896
  159MOL0     H20986   2.922   3.715   3.933  1.4720 -0.6573 -2.6704
  159MOL0     H20987   2.351   3.264   4.174 -3.2576 -1.6262  2.9377
  159MOL0     H20988   2.136   3.155   4.195  0.6669 -2.6606  1.0723
  160MOL0     O20989   8.475   3.911   1.971  0.4315  0.0302 -0.2757
  160MOL0     C20990   8.353   3.920   1.945 -0.0356  0.3824  0.2344
  160MOL0     O20991   8.292   3.907   1.818  0.2485  1.0670  0.3700
  160MOL0     C20992   8.375   3.885   1.711  0.3047 -0.3299 -0.0492
  160MOL0     C20993   8.362   3.972   1.600 -0.1531 -0.1828  0.8004
  160MOL0     C20994   8.419   3.939   1.479  0.4355 -0.3476  1.1194
  160MOL0     C20995   8.511   3.835   1.472 -0.2114 -0.7891  0.3452
  160MOL0     O20996   8.563   3.807   1.349 -0.3559 -0.7876 -0.5098
  160MOL0     C20997   8.700   3.772   1.350 -0.6479  0.0941 -0.2939
  160MOL0     C20998   8.769   3.824   1.224 -0.3164 -0.1744 -0.2461
  160MOL0     C20999   8.766   3.974   1.190 -0.1327 -0.3245 -0.3775
  160MOL0     C21000   8.636   4.049   1.203 -0.1636 -0.3991  0.2723
  160MOL0     C21001   8.648   4.186   1.150 -0.3378  0.6326 -0.3020
  160MOL0     C21002   8.520   4.222   1.071  0.4006 -0.0602  0.2077
  160MOL0     C21003   8.378   4.209   1.134  0.3180 -0.2867  0.5635
  160MOL0     C21004   8.342   4.326   1.235 -0.5826  0.5440  0.3973
  160MOL0     N21005   8.256   4.289   1.346 -0.1277 -0.2059 -0.1056
  160MOL0     C21006   8.249   4.348   1.471  0.0003  0.2938 -0.5587
  160MOL0     C21007   8.159   4.278   1.535 -0.2852 -0.0581 -1.0149
  160MOL0     C21008   8.129   4.292   1.674  0.2164 -0.6812 -0.5006
  160MOL0     C21009   8.043   4.419   1.706  0.7147  0.3440 -0.7027
  160MOL0     C21010   8.055   4.473   1.846 -0.2462  0.2910  1.2404
  160MOL0     C21011   7.930   4.445   1.942  0.4029  0.3917 -0.3834
  160MOL0     O21012   7.804   4.503   1.903  0.2508  0.3667  0.3252
  160MOL0     C21013   7.722   4.546   2.006  0.6559  0.4125  0.2742
  160MOL0     C21014   7.751   4.665   2.081  0.2880 -0.1501  0.7862
  160MOL0     C21015   7.666   4.704   2.193  0.1063  0.1309 -0.4401
  160MOL0     C21016   7.549   4.628   2.217 -0.2645  0.0425  0.1877
  160MOL0     C21017   7.448   4.677   2.310  0.1809 -0.0554 -0.9813
  160MOL0     O21018   7.322   4.648   2.285  0.2186 -0.2207  0.1775
  160MOL0     C21019   7.213   4.691   2.362 -0.0247  0.1541  0.4393
  160MOL0     C21020   7.206   4.810   2.428 -0.2830 -0.3243 -0.3393
  160MOL0     C21021   7.099   4.844   2.515 -1.3274 -0.8683  0.4971
  160MOL0     C21022   6.981   4.770   2.513 -0.1762  0.6428 -0.8862
  160MOL0     O21023   6.880   4.819   2.597 -0.3498  0.4558  0.1993
  160MOL0     C21024   6.742   4.801   2.571  1.0225  0.3654 -0.4960
  160MOL0     C21025   6.655   4.909   2.631 -0.3228  0.2813 -0.2995
  160MOL0     C21026   6.502   4.892   2.604 -0.1161  0.6791 -0.8051
  160MOL0     C21027   6.434   4.760   2.656 -0.0222  1.2746  0.1591
  160MOL0     C21028   6.280   4.770   2.632  0.3012  0.3091  0.1609
  160MOL0     C21029   6.189   4.643   2.657 -0.2016  0.1408  0.1896
  160MOL0     C21030   6.043   4.672   2.678  0.0797  0.8424  0.4637
  160MOL0     C21031   5.965   4.547   2.723 -0.0104 -0.0107  0.4193
  160MOL0    Cl21032   6.026   4.490   2.883  0.3989 -0.1907 -0.2575
  160MOL0     C21033   6.978   4.648   2.440  0.0851 -0.3779  0.3563
  160MOL0     C21034   7.093   4.614   2.366 -0.0066 -0.4080  0.0511
  160MOL0     O21035   7.486   4.744   2.404 -0.5508  0.2464 -0.6065
  160MOL0     C21036   7.526   4.512   2.136  0.3709 -0.0463 -1.0020
  160MOL0     C21037   7.613   4.466   2.038  0.1192  0.0695  0.4387
  160MOL0     N21038   8.114   4.178   1.452 -0.4891 -0.0667  0.3348
  160MOL0     N21039   8.167   4.187   1.337  0.1878  0.3559 -0.5995
  160MOL0     C21040   8.536   3.755   1.586  0.2695  0.0743  0.8237
  160MOL0     C21041   8.468   3.785   1.701  0.0895 -0.3693 -0.9080
  160MOL0     C21042   8.258   3.965   2.044 -0.5898 -0.2986  0.3116
  160MOL0     C21043   8.142   4.037   2.012 -0.2821 -0.2188  0.5133
  160MOL0     C21044   8.066   4.095   2.104 -0.1689  0.1041  0.2388
  160MOL0     C21045   8.104   4.091   2.232  0.6014 -0.6304 -0.5341
  160MOL0     O21046   8.032   4.157   2.328  0.2775  0.0322  0.1759
  160MOL0     C21047   7.888   4.149   2.337 -1.2885  0.1415  0.3719
  160MOL0     C21048   7.806   4.286   2.346 -0.0986 -0.5275 -0.5887
  160MOL0     C21049   7.848   4.366   2.473 -0.0935  0.3752 -0.2541
  160MOL0     C21050   7.797   4.509   2.450  0.2892  0.2466 -0.2633
  160MOL0     C21051   7.812   4.599   2.564 -1.3678 -0.0518  0.3944
  160MOL0     C21052   7.831   4.656   2.666 -0.2481  0.1525  0.1847
  160MOL0     C21053   8.218   4.027   2.276  0.1106 -0.2640  0.3156
  160MOL0     C21054   8.299   3.961   2.178  1.0250 -0.2410  0.1220
  160MOL0     H21055   8.283   4.046   1.615  0.2646 -0.0002  2.1666
  160MOL0     H21056   8.405   4.005   1.394 -1.0507  0.1620  1.7243
  160MOL0     H21057   8.722   3.664   1.350  2.2855  0.5699 -2.0094
  160MOL0     H21058   8.749   3.823   1.434 -0.4811  0.8483 -0.8390
  160MOL0     H21059   8.715   3.771   1.146 -0.8598 -0.1615  0.1178
  160MOL0     H21060   8.875   3.794   1.228 -0.2637  0.0893  2.8446
  160MOL0     H21061   8.800   3.978   1.086  0.3998 -0.2308 -0.2030
  160MOL0     H21062   8.839   4.017   1.259  0.0223 -1.7249  0.3730
  160MOL0     H21063   8.568   3.990   1.140  1.1316  1.5940 -3.2391
  160MOL0     H21064   8.599   4.066   1.305 -0.2517  1.3103 -0.0300
  160MOL0     H21065   8.734   4.185   1.083  1.2434  0.4837  1.6611
  160MOL0     H21066   8.667   4.251   1.236  1.9907 -2.3091  1.5909
  160MOL0     H21067   8.529   4.161   0.981 -0.7006 -0.6051  0.4386
  160MOL0     H21068   8.528   4.328   1.048  4.2310  0.3195  2.3983
  160MOL0     H21069   8.311   4.225   1.049  2.3364  1.1656 -0.8308
  160MOL0     H21070   8.370   4.105   1.167  2.5860 -0.1523  1.7099
  160MOL0     H21071   8.298   4.404   1.172 -0.1202  1.3957  1.1185
  160MOL0     H21072   8.438   4.364   1.270 -1.5350  1.6119  1.9353
  160MOL0     H21073   8.310   4.429   1.511  0.4781 -0.0206 -0.6408
  160MOL0     H21074   8.228   4.284   1.719  0.3351  0.0895 -0.6176
  160MOL0     H21075   8.073   4.213   1.726 -0.0998  2.0875  3.8996
  160MOL0     H21076   7.940   4.402   1.673  0.5045 -0.5804  0.3887
  160MOL0     H21077   8.074   4.498   1.636 -0.3520  1.7000  0.2956
  160MOL0     H21078   8.144   4.427   1.891  0.5282 -0.2600 -0.7336
  160MOL0     H21079   8.052   4.582   1.840  1.2390  0.2672 -2.6774
  160MOL0     H21080   7.962   4.474   2.043  0.9321 -1.4512  0.0072
  160MOL0     H21081   7.918   4.337   1.948  1.6816  0.2933  0.9659
  160MOL0     H21082   7.841   4.717   2.048  0.7785 -1.2249  0.3767
  160MOL0     H21083   7.691   4.791   2.253 -0.4566  2.5319 -3.4180
  160MOL0     H21084   7.287   4.881   2.420 -2.2028  2.0346 -0.1697
  160MOL0     H21085   7.105   4.929   2.582 -4.5431 -0.4922  0.4603
  160MOL0     H21086   6.705   4.711   2.622  0.3187  0.5275 -0.7080
  160MOL0     H21087   6.716   4.802   2.465  0.8697  1.9917 -0.4725
  160MOL0     H21088   6.685   5.001   2.579  2.6232  0.5801  1.7116
  160MOL0     H21089   6.669   4.906   2.739  0.2717 -3.0654 -0.3631
  160MOL0     H21090   6.486   4.888   2.496 -0.0851  2.5091 -0.9012
  160MOL0     H21091   6.457   4.987   2.634  1.6602  0.4037  3.4492
  160MOL0     H21092   6.470   4.678   2.593  1.0765  0.9493  1.1641
  160MOL0     H21093   6.455   4.738   2.761  1.8689 -0.6874 -0.5586
  160MOL0     H21094   6.262   4.817   2.535  0.0550  3.5244  1.6620
  160MOL0     H21095   6.251   4.844   2.707  0.6637 -1.3807  2.0756
  160MOL0     H21096   6.227   4.584   2.741  0.4829  0.7770  0.3334
  160MOL0     H21097   6.197   4.577   2.571 -0.5938  0.9295 -0.4686
  160MOL0     H21098   6.016   4.757   2.741 -1.9052  2.0344 -1.7969
  160MOL0     H21099   5.985   4.680   2.585  0.3200  0.0728  0.2363
  160MOL0     H21100   5.965   4.471   2.645 -1.5523 -1.4929  1.7763
  160MOL0     H21101   5.857   4.559   2.733 -0.1727 -1.0928  0.0872
  160MOL0     H21102   6.884   4.596   2.453 -0.2355 -0.0160 -0.4673
  160MOL0     H21103   7.088   4.529   2.298 -1.3159  0.0580 -0.4687
  160MOL0     H21104   7.440   4.451   2.161  1.2881 -1.6462 -1.6073
  160MOL0     H21105   7.603   4.381   1.972  1.7498  0.4731 -0.3604
  160MOL0     H21106   8.588   3.660   1.589  2.5953  1.2806  3.1283
  160MOL0     H21107   8.487   3.715   1.782 -1.1778 -1.1860 -1.2853
  160MOL0     H21108   8.123   4.056   1.907 -2.1626  1.6709  1.1293
  160MOL0     H21109   7.985   4.164   2.086 -0.8114  0.0924  2.7829
  160MOL0     H21110   7.871   4.093   2.429  0.7218 -1.9781 -0.4665
  160MOL0     H21111   7.843   4.089   2.258 -0.8857  0.8298 -0.3913
  160MOL0     H21112   7.807   4.348   2.255 -1.6498 -0.0940 -0.3421
  160MOL0     H21113   7.699   4.268   2.362  0.2467 -0.7327  1.7541
  160MOL0     H21114   7.957   4.368   2.482 -0.1099  2.1111 -0.1029
  160MOL0     H21115   7.805   4.314   2.559  1.2386 -0.8253 -0.2723
  160MOL0     H21116   7.857   4.554   2.371 -1.2799 -0.7341 -2.0870
  160MOL0     H21117   7.696   4.503   2.408  0.4580 -2.3578 -0.5091
  160MOL0     H21118   7.858   4.702   2.759 -0.7157 -0.5835  0.6958
  160MOL0     H21119   8.252   4.015   2.378  0.3589  1.1049  0.4125
  160MOL0     H21120   8.393   3.922   2.215  1.8959  1.0867 -0.6025
  161MOL0     O21121   4.393   3.355   8.744  0.3393 -0.5109 -0.2177
  161MOL0     C21122   4.394   3.474   8.707 -0.4871  0.1389 -0.3733
  161MOL0     O21123   4.324   3.572   8.765  0.0732 -1.0182  0.3395
  161MOL0     C21124   4.248   3.545   8.878 -0.5154 -0.8572 -0.3380
  161MOL0     C21125   4.116   3.524   8.871 -0.5897  0.2814  0.3099
  161MOL0     C21126   4.044   3.513   8.989 -0.0216 -0.1316 -0.6675
  161MOL0     C21127   4.097   3.529   9.113 -0.1480 -0.2754  0.0350
  161MOL0     O21128   4.007   3.532   9.219 -0.4618 -0.1664 -0.7971
  161MOL0     C21129   4.059   3.520   9.348 -0.2188  0.0784 -1.0840
  161MOL0     C21130   3.944   3.511   9.450 -0.8413  0.5436 -0.7268
  161MOL0     C21131   4.015   3.477   9.582 -0.5352  0.1118 -0.0295
  161MOL0     C21132   3.911   3.456   9.696 -0.0819  0.4239  0.0598
  161MOL0     C21133   3.831   3.322   9.696  0.2481  0.3330  0.4405
  161MOL0     C21134   3.915   3.195   9.660 -0.5723 -0.6179 -0.2099
  161MOL0     C21135   4.016   3.168   9.775 -0.5239  0.4204  0.1451
  161MOL0     C21136   3.960   3.115   9.904  0.0631  0.7347 -0.4389
  161MOL0     N21137   3.891   2.988   9.886  0.1773  0.9297 -0.3372
  161MOL0     C21138   3.767   2.944   9.936 -0.5328 -0.2771  0.0264
  161MOL0     C21139   3.742   2.825   9.874 -0.5260 -0.1776  0.3712
  161MOL0     C21140   3.630   2.723   9.899 -0.1935 -0.5685  0.6070
  161MOL0     C21141   3.504   2.778   9.947  0.2614  0.5339  0.6510
  161MOL0     C21142   3.394   2.670   9.967 -0.5097 -0.5448  0.3024
  161MOL0     C21143   3.427   2.576  10.090 -0.1534 -0.2493  0.0878
  161MOL0     O21144   3.443   2.664  10.206  0.2130  0.2769  0.2688
  161MOL0     C21145   3.323   2.699  10.269 -0.6190 -1.1444 -0.6952
  161MOL0     C21146   3.189   2.692  10.214  1.2494 -0.7420 -0.3727
  161MOL0     C21147   3.087   2.741  10.293 -0.2100  0.0766  0.3917
  161MOL0     C21148   3.099   2.783  10.432 -0.5186  0.4911  0.3081
  161MOL0     C21149   2.979   2.823  10.516  0.3567  0.8766 -0.3098
  161MOL0     O21150   2.866   2.837  10.451 -0.0604  0.5360 -0.2413
  161MOL0     C21151   2.754   2.872  10.516 -1.0977 -0.5852 -0.2108
  161MOL0     C21152   2.729   2.940  10.638 -0.3896  0.4982  0.1179
  161MOL0     C21153   2.603   2.975  10.692  0.4213 -0.2261  0.4330
  161MOL0     C21154   2.486   2.959  10.612 -0.3282 -0.5391  0.3938
  161MOL0     O21155   2.371   3.028  10.641  0.3253 -0.1494  0.6469
  161MOL0     C21156   2.351   3.057  10.784 -0.1390  0.0342  0.7875
  161MOL0     C21157   2.206   3.076  10.811 -1.1268 -0.5024  0.0189
  161MOL0     C21158   2.136   2.952  10.767 -0.6958 -0.6835 -0.0700
  161MOL0     C21159   1.992   2.940  10.823 -0.3949  0.0369  0.0653
  161MOL0     C21160   1.906   3.050  10.766 -0.8914 -0.8417  0.5983
  161MOL0     C21161   1.762   3.033  10.814 -0.1485  0.0905 -0.1458
  161MOL0     C21162   1.691   3.160  10.762 -0.4646  0.4123 -0.2715
  161MOL0     C21163   1.543   3.159  10.807  0.6311 -0.9054  0.2330
  161MOL0    Cl21164   1.464   3.318  10.786 -0.2251  0.2081 -0.1199
  161MOL0     C21165   2.507   2.892  10.486  1.1944  0.2642  0.1420
  161MOL0     C21166   2.635   2.847  10.445  0.8482 -0.3809 -0.2127
  161MOL0     O21167   2.990   2.816  10.637 -0.3384  0.7756  0.5875
  161MOL0     C21168   3.234   2.780  10.482  0.2901  0.5481  0.0800
  161MOL0     C21169   3.341   2.743  10.410  0.8518 -0.2749  0.3706
  161MOL0     N21170   3.857   2.793   9.801 -0.1247  0.3696  0.4939
  161MOL0     N21171   3.946   2.881   9.812  1.1780 -0.5392  0.3430
  161MOL0     C21172   4.240   3.546   9.122  0.5560  0.1964 -0.0707
  161MOL0     C21173   4.314   3.554   9.001  0.8174 -1.0600  0.4967
  161MOL0     C21174   4.474   3.508   8.587 -0.7128  0.1612 -0.5094
  161MOL0     C21175   4.470   3.637   8.526  0.0713 -0.5078 -0.5735
  161MOL0     C21176   4.542   3.669   8.420  0.8077 -0.8861 -0.3028
  161MOL0     C21177   4.620   3.565   8.364 -0.2736  0.0673 -0.5145
  161MOL0     O21178   4.688   3.600   8.253  0.6246  0.3877  0.1471
  161MOL0     C21179   4.818   3.553   8.215  0.0275  0.2733  0.3979
  161MOL0     C21180   4.924   3.646   8.271 -0.2603  0.1780 -0.5301
  161MOL0     C21181   5.059   3.583   8.300 -0.1093  0.6108  0.0682
  161MOL0     C21182   5.147   3.592   8.172  0.9266 -0.7079  0.5743
  161MOL0     C21183   5.279   3.543   8.193  0.2674  0.0090 -0.4210
  161MOL0     C21184   5.392   3.497   8.184  0.6536  0.3144  0.4306
  161MOL0     C21185   4.630   3.437   8.422  0.1721 -0.1446 -0.3075
  161MOL0     C21186   4.557   3.410   8.532 -0.2449 -0.4790 -0.1846
  161MOL0     H21187   4.075   3.509   8.772  0.0890 -3.5295  0.4710
  161MOL0     H21188   3.938   3.493   8.985  0.1988 -1.3044 -0.8203
  161MOL0     H21189   4.121   3.607   9.374 -0.2892 -0.0635 -0.4365
  161MOL0     H21190   4.129   3.436   9.348  0.1419  0.3591 -1.9299
  161MOL0     H21191   3.868   3.438   9.421 -1.8770  1.7356 -1.0856
  161MOL0     H21192   3.888   3.604   9.465 -1.6280 -0.2963  2.3206
  161MOL0     H21193   4.075   3.563   9.614  0.4496 -0.4636 -0.2913
  161MOL0     H21194   4.080   3.390   9.577 -2.6107 -1.6605  1.6949
  161MOL0     H21195   3.969   3.450   9.788 -2.8367  0.1433  1.9062
  161MOL0     H21196   3.838   3.538   9.702 -0.8163  0.0317 -2.3496
  161MOL0     H21197   3.755   3.333   9.618  0.5349 -1.4694 -0.1348
  161MOL0     H21198   3.773   3.306   9.787  0.6685  0.9806  0.8273
  161MOL0     H21199   3.962   3.208   9.562  1.4442  1.1909  0.9132
  161MOL0     H21200   3.842   3.114   9.653 -0.5225 -0.6774 -0.0494
  161MOL0     H21201   4.090   3.094   9.741 -2.0074 -1.3790  0.6604
  161MOL0     H21202   4.072   3.257   9.803  1.0095  0.1163 -1.7362
  161MOL0     H21203   3.898   3.193   9.948  0.4224 -0.9447  3.4342
  161MOL0     H21204   4.044   3.094   9.970  0.7044  1.6958 -0.9296
  161MOL0     H21205   3.693   2.992   9.999 -0.7797 -0.7915  0.1375
  161MOL0     H21206   3.665   2.657   9.978 -1.1941  0.5068  2.0139
  161MOL0     H21207   3.610   2.653   9.818  0.6581  1.7006 -1.6892
  161MOL0     H21208   3.457   2.856   9.887 -1.5843 -0.4285  0.7668
  161MOL0     H21209   3.540   2.832  10.036  1.1849 -1.0047  1.2578
  161MOL0     H21210   3.298   2.720   9.983  0.1288  0.2225  2.0923
  161MOL0     H21211   3.385   2.611   9.876 -0.6531  1.9784 -1.4201
  161MOL0     H21212   3.513   2.511  10.072 -0.5069  0.0092 -3.0744
  161MOL0     H21213   3.342   2.511  10.117 -2.5194  2.0893 -1.2724
  161MOL0     H21214   3.158   2.668  10.113 -3.3657  0.0793  0.6154
  161MOL0     H21215   2.986   2.734  10.252 -0.5852  1.6333  0.9830
  161MOL0     H21216   2.811   2.956  10.707  0.0528 -1.1178  0.0289
  161MOL0     H21217   2.605   3.031  10.785 -1.5501  0.4296  0.1277
  161MOL0     H21218   2.393   3.154  10.812 -0.2534  0.1945  0.4170
  161MOL0     H21219   2.395   2.979  10.847  3.2073 -1.7422 -3.2265
  161MOL0     H21220   2.165   3.167  10.765 -1.5898  0.2346  1.7627
  161MOL0     H21221   2.205   3.097  10.919  2.0165 -2.2546  0.5059
  161MOL0     H21222   2.191   2.871  10.815 -1.8345 -1.3187  0.1877
  161MOL0     H21223   2.138   2.948  10.658  2.8057 -0.6665 -0.1030
  161MOL0     H21224   1.955   2.841  10.795  1.2079 -0.8986  1.0895
  161MOL0     H21225   1.985   2.963  10.929 -3.2681  1.9625 -0.4313
  161MOL0     H21226   1.913   3.045  10.657  2.9533  1.3444  0.5413
  161MOL0     H21227   1.935   3.151  10.799 -0.9519 -0.7523  0.3811
  161MOL0     H21228   1.756   3.028  10.923 -3.4983 -1.8868 -0.2626
  161MOL0     H21229   1.717   2.945  10.767  0.0698 -2.7817  4.4416
  161MOL0     H21230   1.732   3.257  10.793 -0.7940  0.4843 -0.0533
  161MOL0     H21231   1.689   3.177  10.654  2.5732  1.3944 -0.2828
  161MOL0     H21232   1.541   3.128  10.912  1.1022  0.2562  0.6003
  161MOL0     H21233   1.489   3.083  10.748 -0.8354 -0.0997  0.4883
  161MOL0     H21234   2.428   2.896  10.411 -1.9485 -0.2934  3.1885
  161MOL0     H21235   2.638   2.793  10.352  2.1107  1.0371 -1.0471
  161MOL0     H21236   3.266   2.800  10.584 -1.1705 -0.8155  0.8509
  161MOL0     H21237   3.444   2.737  10.445  1.0444 -2.3599 -0.4217
  161MOL0     H21238   4.294   3.553   9.216  0.6222 -0.2505 -0.0746
  161MOL0     H21239   4.422   3.556   9.004  0.9048 -2.9300  0.2066
  161MOL0     H21240   4.400   3.712   8.562 -1.3605 -1.6462 -0.9012
  161MOL0     H21241   4.555   3.765   8.370 -0.1644 -0.8002 -0.3957
  161MOL0     H21242   4.829   3.554   8.106 -3.5080  2.7177 -0.0954
  161MOL0     H21243   4.831   3.456   8.263 -2.3480 -0.3979 -0.2243
  161MOL0     H21244   4.928   3.732   8.202  1.7784 -0.3352 -1.1260
  161MOL0     H21245   4.869   3.675   8.361 -3.7408  2.1537 -3.0259
  161MOL0     H21246   5.058   3.479   8.335 -1.5127  1.4535  2.7648
  161MOL0     H21247   5.107   3.638   8.382  0.4140  1.4306 -0.7649
  161MOL0     H21248   5.095   3.534   8.094 -0.0226  2.2850 -1.1652
  161MOL0     H21249   5.143   3.687   8.118 -0.3339 -1.2765 -0.3940
  161MOL0     H21250   5.478   3.433   8.183  0.5784 -0.0801  4.4641
  161MOL0     H21251   4.696   3.359   8.384  0.7313 -1.1828  2.4969
  161MOL0     H21252   4.569   3.316   8.585  1.7441  0.4536  1.1597
  162MOL0     O21253   6.726   6.756   7.723 -0.6538  0.1024 -0.6854
  162MOL0     C21254   6.686   6.811   7.621  0.5983 -0.1966 -0.5608
  162MOL0     O21255   6.557   6.823   7.570  0.0326  0.0234 -0.2774
  162MOL0     C21256   6.454   6.750   7.626  0.1868 -0.1122  0.7529
  162MOL0     C21257   6.334   6.736   7.551 -0.1129  0.6216 -0.4862
  162MOL0     C21258   6.224   6.664   7.586  0.1253 -0.9590 -0.9109
  162MOL0     C21259   6.221   6.605   7.715  0.0302  0.6287  0.7186
  162MOL0     O21260   6.111   6.546   7.760  0.3200  0.2369  0.4920
  162MOL0     C21261   6.106   6.540   7.904 -0.1362 -0.0693 -0.4573
  162MOL0     C21262   5.967   6.506   7.936 -0.5223 -0.0771  0.5664
  162MOL0     C21263   5.866   6.617   7.959 -0.2084 -0.4665 -0.6035
  162MOL0     C21264   5.730   6.572   8.026 -0.0959  0.3746  0.1343
  162MOL0     C21265   5.661   6.458   7.951  0.4955 -0.3752  0.2133
  162MOL0     C21266   5.532   6.410   8.026  0.2357  0.2499 -0.0667
  162MOL0     C21267   5.415   6.378   7.926  0.6173 -0.3202 -0.0555
  162MOL0     C21268   5.280   6.337   7.994 -1.3656  0.0732  0.0328
  162MOL0     N21269   5.186   6.322   7.882  0.1059  0.0568  0.1020
  162MOL0     C21270   5.101   6.414   7.848  0.1233  0.0208 -0.0301
  162MOL0     C21271   5.046   6.374   7.731 -0.0992 -1.0166  0.3055
  162MOL0     C21272   4.937   6.437   7.645  0.3866 -0.4244 -0.3495
  162MOL0     C21273   4.798   6.380   7.675 -0.0771 -0.4062  0.0206
  162MOL0     C21274   4.748   6.426   7.815  0.7943 -0.1043  0.0319
  162MOL0     C21275   4.607   6.370   7.838 -0.2815 -0.6281 -0.3027
  162MOL0     O21276   4.524   6.368   7.720  0.2716  0.2233 -0.1517
  162MOL0     C21277   4.388   6.341   7.743  0.7645  0.1010  0.1345
  162MOL0     C21278   4.337   6.261   7.849 -0.6125  0.1937  0.4776
  162MOL0     C21279   4.204   6.248   7.865  0.2664 -0.5089 -0.0636
  162MOL0     C21280   4.108   6.309   7.774  0.7888 -0.7200  0.5120
  162MOL0     C21281   3.956   6.297   7.791 -0.7308  0.3426  0.6001
  162MOL0     O21282   3.875   6.260   7.689 -0.1293  0.2665  0.4687
  162MOL0     C21283   3.754   6.211   7.720  0.3216  0.7187  0.6458
  162MOL0     C21284   3.643   6.291   7.701 -0.1730  0.4356 -0.1035
  162MOL0     C21285   3.524   6.262   7.762  0.7538 -0.6460 -0.7670
  162MOL0     C21286   3.511   6.157   7.844  0.5295 -0.6749 -1.2640
  162MOL0     O21287   3.396   6.127   7.914 -0.4230  0.8436  0.4418
  162MOL0     C21288   3.284   6.108   7.829  0.4447  0.0647 -0.2088
  162MOL0     C21289   3.193   6.004   7.890  0.4152  0.1799 -0.2875
  162MOL0     C21290   3.118   6.049   8.024  1.0099 -0.4723 -0.4139
  162MOL0     C21291   3.018   6.165   7.997 -0.4482  0.8538 -0.3743
  162MOL0     C21292   2.962   6.223   8.123  0.2467  0.0487 -0.2153
  162MOL0     C21293   2.881   6.350   8.097 -0.3348  0.6570  0.1743
  162MOL0     C21294   2.851   6.429   8.219  0.0937 -0.2186  0.3014
  162MOL0     C21295   2.791   6.566   8.205 -0.4614 -0.3356 -0.2036
  162MOL0    Cl21296   2.649   6.585   8.105 -0.0829 -0.2595 -0.4823
  162MOL0     C21297   3.620   6.077   7.861  1.1188  0.1051 -0.0300
  162MOL0     C21298   3.742   6.093   7.794  0.2395 -0.0037  0.7843
  162MOL0     O21299   3.916   6.311   7.905 -0.0259 -0.6628  0.0684
  162MOL0     C21300   4.159   6.393   7.675  0.2532 -0.0338  0.1740
  162MOL0     C21301   4.301   6.403   7.659  0.1789 -0.3291 -0.1937
  162MOL0     N21302   5.120   6.262   7.691 -0.3421  0.3763  0.0299
  162MOL0     N21303   5.190   6.220   7.794  0.2427  1.3158  0.2342
  162MOL0     C21304   6.346   6.598   7.789  0.3630 -0.5065 -0.1758
  162MOL0     C21305   6.455   6.677   7.749 -0.4286  0.1331  0.2195
  162MOL0     C21306   6.779   6.879   7.529 -1.2888  0.4244 -0.3933
  162MOL0     C21307   6.737   6.903   7.391 -0.5851 -0.3181 -0.4803
  162MOL0     C21308   6.839   6.947   7.299  0.4266 -0.7943  0.0248
  162MOL0     C21309   6.967   6.976   7.338  0.8654 -0.5605  0.0027
  162MOL0     O21310   7.054   7.033   7.249 -0.4150 -0.5603  0.3555
  162MOL0     C21311   7.184   6.980   7.256 -0.7165  0.4090 -0.5009
  162MOL0     C21312   7.187   6.843   7.200 -1.1361  1.0116 -0.1522
  162MOL0     C21313   7.329   6.808   7.173  0.4096  0.2423 -0.3272
  162MOL0     C21314   7.347   6.667   7.124 -0.0196  0.7232 -0.2457
  162MOL0     C21315   7.478   6.610   7.148 -0.6645 -0.5237  0.1024
  162MOL0     C21316   7.588   6.556   7.139  0.1455 -1.2803 -0.2380
  162MOL0     C21317   7.003   6.964   7.469  0.4449  0.0954 -0.5085
  162MOL0     C21318   6.911   6.918   7.564  0.0880  0.3149  0.0900
  162MOL0     H21319   6.337   6.791   7.458  4.0294  0.2293 -0.7896
  162MOL0     H21320   6.127   6.674   7.539 -0.8172  1.4097  1.3018
  162MOL0     H21321   6.150   6.620   7.965 -2.3167 -1.3434  3.1448
  162MOL0     H21322   6.166   6.451   7.929  1.5955  0.8895 -1.0398
  162MOL0     H21323   5.965   6.447   8.027  0.6365  1.4021  1.6008
  162MOL0     H21324   5.927   6.444   7.855 -0.4355 -2.9645  2.6075
  162MOL0     H21325   5.839   6.658   7.861 -0.0811  2.7319  0.5754
  162MOL0     H21326   5.907   6.693   8.027  1.8727 -2.3136  0.3136
  162MOL0     H21327   5.733   6.538   8.130  0.0600 -0.3576 -0.1023
  162MOL0     H21328   5.673   6.665   8.017 -2.9505 -1.3262 -0.6824
  162MOL0     H21329   5.735   6.382   7.929 -0.5438 -1.1540 -0.6601
  162MOL0     H21330   5.615   6.491   7.857  0.5572 -0.3051  0.2076
  162MOL0     H21331   5.491   6.477   8.102 -2.4273  0.8816 -1.9074
  162MOL0     H21332   5.551   6.314   8.075 -0.6500 -0.4092 -0.9865
  162MOL0     H21333   5.398   6.450   7.845 -1.4978 -0.9602 -0.2284
  162MOL0     H21334   5.446   6.285   7.878  0.2432 -0.4123 -0.1265
  162MOL0     H21335   5.241   6.402   8.072 -2.2130  0.1881 -0.4756
  162MOL0     H21336   5.299   6.241   8.043  1.2765  1.8749  2.8145
  162MOL0     H21337   5.077   6.513   7.887  0.1248  1.0804 -2.5660
  162MOL0     H21338   4.962   6.418   7.540 -0.2563  1.6906 -0.9400
  162MOL0     H21339   4.928   6.546   7.652  0.1014 -0.5027  0.6835
  162MOL0     H21340   4.797   6.271   7.663 -0.8607 -0.7210  2.4933
  162MOL0     H21341   4.731   6.424   7.600 -0.8693  1.2773  1.6379
  162MOL0     H21342   4.811   6.389   7.896 -2.7690 -2.2629  2.0867
  162MOL0     H21343   4.746   6.535   7.818 -0.5835 -0.1187  1.0017
  162MOL0     H21344   4.559   6.435   7.913  0.6823 -0.0591 -0.1593
  162MOL0     H21345   4.623   6.270   7.879 -0.6941 -0.3877  0.4655
  162MOL0     H21346   4.407   6.213   7.917 -0.0641  1.0430  0.5316
  162MOL0     H21347   4.157   6.177   7.932 -0.0967 -1.8675 -1.6911
  162MOL0     H21348   3.654   6.381   7.641  4.3052  0.9071  1.0451
  162MOL0     H21349   3.439   6.329   7.755  1.2062  0.3559  1.9875
  162MOL0     H21350   3.308   6.066   7.731  2.5496  0.7668 -0.0523
  162MOL0     H21351   3.234   6.203   7.812  0.6816 -0.1349 -2.2565
  162MOL0     H21352   3.253   5.915   7.912  0.3038 -0.3397 -1.9620
  162MOL0     H21353   3.114   5.981   7.818  1.4982  0.9128 -1.7648
  162MOL0     H21354   3.184   6.086   8.103  0.0129 -0.3715  0.4016
  162MOL0     H21355   3.071   5.962   8.072  0.6390 -0.7399 -1.2441
  162MOL0     H21356   3.063   6.248   7.941 -1.0663  1.5578  0.1416
  162MOL0     H21357   2.944   6.133   7.922  0.2565  1.2541 -1.2581
  162MOL0     H21358   3.036   6.249   8.198 -0.8227  2.6180  0.0290
  162MOL0     H21359   2.892   6.150   8.166  2.1920 -3.2273 -2.1551
  162MOL0     H21360   2.783   6.322   8.057 -2.1381  2.4446  2.9902
  162MOL0     H21361   2.929   6.413   8.022 -0.0177  0.3106  0.0789
  162MOL0     H21362   2.789   6.358   8.275  0.6085 -2.6630 -2.0018
  162MOL0     H21363   2.941   6.445   8.279 -0.8886  1.3342  1.4128
  162MOL0     H21364   2.869   6.637   8.174  2.4886 -2.7285  1.2934
  162MOL0     H21365   2.772   6.593   8.309  1.5341 -0.3539  0.2148
  162MOL0     H21366   3.593   6.000   7.932  1.0659  2.9952  3.3904
  162MOL0     H21367   3.822   6.021   7.805 -1.2606 -1.7056  1.1072
  162MOL0     H21368   4.106   6.440   7.592 -0.2062 -0.7515  0.0534
  162MOL0     H21369   4.345   6.464   7.580  0.9571 -1.1573 -0.4227
  162MOL0     H21370   6.361   6.546   7.883 -0.2280 -1.0912 -0.3974
  162MOL0     H21371   6.528   6.715   7.820 -0.7943  4.1134 -1.2525
  162MOL0     H21372   6.636   6.881   7.357  0.5563 -4.0364 -2.0278
  162MOL0     H21373   6.804   6.952   7.197 -2.4993 -1.6297  0.9086
  162MOL0     H21374   7.229   6.985   7.355 -1.0228 -1.3571 -0.2444
  162MOL0     H21375   7.247   7.045   7.195  0.4868  0.5187  0.8097
  162MOL0     H21376   7.151   6.771   7.274  0.2535  2.0186  1.5975
  162MOL0     H21377   7.124   6.837   7.111 -1.2506  3.8454 -0.3434
  162MOL0     H21378   7.389   6.831   7.262 -0.2608  0.7271  0.0115
  162MOL0     H21379   7.359   6.879   7.095  2.6445  0.6186  0.7853
  162MOL0     H21380   7.273   6.598   7.165  0.5557 -1.0726 -1.9984
  162MOL0     H21381   7.321   6.660   7.017  1.3581  0.9410 -0.6168
  162MOL0     H21382   7.689   6.520   7.132  1.4790  2.2183 -1.1283
  162MOL0     H21383   7.091   7.007   7.515 -1.2201  3.5224 -0.1632
  162MOL0     H21384   6.948   6.920   7.666 -1.0344 -2.6729  0.6537
  163MOL0     O21385   5.021  10.735   9.886 -0.0812  0.3243  0.4663
  163MOL0     C21386   5.090  10.710   9.984  0.8657  0.7371  0.4159
  163MOL0     O21387   5.053  10.640  10.091 -0.0417  0.3344  0.2585
  163MOL0     C21388   4.933  10.581  10.094 -0.8375  0.3910 -0.2876
  163MOL0     C21389   4.892  10.474  10.014 -0.4070 -0.9161 -0.6582
  163MOL0     C21390   4.762  10.426  10.024  0.7387 -0.4856  0.4758
  163MOL0     C21391   4.661  10.492  10.096 -0.4604  0.0117 -0.6057
  163MOL0     O21392   4.541  10.424  10.107  0.0953  0.3646  0.0463
  163MOL0     C21393   4.441  10.447  10.211  0.7541  0.3149  0.0334
  163MOL0     C21394   4.321  10.351  10.185  0.0933 -0.7313  0.1606
  163MOL0     C21395   4.267  10.381  10.044 -0.0603 -0.1935 -0.4259
  163MOL0     C21396   4.134  10.313  10.041  0.1173  0.9543  0.6256
  163MOL0     C21397   4.061  10.346   9.911  0.4814  0.4769 -0.6683
  163MOL0     C21398   4.141  10.318   9.789  0.0270 -0.5812  0.2221
  163MOL0     C21399   4.071  10.391   9.674  0.9053 -0.1138  0.2960
  163MOL0     C21400   4.144  10.383   9.535 -0.3767  0.2958  0.2677
  163MOL0     N21401   4.190  10.514   9.490  0.0774  0.7132 -0.1576
  163MOL0     C21402   4.243  10.613   9.564 -0.4568  0.1490 -0.4465
  163MOL0     C21403   4.277  10.722   9.482  0.5673 -0.4175 -0.6897
  163MOL0     C21404   4.342  10.854   9.501 -0.0040 -0.4647  0.6319
  163MOL0     C21405   4.490  10.855   9.534  0.5723  1.0168 -0.9018
  163MOL0     C21406   4.570  10.800   9.421  0.0916  0.3632  0.6892
  163MOL0     C21407   4.727  10.777   9.452 -0.8316 -0.6233 -0.4415
  163MOL0     O21408   4.811  10.859   9.365 -0.3574 -0.0352 -0.6383
  163MOL0     C21409   4.952  10.862   9.364  0.3891 -0.1809 -0.4987
  163MOL0     C21410   5.010  10.955   9.277 -0.0656  0.7139 -0.7015
  163MOL0     C21411   5.151  10.945   9.262  0.3181 -0.1345  0.7884
  163MOL0     C21412   5.230  10.848   9.334 -0.2471  0.8586 -1.2069
  163MOL0     C21413   5.376  10.850   9.324 -0.0530  0.1565  0.2652
  163MOL0     O21414   5.436  10.757   9.402 -0.3591  0.0515  0.1379
  163MOL0     C21415   5.568  10.726   9.412 -0.4213 -0.2586 -0.6094
  163MOL0     C21416   5.588  10.600   9.460  0.4223 -0.2048  0.0897
  163MOL0     C21417   5.718  10.557   9.488  0.1171 -0.0757 -0.4914
  163MOL0     C21418   5.828  10.647   9.479  0.2213  0.3935 -0.8398
  163MOL0     O21419   5.952  10.591   9.520  0.5018 -0.3113 -0.0400
  163MOL0     C21420   6.064  10.678   9.519 -0.3567 -0.8241  0.1813
  163MOL0     C21421   6.192  10.593   9.532  0.0837 -0.6111  0.0103
  163MOL0     C21422   6.301  10.683   9.569  0.2584  0.4060  0.1211
  163MOL0     C21423   6.432  10.605   9.572  0.1222  0.6211 -0.2460
  163MOL0     C21424   6.448  10.528   9.707 -0.6855 -0.2649 -0.6736
  163MOL0     C21425   6.468  10.631   9.823  0.6225  0.0528  0.4903
  163MOL0     C21426   6.578  10.735   9.795  0.0513 -0.2920 -0.3735
  163MOL0     C21427   6.567  10.844   9.911  1.7190  0.3312 -0.5116
  163MOL0    Cl21428   6.412  10.926   9.927  0.5246  0.5069  0.0346
  163MOL0     C21429   5.807  10.770   9.424  0.5932 -0.0898  0.8249
  163MOL0     C21430   5.676  10.813   9.389 -0.5483  0.5094  1.0670
  163MOL0     O21431   5.429  10.937   9.256  0.6687 -0.1983  0.4548
  163MOL0     C21432   5.167  10.766   9.432 -0.1351 -0.3330  0.2623
  163MOL0     C21433   5.028  10.774   9.434  1.1345  0.0769 -0.2509
  163MOL0     N21434   4.231  10.679   9.353  0.1205 -0.0396 -0.5718
  163MOL0     N21435   4.183  10.560   9.363  0.6142  0.1812  0.2529
  163MOL0     C21436   4.701  10.606  10.173 -0.3508  0.0285  0.0260
  163MOL0     C21437   4.834  10.648  10.167 -0.4849  0.3342  0.7322
  163MOL0     C21438   5.227  10.758   9.979  0.6480 -0.6631 -0.0242
  163MOL0     C21439   5.299  10.765  10.098 -0.1689 -0.2138 -0.3030
  163MOL0     C21440   5.429  10.813  10.091  0.1754 -0.2049  0.2579
  163MOL0     C21441   5.491  10.838   9.966  0.1512  0.4835 -0.5800
  163MOL0     O21442   5.621  10.875   9.974 -0.0020  0.5745  0.4975
  163MOL0     C21443   5.698  10.885   9.848  0.2962 -0.1679  0.2767
  163MOL0     C21444   5.728  10.751   9.783 -0.5057 -0.2544 -0.0544
  163MOL0     C21445   5.789  10.643   9.874 -0.2599  0.5136 -0.2527
  163MOL0     C21446   5.941  10.657   9.872  0.5642  0.8232  1.0878
  163MOL0     C21447   6.003  10.778   9.918 -0.7366  0.1626 -0.4053
  163MOL0     C21448   6.069  10.881   9.939  0.3057 -0.4689  1.1086
  163MOL0     C21449   5.417  10.829   9.848 -0.2886  0.0905  0.0394
  163MOL0     C21450   5.286  10.790   9.853  0.0804  0.3733 -0.3672
  163MOL0     H21451   4.967  10.447   9.940  0.3457 -0.7380  0.0285
  163MOL0     H21452   4.745  10.333   9.971  0.7386 -0.1716 -0.0947
  163MOL0     H21453   4.394  10.546  10.214 -1.3661 -0.6548  2.5226
  163MOL0     H21454   4.488  10.434  10.309  1.8118 -0.5487 -0.5609
  163MOL0     H21455   4.245  10.381  10.258  0.1636  0.6448 -0.3105
  163MOL0     H21456   4.342  10.245  10.198 -1.9801 -1.0957  0.9521
  163MOL0     H21457   4.339  10.336   9.976  2.0194  0.2730  1.3671
  163MOL0     H21458   4.259  10.489  10.029 -2.2069 -0.1927  0.3566
  163MOL0     H21459   4.144  10.204  10.043 -1.8629  0.7126  0.0772
  163MOL0     H21460   4.077  10.337  10.131  0.2332 -1.8828  1.5619
  163MOL0     H21461   4.041  10.453   9.916 -1.8765  0.0276  1.2995
  163MOL0     H21462   3.962  10.301   9.918 -0.3877  2.5363  1.4533
  163MOL0     H21463   4.149  10.210   9.775  0.9067 -1.0054  3.3279
  163MOL0     H21464   4.245  10.353   9.797  0.4804 -1.8303 -0.0929
  163MOL0     H21465   3.976  10.340   9.655  0.9224  0.4769 -1.5058
  163MOL0     H21466   4.052  10.495   9.699 -0.9477 -0.1686 -0.6841
  163MOL0     H21467   4.074  10.360   9.454 -0.5541  1.7067 -0.0133
  163MOL0     H21468   4.228  10.314   9.525  0.9413  2.0977 -1.7910
  163MOL0     H21469   4.278  10.597   9.666 -0.2433  0.1615 -0.5192
  163MOL0     H21470   4.282  10.906   9.576 -0.9590 -2.2588  1.1710
  163MOL0     H21471   4.324  10.900   9.403  0.3939 -1.6230  0.0078
  163MOL0     H21472   4.514  10.802   9.627  0.5389 -0.4945 -1.7266
  163MOL0     H21473   4.520  10.959   9.545  1.5032  0.7125 -0.3770
  163MOL0     H21474   4.527  10.701   9.399 -0.6303  0.7657  0.2514
  163MOL0     H21475   4.562  10.869   9.337 -1.8522 -0.4713  0.1466
  163MOL0     H21476   4.749  10.671   9.437  1.8390 -0.2365  0.1236
  163MOL0     H21477   4.751  10.796   9.557 -1.1040  1.7379 -0.7597
  163MOL0     H21478   4.953  11.014   9.207  1.9102 -0.5909 -3.6327
  163MOL0     H21479   5.193  11.016   9.192  2.0180  0.1932  2.0672
  163MOL0     H21480   5.503  10.534   9.475 -1.2169  1.5410 -1.0082
  163MOL0     H21481   5.740  10.458   9.526 -2.0070  0.0660  1.2928
  163MOL0     H21482   6.047  10.754   9.595  1.0009  0.4189 -0.7069
  163MOL0     H21483   6.073  10.732   9.424  1.9120 -0.5393  0.5177
  163MOL0     H21484   6.212  10.530   9.445  0.4653  2.0911 -1.9850
  163MOL0     H21485   6.178  10.523   9.615  1.2442  1.4470  2.0743
  163MOL0     H21486   6.286  10.746   9.657  1.8524 -0.3582  0.9726
  163MOL0     H21487   6.315  10.750   9.483  1.1736 -2.7921 -2.4171
  163MOL0     H21488   6.421  10.533   9.490 -1.9087  0.6071 -0.0235
  163MOL0     H21489   6.518  10.668   9.547 -1.7321  5.0023  3.0625
  163MOL0     H21490   6.536  10.465   9.693 -1.0277 -0.5752 -1.5305
  163MOL0     H21491   6.359  10.467   9.724 -0.0293 -2.2970 -3.7117
  163MOL0     H21492   6.483  10.578   9.918  1.0563 -0.6516  0.0338
  163MOL0     H21493   6.372  10.681   9.832  1.1023  0.9617  0.6665
  163MOL0     H21494   6.667  10.672   9.802 -0.5751 -1.1063  0.4410
  163MOL0     H21495   6.564  10.786   9.699 -3.5970  1.6895  0.9954
  163MOL0     H21496   6.637  10.926   9.892 -0.3822  2.5659  0.7974
  163MOL0     H21497   6.587  10.800  10.009 -1.2316 -0.8843 -0.3734
  163MOL0     H21498   5.876  10.854   9.427 -2.4151  2.5980  1.8287
  163MOL0     H21499   5.654  10.913   9.351 -0.2632  0.8647  1.8238
  163MOL0     H21500   5.225  10.700   9.496 -0.5376 -1.1274 -0.1685
  163MOL0     H21501   4.987  10.701   9.503 -0.2981  1.7966  0.7769
  163MOL0     H21502   4.631  10.656  10.240  1.2007  0.1230  1.6518
  163MOL0     H21503   4.850  10.735  10.230 -2.5794 -0.0758  1.9077
  163MOL0     H21504   5.251  10.736  10.191  0.8436 -0.4579  0.1537
  163MOL0     H21505   5.483  10.839  10.182 -0.7855  1.8314  0.2917
  163MOL0     H21506   5.796  10.929   9.868  0.7028 -1.4912  1.3080
  163MOL0     H21507   5.651  10.945   9.770  0.6257 -0.8883 -0.4865
  163MOL0     H21508   5.639  10.700   9.744  0.1888 -0.4119 -1.5042
  163MOL0     H21509   5.802  10.770   9.705 -0.8060  0.2149 -0.2232
  163MOL0     H21510   5.765  10.546   9.829  3.6457 -1.4336  1.2871
  163MOL0     H21511   5.758  10.638   9.979  2.2498 -0.8925  0.5121
  163MOL0     H21512   5.986  10.581   9.937 -0.7790 -1.2814 -0.3342
  163MOL0     H21513   5.964  10.620   9.772 -1.5097 -5.8082  2.5606
  163MOL0     H21514   6.113  10.978   9.951 -1.3733  0.6812 -1.2788
  163MOL0     H21515   5.457  10.842   9.747  2.6988  0.5537  1.1633
  163MOL0     H21516   5.218  10.783   9.769  1.8510  1.9333 -2.0269
  164MOL0     O21517   5.891   6.884  10.680 -0.4024  1.0946  0.0476
  164MOL0     C21518   5.900   7.008  10.694  0.0632  0.3691  0.3092
  164MOL0     O21519   5.808   7.089  10.756  0.0523  0.0943  0.0029
  164MOL0     C21520   5.683   7.042  10.789 -0.5510  1.0530  0.9637
  164MOL0     C21521   5.608   6.951  10.698 -0.4563 -0.2774 -0.1365
  164MOL0     C21522   5.486   6.893  10.729  0.3677  1.1974 -0.0902
  164MOL0     C21523   5.426   6.943  10.845 -0.2807  0.3622  0.0678
  164MOL0     O21524   5.302   6.892  10.880  0.0172 -0.3931 -0.5436
  164MOL0     C21525   5.286   6.751  10.883 -0.1820  0.4325  0.4728
  164MOL0     C21526   5.215   6.702  11.020 -0.2601  0.0208 -0.8550
  164MOL0     C21527   5.076   6.750  11.042 -0.3053  0.2030  0.0390
  164MOL0     C21528   4.981   6.691  10.936  0.3287  0.6699 -0.3654
  164MOL0     C21529   4.841   6.737  10.961 -0.2727 -0.6053  0.5721
  164MOL0     C21530   4.794   6.662  11.097  0.4182  0.9412  0.2204
  164MOL0     C21531   4.639   6.688  11.100  0.4486 -0.1836 -0.3615
  164MOL0     C21532   4.547   6.597  11.008 -0.1824  0.3176  0.0677
  164MOL0     N21533   4.401   6.614  11.022  0.5669  0.2866  0.0920
  164MOL0     C21534   4.338   6.602  11.138 -0.0887  0.3172 -0.6216
  164MOL0     C21535   4.219   6.672  11.127  0.2269 -0.5263 -0.0273
  164MOL0     C21536   4.111   6.668  11.239 -0.0865 -0.9382 -0.0012
  164MOL0     C21537   4.034   6.800  11.255 -0.3820 -0.3484 -0.0047
  164MOL0     C21538   3.943   6.807  11.377  0.3222  0.2031 -0.3409
  164MOL0     C21539   3.826   6.703  11.357  0.4948 -0.0134 -0.5013
  164MOL0     O21540   3.743   6.691  11.468  0.7323  0.4745  0.7504
  164MOL0     C21541   3.630   6.778  11.503 -0.4841 -0.5842  0.6070
  164MOL0     C21542   3.552   6.738  11.614 -0.0099 -0.1354 -0.2737
  164MOL0     C21543   3.429   6.799  11.648  0.3192 -0.4256 -0.1901
  164MOL0     C21544   3.385   6.916  11.575 -0.0827  1.0670  0.0006
  164MOL0     C21545   3.252   6.973  11.598  0.3660  0.1015  0.3871
  164MOL0     O21546   3.222   7.093  11.537  0.2436  0.8660  0.0731
  164MOL0     C21547   3.097   7.123  11.519  0.6887  0.6706 -0.5067
  164MOL0     C21548   3.003   7.032  11.469  1.1784 -0.0881  0.3725
  164MOL0     C21549   2.877   7.080  11.444  0.3472  0.0650 -0.0914
  164MOL0     C21550   2.841   7.213  11.465 -0.1759 -0.0116 -0.9671
  164MOL0     O21551   2.726   7.274  11.440  0.3798 -0.5599  0.3573
  164MOL0     C21552   2.608   7.198  11.463 -0.1200  0.4086 -0.6216
  164MOL0     C21553   2.477   7.269  11.435  0.1834  0.6380 -0.4013
  164MOL0     C21554   2.360   7.163  11.455 -0.2697  0.1115 -0.2962
  164MOL0     C21555   2.223   7.226  11.429 -0.2213 -0.3179  0.1637
  164MOL0     C21556   2.212   7.238  11.273 -0.2089 -0.4514  0.5846
  164MOL0     C21557   2.077   7.315  11.234 -0.7624 -0.2142 -0.6251
  164MOL0     C21558   2.066   7.341  11.082  0.6366  0.2905  0.4148
  164MOL0     C21559   1.933   7.417  11.038 -0.2795 -0.3359  0.1771
  164MOL0    Cl21560   1.944   7.596  11.076  0.4126 -0.1687 -0.1230
  164MOL0     C21561   2.942   7.299  11.508 -0.1088  0.3057  0.6041
  164MOL0     C21562   3.070   7.254  11.540 -0.9827 -0.0095  0.3923
  164MOL0     O21563   3.174   6.904  11.668  0.0282  0.1678 -0.6493
  164MOL0     C21564   3.465   6.969  11.468 -0.4099 -0.2406 -0.3895
  164MOL0     C21565   3.586   6.895  11.435  0.2274 -0.6012 -0.0710
  164MOL0     N21566   4.217   6.720  11.002 -0.4518 -0.5292 -0.6540
  164MOL0     N21567   4.323   6.687  10.938 -0.4831 -0.5751 -0.0723
  164MOL0     C21568   5.486   7.032  10.933 -0.4822 -0.8673  0.0421
  164MOL0     C21569   5.618   7.084  10.908  0.3019  0.1532  0.2394
  164MOL0     C21570   6.031   7.060  10.652 -0.2361  0.0419  0.7416
  164MOL0     C21571   6.056   7.193  10.669 -0.3024  0.7209  0.6640
  164MOL0     C21572   6.175   7.256  10.644 -0.1443 -1.1096  0.2994
  164MOL0     C21573   6.282   7.183  10.601 -0.8989 -0.4764  0.3246
  164MOL0     O21574   6.397   7.253  10.604  0.2833 -0.0750  0.4610
  164MOL0     C21575   6.526   7.178  10.600 -0.4647 -0.4868  0.1032
  164MOL0     C21576   6.652   7.243  10.655 -0.3475 -0.8476 -0.3631
  164MOL0     C21577   6.656   7.390  10.623 -0.1151  0.3519  0.1428
  164MOL0     C21578   6.800   7.431  10.635 -0.0193  0.1280 -0.1747
  164MOL0     C21579   6.820   7.570  10.619  0.1816  0.1570  0.4927
  164MOL0     C21580   6.849   7.689  10.604  0.0690 -0.1679  0.3154
  164MOL0     C21581   6.263   7.044  10.567  0.7044 -0.4404 -0.4414
  164MOL0     C21582   6.139   6.989  10.603  0.1851  0.5046 -0.6173
  164MOL0     H21583   5.644   6.929  10.598 -0.2935 -3.2225  0.4939
  164MOL0     H21584   5.444   6.818  10.663 -1.2425  1.9274  0.0620
  164MOL0     H21585   5.379   6.699  10.861 -0.5914 -0.2169  0.2754
  164MOL0     H21586   5.213   6.721  10.808  0.7337 -1.6565  0.3465
  164MOL0     H21587   5.282   6.739  11.099 -1.8927 -0.5145  0.8599
  164MOL0     H21588   5.208   6.594  11.037 -0.8304  0.1818  0.0324
  164MOL0     H21589   5.078   6.858  11.025  2.1734  0.5429  1.9299
  164MOL0     H21590   5.041   6.732  11.144 -3.1229  1.3317 -0.6417
  164MOL0     H21591   5.016   6.720  10.837  1.6310 -1.7104 -0.6794
  164MOL0     H21592   4.981   6.582  10.945  1.6637  0.7357  0.8402
  164MOL0     H21593   4.778   6.716  10.874  1.6524  2.4063 -1.7272
  164MOL0     H21594   4.834   6.846  10.957 -1.2455 -0.6592  0.4441
  164MOL0     H21595   4.842   6.706  11.185  0.4273  1.1380  0.1184
  164MOL0     H21596   4.816   6.555  11.099 -0.0121  0.6750 -3.2903
  164MOL0     H21597   4.596   6.679  11.200  0.4870  0.3601 -0.2911
  164MOL0     H21598   4.614   6.792  11.075 -4.1032 -1.5510 -2.5478
  164MOL0     H21599   4.568   6.492  11.030  1.0633 -0.0481 -2.4748
  164MOL0     H21600   4.578   6.617  10.904 -3.2485  1.6017 -0.6890
  164MOL0     H21601   4.369   6.555  11.231  0.5569  1.7890 -0.0749
  164MOL0     H21602   4.163   6.654  11.334 -0.5777 -0.6862  0.3078
  164MOL0     H21603   4.055   6.574  11.230  1.3609 -1.9161  0.7884
  164MOL0     H21604   3.979   6.824  11.164 -0.2727 -0.3087 -0.0610
  164MOL0     H21605   4.113   6.875  11.265  0.3465 -0.8088 -1.9732
  164MOL0     H21606   4.017   6.775  11.451 -0.1601  0.6634  0.3435
  164MOL0     H21607   3.912   6.907  11.405  1.2565 -0.0370  1.7179
  164MOL0     H21608   3.861   6.600  11.354 -1.5726 -1.1812  4.7565
  164MOL0     H21609   3.760   6.723  11.272 -0.4322 -1.7205 -0.2219
  164MOL0     H21610   3.572   6.641  11.657 -1.8909 -0.0381  0.9277
  164MOL0     H21611   3.369   6.762  11.731  0.5178  0.5706  0.4181
  164MOL0     H21612   3.040   6.934  11.443  1.3658  0.4308 -1.4695
  164MOL0     H21613   2.804   7.009  11.406  2.5854 -2.1965 -0.4140
  164MOL0     H21614   2.610   7.167  11.568 -0.2426  1.6133 -0.2530
  164MOL0     H21615   2.608   7.107  11.401 -0.8584 -1.5012  1.9887
  164MOL0     H21616   2.469   7.307  11.332 -4.2802 -2.7132 -1.6210
  164MOL0     H21617   2.455   7.341  11.514  0.8284  0.0973  0.2793
  164MOL0     H21618   2.371   7.139  11.561  2.1556 -4.2355 -1.3156
  164MOL0     H21619   2.376   7.066  11.408  2.1174  0.6669 -0.7701
  164MOL0     H21620   2.146   7.161  11.473  1.8699 -3.2418 -0.2226
  164MOL0     H21621   2.222   7.327  11.472  2.4096  0.7257 -1.9729
  164MOL0     H21622   2.227   7.143  11.222 -0.6418 -0.2604  0.1005
  164MOL0     H21623   2.291   7.303  11.234 -0.5128  1.4731  2.9309
  164MOL0     H21624   2.085   7.412  11.284  1.5825 -1.3028  1.3028
  164MOL0     H21625   1.996   7.257  11.278 -1.9724  0.8855 -1.3468
  164MOL0     H21626   2.145   7.410  11.053 -1.4096  1.4839 -2.9450
  164MOL0     H21627   2.076   7.253  11.017 -0.4648  1.1836 -1.0462
  164MOL0     H21628   1.858   7.371  11.103 -0.0745  0.6062  1.1038
  164MOL0     H21629   1.916   7.393  10.933 -0.7996  0.9288 -0.0382
  164MOL0     H21630   2.921   7.403  11.529 -1.5221 -0.0271  0.9253
  164MOL0     H21631   3.153   7.313  11.576 -0.4086  1.2405 -2.6210
  164MOL0     H21632   3.448   7.063  11.417  1.4542  0.0530 -0.5074
  164MOL0     H21633   3.651   6.937  11.359  1.6237 -0.4056  1.1803
  164MOL0     H21634   5.431   7.057  11.023 -1.8990 -0.8359 -0.8119
  164MOL0     H21635   5.667   7.152  10.977  1.2301 -1.3369  1.0978
  164MOL0     H21636   5.977   7.251  10.717  0.0833  0.3467  1.7905
  164MOL0     H21637   6.195   7.359  10.672  1.3194 -1.8072  2.0332
  164MOL0     H21638   6.536   7.146  10.496  0.1831 -1.1547  0.3659
  164MOL0     H21639   6.514   7.086  10.658  0.8504 -0.7898 -0.0805
  164MOL0     H21640   6.657   7.239  10.765  1.8779  0.5900 -0.3399
  164MOL0     H21641   6.737   7.186  10.615  0.1746 -2.2393  2.4528
  164MOL0     H21642   6.596   7.450  10.692  0.8307 -1.0044  2.2500
  164MOL0     H21643   6.629   7.405  10.518  0.3222 -2.3180 -0.4371
  164MOL0     H21644   6.830   7.401  10.736 -0.4135  0.5473  0.0668
  164MOL0     H21645   6.865   7.373  10.569 -0.1243 -0.5649  0.3126
  164MOL0     H21646   6.878   7.791  10.590  0.7318 -0.5662 -1.4159
  164MOL0     H21647   6.332   6.977  10.518 -1.3501 -0.8610 -2.9469
  164MOL0     H21648   6.132   6.884  10.579 -1.5005  0.6394 -0.8213
  165MOL0     O21649   8.499   6.300   8.040  0.3364 -0.0081  0.2578
  165MOL0     C21650   8.555   6.223   8.117 -0.0220 -0.0690 -0.0346
  165MOL0     O21651   8.487   6.175   8.232 -0.2362 -1.3640  0.2533
  165MOL0     C21652   8.360   6.220   8.257  0.4887 -0.2668  1.1360
  165MOL0     C21653   8.255   6.142   8.211  0.0681 -1.2383 -0.3668
  165MOL0     C21654   8.122   6.176   8.253 -0.2986 -0.3059  0.5852
  165MOL0     C21655   8.105   6.285   8.339 -0.1371  0.8341  0.3161
  165MOL0     O21656   7.976   6.296   8.381  0.1360 -0.1782  0.5397
  165MOL0     C21657   7.913   6.423   8.405  0.8219 -0.1986 -0.6748
  165MOL0     C21658   7.915   6.460   8.555 -0.9343  0.0259 -0.0915
  165MOL0     C21659   7.822   6.393   8.653 -0.0292  0.3006  0.4512
  165MOL0     C21660   7.692   6.351   8.597  0.3568  0.0704  0.9231
  165MOL0     C21661   7.592   6.299   8.706  0.9389  0.3902  0.4014
  165MOL0     C21662   7.470   6.404   8.730 -0.7656  0.4108  0.0771
  165MOL0     C21663   7.375   6.364   8.834 -0.5773 -0.1865 -0.8646
  165MOL0     C21664   7.280   6.477   8.873  0.0960 -1.1327 -0.1041
  165MOL0     N21665   7.223   6.453   9.004  0.4456 -0.0184 -0.0431
  165MOL0     C21666   7.153   6.348   9.054  0.3186 -0.1152  0.4297
  165MOL0     C21667   7.119   6.371   9.179  0.0341 -0.8105  0.0271
  165MOL0     C21668   7.034   6.282   9.273  0.6373  0.3400  1.0154
  165MOL0     C21669   6.886   6.299   9.256 -0.8261 -0.5695 -0.3807
  165MOL0     C21670   6.838   6.435   9.309  0.8680 -0.4354 -0.1112
  165MOL0     C21671   6.691   6.420   9.349 -0.5877  1.1453  0.2002
  165MOL0     O21672   6.616   6.535   9.412 -0.7173 -0.5422  0.5903
  165MOL0     C21673   6.481   6.542   9.401  0.3943  0.4096  0.5535
  165MOL0     C21674   6.409   6.655   9.351 -0.7435  0.3769 -0.6474
  165MOL0     C21675   6.270   6.656   9.344  0.2880 -0.9934  0.1620
  165MOL0     C21676   6.192   6.551   9.398  0.3948  0.0418 -0.1241
  165MOL0     C21677   6.044   6.546   9.397 -0.1414  0.4861  1.3141
  165MOL0     O21678   5.977   6.439   9.451 -0.6880 -0.2984  0.8393
  165MOL0     C21679   5.844   6.438   9.455  0.0735 -0.8128  0.3607
  165MOL0     C21680   5.770   6.337   9.408 -0.6744 -0.2186  1.1289
  165MOL0     C21681   5.629   6.335   9.423 -0.3768  0.2545 -0.5050
  165MOL0     C21682   5.558   6.431   9.502 -0.4110  0.0965 -0.0084
  165MOL0     O21683   5.419   6.416   9.521 -0.4459  0.0376 -0.4074
  165MOL0     C21684   5.343   6.499   9.615 -0.5611  0.3222  0.4062
  165MOL0     C21685   5.203   6.520   9.567  0.0177  0.1094 -0.0981
  165MOL0     C21686   5.115   6.592   9.677 -0.7656 -0.3949  0.4521
  165MOL0     C21687   4.981   6.639   9.627  0.6825  0.7400  0.2971
  165MOL0     C21688   4.910   6.523   9.544  0.1345 -0.0476  0.7503
  165MOL0     C21689   4.862   6.412   9.628  0.1508 -0.1632 -0.7771
  165MOL0     C21690   4.796   6.475   9.744 -0.1265 -0.6278  1.0875
  165MOL0     C21691   4.706   6.382   9.817  0.5310  0.5105  0.1383
  165MOL0    Cl21692   4.788   6.229   9.846  0.1092  0.0899 -0.3410
  165MOL0     C21693   5.636   6.546   9.538 -0.4226 -0.1554 -0.3525
  165MOL0     C21694   5.784   6.544   9.527 -0.2753  0.7358 -0.0038
  165MOL0     O21695   6.001   6.649   9.348  0.0275 -0.1335  0.4896
  165MOL0     C21696   6.259   6.437   9.439 -0.1272  0.2615  0.4871
  165MOL0     C21697   6.398   6.433   9.443 -0.2806 -0.5796  0.0129
  165MOL0     N21698   7.184   6.486   9.224  0.6566 -0.0844 -0.4803
  165MOL0     N21699   7.234   6.540   9.116  0.0663  0.0741  0.2665
  165MOL0     C21700   8.217   6.351   8.394  0.2090  0.5045  0.3930
  165MOL0     C21701   8.345   6.326   8.342  0.3725 -0.9903 -0.1590
  165MOL0     C21702   8.694   6.173   8.087 -0.1160  0.8714 -0.3464
  165MOL0     C21703   8.775   6.099   8.177  1.1764 -0.6463  0.1997
  165MOL0     C21704   8.904   6.072   8.144  0.0445  0.1842 -0.0724
  165MOL0     C21705   8.959   6.087   8.017 -0.4585 -0.1615  0.1069
  165MOL0     O21706   9.090   6.056   7.992  0.3802 -0.4992  0.3789
  165MOL0     C21707   9.159   6.153   7.901 -1.1665  0.3185 -0.1708
  165MOL0     C21708   9.160   6.302   7.935  0.6667  0.4761 -0.1649
  165MOL0     C21709   9.263   6.383   7.841 -0.7664 -1.2266  0.1808
  165MOL0     C21710   9.382   6.437   7.920  0.4531  1.0570  0.2057
  165MOL0     C21711   9.488   6.343   7.928  0.6937 -0.6838 -0.9597
  165MOL0     C21712   9.580   6.269   7.941  0.7195 -0.3653  0.0523
  165MOL0     C21713   8.878   6.153   7.920  0.7363  0.6855  0.0628
  165MOL0     C21714   8.742   6.186   7.958 -0.1583  0.1458 -0.5659
  165MOL0     H21715   8.280   6.061   8.142  0.8847  0.0107 -1.5798
  165MOL0     H21716   8.037   6.126   8.208  0.0421 -0.1132 -0.3084
  165MOL0     H21717   7.810   6.429   8.369  0.1901  2.1156  1.3164
  165MOL0     H21718   7.956   6.498   8.338 -0.9764 -0.1598 -1.8427
  165MOL0     H21719   7.879   6.563   8.560 -2.0950 -0.4165  3.1220
  165MOL0     H21720   8.015   6.459   8.599 -1.1279 -0.0902  0.3536
  165MOL0     H21721   7.799   6.471   8.726  1.1086  1.7946 -0.7238
  165MOL0     H21722   7.880   6.314   8.701 -0.8326  0.6455  2.0408
  165MOL0     H21723   7.647   6.429   8.534 -1.7108 -2.3879 -0.8444
  165MOL0     H21724   7.707   6.268   8.528 -1.1288  0.4674  0.0841
  165MOL0     H21725   7.648   6.270   8.796  4.8923  2.1771 -1.2395
  165MOL0     H21726   7.541   6.212   8.665 -0.3443 -0.0572  2.7401
  165MOL0     H21727   7.419   6.409   8.633 -0.6946 -0.3022 -0.0010
  165MOL0     H21728   7.511   6.504   8.751  0.1198  0.0908 -0.0802
  165MOL0     H21729   7.321   6.276   8.797 -0.8038 -0.1679 -0.5784
  165MOL0     H21730   7.430   6.325   8.919 -1.3958 -0.8603 -0.6324
  165MOL0     H21731   7.199   6.495   8.802 -1.0107  0.6193  1.5095
  165MOL0     H21732   7.334   6.571   8.885  1.1027 -1.4444 -1.8219
  165MOL0     H21733   7.112   6.269   8.992 -1.4264  0.7383  0.4629
  165MOL0     H21734   7.066   6.306   9.375 -1.1753 -1.6325  2.1245
  165MOL0     H21735   7.060   6.178   9.254 -0.5668  0.0780  0.7398
  165MOL0     H21736   6.836   6.216   9.307 -3.9974  1.9406  0.9641
  165MOL0     H21737   6.852   6.291   9.152  0.2970  0.9724 -0.9007
  165MOL0     H21738   6.903   6.466   9.391  3.4575 -1.5802 -1.6014
  165MOL0     H21739   6.847   6.514   9.234 -0.6736  0.7801  0.9237
  165MOL0     H21740   6.677   6.335   9.416  0.1265  1.5116  0.8249
  165MOL0     H21741   6.633   6.411   9.257 -0.6922  0.8204  0.2945
  165MOL0     H21742   6.462   6.738   9.305  0.7624  0.6656  1.4546
  165MOL0     H21743   6.222   6.742   9.300  1.3225 -2.0211 -3.2625
  165MOL0     H21744   5.821   6.264   9.347  3.2145  1.7004  1.7445
  165MOL0     H21745   5.574   6.253   9.377  1.3446 -0.3446 -1.5990
  165MOL0     H21746   5.385   6.594   9.649 -2.5679  1.9888 -1.4744
  165MOL0     H21747   5.326   6.434   9.702  2.6560 -0.9492  0.2204
  165MOL0     H21748   5.169   6.421   9.538 -0.5502  0.5839 -1.0990
  165MOL0     H21749   5.208   6.576   9.473 -1.4154 -0.1166 -0.3290
  165MOL0     H21750   5.171   6.681   9.707 -1.8806  1.8517 -3.4131
  165MOL0     H21751   5.105   6.537   9.771 -0.6650  1.3644  1.5426
  165MOL0     H21752   4.933   6.678   9.717  1.0726  0.5215  0.6013
  165MOL0     H21753   5.006   6.721   9.558  1.1228  0.5787  0.2686
  165MOL0     H21754   4.976   6.488   9.463 -0.6137  1.0207 -0.3396
  165MOL0     H21755   4.822   6.562   9.494 -1.5582 -1.6269  2.3344
  165MOL0     H21756   4.944   6.347   9.661 -0.8341 -0.6400  0.8056
  165MOL0     H21757   4.793   6.348   9.573 -0.2517 -4.5867  4.1753
  165MOL0     H21758   4.870   6.511   9.816 -0.7909  2.4274  0.3734
  165MOL0     H21759   4.742   6.566   9.718 -0.7087 -0.9732  1.0621
  165MOL0     H21760   4.612   6.364   9.766  0.5208  0.9986 -0.0184
  165MOL0     H21761   4.668   6.424   9.911  0.6068 -0.5704  0.6763
  165MOL0     H21762   5.605   6.631   9.597  1.6246 -0.7437  1.7026
  165MOL0     H21763   5.839   6.623   9.577  1.0629  1.6010 -2.6538
  165MOL0     H21764   6.211   6.351   9.483  1.3053 -0.3377  0.9554
  165MOL0     H21765   6.457   6.350   9.480  2.4283  1.7668  1.3413
  165MOL0     H21766   8.210   6.435   8.463 -2.5452 -0.4354  1.4241
  165MOL0     H21767   8.431   6.379   8.380 -1.1040  0.8777  0.7448
  165MOL0     H21768   8.731   6.074   8.273 -0.6972 -0.3045 -0.5209
  165MOL0     H21769   8.967   6.031   8.222 -2.4524 -1.1794  1.3766
  165MOL0     H21770   9.119   6.135   7.801 -2.9221  2.0171  0.1516
  165MOL0     H21771   9.264   6.126   7.916 -0.9317  0.7767 -0.9358
  165MOL0     H21772   9.058   6.339   7.919  1.3035  1.4405 -2.3718
  165MOL0     H21773   9.178   6.305   8.043 -1.4389 -1.4044  0.3179
  165MOL0     H21774   9.212   6.464   7.788  2.0905 -0.2828 -1.3543
  165MOL0     H21775   9.299   6.328   7.754  2.1348 -0.5624  0.8424
  165MOL0     H21776   9.419   6.527   7.872 -0.1770  0.8595 -0.6647
  165MOL0     H21777   9.347   6.466   8.020  0.3890  0.9549  0.2138
  165MOL0     H21778   9.653   6.191   7.945 -0.2854 -1.3390 -0.2015
  165MOL0     H21779   8.917   6.168   7.820 -1.3273  1.9772 -0.6206
  165MOL0     H21780   8.688   6.233   7.877  1.5337  1.7364 -0.8567
  166MOL0     O21781   3.590   8.495   3.439  0.7897  0.3826  0.3359
  166MOL0     C21782   3.464   8.523   3.439 -0.5407 -0.3498  0.9306
  166MOL0     O21783   3.408   8.629   3.370 -0.1894 -0.1028 -0.3086
  166MOL0     C21784   3.482   8.717   3.298  0.0871  0.1196 -0.2465
  166MOL0     C21785   3.598   8.783   3.339  0.8165  0.2847  0.3747
  166MOL0     C21786   3.660   8.872   3.258 -1.3225 -1.0077 -0.7032
  166MOL0     C21787   3.608   8.919   3.141 -0.5809  0.1836 -0.9315
  166MOL0     O21788   3.675   8.995   3.055  0.5190 -0.3075 -0.7256
  166MOL0     C21789   3.803   9.051   3.075  0.1518  0.7733  0.6327
  166MOL0     C21790   3.851   9.132   2.959 -0.5162  0.3795  1.3240
  166MOL0     C21791   3.999   9.171   2.960 -0.2329  0.6411 -0.1174
  166MOL0     C21792   4.102   9.063   2.933 -0.0418  0.0931 -0.8120
  166MOL0     C21793   4.246   9.103   2.877  0.3790  0.7939  0.5229
  166MOL0     C21794   4.247   9.153   2.738 -0.6341  0.0933 -0.2051
  166MOL0     C21795   4.180   9.067   2.633 -0.0125  0.6994 -0.8985
  166MOL0     C21796   4.198   8.920   2.633 -0.7989  0.3618 -0.2438
  166MOL0     N21797   4.337   8.883   2.600  0.4651 -0.3231 -0.0746
  166MOL0     C21798   4.405   8.923   2.491 -0.4839 -0.8966 -0.3525
  166MOL0     C21799   4.528   8.886   2.527 -0.2081 -0.9249  0.3090
  166MOL0     C21800   4.641   8.886   2.435  0.0503 -0.0045 -0.2278
  166MOL0     C21801   4.748   8.986   2.473 -0.9862  0.9482  0.1262
  166MOL0     C21802   4.840   8.946   2.589 -0.1463  0.3467  0.6438
  166MOL0     C21803   4.939   9.061   2.602 -0.1031 -0.0699  0.7194
  166MOL0     O21804   5.031   9.055   2.491 -0.5324  0.1218  0.5934
  166MOL0     C21805   5.167   9.041   2.523  0.3583 -0.6603 -0.0551
  166MOL0     C21806   5.247   8.988   2.422  0.2257  0.0426  1.1680
  166MOL0     C21807   5.380   8.967   2.449 -0.9469  0.5745  0.0407
  166MOL0     C21808   5.445   9.016   2.565 -0.6059  0.2336  0.2047
  166MOL0     C21809   5.591   8.995   2.581  0.7982  0.1225  0.0332
  166MOL0     O21810   5.649   9.041   2.695 -0.5156  0.0568 -0.1147
  166MOL0     C21811   5.792   9.029   2.700  0.1023  0.5093 -0.3216
  166MOL0     C21812   5.873   9.070   2.592  0.4137 -1.2138 -1.1451
  166MOL0     C21813   6.008   9.052   2.597 -0.4062 -0.3985  0.2029
  166MOL0     C21814   6.072   8.995   2.702 -0.2607 -0.3122  0.7787
  166MOL0     O21815   6.209   8.979   2.711 -0.5684 -0.1833  0.4409
  166MOL0     C21816   6.285   9.087   2.664  0.0755 -0.9300  0.3540
  166MOL0     C21817   6.430   9.074   2.715  0.0298 -0.7979  0.8897
  166MOL0     C21818   6.506   8.952   2.678  0.1107  0.1921  0.9653
  166MOL0     C21819   6.643   8.928   2.738 -1.3209 -0.0842  0.2351
  166MOL0     C21820   6.707   8.792   2.692  0.1183  0.3322  0.3337
  166MOL0     C21821   6.836   8.746   2.763 -0.2774 -0.2897 -0.4043
  166MOL0     C21822   6.945   8.857   2.758  0.2320  1.0361  0.9437
  166MOL0     C21823   7.073   8.789   2.798  0.4406 -0.2156  0.5466
  166MOL0    Cl21824   7.143   8.687   2.658  0.1865  0.3424 -0.1346
  166MOL0     C21825   6.000   8.981   2.824  0.8935 -0.6710  0.3198
  166MOL0     C21826   5.859   8.986   2.822  0.0083  0.5390 -1.0932
  166MOL0     O21827   5.647   8.935   2.489  0.0107 -0.3382  0.1431
  166MOL0     C21828   5.362   9.076   2.664  0.3607  0.0378 -0.8514
  166MOL0     C21829   5.222   9.084   2.645 -0.6095 -0.5211 -0.2089
  166MOL0     N21830   4.526   8.829   2.652 -0.7454  0.5886  0.3534
  166MOL0     N21831   4.410   8.839   2.704 -0.1909 -0.1190  0.3845
  166MOL0     C21832   3.492   8.848   3.092 -0.1144 -1.0894 -0.2559
  166MOL0     C21833   3.429   8.759   3.174 -0.6123  0.5572  0.2538
  166MOL0     C21834   3.363   8.445   3.515 -0.1852  0.1492  0.5943
  166MOL0     C21835   3.413   8.364   3.616  0.2232 -0.1078 -0.2230
  166MOL0     C21836   3.335   8.299   3.706  0.5238 -0.1682  0.3554
  166MOL0     C21837   3.193   8.341   3.707  0.5706 -1.2960 -0.2536
  166MOL0     O21838   3.098   8.299   3.796 -0.0211  0.2218  0.5249
  166MOL0     C21839   3.141   8.209   3.901  0.5787  0.0365 -0.1571
  166MOL0     C21840   3.029   8.169   4.000 -0.0436 -0.6129 -0.7140
  166MOL0     C21841   2.962   8.287   4.075 -0.7646  0.1320 -0.8515
  166MOL0     C21842   2.874   8.386   3.990 -0.2308  0.5603 -0.8692
  166MOL0     C21843   2.763   8.317   3.915 -0.5954  0.3418  0.3311
  166MOL0     C21844   2.679   8.258   3.847 -0.6390 -0.7882  0.0981
  166MOL0     C21845   3.145   8.417   3.599 -0.7333  0.3473  0.1365
  166MOL0     C21846   3.229   8.480   3.508 -0.8501  0.1433 -0.0072
  166MOL0     H21847   3.648   8.743   3.427  1.0218 -0.7713 -0.2018
  166MOL0     H21848   3.756   8.911   3.289  0.1560 -3.1236 -2.3129
  166MOL0     H21849   3.872   8.971   3.102  0.4755  1.2919  1.3771
  166MOL0     H21850   3.785   9.119   3.159  0.2897 -0.0495  1.3506
  166MOL0     H21851   3.792   9.224   2.954 -1.1410 -0.0374 -3.1918
  166MOL0     H21852   3.830   9.069   2.872 -2.0835  1.1852  1.0844
  166MOL0     H21853   4.040   9.216   3.050 -1.2973 -1.4211  1.4827
  166MOL0     H21854   4.007   9.242   2.877 -0.7460 -1.9979 -2.6319
  166MOL0     H21855   4.133   9.019   3.028  0.3951 -1.4962 -1.6534
  166MOL0     H21856   4.057   8.979   2.879 -0.9849  0.2287 -0.2446
  166MOL0     H21857   4.299   9.008   2.888 -4.4809 -2.2430  0.8754
  166MOL0     H21858   4.287   9.181   2.942  1.3366  2.1734 -1.6138
  166MOL0     H21859   4.354   9.152   2.715 -0.8295 -1.6439 -1.2408
  166MOL0     H21860   4.203   9.252   2.723 -2.9442 -0.8656 -0.3097
  166MOL0     H21861   4.072   9.082   2.647  0.1941  1.4382  0.0320
  166MOL0     H21862   4.199   9.108   2.534 -0.9557 -0.8800 -1.7689
  166MOL0     H21863   4.132   8.868   2.562 -1.2894  3.5781 -2.3493
  166MOL0     H21864   4.173   8.885   2.733 -0.8270  1.5291  0.1719
  166MOL0     H21865   4.371   8.968   2.398 -1.1693  1.9354  1.1466
  166MOL0     H21866   4.616   8.914   2.332 -0.4594 -2.4993 -0.8545
  166MOL0     H21867   4.686   8.786   2.433 -1.0389 -0.5206  0.2276
  166MOL0     H21868   4.689   9.072   2.506 -1.9335  1.4396 -2.6255
  166MOL0     H21869   4.819   9.007   2.393  0.9649  1.2668  1.8719
  166MOL0     H21870   4.784   8.952   2.683  0.1159  0.9002  0.7689
  166MOL0     H21871   4.883   8.846   2.579  1.5632  0.5540  4.2667
  166MOL0     H21872   4.986   9.053   2.700  1.7484 -0.6528 -0.1482
  166MOL0     H21873   4.895   9.161   2.599  2.1478  0.9581 -1.2057
  166MOL0     H21874   5.208   8.967   2.323 -0.1756  2.4412  0.7544
  166MOL0     H21875   5.439   8.912   2.377  1.6879  2.5201  0.5734
  166MOL0     H21876   5.818   9.107   2.506 -1.7286  2.0866  1.3406
  166MOL0     H21877   6.051   9.077   2.501 -1.4569  5.6214  0.9045
  166MOL0     H21878   6.247   9.186   2.690  2.5088  0.4584 -1.0128
  166MOL0     H21879   6.295   9.092   2.555  3.7273  1.4144  0.6126
  166MOL0     H21880   6.427   9.064   2.824  1.8503 -1.1445  0.9276
  166MOL0     H21881   6.480   9.163   2.675 -0.6102 -2.1238 -3.3606
  166MOL0     H21882   6.500   8.959   2.569  0.7732  1.5890  1.0012
  166MOL0     H21883   6.443   8.865   2.701 -1.8011  0.3537 -2.9084
  166MOL0     H21884   6.707   9.012   2.708  0.8068 -1.3345  1.1198
  166MOL0     H21885   6.638   8.928   2.847 -0.3079  0.1808  0.2875
  166MOL0     H21886   6.743   8.809   2.590  0.6292 -3.8805 -0.3523
  166MOL0     H21887   6.638   8.708   2.699  1.4744 -0.7410  1.3679
  166MOL0     H21888   6.881   8.650   2.734  1.4929 -0.1044  1.4951
  166MOL0     H21889   6.811   8.730   2.868 -1.5679 -0.3089 -0.7014
  166MOL0     H21890   6.959   8.896   2.656  0.4190 -3.0836 -0.8219
  166MOL0     H21891   6.920   8.937   2.828  1.7580  2.5522 -0.1605
  166MOL0     H21892   7.061   8.725   2.885 -0.1026  0.9929  1.3895
  166MOL0     H21893   7.138   8.872   2.829 -1.2549  1.4524 -0.1227
  166MOL0     H21894   6.048   8.955   2.918  2.9132 -2.0737 -1.0211
  166MOL0     H21895   5.800   8.971   2.912  2.1481  1.5728  0.5686
  166MOL0     H21896   5.406   9.088   2.763  0.1969 -0.8635 -0.6554
  166MOL0     H21897   5.166   9.132   2.725  0.9000 -1.8734  1.7927
  166MOL0     H21898   3.450   8.878   2.997  1.5919  1.1049 -0.3950
  166MOL0     H21899   3.347   8.712   3.122  0.5785 -0.6908 -0.5489
  166MOL0     H21900   3.520   8.353   3.631  0.2212  0.3967  0.1823
  166MOL0     H21901   3.370   8.222   3.774  3.1891  0.1520 -0.5479
  166MOL0     H21902   3.222   8.251   3.962  0.9160 -0.8944  0.0480
  166MOL0     H21903   3.186   8.121   3.854  0.6546  0.0964 -0.1971
  166MOL0     H21904   2.952   8.114   3.944 -0.8642 -1.1318  0.8699
  166MOL0     H21905   3.073   8.098   4.070 -1.7546  1.1715  2.3706
  166MOL0     H21906   3.041   8.342   4.128 -0.6493 -0.9241  0.1331
  166MOL0     H21907   2.893   8.249   4.151  1.7788 -2.1816  0.5001
  166MOL0     H21908   2.833   8.465   4.054 -0.9573 -1.1119  0.8353
  166MOL0     H21909   2.940   8.432   3.916 -0.9323  0.9243 -1.2796
  166MOL0     H21910   2.601   8.219   3.785  0.7218 -1.9521 -0.9613
  166MOL0     H21911   3.040   8.447   3.595 -0.7447  0.3019  0.0919
  166MOL0     H21912   3.188   8.553   3.439 -0.9527 -0.6786 -0.8408
  167MOL0     O21913   4.469   1.002   5.839  0.3591  0.3134 -0.9249
  167MOL0     C21914   4.460   0.961   5.724  0.4492  0.4777 -0.1944
  167MOL0     O21915   4.554   0.900   5.651  0.4368  0.3797 -0.1813
  167MOL0     C21916   4.680   0.912   5.696 -0.8620  0.4265  0.0022
  167MOL0     C21917   4.768   0.971   5.608 -0.2265  0.0177 -0.9276
  167MOL0     C21918   4.902   0.985   5.638  0.1059  0.1800 -0.4911
  167MOL0     C21919   4.958   0.945   5.761 -0.4473  1.1408  0.4535
  167MOL0     O21920   5.088   0.973   5.778 -1.3817  0.8004  0.0836
  167MOL0     C21921   5.168   0.891   5.861 -0.0984 -0.4846  0.7812
  167MOL0     C21922   5.316   0.932   5.879 -0.8399  0.3727 -0.2796
  167MOL0     C21923   5.365   1.002   5.745 -0.1964 -0.4763 -0.2400
  167MOL0     C21924   5.366   0.910   5.622  0.0149 -0.4520 -0.1737
  167MOL0     C21925   5.426   0.996   5.501  0.1005  0.3541  0.2298
  167MOL0     C21926   5.304   1.084   5.447  0.0368 -0.7608  0.6280
  167MOL0     C21927   5.346   1.118   5.303  0.1489 -0.3096 -0.3323
  167MOL0     C21928   5.241   1.217   5.235 -0.1701 -0.1077  0.0492
  167MOL0     N21929   5.107   1.162   5.230 -0.0313 -0.0652 -0.0618
  167MOL0     C21930   4.992   1.235   5.267  0.5229 -1.1169 -0.9597
  167MOL0     C21931   4.888   1.156   5.234 -0.2934  0.1525 -0.2123
  167MOL0     C21932   4.745   1.189   5.261 -0.1783  0.7116  0.2568
  167MOL0     C21933   4.648   1.072   5.220  0.3324  0.0543 -0.2357
  167MOL0     C21934   4.506   1.121   5.263 -0.5311 -0.7015 -0.7812
  167MOL0     C21935   4.420   1.000   5.251  0.7926  0.7054 -0.4131
  167MOL0     O21936   4.399   0.950   5.120 -0.4628 -0.0127 -0.0626
  167MOL0     C21937   4.295   0.854   5.105  0.1565  0.3348  0.3380
  167MOL0     C21938   4.243   0.836   4.980 -0.9384 -1.0409 -0.3319
  167MOL0     C21939   4.141   0.747   4.957 -0.2033 -0.7158 -0.1103
  167MOL0     C21940   4.080   0.674   5.071 -0.2336 -0.2200 -0.0513
  167MOL0     C21941   3.952   0.607   5.056  0.5523  0.0030  0.1182
  167MOL0     O21942   3.871   0.599   5.167  0.4868  0.3797 -0.7815
  167MOL0     C21943   3.752   0.527   5.169 -0.1077 -0.2340 -0.6203
  167MOL0     C21944   3.666   0.508   5.054  0.2293 -0.5425 -0.2010
  167MOL0     C21945   3.540   0.442   5.069  0.2408 -0.2468 -0.0960
  167MOL0     C21946   3.506   0.387   5.197  0.0087 -0.1223  0.3345
  167MOL0     O21947   3.382   0.329   5.229 -0.1379  0.3921 -0.1362
  167MOL0     C21948   3.302   0.292   5.120 -0.1695 -1.0869  0.6911
  167MOL0     C21949   3.195   0.201   5.173 -0.0896 -0.2413 -0.2248
  167MOL0     C21950   3.100   0.251   5.284  0.3706  0.4352 -0.5275
  167MOL0     C21951   2.974   0.154   5.294 -0.6117 -0.3762 -0.7191
  167MOL0     C21952   2.904   0.192   5.430 -0.3225  0.5493  0.2600
  167MOL0     C21953   2.775   0.113   5.437 -0.7572 -0.5481  0.0840
  167MOL0     C21954   2.700   0.128   5.565 -0.1545  0.3731  0.1951
  167MOL0     C21955   2.777   0.069   5.678 -0.1574 -0.1344 -0.5649
  167MOL0    Cl21956   2.670  -0.026   5.788  0.3315 -0.0463 -0.5422
  167MOL0     C21957   3.601   0.397   5.303 -0.1207 -0.2193  0.1127
  167MOL0     C21958   3.720   0.463   5.288 -0.5864 -1.0249 -0.0295
  167MOL0     O21959   3.932   0.569   4.941  0.6649 -0.5502 -0.5572
  167MOL0     C21960   4.128   0.708   5.196  0.3068  0.1193 -0.2954
  167MOL0     C21961   4.242   0.779   5.207 -0.4541  0.4586 -0.7902
  167MOL0     N21962   4.932   1.033   5.187  0.2066  0.0971  0.4144
  167MOL0     N21963   5.061   1.047   5.181  0.4266  0.3437  0.5601
  167MOL0     C21964   4.872   0.873   5.852 -0.7924  0.2119  0.6411
  167MOL0     C21965   4.737   0.863   5.815 -0.2798 -0.4043 -0.3881
  167MOL0     C21966   4.329   0.971   5.662  0.8938 -0.4775 -1.1674
  167MOL0     C21967   4.245   1.079   5.697  0.1185  0.4933 -0.0798
  167MOL0     C21968   4.116   1.088   5.638  1.0914  0.1423 -0.3328
  167MOL0     C21969   4.067   0.987   5.560 -0.3040  0.6089  0.6032
  167MOL0     O21970   3.935   0.996   5.525 -0.2527  0.1423 -0.5005
  167MOL0     C21971   3.864   0.883   5.478  0.1738 -0.3200  0.4477
  167MOL0     C21972   3.714   0.893   5.508  0.0324  0.0655  0.2478
  167MOL0     C21973   3.633   0.778   5.446  0.7571 -0.8801  0.6213
  167MOL0     C21974   3.480   0.819   5.457  0.6995 -0.0753  0.5580
  167MOL0     C21975   3.385   0.699   5.443 -0.1579  0.0869  0.2728
  167MOL0     C21976   3.325   0.590   5.432  0.5744 -0.0406  0.4108
  167MOL0     C21977   4.146   0.873   5.542  0.1534 -1.3430 -0.8930
  167MOL0     C21978   4.282   0.874   5.575  0.6447  0.2216  0.2166
  167MOL0     H21979   4.736   1.010   5.511  1.6435 -1.1123 -2.0555
  167MOL0     H21980   4.971   1.032   5.569 -0.0493  3.0891  1.1711
  167MOL0     H21981   5.171   0.796   5.808  2.6447 -0.6753  1.1362
  167MOL0     H21982   5.130   0.868   5.961  1.7969 -1.0972  1.4009
  167MOL0     H21983   5.379   0.846   5.904 -0.2585  1.4443  2.3504
  167MOL0     H21984   5.326   1.003   5.962  0.3031  1.2615 -1.1368
  167MOL0     H21985   5.462   1.043   5.775  1.1248 -4.4353  1.5346
  167MOL0     H21986   5.284   1.075   5.731  1.2051  1.0121 -0.9015
  167MOL0     H21987   5.420   0.818   5.647  0.1880 -0.2453  0.2333
  167MOL0     H21988   5.268   0.865   5.602 -0.4380  0.1581  0.5947
  167MOL0     H21989   5.457   0.925   5.424 -2.8596 -1.6735  0.7637
  167MOL0     H21990   5.511   1.059   5.526  1.2368 -1.3119  0.7793
  167MOL0     H21991   5.299   1.176   5.506  1.8142  0.1824 -0.5813
  167MOL0     H21992   5.213   1.023   5.446  0.1478 -0.9495  1.7469
  167MOL0     H21993   5.443   1.168   5.306  1.1116 -2.1002  0.2655
  167MOL0     H21994   5.354   1.029   5.239 -2.4504 -0.8185 -0.0559
  167MOL0     H21995   5.264   1.221   5.128  0.2249  0.0087  0.1366
  167MOL0     H21996   5.254   1.316   5.278 -0.2125 -0.2810  0.4705
  167MOL0     H21997   4.967   1.332   5.308  2.3922 -2.2577  3.3845
  167MOL0     H21998   4.713   1.280   5.210  1.0309  0.8956 -0.2086
  167MOL0     H21999   4.737   1.206   5.369 -0.2081  1.2304  0.1766
  167MOL0     H22000   4.672   0.974   5.263  0.5696  0.8131  1.3984
  167MOL0     H22001   4.661   1.072   5.111  0.2340  1.4522 -0.2579
  167MOL0     H22002   4.511   1.152   5.368  1.1315  0.7106 -1.2514
  167MOL0     H22003   4.472   1.204   5.200 -0.6949  0.2616  0.5263
  167MOL0     H22004   4.316   1.015   5.283  0.5729 -1.5272  0.1440
  167MOL0     H22005   4.476   0.918   5.297  0.9236  1.5022  0.9035
  167MOL0     H22006   4.287   0.902   4.907  1.7210 -2.1713  0.1405
  167MOL0     H22007   4.104   0.717   4.859  1.4821 -0.9821 -0.7065
  167MOL0     H22008   3.695   0.534   4.953  0.4993 -0.0931 -0.0130
  167MOL0     H22009   3.473   0.423   4.986 -0.6907  0.2203  0.5367
  167MOL0     H22010   3.360   0.244   5.041 -1.1129  1.0548 -1.4111
  167MOL0     H22011   3.256   0.377   5.072 -0.2221 -2.9998 -2.9665
  167MOL0     H22012   3.242   0.115   5.222 -2.0725 -1.2679 -0.0150
  167MOL0     H22013   3.140   0.164   5.086 -0.9703 -0.9647  0.6173
  167MOL0     H22014   3.062   0.352   5.265 -0.8518  0.0421 -0.2365
  167MOL0     H22015   3.150   0.253   5.381  1.3986  0.2162 -1.0337
  167MOL0     H22016   2.912   0.156   5.204  0.5679 -2.2885 -1.6522
  167MOL0     H22017   3.001   0.048   5.290 -1.4342 -0.5842 -0.8271
  167MOL0     H22018   2.868   0.295   5.438 -1.5526  0.0845  0.8986
  167MOL0     H22019   2.966   0.170   5.517  0.3954 -1.2227 -0.6540
  167MOL0     H22020   2.793   0.005   5.426 -3.8957 -1.0426 -1.3616
  167MOL0     H22021   2.712   0.141   5.352  0.5617 -1.6118 -1.3000
  167MOL0     H22022   2.681   0.230   5.600 -0.0324 -0.7303  3.9339
  167MOL0     H22023   2.601   0.082   5.563  0.2640 -0.6049  0.6713
  167MOL0     H22024   2.828   0.150   5.732 -3.2452 -0.3723  3.0795
  167MOL0     H22025   2.853   0.001   5.638  0.8990  0.6442  0.0670
  167MOL0     H22026   3.571   0.353   5.397  1.1555 -1.7981 -0.1888
  167MOL0     H22027   3.798   0.466   5.364  0.8261 -1.5761 -1.4145
  167MOL0     H22028   4.078   0.676   5.287 -1.1879  1.7925 -0.4651
  167MOL0     H22029   4.282   0.796   5.306  1.1080 -1.3123 -1.0686
  167MOL0     H22030   4.893   0.817   5.942  2.1341  0.8732  0.4833
  167MOL0     H22031   4.667   0.813   5.881  2.3758 -2.3203  1.1719
  167MOL0     H22032   4.284   1.155   5.764  2.6647 -0.2594 -0.5877
  167MOL0     H22033   4.044   1.162   5.671 -2.5603 -2.3138 -2.0417
  167MOL0     H22034   3.892   0.788   5.524 -0.7613 -0.6036  0.4506
  167MOL0     H22035   3.888   0.874   5.372 -0.3380  0.9803  0.2052
  167MOL0     H22036   3.709   0.892   5.617  3.0293 -1.1123  0.4535
  167MOL0     H22037   3.674   0.992   5.480  0.9295  0.8082  1.5285
  167MOL0     H22038   3.651   0.684   5.499 -0.0495  0.5060  3.6413
  167MOL0     H22039   3.656   0.773   5.340 -1.7733  1.3999 -0.1679
  167MOL0     H22040   3.450   0.860   5.554 -0.0747  0.6095  0.0447
  167MOL0     H22041   3.469   0.895   5.379  1.2081 -1.0782 -0.5179
  167MOL0     H22042   3.298   0.486   5.427  1.6561 -0.2786 -0.9997
  167MOL0     H22043   4.119   0.791   5.476  0.7921 -1.0488 -1.5295
  167MOL0     H22044   4.343   0.796   5.530 -0.6123 -0.3287 -0.6124
  168MOL0     O22045   2.779  11.179   1.966 -0.7925 -0.0658 -0.5945
  168MOL0     C22046   2.874  11.127   2.026  0.2350 -0.0473 -0.0357
  168MOL0     O22047   2.860  11.028   2.119 -0.3594  0.3415 -0.0623
  168MOL0     C22048   2.745  10.970   2.156 -0.0155 -0.9164  0.4338
  168MOL0     C22049   2.756  10.906   2.278  0.3474 -0.1046 -0.2851
  168MOL0     C22050   2.660  10.817   2.325  1.3208 -0.2885 -0.0778
  168MOL0     C22051   2.538  10.800   2.254 -0.1843 -1.3576  0.2442
  168MOL0     O22052   2.448  10.700   2.277  0.4659 -0.3900  0.0381
  168MOL0     C22053   2.384  10.691   2.402  1.1868 -0.0202  0.5122
  168MOL0     C22054   2.239  10.629   2.391  0.3283 -1.1402  0.1960
  168MOL0     C22055   2.155  10.750   2.386 -0.2608 -0.7856 -0.3406
  168MOL0     C22056   2.003  10.735   2.378 -0.0421  0.0508 -0.0490
  168MOL0     C22057   1.945  10.675   2.508  0.0623  0.4360  0.9679
  168MOL0     C22058   1.789  10.692   2.504 -0.7395 -0.3331  0.4404
  168MOL0     C22059   1.723  10.631   2.631 -0.8536 -0.4041 -0.4547
  168MOL0     C22060   1.579  10.685   2.626  0.3074  0.9662  0.4588
  168MOL0     N22061   1.489  10.610   2.717 -0.7458 -0.0235  0.0368
  168MOL0     C22062   1.449  10.480   2.709 -0.1074 -1.1750 -0.5507
  168MOL0     C22063   1.400  10.456   2.832 -0.5157  0.2298 -0.2596
  168MOL0     C22064   1.341  10.322   2.868  0.6163  0.9174  0.4147
  168MOL0     C22065   1.195  10.321   2.926  1.3205 -0.1455  0.2943
  168MOL0     C22066   1.156  10.172   2.944  0.5442  0.1750  0.0834
  168MOL0     C22067   1.009  10.146   3.004  0.3110 -0.4653  0.0052
  168MOL0     O22068   0.911  10.208   2.918  0.2957 -0.5053  0.5032
  168MOL0     C22069   0.782  10.172   2.934  0.4144 -0.3157  0.8872
  168MOL0     C22070   0.725  10.125   3.053 -0.6524  0.0238  0.5609
  168MOL0     C22071   0.591  10.088   3.059  0.3855 -1.1817  0.1024
  168MOL0     C22072   0.502  10.114   2.947  0.0176  0.2812  0.0104
  168MOL0     C22073   0.360  10.071   2.964  0.1635 -0.0677 -1.1040
  168MOL0     O22074   0.268  10.108   2.873  0.3263 -0.3003 -0.5367
  168MOL0     C22075   0.144  10.055   2.890 -0.1474 -1.2646  1.1036
  168MOL0     C22076   0.040  10.135   2.866 -0.4907 -0.4141  0.2942
  168MOL0     C22077  -0.091  10.085   2.878 -0.8133  0.3608 -0.2037
  168MOL0     C22078  -0.114   9.952   2.922 -0.5467 -0.0798  0.2336
  168MOL0     O22079  -0.241   9.893   2.949  0.4331  0.3930  0.1838
  168MOL0     C22080  -0.371   9.964   2.920 -0.4358  0.1665 -0.6220
  168MOL0     C22081  -0.418   9.963   2.772 -0.3763 -0.3336 -0.0488
  168MOL0     C22082  -0.540  10.049   2.753 -0.8941 -1.3866 -0.8956
  168MOL0     C22083  -0.637  10.017   2.640  0.6134  0.6579 -0.5509
  168MOL0     C22084  -0.558  10.018   2.495  0.3786 -0.3811  0.7940
  168MOL0     C22085  -0.499  10.154   2.456  0.5072  0.4909 -0.4624
  168MOL0     C22086  -0.455  10.168   2.308  0.2418  0.4219  0.3893
  168MOL0     C22087  -0.560  10.119   2.203  0.0572  0.6957  0.8471
  168MOL0    Cl22088  -0.725  10.179   2.228 -0.3375 -0.1968  0.2084
  168MOL0     C22089  -0.001   9.872   2.946 -0.4675 -0.3828 -0.3799
  168MOL0     C22090   0.129   9.921   2.924 -0.5638  0.3016  0.0071
  168MOL0     O22091   0.336  10.011   3.070 -0.0739 -0.7715  0.5789
  168MOL0     C22092   0.553  10.182   2.844  0.6127  0.4299  0.6719
  168MOL0     C22093   0.693  10.210   2.831  0.2356 -0.6709 -0.7573
  168MOL0     N22094   1.407  10.566   2.907 -0.2925 -0.1342 -0.2559
  168MOL0     N22095   1.449  10.665   2.838  0.6512 -0.1449  0.1274
  168MOL0     C22096   2.513  10.877   2.137 -0.7207 -0.3584 -0.1598
  168MOL0     C22097   2.625  10.957   2.089 -0.5673 -0.7539  0.1282
  168MOL0     C22098   3.003  11.186   2.002  0.6681 -0.1150 -0.3102
  168MOL0     C22099   3.107  11.180   2.098 -0.3586 -0.8378 -0.4458
  168MOL0     C22100   3.216  11.252   2.084  0.3340  0.0519 -0.4053
  168MOL0     C22101   3.232  11.341   1.979 -0.3972 -0.6344 -1.0236
  168MOL0     O22102   3.343  11.425   1.955 -0.5348  0.2469  0.4419
  168MOL0     C22103   3.473  11.399   2.010  0.3409 -1.3925  0.3463
  168MOL0     C22104   3.580  11.472   1.928 -0.1652  0.6793 -0.0809
  168MOL0     C22105   3.725  11.428   1.963  0.3939  0.9206 -0.6692
  168MOL0     C22106   3.831  11.492   1.882  0.4325 -0.6727 -0.2238
  168MOL0     C22107   3.956  11.445   1.934  0.3869 -0.2139  0.2507
  168MOL0     C22108   4.060  11.394   1.958 -0.7907  0.7612  0.9376
  168MOL0     C22109   3.130  11.358   1.887 -0.5402  0.2199 -0.0782
  168MOL0     C22110   3.020  11.271   1.897 -0.1464  0.0008  0.3283
  168MOL0     H22111   2.844  10.914   2.340 -0.7805  0.7506  1.2661
  168MOL0     H22112   2.690  10.769   2.417  2.4318  1.2394  0.4199
  168MOL0     H22113   2.387  10.787   2.454  0.6739  2.6162 -3.8392
  168MOL0     H22114   2.437  10.606   2.447 -1.9744 -1.4630  1.8112
  168MOL0     H22115   2.219  10.564   2.476  0.8269 -1.6597 -0.0733
  168MOL0     H22116   2.222  10.565   2.303 -1.0349 -2.0258  1.0705
  168MOL0     H22117   2.178  10.796   2.289 -4.9380 -0.5706 -1.5826
  168MOL0     H22118   2.175  10.805   2.479 -1.2054 -0.9848 -0.0075
  168MOL0     H22119   1.952  10.829   2.354  0.0349 -0.1962 -1.2919
  168MOL0     H22120   1.987  10.679   2.285 -1.3363  0.7655 -0.2717
  168MOL0     H22121   1.986  10.729   2.594  0.6099  1.0269  0.3575
  168MOL0     H22122   1.983  10.574   2.523 -1.0028 -0.1404 -0.0578
  168MOL0     H22123   1.752  10.635   2.419  0.7429  0.3704 -0.7198
  168MOL0     H22124   1.771  10.797   2.478  0.1977 -0.6891 -1.9106
  168MOL0     H22125   1.721  10.522   2.616  0.2233 -0.3833 -0.8522
  168MOL0     H22126   1.771  10.663   2.724 -1.1310 -1.0162 -0.0942
  168MOL0     H22127   1.544  10.678   2.523  0.9269  2.2025  0.1381
  168MOL0     H22128   1.581  10.793   2.645  1.2816  0.6393  2.5183
  168MOL0     H22129   1.464  10.416   2.622 -1.8997 -1.5913 -0.5893
  168MOL0     H22130   1.413  10.258   2.919  2.8738  3.0772  0.1566
  168MOL0     H22131   1.333  10.274   2.770  2.5878 -0.4214  0.8584
  168MOL0     H22132   1.121  10.366   2.859 -4.0540 -0.6186  5.1544
  168MOL0     H22133   1.196  10.377   3.020 -1.3151 -0.0673  0.3490
  168MOL0     H22134   1.152  10.125   2.846 -3.2866  0.9906 -0.2740
  168MOL0     H22135   1.230  10.117   3.004  0.5507 -0.8082 -0.8167
  168MOL0     H22136   0.997  10.196   3.101  1.8853 -0.9635  0.4721
  168MOL0     H22137   1.006  10.038   3.018 -0.6120 -0.7136 -1.8349
  168MOL0     H22138   0.783  10.122   3.145  0.2613 -2.1064 -0.0238
  168MOL0     H22139   0.568  10.031   3.149 -1.3810 -3.7832 -1.8345
  168MOL0     H22140   0.042  10.243   2.853 -1.2444 -0.4280  0.0360
  168MOL0     H22141  -0.178  10.150   2.872 -1.2831 -0.3769 -2.3591
  168MOL0     H22142  -0.356  10.071   2.940  1.9234 -0.0162 -1.0302
  168MOL0     H22143  -0.452   9.918   2.976  0.7881  0.0596  1.1265
  168MOL0     H22144  -0.441   9.859   2.747  0.2768 -0.7201  0.8546
  168MOL0     H22145  -0.334   9.985   2.705 -0.1403  1.3806  0.7534
  168MOL0     H22146  -0.503  10.150   2.734  1.4852 -1.6582  1.7418
  168MOL0     H22147  -0.598  10.057   2.845 -4.9628 -1.1665 -3.2386
  168MOL0     H22148  -0.688   9.921   2.648  0.6973  0.2388 -3.7698
  168MOL0     H22149  -0.711  10.098   2.640  0.8609  0.8840 -0.4634
  168MOL0     H22150  -0.645  10.004   2.429  2.2440  1.4449 -2.2886
  168MOL0     H22151  -0.491   9.934   2.475  1.0107  0.3168 -0.0656
  168MOL0     H22152  -0.412  10.176   2.519 -1.1936 -0.2837  2.3404
  168MOL0     H22153  -0.575  10.230   2.479  0.6439 -0.0163  2.0232
  168MOL0     H22154  -0.435  10.273   2.285  0.6420  0.7079  1.9850
  168MOL0     H22155  -0.369  10.105   2.284 -0.2069  0.0620 -0.3341
  168MOL0     H22156  -0.563  10.011   2.184 -1.7642  0.6594  1.1527
  168MOL0     H22157  -0.531  10.165   2.109 -1.3611 -0.4149 -0.1817
  168MOL0     H22158  -0.017   9.776   2.992  0.5146  0.6088  2.2199
  168MOL0     H22159   0.202   9.842   2.935 -1.3775 -0.5172 -0.2895
  168MOL0     H22160   0.495  10.205   2.754 -1.5783 -3.6526  0.8036
  168MOL0     H22161   0.739  10.260   2.747 -0.9981  1.7901 -0.0722
  168MOL0     H22162   2.420  10.860   2.084 -0.4046 -0.2602 -0.7646
  168MOL0     H22163   2.624  10.996   1.988  0.6168 -2.5949 -0.6395
  168MOL0     H22164   3.094  11.127   2.192  2.1028  2.0544  1.7341
  168MOL0     H22165   3.298  11.246   2.155 -0.9047  3.6372  1.5983
  168MOL0     H22166   3.486  11.290   2.005 -0.0742 -1.4859  1.1053
  168MOL0     H22167   3.484  11.442   2.110  2.2317 -1.1709  0.0859
  168MOL0     H22168   3.559  11.439   1.826  1.6925  0.7646 -0.5388
  168MOL0     H22169   3.561  11.579   1.947  2.5410  0.8113  2.8209
  168MOL0     H22170   3.728  11.319   1.953  2.4575  0.4387  3.0727
  168MOL0     H22171   3.739  11.440   2.071 -1.3502 -0.5433 -0.2250
  168MOL0     H22172   3.823  11.479   1.773  0.6262 -5.6849  0.1309
  168MOL0     H22173   3.825  11.594   1.919 -1.8812 -1.4894  1.8796
  168MOL0     H22174   4.162  11.368   1.974 -0.9981 -0.7722 -0.0484
  168MOL0     H22175   3.131  11.434   1.811  1.8525  0.8670  0.5227
  168MOL0     H22176   2.950  11.271   1.814  0.6173 -1.6402 -0.3359
  169MOL0     O22177   6.561   8.059   0.213 -0.0219 -0.8021 -0.2587
  169MOL0     C22178   6.603   8.046   0.094 -0.6289 -0.1012 -0.1358
  169MOL0     O22179   6.542   7.976   0.000  0.5547 -0.0832 -0.0423
  169MOL0     C22180   6.417   7.932   0.042 -0.1603 -0.1612 -0.4198
  169MOL0     C22181   6.305   8.010   0.017  0.1991 -0.0874 -0.3055
  169MOL0     C22182   6.172   7.954   0.023 -0.3370  0.5645  0.5212
  169MOL0     C22183   6.161   7.818   0.061 -0.2069  0.1818  0.2912
  169MOL0     O22184   6.047   7.734   0.043 -0.3580 -0.2393 -0.8323
  169MOL0     C22185   5.918   7.791   0.009  0.0401  0.1777 -0.2177
  169MOL0     C22186   5.813   7.697   0.058 -0.2377  0.2929  0.3698
  169MOL0     C22187   5.825   7.553   0.010  0.3538 -0.2432 -0.2254
  169MOL0     C22188   5.711   7.473   0.080  0.1332 -0.1764  0.1826
  169MOL0     C22189   5.727   7.324   0.042  0.2869 -0.6202 -0.0375
  169MOL0     C22190   5.640   7.235   0.133 -0.6889 -0.3637 -0.0808
  169MOL0     C22191   5.641   7.085   0.082 -0.0584  0.1495 -0.2437
  169MOL0     C22192   5.573   6.985   0.185 -0.0536  0.2145  0.1487
  169MOL0     N22193   5.431   6.974   0.169  0.1605 -0.3345  0.0601
  169MOL0     C22194   5.344   7.063   0.228 -0.1095  1.0720 -0.4324
  169MOL0     C22195   5.218   7.004   0.205  0.3379 -0.0681  0.1858
  169MOL0     C22196   5.082   7.067   0.238  0.3630 -0.5216  0.5035
  169MOL0     C22197   4.952   7.003   0.191 -0.2189  0.4662 -0.4027
  169MOL0     C22198   4.932   6.852   0.217 -0.5544 -0.4551 -0.9628
  169MOL0     C22199   4.791   6.815   0.185 -0.2089 -0.5375 -0.1321
  169MOL0     O22200   4.756   6.673   0.183  0.4938 -0.8053 -0.1600
  169MOL0     C22201   4.637   6.653   0.249  0.5592 -0.0883 -0.5796
  169MOL0     C22202   4.516   6.720   0.227  0.5444  0.1333  0.6151
  169MOL0     C22203   4.399   6.678   0.292  0.7565 -0.5349 -0.4271
  169MOL0     C22204   4.416   6.592   0.397  0.9677 -0.9390  0.5688
  169MOL0     C22205   4.296   6.548   0.472 -0.0761  0.5597  0.2971
  169MOL0     O22206   4.179   6.568   0.415 -0.4343  0.0669  0.2229
  169MOL0     C22207   4.059   6.539   0.476  0.1282 -0.3222 -0.2082
  169MOL0     C22208   4.012   6.608   0.593 -1.0844  0.4278 -0.7463
  169MOL0     C22209   3.894   6.555   0.653  0.5415  0.3510  1.0904
  169MOL0     C22210   3.821   6.442   0.596 -0.7461 -0.1644  0.6222
  169MOL0     O22211   3.702   6.400   0.651 -0.1966 -0.4062  0.3832
  169MOL0     C22212   3.616   6.496   0.728 -0.2609 -0.6905  0.5945
  169MOL0     C22213   3.480   6.423   0.721 -0.0489 -0.7950  0.3849
  169MOL0     C22214   3.355   6.503   0.776  0.5658  0.2589  0.1841
  169MOL0     C22215   3.236   6.410   0.766  0.2294  0.7675  0.8875
  169MOL0     C22216   3.109   6.475   0.817  0.0925 -0.5072  0.1889
  169MOL0     C22217   2.992   6.371   0.821 -0.1303  0.0319  0.5256
  169MOL0     C22218   2.852   6.429   0.829  0.7075  0.6764  0.2148
  169MOL0     C22219   2.738   6.331   0.822 -0.6384  0.8124 -0.4053
  169MOL0    Cl22220   2.591   6.421   0.828  0.1393 -0.8403 -0.3231
  169MOL0     C22221   3.870   6.381   0.482  0.2215 -0.1941 -0.6060
  169MOL0     C22222   3.989   6.432   0.430  0.4227 -0.0839 -0.3517
  169MOL0     O22223   4.311   6.477   0.570 -0.3437 -0.2060 -0.6322
  169MOL0     C22224   4.542   6.532   0.427 -0.1632  0.1671 -0.0060
  169MOL0     C22225   4.650   6.563   0.352  0.5393 -0.5302 -0.1991
  169MOL0     N22226   5.249   6.887   0.137  0.0908  0.2064  0.1053
  169MOL0     N22227   5.373   6.871   0.118 -0.4746  0.3599  0.2262
  169MOL0     C22228   6.271   7.741   0.087  0.3198 -0.0724  0.5650
  169MOL0     C22229   6.399   7.794   0.069  0.2307  0.3021  0.5748
  169MOL0     C22230   6.720   8.133   0.055 -0.3105  0.6395 -0.7973
  169MOL0     C22231   6.788   8.206   0.149 -0.8136 -0.1236 -0.3879
  169MOL0     C22232   6.893   8.294   0.112 -0.5147  0.0556  1.0506
  169MOL0     C22233   6.935   8.291  -0.020  0.4015  0.0947 -0.2686
  169MOL0     O22234   7.050   8.366  -0.047  0.0649 -0.6450  0.1844
  169MOL0     C22235   7.104   8.348  -0.180 -0.1300 -0.8303 -0.7213
  169MOL0     C22236   7.238   8.423  -0.190 -0.4442  0.3027 -0.4372
  169MOL0     C22237   7.248   8.516  -0.315 -1.5073  0.1236  0.5567
  169MOL0     C22238   7.366   8.607  -0.298  0.4474  0.1003  0.4213
  169MOL0     C22239   7.488   8.533  -0.284  0.2463 -0.4654  0.2380
  169MOL0     C22240   7.590   8.466  -0.283 -0.5196 -0.9347 -0.4946
  169MOL0     C22241   6.855   8.228  -0.117 -0.3690 -0.8575  0.1930
  169MOL0     C22242   6.753   8.137  -0.079  0.0922  0.3481 -0.1059
  169MOL0     H22243   6.302   8.115  -0.008 -2.0477 -0.0397 -0.0119
  169MOL0     H22244   6.082   8.012   0.002 -0.6218  0.6799  1.9507
  169MOL0     H22245   5.906   7.795  -0.099 -2.8535 -1.9050 -0.0758
  169MOL0     H22246   5.894   7.888   0.055 -1.9388 -0.4887  0.2260
  169MOL0     H22247   5.718   7.736   0.020  0.4449  1.7978  0.1278
  169MOL0     H22248   5.806   7.705   0.167 -0.9638 -0.7377  0.4065
  169MOL0     H22249   5.917   7.503   0.040 -0.5442 -2.1354 -0.5335
  169MOL0     H22250   5.819   7.549  -0.099  1.9055 -2.8403 -0.2920
  169MOL0     H22251   5.725   7.487   0.188  0.2405  0.8697  0.0457
  169MOL0     H22252   5.610   7.509   0.058  0.7766  1.1986 -0.6214
  169MOL0     H22253   5.833   7.300   0.054  0.1468 -2.1819 -1.5877
  169MOL0     H22254   5.703   7.296  -0.061 -1.3969 -2.3219  0.7658
  169MOL0     H22255   5.539   7.275   0.133  0.3486  2.5088  0.8450
  169MOL0     H22256   5.684   7.240   0.234  0.3858 -0.5356 -0.5205
  169MOL0     H22257   5.589   7.085  -0.014  3.6762  1.7470 -2.4852
  169MOL0     H22258   5.747   7.060   0.072 -0.0675  0.6683 -1.7926
  169MOL0     H22259   5.604   7.016   0.285  2.1434 -1.7609  0.1420
  169MOL0     H22260   5.601   6.880   0.181  0.4169  0.3546 -0.3710
  169MOL0     H22261   5.370   7.160   0.267 -1.5497  1.2053  0.2711
  169MOL0     H22262   5.087   7.161   0.183  2.3793 -1.3798 -0.9163
  169MOL0     H22263   5.070   7.090   0.344  0.2137 -0.4772  0.4758
  169MOL0     H22264   4.942   7.010   0.082  2.0134 -2.4490 -0.9215
  169MOL0     H22265   4.877   7.063   0.243 -0.2824 -0.7034  0.8922
  169MOL0     H22266   5.010   6.789   0.173  1.3452  0.6427  0.6653
  169MOL0     H22267   4.929   6.829   0.324 -1.0519  0.0784 -0.8531
  169MOL0     H22268   4.768   6.851   0.084 -4.6619 -2.3783 -0.0034
  169MOL0     H22269   4.716   6.868   0.243 -0.8419 -0.0625 -1.3387
  169MOL0     H22270   4.519   6.796   0.149 -0.7528 -0.0509  0.3581
  169MOL0     H22271   4.301   6.714   0.260  1.4405  2.2151  0.2841
  169MOL0     H22272   4.069   6.687   0.641  0.8265  0.8628 -3.5096
  169MOL0     H22273   3.854   6.609   0.738  0.0720  0.2662  0.9273
  169MOL0     H22274   3.625   6.595   0.682  2.1727 -1.6288 -1.1622
  169MOL0     H22275   3.652   6.498   0.831 -0.4713 -0.6038  0.6658
  169MOL0     H22276   3.491   6.330   0.777 -5.5177 -2.1369 -0.1800
  169MOL0     H22277   3.453   6.388   0.621 -0.2860 -2.0998  0.8937
  169MOL0     H22278   3.350   6.592   0.712  0.6956 -0.6622 -1.1625
  169MOL0     H22279   3.376   6.548   0.873  1.1528  1.7965 -0.6198
  169MOL0     H22280   3.215   6.397   0.659  1.7397 -0.2562  0.6744
  169MOL0     H22281   3.268   6.316   0.812 -0.6884  0.7464  1.5243
  169MOL0     H22282   3.086   6.567   0.764 -1.9056 -0.0943  1.6595
  169MOL0     H22283   3.127   6.504   0.921  0.7443  0.6000 -0.2138
  169MOL0     H22284   3.010   6.307   0.908  2.1514 -0.3705 -0.1748
  169MOL0     H22285   2.996   6.309   0.731  3.9520 -0.1408  0.6289
  169MOL0     H22286   2.847   6.490   0.920  1.6839 -1.1065  1.5175
  169MOL0     H22287   2.832   6.496   0.744 -4.0000 -0.4319  0.1870
  169MOL0     H22288   2.747   6.275   0.915  4.2568 -1.6135 -2.0126
  169MOL0     H22289   2.755   6.264   0.737  0.3995 -2.1010  1.9164
  169MOL0     H22290   3.826   6.293   0.437  3.0304 -1.0223 -1.9303
  169MOL0     H22291   4.031   6.384   0.343 -0.9362 -3.0989  0.4991
  169MOL0     H22292   4.540   6.470   0.515 -1.1812 -1.1983 -0.9473
  169MOL0     H22293   4.742   6.523   0.391  1.5171 -0.9289 -2.7431
  169MOL0     H22294   6.247   7.635   0.084 -0.9389  0.1868 -2.2257
  169MOL0     H22295   6.483   7.725   0.074  1.0554  1.2517  0.1580
  169MOL0     H22296   6.764   8.208   0.255 -2.1357  1.3961 -0.6904
  169MOL0     H22297   6.956   8.364   0.166  0.8005 -0.0765 -0.2511
  169MOL0     H22298   7.032   8.404  -0.240 -1.1120 -0.4410  0.7907
  169MOL0     H22299   7.100   8.240  -0.199 -1.9250 -1.4229  2.3934
  169MOL0     H22300   7.245   8.489  -0.103  1.4753 -0.1236 -0.2259
  169MOL0     H22301   7.318   8.348  -0.190  1.1999  1.9388 -1.8257
  169MOL0     H22302   7.160   8.581  -0.314 -1.6226  0.4468 -4.5853
  169MOL0     H22303   7.251   8.468  -0.413 -1.4740  2.6137 -0.7476
  169MOL0     H22304   7.383   8.677  -0.380  0.4107 -0.5819 -0.1829
  169MOL0     H22305   7.344   8.657  -0.204  0.7494 -1.6536  1.4723
  169MOL0     H22306   7.682   8.413  -0.296  0.2549  0.3056 -0.1894
  169MOL0     H22307   6.893   8.231  -0.218  0.3414  2.3846  0.4573
  169MOL0     H22308   6.696   8.071  -0.144 -0.2254 -0.5494  1.0487
  170MOL0     O22309  11.050   0.817   7.278  0.0064 -0.6129  0.2232
  170MOL0     C22310  11.134   0.741   7.321 -0.5213  0.0898  1.2488
  170MOL0     O22311  11.115   0.618   7.370 -0.0246  0.3913  0.9332
  170MOL0     C22312  11.003   0.551   7.325 -0.2834 -0.5555 -0.0132
  170MOL0     C22313  10.887   0.570   7.411 -0.6114  0.1904 -0.7748
  170MOL0     C22314  10.778   0.493   7.385  0.1424  0.5237 -0.3773
  170MOL0     C22315  10.769   0.418   7.270 -0.1791 -0.3521  0.4073
  170MOL0     O22316  10.652   0.352   7.234  0.2908 -0.7977 -0.8131
  170MOL0     C22317  10.534   0.403   7.289  0.5690 -1.1175 -1.1819
  170MOL0     C22318  10.418   0.326   7.222  0.2324 -0.4944 -0.3698
  170MOL0     C22319  10.295   0.415   7.214  1.3789 -0.5415  0.4280
  170MOL0     C22320  10.181   0.349   7.131  0.1491 -0.3844 -0.5029
  170MOL0     C22321  10.054   0.436   7.153  0.1252  0.3073 -0.4827
  170MOL0     C22322   9.935   0.380   7.083 -0.3250 -0.0573  0.8254
  170MOL0     C22323   9.800   0.432   7.133 -0.2335  0.5501  0.2122
  170MOL0     C22324   9.689   0.398   7.034  0.5014  0.3936 -0.3540
  170MOL0     N22325   9.562   0.412   7.106  0.4399 -0.5244  0.5927
  170MOL0     C22326   9.501   0.535   7.131 -1.0165  0.7536 -0.2440
  170MOL0     C22327   9.383   0.499   7.190  0.0970  0.1284 -0.4017
  170MOL0     C22328   9.275   0.590   7.240  0.8634  0.0330  0.0703
  170MOL0     C22329   9.134   0.526   7.231 -0.2314 -0.6165  0.8389
  170MOL0     C22330   9.087   0.535   7.082  0.2256  0.3142  0.0041
  170MOL0     C22331   8.950   0.471   7.068  0.2090  0.4918  0.0757
  170MOL0     O22332   8.854   0.576   7.062  0.6579  0.0154 -0.7131
  170MOL0     C22333   8.727   0.527   7.030  0.2058  0.6034  0.2479
  170MOL0     C22334   8.691   0.416   6.946  0.2435 -0.2963 -0.4008
  170MOL0     C22335   8.561   0.374   6.944  0.4468 -0.5095 -0.5430
  170MOL0     C22336   8.464   0.454   7.002  0.0514  0.2376 -0.7791
  170MOL0     C22337   8.323   0.437   6.981  0.3711  0.6375  0.2136
  170MOL0     O22338   8.232   0.526   7.031 -0.0340  0.1080 -0.1034
  170MOL0     C22339   8.094   0.494   7.023 -0.0113 -0.5086  0.3946
  170MOL0     C22340   8.025   0.561   6.918  0.3280  0.0910  0.0973
  170MOL0     C22341   7.879   0.554   6.916  0.6740  0.4593  0.4833
  170MOL0     C22342   7.808   0.476   7.011 -0.1735  0.8758 -0.5593
  170MOL0     O22343   7.667   0.470   7.003 -0.3388  0.3240  0.2136
  170MOL0     C22344   7.593   0.541   6.895  0.1531 -0.4871 -0.6072
  170MOL0     C22345   7.565   0.686   6.931 -1.2794 -0.9046  0.1466
  170MOL0     C22346   7.492   0.706   7.072 -0.3689 -0.5722  0.2156
  170MOL0     C22347   7.498   0.859   7.093 -0.0284 -0.4601 -0.4765
  170MOL0     C22348   7.442   0.913   7.224  0.3493 -0.1766 -0.6011
  170MOL0     C22349   7.540   0.903   7.339 -0.4090 -0.6342 -0.1553
  170MOL0     C22350   7.530   1.030   7.432 -0.4917  0.1896  0.4571
  170MOL0     C22351   7.659   1.058   7.508  0.8029  0.3559 -0.4628
  170MOL0    Cl22352   7.787   1.125   7.409  0.1806  0.2502 -0.4313
  170MOL0     C22353   7.886   0.404   7.104 -0.0151 -0.2499 -0.0193
  170MOL0     C22354   8.019   0.414   7.109 -0.1862 -0.6803  0.3742
  170MOL0     O22355   8.291   0.344   6.913  0.5067 -0.2833  0.5551
  170MOL0     C22356   8.492   0.566   7.077 -0.4302 -0.2678 -0.2374
  170MOL0     C22357   8.621   0.608   7.088  0.5955  1.3872  0.2796
  170MOL0     N22358   9.377   0.362   7.195  0.1820 -0.7005  0.4429
  170MOL0     N22359   9.481   0.307   7.142 -0.5656  0.3636 -0.3009
  170MOL0     C22360  10.885   0.397   7.194 -0.9446 -0.4962  0.2540
  170MOL0     C22361  11.005   0.464   7.212  0.5531  0.2559  0.2798
  170MOL0     C22362  11.274   0.792   7.337  0.0810 -0.1125  0.6314
  170MOL0     C22363  11.369   0.723   7.411  0.7837  1.3676  0.0800
  170MOL0     C22364  11.501   0.765   7.432  0.3036 -0.1626 -0.3003
  170MOL0     C22365  11.548   0.883   7.379  0.5444 -0.4204 -0.3772
  170MOL0     O22366  11.677   0.934   7.384 -0.0545  0.7161  0.3799
  170MOL0     C22367  11.771   0.856   7.451  0.3554  0.6315  0.2100
  170MOL0     C22368  11.875   0.949   7.514  0.0679  0.5169  0.0329
  170MOL0     C22369  11.980   0.868   7.607  0.5100 -0.5857 -0.4389
  170MOL0     C22370  12.108   0.845   7.532  0.6779  1.0272  0.2666
  170MOL0     C22371  12.202   0.776   7.626  0.7568 -0.0816 -0.1592
  170MOL0     C22372  12.273   0.736   7.719  0.1233 -0.1728  0.4040
  170MOL0     C22373  11.456   0.953   7.296 -1.5683 -0.0070  0.8635
  170MOL0     C22374  11.325   0.901   7.271 -0.4478 -0.5222 -0.0690
  170MOL0     H22375  10.907   0.633   7.498  0.2869 -2.3943  1.0280
  170MOL0     H22376  10.695   0.516   7.451 -1.9815 -0.9901 -2.3379
  170MOL0     H22377  10.513   0.510   7.275 -0.3077 -1.0204  0.6471
  170MOL0     H22378  10.534   0.389   7.397 -1.0373  1.3139 -0.7759
  170MOL0     H22379  10.398   0.229   7.269  1.0301 -1.5975 -2.1793
  170MOL0     H22380  10.451   0.303   7.120  1.0208 -1.2859  0.0548
  170MOL0     H22381  10.317   0.508   7.161 -0.7957 -0.3290 -0.2079
  170MOL0     H22382  10.259   0.439   7.314  1.5547 -0.6597  0.5210
  170MOL0     H22383  10.210   0.327   7.028  1.2524  1.7439 -0.7196
  170MOL0     H22384  10.167   0.253   7.180  1.8885 -0.0237  0.8419
  170MOL0     H22385  10.073   0.534   7.108  2.1577 -0.0753 -0.5425
  170MOL0     H22386  10.032   0.455   7.259 -0.2425 -0.5380 -0.4021
  170MOL0     H22387   9.934   0.272   7.070 -2.1692  0.2952 -4.0015
  170MOL0     H22388   9.944   0.413   6.979  0.5486  0.3475  1.0190
  170MOL0     H22389   9.770   0.398   7.232  1.0832  0.3403  0.5669
  170MOL0     H22390   9.794   0.541   7.132 -0.0309  0.6170 -2.6640
  170MOL0     H22391   9.707   0.294   7.005 -0.1044 -1.2736  4.4542
  170MOL0     H22392   9.678   0.462   6.946 -2.2409  1.8116  0.9014
  170MOL0     H22393   9.541   0.631   7.097 -2.0161  0.8129 -1.3188
  170MOL0     H22394   9.282   0.693   7.203  1.3070  1.0715  2.7893
  170MOL0     H22395   9.289   0.596   7.349 -2.4260  2.6505  0.5173
  170MOL0     H22396   9.050   0.561   7.293 -0.6571 -0.5792  0.2441
  170MOL0     H22397   9.141   0.422   7.264 -0.7331 -0.2422  2.2267
  170MOL0     H22398   9.079   0.635   7.041  0.3580  1.2119  2.0255
  170MOL0     H22399   9.153   0.473   7.020 -0.8929 -2.4430  1.3661
  170MOL0     H22400   8.926   0.395   7.142 -1.6378  0.3991 -0.5745
  170MOL0     H22401   8.959   0.414   6.975  3.1298  2.0679 -0.7375
  170MOL0     H22402   8.774   0.357   6.909  1.9231  1.1481  0.8572
  170MOL0     H22403   8.542   0.283   6.889  1.9023 -0.2085 -1.6034
  170MOL0     H22404   8.081   0.615   6.842 -1.4627  0.1062 -1.2709
  170MOL0     H22405   7.823   0.599   6.835  0.4028 -1.8860 -0.7324
  170MOL0     H22406   7.494   0.495   6.892 -0.1117 -0.1201 -5.6846
  170MOL0     H22407   7.628   0.519   6.794 -0.8033 -4.1502 -0.2956
  170MOL0     H22408   7.487   0.727   6.866  0.0982 -1.5392 -2.0046
  170MOL0     H22409   7.656   0.747   6.928 -1.8477 -0.0081  0.7103
  170MOL0     H22410   7.558   0.657   7.144 -1.4781 -0.2488  1.4957
  170MOL0     H22411   7.396   0.654   7.079  0.1871 -1.8743 -1.4020
  170MOL0     H22412   7.598   0.899   7.077 -0.1539 -0.0868 -0.3446
  170MOL0     H22413   7.449   0.903   7.006 -0.6733 -0.3315 -0.0616
  170MOL0     H22414   7.344   0.870   7.248  1.3433 -2.0328  0.3219
  170MOL0     H22415   7.428   1.020   7.207 -3.0729 -0.5493 -0.9405
  170MOL0     H22416   7.640   0.885   7.299 -1.2707 -4.5150 -0.9433
  170MOL0     H22417   7.517   0.809   7.389 -2.0467 -0.8857 -1.3157
  170MOL0     H22418   7.501   1.120   7.378 -2.8611 -0.3899  0.6417
  170MOL0     H22419   7.457   1.016   7.512 -1.3582  0.1287 -0.3293
  170MOL0     H22420   7.683   0.959   7.548  1.0870  1.1299  1.3967
  170MOL0     H22421   7.636   1.127   7.590 -1.4925  1.3108 -1.8229
  170MOL0     H22422   7.836   0.334   7.170 -0.4665 -2.7703 -2.7837
  170MOL0     H22423   8.063   0.355   7.189  2.3491 -0.0565 -0.4582
  170MOL0     H22424   8.418   0.625   7.130 -1.0483 -1.8119  0.6597
  170MOL0     H22425   8.645   0.693   7.151  1.7682 -0.0282  1.8633
  170MOL0     H22426  10.872   0.327   7.112 -2.2376 -0.2491  0.2345
  170MOL0     H22427  11.093   0.450   7.150  0.5682 -1.3827  0.6296
  170MOL0     H22428  11.341   0.626   7.452 -0.4755  1.8172  0.3232
  170MOL0     H22429  11.573   0.696   7.474 -1.0805 -1.8201 -0.4728
  170MOL0     H22430  11.805   0.781   7.379 -1.1992  0.1196 -0.0072
  170MOL0     H22431  11.720   0.801   7.530 -2.3547  0.4359 -1.5680
  170MOL0     H22432  11.922   1.004   7.432 -2.8247 -2.0659 -3.7070
  170MOL0     H22433  11.827   1.032   7.567 -0.6230 -1.4546  2.7107
  170MOL0     H22434  11.940   0.777   7.651  0.0040 -0.4962 -0.7002
  170MOL0     H22435  12.002   0.931   7.694 -1.9680 -1.4468  0.8932
  170MOL0     H22436  12.081   0.792   7.440 -3.7119 -3.2295  3.4647
  170MOL0     H22437  12.161   0.938   7.509  0.9498  0.9107  0.4200
  170MOL0     H22438  12.337   0.705   7.798 -0.0126  1.0717  1.0138
  170MOL0     H22439  11.495   1.046   7.258  2.4005 -2.0824 -0.6825
  170MOL0     H22440  11.251   0.961   7.218  1.4826 -0.7391 -3.2775
  171MOL0     O22441   9.332   4.483   5.420 -0.1801  0.0902 -0.0881
  171MOL0     C22442   9.292   4.394   5.346 -0.2383  1.4173  0.7161
  171MOL0     O22443   9.168   4.355   5.329  0.0318  0.0095  0.4409
  171MOL0     C22444   9.071   4.446   5.354  1.3955  0.3052  0.3991
  171MOL0     C22445   8.980   4.478   5.256 -0.4501 -0.6929  0.5528
  171MOL0     C22446   8.864   4.551   5.281 -0.3295 -0.1408 -0.0524
  171MOL0     C22447   8.850   4.619   5.400  0.4918 -0.8699 -0.6590
  171MOL0     O22448   8.726   4.677   5.441  0.0372 -0.3188  0.2712
  171MOL0     C22449   8.615   4.650   5.352 -0.6855 -0.1140  0.1632
  171MOL0     C22450   8.504   4.729   5.415 -0.2240  1.0694  0.3348
  171MOL0     C22451   8.362   4.694   5.363 -0.4407  0.9340  0.3929
  171MOL0     C22452   8.355   4.700   5.208  0.3041 -0.6446  0.2895
  171MOL0     C22453   8.205   4.706   5.169  0.0969 -0.0198  0.4651
  171MOL0     C22454   8.132   4.568   5.175  0.5431 -0.1203 -0.3527
  171MOL0     C22455   7.989   4.567   5.117 -0.2815  0.4663  0.6104
  171MOL0     C22456   7.886   4.623   5.219  0.1280  1.0061  0.0074
  171MOL0     N22457   7.755   4.581   5.164  0.2531  0.2687  0.0633
  171MOL0     C22458   7.686   4.466   5.182 -0.3481  0.2364  0.3847
  171MOL0     C22459   7.566   4.493   5.129  0.4984  0.1264 -0.2868
  171MOL0     C22460   7.446   4.406   5.121  0.1901 -0.5272 -0.0239
  171MOL0     C22461   7.341   4.454   5.221 -0.4867 -0.5046 -0.0025
  171MOL0     C22462   7.291   4.589   5.186  0.1112  0.4788 -0.1665
  171MOL0     C22463   7.152   4.614   5.229 -0.2207 -0.3965  0.3989
  171MOL0     O22464   7.067   4.553   5.133 -0.3514 -0.3269  0.1609
  171MOL0     C22465   6.941   4.570   5.150  1.3268  0.0775 -0.5947
  171MOL0     C22466   6.872   4.675   5.099  0.1631 -0.5919  0.8486
  171MOL0     C22467   6.728   4.692   5.114 -0.8862 -0.0182 -0.8020
  171MOL0     C22468   6.651   4.595   5.183  0.2763  0.4112 -0.9127
  171MOL0     C22469   6.505   4.604   5.195 -0.4693 -0.0664 -0.9589
  171MOL0     O22470   6.458   4.715   5.139  0.3741  0.0727 -0.9788
  171MOL0     C22471   6.322   4.738   5.153 -0.2943 -0.4867  0.0860
  171MOL0     C22472   6.258   4.808   5.046  0.6471  1.1363 -0.4065
  171MOL0     C22473   6.129   4.862   5.049  0.2174 -0.1791  0.4187
  171MOL0     C22474   6.046   4.834   5.156  0.2582  0.9469 -0.8592
  171MOL0     O22475   5.909   4.856   5.164 -0.1717  0.7471  0.0260
  171MOL0     C22476   5.851   4.945   5.068 -0.5215 -0.4618 -0.9421
  171MOL0     C22477   5.786   4.864   4.960 -0.6515 -0.3839 -0.4593
  171MOL0     C22478   5.661   4.937   4.915 -0.4632 -0.4551 -0.9449
  171MOL0     C22479   5.583   4.860   4.811 -0.5215  0.0056 -0.0416
  171MOL0     C22480   5.439   4.906   4.763 -1.3213  0.1972  0.0860
  171MOL0     C22481   5.354   4.916   4.882  0.8552  0.5513  0.2364
  171MOL0     C22482   5.206   4.942   4.830 -0.9117 -0.2048  0.1962
  171MOL0     C22483   5.100   4.913   4.941  0.8375  0.0379  0.3713
  171MOL0    Cl22484   4.936   4.936   4.860  0.3346  0.2088  0.5201
  171MOL0     C22485   6.102   4.750   5.253 -0.3759  0.4288 -0.4256
  171MOL0     C22486   6.241   4.707   5.259 -0.3944  0.6408 -0.2610
  171MOL0     O22487   6.440   4.515   5.252 -0.5166  0.2181 -0.1965
  171MOL0     C22488   6.721   4.487   5.242 -0.2651 -0.4732 -1.1991
  171MOL0     C22489   6.859   4.474   5.219  0.3431  0.9009 -0.0793
  171MOL0     N22490   7.564   4.622   5.085  0.1757  0.0187  0.4901
  171MOL0     N22491   7.675   4.674   5.108 -0.9120 -0.3233  0.4116
  171MOL0     C22492   8.952   4.600   5.502  0.0043 -0.3233 -0.4296
  171MOL0     C22493   9.050   4.507   5.482 -0.2258  0.0364  0.9383
  171MOL0     C22494   9.399   4.322   5.277  0.8245  0.2746 -0.5666
  171MOL0     C22495   9.365   4.198   5.221  0.1889 -1.0586 -0.3167
  171MOL0     C22496   9.464   4.119   5.153  0.1292 -0.4553 -0.7997
  171MOL0     C22497   9.600   4.166   5.145 -0.6592 -0.7418  0.6268
  171MOL0     O22498   9.693   4.096   5.078 -0.0372 -0.2867 -0.0800
  171MOL0     C22499   9.708   4.126   4.946  0.1757  0.8003  0.0434
  171MOL0     C22500   9.839   4.193   4.931 -0.7759  0.2386 -0.2560
  171MOL0     C22501   9.956   4.089   4.940 -0.5002  0.1162  0.6794
  171MOL0     C22502  10.090   4.163   4.916 -0.3951  0.5909 -0.3789
  171MOL0     C22503  10.113   4.272   5.018  1.4952 -0.0119  0.1422
  171MOL0     C22504  10.119   4.379   5.078  0.1068 -0.1429 -0.0902
  171MOL0     C22505   9.628   4.295   5.190 -0.0084 -0.0479 -0.4668
  171MOL0     C22506   9.528   4.374   5.254 -0.2401  0.0139  0.3052
  171MOL0     H22507   8.984   4.432   5.158 -3.1843 -1.1673  0.5728
  171MOL0     H22508   8.788   4.553   5.204 -2.5787 -0.0991  2.0104
  171MOL0     H22509   8.610   4.542   5.369  3.0502 -0.5086 -0.3327
  171MOL0     H22510   8.641   4.667   5.246  1.3532  0.8988  0.7678
  171MOL0     H22511   8.535   4.827   5.379  0.0680  1.5567  1.8649
  171MOL0     H22512   8.508   4.717   5.523 -4.2266  0.9892  0.6521
  171MOL0     H22513   8.286   4.759   5.408 -1.7015 -0.0101 -0.3236
  171MOL0     H22514   8.338   4.591   5.393  0.0587  0.6940 -0.0229
  171MOL0     H22515   8.406   4.791   5.175 -1.0377 -0.2409 -0.7580
  171MOL0     H22516   8.404   4.611   5.167  1.2987  0.1692 -0.3249
  171MOL0     H22517   8.198   4.738   5.064  1.3873  0.3442  0.4785
  171MOL0     H22518   8.156   4.787   5.224 -0.7212 -0.3061  0.1803
  171MOL0     H22519   8.134   4.531   5.278 -0.8261 -1.5646 -0.7922
  171MOL0     H22520   8.191   4.492   5.124 -0.9123 -1.3657 -0.2485
  171MOL0     H22521   7.997   4.643   5.039  3.3718  0.0567  0.4529
  171MOL0     H22522   7.971   4.467   5.075  0.4254  0.4253  0.3942
  171MOL0     H22523   7.911   4.729   5.228  0.4945  0.8778  0.5503
  171MOL0     H22524   7.896   4.585   5.321 -0.2445 -1.3945 -0.7882
  171MOL0     H22525   7.731   4.373   5.214  2.7040  1.0785 -1.1334
  171MOL0     H22526   7.482   4.309   5.157  0.8737  0.3526  1.7303
  171MOL0     H22527   7.401   4.400   5.021  0.6056 -0.7789 -0.2023
  171MOL0     H22528   7.385   4.448   5.321 -0.2314 -1.9847 -0.1700
  171MOL0     H22529   7.260   4.381   5.210  1.5504 -3.0069  0.6734
  171MOL0     H22530   7.347   4.675   5.224  0.8756 -0.6040  1.2257
  171MOL0     H22531   7.291   4.594   5.077  2.5687  3.9681 -0.1692
  171MOL0     H22532   7.140   4.722   5.218  2.2497 -0.1787 -1.0322
  171MOL0     H22533   7.133   4.583   5.332 -0.1691  2.0636  1.2221
  171MOL0     H22534   6.923   4.754   5.046  2.2869 -2.0173  0.6623
  171MOL0     H22535   6.672   4.771   5.065  0.0485  1.2235  0.0487
  171MOL0     H22536   6.329   4.823   4.966  3.3422  1.3303  1.8664
  171MOL0     H22537   6.092   4.920   4.966 -1.2930 -1.9292 -0.1964
  171MOL0     H22538   5.918   5.022   5.027  2.3858 -1.8785  0.7981
  171MOL0     H22539   5.770   4.997   5.121 -0.8974 -0.4852 -1.4895
  171MOL0     H22540   5.753   4.762   4.983  0.9090 -1.8168 -3.8254
  171MOL0     H22541   5.862   4.848   4.883  1.1669  0.0291  1.1927
  171MOL0     H22542   5.681   5.038   4.878  0.8757 -0.7025 -0.9523
  171MOL0     H22543   5.599   4.943   5.004 -1.1617 -0.1887 -1.4419
  171MOL0     H22544   5.651   4.842   4.726  1.1818 -2.9801  1.7755
  171MOL0     H22545   5.575   4.758   4.849 -0.4523  0.2573  0.6498
  171MOL0     H22546   5.389   4.835   4.697 -3.0340 -1.1002  2.6390
  171MOL0     H22547   5.430   5.001   4.709 -0.6790 -0.6817 -1.6403
  171MOL0     H22548   5.377   4.999   4.949 -1.1354  0.3786  1.2310
  171MOL0     H22549   5.343   4.815   4.925 -4.1228  0.1608 -1.2915
  171MOL0     H22550   5.194   5.044   4.793  4.0356  0.4001 -0.3432
  171MOL0     H22551   5.190   4.865   4.753 -1.1731 -1.9201  1.8874
  171MOL0     H22552   5.098   4.981   5.027 -0.5432  0.0540  0.3438
  171MOL0     H22553   5.094   4.807   4.969  0.3139 -0.0552 -0.0695
  171MOL0     H22554   6.041   4.708   5.333  0.5307 -1.3523 -0.6286
  171MOL0     H22555   6.268   4.641   5.340 -0.3263 -1.6389 -2.0521
  171MOL0     H22556   6.661   4.422   5.305 -1.4936  2.9818  1.5244
  171MOL0     H22557   6.899   4.380   5.255  0.7329  0.5461 -1.3870
  171MOL0     H22558   8.943   4.647   5.599 -0.8818  0.3338 -0.8058
  171MOL0     H22559   9.122   4.484   5.560 -2.9825 -1.0620  3.3155
  171MOL0     H22560   9.267   4.152   5.217 -1.2452  1.8258 -1.7219
  171MOL0     H22561   9.426   4.027   5.109  0.8780  0.1780 -2.8971
  171MOL0     H22562   9.626   4.192   4.915  0.1045  2.0210  2.5722
  171MOL0     H22563   9.705   4.035   4.884  1.2125  0.7385  0.0536
  171MOL0     H22564   9.851   4.239   4.833  0.3019  0.6855  0.0645
  171MOL0     H22565   9.848   4.271   5.008 -0.9923 -0.0114  0.0236
  171MOL0     H22566   9.944   4.017   4.858 -1.2358  1.9501 -0.9083
  171MOL0     H22567   9.953   4.034   5.035 -4.3761  2.3391  2.0534
  171MOL0     H22568  10.171   4.089   4.914  0.2940  1.1728  2.2784
  171MOL0     H22569  10.084   4.218   4.821 -1.8670  1.7774  0.3609
  171MOL0     H22570  10.115   4.474   5.128 -3.1045 -1.0900  1.7078
  171MOL0     H22571   9.727   4.338   5.179  0.4753 -0.9949  0.0897
  171MOL0     H22572   9.562   4.472   5.287 -2.5274  0.3952  1.7657
  172MOL0     O22573   0.913   2.466   5.326 -0.5111 -0.0152 -0.6007
  172MOL0     C22574   0.917   2.431   5.448 -0.3384 -0.6084  0.2886
  172MOL0     O22575   0.820   2.364   5.513  0.2977 -0.2896 -0.1035
  172MOL0     C22576   0.695   2.346   5.457  0.4292 -0.5004 -0.5885
  172MOL0     C22577   0.614   2.454   5.441  0.4443 -0.1778  0.8490
  172MOL0     C22578   0.481   2.432   5.402  0.5962 -0.6961 -0.0809
  172MOL0     C22579   0.437   2.305   5.374 -0.6487  0.4821 -0.0518
  172MOL0     O22580   0.320   2.272   5.315 -0.3541  0.0973  0.4078
  172MOL0     C22581   0.209   2.367   5.323 -1.1984  0.9854 -0.0039
  172MOL0     C22582   0.062   2.311   5.299 -0.7333  0.4518  0.5788
  172MOL0     C22583   0.033   2.186   5.369 -0.4033 -0.4056 -0.4595
  172MOL0     C22584  -0.116   2.149   5.363 -0.0578 -0.1351  0.5381
  172MOL0     C22585  -0.166   2.036   5.445 -0.5933 -1.0659  0.1633
  172MOL0     C22586  -0.065   1.918   5.441 -0.3784 -0.0504  0.3749
  172MOL0     C22587  -0.102   1.810   5.543 -0.7786 -1.3695 -0.2151
  172MOL0     C22588  -0.180   1.689   5.484  0.8313 -0.0787  0.4347
  172MOL0     N22589  -0.329   1.708   5.477  0.0557  0.8783  0.1287
  172MOL0     C22590  -0.398   1.751   5.371 -0.7410  0.0747  0.2598
  172MOL0     C22591  -0.535   1.719   5.393  0.9838  0.5273  1.0090
  172MOL0     C22592  -0.647   1.729   5.290  0.0691 -0.2658 -0.7301
  172MOL0     C22593  -0.784   1.729   5.356  0.1398  0.5830 -0.4628
  172MOL0     C22594  -0.892   1.688   5.264 -0.9312  0.4416  0.1664
  172MOL0     C22595  -1.027   1.698   5.323  0.6023  0.6316 -0.2926
  172MOL0     O22596  -1.075   1.834   5.333  0.7423  0.5099  0.8093
  172MOL0     C22597  -1.212   1.855   5.354 -0.3403  0.6846  0.9159
  172MOL0     C22598  -1.311   1.757   5.355 -0.5669 -0.5356 -0.2178
  172MOL0     C22599  -1.448   1.785   5.354  0.3576  0.1071 -0.2782
  172MOL0     C22600  -1.488   1.916   5.365  0.4995 -0.0896 -0.3099
  172MOL0     C22601  -1.638   1.948   5.363 -0.7775  0.1633  1.4432
  172MOL0     O22602  -1.710   1.870   5.279 -0.6287  0.5573  0.0610
  172MOL0     C22603  -1.849   1.869   5.281 -0.5998  0.4449 -1.0242
  172MOL0     C22604  -1.903   1.751   5.329 -0.5372 -0.9989 -0.2283
  172MOL0     C22605  -2.038   1.720   5.316 -0.0497 -0.4273 -0.3692
  172MOL0     C22606  -2.126   1.815   5.259 -0.3717  0.1635 -0.3729
  172MOL0     O22607  -2.255   1.780   5.247  0.4427  0.4536 -0.0319
  172MOL0     C22608  -2.353   1.862   5.181  0.3955  0.5495  0.1915
  172MOL0     C22609  -2.492   1.799   5.187 -0.2056  0.2024 -0.3087
  172MOL0     C22610  -2.561   1.818   5.321 -0.1960  0.4908  0.0771
  172MOL0     C22611  -2.701   1.762   5.298 -0.9211 -0.0338  0.6299
  172MOL0     C22612  -2.774   1.712   5.425 -0.0777 -0.3324  0.4950
  172MOL0     C22613  -2.769   1.831   5.529  1.2810 -0.2734  0.6236
  172MOL0     C22614  -2.859   1.802   5.650  0.3995 -0.5103 -0.4973
  172MOL0     C22615  -2.893   1.924   5.743  0.4151 -0.1764 -0.5596
  172MOL0    Cl22616  -2.983   1.860   5.891 -0.1475  0.2155  0.7089
  172MOL0     C22617  -2.069   1.930   5.211  0.3696 -0.7663 -0.1023
  172MOL0     C22618  -1.937   1.963   5.223  0.4769 -0.1958 -0.1500
  172MOL0     O22619  -1.679   2.045   5.422  0.0023  0.2600  0.4145
  172MOL0     C22620  -1.386   2.016   5.368  0.4486 -0.3797 -0.1531
  172MOL0     C22621  -1.251   1.983   5.363 -0.0250 -0.7092  0.4208
  172MOL0     N22622  -0.541   1.647   5.509  0.8559  0.0875  0.0290
  172MOL0     N22623  -0.422   1.639   5.558 -0.5446  0.3514 -0.3036
  172MOL0     C22624   0.519   2.199   5.390 -0.2481  0.3945 -0.5229
  172MOL0     C22625   0.649   2.222   5.435 -0.4351 -0.7381 -0.1335
  172MOL0     C22626   1.046   2.460   5.517 -0.3946 -0.9903 -0.8454
  172MOL0     C22627   1.053   2.492   5.653  0.5251 -0.0240 -0.0272
  172MOL0     C22628   1.170   2.524   5.719 -0.6325 -0.4805  0.9598
  172MOL0     C22629   1.288   2.551   5.650  0.3471  0.9290 -0.6167
  172MOL0     O22630   1.403   2.587   5.714 -0.8236 -0.7553  0.1789
  172MOL0     C22631   1.533   2.593   5.650 -0.3130  0.3986  0.0458
  172MOL0     C22632   1.632   2.632   5.755  0.0834 -0.3896 -0.0825
  172MOL0     C22633   1.638   2.792   5.749  0.6456  0.2906 -0.8958
  172MOL0     C22634   1.700   2.835   5.885  0.1899 -0.2476  0.2856
  172MOL0     C22635   1.831   2.774   5.905 -0.1883 -0.5045  0.0619
  172MOL0     C22636   1.939   2.715   5.915  0.7983 -0.2304  0.0732
  172MOL0     C22637   1.277   2.531   5.513 -0.4952 -0.1446 -0.2410
  172MOL0     C22638   1.163   2.492   5.448 -0.1919 -0.5196  0.1198
  172MOL0     H22639   0.661   2.552   5.443  2.6145 -1.1731  0.6583
  172MOL0     H22640   0.421   2.521   5.387  0.9311 -0.3828  0.3919
  172MOL0     H22641   0.230   2.455   5.261 -0.9995  0.5955 -0.5008
  172MOL0     H22642   0.209   2.404   5.426 -0.2063 -1.7596  1.0536
  172MOL0     H22643   0.035   2.285   5.196 -0.5985 -1.6693  1.0304
  172MOL0     H22644  -0.017   2.385   5.316 -0.2930  1.2979 -0.8726
  172MOL0     H22645   0.064   2.202   5.473  1.7228  2.1345 -1.3877
  172MOL0     H22646   0.088   2.101   5.329  0.8962  0.6465 -0.9749
  172MOL0     H22647  -0.168   2.241   5.392 -2.6954 -0.9444 -1.3109
  172MOL0     H22648  -0.138   2.131   5.258  0.2362  1.8992  0.0708
  172MOL0     H22649  -0.269   2.010   5.418 -0.3055 -1.3651 -0.6790
  172MOL0     H22650  -0.174   2.067   5.550 -1.6850  0.0080 -0.2061
  172MOL0     H22651   0.040   1.948   5.448  0.3615 -2.2575 -0.4202
  172MOL0     H22652  -0.076   1.867   5.345 -0.9175 -0.0841  0.4509
  172MOL0     H22653  -0.005   1.772   5.578 -0.6721 -0.9362 -0.0249
  172MOL0     H22654  -0.161   1.850   5.626 -2.3820 -4.6840  0.4137
  172MOL0     H22655  -0.164   1.599   5.544 -1.0263  0.9148  2.5991
  172MOL0     H22656  -0.138   1.668   5.385 -0.2880 -1.1134  0.1561
  172MOL0     H22657  -0.350   1.779   5.278  1.4636 -1.8211  0.7195
  172MOL0     H22658  -0.638   1.641   5.227 -0.0950  0.3179 -1.5954
  172MOL0     H22659  -0.630   1.812   5.221  1.2970  0.8807  0.8587
  172MOL0     H22660  -0.802   1.826   5.403  0.3282  0.1097  0.6258
  172MOL0     H22661  -0.787   1.650   5.432 -2.7634  0.3785 -0.6727
  172MOL0     H22662  -0.875   1.752   5.177 -0.0454  1.4220  1.0360
  172MOL0     H22663  -0.871   1.588   5.225 -0.1140  0.2987  0.9443
  172MOL0     H22664  -1.028   1.656   5.424 -1.2913  1.2752  0.0060
  172MOL0     H22665  -1.082   1.635   5.253 -2.0429  2.2353  0.1937
  172MOL0     H22666  -1.287   1.651   5.356  2.4170  0.0500  0.4228
  172MOL0     H22667  -1.523   1.707   5.360  1.8811 -1.5196 -1.3687
  172MOL0     H22668  -1.837   1.687   5.387 -0.7240  0.3042  1.4990
  172MOL0     H22669  -2.075   1.621   5.340 -1.3758  0.0818 -0.2047
  172MOL0     H22670  -2.309   1.858   5.080  0.8724 -0.0386  0.4169
  172MOL0     H22671  -2.362   1.961   5.225  2.2942  0.8367  0.0549
  172MOL0     H22672  -2.502   1.693   5.160  2.9977  0.3524 -2.8460
  172MOL0     H22673  -2.548   1.848   5.107 -0.8264 -2.6554 -1.7574
  172MOL0     H22674  -2.577   1.923   5.346 -2.1867  0.5819 -1.3885
  172MOL0     H22675  -2.502   1.755   5.389 -0.5650  0.3536  0.2696
  172MOL0     H22676  -2.757   1.839   5.244  0.7297  1.8124  1.4286
  172MOL0     H22677  -2.700   1.681   5.223 -2.3472  1.7506 -1.4422
  172MOL0     H22678  -2.718   1.628   5.466 -1.3036 -1.7285 -0.5931
  172MOL0     H22679  -2.880   1.690   5.411 -0.6939  1.5928  1.7403
  172MOL0     H22680  -2.813   1.921   5.486  1.2706 -0.8829 -0.6753
  172MOL0     H22681  -2.667   1.859   5.558  0.6599  0.3331  2.3639
  172MOL0     H22682  -2.953   1.778   5.600  1.2545  1.4608 -3.2840
  172MOL0     H22683  -2.810   1.723   5.708  0.6293  2.0755  3.2294
  172MOL0     H22684  -2.948   2.002   5.689  1.3300 -1.0274 -2.8439
  172MOL0     H22685  -2.802   1.971   5.780 -0.5556 -0.3633  2.3032
  172MOL0     H22686  -2.131   2.010   5.173 -0.1283 -1.0814  0.0323
  172MOL0     H22687  -1.895   2.049   5.173 -0.0881  0.2107  0.0631
  172MOL0     H22688  -1.422   2.118   5.379 -1.0512 -1.0550  1.4283
  172MOL0     H22689  -1.177   2.062   5.354 -0.5829 -0.3903 -1.9959
  172MOL0     H22690   0.491   2.097   5.365  0.3827  0.5020 -1.7607
  172MOL0     H22691   0.711   2.133   5.438  1.6316  0.6062 -0.6475
  172MOL0     H22692   0.960   2.481   5.707  0.9311  1.2471  0.9836
  172MOL0     H22693   1.178   2.529   5.827 -0.1146  0.5730  0.8766
  172MOL0     H22694   1.538   2.666   5.569  0.6436 -0.7520 -0.9716
  172MOL0     H22695   1.568   2.493   5.620 -0.5137  0.4570 -0.3901
  172MOL0     H22696   1.604   2.592   5.853  3.6809  1.2505  1.7987
  172MOL0     H22697   1.731   2.593   5.729  0.1637 -1.2143  1.3370
  172MOL0     H22698   1.537   2.831   5.737  0.7862  0.4006 -1.8109
  172MOL0     H22699   1.705   2.819   5.667  2.2726  2.9060  1.1473
  172MOL0     H22700   1.709   2.943   5.870 -0.7340 -0.5949 -4.1683
  172MOL0     H22701   1.632   2.820   5.969 -0.8194 -0.2403 -0.5078
  172MOL0     H22702   2.026   2.654   5.931 -0.1103 -1.4190  0.5725
  172MOL0     H22703   1.369   2.532   5.455  0.6037 -3.0035  1.2802
  172MOL0     H22704   1.169   2.469   5.342 -1.7579  1.1459 -0.3806
  173MOL0     O22705   1.787   1.101   1.234  0.1382 -1.1042  0.0584
  173MOL0     C22706   1.775   1.217   1.266  0.2978 -1.1852 -0.1100
  173MOL0     O22707   1.661   1.294   1.269  0.3086  0.5291  0.3250
  173MOL0     C22708   1.534   1.243   1.267 -0.2047 -0.8957  0.8489
  173MOL0     C22709   1.499   1.115   1.302 -0.0159 -0.2119  0.6582
  173MOL0     C22710   1.370   1.073   1.292 -0.1620  0.0539 -0.1529
  173MOL0     C22711   1.267   1.156   1.243  0.5764 -0.7499 -0.1996
  173MOL0     O22712   1.140   1.118   1.217 -0.6344  1.5100 -0.0306
  173MOL0     C22713   1.121   1.074   1.077  0.4509  0.2686  0.1955
  173MOL0     C22714   0.993   1.002   1.054  0.6000  0.8264  0.7587
  173MOL0     C22715   1.021   0.857   1.081  0.6817 -0.5475  0.6390
  173MOL0     C22716   1.097   0.809   1.213 -0.4408 -0.2369 -0.1649
  173MOL0     C22717   1.092   0.652   1.209  0.1418  0.4919 -0.6773
  173MOL0     C22718   1.170   0.587   1.096 -1.6240 -0.3418  0.3321
  173MOL0     C22719   1.220   0.449   1.147 -0.0194 -0.6022  0.4618
  173MOL0     C22720   1.326   0.399   1.055  0.7945  0.0142  1.0654
  173MOL0     N22721   1.377   0.271   1.101  0.3312 -0.3950 -0.4453
  173MOL0     C22722   1.447   0.246   1.216  0.4701  0.4659  0.6560
  173MOL0     C22723   1.501   0.123   1.187 -0.3856 -0.1942 -1.0105
  173MOL0     C22724   1.601   0.053   1.275  0.7925 -0.4536  0.0627
  173MOL0     C22725   1.583  -0.095   1.309  0.8830  0.6158  0.6422
  173MOL0     C22726   1.438  -0.132   1.330  0.6235  0.0209  0.8616
  173MOL0     C22727   1.370  -0.059   1.456  0.4069 -0.7399 -0.7630
  173MOL0     O22728   1.242  -0.122   1.482  0.2019 -0.0370 -0.3055
  173MOL0     C22729   1.124  -0.102   1.422  0.2081 -0.0537 -0.1904
  173MOL0     C22730   1.015  -0.148   1.494  0.9512  0.4179  0.0097
  173MOL0     C22731   0.889  -0.119   1.441  1.3780 -0.0470  0.0452
  173MOL0     C22732   0.876  -0.038   1.329  1.6104 -0.5849 -0.2648
  173MOL0     C22733   0.751   0.000   1.279  0.1815  0.7724  1.1634
  173MOL0     O22734   0.646  -0.019   1.370  0.2336 -0.6151  0.3264
  173MOL0     C22735   0.520   0.011   1.340  1.1967  0.9742 -0.2098
  173MOL0     C22736   0.466   0.090   1.236  1.2657 -0.3945  0.0459
  173MOL0     C22737   0.329   0.098   1.220  0.2254 -0.5787 -0.6952
  173MOL0     C22738   0.237   0.035   1.309  0.0443  0.4485 -0.2800
  173MOL0     O22739   0.102   0.043   1.290  0.0241  0.2615 -0.3911
  173MOL0     C22740   0.060   0.175   1.272 -0.6442 -0.6221  0.8272
  173MOL0     C22741  -0.091   0.183   1.267 -0.3257 -0.6016 -0.0730
  173MOL0     C22742  -0.153   0.183   1.406  0.0960  0.1609 -0.0287
  173MOL0     C22743  -0.303   0.220   1.396 -0.4854 -0.1467 -0.5818
  173MOL0     C22744  -0.366   0.195   1.535  0.1896 -0.5048  0.0346
  173MOL0     C22745  -0.517   0.160   1.543  0.1309  0.0848  0.6420
  173MOL0     C22746  -0.608   0.267   1.481 -0.5481 -0.5376 -0.9343
  173MOL0     C22747  -0.755   0.228   1.452 -0.1653  0.1364  0.1466
  173MOL0    Cl22748  -0.861   0.214   1.601  0.2261 -0.3239 -0.2033
  173MOL0     C22749   0.294  -0.044   1.406 -0.8673  0.4572 -0.2974
  173MOL0     C22750   0.432  -0.063   1.422 -0.6887  0.3163  0.2119
  173MOL0     O22751   0.742   0.024   1.163  0.0746 -0.7823  0.7857
  173MOL0     C22752   0.993   0.008   1.258  1.1117  0.1833 -0.1235
  173MOL0     C22753   1.115  -0.025   1.308 -0.0173  0.8768 -0.7224
  173MOL0     N22754   1.452   0.071   1.073  0.6355  0.4586 -0.1931
  173MOL0     N22755   1.379   0.158   1.021 -0.1941 -0.4332  0.1442
  173MOL0     C22756   1.306   1.285   1.213 -0.0430  0.2378  0.0807
  173MOL0     C22757   1.435   1.333   1.219  0.1679 -0.5861 -0.3804
  173MOL0     C22758   1.898   1.302   1.253 -0.1807  0.2735 -0.6722
  173MOL0     C22759   2.024   1.252   1.273 -0.3907  0.3117  0.5986
  173MOL0     C22760   2.138   1.330   1.249 -1.5603  0.5176  0.8634
  173MOL0     C22761   2.126   1.469   1.207 -0.5582  0.3639 -0.9816
  173MOL0     O22762   2.222   1.552   1.165 -0.0609  0.1708  0.2492
  173MOL0     C22763   2.289   1.610   1.270  0.5177 -0.4476 -0.2548
  173MOL0     C22764   2.380   1.727   1.222  0.1972  0.8308 -0.3963
  173MOL0     C22765   2.441   1.818   1.337 -0.3673 -0.1947  0.2149
  173MOL0     C22766   2.485   1.960   1.309 -0.0766  0.4656 -0.2284
  173MOL0     C22767   2.603   1.975   1.228  0.0452  0.1935 -0.9664
  173MOL0     C22768   2.687   1.984   1.141 -0.2433  0.9176 -1.0138
  173MOL0     C22769   1.990   1.519   1.207 -0.3764 -0.6253  0.1303
  173MOL0     C22770   1.886   1.439   1.234 -0.1937  0.5164  0.1034
  173MOL0     H22771   1.570   1.039   1.334 -0.2782  0.3344  2.7193
  173MOL0     H22772   1.352   0.969   1.320  2.1162 -0.3573  0.0076
  173MOL0     H22773   1.207   1.012   1.051  0.0179 -0.2525 -0.0160
  173MOL0     H22774   1.126   1.156   1.004  1.8247 -0.9084 -1.0853
  173MOL0     H22775   0.964   1.008   0.949  1.9153  4.3086  0.4671
  173MOL0     H22776   0.910   1.034   1.119  0.7637 -0.1302  1.4568
  173MOL0     H22777   1.078   0.815   0.998  1.7234  0.9839  0.5277
  173MOL0     H22778   0.921   0.814   1.092 -0.4124  1.9132  0.9212
  173MOL0     H22779   1.204   0.834   1.214 -0.7120  1.5557 -3.2734
  173MOL0     H22780   1.051   0.861   1.298  1.8558  0.3633  0.7997
  173MOL0     H22781   0.987   0.622   1.196  0.3784 -0.4685 -0.4002
  173MOL0     H22782   1.123   0.610   1.305  1.3216 -0.0776 -1.2917
  173MOL0     H22783   1.263   0.641   1.076 -1.3305 -0.8682  0.2387
  173MOL0     H22784   1.102   0.599   1.011 -1.6275  2.3961  0.6332
  173MOL0     H22785   1.263   0.451   1.247  0.2526 -0.8860  0.3523
  173MOL0     H22786   1.128   0.390   1.146  0.6087 -1.6448 -1.4139
  173MOL0     H22787   1.410   0.469   1.048 -0.1096  0.9411 -1.2306
  173MOL0     H22788   1.296   0.390   0.951  0.5144 -1.6120  1.2682
  173MOL0     H22789   1.459   0.304   1.306  1.6742  0.3207  0.6156
  173MOL0     H22790   1.595   0.096   1.376 -0.1275  0.3640 -0.3307
  173MOL0     H22791   1.700   0.067   1.231  1.7134 -0.4582  1.9937
  173MOL0     H22792   1.634  -0.119   1.403 -0.5495  0.2508  1.3458
  173MOL0     H22793   1.631  -0.151   1.229 -1.0923  0.6792 -0.6480
  173MOL0     H22794   1.371  -0.103   1.249 -3.7185 -0.7036  3.8491
  173MOL0     H22795   1.433  -0.239   1.349  3.3873  0.0489  2.2419
  173MOL0     H22796   1.358   0.047   1.429 -0.8871 -0.8449 -0.6742
  173MOL0     H22797   1.442  -0.067   1.538 -0.9481 -1.7372  0.3689
  173MOL0     H22798   1.041  -0.219   1.571  2.2513 -2.2743 -2.6692
  173MOL0     H22799   0.797  -0.139   1.495  1.2961  1.3617  0.4662
  173MOL0     H22800   0.528   0.141   1.163  0.1510 -2.4845 -2.5508
  173MOL0     H22801   0.311   0.160   1.132  0.6022 -1.1662 -1.1943
  173MOL0     H22802   0.094   0.218   1.177 -3.2936 -0.1848 -0.0223
  173MOL0     H22803   0.091   0.252   1.343 -0.9892 -0.6550  1.0177
  173MOL0     H22804  -0.127   0.104   1.200  0.6809  0.2209 -1.6550
  173MOL0     H22805  -0.113   0.279   1.219  3.6815  0.0735 -0.9257
  173MOL0     H22806  -0.106   0.239   1.487 -0.5885 -1.0163  1.2080
  173MOL0     H22807  -0.153   0.078   1.434 -1.1875 -0.5191 -2.3344
  173MOL0     H22808  -0.328   0.325   1.379 -0.1408  0.3088  1.4460
  173MOL0     H22809  -0.348   0.158   1.317  0.5993 -1.8166  0.0522
  173MOL0     H22810  -0.344   0.285   1.593  1.2281 -1.0688  0.5602
  173MOL0     H22811  -0.312   0.115   1.587  0.9135 -1.3312 -1.8675
  173MOL0     H22812  -0.544   0.158   1.649  1.0930 -0.9018  0.8832
  173MOL0     H22813  -0.541   0.062   1.502  0.7906 -0.4513  1.5016
  173MOL0     H22814  -0.612   0.356   1.544 -0.1113 -0.3141 -1.2230
  173MOL0     H22815  -0.561   0.288   1.384  1.3916 -3.0436 -0.6471
  173MOL0     H22816  -0.756   0.134   1.395 -1.8088 -0.3028  0.8554
  173MOL0     H22817  -0.802   0.296   1.380 -0.6497 -0.6181 -0.2625
  173MOL0     H22818   0.235  -0.104   1.475  1.5672  1.5807  3.0190
  173MOL0     H22819   0.474  -0.130   1.497  0.0541  1.6822  1.0687
  173MOL0     H22820   0.974   0.067   1.169 -3.5164 -2.2547 -1.0719
  173MOL0     H22821   1.197   0.010   1.247  0.0781  0.8984 -0.5816
  173MOL0     H22822   1.238   1.354   1.165 -1.9380  0.6666  3.1380
  173MOL0     H22823   1.449   1.439   1.203 -4.3636  0.3541  0.3761
  173MOL0     H22824   2.036   1.149   1.305 -1.2653 -0.9831 -2.7975
  173MOL0     H22825   2.242   1.298   1.252 -0.4414  3.8573  2.5567
  173MOL0     H22826   2.349   1.529   1.312 -0.5265 -0.2833  1.6760
  173MOL0     H22827   2.224   1.649   1.349  1.0420  0.4037 -0.2243
  173MOL0     H22828   2.463   1.684   1.164  2.5897  0.2141  3.1210
  173MOL0     H22829   2.312   1.786   1.161 -0.6376  1.8646  1.4488
  173MOL0     H22830   2.524   1.759   1.378 -1.9402 -1.6010  1.4884
  173MOL0     H22831   2.367   1.826   1.417 -1.6676 -3.1053 -0.5691
  173MOL0     H22832   2.400   2.012   1.263 -0.0747  1.6549  1.0174
  173MOL0     H22833   2.515   2.002   1.406  0.0106  0.2613 -0.1672
  173MOL0     H22834   2.755   1.989   1.058  0.5795  1.4831 -0.3194
  173MOL0     H22835   1.966   1.622   1.180  1.0414 -0.7236 -1.7428
  173MOL0     H22836   1.786   1.481   1.232 -0.5662 -0.3637 -1.6017
  174MOL0     O22837   3.337   4.210   5.545 -0.1977 -0.1132 -0.5723
  174MOL0     C22838   3.394   4.188   5.652 -0.1319 -0.2883 -1.1235
  174MOL0     O22839   3.337   4.162   5.766  0.8269 -0.0085  0.9911
  174MOL0     C22840   3.196   4.140   5.785  0.5680  0.3554  1.1215
  174MOL0     C22841   3.118   4.042   5.720  0.9342 -1.2815  1.3789
  174MOL0     C22842   2.979   4.025   5.734  0.7908 -1.1846 -0.7463
  174MOL0     C22843   2.916   4.095   5.839  0.2347 -0.2718 -0.5038
  174MOL0     O22844   2.777   4.093   5.875 -0.6862  0.0731  0.7995
  174MOL0     C22845   2.696   3.999   5.800 -0.1856 -0.5895 -0.7245
  174MOL0     C22846   2.554   4.017   5.866 -0.0231  0.3191  0.3481
  174MOL0     C22847   2.551   3.970   6.010  0.3917  0.5391 -0.1029
  174MOL0     C22848   2.414   3.976   6.078  0.9381 -1.2842 -1.1369
  174MOL0     C22849   2.413   3.891   6.204 -0.5069 -0.2074  1.0926
  174MOL0     C22850   2.273   3.867   6.240 -0.0380 -0.2748  0.5515
  174MOL0     C22851   2.200   3.990   6.293 -0.3851  0.5051 -0.4307
  174MOL0     C22852   2.078   3.945   6.379  0.2357  0.8548  0.3151
  174MOL0     N22853   1.995   3.837   6.320 -0.1725 -0.1878 -0.1284
  174MOL0     C22854   1.907   3.858   6.217 -0.2862  0.4439  0.2030
  174MOL0     C22855   1.866   3.730   6.191  0.2349  0.9073  0.5694
  174MOL0     C22856   1.775   3.701   6.077 -0.6146  0.1239 -0.3722
  174MOL0     C22857   1.659   3.627   6.135  0.7866 -0.6539  0.0366
  174MOL0     C22858   1.531   3.629   6.051  0.1143 -0.1896 -0.0302
  174MOL0     C22859   1.426   3.566   6.129  0.0158  0.5028 -0.2555
  174MOL0     O22860   1.306   3.554   6.057  0.3926  0.4044  0.2635
  174MOL0     C22861   1.205   3.472   6.099 -0.5173 -0.4308 -0.2912
  174MOL0     C22862   1.072   3.518   6.103  0.5670  0.1945 -0.0804
  174MOL0     C22863   0.962   3.439   6.142  0.2176 -0.6766  0.4923
  174MOL0     C22864   0.993   3.306   6.185  0.2816 -0.7221  0.4013
  174MOL0     C22865   0.884   3.217   6.235 -0.1814  0.1583  1.1309
  174MOL0     O22866   0.921   3.126   6.330  0.5482  0.1391  0.1231
  174MOL0     C22867   0.827   3.053   6.406 -1.4054 -0.9046  0.1184
  174MOL0     C22868   0.781   3.079   6.540 -0.6127 -1.3731  0.6693
  174MOL0     C22869   0.680   3.004   6.602 -0.5240 -0.0753 -0.0828
  174MOL0     C22870   0.625   2.885   6.531  0.1308  0.2622 -1.1134
  174MOL0     O22871   0.532   2.811   6.598 -0.9694 -0.1193 -0.1159
  174MOL0     C22872   0.531   2.666   6.568  0.2324  0.3853 -0.9336
  174MOL0     C22873   0.434   2.627   6.452 -0.0963 -0.4380  0.0386
  174MOL0     C22874   0.428   2.475   6.435  0.2157  0.5775  0.4423
  174MOL0     C22875   0.302   2.441   6.348 -0.0936 -0.3822 -0.7278
  174MOL0     C22876   0.293   2.301   6.305 -0.3734  0.4671  0.9283
  174MOL0     C22877   0.277   2.200   6.422 -0.5816  0.2407  0.2905
  174MOL0     C22878   0.281   2.056   6.368 -0.7462 -0.1671 -0.3358
  174MOL0     C22879   0.251   1.965   6.491  0.4287  0.7880 -0.3025
  174MOL0    Cl22880   0.252   1.796   6.444 -0.3215  0.1320 -0.2476
  174MOL0     C22881   0.679   2.853   6.404 -0.8307  0.2694  0.3900
  174MOL0     C22882   0.772   2.938   6.346  0.4307 -0.9121  0.9504
  174MOL0     O22883   0.771   3.250   6.207  0.4718 -0.3179  0.0068
  174MOL0     C22884   1.129   3.264   6.185  0.1643 -0.5499 -0.5652
  174MOL0     C22885   1.227   3.347   6.141  0.0252  0.4965 -0.5750
  174MOL0     N22886   1.921   3.639   6.276 -0.0371 -0.0325  0.7197
  174MOL0     N22887   1.989   3.704   6.358  0.7772  0.0806 -0.2471
  174MOL0     C22888   2.998   4.183   5.914 -0.3475 -0.0534 -0.4790
  174MOL0     C22889   3.135   4.203   5.886  0.5620  0.5381 -0.5498
  174MOL0     C22890   3.542   4.193   5.648 -0.3843  0.1386  0.2635
  174MOL0     C22891   3.613   4.166   5.763 -0.7986 -0.0960 -0.7472
  174MOL0     C22892   3.757   4.165   5.764 -0.1906  0.7825 -0.8860
  174MOL0     C22893   3.831   4.193   5.646 -1.2274  0.2666 -0.2779
  174MOL0     O22894   3.966   4.201   5.636  0.4168  0.0350 -0.6235
  174MOL0     C22895   4.047   4.178   5.754 -0.4945  0.0287 -0.1575
  174MOL0     C22896   4.048   4.303   5.831 -0.5654  0.6576  0.1145
  174MOL0     C22897   4.116   4.419   5.766 -0.1606  0.3903  0.2890
  174MOL0     C22898   4.264   4.440   5.794 -0.7768 -0.0913  0.1792
  174MOL0     C22899   4.341   4.336   5.730  0.0430 -0.3287  0.2146
  174MOL0     C22900   4.394   4.241   5.681  0.6599 -0.1554 -0.0584
  174MOL0     C22901   3.751   4.238   5.540 -0.7244 -0.2472  0.4209
  174MOL0     C22902   3.614   4.240   5.534 -0.3341  0.2264 -0.7971
  174MOL0     H22903   3.172   3.993   5.640  1.2977  0.3155  0.5995
  174MOL0     H22904   2.915   3.964   5.671 -0.8055 -1.9484  1.4953
  174MOL0     H22905   2.743   3.900   5.803  0.4409 -0.3324 -1.5552
  174MOL0     H22906   2.690   4.032   5.696 -1.6670  0.9526 -0.1982
  174MOL0     H22907   2.479   3.956   5.815 -1.3990  2.2562 -0.0774
  174MOL0     H22908   2.522   4.122   5.859 -2.1078  0.0263  3.3559
  174MOL0     H22909   2.619   4.024   6.076 -1.6545 -0.8608  3.4695
  174MOL0     H22910   2.585   3.866   6.006  0.2505  0.5140 -0.8578
  174MOL0     H22911   2.399   4.078   6.115 -1.3095 -1.7642 -0.5728
  174MOL0     H22912   2.334   3.955   6.006  2.4768  2.0300 -4.1103
  174MOL0     H22913   2.483   3.932   6.277  2.4261 -1.2112 -0.9862
  174MOL0     H22914   2.442   3.787   6.183 -1.6194 -0.6058  1.4397
  174MOL0     H22915   2.281   3.799   6.325 -1.4242 -1.6440 -0.3571
  174MOL0     H22916   2.219   3.815   6.160  1.9396 -2.0792  0.3130
  174MOL0     H22917   2.268   4.045   6.359  0.0042 -0.5496  0.0697
  174MOL0     H22918   2.158   4.062   6.222  1.3401  0.8334 -1.1769
  174MOL0     H22919   2.017   4.033   6.403 -0.4585 -0.1041  2.3172
  174MOL0     H22920   2.108   3.906   6.477 -4.1085 -0.6595  1.2449
  174MOL0     H22921   1.882   3.952   6.169 -0.0289  0.8569  0.8575
  174MOL0     H22922   1.827   3.631   6.011 -1.2096 -1.7280  1.0304
  174MOL0     H22923   1.745   3.794   6.028  1.0376  2.2825  2.4645
  174MOL0     H22924   1.630   3.674   6.229 -1.2987  0.9289 -1.3095
  174MOL0     H22925   1.693   3.526   6.159  1.4423 -0.3345  0.4795
  174MOL0     H22926   1.514   3.736   6.037 -0.1801 -0.2181  0.1039
  174MOL0     H22927   1.537   3.579   5.954 -1.8655 -0.0905 -0.2439
  174MOL0     H22928   1.410   3.630   6.216  0.7505  0.2089  0.1052
  174MOL0     H22929   1.458   3.466   6.159  0.9370  1.3474  1.7911
  174MOL0     H22930   1.050   3.623   6.093 -2.5938 -0.1534  1.8593
  174MOL0     H22931   0.863   3.483   6.142  1.1282  1.5297  0.0530
  174MOL0     H22932   0.830   3.166   6.582 -0.0925 -1.4690  0.2635
  174MOL0     H22933   0.638   3.045   6.694  2.9008  0.3450  1.4515
  174MOL0     H22934   0.499   2.611   6.657 -1.8055  0.5684 -1.5028
  174MOL0     H22935   0.631   2.631   6.540  0.6830  2.0696 -1.5630
  174MOL0     H22936   0.456   2.672   6.355 -0.9228  1.2173  0.5883
  174MOL0     H22937   0.342   2.677   6.483  0.2259  0.9546 -1.1647
  174MOL0     H22938   0.414   2.431   6.534  0.8696  0.8157  0.6466
  174MOL0     H22939   0.515   2.431   6.386 -1.1714 -1.9484  0.0916
  174MOL0     H22940   0.222   2.475   6.413  1.3142  1.6576  0.0315
  174MOL0     H22941   0.303   2.514   6.267  0.0677  2.1812  1.4611
  174MOL0     H22942   0.387   2.278   6.254 -2.5153 -1.2017 -2.6868
  174MOL0     H22943   0.211   2.300   6.233 -1.1702  1.6200  1.7897
  174MOL0     H22944   0.182   2.222   6.473 -0.4473  2.3610 -0.2863
  174MOL0     H22945   0.360   2.211   6.493 -0.3652 -0.2669  0.1249
  174MOL0     H22946   0.203   2.057   6.292 -0.5688 -0.4285 -0.5210
  174MOL0     H22947   0.385   2.045   6.336 -0.5219 -0.0387  0.3223
  174MOL0     H22948   0.146   1.984   6.513  0.2712  1.1061 -1.2883
  174MOL0     H22949   0.313   1.983   6.580 -1.8660  0.9369  1.3458
  174MOL0     H22950   0.641   2.769   6.347  1.8477 -0.7200 -0.0541
  174MOL0     H22951   0.815   2.926   6.248 -1.1285  1.6446 -0.1481
  174MOL0     H22952   1.167   3.171   6.225  1.5369  0.3383  0.2943
  174MOL0     H22953   1.331   3.315   6.141 -0.1357 -0.0371 -0.2899
  174MOL0     H22954   2.964   4.237   6.002 -0.8405  0.4769 -0.9827
  174MOL0     H22955   3.193   4.271   5.947 -0.1306  1.3664 -0.7895
  174MOL0     H22956   3.563   4.145   5.858 -0.2868  0.1658 -0.4157
  174MOL0     H22957   3.792   4.149   5.865 -0.7717  3.5821 -0.1667
  174MOL0     H22958   4.150   4.148   5.733  0.2721  0.5316  2.5223
  174MOL0     H22959   4.001   4.103   5.819 -0.4302  1.3654  1.5003
  174MOL0     H22960   3.946   4.337   5.853 -0.8388  0.3894 -0.6995
  174MOL0     H22961   4.085   4.284   5.932  0.4426 -3.2504 -0.8159
  174MOL0     H22962   4.071   4.509   5.812  0.8297  0.9582  0.1770
  174MOL0     H22963   4.100   4.419   5.658 -1.6554 -2.8801  0.4152
  174MOL0     H22964   4.303   4.533   5.753  1.9486 -0.7410  1.0896
  174MOL0     H22965   4.277   4.434   5.903 -0.5225 -3.6799  0.0866
  174MOL0     H22966   4.451   4.162   5.635  1.8296  1.0200 -0.6898
  174MOL0     H22967   3.802   4.263   5.447 -0.7639 -0.6516  0.2880
  174MOL0     H22968   3.551   4.279   5.454 -1.3937  1.5471  0.6162
  175MOL0     O22969   4.988   0.385   8.300 -0.2618 -0.5174  0.9113
  175MOL0     C22970   5.005   0.427   8.185  0.0466 -0.8241 -0.0859
  175MOL0     O22971   4.909   0.481   8.108 -0.1621  0.4293 -0.4528
  175MOL0     C22972   4.785   0.490   8.168 -0.1897  0.2668  0.6166
  175MOL0     C22973   4.707   0.376   8.216  0.1545 -0.5397 -0.4166
  175MOL0     C22974   4.578   0.391   8.255 -0.4804 -0.0115 -0.3753
  175MOL0     C22975   4.524   0.517   8.272  0.0952  0.6820  0.3800
  175MOL0     O22976   4.390   0.531   8.291 -0.0866  0.4879 -0.5027
  175MOL0     C22977   4.324   0.498   8.417 -0.0184  0.3562 -0.3066
  175MOL0     C22978   4.174   0.536   8.398 -0.2272  0.4050  0.2896
  175MOL0     C22979   4.092   0.574   8.531 -0.1810  0.1467  0.0061
  175MOL0     C22980   3.955   0.627   8.483 -0.3216  0.0267  0.7901
  175MOL0     C22981   3.871   0.684   8.602  0.0730  0.5534  0.4551
  175MOL0     C22982   3.746   0.749   8.542  0.1722 -1.1840 -0.5696
  175MOL0     C22983   3.627   0.771   8.644 -0.8890  0.2079  0.3388
  175MOL0     C22984   3.679   0.836   8.765 -1.0671  0.6014 -0.7152
  175MOL0     N22985   3.576   0.850   8.870 -0.4356 -0.3207 -0.0623
  175MOL0     C22986   3.516   0.965   8.902  0.4947 -0.5163 -0.2062
  175MOL0     C22987   3.452   0.944   9.017 -0.1276  0.5891 -0.7415
  175MOL0     C22988   3.378   1.038   9.109  0.8822  0.2353  0.7464
  175MOL0     C22989   3.256   1.095   9.029  0.3436 -0.0387  0.7507
  175MOL0     C22990   3.186   1.210   9.103  0.2203 -0.2219 -0.2398
  175MOL0     C22991   3.051   1.242   9.029  0.3166  0.0818 -0.0432
  175MOL0     O22992   3.001   1.356   9.110  0.0470  0.3284  0.2008
  175MOL0     C22993   2.882   1.426   9.090 -0.7938  0.3208  0.0487
  175MOL0     C22994   2.874   1.555   9.140  0.9109 -0.2082  0.0453
  175MOL0     C22995   2.764   1.634   9.108 -0.1728 -0.3877  0.9609
  175MOL0     C22996   2.658   1.576   9.027  0.9345  0.5706 -0.3553
  175MOL0     C22997   2.535   1.663   8.988 -0.7225 -0.5268  0.4766
  175MOL0     O22998   2.560   1.797   8.997  0.3470  0.4207 -0.1940
  175MOL0     C22999   2.489   1.888   8.917 -0.6689 -0.3432 -0.6478
  175MOL0     C23000   2.422   1.994   8.972  0.0914 -0.4689  0.3428
  175MOL0     C23001   2.361   2.095   8.895  0.8192 -0.3611 -0.5903
  175MOL0     C23002   2.367   2.085   8.763 -0.3906  0.5716  0.4310
  175MOL0     O23003   2.310   2.176   8.682  0.0792 -0.2717 -0.1332
  175MOL0     C23004   2.380   2.300   8.652 -0.2451 -0.2056 -0.2773
  175MOL0     C23005   2.272   2.410   8.608 -1.7236 -0.1386 -0.3138
  175MOL0     C23006   2.183   2.367   8.501  0.3017 -0.7195  0.1907
  175MOL0     C23007   2.255   2.332   8.366  0.8284  0.2678 -0.5921
  175MOL0     C23008   2.155   2.352   8.255 -0.7215 -0.7961  0.1096
  175MOL0     C23009   2.196   2.290   8.132  1.1320  1.2647  0.7364
  175MOL0     C23010   2.092   2.317   8.015  0.0723 -0.3735 -0.6896
  175MOL0     C23011   2.149   2.271   7.878 -0.9361  0.2213 -0.1790
  175MOL0    Cl23012   2.044   2.282   7.729  0.0584 -0.0906  0.0187
  175MOL0     C23013   2.422   1.980   8.697 -0.6764  0.2023  0.1521
  175MOL0     C23014   2.487   1.882   8.777 -0.0153  0.5852 -0.3109
  175MOL0     O23015   2.444   1.612   8.934 -0.0096 -0.7505  0.3075
  175MOL0     C23016   2.664   1.436   9.003 -0.4930 -0.5766 -0.1625
  175MOL0     C23017   2.774   1.364   9.038 -0.0128 -0.5008 -0.6464
  175MOL0     N23018   3.482   0.814   9.054  0.1144  0.7232  0.1713
  175MOL0     N23019   3.546   0.754   8.958  0.2065  0.2352 -0.4288
  175MOL0     C23020   4.598   0.627   8.228 -0.7656  0.0854  0.6513
  175MOL0     C23021   4.734   0.617   8.179 -0.1624 -0.8581 -0.1104
  175MOL0     C23022   5.141   0.407   8.125  0.0474  0.5951 -0.3505
  175MOL0     C23023   5.240   0.343   8.200 -0.3684 -0.5280  0.2193
  175MOL0     C23024   5.378   0.348   8.165  0.1592 -0.9510  0.0273
  175MOL0     C23025   5.413   0.404   8.040 -0.5623 -0.1659 -0.5587
  175MOL0     O23026   5.542   0.436   8.012 -0.1019  0.6529  0.5711
  175MOL0     C23027   5.621   0.461   8.129 -0.4199 -0.3050  0.2417
  175MOL0     C23028   5.763   0.516   8.105  0.1330  0.3659 -0.2880
  175MOL0     C23029   5.851   0.462   7.995 -0.5310  0.7211 -1.3372
  175MOL0     C23030   5.991   0.513   8.011 -0.9558  0.7122 -0.4105
  175MOL0     C23031   6.069   0.460   7.899  0.1663  1.4891 -0.2369
  175MOL0     C23032   6.138   0.419   7.807 -0.0778 -0.0338 -0.4409
  175MOL0     C23033   5.312   0.455   7.960  0.0941  0.1895 -0.9536
  175MOL0     C23034   5.177   0.463   8.012  0.3741 -1.2154 -0.6608
  175MOL0     H23035   4.740   0.274   8.200  1.2448 -0.2003 -0.4264
  175MOL0     H23036   4.524   0.298   8.266  0.5883 -0.5588  0.3995
  175MOL0     H23037   4.372   0.553   8.498 -1.6893  1.1546  0.1795
  175MOL0     H23038   4.329   0.390   8.433  1.6893  0.6835  1.6642
  175MOL0     H23039   4.126   0.454   8.343 -0.0633 -1.4421  2.7588
  175MOL0     H23040   4.159   0.620   8.329 -0.2027 -0.4881 -0.8352
  175MOL0     H23041   4.150   0.655   8.575  1.7385 -0.8461 -0.5726
  175MOL0     H23042   4.089   0.498   8.610 -3.1516 -0.3440 -0.4437
  175MOL0     H23043   3.967   0.699   8.401  0.5082 -2.1723 -1.1300
  175MOL0     H23044   3.898   0.553   8.427  0.3044 -0.1198  0.3381
  175MOL0     H23045   3.919   0.761   8.664 -1.4707  3.0304 -1.2297
  175MOL0     H23046   3.851   0.604   8.674 -0.6481  0.2547 -0.0622
  175MOL0     H23047   3.710   0.690   8.457 -1.0812  0.5577 -1.3265
  175MOL0     H23048   3.774   0.841   8.490  0.1573 -0.2480  1.0225
  175MOL0     H23049   3.548   0.830   8.596  0.6120  0.7055 -1.6610
  175MOL0     H23050   3.581   0.674   8.664  3.1484 -1.7311  1.2836
  175MOL0     H23051   3.729   0.927   8.731  0.6183  0.1179  0.3457
  175MOL0     H23052   3.758   0.778   8.812 -1.1632  2.2233  1.6285
  175MOL0     H23053   3.522   1.062   8.854  1.5041 -0.1657  0.5938
  175MOL0     H23054   3.434   1.122   9.152 -0.7761  1.8797 -0.1682
  175MOL0     H23055   3.338   0.973   9.187  0.2323 -1.7531 -1.1441
  175MOL0     H23056   3.183   1.016   9.015 -0.6238  0.5317  2.3636
  175MOL0     H23057   3.281   1.140   8.932  1.7472  0.3166  1.2432
  175MOL0     H23058   3.156   1.179   9.204 -0.0472  3.0612  0.8177
  175MOL0     H23059   3.254   1.294   9.118  2.1804 -1.6049 -1.0660
  175MOL0     H23060   2.990   1.152   9.036  0.2036  0.1801  0.2699
  175MOL0     H23061   3.060   1.258   8.921 -0.3490  1.0806  0.0396
  175MOL0     H23062   2.961   1.610   9.174  1.3908 -1.0085  0.1257
  175MOL0     H23063   2.749   1.738   9.134 -1.9008  0.4225 -2.6373
  175MOL0     H23064   2.402   1.997   9.079 -4.1136 -2.3390 -0.1823
  175MOL0     H23065   2.306   2.174   8.944  0.5778  1.3234 -3.3899
  175MOL0     H23066   2.452   2.287   8.570 -0.9954  1.4228 -1.2696
  175MOL0     H23067   2.432   2.331   8.743  2.2291 -0.2477 -1.5814
  175MOL0     H23068   2.331   2.500   8.590 -1.2438  0.3170  2.9931
  175MOL0     H23069   2.208   2.440   8.691 -1.6337 -1.7194  0.3722
  175MOL0     H23070   2.117   2.450   8.474  0.9352 -0.6208 -1.1621
  175MOL0     H23071   2.126   2.280   8.536  1.3630 -0.9986  1.2916
  175MOL0     H23072   2.345   2.395   8.359 -0.1375  1.6551 -0.9390
  175MOL0     H23073   2.296   2.231   8.367 -0.2564 -0.1812  0.9601
  175MOL0     H23074   2.138   2.457   8.227  0.8531 -0.4898  0.1793
  175MOL0     H23075   2.059   2.310   8.284 -1.3519 -1.2228 -2.4090
  175MOL0     H23076   2.197   2.182   8.153 -0.1612  1.5588  2.5518
  175MOL0     H23077   2.296   2.316   8.096  0.4601  1.7866 -0.8800
  175MOL0     H23078   2.001   2.261   8.035  0.0606 -0.0319  0.2897
  175MOL0     H23079   2.071   2.425   8.017  0.6864 -0.2220  2.6222
  175MOL0     H23080   2.195   2.172   7.889 -1.2600 -0.2014 -2.1681
  175MOL0     H23081   2.231   2.336   7.847 -0.5349 -1.0067 -1.8731
  175MOL0     H23082   2.417   1.985   8.589  1.5672 -0.0101 -0.0165
  175MOL0     H23083   2.538   1.796   8.735  0.2373 -1.2777  3.4840
  175MOL0     H23084   2.586   1.379   8.953 -0.0091 -1.6061  0.2448
  175MOL0     H23085   2.777   1.260   9.006 -2.5278 -1.0566  0.5920
  175MOL0     H23086   4.567   0.732   8.227  0.0275  0.3173  0.1020
  175MOL0     H23087   4.790   0.702   8.141  1.4398 -0.9978  1.7877
  175MOL0     H23088   5.213   0.306   8.298 -0.7453 -0.2478  0.2203
  175MOL0     H23089   5.453   0.311   8.234 -4.0002 -1.8374  4.5836
  175MOL0     H23090   5.647   0.364   8.172 -1.4986 -2.2813 -3.1493
  175MOL0     H23091   5.564   0.525   8.197 -1.1799 -0.1427 -0.5220
  175MOL0     H23092   5.755   0.624   8.091  4.7770  0.6359 -2.8469
  175MOL0     H23093   5.821   0.517   8.198  2.3278 -0.0304 -1.5883
  175MOL0     H23094   5.805   0.493   7.900 -0.7169 -0.2496 -1.5766
  175MOL0     H23095   5.850   0.353   7.987  3.0528  0.4685 -0.0858
  175MOL0     H23096   5.997   0.622   8.013 -1.3001  0.7433  2.1165
  175MOL0     H23097   6.031   0.474   8.106  0.5216 -0.1532 -1.3474
  175MOL0     H23098   6.201   0.404   7.721 -1.9637  0.4983 -1.9706
  175MOL0     H23099   5.336   0.504   7.867 -0.2520 -0.2787 -1.2925
  175MOL0     H23100   5.113   0.514   7.941 -2.1833 -3.4562 -0.1244
  176MOL0     O23101  10.206   2.240   2.019  0.0568 -0.0262 -0.2406
  176MOL0     C23102  10.147   2.181   1.928  0.1271 -0.1423  1.3141
  176MOL0     O23103  10.022   2.213   1.870  0.1064 -0.3342 -0.1028
  176MOL0     C23104   9.950   2.334   1.905 -0.2864  0.5223 -0.2545
  176MOL0     C23105   9.812   2.336   1.887  0.7125  0.1469 -0.3983
  176MOL0     C23106   9.736   2.454   1.892 -0.8301  0.8787 -0.2197
  176MOL0     C23107   9.802   2.578   1.912 -0.1691  0.0455 -0.6813
  176MOL0     O23108   9.734   2.694   1.914  0.0030  0.1465  0.1551
  176MOL0     C23109   9.598   2.699   1.860 -0.1854 -0.0127  0.4168
  176MOL0     C23110   9.486   2.681   1.958  0.9234 -0.6853 -0.3155
  176MOL0     C23111   9.356   2.645   1.885 -0.0134 -0.1722 -0.0482
  176MOL0     C23112   9.289   2.765   1.822  0.1878 -0.0365  0.6033
  176MOL0     C23113   9.142   2.742   1.796  0.5613  0.6734  0.2292
  176MOL0     C23114   9.058   2.841   1.716 -0.6715  0.4914 -0.5723
  176MOL0     C23115   9.019   2.973   1.793 -0.2006 -0.4143  0.0454
  176MOL0     C23116   8.949   3.076   1.712 -0.0873  0.4971  0.1910
  176MOL0     N23117   8.803   3.063   1.739  0.4630 -0.6220  1.0120
  176MOL0     C23118   8.737   3.082   1.857  0.2931 -0.9927 -0.2893
  176MOL0     C23119   8.611   3.042   1.841  0.3297  0.3218 -0.5748
  176MOL0     C23120   8.500   3.067   1.939 -0.0240  0.5865 -0.8247
  176MOL0     C23121   8.409   3.185   1.916 -0.1354  0.0254 -0.3856
  176MOL0     C23122   8.475   3.320   1.959  0.3097 -0.0359  0.2243
  176MOL0     C23123   8.381   3.436   1.909 -0.0551  0.6372  1.5964
  176MOL0     O23124   8.284   3.460   2.012 -0.7670 -0.2559 -0.5451
  176MOL0     C23125   8.195   3.565   1.994 -0.2754 -0.1623 -0.3417
  176MOL0     C23126   8.176   3.623   1.866  0.1615  0.8204  1.2591
  176MOL0     C23127   8.077   3.725   1.836 -0.4414 -0.0377 -0.5888
  176MOL0     C23128   7.992   3.762   1.945  0.0910  0.6119  0.1881
  176MOL0     C23129   7.878   3.852   1.924  0.2680  0.2059  0.2323
  176MOL0     O23130   7.839   3.866   1.790  0.2756  0.5021  0.1883
  176MOL0     C23131   7.741   3.966   1.778  0.5001 -0.6377  0.3809
  176MOL0     C23132   7.792   4.089   1.729  0.3581  0.6717  0.5324
  176MOL0     C23133   7.699   4.193   1.709  0.2213  0.1345 -0.1946
  176MOL0     C23134   7.568   4.180   1.732 -0.3590  0.1861 -0.0094
  176MOL0     O23135   7.485   4.286   1.696  0.2132  0.1908  0.5812
  176MOL0     C23136   7.345   4.260   1.686  0.7988  0.9588  0.4014
  176MOL0     C23137   7.279   4.387   1.632  0.4180 -0.6988  0.4001
  176MOL0     C23138   7.132   4.382   1.613  0.0989 -1.2162  0.5269
  176MOL0     C23139   7.075   4.528   1.577  0.0029 -0.4962 -0.8209
  176MOL0     C23140   6.926   4.533   1.565  0.0957  0.4967 -0.0126
  176MOL0     C23141   6.868   4.449   1.463 -0.0499  0.5673  0.3170
  176MOL0     C23142   6.715   4.462   1.458  0.0824 -0.9558  0.5656
  176MOL0     C23143   6.677   4.585   1.369 -0.1933  0.8193  0.6612
  176MOL0    Cl23144   6.506   4.575   1.332  0.1170 -0.1168  0.5396
  176MOL0     C23145   7.526   4.061   1.785 -0.5176  0.5128  0.0672
  176MOL0     C23146   7.611   3.949   1.800 -0.3800  0.5775 -0.4113
  176MOL0     O23147   7.809   3.883   2.024  0.7099 -0.2074 -0.3995
  176MOL0     C23148   8.011   3.701   2.072 -0.3848  0.2178  0.0886
  176MOL0     C23149   8.105   3.606   2.096 -0.4195  0.6236 -0.5299
  176MOL0     N23150   8.597   2.982   1.720 -0.0689  0.5702  0.5928
  176MOL0     N23151   8.718   2.991   1.661 -0.1959 -0.1636 -0.4617
  176MOL0     C23152   9.945   2.578   1.942 -0.7275  0.4710  0.1466
  176MOL0     C23153  10.015   2.459   1.934  0.2824 -0.1291 -0.7843
  176MOL0     C23154  10.191   2.051   1.886  0.0313  0.1781  0.3067
  176MOL0     C23155  10.141   1.983   1.777  0.1686  0.3383 -1.2018
  176MOL0     C23156  10.202   1.867   1.732  0.4478  0.1368  0.3258
  176MOL0     C23157  10.311   1.804   1.782 -0.4634  0.3271 -0.3241
  176MOL0     O23158  10.357   1.683   1.715  0.6246  0.1691 -0.3694
  176MOL0     C23159  10.476   1.612   1.755 -0.3206 -0.7185  0.3211
  176MOL0     C23160  10.489   1.476   1.688 -0.1405 -0.2751 -0.2437
  176MOL0     C23161  10.624   1.409   1.708 -0.2211  0.4543  0.2405
  176MOL0     C23162  10.617   1.320   1.837 -0.2909 -0.9751  0.4604
  176MOL0     C23163  10.749   1.287   1.889 -0.0913 -0.7097 -1.2951
  176MOL0     C23164  10.855   1.288   1.952  0.0533 -0.9186  0.0643
  176MOL0     C23165  10.369   1.873   1.887  0.4583  1.1296  0.3024
  176MOL0     C23166  10.308   1.990   1.934  0.3861 -0.4819  0.3026
  176MOL0     H23167   9.770   2.238   1.868  2.4122 -0.9072  1.0245
  176MOL0     H23168   9.628   2.448   1.886 -0.8095 -1.8855  0.6821
  176MOL0     H23169   9.579   2.631   1.777 -3.4338 -1.4099  2.1154
  176MOL0     H23170   9.582   2.798   1.818 -0.5706 -0.8686 -1.5409
  176MOL0     H23171   9.467   2.763   2.028 -1.8568 -2.6237  1.4021
  176MOL0     H23172   9.503   2.598   2.027  1.5298  1.2984  2.0759
  176MOL0     H23173   9.294   2.607   1.966 -1.1507 -0.4860 -1.0405
  176MOL0     H23174   9.383   2.560   1.822  2.3490 -0.4268  1.2006
  176MOL0     H23175   9.302   2.858   1.878 -0.4835  0.4331 -0.0072
  176MOL0     H23176   9.353   2.771   1.733  1.8426 -3.8886  1.3029
  176MOL0     H23177   9.088   2.715   1.887 -1.3465 -3.2256 -1.8101
  176MOL0     H23178   9.139   2.652   1.734  1.3669  2.0126 -1.8739
  176MOL0     H23179   8.959   2.802   1.692  0.5170 -1.1011 -3.4615
  176MOL0     H23180   9.109   2.866   1.622  1.1430  0.8705  0.4606
  176MOL0     H23181   8.974   2.952   1.890  2.4595  1.4351  1.8463
  176MOL0     H23182   9.113   3.030   1.802 -1.0272  1.8560 -3.5279
  176MOL0     H23183   8.969   3.063   1.605  1.9833  0.1068  0.5675
  176MOL0     H23184   8.976   3.180   1.730  0.0033  1.1453 -3.0575
  176MOL0     H23185   8.767   3.115   1.956 -3.5465 -2.6562  1.6618
  176MOL0     H23186   8.543   3.071   2.039  0.8548 -1.2216 -1.0910
  176MOL0     H23187   8.435   2.979   1.926  1.8651 -1.0582  0.3391
  176MOL0     H23188   8.322   3.172   1.982  0.6359  1.7474  1.0546
  176MOL0     H23189   8.376   3.182   1.812  0.5842 -0.3697 -0.6088
  176MOL0     H23190   8.481   3.325   2.068 -1.1783  1.6494  0.2745
  176MOL0     H23191   8.577   3.329   1.920 -0.2872 -0.3950 -1.5035
  176MOL0     H23192   8.321   3.406   1.822 -0.3956 -1.6484  2.5570
  176MOL0     H23193   8.429   3.530   1.880 -0.8089 -0.3192 -3.6766
  176MOL0     H23194   8.233   3.596   1.778  0.2015 -0.9635  1.7919
  176MOL0     H23195   8.065   3.756   1.732 -3.2840  2.2303  0.2766
  176MOL0     H23196   7.892   4.106   1.692  1.0083  1.3393  2.4840
  176MOL0     H23197   7.736   4.290   1.676  1.3360 -0.1003  0.3006
  176MOL0     H23198   7.298   4.229   1.780  2.0737 -0.4166  0.6341
  176MOL0     H23199   7.327   4.170   1.626  0.2676 -1.5729  3.9650
  176MOL0     H23200   7.322   4.414   1.536 -1.6611 -0.5904 -0.5508
  176MOL0     H23201   7.293   4.459   1.713 -0.8921 -1.3374  1.2410
  176MOL0     H23202   7.079   4.355   1.705 -1.0617  2.4759  1.0959
  176MOL0     H23203   7.118   4.309   1.533  1.8825  0.1485 -1.0941
  176MOL0     H23204   7.092   4.592   1.665 -1.2645 -2.2578  0.7961
  176MOL0     H23205   7.115   4.576   1.488 -0.8445  2.5218  0.3089
  176MOL0     H23206   6.889   4.634   1.549 -1.2252 -0.2702 -2.3220
  176MOL0     H23207   6.906   4.498   1.667 -0.7439 -0.7290 -0.5639
  176MOL0     H23208   6.894   4.345   1.485 -0.3576  0.8841  2.4293
  176MOL0     H23209   6.909   4.475   1.365  1.7276  1.1470  1.1627
  176MOL0     H23210   6.677   4.374   1.406 -0.0388 -1.0952  0.8872
  176MOL0     H23211   6.665   4.457   1.555 -0.3242 -0.5442  0.3768
  176MOL0     H23212   6.739   4.585   1.279  0.5428  0.0423  1.1536
  176MOL0     H23213   6.693   4.673   1.432  1.4752  2.8216 -2.3083
  176MOL0     H23214   7.423   4.041   1.812 -0.1858 -1.2005  0.1560
  176MOL0     H23215   7.570   3.856   1.839  2.3472 -0.5000  0.1298
  176MOL0     H23216   7.947   3.726   2.156  2.3198  0.9891  2.0659
  176MOL0     H23217   8.128   3.574   2.197 -1.7500  2.4630  0.4260
  176MOL0     H23218  10.004   2.661   1.980  0.4933 -0.6675  0.8353
  176MOL0     H23219  10.121   2.463   1.956  0.9241 -1.1241 -3.3590
  176MOL0     H23220  10.054   2.019   1.724 -0.4332  0.2294 -0.3067
  176MOL0     H23221  10.150   1.822   1.648  0.3671  1.6907 -0.4833
  176MOL0     H23222  10.477   1.594   1.863 -1.0992 -0.1830  0.4231
  176MOL0     H23223  10.564   1.675   1.736 -0.4487 -1.0254 -1.4881
  176MOL0     H23224  10.411   1.413   1.730 -2.0054  1.4535 -0.9587
  176MOL0     H23225  10.470   1.475   1.580  0.6128 -0.6482 -0.3821
  176MOL0     H23226  10.699   1.488   1.720 -0.3647  0.4783  1.0375
  176MOL0     H23227  10.652   1.351   1.620 -1.9137  0.2309 -0.1785
  176MOL0     H23228  10.567   1.373   1.919  0.5537 -0.8138  0.8823
  176MOL0     H23229  10.561   1.228   1.819  0.0228 -0.9035 -1.0578
  176MOL0     H23230  10.947   1.291   2.008  0.4287  2.0594 -0.5359
  176MOL0     H23231  10.457   1.844   1.943  1.1326 -0.4887 -1.4597
  176MOL0     H23232  10.359   2.050   2.009 -0.2411  2.7567 -1.6813
  177MOL0     O23233   5.083   4.992   0.137  0.0761  0.8104  0.1229
  177MOL0     C23234   5.034   5.105   0.149  0.0977 -0.5745 -0.3488
  177MOL0     O23235   4.920   5.132   0.212 -0.0339 -0.4451  0.5520
  177MOL0     C23236   4.858   5.058   0.310 -0.4100  0.2941 -0.3521
  177MOL0     C23237   4.900   4.940   0.365 -0.4890  1.1868 -0.4319
  177MOL0     C23238   4.840   4.890   0.481 -0.5571 -0.5262 -0.2732
  177MOL0     C23239   4.733   4.954   0.551  0.8027 -0.7560  0.7715
  177MOL0     O23240   4.677   4.924   0.668 -0.1589 -0.0075  0.0874
  177MOL0     C23241   4.776   4.870   0.760  0.0936 -1.0680 -0.6564
  177MOL0     C23242   4.702   4.771   0.848  0.0994  0.0315 -0.5611
  177MOL0     C23243   4.797   4.718   0.960  0.2219 -0.1640 -0.2339
  177MOL0     C23244   4.711   4.635   1.051 -0.8209 -1.2538  0.5058
  177MOL0     C23245   4.788   4.614   1.183 -0.0944  0.1444  0.3991
  177MOL0     C23246   4.694   4.535   1.268  0.3306  0.5709 -0.3777
  177MOL0     C23247   4.768   4.458   1.374 -0.7925 -0.5883  0.4051
  177MOL0     C23248   4.807   4.547   1.501 -0.2875 -0.6241 -0.7505
  177MOL0     N23249   4.689   4.600   1.571 -0.0873 -0.1638  0.0985
  177MOL0     C23250   4.641   4.726   1.556  0.6064  0.2551  0.2110
  177MOL0     C23251   4.531   4.720   1.624  1.1309 -0.9643  0.0764
  177MOL0     C23252   4.436   4.830   1.643 -0.2836  0.7651 -0.5714
  177MOL0     C23253   4.379   4.837   1.789  0.0739 -0.3900 -0.7702
  177MOL0     C23254   4.271   4.940   1.806 -0.8072 -0.1766 -0.0680
  177MOL0     C23255   4.139   4.901   1.749  0.9295  0.6963  0.4031
  177MOL0     O23256   4.033   5.010   1.771 -0.2258 -0.1840 -0.2316
  177MOL0     C23257   3.900   4.971   1.738  0.4652  0.1499  0.5280
  177MOL0     C23258   3.802   5.026   1.827 -1.1878 -0.4674 -0.1808
  177MOL0     C23259   3.668   5.001   1.811 -0.8389  0.3967 -0.4131
  177MOL0     C23260   3.624   4.914   1.711 -0.0746 -0.0347 -0.2895
  177MOL0     C23261   3.484   4.883   1.680 -0.1448 -0.2847  0.2841
  177MOL0     O23262   3.465   4.829   1.563  0.2149 -0.0737 -0.1121
  177MOL0     C23263   3.334   4.788   1.531  0.9926 -0.2262 -0.8857
  177MOL0     C23264   3.286   4.849   1.423  0.6066 -0.5124  0.1580
  177MOL0     C23265   3.171   4.806   1.367 -0.1844  0.1032 -1.3733
  177MOL0     C23266   3.102   4.705   1.430  0.2935  1.0636  0.3694
  177MOL0     O23267   2.984   4.671   1.361 -0.1598 -0.3321  0.1672
  177MOL0     C23268   2.902   4.568   1.420 -1.0702 -0.5681 -0.2298
  177MOL0     C23269   2.787   4.539   1.324  0.1706  1.1381 -0.1592
  177MOL0     C23270   2.704   4.670   1.286 -0.7645  0.5667  0.2737
  177MOL0     C23271   2.593   4.635   1.185  0.1082  0.4957 -0.4031
  177MOL0     C23272   2.492   4.536   1.245 -0.2329  1.0935 -0.4644
  177MOL0     C23273   2.379   4.515   1.148 -0.2644 -0.4864  0.2044
  177MOL0     C23274   2.267   4.425   1.196 -0.0719  0.1335 -0.4204
  177MOL0     C23275   2.159   4.400   1.099  0.0522 -0.0074 -0.4382
  177MOL0    Cl23276   2.215   4.291   0.960 -0.3756  0.2663  0.4109
  177MOL0     C23277   3.158   4.637   1.542 -0.8831 -0.1273  0.2631
  177MOL0     C23278   3.276   4.682   1.595 -0.8149 -0.6323 -0.1437
  177MOL0     O23279   3.398   4.915   1.761  0.2915 -0.8569  0.2747
  177MOL0     C23280   3.721   4.862   1.623 -0.1183 -0.7479 -0.3563
  177MOL0     C23281   3.855   4.892   1.631 -0.5601 -0.1811  0.2523
  177MOL0     N23282   4.518   4.609   1.698  0.3398 -0.4276 -0.4803
  177MOL0     N23283   4.616   4.530   1.666  0.5626  0.0850  0.0644
  177MOL0     C23284   4.682   5.068   0.485  0.9855 -0.4984 -0.0516
  177MOL0     C23285   4.754   5.123   0.376 -0.5391  0.3697  0.5096
  177MOL0     C23286   5.124   5.221   0.106  0.4981 -0.4034  0.3687
  177MOL0     C23287   5.252   5.200   0.078  0.2946  0.6128 -0.3381
  177MOL0     C23288   5.329   5.307   0.029  0.3324  0.5319 -0.0036
  177MOL0     C23289   5.286   5.443   0.027  0.4052 -0.7780  0.0602
  177MOL0     O23290   5.358   5.558  -0.013 -0.0841  0.0754  0.4030
  177MOL0     C23291   5.460   5.540  -0.116  0.3493 -0.8577  0.4720
  177MOL0     C23292   5.516   5.678  -0.163  0.7514 -0.0505 -0.2320
  177MOL0     C23293   5.604   5.668  -0.293  0.2259 -0.8231 -0.5588
  177MOL0     C23294   5.735   5.590  -0.275  0.0524  0.4032  0.7771
  177MOL0     C23295   5.788   5.563  -0.409  0.0617 -0.2971  0.4970
  177MOL0     C23296   5.851   5.528  -0.505  0.5302 -0.3068 -0.6148
  177MOL0     C23297   5.151   5.458   0.072  0.4796  0.2163 -0.4154
  177MOL0     C23298   5.073   5.349   0.097  0.3786  0.4276 -0.6364
  177MOL0     H23299   4.984   4.884   0.327 -0.2511  2.1321 -1.3405
  177MOL0     H23300   4.884   4.799   0.521 -0.5415  0.5101  2.2655
  177MOL0     H23301   4.797   4.956   0.824 -3.4291 -0.8659  0.3922
  177MOL0     H23302   4.868   4.827   0.719  0.2371 -1.9064  0.4930
  177MOL0     H23303   4.664   4.686   0.789  1.7815 -0.7445 -0.5939
  177MOL0     H23304   4.624   4.820   0.906 -0.0087 -0.4604 -0.2790
  177MOL0     H23305   4.849   4.799   1.012  0.6016 -0.0487 -0.7909
  177MOL0     H23306   4.871   4.653   0.913  0.5909  0.0617  0.0281
  177MOL0     H23307   4.611   4.675   1.071 -0.1676  0.4183  0.5458
  177MOL0     H23308   4.691   4.537   1.006 -1.4469 -1.1141  0.4718
  177MOL0     H23309   4.811   4.713   1.224  3.2171 -0.0827 -0.5475
  177MOL0     H23310   4.881   4.559   1.162 -0.3571  0.7130 -2.8634
  177MOL0     H23311   4.648   4.456   1.208  2.2351 -0.9882  0.0929
  177MOL0     H23312   4.624   4.607   1.312 -2.4759 -1.0533 -1.9292
  177MOL0     H23313   4.705   4.375   1.405 -0.2245 -0.7220  1.2435
  177MOL0     H23314   4.860   4.410   1.339 -0.1160 -1.6274  3.3129
  177MOL0     H23315   4.862   4.638   1.474  0.5002 -0.4527  1.2638
  177MOL0     H23316   4.880   4.499   1.566  2.6039  3.4483 -0.5867
  177MOL0     H23317   4.679   4.805   1.492 -0.1926  2.5539  2.3851
  177MOL0     H23318   4.355   4.808   1.573  1.6909 -1.0484 -2.4433
  177MOL0     H23319   4.487   4.917   1.603  0.3518 -0.1809 -1.8662
  177MOL0     H23320   4.461   4.863   1.857 -0.4700 -1.4112  0.2993
  177MOL0     H23321   4.334   4.744   1.823  0.1493 -0.0850  0.1726
  177MOL0     H23322   4.247   4.955   1.912  1.0943  2.4559  0.0888
  177MOL0     H23323   4.297   5.038   1.765 -2.2271  2.1165  3.9080
  177MOL0     H23324   4.112   4.800   1.781  1.4174  0.9128  1.5307
  177MOL0     H23325   4.151   4.890   1.641  1.4753  3.5495  0.0912
  177MOL0     H23326   3.828   5.078   1.918 -1.7726  0.6030 -0.6059
  177MOL0     H23327   3.604   5.039   1.889 -0.2136  0.6860 -0.0345
  177MOL0     H23328   3.339   4.937   1.390  0.8535 -0.4679  0.6598
  177MOL0     H23329   3.120   4.851   1.282  0.4146  1.0606 -1.2484
  177MOL0     H23330   2.867   4.592   1.520  1.3998 -1.7562  1.0056
  177MOL0     H23331   2.975   4.486   1.424  0.5036  0.7345 -0.7212
  177MOL0     H23332   2.731   4.471   1.388 -0.7847  0.2207 -1.9090
  177MOL0     H23333   2.820   4.488   1.233 -0.9581  0.6910 -0.3377
  177MOL0     H23334   2.774   4.743   1.244  0.6389 -0.6641  0.3925
  177MOL0     H23335   2.659   4.716   1.374 -0.8947  0.2175  0.3918
  177MOL0     H23336   2.543   4.731   1.166  1.0255  1.0473 -0.0715
  177MOL0     H23337   2.635   4.595   1.092  1.6856  3.6668 -1.1740
  177MOL0     H23338   2.448   4.580   1.335  2.0997  1.5232  0.5293
  177MOL0     H23339   2.539   4.440   1.269 -1.1473  0.6082 -0.5720
  177MOL0     H23340   2.420   4.473   1.056 -1.9171  0.4100 -0.9919
  177MOL0     H23341   2.332   4.611   1.127 -0.2429 -0.6494 -0.6188
  177MOL0     H23342   2.313   4.328   1.216  0.1184 -0.1035 -1.8634
  177MOL0     H23343   2.232   4.465   1.291  0.7917 -0.1309  0.0098
  177MOL0     H23344   2.123   4.497   1.063  0.9129  1.4445  2.3391
  177MOL0     H23345   2.075   4.352   1.151  0.4959 -0.4309 -0.1044
  177MOL0     H23346   3.114   4.548   1.585  0.0132 -0.1196  1.2588
  177MOL0     H23347   3.326   4.646   1.685 -0.5487 -0.8688 -0.3841
  177MOL0     H23348   3.691   4.790   1.547 -4.7326 -2.9286  3.0485
  177MOL0     H23349   3.923   4.845   1.559  0.8373  0.7537  0.9060
  177MOL0     H23350   4.588   5.110   0.519  1.0838  0.8012 -1.3291
  177MOL0     H23351   4.711   5.217   0.342 -3.7291 -1.3011 -0.3995
  177MOL0     H23352   5.304   5.105   0.082 -1.2528 -0.3157 -0.9367
  177MOL0     H23353   5.432   5.289   0.001  0.5902 -0.2805  1.3600
  177MOL0     H23354   5.403   5.507  -0.203  1.1594  3.0429 -1.7779
  177MOL0     H23355   5.539   5.473  -0.079  2.2696  1.3811  0.6527
  177MOL0     H23356   5.430   5.743  -0.180  2.0272  1.1529 -2.5400
  177MOL0     H23357   5.583   5.718  -0.087  2.3418 -1.8292 -0.6171
  177MOL0     H23358   5.636   5.768  -0.323 -0.2645 -0.9952 -1.7171
  177MOL0     H23359   5.535   5.637  -0.373  0.1762 -1.7530 -0.1658
  177MOL0     H23360   5.814   5.643  -0.221  0.8921 -1.7138  1.7647
  177MOL0     H23361   5.721   5.491  -0.231 -0.2532  0.1550  0.1447
  177MOL0     H23362   5.904   5.503  -0.595  0.4175 -1.5972 -0.3361
  177MOL0     H23363   5.097   5.552   0.070 -3.0124 -1.6151 -0.5451
  177MOL0     H23364   4.967   5.366   0.109  0.3978  0.5696 -0.6669
  178MOL0     O23365   8.113   4.842   9.077  0.6884  0.0876  0.2594
  178MOL0     C23366   8.111   4.759   8.992  0.0237 -0.0146  0.4772
  178MOL0     O23367   8.009   4.724   8.915 -0.7176 -0.0634  0.5405
  178MOL0     C23368   7.890   4.779   8.928 -0.0899 -0.7265 -0.7064
  178MOL0     C23369   7.815   4.774   9.050 -0.4877  0.7507  0.4782
  178MOL0     C23370   7.695   4.842   9.047  0.4204  0.7853  0.3506
  178MOL0     C23371   7.647   4.930   8.945 -0.2351  0.3541 -0.4284
  178MOL0     O23372   7.529   5.008   8.958  0.0673  0.3445  0.2512
  178MOL0     C23373   7.515   5.101   9.068  0.3867  0.0078 -0.4663
  178MOL0     C23374   7.437   5.057   9.195  0.5115  0.0134 -0.2610
  178MOL0     C23375   7.306   4.998   9.161 -0.0482  0.6214  0.2546
  178MOL0     C23376   7.226   4.950   9.283 -0.4432  0.6542  0.4572
  178MOL0     C23377   7.097   4.887   9.241  0.4906  0.6356  0.2043
  178MOL0     C23378   7.031   4.830   9.371 -0.1783 -0.5060 -0.1014
  178MOL0     C23379   6.916   4.738   9.338  0.1219 -0.0143  0.1381
  178MOL0     C23380   6.822   4.706   9.453  0.4494 -0.1594  0.1212
  178MOL0     N23381   6.711   4.618   9.414 -0.6242  0.1507 -0.3346
  178MOL0     C23382   6.702   4.484   9.429 -0.3461  0.7363  0.2672
  178MOL0     C23383   6.593   4.442   9.365  0.1354  0.2653  0.0473
  178MOL0     C23384   6.570   4.292   9.333 -0.4619  0.0992  0.2014
  178MOL0     C23385   6.469   4.230   9.437  0.1737 -0.8220  0.0461
  178MOL0     C23386   6.335   4.271   9.396  0.5607  0.8625  0.2243
  178MOL0     C23387   6.207   4.211   9.463  0.0917 -0.7210  0.2865
  178MOL0     O23388   6.206   4.077   9.452 -0.0575 -0.1211  0.3786
  178MOL0     C23389   6.086   4.021   9.489 -0.2436  0.0974  0.0977
  178MOL0     C23390   5.959   4.077   9.527  0.6237 -0.4062 -0.1412
  178MOL0     C23391   5.848   3.999   9.542  0.7434  0.3607  0.8345
  178MOL0     C23392   5.856   3.859   9.528  0.9753  0.4916  0.9274
  178MOL0     C23393   5.742   3.768   9.566 -0.0209  0.0071  0.5570
  178MOL0     O23394   5.619   3.825   9.564 -0.7080 -1.3605 -0.6479
  178MOL0     C23395   5.510   3.750   9.578 -0.0178  0.0146 -0.2338
  178MOL0     C23396   5.418   3.809   9.666 -0.1452  0.3393 -0.9193
  178MOL0     C23397   5.294   3.748   9.689  0.2685  0.8111 -0.0028
  178MOL0     C23398   5.270   3.616   9.629  0.4657 -0.0962  0.9144
  178MOL0     O23399   5.157   3.535   9.646  0.2350 -0.1798  0.3888
  178MOL0     C23400   5.053   3.573   9.730  0.0850 -1.0761  0.3556
  178MOL0     C23401   4.956   3.451   9.753 -0.3056 -0.4754  0.0933
  178MOL0     C23402   5.014   3.365   9.866  0.4497  0.7585 -1.1364
  178MOL0     C23403   4.944   3.228   9.873  0.4462 -0.3920 -0.7354
  178MOL0     C23404   4.993   3.146   9.998  0.7064  0.0905  0.1163
  178MOL0     C23405   4.928   3.197  10.129 -0.1248 -0.9134 -0.2107
  178MOL0     C23406   5.002   3.153  10.250 -0.7122 -0.7407 -0.5674
  178MOL0     C23407   5.131   3.231  10.272 -0.4566 -0.4844  0.0382
  178MOL0    Cl23408   5.233   3.200  10.417  0.0204 -0.0203 -0.4632
  178MOL0     C23409   5.363   3.563   9.541 -0.1637 -0.5367  0.1683
  178MOL0     C23410   5.481   3.630   9.510  0.7167  0.0878  0.0571
  178MOL0     O23411   5.768   3.648   9.600  0.1034 -0.4480 -0.8276
  178MOL0     C23412   5.981   3.804   9.502 -0.5877 -0.4766  0.5954
  178MOL0     C23413   6.090   3.885   9.478  0.7515  0.3249  0.4272
  178MOL0     N23414   6.531   4.552   9.312  0.6614 -0.3450 -0.6077
  178MOL0     N23415   6.599   4.663   9.355  0.1172  0.6505  0.7832
  178MOL0     C23416   7.724   4.947   8.838 -0.2807  0.0443  1.4647
  178MOL0     C23417   7.839   4.867   8.814 -0.8078 -0.5375 -0.3853
  178MOL0     C23418   8.240   4.686   8.966  0.1490 -0.2372  0.1066
  178MOL0     C23419   8.360   4.716   9.032  0.0753  0.6837  0.2644
  178MOL0     C23420   8.472   4.651   9.019 -0.4159  0.4519  0.2540
  178MOL0     C23421   8.465   4.534   8.940 -0.2336  1.8601 -0.0606
  178MOL0     O23422   8.575   4.456   8.900 -0.3503 -0.3090 -0.4029
  178MOL0     C23423   8.704   4.494   8.959 -0.1799 -0.8271  0.8082
  178MOL0     C23424   8.816   4.402   8.902  0.6433 -0.0946 -0.4025
  178MOL0     C23425   8.793   4.257   8.931 -0.5710 -0.1432  0.2570
  178MOL0     C23426   8.846   4.198   9.064  0.5193 -0.0212 -0.1353
  178MOL0     C23427   8.785   4.067   9.089  0.6068  0.6862  0.0572
  178MOL0     C23428   8.743   3.951   9.102  0.4108 -0.5289 -0.5848
  178MOL0     C23429   8.349   4.490   8.872  0.7743  0.2784  0.1986
  178MOL0     C23430   8.238   4.577   8.883 -0.4840  0.0156 -0.1564
  178MOL0     H23431   7.857   4.722   9.136 -0.4194  0.6422  0.3790
  178MOL0     H23432   7.637   4.853   9.138  1.2607  0.9502  0.8764
  178MOL0     H23433   7.461   5.189   9.032 -2.9241 -1.7234 -0.1725
  178MOL0     H23434   7.616   5.123   9.102  1.2289 -0.7956 -2.3304
  178MOL0     H23435   7.423   5.144   9.260 -1.1963 -0.4663  0.0582
  178MOL0     H23436   7.506   4.996   9.253 -0.1625 -0.2464  0.2745
  178MOL0     H23437   7.312   4.911   9.095  0.1390 -1.2373  2.5543
  178MOL0     H23438   7.244   5.074   9.113  1.2738  0.7702 -1.2748
  178MOL0     H23439   7.285   4.875   9.337 -0.2207 -0.7523 -1.6146
  178MOL0     H23440   7.206   5.033   9.351  0.8770  0.7311  0.7749
  178MOL0     H23441   7.116   4.808   9.168  2.7755  2.0733 -0.8924
  178MOL0     H23442   7.019   4.957   9.209 -3.2850 -3.0248  0.5517
  178MOL0     H23443   6.998   4.917   9.429  2.5978  0.8188 -0.3285
  178MOL0     H23444   7.102   4.774   9.433 -0.4534  0.9779  1.6488
  178MOL0     H23445   6.857   4.781   9.257  0.7704 -2.2530 -1.6403
  178MOL0     H23446   6.967   4.651   9.295  1.3435  1.3094 -1.2313
  178MOL0     H23447   6.770   4.792   9.496  3.1498  1.1060  1.0892
  178MOL0     H23448   6.876   4.659   9.536  0.2161  0.7174  0.7872
  178MOL0     H23449   6.776   4.418   9.472 -2.3833 -1.4383  0.6657
  178MOL0     H23450   6.667   4.246   9.356 -1.5560 -2.1564  0.5306
  178MOL0     H23451   6.551   4.269   9.228 -4.6832 -0.4504  0.8977
  178MOL0     H23452   6.493   4.282   9.530 -2.7343  0.9904 -0.1159
  178MOL0     H23453   6.479   4.121   9.442 -1.1153 -1.0541 -1.7044
  178MOL0     H23454   6.329   4.380   9.404 -1.5389  0.9365 -1.2944
  178MOL0     H23455   6.333   4.247   9.289  0.9157 -1.0679  0.6198
  178MOL0     H23456   6.116   4.248   9.417  0.0070 -0.0085  1.0102
  178MOL0     H23457   6.208   4.239   9.569 -1.0542  0.9338 -0.1081
  178MOL0     H23458   5.957   4.182   9.555  1.7861 -0.3319 -0.2937
  178MOL0     H23459   5.748   4.038   9.559 -0.6826 -1.4112 -2.5694
  178MOL0     H23460   5.449   3.905   9.708 -1.6603  0.4411  0.0242
  178MOL0     H23461   5.231   3.798   9.761 -0.6960 -2.0541  1.2799
  178MOL0     H23462   4.994   3.654   9.686  1.9621  0.3680  0.3483
  178MOL0     H23463   5.097   3.616   9.821 -1.0830  3.0890 -0.8251
  178MOL0     H23464   4.950   3.399   9.657  2.4824  0.2568 -0.5891
  178MOL0     H23465   4.860   3.498   9.772  0.4467  0.7668  0.9862
  178MOL0     H23466   5.005   3.420   9.960 -0.9479 -0.4079 -0.5653
  178MOL0     H23467   5.121   3.357   9.845  0.3484  1.4784 -2.0073
  178MOL0     H23468   4.837   3.251   9.884  0.7428  2.3753 -2.5581
  178MOL0     H23469   4.969   3.183   9.776 -0.2088  4.2818 -3.3832
  178MOL0     H23470   5.100   3.168  10.001  0.1360  4.4007 -2.5933
  178MOL0     H23471   4.967   3.040   9.986  1.7360 -0.0356 -1.2428
  178MOL0     H23472   4.826   3.161  10.144 -0.5268  0.5986  0.8775
  178MOL0     H23473   4.932   3.306  10.129 -1.2741 -0.8573  0.1969
  178MOL0     H23474   4.948   3.160  10.344 -0.4279 -5.4920  0.2256
  178MOL0     H23475   5.028   3.049  10.224 -1.0755 -0.7813 -0.7757
  178MOL0     H23476   5.116   3.338  10.258  2.0944 -0.1975 -1.1093
  178MOL0     H23477   5.197   3.206  10.188 -0.3790 -1.4372  0.3722
  178MOL0     H23478   5.339   3.471   9.490 -2.7089 -0.4456  1.0925
  178MOL0     H23479   5.550   3.585   9.439 -0.4821 -0.8308 -0.5708
  178MOL0     H23480   6.004   3.698   9.497 -2.1305 -0.7788 -0.8571
  178MOL0     H23481   6.166   3.825   9.429 -0.0493  0.5711 -1.2022
  178MOL0     H23482   7.688   5.006   8.754  0.3504 -1.1776  0.3081
  178MOL0     H23483   7.895   4.895   8.725  1.2198  1.9062  1.5210
  178MOL0     H23484   8.357   4.790   9.112 -0.2431  0.4935  0.4280
  178MOL0     H23485   8.561   4.676   9.076 -0.8521  0.8957  0.7383
  178MOL0     H23486   8.703   4.488   9.069 -0.3292 -2.0557  0.7535
  178MOL0     H23487   8.733   4.595   8.930 -0.4566 -1.2629 -1.1005
  178MOL0     H23488   8.839   4.415   8.796  1.9316  0.9795 -0.0247
  178MOL0     H23489   8.903   4.431   8.962  1.2328 -1.4097 -0.5953
  178MOL0     H23490   8.850   4.211   8.850 -1.4098  1.9482 -1.6593
  178MOL0     H23491   8.687   4.228   8.928 -0.0087 -2.3165 -1.4757
  178MOL0     H23492   8.953   4.177   9.066  0.7750  1.2503  0.4012
  178MOL0     H23493   8.819   4.266   9.145  0.4940  2.0351 -1.7811
  178MOL0     H23494   8.701   3.853   9.115  0.9710 -0.9889 -2.0634
  178MOL0     H23495   8.342   4.400   8.813  0.6531  0.8200 -0.6179
  178MOL0     H23496   8.143   4.546   8.840 -1.1514  1.9148 -0.1441
  179MOL0     O23497   0.127   7.112   2.497  0.6524  0.1044 -0.3664
  179MOL0     C23498   0.209   7.162   2.415  0.2682 -0.2411 -0.9652
  179MOL0     O23499   0.192   7.281   2.344  0.0076  0.4300  0.7549
  179MOL0     C23500   0.061   7.330   2.320 -0.1892  0.2787 -0.5759
  179MOL0     C23501   0.038   7.402   2.201  0.1179  0.1692 -0.2427
  179MOL0     C23502  -0.075   7.473   2.174  1.1677 -0.0161  0.2252
  179MOL0     C23503  -0.180   7.481   2.265 -0.4685 -0.9032 -0.1385
  179MOL0     O23504  -0.291   7.559   2.235 -0.3628  0.2983  0.6025
  179MOL0     C23505  -0.418   7.531   2.305  0.1542  0.4445  0.8889
  179MOL0     C23506  -0.540   7.592   2.245  0.3757 -0.3365  0.7349
  179MOL0     C23507  -0.673   7.576   2.320  0.1702 -0.1267 -0.9150
  179MOL0     C23508  -0.791   7.647   2.251  0.0539 -0.2920 -0.5225
  179MOL0     C23509  -0.894   7.654   2.359  0.6550  0.2353  0.1733
  179MOL0     C23510  -1.032   7.704   2.309 -0.2004 -0.1902  0.6856
  179MOL0     C23511  -1.121   7.741   2.429 -1.1213  0.4639 -0.3995
  179MOL0     C23512  -1.269   7.766   2.393  0.1605  0.1684  0.5594
  179MOL0     N23513  -1.366   7.780   2.504 -0.6843 -0.4643 -0.3255
  179MOL0     C23514  -1.407   7.678   2.592  0.1727 -1.1169  0.8491
  179MOL0     C23515  -1.517   7.726   2.656 -0.9066  0.3643  0.0776
  179MOL0     C23516  -1.618   7.644   2.733 -0.7817 -0.4875 -0.1155
  179MOL0     C23517  -1.763   7.651   2.675 -0.0189  0.0992 -0.5865
  179MOL0     C23518  -1.870   7.594   2.779 -0.1605 -0.1898 -0.7255
  179MOL0     C23519  -2.010   7.631   2.728  0.5079 -0.2036 -0.6253
  179MOL0     O23520  -2.040   7.575   2.597  0.0303  0.0103  0.0027
  179MOL0     C23521  -2.166   7.604   2.541  0.1041 -0.2462 -1.0199
  179MOL0     C23522  -2.267   7.681   2.600 -0.3181 -0.0290  0.4121
  179MOL0     C23523  -2.396   7.703   2.543  0.1106  0.5688 -0.3093
  179MOL0     C23524  -2.424   7.651   2.410 -0.2600 -0.7692 -0.3064
  179MOL0     C23525  -2.556   7.682   2.350 -0.6639 -0.2900 -0.2011
  179MOL0     O23526  -2.597   7.607   2.250 -0.2826 -0.5977  0.4170
  179MOL0     C23527  -2.721   7.640   2.198  0.2050 -0.6036  0.6340
  179MOL0     C23528  -2.732   7.742   2.099 -0.3294  0.3509 -0.1044
  179MOL0     C23529  -2.857   7.778   2.050  0.7483  0.2087  0.5006
  179MOL0     C23530  -2.981   7.731   2.092  0.6324  1.0929 -0.1594
  179MOL0     O23531  -3.095   7.743   2.018  0.1736 -1.4949 -0.5595
  179MOL0     C23532  -3.106   7.667   1.900  0.6532  0.1632  0.3255
  179MOL0     C23533  -3.256   7.633   1.896  0.4624  0.0144 -0.2722
  179MOL0     C23534  -3.306   7.549   2.012  0.1428 -0.8570 -0.1265
  179MOL0     C23535  -3.459   7.552   2.016  0.1845  0.6417 -0.7899
  179MOL0     C23536  -3.505   7.441   2.119  0.5585 -0.1877 -0.1097
  179MOL0     C23537  -3.633   7.378   2.061  0.0315  0.1550  0.2065
  179MOL0     C23538  -3.747   7.484   2.045 -0.1187 -0.4183  0.0824
  179MOL0     C23539  -3.878   7.414   2.008 -0.3838  0.0207 -0.2931
  179MOL0    Cl23540  -3.927   7.295   2.127  0.1116 -0.6912 -0.2192
  179MOL0     C23541  -2.972   7.626   2.177  0.0876  0.3844 -0.0717
  179MOL0     C23542  -2.846   7.585   2.236  0.1200  0.3233  0.9164
  179MOL0     O23543  -2.616   7.780   2.398 -0.4357  0.5663 -0.2801
  179MOL0     C23544  -2.331   7.563   2.362 -0.0712  0.3882  0.4688
  179MOL0     C23545  -2.204   7.553   2.417 -0.4279 -0.0234  0.1750
  179MOL0     N23546  -1.529   7.859   2.621 -0.0941 -0.1850 -0.3978
  179MOL0     N23547  -1.439   7.894   2.530  0.1922 -0.9785 -0.0885
  179MOL0     C23548  -0.164   7.406   2.385  0.2265  0.4142  0.0211
  179MOL0     C23549  -0.048   7.329   2.409 -0.1007 -0.5351 -0.1249
  179MOL0     C23550   0.343   7.106   2.418  0.3908  0.0794  0.7004
  179MOL0     C23551   0.367   6.984   2.477  0.0256  0.0417  0.2269
  179MOL0     C23552   0.491   6.923   2.476 -0.8789  0.1837 -0.2211
  179MOL0     C23553   0.602   6.988   2.406 -0.5086 -0.4228 -0.2285
  179MOL0     O23554   0.728   6.930   2.394  0.8475  0.5778  0.4477
  179MOL0     C23555   0.753   6.808   2.474 -0.4241 -0.5681  0.1611
  179MOL0     C23556   0.906   6.801   2.477 -0.5734  0.3969  0.1045
  179MOL0     C23557   0.950   6.671   2.552  0.4026  0.0211 -0.2463
  179MOL0     C23558   1.082   6.610   2.501 -0.1785 -0.0153 -0.5431
  179MOL0     C23559   1.206   6.672   2.543 -0.3232  1.1299  0.5734
  179MOL0     C23560   1.309   6.719   2.586 -0.0862 -0.7149 -0.7468
  179MOL0     C23561   0.575   7.109   2.341  0.2745  0.2921  0.5932
  179MOL0     C23562   0.451   7.166   2.354 -0.5412  0.0695 -0.2360
  179MOL0     H23563   0.116   7.408   2.125  1.3113  2.3916  1.0540
  179MOL0     H23564  -0.095   7.522   2.079  3.3479 -2.3893 -1.6314
  179MOL0     H23565  -0.413   7.573   2.405  3.8522  1.9853  0.2014
  179MOL0     H23566  -0.430   7.423   2.321  0.0029 -0.0215 -1.7656
  179MOL0     H23567  -0.551   7.552   2.143  1.5286  2.9763 -0.8304
  179MOL0     H23568  -0.525   7.700   2.236  2.9398 -0.7474 -0.9693
  179MOL0     H23569  -0.653   7.616   2.420 -0.7666  0.9781 -1.1458
  179MOL0     H23570  -0.696   7.470   2.333 -2.3738  0.5767  1.2932
  179MOL0     H23571  -0.763   7.750   2.228 -0.9813  0.3772  1.0384
  179MOL0     H23572  -0.830   7.594   2.164 -1.6583  0.9565 -0.5497
  179MOL0     H23573  -0.853   7.728   2.428  0.4302  0.7130 -0.2061
  179MOL0     H23574  -0.907   7.554   2.402  2.2609 -0.8345 -1.6621
  179MOL0     H23575  -1.077   7.626   2.247 -1.8755 -0.9154  2.6837
  179MOL0     H23576  -1.019   7.792   2.246 -0.7337 -1.4597 -1.2752
  179MOL0     H23577  -1.115   7.656   2.498  0.2563  0.7322 -0.1524
  179MOL0     H23578  -1.084   7.829   2.482  0.7978  1.1784 -2.7752
  179MOL0     H23579  -1.309   7.683   2.334  1.2933  2.2137 -3.4617
  179MOL0     H23580  -1.274   7.858   2.334 -0.2710 -0.0592  0.2345
  179MOL0     H23581  -1.370   7.576   2.590 -2.2456 -2.1119  2.1667
  179MOL0     H23582  -1.611   7.680   2.836 -1.0109  0.9365 -0.5750
  179MOL0     H23583  -1.602   7.536   2.724 -2.5608 -0.5988 -3.7191
  179MOL0     H23584  -1.770   7.598   2.580  1.1422  1.7401 -1.6421
  179MOL0     H23585  -1.791   7.751   2.640  1.2442 -0.5781 -3.8461
  179MOL0     H23586  -1.862   7.484   2.781 -0.6557 -0.2194 -0.1419
  179MOL0     H23587  -1.867   7.630   2.882 -1.0095  0.2875 -0.8583
  179MOL0     H23588  -2.007   7.740   2.725 -1.1439 -0.1516 -1.5271
  179MOL0     H23589  -2.089   7.608   2.800  2.0943 -0.0984  1.2319
  179MOL0     H23590  -2.252   7.724   2.699 -0.1537  0.5867  0.1191
  179MOL0     H23591  -2.461   7.761   2.607  0.7899 -1.4183  2.3178
  179MOL0     H23592  -2.650   7.789   2.047 -1.3101  1.2466 -0.8763
  179MOL0     H23593  -2.870   7.866   1.988  0.4192  0.3822  0.8140
  179MOL0     H23594  -3.038   7.583   1.920  1.5986  0.7851 -0.1954
  179MOL0     H23595  -3.079   7.724   1.811  0.9337  0.0067  0.3092
  179MOL0     H23596  -3.269   7.583   1.800  0.9454  2.1563 -1.5130
  179MOL0     H23597  -3.307   7.730   1.895  0.5333  0.4416  5.2285
  179MOL0     H23598  -3.260   7.566   2.110 -1.1460  0.4102  0.2988
  179MOL0     H23599  -3.263   7.453   1.985 -0.5622 -0.8919 -1.1902
  179MOL0     H23600  -3.481   7.655   2.046  2.2243  0.0965  3.1654
  179MOL0     H23601  -3.499   7.537   1.915 -2.4865 -3.4841  0.6671
  179MOL0     H23602  -3.534   7.479   2.217 -1.6570 -1.9050 -0.0034
  179MOL0     H23603  -3.424   7.369   2.132  0.8188  0.2005  0.4287
  179MOL0     H23604  -3.667   7.294   2.122  1.0243 -1.3799 -1.2395
  179MOL0     H23605  -3.613   7.325   1.967 -0.2844 -1.1503  0.8435
  179MOL0     H23606  -3.766   7.521   2.146 -2.2381 -0.0507 -0.4156
  179MOL0     H23607  -3.727   7.549   1.959 -0.3486 -0.8892 -0.3319
  179MOL0     H23608  -3.865   7.371   1.908 -0.9126 -1.6459  0.3181
  179MOL0     H23609  -3.959   7.486   1.988 -3.8017 -3.4931 -0.3548
  179MOL0     H23610  -3.062   7.571   2.203 -2.7785  4.0456 -1.3029
  179MOL0     H23611  -2.850   7.505   2.310  1.4614  0.4186  1.1121
  179MOL0     H23612  -2.354   7.505   2.273  1.7781  0.0859  0.1442
  179MOL0     H23613  -2.125   7.491   2.374 -0.2685  0.0662  0.3364
  179MOL0     H23614  -0.244   7.390   2.457 -0.5506 -0.6790 -1.0427
  179MOL0     H23615  -0.045   7.269   2.499  2.6297  0.1158  0.3079
  179MOL0     H23616   0.281   6.947   2.532  1.2517  0.9522  2.9571
  179MOL0     H23617   0.504   6.829   2.530  0.2649  0.2105 -0.4141
  179MOL0     H23618   0.702   6.719   2.436 -1.9933  0.1827  0.4406
  179MOL0     H23619   0.720   6.838   2.574 -1.1094  2.5913 -0.9041
  179MOL0     H23620   0.949   6.794   2.377 -1.1152 -3.3332 -0.0278
  179MOL0     H23621   0.950   6.891   2.522  3.0825 -1.1200 -0.0473
  179MOL0     H23622   0.869   6.598   2.542 -0.5490  0.9030  0.6852
  179MOL0     H23623   0.962   6.680   2.660 -0.9476 -0.4057 -0.0389
  179MOL0     H23624   1.089   6.515   2.554  0.9390  1.3798  2.0373
  179MOL0     H23625   1.082   6.585   2.395  0.6510 -1.4895 -0.2181
  179MOL0     H23626   1.392   6.774   2.624 -0.2328 -0.2022 -1.1591
  179MOL0     H23627   0.660   7.159   2.297  1.4324 -1.6763  0.4450
  179MOL0     H23628   0.436   7.259   2.301  3.8185  0.4834 -1.0982
  180MOL0     O23629   1.152   9.334   3.435  0.1984  0.2130  0.5421
  180MOL0     C23630   1.110   9.217   3.417  0.7641 -1.1394 -0.3201
  180MOL0     O23631   0.979   9.183   3.416 -0.1930 -0.2310 -0.6193
  180MOL0     C23632   0.886   9.270   3.469 -0.7157 -0.6099  0.2632
  180MOL0     C23633   0.896   9.334   3.594 -1.0001  0.1699  0.4433
  180MOL0     C23634   0.794   9.417   3.629  0.0371 -0.3056 -0.2887
  180MOL0     C23635   0.677   9.437   3.555  0.0963  0.1529  0.4308
  180MOL0     O23636   0.593   9.531   3.607  0.3910  0.1347  0.0079
  180MOL0     C23637   0.461   9.540   3.581  0.9809  0.2278  0.2545
  180MOL0     C23638   0.393   9.412   3.631  0.2421 -0.6870 -0.0850
  180MOL0     C23639   0.246   9.411   3.670  0.1542 -0.3959  0.5253
  180MOL0     C23640   0.209   9.519   3.774 -0.2116  0.8556 -0.2967
  180MOL0     C23641   0.089   9.487   3.863  0.3293 -0.0348  0.3794
  180MOL0     C23642   0.073   9.602   3.965 -0.8659 -0.6614 -0.6141
  180MOL0     C23643  -0.044   9.585   4.057  0.6872 -0.2808  0.5673
  180MOL0     C23644  -0.066   9.709   4.143 -0.0757 -0.1920  1.1515
  180MOL0     N23645  -0.203   9.736   4.188  1.2304  0.4311  0.9286
  180MOL0     C23646  -0.297   9.811   4.115 -0.2966  0.3475  0.5427
  180MOL0     C23647  -0.402   9.810   4.191  0.2521  0.7043  0.4633
  180MOL0     C23648  -0.526   9.888   4.154 -0.7709  0.0237  0.6462
  180MOL0     C23649  -0.632   9.804   4.096  0.2433  0.4182  0.4367
  180MOL0     C23650  -0.686   9.701   4.197 -0.3185 -0.3174 -0.5108
  180MOL0     C23651  -0.829   9.652   4.158  1.0690 -0.3758  0.2845
  180MOL0     O23652  -0.924   9.769   4.172 -0.1818  0.0318  0.0151
  180MOL0     C23653  -1.059   9.754   4.146  0.2666  0.2612 -0.0062
  180MOL0     C23654  -1.120   9.632   4.127 -0.4866  0.6536  0.2539
  180MOL0     C23655  -1.252   9.619   4.077 -0.3101  0.2365 -0.1924
  180MOL0     C23656  -1.328   9.737   4.063 -0.1262  0.8082 -0.0825
  180MOL0     C23657  -1.462   9.727   3.999 -0.2664  0.0732 -0.2184
  180MOL0     O23658  -1.542   9.836   4.022  0.5978  0.0575  0.8939
  180MOL0     C23659  -1.677   9.852   3.982  0.9370 -0.2917  0.7013
  180MOL0     C23660  -1.740   9.772   3.891 -0.3850 -0.1771 -0.4839
  180MOL0     C23661  -1.863   9.813   3.846  1.0104  1.0400 -0.3597
  180MOL0     C23662  -1.929   9.927   3.881 -0.4254 -0.5368  0.8801
  180MOL0     O23663  -2.051   9.965   3.822 -0.1843  0.2047  0.1639
  180MOL0     C23664  -2.044  10.074   3.729  0.0837 -0.3868 -0.1657
  180MOL0     C23665  -2.193  10.122   3.690 -0.1241  0.6450 -0.0106
  180MOL0     C23666  -2.272  10.163   3.811  0.5901 -0.0168  0.1786
  180MOL0     C23667  -2.414  10.207   3.770 -0.4101 -0.3841 -0.2887
  180MOL0     C23668  -2.510  10.204   3.897  0.1665 -0.0929  1.1642
  180MOL0     C23669  -2.657  10.241   3.871 -0.5926 -0.2806  0.4789
  180MOL0     C23670  -2.677  10.385   3.827 -0.2187 -0.7460  0.1914
  180MOL0     C23671  -2.825  10.430   3.841  0.3716  0.2775 -0.1640
  180MOL0    Cl23672  -2.867  10.490   4.009  0.1765 -0.1202 -0.2795
  180MOL0     C23673  -1.873  10.002   3.983  0.5782  0.1949  1.4454
  180MOL0     C23674  -1.742   9.965   4.031  0.1452 -0.0733 -0.2488
  180MOL0     O23675  -1.501   9.619   3.960 -0.6780  0.8525  0.5479
  180MOL0     C23676  -1.267   9.864   4.091 -0.0282  0.3702  0.3500
  180MOL0     C23677  -1.134   9.870   4.120 -0.5191 -0.3154 -0.0240
  180MOL0     N23678  -0.378   9.740   4.310 -0.0386 -0.5530  0.4657
  180MOL0     N23679  -0.258   9.695   4.307  0.4209  0.0818 -0.2618
  180MOL0     C23680   0.665   9.367   3.432 -0.3453  0.2356 -0.2582
  180MOL0     C23681   0.776   9.286   3.394  0.3877 -0.3838 -0.2128
  180MOL0     C23682   1.210   9.122   3.376  0.1005 -0.5762  0.7874
  180MOL0     C23683   1.166   9.002   3.321  0.3060  0.2403  0.6714
  180MOL0     C23684   1.275   8.917   3.286  0.4981 -0.8844  0.2502
  180MOL0     C23685   1.412   8.941   3.303 -0.5532  0.3901 -0.3874
  180MOL0     O23686   1.497   8.846   3.263 -0.3244 -0.7458 -0.1694
  180MOL0     C23687   1.627   8.893   3.215 -0.0566  0.8297 -0.2069
  180MOL0     C23688   1.676   8.799   3.105 -0.2288  0.2501 -0.5060
  180MOL0     C23689   1.615   8.832   2.965  0.0005  0.7452  0.1972
  180MOL0     C23690   1.627   8.723   2.858 -0.4302  0.2737  0.4540
  180MOL0     C23691   1.670   8.586   2.907 -0.6482 -0.6704  0.4256
  180MOL0     C23692   1.705   8.475   2.942 -0.2357 -0.0531 -0.6843
  180MOL0     C23693   1.446   9.071   3.344 -0.1601 -0.5170  0.1708
  180MOL0     C23694   1.345   9.156   3.381 -0.0251 -0.6117  0.6768
  180MOL0     H23695   0.985   9.329   3.656  0.0599  2.2925 -0.8152
  180MOL0     H23696   0.813   9.472   3.721 -1.0538 -0.1202 -0.1709
  180MOL0     H23697   0.447   9.553   3.473 -0.6478 -1.5815  0.1863
  180MOL0     H23698   0.415   9.626   3.631  1.9285  1.2196 -0.5240
  180MOL0     H23699   0.450   9.373   3.716 -1.8284 -2.5238  0.5712
  180MOL0     H23700   0.403   9.341   3.549 -1.1769 -0.4913 -0.4533
  180MOL0     H23701   0.205   9.314   3.699 -2.1242  0.0174 -0.9915
  180MOL0     H23702   0.192   9.434   3.578  2.5772  0.4112 -0.7785
  180MOL0     H23703   0.294   9.524   3.842 -0.1862 -0.2955 -0.2324
  180MOL0     H23704   0.206   9.623   3.739 -1.7684  1.7761  2.2888
  180MOL0     H23705   0.099   9.402   3.932 -1.8594  1.8007  3.2379
  180MOL0     H23706   0.001   9.465   3.802  1.9727  1.3097 -2.6864
  180MOL0     H23707   0.062   9.694   3.908  3.7879  1.0270  0.7980
  180MOL0     H23708   0.160   9.619   4.030 -1.4891 -0.2576  0.1325
  180MOL0     H23709  -0.135   9.570   3.998 -0.3043 -0.1376  1.9893
  180MOL0     H23710  -0.021   9.500   4.121  0.4205 -0.0930  0.9165
  180MOL0     H23711  -0.026   9.798   4.095 -1.4069  0.5163  1.3241
  180MOL0     H23712   0.000   9.679   4.225 -0.9205  0.7491  2.1965
  180MOL0     H23713  -0.286   9.861   4.019  1.2167  0.3137  0.6823
  180MOL0     H23714  -0.506   9.964   4.077 -2.0493  1.7299  1.9094
  180MOL0     H23715  -0.560   9.938   4.245  2.4018  0.4440  1.7419
  180MOL0     H23716  -0.594   9.743   4.014  0.9175  1.5120 -0.0837
  180MOL0     H23717  -0.709   9.870   4.054  2.5844  3.0663  0.0203
  180MOL0     H23718  -0.610   9.624   4.215  0.6800  0.4187 -1.4236
  180MOL0     H23719  -0.695   9.758   4.289 -2.3408  3.0356 -2.5887
  180MOL0     H23720  -0.857   9.563   4.215  2.1335 -1.0403 -0.2167
  180MOL0     H23721  -0.835   9.614   4.056 -1.5111 -0.7532  0.5195
  180MOL0     H23722  -1.056   9.548   4.149 -3.0390 -1.6530 -0.5428
  180MOL0     H23723  -1.286   9.519   4.053 -0.9865  0.3690  0.1772
  180MOL0     H23724  -1.699   9.682   3.847  0.3253 -0.2196  0.2376
  180MOL0     H23725  -1.921   9.742   3.788  1.0468 -1.4368  2.4146
  180MOL0     H23726  -1.990  10.038   3.640  1.3259 -4.0889  1.8595
  180MOL0     H23727  -1.993  10.162   3.768  2.2888 -1.4591 -0.4795
  180MOL0     H23728  -2.243  10.046   3.629 -1.4592  1.0165  0.5914
  180MOL0     H23729  -2.179  10.211   3.627 -0.3137  0.4978 -0.2627
  180MOL0     H23730  -2.219  10.242   3.866 -1.6329  1.4224  0.4079
  180MOL0     H23731  -2.284  10.074   3.874 -0.9110 -0.9536 -1.3357
  180MOL0     H23732  -2.416  10.304   3.720 -0.0206 -1.0352 -1.6248
  180MOL0     H23733  -2.441  10.139   3.688  2.0774  1.0045 -2.4141
  180MOL0     H23734  -2.473  10.257   3.984 -1.9753  5.0758 -0.6471
  180MOL0     H23735  -2.514  10.100   3.931 -1.4802 -1.0842 -1.6960
  180MOL0     H23736  -2.713  10.226   3.964  1.2120 -1.2724  1.4696
  180MOL0     H23737  -2.691  10.176   3.790  0.5171 -1.8393  1.2007
  180MOL0     H23738  -2.616  10.454   3.886 -0.4645 -0.9970  0.7444
  180MOL0     H23739  -2.645  10.398   3.723 -3.2481  2.5490 -0.5148
  180MOL0     H23740  -2.897  10.355   3.807 -1.8199  3.5603 -3.5950
  180MOL0     H23741  -2.845  10.508   3.766 -0.4947  0.1661 -0.0576
  180MOL0     H23742  -1.917  10.099   4.001 -0.6658  0.0094 -0.3247
  180MOL0     H23743  -1.685  10.025   4.101  2.0206 -1.5373 -0.4460
  180MOL0     H23744  -1.323   9.950   4.058  0.8010  0.0171 -2.2313
  180MOL0     H23745  -1.088   9.968   4.130  1.7086 -1.3289  0.2206
  180MOL0     H23746   0.589   9.387   3.357  0.4166  3.4588 -0.2884
  180MOL0     H23747   0.781   9.238   3.297  1.1623 -2.8487  0.9748
  180MOL0     H23748   1.065   8.964   3.312  0.0538  1.2873 -1.6161
  180MOL0     H23749   1.243   8.823   3.241  2.5299 -1.7007  0.4350
  180MOL0     H23750   1.710   8.894   3.287 -1.1834 -4.6958  1.6558
  180MOL0     H23751   1.623   8.997   3.181  1.1749  1.3506  1.1268
  180MOL0     H23752   1.785   8.798   3.099 -0.1903 -1.9165 -0.1487
  180MOL0     H23753   1.653   8.698   3.140  3.0525 -0.7848 -1.0248
  180MOL0     H23754   1.657   8.927   2.930  0.8586 -0.5508 -2.6040
  180MOL0     H23755   1.508   8.851   2.974 -0.0049  0.6259  0.3783
  180MOL0     H23756   1.540   8.708   2.794 -0.2443  1.2199 -0.0387
  180MOL0     H23757   1.702   8.774   2.797  0.1351 -0.9916  0.0693
  180MOL0     H23758   1.724   8.374   2.972  2.3146  0.4804 -0.2542
  180MOL0     H23759   1.551   9.099   3.350 -0.5496  0.7618  1.8047
  180MOL0     H23760   1.376   9.254   3.415 -0.6533  0.2030 -1.0255
  181MOL0     O23761   6.660  10.718   0.355 -0.1872 -0.6193 -0.7603
  181MOL0     C23762   6.750  10.658   0.417  0.3119  0.1717  0.7975
  181MOL0     O23763   6.744  10.529   0.453  0.4482 -0.7749 -0.3789
  181MOL0     C23764   6.623  10.475   0.472  0.8438 -0.6341  0.1214
  181MOL0     C23765   6.506  10.546   0.509 -0.8522  0.3914 -0.0605
  181MOL0     C23766   6.380  10.472   0.515 -0.5330 -0.6254 -0.2029
  181MOL0     C23767   6.364  10.343   0.473  0.7045 -0.2798  0.2277
  181MOL0     O23768   6.236  10.277   0.458  0.1378 -0.6219  0.1567
  181MOL0     C23769   6.133  10.354   0.378 -0.2250 -0.8598  0.4885
  181MOL0     C23770   5.994  10.315   0.426 -0.1838  0.1517  0.5488
  181MOL0     C23771   5.891  10.360   0.322 -0.6331  0.0704 -0.4783
  181MOL0     C23772   5.747  10.365   0.380 -0.3303  0.1839  0.7482
  181MOL0     C23773   5.668  10.414   0.266  0.3051  0.1897 -0.1696
  181MOL0     C23774   5.533  10.333   0.271  0.3778  0.2058  0.2490
  181MOL0     C23775   5.426  10.367   0.157  0.8031  0.4376 -0.3791
  181MOL0     C23776   5.352  10.504   0.179  0.3769  1.0273 -0.8052
  181MOL0     N23777   5.217  10.481   0.234 -0.6216 -0.1573 -0.2105
  181MOL0     C23778   5.110  10.420   0.179  0.6057  0.5762  0.1198
  181MOL0     C23779   5.018  10.417   0.275  0.5947  0.2340 -0.4486
  181MOL0     C23780   4.874  10.365   0.269  0.3787  1.4718 -0.9905
  181MOL0     C23781   4.851  10.251   0.368  0.0046 -0.3861 -0.5128
  181MOL0     C23782   4.710  10.187   0.368  0.2133 -0.2618  0.7746
  181MOL0     C23783   4.592  10.279   0.421  0.5319 -0.2864 -1.5588
  181MOL0     O23784   4.605  10.311   0.559 -0.3613 -0.1481 -0.3799
  181MOL0     C23785   4.503  10.383   0.614 -1.3226 -0.2042 -0.6164
  181MOL0     C23786   4.495  10.370   0.749  0.1050  0.3191  0.0753
  181MOL0     C23787   4.392  10.428   0.819 -0.7478  0.6221  1.0157
  181MOL0     C23788   4.299  10.510   0.755 -0.7299  1.3976 -0.1364
  181MOL0     C23789   4.173  10.538   0.821 -0.5360 -0.8793 -0.4846
  181MOL0     O23790   4.166  10.512   0.956 -0.3341 -0.3825 -0.2056
  181MOL0     C23791   4.047  10.493   1.020 -0.1807  1.1386  0.0886
  181MOL0     C23792   4.046  10.422   1.142 -0.8169 -0.7048 -1.0941
  181MOL0     C23793   3.934  10.381   1.216  0.8538  0.0609 -1.3734
  181MOL0     C23794   3.805  10.420   1.179 -0.7734  0.2065 -0.7637
  181MOL0     O23795   3.695  10.375   1.244  0.2533  0.1914  0.3515
  181MOL0     C23796   3.617  10.477   1.314 -0.1421 -0.2291 -0.0639
  181MOL0     C23797   3.471  10.413   1.326  0.0637  0.0325 -0.4869
  181MOL0     C23798   3.365  10.506   1.352  0.1725  0.1624  0.2703
  181MOL0     C23799   3.227  10.451   1.313 -0.1206 -0.3112  0.1188
  181MOL0     C23800   3.103  10.533   1.366 -0.0131 -0.9003  1.4898
  181MOL0     C23801   3.104  10.554   1.519 -0.0657 -0.2563 -0.4215
  181MOL0     C23802   3.097  10.420   1.601 -1.2370 -0.0977  0.1998
  181MOL0     C23803   3.113  10.449   1.747  0.2870  0.4786 -0.1163
  181MOL0    Cl23804   3.077  10.299   1.844 -0.1779  0.0614 -0.1228
  181MOL0     C23805   3.800  10.488   1.056  0.4146 -0.1216 -0.0217
  181MOL0     C23806   3.917  10.516   0.969  0.3174  0.3823 -0.4575
  181MOL0     O23807   4.085  10.572   0.744 -0.1713  0.4001  0.0058
  181MOL0     C23808   4.318  10.530   0.622 -0.2813  0.6978  0.3346
  181MOL0     C23809   4.413  10.467   0.550  0.0256 -0.5269 -1.2633
  181MOL0     N23810   5.074  10.458   0.393 -0.3595 -0.2704 -0.2023
  181MOL0     N23811   5.196  10.491   0.366  0.3897  0.4137  0.0897
  181MOL0     C23812   6.482  10.294   0.413 -0.4535  0.6073 -0.4641
  181MOL0     C23813   6.608  10.345   0.422 -0.3639  0.4589 -0.7858
  181MOL0     C23814   6.881  10.722   0.443 -0.7076 -0.0925  0.3043
  181MOL0     C23815   6.902  10.846   0.375 -0.3489  0.5593  0.4689
  181MOL0     C23816   7.032  10.907   0.384  0.0528 -0.5838 -0.1189
  181MOL0     C23817   7.130  10.839   0.454  0.0620 -0.4405  0.1141
  181MOL0     O23818   7.253  10.887   0.488 -0.4065 -0.2892  0.2839
  181MOL0     C23819   7.318  10.985   0.400  0.5533 -0.2043  0.4466
  181MOL0     C23820   7.343  10.934   0.254 -0.1478  0.0745  0.1628
  181MOL0     C23821   7.424  10.804   0.244  0.3492 -0.1116 -0.3736
  181MOL0     C23822   7.498  10.786   0.118 -0.7306 -0.0623  0.2420
  181MOL0     C23823   7.602  10.892   0.105  0.0778  0.4908 -0.2252
  181MOL0     C23824   7.690  10.973   0.078 -0.7455  1.0199  0.3762
  181MOL0     C23825   7.108  10.713   0.517 -0.3673 -0.3335  0.7203
  181MOL0     C23826   6.975  10.664   0.524  0.0483 -0.4836  1.1399
  181MOL0     H23827   6.497  10.646   0.549  1.6404  0.4560  0.5051
  181MOL0     H23828   6.292  10.526   0.549  0.5940  1.3151 -0.2127
  181MOL0     H23829   6.144  10.330   0.272 -2.2133  0.0963  0.0060
  181MOL0     H23830   6.153  10.461   0.390  1.5076 -1.2121  0.9062
  181MOL0     H23831   5.970  10.371   0.518 -1.7563  2.5173 -1.1858
  181MOL0     H23832   5.991  10.209   0.453  1.1921  0.1032  0.6045
  181MOL0     H23833   5.897  10.287   0.241 -2.4678 -2.2617  1.3295
  181MOL0     H23834   5.918  10.459   0.284 -1.7989  0.6953  0.2920
  181MOL0     H23835   5.709  10.267   0.409 -1.9842  0.3083 -0.8164
  181MOL0     H23836   5.745  10.436   0.463 -1.2623  0.2766  0.6501
  181MOL0     H23837   5.726  10.410   0.174  0.5968  0.1017  0.0161
  181MOL0     H23838   5.639  10.518   0.286 -3.0642 -0.2317 -2.1580
  181MOL0     H23839   5.503  10.344   0.375 -0.1729  2.2925 -0.0854
  181MOL0     H23840   5.567  10.231   0.252  0.8159  0.7062 -2.0705
  181MOL0     H23841   5.487  10.385   0.068  0.0067  0.2962 -0.9596
  181MOL0     H23842   5.360  10.280   0.147  1.3438 -0.1752  1.0842
  181MOL0     H23843   5.341  10.551   0.080  2.3237  0.2073 -1.4538
  181MOL0     H23844   5.418  10.567   0.239  2.6622 -0.6496 -1.4275
  181MOL0     H23845   5.099  10.379   0.079 -0.0773 -1.6827  1.0612
  181MOL0     H23846   4.867  10.323   0.169 -2.4914 -1.5999  0.3387
  181MOL0     H23847   4.804  10.450   0.268  0.1361  1.2681 -1.2386
  181MOL0     H23848   4.870  10.303   0.462  1.9733  1.6599 -1.9282
  181MOL0     H23849   4.925  10.172   0.354  1.1574 -0.0090  2.6766
  181MOL0     H23850   4.704  10.153   0.264  3.6045 -0.7681  0.6300
  181MOL0     H23851   4.716  10.088   0.415  3.3100 -0.5185  0.0114
  181MOL0     H23852   4.499  10.224   0.404  0.8124 -0.4407 -2.6691
  181MOL0     H23853   4.585  10.378   0.374 -0.8735  0.8049  0.7780
  181MOL0     H23854   4.546  10.291   0.803  0.9108  0.4849 -0.4151
  181MOL0     H23855   4.373  10.395   0.921 -0.6120 -0.9279  0.5757
  181MOL0     H23856   4.136  10.374   1.181 -0.8286  1.3093  1.7314
  181MOL0     H23857   3.943  10.323   1.307  1.4030 -1.5172 -2.3773
  181MOL0     H23858   3.603  10.572   1.261 -1.7334 -0.5445 -0.2567
  181MOL0     H23859   3.668  10.496   1.409  0.2737 -0.4643 -0.2386
  181MOL0     H23860   3.467  10.331   1.398 -0.3701  0.5849  0.1235
  181MOL0     H23861   3.442  10.363   1.233  3.9466  1.1612 -2.4996
  181MOL0     H23862   3.387  10.604   1.310 -0.1349  0.0621 -0.1416
  181MOL0     H23863   3.370  10.527   1.459 -0.3168  0.4684  0.2375
  181MOL0     H23864   3.231  10.448   1.204 -1.9687  0.5625 -0.0154
  181MOL0     H23865   3.222  10.348   1.349  2.5872 -0.2422  0.9182
  181MOL0     H23866   3.009  10.487   1.337  0.3239 -0.9242  0.3716
  181MOL0     H23867   3.119  10.623   1.305  3.5926 -1.8328  0.7938
  181MOL0     H23868   3.016  10.611   1.550 -1.2965 -2.8063  1.1512
  181MOL0     H23869   3.182  10.627   1.542 -0.8040  0.5367 -0.3731
  181MOL0     H23870   3.003  10.365   1.585 -1.3658 -0.7709  2.7516
  181MOL0     H23871   3.180  10.356   1.568  0.2931  1.5737  0.6571
  181MOL0     H23872   3.039  10.516   1.790 -0.3121 -0.3555  0.1699
  181MOL0     H23873   3.217  10.475   1.771  0.8901  0.3424 -2.3595
  181MOL0     H23874   3.702  10.511   1.016  0.6762  2.8779  0.7997
  181MOL0     H23875   3.895  10.539   0.866  1.6573 -1.2148 -1.1440
  181MOL0     H23876   4.237  10.577   0.567  1.5324  0.3924 -2.8608
  181MOL0     H23877   4.418  10.492   0.445  1.9047  1.7267 -0.7129
  181MOL0     H23878   6.489  10.197   0.365  1.8573  0.5205 -0.0690
  181MOL0     H23879   6.688  10.289   0.374 -1.6850 -2.9252  0.6156
  181MOL0     H23880   6.820  10.895   0.324  1.8131  1.6150 -2.2569
  181MOL0     H23881   7.041  11.010   0.354 -1.1590  0.2190  2.0563
  181MOL0     H23882   7.419  10.998   0.439  2.0133  1.3322 -3.3611
  181MOL0     H23883   7.251  11.071   0.394  1.4047  0.4196 -0.4011
  181MOL0     H23884   7.243  10.921   0.210 -0.5700  5.2894 -1.1074
  181MOL0     H23885   7.389  11.017   0.201 -0.3311 -0.1962 -0.4301
  181MOL0     H23886   7.359  10.720   0.266 -0.8360  0.9204  0.1934
  181MOL0     H23887   7.503  10.811   0.319 -0.8238  1.4504  0.7959
  181MOL0     H23888   7.551  10.690   0.109  0.0297  0.2688  0.9908
  181MOL0     H23889   7.431  10.797   0.032 -0.9246  2.3911  0.6192
  181MOL0     H23890   7.772  11.029   0.038  2.9524 -4.8624 -1.4942
  181MOL0     H23891   7.189  10.672   0.578  1.2296  0.1795 -0.9622
  181MOL0     H23892   6.962  10.568   0.572 -0.2445 -0.7967  0.4502
  182MOL0     O23893  10.122  10.885   6.432 -0.3019  0.2451 -0.0527
  182MOL0     C23894  10.156  10.919   6.544 -0.0185 -0.1617  0.4123
  182MOL0     O23895  10.079  10.949   6.644  0.1676  0.3186  0.0577
  182MOL0     C23896   9.942  10.942   6.633 -0.2151  0.1720  0.2232
  182MOL0     C23897   9.877  10.844   6.702 -0.5023  0.6203  0.4097
  182MOL0     C23898   9.739  10.824   6.684 -0.6318 -0.8006 -0.6711
  182MOL0     C23899   9.661  10.913   6.604 -0.6112 -0.1470 -0.8556
  182MOL0     O23900   9.527  10.900   6.569 -0.2060 -0.2644 -0.3906
  182MOL0     C23901   9.494  10.781   6.497 -0.2417  0.2313 -0.3711
  182MOL0     C23902   9.334  10.762   6.484 -0.4821  0.8519 -0.5003
  182MOL0     C23903   9.305  10.641   6.393 -0.6710 -0.1181 -0.2902
  182MOL0     C23904   9.158  10.604   6.390  0.7789 -0.1815  0.1515
  182MOL0     C23905   9.132  10.470   6.321 -0.7435  0.2120 -0.6831
  182MOL0     C23906   9.209  10.354   6.381  0.7069 -0.3184  0.7618
  182MOL0     C23907   9.170  10.227   6.298 -0.3542  0.5722 -0.3828
  182MOL0     C23908   9.181  10.095   6.368  0.1489 -0.1155 -0.1910
  182MOL0     N23909   9.322  10.084   6.412 -0.1712 -0.9328  0.9499
  182MOL0     C23910   9.435  10.070   6.338  0.2188 -0.3236 -0.0871
  182MOL0     C23911   9.541  10.106   6.412 -0.2795  0.2224 -0.0677
  182MOL0     C23912   9.688  10.094   6.369 -0.8253  0.5893 -0.3796
  182MOL0     C23913   9.751   9.966   6.413 -0.2859  0.5259  0.4987
  182MOL0     C23914   9.791   9.965   6.557  0.2837  0.2369 -0.4760
  182MOL0     C23915   9.791   9.823   6.612 -0.5364  0.5790  0.7918
  182MOL0     O23916   9.900   9.751   6.550  0.5504 -0.4134  0.1186
  182MOL0     C23917  10.032   9.759   6.596  0.0501 -0.1412  0.1326
  182MOL0     C23918  10.065   9.775   6.727 -0.5347 -0.3077 -0.3911
  182MOL0     C23919  10.205   9.782   6.765  0.4557  0.9142  0.2077
  182MOL0     C23920  10.306   9.754   6.677 -0.3551  0.5227  0.6179
  182MOL0     C23921  10.455   9.748   6.710 -0.2684  0.3159  0.0394
  182MOL0     O23922  10.536   9.726   6.597 -0.4278  0.8541  0.2413
  182MOL0     C23923  10.666   9.697   6.622 -0.6062 -1.3141 -0.0031
  182MOL0     C23924  10.726   9.571   6.611  0.2214  0.2018 -0.1790
  182MOL0     C23925  10.862   9.558   6.638  0.2129  0.2117  0.5820
  182MOL0     C23926  10.943   9.667   6.678  0.8964 -0.4711 -0.0386
  182MOL0     O23927  11.077   9.639   6.700 -0.1956 -0.3563 -0.7331
  182MOL0     C23928  11.165   9.737   6.754 -0.7297  0.4516 -0.0673
  182MOL0     C23929  11.234   9.822   6.647  0.1382  0.4017 -0.0370
  182MOL0     C23930  11.288   9.946   6.707  0.9534  0.1517  0.7242
  182MOL0     C23931  11.346  10.035   6.605  1.0345  0.5270  0.3414
  182MOL0     C23932  11.445  10.136   6.664 -0.4007 -0.2545 -0.0361
  182MOL0     C23933  11.388  10.225   6.775 -0.3528  0.3874 -0.0160
  182MOL0     C23934  11.475  10.339   6.824 -0.2038  0.2270  0.4314
  182MOL0     C23935  11.429  10.379   6.956 -0.4513 -0.3652 -0.7288
  182MOL0    Cl23936  11.251  10.432   6.959  0.4867 -0.0397 -0.2712
  182MOL0     C23937  10.881   9.793   6.691  0.3797 -0.4885  0.3984
  182MOL0     C23938  10.744   9.809   6.666 -0.4945  0.2212 -0.1916
  182MOL0     O23939  10.490   9.753   6.821 -0.1980 -0.0557  0.1630
  182MOL0     C23940  10.267   9.717   6.551  0.2165 -0.5775  0.4215
  182MOL0     C23941  10.134   9.722   6.508  0.2952  0.6645  0.1209
  182MOL0     N23942   9.494  10.125   6.536  0.5786  0.1094 -0.6292
  182MOL0     N23943   9.367  10.114   6.538  0.3974  0.3630  0.2068
  182MOL0     C23944   9.736  11.012   6.535  0.7564  0.1330 -0.4383
  182MOL0     C23945   9.873  11.032   6.552 -0.5995  0.2368  0.2081
  182MOL0     C23946  10.305  10.923   6.566 -0.0767 -0.3912  0.4169
  182MOL0     C23947  10.358  10.920   6.698 -0.3059  0.1979 -0.0318
  182MOL0     C23948  10.495  10.909   6.716 -0.5934  0.3900  0.0393
  182MOL0     C23949  10.581  10.899   6.607  0.0142  0.8390 -0.9383
  182MOL0     O23950  10.717  10.902   6.640 -0.4715  0.7063 -0.3844
  182MOL0     C23951  10.805  10.815   6.557 -0.1094 -1.4576  0.5706
  182MOL0     C23952  10.905  10.748   6.647  0.3425 -0.0811  0.3810
  182MOL0     C23953  10.841  10.675   6.776  0.1181 -0.3318  1.2646
  182MOL0     C23954  10.946  10.588   6.838 -0.1464 -0.5862 -0.7163
  182MOL0     C23955  11.005  10.652   6.963 -0.9576  0.3252 -0.9771
  182MOL0     C23956  11.050  10.712   7.056  0.0922  0.3494 -0.5528
  182MOL0     C23957  10.528  10.909   6.476 -0.0113  0.8372 -0.3735
  182MOL0     C23958  10.398  10.916   6.457 -0.1391 -0.0638 -1.0004
  182MOL0     H23959   9.936  10.766   6.749  0.7530 -1.0243 -3.4890
  182MOL0     H23960   9.693  10.743   6.739  0.7720  0.4467  2.6597
  182MOL0     H23961   9.517  10.691   6.555 -1.5435 -3.0167 -4.3893
  182MOL0     H23962   9.536  10.778   6.396  0.1792 -0.4429 -0.1828
  182MOL0     H23963   9.290  10.858   6.455 -1.1966  0.3983 -0.9389
  182MOL0     H23964   9.301  10.742   6.586 -0.2264 -0.7046 -0.7032
  182MOL0     H23965   9.370  10.562   6.431 -2.4742 -1.5476 -0.0461
  182MOL0     H23966   9.335  10.666   6.290  1.0464  2.7638  0.7945
  182MOL0     H23967   9.112  10.599   6.489  2.7645  0.1970  1.1554
  182MOL0     H23968   9.111  10.687   6.336  1.1327 -2.3188 -3.8449
  182MOL0     H23969   9.160  10.477   6.215  0.4161 -2.9283 -0.6882
  182MOL0     H23970   9.025  10.449   6.331 -0.3948 -1.4349 -0.2552
  182MOL0     H23971   9.178  10.333   6.484  1.8957  0.5109  1.3140
  182MOL0     H23972   9.317  10.365   6.367  0.4428  0.5765 -0.8003
  182MOL0     H23973   9.066  10.236   6.265 -0.8927  1.1272  1.3591
  182MOL0     H23974   9.242  10.216   6.217  0.4335 -1.6530  0.5390
  182MOL0     H23975   9.175  10.016   6.292 -1.7693 -1.1622  0.9788
  182MOL0     H23976   9.105  10.071   6.442  2.3651 -1.3365  1.8449
  182MOL0     H23977   9.439  10.042   6.233 -1.1844  4.6464 -1.7515
  182MOL0     H23978   9.743  10.175   6.419 -0.3821 -0.7191  1.3529
  182MOL0     H23979   9.696  10.110   6.261 -2.0526  3.4998 -0.1368
  182MOL0     H23980   9.838   9.944   6.350  0.7783 -0.7805  2.2994
  182MOL0     H23981   9.675   9.888   6.402 -0.4123  0.3671  2.1983
  182MOL0     H23982   9.880  10.024   6.582 -1.7572  2.2471  2.7487
  182MOL0     H23983   9.710  10.014   6.612  0.4090  1.7189 -1.5284
  182MOL0     H23984   9.700   9.769   6.585  0.8630  0.3626 -4.5175
  182MOL0     H23985   9.801   9.825   6.721  0.2241 -2.4112  0.8668
  182MOL0     H23986   9.990   9.818   6.793  0.5645  1.0554  0.0348
  182MOL0     H23987  10.241   9.805   6.865  1.2467  0.7336 -0.0323
  182MOL0     H23988  10.666   9.486   6.579 -0.6095  1.4849 -2.1978
  182MOL0     H23989  10.915   9.463   6.640  0.8087  0.4741 -1.0245
  182MOL0     H23990  11.236   9.684   6.818 -0.2843  0.4603 -0.5511
  182MOL0     H23991  11.108   9.802   6.821 -0.9908  1.1682 -0.9735
  182MOL0     H23992  11.161   9.844   6.568  0.4826  1.7174 -0.0050
  182MOL0     H23993  11.313   9.759   6.606  0.4194  0.6800  0.0753
  182MOL0     H23994  11.375   9.909   6.762  1.9861 -0.7223 -1.3895
  182MOL0     H23995  11.209   9.994   6.767 -0.4771 -0.0488 -0.9290
  182MOL0     H23996  11.408   9.978   6.536  1.5409  0.1151  1.1123
  182MOL0     H23997  11.272  10.091   6.546  0.1911 -1.0091 -0.1308
  182MOL0     H23998  11.483  10.206   6.589  0.3132 -0.4731  0.1129
  182MOL0     H23999  11.535  10.083   6.700  1.0448  1.7694 -0.5206
  182MOL0     H24000  11.367  10.159   6.860 -0.2050 -1.0163 -1.0371
  182MOL0     H24001  11.291  10.260   6.738 -0.3774  1.7218  1.2436
  182MOL0     H24002  11.581  10.312   6.824  0.2831  2.0537  0.4016
  182MOL0     H24003  11.473  10.417   6.748 -1.2056 -0.6981 -0.5220
  182MOL0     H24004  11.481  10.467   6.995 -0.3928 -0.9669  0.5817
  182MOL0     H24005  11.448  10.303   7.031 -0.3857  1.2269  0.9493
  182MOL0     H24006  10.932   9.875   6.742  1.9197 -0.8545 -0.4928
  182MOL0     H24007  10.694   9.906   6.669 -0.9176  0.1583 -3.0910
  182MOL0     H24008  10.324   9.702   6.460 -1.5747 -1.4350 -0.6199
  182MOL0     H24009  10.111   9.705   6.404  2.0056 -3.1599  0.1821
  182MOL0     H24010   9.691  11.075   6.459 -0.3019 -0.5666 -0.4178
  182MOL0     H24011   9.918  11.110   6.492  0.7402 -2.1938 -2.1824
  182MOL0     H24012  10.291  10.918   6.783 -1.2922  1.1204 -0.7635
  182MOL0     H24013  10.544  10.901   6.813  0.8430  0.4231 -0.6542
  182MOL0     H24014  10.854  10.868   6.475 -2.6929  0.9564  0.4410
  182MOL0     H24015  10.738  10.758   6.492 -2.6464  2.7069 -0.8494
  182MOL0     H24016  10.957  10.669   6.592 -3.5283 -2.0907 -0.7601
  182MOL0     H24017  10.971  10.831   6.674 -0.5927  0.8739 -0.1963
  182MOL0     H24018  10.756  10.619   6.735 -0.7529  2.3788 -0.9024
  182MOL0     H24019  10.799  10.750   6.845  0.2462  0.4459  0.5052
  182MOL0     H24020  10.894  10.497   6.870 -0.6736  0.7528  2.6231
  182MOL0     H24021  11.026  10.562   6.768  3.2040  1.0302  2.1900
  182MOL0     H24022  11.075  10.768   7.143 -0.7773 -0.1610  0.0396
  182MOL0     H24023  10.585  10.907   6.384 -1.7879 -1.9408 -1.5472
  182MOL0     H24024  10.359  10.897   6.358 -1.1966 -1.2311 -0.4011
  183MOL0     O24025   3.462   6.500   4.009 -0.6209 -0.0660  0.2629
  183MOL0     C24026   3.509   6.389   4.005 -0.4930 -0.3223  0.3399
  183MOL0     O24027   3.439   6.283   3.952 -0.2165 -0.1124  0.1012
  183MOL0     C24028   3.310   6.303   3.918  0.5876  0.2281  0.6332
  183MOL0     C24029   3.215   6.331   4.013 -0.5734 -0.6052  0.5582
  183MOL0     C24030   3.075   6.335   3.988 -0.2485  0.8146 -0.7814
  183MOL0     C24031   3.031   6.306   3.850 -0.0939 -0.0655  0.0926
  183MOL0     O24032   2.902   6.305   3.816 -0.1337  0.1443  0.0603
  183MOL0     C24033   2.800   6.327   3.909 -0.3806 -0.3242 -0.7668
  183MOL0     C24034   2.677   6.349   3.822 -0.5103 -0.2658  0.8299
  183MOL0     C24035   2.632   6.208   3.758  0.2876 -0.4048 -0.3520
  183MOL0     C24036   2.503   6.249   3.674 -0.4683 -0.0746 -1.0890
  183MOL0     C24037   2.374   6.238   3.743 -0.5779  0.5780 -0.0314
  183MOL0     C24038   2.308   6.117   3.681 -0.1736 -0.3366  0.0637
  183MOL0     C24039   2.199   6.080   3.775 -0.4493 -0.2496 -0.5474
  183MOL0     C24040   2.126   5.965   3.718 -0.8297  0.1594  0.0259
  183MOL0     N24041   2.005   5.934   3.792  0.6728  0.4299  0.5662
  183MOL0     C24042   1.971   5.968   3.919  0.3522  0.6466  0.6305
  183MOL0     C24043   1.851   5.917   3.932  0.0205 -0.2349 -0.5925
  183MOL0     C24044   1.763   5.920   4.053 -0.5434  0.2315 -0.0337
  183MOL0     C24045   1.618   5.950   4.017 -0.2035  0.8086 -1.1500
  183MOL0     C24046   1.544   5.967   4.157 -0.0459  0.3018  1.1011
  183MOL0     C24047   1.397   5.929   4.162  0.8177  0.9577 -0.6181
  183MOL0     O24048   1.315   6.017   4.085  0.2668  0.7024 -0.0025
  183MOL0     C24049   1.192   5.974   4.058 -0.5474 -0.2037  0.0298
  183MOL0     C24050   1.076   6.037   4.095  0.2747  0.1608 -0.0031
  183MOL0     C24051   0.947   5.972   4.074 -0.1064 -1.0087 -0.6397
  183MOL0     C24052   0.939   5.863   3.996  0.7208 -0.3068 -0.8087
  183MOL0     C24053   0.800   5.798   3.970  0.2305  0.9648  0.6438
  183MOL0     O24054   0.802   5.709   3.867  0.2424  0.0257  0.1386
  183MOL0     C24055   0.696   5.624   3.821 -0.2263  0.3478  0.6667
  183MOL0     C24056   0.559   5.633   3.861  0.7234 -0.5690  0.7806
  183MOL0     C24057   0.460   5.547   3.798 -0.6352 -0.2941  0.7793
  183MOL0     C24058   0.501   5.438   3.708 -0.5535 -0.2459 -0.2422
  183MOL0     O24059   0.432   5.336   3.650 -0.3114 -0.9659 -0.2848
  183MOL0     C24060   0.285   5.339   3.673  0.0329 -0.3257 -0.0278
  183MOL0     C24061   0.253   5.294   3.815  0.2040 -0.3452 -0.4211
  183MOL0     C24062   0.090   5.284   3.832 -0.0464  0.4563 -0.2410
  183MOL0     C24063   0.054   5.291   3.983 -0.3790 -0.3605 -0.0318
  183MOL0     C24064  -0.082   5.234   4.002  0.6316 -0.5375  0.2437
  183MOL0     C24065  -0.184   5.350   3.986 -0.4505 -0.0423  0.4632
  183MOL0     C24066  -0.322   5.300   3.941  0.1195 -0.3139 -0.7843
  183MOL0     C24067  -0.385   5.199   4.040 -0.5529  0.0702 -0.3675
  183MOL0    Cl24068  -0.510   5.090   3.967 -0.4593 -0.1103  0.0822
  183MOL0     C24069   0.641   5.427   3.691 -0.5130  0.7607  0.2536
  183MOL0     C24070   0.735   5.517   3.735  0.3017  0.0456  0.2420
  183MOL0     O24071   0.704   5.831   4.040 -0.7843 -0.4857 -0.6093
  183MOL0     C24072   1.056   5.810   3.940  0.8065  0.1839 -0.1040
  183MOL0     C24073   1.175   5.866   3.973  0.4737  0.2239 -0.8505
  183MOL0     N24074   1.806   5.863   3.820  0.5895  1.3074 -0.2268
  183MOL0     N24075   1.894   5.881   3.730 -0.8234  0.2628  0.9548
  183MOL0     C24076   3.123   6.283   3.752 -0.3365  0.9597 -0.1941
  183MOL0     C24077   3.265   6.278   3.789  0.1515 -0.3142 -0.0353
  183MOL0     C24078   3.633   6.366   4.059  0.0923  0.6829 -0.1800
  183MOL0     C24079   3.699   6.241   4.034  0.0305 -0.3884 -0.4951
  183MOL0     C24080   3.826   6.225   4.083 -0.7872 -0.3221 -0.4667
  183MOL0     C24081   3.883   6.309   4.177  1.0806  0.0598 -0.0812
  183MOL0     O24082   4.016   6.298   4.215  0.3004  0.1943 -0.3390
  183MOL0     C24083   4.073   6.385   4.316 -0.3485  0.9407 -0.6474
  183MOL0     C24084   4.205   6.321   4.326  0.1766 -0.7706 -0.5000
  183MOL0     C24085   4.293   6.386   4.439 -0.8367  0.0740 -0.0875
  183MOL0     C24086   4.411   6.468   4.390 -0.6920  0.9984  0.5975
  183MOL0     C24087   4.364   6.597   4.344 -0.1232  0.7324 -0.2909
  183MOL0     C24088   4.323   6.690   4.281  0.1832 -0.4892 -0.0092
  183MOL0     C24089   3.809   6.417   4.223  0.0556 -0.4366  0.6114
  183MOL0     C24090   3.694   6.454   4.152  0.1273  0.5159  0.1695
  183MOL0     H24091   3.255   6.341   4.114 -0.3842  0.3628  0.3991
  183MOL0     H24092   3.007   6.357   4.070  1.6570  1.0785  0.8251
  183MOL0     H24093   2.812   6.404   3.985 -1.2310 -1.4927  0.5999
  183MOL0     H24094   2.799   6.242   3.977 -0.8605  0.9564  0.8792
  183MOL0     H24095   2.698   6.424   3.746 -0.3401  0.4495  1.5629
  183MOL0     H24096   2.600   6.397   3.883 -0.4028  2.3064 -0.9033
  183MOL0     H24097   2.609   6.134   3.836  0.8260 -0.2074 -0.0009
  183MOL0     H24098   2.710   6.171   3.690  3.1674 -0.9622  2.9713
  183MOL0     H24099   2.511   6.356   3.649  1.5963  0.6726  2.2078
  183MOL0     H24100   2.503   6.189   3.583  1.3520 -2.7326  0.5220
  183MOL0     H24101   2.317   6.331   3.733  0.8259  1.3544 -1.2395
  183MOL0     H24102   2.389   6.229   3.851 -1.0630 -0.5331 -0.0384
  183MOL0     H24103   2.380   6.037   3.660 -1.8446 -1.6660 -0.8239
  183MOL0     H24104   2.269   6.142   3.582  2.8040  1.1929 -0.8453
  183MOL0     H24105   2.237   6.057   3.875 -2.4455  2.5305  0.9998
  183MOL0     H24106   2.121   6.156   3.784 -3.2229 -2.8603 -0.5301
  183MOL0     H24107   2.179   5.870   3.712 -1.7955 -0.3030 -1.8899
  183MOL0     H24108   2.093   5.991   3.617  4.6860  1.1693 -1.8574
  183MOL0     H24109   2.031   6.028   3.988 -1.0397  1.3020  1.3098
  183MOL0     H24110   1.800   6.007   4.107  0.5184  0.8605 -1.6798
  183MOL0     H24111   1.760   5.828   4.112 -3.1799 -0.0461 -0.4644
  183MOL0     H24112   1.577   5.868   3.957  0.4584  0.5917 -1.3042
  183MOL0     H24113   1.607   6.041   3.958  0.5286  2.0642  0.5534
  183MOL0     H24114   1.583   5.902   4.236 -3.6989 -1.2426  1.8417
  183MOL0     H24115   1.544   6.072   4.187  0.1160  0.6876 -0.1979
  183MOL0     H24116   1.367   5.929   4.267 -0.7585 -1.3122 -0.9924
  183MOL0     H24117   1.385   5.827   4.124 -1.1347  1.3387 -1.0986
  183MOL0     H24118   1.075   6.123   4.161 -2.4232 -0.6362  1.1243
  183MOL0     H24119   0.858   6.019   4.115  1.7561  1.0227  1.3631
  183MOL0     H24120   0.521   5.714   3.921 -1.6745  0.2838 -1.6872
  183MOL0     H24121   0.356   5.559   3.826 -1.0201  1.1799 -1.0913
  183MOL0     H24122   0.238   5.265   3.608  0.6129  0.1671 -1.0389
  183MOL0     H24123   0.242   5.437   3.649 -1.3112 -0.9462 -0.2113
  183MOL0     H24124   0.290   5.367   3.888 -0.6205  0.2141 -0.5525
  183MOL0     H24125   0.302   5.197   3.831 -0.6283 -0.7748 -0.3817
  183MOL0     H24126   0.060   5.185   3.796 -0.0445  0.9210 -1.5685
  183MOL0     H24127   0.029   5.356   3.777 -0.0880  0.9825  0.4715
  183MOL0     H24128   0.120   5.225   4.041  0.8398  2.2527  1.7102
  183MOL0     H24129   0.076   5.392   4.019  2.4576 -1.0972  0.5757
  183MOL0     H24130  -0.101   5.187   4.099 -3.1965 -1.0931 -0.6327
  183MOL0     H24131  -0.104   5.151   3.935  0.7520 -1.4946  1.3588
  183MOL0     H24132  -0.157   5.418   3.905 -0.5002 -0.5985 -0.0320
  183MOL0     H24133  -0.191   5.404   4.080 -3.6331 -2.1940  1.6224
  183MOL0     H24134  -0.392   5.384   3.945  1.1019  0.4991 -0.1223
  183MOL0     H24135  -0.308   5.246   3.846  1.6640 -0.7900 -0.3068
  183MOL0     H24136  -0.424   5.262   4.120  2.3181  4.1019 -1.8097
  183MOL0     H24137  -0.313   5.129   4.085 -0.3756  0.0134 -0.7349
  183MOL0     H24138   0.683   5.340   3.643  0.7691  1.4880  0.0349
  183MOL0     H24139   0.842   5.504   3.718  0.1835 -1.1951  0.3353
  183MOL0     H24140   1.056   5.715   3.889  0.5406  0.5532 -0.8111
  183MOL0     H24141   1.264   5.813   3.941  2.0301  0.2715  2.9007
  183MOL0     H24142   3.100   6.264   3.648  0.2522 -0.3054 -0.1061
  183MOL0     H24143   3.336   6.246   3.713 -0.8245 -2.1039 -0.2302
  183MOL0     H24144   3.644   6.172   3.971  0.7181 -0.6884 -0.7752
  183MOL0     H24145   3.901   6.156   4.046  1.3177  2.0323 -0.8608
  183MOL0     H24146   4.012   6.374   4.406 -0.1542 -1.8946 -0.7643
  183MOL0     H24147   4.074   6.491   4.291 -5.2936  1.0368 -1.4825
  183MOL0     H24148   4.186   6.214   4.338 -0.2093 -0.4872  1.9017
  183MOL0     H24149   4.250   6.337   4.228  1.3403 -0.3259  0.0957
  183MOL0     H24150   4.335   6.297   4.487 -0.5614 -0.5888 -1.5002
  183MOL0     H24151   4.229   6.431   4.516 -1.9533  0.6764 -1.3158
  183MOL0     H24152   4.480   6.461   4.474 -0.5368 -1.1642  0.3443
  183MOL0     H24153   4.463   6.421   4.306 -2.9897 -1.2427  0.3040
  183MOL0     H24154   4.296   6.772   4.217 -0.6372 -0.3904  0.4454
  183MOL0     H24155   3.847   6.478   4.305 -1.3435  3.7857 -1.5470
  183MOL0     H24156   3.642   6.548   4.168 -4.1075 -1.9219  2.5236
  184MOL0     O24157   6.908  10.799   0.861  0.2776 -0.1782 -0.4805
  184MOL0     C24158   6.859  10.905   0.814 -1.1702  0.0513 -0.3892
  184MOL0     O24159   6.727  10.936   0.798 -0.0716 -0.7377  0.5228
  184MOL0     C24160   6.635  10.847   0.845  0.3037  0.0418  0.2958
  184MOL0     C24161   6.536  10.885   0.940 -0.1844 -0.2480  0.2288
  184MOL0     C24162   6.451  10.784   0.989 -0.9129 -0.4824 -0.1347
  184MOL0     C24163   6.453  10.656   0.930 -0.0120  0.5610 -0.5674
  184MOL0     O24164   6.366  10.546   0.963  0.5500  0.1495 -0.2831
  184MOL0     C24165   6.297  10.544   1.086  0.2381 -0.3608  0.2877
  184MOL0     C24166   6.402  10.506   1.188  0.3578  0.6335  0.4532
  184MOL0     C24167   6.346  10.480   1.326  0.6241 -0.1707 -0.4294
  184MOL0     C24168   6.449  10.423   1.424 -0.9401  0.3941  0.3199
  184MOL0     C24169   6.385  10.428   1.564 -0.5343  0.7785 -0.8450
  184MOL0     C24170   6.464  10.344   1.674 -0.5819 -0.3595  0.5183
  184MOL0     C24171   6.578  10.428   1.737 -0.1306  0.1037  0.4835
  184MOL0     C24172   6.587  10.398   1.889  0.5142  0.0299 -0.9444
  184MOL0     N24173   6.495  10.468   1.987 -0.7267  0.0941  0.2766
  184MOL0     C24174   6.436  10.592   1.971 -0.5954 -0.3676  0.2201
  184MOL0     C24175   6.340  10.589   2.062 -0.1745 -0.4235 -0.7720
  184MOL0     C24176   6.239  10.702   2.076  0.1643  0.2457 -0.5522
  184MOL0     C24177   6.097  10.642   2.070 -0.0227  0.1438 -0.0875
  184MOL0     C24178   5.988  10.744   2.060  0.1296 -0.4471 -0.0006
  184MOL0     C24179   5.846  10.680   2.049  0.1291 -0.6392  0.4404
  184MOL0     O24180   5.759  10.794   2.012 -0.5158 -1.1210 -0.4988
  184MOL0     C24181   5.645  10.787   1.938 -0.0367  1.1091  0.2979
  184MOL0     C24182   5.579  10.905   1.918 -1.1047  0.4111 -0.8355
  184MOL0     C24183   5.449  10.900   1.877 -0.0871  0.4599  0.5803
  184MOL0     C24184   5.390  10.777   1.828  0.5120 -0.1244 -0.3634
  184MOL0     C24185   5.249  10.779   1.783 -0.1034  0.1569  0.3901
  184MOL0     O24186   5.203  10.652   1.750  0.2289  0.0330  0.1190
  184MOL0     C24187   5.069  10.637   1.747  0.1284  0.5205  0.1740
  184MOL0     C24188   4.977  10.706   1.827  0.1074  0.9025 -0.3420
  184MOL0     C24189   4.839  10.685   1.803 -0.0539 -0.4840  0.2217
  184MOL0     C24190   4.794  10.593   1.706  0.3254  0.0519 -0.0959
  184MOL0     O24191   4.665  10.561   1.691 -0.7701  0.1248  0.1438
  184MOL0     C24192   4.565  10.650   1.739 -0.2549  0.8990 -0.3230
  184MOL0     C24193   4.451  10.610   1.654  0.4653  0.8935 -0.6046
  184MOL0     C24194   4.314  10.638   1.719  0.5896 -0.0279  0.2753
  184MOL0     C24195   4.207  10.621   1.610  0.0811  0.0191 -0.1345
  184MOL0     C24196   4.109  10.742   1.591 -0.4575  0.1125  0.5538
  184MOL0     C24197   4.002  10.726   1.482  0.7054  0.0771 -0.3671
  184MOL0     C24198   3.920  10.856   1.453  0.6852  0.5167 -0.0039
  184MOL0     C24199   3.806  10.835   1.358 -0.0116 -0.3769  0.3532
  184MOL0    Cl24200   3.718  10.972   1.325  0.0078 -0.3056 -0.1401
  184MOL0     C24201   4.890  10.509   1.645 -0.2580 -0.2205 -0.2132
  184MOL0     C24202   5.028  10.535   1.656 -0.3207 -0.1755 -0.4396
  184MOL0     O24203   5.195  10.893   1.762  0.4650  0.3746 -0.0683
  184MOL0     C24204   5.464  10.660   1.837  0.3653  0.0625 -0.3088
  184MOL0     C24205   5.591  10.668   1.888  0.1884  0.0678 -0.4005
  184MOL0     N24206   6.354  10.475   2.143 -0.3756 -0.3243 -0.1376
  184MOL0     N24207   6.439  10.401   2.085  0.0914 -0.0625 -0.1965
  184MOL0     C24208   6.530  10.619   0.828 -0.4670 -0.6173 -0.1328
  184MOL0     C24209   6.631  10.713   0.792  0.2360  0.2880 -0.8214
  184MOL0     C24210   6.941  11.019   0.787 -0.0091 -0.2605  0.0924
  184MOL0     C24211   6.905  11.153   0.798 -0.1430 -0.2817  0.2037
  184MOL0     C24212   6.995  11.252   0.784  0.8087 -0.0884 -0.7252
  184MOL0     C24213   7.129  11.234   0.762  1.1207  0.1061 -0.0689
  184MOL0     O24214   7.211  11.341   0.760 -0.2180 -0.2432 -0.3249
  184MOL0     C24215   7.323  11.322   0.671 -0.2441 -0.2819 -0.5741
  184MOL0     C24216   7.378  11.463   0.634  0.4397 -1.1613  0.2407
  184MOL0     C24217   7.516  11.449   0.564  0.9436 -0.2787 -0.6136
  184MOL0     C24218   7.537  11.581   0.492 -0.4921 -0.2426  0.2079
  184MOL0     C24219   7.667  11.607   0.422  0.0156 -0.0505  0.4378
  184MOL0     C24220   7.774  11.642   0.384 -0.5763 -0.3494 -0.0808
  184MOL0     C24221   7.168  11.103   0.752  0.2565  0.4075 -1.0691
  184MOL0     C24222   7.076  11.003   0.763 -0.6084 -0.0686 -0.3467
  184MOL0     H24223   6.548  10.982   0.987  1.2239 -0.4204  0.2556
  184MOL0     H24224   6.388  10.803   1.075 -1.7580 -1.9325 -0.3927
  184MOL0     H24225   6.218  10.468   1.089  1.0798 -1.2493  0.5571
  184MOL0     H24226   6.243  10.634   1.118 -0.3802 -1.5205  2.7746
  184MOL0     H24227   6.476  10.586   1.194  0.1916  1.3622 -3.8903
  184MOL0     H24228   6.452  10.415   1.154  1.2040  1.1540  0.2907
  184MOL0     H24229   6.258  10.415   1.322 -1.3495  2.3686 -1.4053
  184MOL0     H24230   6.301  10.570   1.369  0.5693 -1.0206  1.4212
  184MOL0     H24231   6.473  10.320   1.395 -1.6051 -0.0083  1.1582
  184MOL0     H24232   6.543  10.480   1.421 -1.6424  1.7180  1.9035
  184MOL0     H24233   6.286  10.381   1.561 -0.6266  1.0151 -1.7211
  184MOL0     H24234   6.360  10.531   1.593  0.1952  0.3831  1.4028
  184MOL0     H24235   6.503  10.248   1.639  1.9234  0.9143 -0.4422
  184MOL0     H24236   6.391  10.323   1.753  0.3279 -1.7091  1.0265
  184MOL0     H24237   6.671  10.412   1.681 -1.4432  0.9216 -2.1073
  184MOL0     H24238   6.555  10.534   1.724 -0.3408 -0.1633 -1.8673
  184MOL0     H24239   6.678  10.448   1.922 -0.1636 -0.4048  1.7556
  184MOL0     H24240   6.587  10.292   1.916 -3.5793  0.1088  0.0593
  184MOL0     H24241   6.444  10.655   1.883  1.6179 -1.8090 -0.6810
  184MOL0     H24242   6.244  10.781   2.001  1.3733  2.1811  1.4140
  184MOL0     H24243   6.245  10.734   2.181  1.2841 -4.6583  1.1489
  184MOL0     H24244   6.063  10.579   2.153 -0.4274  0.2932 -0.1433
  184MOL0     H24245   6.097  10.577   1.982 -2.3734  1.3796 -1.0757
  184MOL0     H24246   5.991  10.794   2.158 -0.4411 -1.4482  0.5346
  184MOL0     H24247   5.989  10.832   1.995 -1.8266 -0.6836 -0.3830
  184MOL0     H24248   5.801  10.627   2.133  0.9316  1.4149  2.2545
  184MOL0     H24249   5.857  10.611   1.965  1.8824  1.0060 -0.7518
  184MOL0     H24250   5.615  10.989   1.976 -0.0246  0.2763 -1.2942
  184MOL0     H24251   5.382  10.984   1.888  2.9228  3.0393  0.7651
  184MOL0     H24252   4.999  10.780   1.904 -1.0139 -0.3841  1.2942
  184MOL0     H24253   4.767  10.745   1.857  0.8986  0.8519  0.0623
  184MOL0     H24254   4.598  10.751   1.714  1.8334 -0.0907 -1.8446
  184MOL0     H24255   4.529  10.627   1.840  0.9378  2.2173  0.4486
  184MOL0     H24256   4.470  10.507   1.623  3.1066 -1.0292  5.8410
  184MOL0     H24257   4.461  10.672   1.564  1.8482  1.5386 -0.0303
  184MOL0     H24258   4.308  10.742   1.753 -0.3598  0.0226 -0.0369
  184MOL0     H24259   4.290  10.574   1.804 -3.3231  0.1561 -0.5142
  184MOL0     H24260   4.262  10.609   1.516  1.7290  2.6921  0.4006
  184MOL0     H24261   4.156  10.530   1.644 -0.4161  1.1033  2.1945
  184MOL0     H24262   4.162  10.837   1.576  0.5339 -0.0510  2.5710
  184MOL0     H24263   4.056  10.759   1.685 -0.4764  4.4842 -0.0264
  184MOL0     H24264   3.926  10.649   1.496  0.8218  0.2081  1.1773
  184MOL0     H24265   4.042  10.708   1.382  1.3375 -4.8828  0.5500
  184MOL0     H24266   3.876  10.891   1.546 -0.1679  0.3150 -0.3175
  184MOL0     H24267   3.978  10.942   1.420 -1.3246  2.9673  2.3678
  184MOL0     H24268   3.740  10.760   1.401  3.9250 -1.7174  4.8535
  184MOL0     H24269   3.854  10.788   1.272 -0.8005 -0.9176  0.1983
  184MOL0     H24270   4.853  10.432   1.578  2.7932 -0.7636 -1.4474
  184MOL0     H24271   5.094  10.475   1.595 -1.0060 -0.0717 -1.3038
  184MOL0     H24272   5.432  10.561   1.806  1.7284 -0.4756 -0.0721
  184MOL0     H24273   5.647  10.575   1.886  0.0864 -0.0000 -0.1433
  184MOL0     H24274   6.522  10.520   0.782  0.5936 -0.4036 -0.8030
  184MOL0     H24275   6.696  10.687   0.709 -2.4768 -0.6714 -2.7996
  184MOL0     H24276   6.807  11.191   0.824  0.1876  1.5209 -1.0284
  184MOL0     H24277   6.956  11.352   0.802  0.9173 -0.3179  0.9025
  184MOL0     H24278   7.298  11.268   0.579  0.0069 -1.8513  0.2363
  184MOL0     H24279   7.405  11.271   0.723 -0.4097  0.4749  0.4560
  184MOL0     H24280   7.296  11.508   0.577 -0.3981 -1.8244  0.8837
  184MOL0     H24281   7.389  11.521   0.725 -1.0996  0.9811 -0.8396
  184MOL0     H24282   7.506  11.365   0.495 -3.7664 -0.8155  0.3932
  184MOL0     H24283   7.594  11.425   0.637  0.6428  1.6556  0.4202
  184MOL0     H24284   7.466  11.594   0.411  2.1479 -2.7473 -2.7695
  184MOL0     H24285   7.526  11.663   0.564  2.2017  0.7467 -0.3920
  184MOL0     H24286   7.857  11.692   0.337 -3.1519  2.6637 -1.8878
  184MOL0     H24287   7.274  11.084   0.742  0.3639  0.7747 -0.6909
  184MOL0     H24288   7.125  10.907   0.752  1.1232  0.6597  0.5853
  185MOL0     O24289   7.861   0.831   7.596 -0.0121 -0.1656  0.0758
  185MOL0     C24290   7.888   0.777   7.483  0.1799 -0.2160 -0.4410
  185MOL0     O24291   7.810   0.676   7.431 -0.2250 -0.4254 -0.7323
  185MOL0     C24292   7.738   0.597   7.515 -0.3498 -0.0837 -0.5454
  185MOL0     C24293   7.771   0.458   7.517 -0.4587  0.3097 -0.2442
  185MOL0     C24294   7.696   0.375   7.602 -0.3987  0.3424 -0.1946
  185MOL0     C24295   7.593   0.430   7.684 -0.3090  0.1000  0.0774
  185MOL0     O24296   7.530   0.365   7.779 -0.1433  0.1474  0.7361
  185MOL0     C24297   7.598   0.272   7.866  0.0879  0.4730  0.4559
  185MOL0     C24298   7.518   0.197   7.974  0.6700 -0.4180  0.9398
  185MOL0     C24299   7.461   0.292   8.078  0.1807 -0.2345 -0.5993
  185MOL0     C24300   7.408   0.194   8.188 -0.0557  0.2361 -0.5994
  185MOL0     C24301   7.331   0.270   8.298 -0.4560  0.0438 -0.1315
  185MOL0     C24302   7.318   0.166   8.407 -0.0947  0.5049  0.7137
  185MOL0     C24303   7.230   0.223   8.510 -0.0059 -0.0055 -1.2371
  185MOL0     C24304   7.171   0.108   8.591 -0.6429  0.0211 -0.1645
  185MOL0     N24305   7.035   0.067   8.548  0.6494 -0.8329 -0.2854
  185MOL0     C24306   6.997  -0.024   8.441 -0.2574  0.1489  0.7067
  185MOL0     C24307   6.863  -0.042   8.459  0.0178  0.9776  0.5538
  185MOL0     C24308   6.762  -0.116   8.376  0.8692  0.7778  0.1207
  185MOL0     C24309   6.641  -0.172   8.454 -0.4705  0.5278 -0.3320
  185MOL0     C24310   6.540  -0.243   8.362  0.1613  0.0775 -0.4515
  185MOL0     C24311   6.422  -0.279   8.449 -0.1226  0.1607 -0.2338
  185MOL0     O24312   6.322  -0.316   8.358 -0.6193  0.5790 -0.6786
  185MOL0     C24313   6.188  -0.307   8.394 -0.8443 -0.2400 -0.4198
  185MOL0     C24314   6.134  -0.287   8.530 -0.1396  0.4156  0.4268
  185MOL0     C24315   5.996  -0.274   8.544  0.0629 -0.5262  0.2374
  185MOL0     C24316   5.913  -0.251   8.434 -0.2364  0.2804 -0.8539
  185MOL0     C24317   5.769  -0.221   8.452 -0.2945 -0.2162 -0.9411
  185MOL0     O24318   5.700  -0.193   8.337  0.2295 -0.1274  0.0179
  185MOL0     C24319   5.569  -0.146   8.339 -0.9212 -0.3092  0.3659
  185MOL0     C24320   5.479  -0.179   8.435  0.0211 -0.0258 -0.2742
  185MOL0     C24321   5.350  -0.128   8.447  0.0300 -0.1674  0.5876
  185MOL0     C24322   5.309  -0.035   8.352 -0.5726  0.3638  0.2700
  185MOL0     O24323   5.182   0.019   8.339  0.9634 -0.0767 -0.2973
  185MOL0     C24324   5.107   0.003   8.460 -0.2688 -0.4439  0.2164
  185MOL0     C24325   4.971   0.086   8.440 -0.1324 -1.4538  0.1887
  185MOL0     C24326   4.860   0.023   8.356 -0.1395 -0.9124  0.3442
  185MOL0     C24327   4.790  -0.094   8.426  0.1864 -0.2073  0.5588
  185MOL0     C24328   4.648  -0.126   8.367 -0.7443 -0.6528 -0.1206
  185MOL0     C24329   4.531  -0.030   8.415  0.1328  0.0042  0.0717
  185MOL0     C24330   4.399  -0.097   8.366 -0.6918  0.1173  0.0346
  185MOL0     C24331   4.279  -0.017   8.418 -0.0769 -0.1280  0.5135
  185MOL0    Cl24332   4.277   0.147   8.351  0.2561  0.0395  0.3775
  185MOL0     C24333   5.404   0.008   8.253 -0.3798  0.0923 -0.1894
  185MOL0     C24334   5.527  -0.053   8.245  0.0107 -0.3053  0.2584
  185MOL0     O24335   5.727  -0.203   8.569 -0.1344  0.2074 -0.2142
  185MOL0     C24336   5.963  -0.269   8.307  0.0190 -0.4802 -0.4976
  185MOL0     C24337   6.102  -0.302   8.288  0.4337 -0.4472 -0.2210
  185MOL0     N24338   6.820   0.038   8.561 -0.1910 -0.6037  0.8798
  185MOL0     N24339   6.921   0.105   8.609  0.6472 -0.2800 -1.5893
  185MOL0     C24340   7.560   0.568   7.678 -0.0949 -0.5835 -0.0602
  185MOL0     C24341   7.636   0.652   7.598 -0.5754  0.1565  0.8991
  185MOL0     C24342   8.005   0.830   7.407 -0.5712  0.0421 -0.9061
  185MOL0     C24343   8.044   0.784   7.276 -0.1546  0.5604 -0.6253
  185MOL0     C24344   8.149   0.836   7.208 -0.0696 -0.3721 -0.3380
  185MOL0     C24345   8.234   0.918   7.273  0.1811 -0.2713  0.1930
  185MOL0     O24346   8.342   0.970   7.203  0.0629  0.0712 -0.4156
  185MOL0     C24347   8.439   1.039   7.272 -0.0537 -0.1391 -0.4094
  185MOL0     C24348   8.568   1.036   7.204 -0.1446 -0.1521  0.0290
  185MOL0     C24349   8.654   1.147   7.265  0.0950  0.4103 -0.9443
  185MOL0     C24350   8.758   1.197   7.173 -0.4807 -0.5201 -0.0787
  185MOL0     C24351   8.710   1.239   7.046 -0.2435  0.4109  0.4327
  185MOL0     C24352   8.662   1.291   6.945 -0.0842  0.0832  0.6480
  185MOL0     C24353   8.197   0.974   7.402 -0.4391  0.3500  0.6463
  185MOL0     C24354   8.088   0.919   7.465 -0.3695 -0.5799  0.7989
  185MOL0     H24355   7.858   0.421   7.464  0.1923  0.9811  0.3346
  185MOL0     H24356   7.714   0.268   7.604 -2.0877  0.0447  1.1174
  185MOL0     H24357   7.679   0.331   7.910  1.3099  0.9986 -2.2578
  185MOL0     H24358   7.649   0.190   7.813  0.4073 -0.3801  2.0256
  185MOL0     H24359   7.579   0.116   8.015  1.0621  0.0871  1.3622
  185MOL0     H24360   7.441   0.155   7.909  4.8791 -0.1261 -5.0813
  185MOL0     H24361   7.383   0.354   8.033  1.5077 -0.6776 -3.7292
  185MOL0     H24362   7.540   0.356   8.119 -1.0007  0.3527  0.8959
  185MOL0     H24363   7.340   0.128   8.133 -0.6070 -0.0410  0.3889
  185MOL0     H24364   7.492   0.147   8.241 -0.4251 -0.8683 -0.9711
  185MOL0     H24365   7.236   0.312   8.261  0.9736  2.6943 -1.0744
  185MOL0     H24366   7.391   0.352   8.339  2.4263 -1.9732 -0.0667
  185MOL0     H24367   7.411   0.130   8.451 -1.9567 -2.2334  2.8148
  185MOL0     H24368   7.258   0.081   8.371  0.0066 -0.0112  1.7492
  185MOL0     H24369   7.291   0.288   8.574  0.1415 -1.4399  0.1362
  185MOL0     H24370   7.147   0.285   8.476 -0.1803 -0.5379 -1.7969
  185MOL0     H24371   7.157   0.138   8.695 -0.4497  0.6425 -0.3127
  185MOL0     H24372   7.242   0.025   8.590 -1.6122 -0.8176  0.1013
  185MOL0     H24373   7.063  -0.070   8.369 -1.1126 -0.7098  0.4518
  185MOL0     H24374   6.811  -0.204   8.332  0.6842  0.5758  0.3147
  185MOL0     H24375   6.727  -0.057   8.291 -1.3298 -1.5570 -0.7448
  185MOL0     H24376   6.585  -0.101   8.515 -0.4612  1.3983 -1.3014
  185MOL0     H24377   6.685  -0.248   8.520  1.5006 -1.5340 -3.6712
  185MOL0     H24378   6.508  -0.177   8.281 -1.9277 -4.3384 -3.6257
  185MOL0     H24379   6.583  -0.335   8.322  2.5247  1.3895 -1.1509
  185MOL0     H24380   6.387  -0.196   8.511 -0.0810  1.0894 -1.4093
  185MOL0     H24381   6.440  -0.366   8.513  1.4727  0.1812 -0.6100
  185MOL0     H24382   6.198  -0.305   8.615  0.0192 -0.8721  0.0673
  185MOL0     H24383   5.953  -0.289   8.642 -3.8278  0.3503 -1.1656
  185MOL0     H24384   5.508  -0.259   8.503  1.7268  0.8465  0.0602
  185MOL0     H24385   5.283  -0.189   8.507 -2.1157  0.5226 -0.9693
  185MOL0     H24386   5.159   0.050   8.544 -0.7509 -1.8455  1.3347
  185MOL0     H24387   5.081  -0.098   8.492 -2.2256  0.8503  3.2254
  185MOL0     H24388   4.999   0.180   8.392 -1.7519 -0.4484  1.1456
  185MOL0     H24389   4.923   0.105   8.536 -0.6211  1.1525 -0.5074
  185MOL0     H24390   4.909  -0.016   8.265  1.7889 -0.1778  1.0133
  185MOL0     H24391   4.787   0.098   8.325  2.2705  1.2295 -0.5315
  185MOL0     H24392   4.835  -0.193   8.430 -1.0081 -0.7266  2.2971
  185MOL0     H24393   4.773  -0.054   8.526 -1.9364 -2.4644  1.1897
  185MOL0     H24394   4.615  -0.226   8.398  1.7214 -1.7413 -0.8119
  185MOL0     H24395   4.662  -0.125   8.259 -1.5636 -2.2494 -0.2680
  185MOL0     H24396   4.547   0.070   8.372 -0.0762 -0.1890 -0.4543
  185MOL0     H24397   4.534  -0.024   8.525  0.4980 -0.8831  0.1130
  185MOL0     H24398   4.410  -0.094   8.257 -0.4064 -1.7419 -0.0245
  185MOL0     H24399   4.385  -0.200   8.401  3.8274 -1.2891 -1.6234
  185MOL0     H24400   4.285   0.012   8.523 -0.5604  0.5648  0.3553
  185MOL0     H24401   4.187  -0.073   8.398 -0.5596  0.1688  1.8283
  185MOL0     H24402   5.375   0.080   8.177 -0.4420 -0.4830 -0.7210
  185MOL0     H24403   5.596  -0.028   8.166  0.6662 -2.2241  0.1743
  185MOL0     H24404   5.890  -0.270   8.227 -1.2677  1.6945  0.5590
  185MOL0     H24405   6.128  -0.333   8.187 -1.2461 -1.2921 -0.4274
  185MOL0     H24406   7.476   0.589   7.743  0.3222 -1.2544  0.7021
  185MOL0     H24407   7.606   0.756   7.590 -1.2837 -0.1099 -0.1098
  185MOL0     H24408   7.983   0.711   7.222  2.3370 -3.0259  1.0025
  185MOL0     H24409   8.179   0.799   7.111  0.3831 -0.0488 -0.3235
  185MOL0     H24410   8.443   1.005   7.376 -1.1841  1.9283  0.3623
  185MOL0     H24411   8.410   1.144   7.285 -0.7725 -0.2604 -0.9276
  185MOL0     H24412   8.627   0.946   7.188 -1.9166 -1.5063  0.7278
  185MOL0     H24413   8.545   1.064   7.101 -2.2240 -3.6791 -0.6387
  185MOL0     H24414   8.704   1.104   7.352 -1.7076  2.8904  1.5195
  185MOL0     H24415   8.597   1.234   7.299  1.6118  1.7756 -1.8047
  185MOL0     H24416   8.804   1.290   7.208  1.1401 -0.8137 -1.2976
  185MOL0     H24417   8.833   1.118   7.163 -1.9752 -2.1007  0.4909
  185MOL0     H24418   8.625   1.346   6.861 -1.7942 -1.6249  0.2272
  185MOL0     H24419   8.238   1.064   7.446 -0.4712  0.0297  1.3343
  185MOL0     H24420   8.070   0.956   7.566  3.3369  1.5482  0.8506
  186MOL0     O24421   5.859   2.416   0.764 -0.5699  0.3516 -0.5215
  186MOL0     C24422   5.932   2.448   0.853 -0.7961 -0.2248 -0.3559
  186MOL0     O24423   5.898   2.515   0.970  0.3997 -0.4468  0.2065
  186MOL0     C24424   5.767   2.552   1.004  0.3954 -0.0629  0.1420
  186MOL0     C24425   5.709   2.526   1.128  0.1952 -0.2656 -0.6554
  186MOL0     C24426   5.574   2.572   1.153  0.0545  0.2103  0.0327
  186MOL0     C24427   5.500   2.633   1.056 -0.4860  0.3609  0.3915
  186MOL0     O24428   5.375   2.695   1.076  0.2589  0.3356  0.1800
  186MOL0     C24429   5.325   2.723   1.211 -0.7174 -0.5015  0.6239
  186MOL0     C24430   5.186   2.772   1.200  0.0537 -0.0882 -0.0724
  186MOL0     C24431   5.086   2.664   1.159 -0.4940  0.3972 -0.5853
  186MOL0     C24432   4.945   2.718   1.143 -0.1502  0.4725 -0.3118
  186MOL0     C24433   4.831   2.617   1.147  0.9779  0.0215  0.9475
  186MOL0     C24434   4.703   2.691   1.139  0.1492  0.6499  0.0320
  186MOL0     C24435   4.582   2.598   1.120 -0.1207 -0.1363 -0.7775
  186MOL0     C24436   4.449   2.673   1.128  1.3767 -0.0925  0.4586
  186MOL0     N24437   4.333   2.578   1.115 -0.0095 -0.2537  0.6736
  186MOL0     C24438   4.225   2.599   1.049  1.2924  0.0923  0.0673
  186MOL0     C24439   4.140   2.479   1.058 -0.1043 -0.0434  0.7008
  186MOL0     C24440   4.008   2.451   0.997  0.6715  0.7200 -0.1497
  186MOL0     C24441   3.941   2.310   1.036  0.1999  0.4148 -0.7061
  186MOL0     C24442   3.800   2.298   0.973  1.0957  0.6043 -0.7921
  186MOL0     C24443   3.704   2.187   1.017  0.4293 -0.5417  0.6020
  186MOL0     O24444   3.575   2.240   1.014  0.4477  0.5187 -0.7355
  186MOL0     C24445   3.461   2.157   1.000 -0.3832  0.7594  0.2376
  186MOL0     C24446   3.459   2.017   1.011  0.2083 -0.1721 -0.0216
  186MOL0     C24447   3.336   1.954   0.999  0.3824 -0.2653  0.9859
  186MOL0     C24448   3.217   2.029   0.972 -0.2793  0.9187 -0.7285
  186MOL0     C24449   3.092   1.955   0.956 -0.4357 -0.2098 -0.5412
  186MOL0     O24450   3.090   1.820   0.991  0.4478 -0.2153 -0.3725
  186MOL0     C24451   2.968   1.754   0.992 -0.5945 -0.0654 -0.1515
  186MOL0     C24452   2.895   1.737   1.110  0.4378  0.8145  0.1952
  186MOL0     C24453   2.769   1.663   1.114 -0.3485 -0.1728  0.4042
  186MOL0     C24454   2.720   1.607   0.992 -0.7155  0.5258 -0.0830
  186MOL0     O24455   2.609   1.525   0.993 -0.0124  0.5431  0.6605
  186MOL0     C24456   2.543   1.491   0.863 -0.0032  0.0582  0.6543
  186MOL0     C24457   2.396   1.478   0.895  0.6674  0.6129  0.0961
  186MOL0     C24458   2.325   1.460   0.755  0.2328 -0.8292 -0.6924
  186MOL0     C24459   2.348   1.320   0.696  0.5338  0.4282 -0.1300
  186MOL0     C24460   2.272   1.322   0.565 -0.0608  0.4353  0.2570
  186MOL0     C24461   2.260   1.180   0.513  1.0882  0.1472  0.8442
  186MOL0     C24462   2.214   1.180   0.367 -1.0971 -0.5209  0.3166
  186MOL0     C24463   2.078   1.255   0.347  1.2243 -0.4844  0.2475
  186MOL0    Cl24464   1.958   1.210   0.486  0.6119  0.1095  0.1771
  186MOL0     C24465   2.791   1.641   0.872 -0.2126  0.0854  0.0032
  186MOL0     C24466   2.913   1.715   0.870 -0.4361  0.5471 -0.5617
  186MOL0     O24467   2.998   2.021   0.910  0.6511 -0.3483  0.2753
  186MOL0     C24468   3.228   2.164   0.953  0.9611  0.3437  0.4934
  186MOL0     C24469   3.344   2.229   0.962  0.2977  0.1185 -0.9568
  186MOL0     N24470   4.209   2.398   1.138  0.0671 -0.4185  0.8140
  186MOL0     N24471   4.323   2.452   1.181  0.4627 -0.3776  0.2859
  186MOL0     C24472   5.552   2.639   0.925 -0.5421  0.5408 -0.9982
  186MOL0     C24473   5.686   2.604   0.902  0.2550  0.2657  0.5253
  186MOL0     C24474   6.064   2.409   0.837 -0.7741 -0.4262  0.1686
  186MOL0     C24475   6.132   2.384   0.714  0.4273  0.3680  0.0250
  186MOL0     C24476   6.260   2.325   0.719 -0.3052 -0.5194 -0.8374
  186MOL0     C24477   6.334   2.316   0.843 -0.0803  0.2436  0.6816
  186MOL0     O24478   6.461   2.291   0.860  0.0992  0.2242  0.5955
  186MOL0     C24479   6.527   2.216   0.755  0.2813 -0.6381  0.2049
  186MOL0     C24480   6.505   2.063   0.745  0.2205 -0.8499 -0.2258
  186MOL0     C24481   6.585   2.004   0.631  0.5160 -0.7173 -0.1162
  186MOL0     C24482   6.587   1.850   0.624  0.9106 -0.4330  0.3186
  186MOL0     C24483   6.683   1.801   0.526  0.2117 -0.0118  0.1603
  186MOL0     C24484   6.760   1.776   0.431 -0.2419 -0.4626  0.4804
  186MOL0     C24485   6.267   2.352   0.957 -0.6808 -0.0879  0.5491
  186MOL0     C24486   6.141   2.385   0.957  0.6380  0.4427 -0.7808
  186MOL0     H24487   5.774   2.477   1.200  1.1047  0.8296 -0.6888
  186MOL0     H24488   5.541   2.556   1.256  0.5267 -0.1011  0.1431
  186MOL0     H24489   5.383   2.797   1.266 -1.1325 -1.0889  1.8967
  186MOL0     H24490   5.323   2.630   1.269  3.4123 -0.7277  0.6700
  186MOL0     H24491   5.179   2.858   1.133 -1.2141  3.5926  4.3216
  186MOL0     H24492   5.164   2.824   1.293  1.6041  0.8347 -0.1984
  186MOL0     H24493   5.089   2.578   1.226  0.5700 -0.4684 -1.6949
  186MOL0     H24494   5.115   2.616   1.065  1.6215  2.3316 -0.9985
  186MOL0     H24495   4.934   2.788   1.227 -1.8695  0.8742 -0.8269
  186MOL0     H24496   4.942   2.772   1.048 -1.2905  1.3645  0.1922
  186MOL0     H24497   4.836   2.558   1.239  4.1577 -0.0717  0.8122
  186MOL0     H24498   4.838   2.562   1.053 -1.8071  1.6923 -0.3922
  186MOL0     H24499   4.703   2.760   1.054  2.1255  1.7743  0.8819
  186MOL0     H24500   4.679   2.742   1.232 -2.3204 -1.2334  0.5296
  186MOL0     H24501   4.601   2.536   1.032  0.3082 -1.0910 -0.0319
  186MOL0     H24502   4.580   2.512   1.188 -0.8323 -1.6851 -2.6546
  186MOL0     H24503   4.444   2.741   1.043 -1.3100 -2.2659 -1.3397
  186MOL0     H24504   4.431   2.718   1.226 -0.0479 -0.0978  0.2293
  186MOL0     H24505   4.210   2.686   0.985 -0.7503  0.2170  0.6431
  186MOL0     H24506   4.018   2.446   0.888  2.3305 -0.8219  0.0412
  186MOL0     H24507   3.948   2.540   1.023 -1.0966 -0.1340 -1.1175
  186MOL0     H24508   3.925   2.305   1.144 -0.8207  0.6477 -0.8369
  186MOL0     H24509   3.995   2.219   1.010 -0.8184 -0.7629  1.1013
  186MOL0     H24510   3.751   2.395   0.989 -0.2500  0.0111 -1.1740
  186MOL0     H24511   3.813   2.278   0.866 -3.1015 -1.2830 -1.1291
  186MOL0     H24512   3.744   2.161   1.115  1.4155 -1.3216  0.0123
  186MOL0     H24513   3.712   2.103   0.948 -3.1449 -1.9453  1.6553
  186MOL0     H24514   3.545   1.952   1.027  1.4710  1.1493 -1.1615
  186MOL0     H24515   3.329   1.846   1.013  3.4542 -0.5654  0.7944
  186MOL0     H24516   2.933   1.776   1.204 -0.7303  0.6336  0.7575
  186MOL0     H24517   2.729   1.653   1.214  0.8026 -1.2800  0.7724
  186MOL0     H24518   2.583   1.394   0.832  1.3425  0.2789  1.6458
  186MOL0     H24519   2.563   1.564   0.785  0.9219 -1.5466 -0.6742
  186MOL0     H24520   2.361   1.569   0.946 -0.7857 -2.2628  4.9232
  186MOL0     H24521   2.380   1.400   0.970  3.8684 -1.3751 -1.0908
  186MOL0     H24522   2.365   1.534   0.684  2.1429 -0.3800  0.7476
  186MOL0     H24523   2.220   1.484   0.771  0.4945  0.1179 -0.2727
  186MOL0     H24524   2.454   1.296   0.682  0.2110 -2.4586  1.6165
  186MOL0     H24525   2.312   1.236   0.756  1.7994 -0.6777 -0.8753
  186MOL0     H24526   2.319   1.377   0.484  1.5547 -0.8181  0.2919
  186MOL0     H24527   2.173   1.363   0.588 -0.4700  0.6172 -1.6572
  186MOL0     H24528   2.190   1.122   0.574 -0.1335  1.0112  0.3168
  186MOL0     H24529   2.358   1.132   0.513  1.5355  0.9465 -0.9241
  186MOL0     H24530   2.300   1.211   0.307  0.1482 -1.8724  1.2989
  186MOL0     H24531   2.197   1.076   0.338  2.7635 -1.4205  0.7544
  186MOL0     H24532   2.040   1.233   0.247 -1.0146 -0.3114  1.0111
  186MOL0     H24533   2.096   1.363   0.343  0.0387 -0.2937 -3.3545
  186MOL0     H24534   2.769   1.594   0.777 -0.1972 -0.7732  0.4052
  186MOL0     H24535   2.962   1.731   0.775 -1.3835 -2.4966 -1.6854
  186MOL0     H24536   3.134   2.215   0.942  0.3831 -1.0824 -2.1118
  186MOL0     H24537   3.350   2.338   0.961 -1.7150  0.4388  2.7824
  186MOL0     H24538   5.490   2.674   0.844 -1.8408 -0.2341 -0.3684
  186MOL0     H24539   5.738   2.632   0.811 -0.5279 -1.1764 -0.4258
  186MOL0     H24540   6.076   2.380   0.621 -0.1500  1.3284  0.3168
  186MOL0     H24541   6.295   2.286   0.624 -1.3585 -3.4511 -0.1127
  186MOL0     H24542   6.634   2.231   0.767  1.1355 -3.7157 -2.4627
  186MOL0     H24543   6.509   2.266   0.659 -1.8339  1.2555  1.4882
  186MOL0     H24544   6.525   2.014   0.841  0.9951 -0.2524 -0.0773
  186MOL0     H24545   6.402   2.032   0.726 -0.0010 -1.3826  1.7073
  186MOL0     H24546   6.689   2.037   0.647  0.2868  0.8972 -1.7097
  186MOL0     H24547   6.545   2.050   0.541  0.6192  2.2553  1.2456
  186MOL0     H24548   6.613   1.814   0.724  1.2102  0.5000  0.5860
  186MOL0     H24549   6.486   1.811   0.606  1.3206 -1.6311  0.4913
  186MOL0     H24550   6.819   1.748   0.347  0.3628 -0.4307  0.8842
  186MOL0     H24551   6.321   2.352   1.051 -0.9119 -1.9028  0.7292
  186MOL0     H24552   6.100   2.378   1.058  3.0739 -1.0943  0.2157
  187MOL0     O24553   8.464   6.139   7.557 -0.0162  0.0163 -0.1608
  187MOL0     C24554   8.524   6.057   7.623 -0.3687  0.5009 -0.5363
  187MOL0     O24555   8.466   5.980   7.716 -0.5272 -0.2711 -0.3543
  187MOL0     C24556   8.328   5.991   7.729  0.4369  0.2897 -0.6088
  187MOL0     C24557   8.273   6.080   7.817  0.2519 -0.0817 -0.6075
  187MOL0     C24558   8.133   6.096   7.831 -0.5937 -0.6181 -0.0535
  187MOL0     C24559   8.048   6.039   7.743  0.1409 -0.0203  0.6045
  187MOL0     O24560   7.916   6.072   7.746  0.1258  0.0254  0.5846
  187MOL0     C24561   7.827   5.982   7.681 -0.6150  0.0453  0.3282
  187MOL0     C24562   7.681   6.004   7.718 -0.7119  0.1756  0.1810
  187MOL0     C24563   7.610   6.138   7.695  0.5385 -0.2594  0.6972
  187MOL0     C24564   7.467   6.131   7.710  0.3626  0.1890  0.0185
  187MOL0     C24565   7.402   6.271   7.738  0.3179  0.2911  0.5991
  187MOL0     C24566   7.252   6.255   7.720  0.0216 -0.4346  0.0739
  187MOL0     C24567   7.177   6.393   7.727  1.1614  0.6602 -0.2748
  187MOL0     C24568   7.031   6.379   7.699 -0.8261  0.1405  0.1495
  187MOL0     N24569   6.948   6.385   7.818  0.9392 -0.5491 -0.3792
  187MOL0     C24570   6.879   6.497   7.856 -0.0486  0.3349 -1.1079
  187MOL0     C24571   6.826   6.457   7.969 -0.6000  0.1315 -0.2018
  187MOL0     C24572   6.733   6.536   8.058  0.0247  0.6213 -0.7874
  187MOL0     C24573   6.652   6.457   8.159  0.5766  0.0107  0.0291
  187MOL0     C24574   6.548   6.551   8.230  0.3010 -0.6261  0.7086
  187MOL0     C24575   6.461   6.492   8.337  0.3253  0.1380 -0.6927
  187MOL0     O24576   6.357   6.409   8.262 -0.8025  0.1971  0.3633
  187MOL0     C24577   6.221   6.423   8.285 -0.6176  0.3203 -0.2991
  187MOL0     C24578   6.136   6.320   8.247  0.4196  1.1775 -0.9405
  187MOL0     C24579   6.005   6.314   8.280  0.4271 -0.8691 -0.2552
  187MOL0     C24580   5.944   6.415   8.359 -1.1527 -0.6802  0.0191
  187MOL0     C24581   5.803   6.404   8.396 -0.0503 -0.3299 -1.4292
  187MOL0     O24582   5.762   6.279   8.398  0.5375 -0.1961  0.0345
  187MOL0     C24583   5.633   6.236   8.419 -0.0896 -0.4175 -0.1630
  187MOL0     C24584   5.627   6.095   8.423  0.5251 -0.2635 -0.2622
  187MOL0     C24585   5.509   6.033   8.447  0.0975  0.5513 -0.8040
  187MOL0     C24586   5.387   6.102   8.471 -0.3986 -0.0337 -0.0089
  187MOL0     O24587   5.264   6.037   8.474 -0.3070  0.0596  0.0587
  187MOL0     C24588   5.205   6.047   8.600  0.0279  0.1720 -0.1314
  187MOL0     C24589   5.049   6.047   8.584 -0.8756 -0.1655  0.3301
  187MOL0     C24590   4.992   5.909   8.546  0.1237  0.3867  0.2333
  187MOL0     C24591   4.837   5.918   8.550 -0.2172 -0.1111 -0.9107
  187MOL0     C24592   4.787   5.781   8.503  0.2150 -0.8794  0.6762
  187MOL0     C24593   4.627   5.790   8.497 -0.7374 -0.0568  0.1590
  187MOL0     C24594   4.581   5.677   8.404 -0.5755  0.3488  0.1462
  187MOL0     C24595   4.448   5.721   8.347 -0.0098 -0.8659 -0.0630
  187MOL0    Cl24596   4.339   5.752   8.481  0.3628  0.8941  0.2148
  187MOL0     C24597   5.396   6.247   8.469  0.3547 -0.0084 -0.2285
  187MOL0     C24598   5.512   6.309   8.439 -0.1919 -0.1751 -0.6077
  187MOL0     O24599   5.741   6.510   8.413 -0.8470 -0.3050 -0.1852
  187MOL0     C24600   6.020   6.531   8.391 -0.6782  0.8380  0.5317
  187MOL0     C24601   6.159   6.525   8.354 -0.0250 -0.8503 -0.4601
  187MOL0     N24602   6.865   6.329   8.009 -0.1865 -0.1276 -0.1962
  187MOL0     N24603   6.921   6.280   7.906  0.7682 -0.2055  0.5160
  187MOL0     C24604   8.103   5.948   7.652  0.2153  0.1813 -0.0981
  187MOL0     C24605   8.239   5.911   7.658  0.3520 -0.9457  0.7130
  187MOL0     C24606   8.671   6.048   7.608  0.5684 -1.0288  0.5460
  187MOL0     C24607   8.749   5.941   7.668  0.7267  0.2856 -0.2987
  187MOL0     C24608   8.886   5.931   7.646 -0.0064 -0.7056  1.2570
  187MOL0     C24609   8.950   6.039   7.583 -0.1024  0.9057  0.4323
  187MOL0     O24610   9.085   6.039   7.572  0.5790  0.9163  0.1329
  187MOL0     C24611   9.147   6.138   7.487 -0.4318  1.1365 -0.2841
  187MOL0     C24612   9.292   6.090   7.453 -0.2570  0.3710 -0.5068
  187MOL0     C24613   9.316   5.955   7.370  0.3915 -0.2534 -1.2253
  187MOL0     C24614   9.338   6.006   7.231  0.5324 -0.5998 -0.2046
  187MOL0     C24615   9.352   5.889   7.141 -0.2476 -0.2578  0.4598
  187MOL0     C24616   9.373   5.810   7.059  0.5373 -0.2156 -0.5991
  187MOL0     C24617   8.879   6.142   7.525  0.0049 -0.9523 -0.1639
  187MOL0     C24618   8.739   6.152   7.541 -0.0898 -0.6964 -0.3042
  187MOL0     H24619   8.340   6.149   7.868 -2.5593  0.8208  2.2403
  187MOL0     H24620   8.091   6.170   7.898  1.1986 -0.6163  1.1027
  187MOL0     H24621   7.861   5.886   7.721  0.9239 -0.0162 -1.0335
  187MOL0     H24622   7.830   5.988   7.572  1.2349  0.4723  0.3720
  187MOL0     H24623   7.663   5.978   7.822 -0.0593  2.0657  0.8030
  187MOL0     H24624   7.620   5.944   7.650 -0.3484 -0.1403  0.1303
  187MOL0     H24625   7.639   6.172   7.595 -0.5664 -0.2406  0.3693
  187MOL0     H24626   7.657   6.211   7.761  1.7977 -1.2266  0.9139
  187MOL0     H24627   7.425   6.089   7.618  0.8153  1.2113 -0.6685
  187MOL0     H24628   7.456   6.060   7.792  1.2686  0.1091  0.0785
  187MOL0     H24629   7.436   6.345   7.665 -1.8213 -0.1186 -0.8887
  187MOL0     H24630   7.435   6.310   7.835  0.0093  1.9970  0.0452
  187MOL0     H24631   7.221   6.200   7.809 -0.8365 -0.9529 -0.5319
  187MOL0     H24632   7.230   6.192   7.633 -0.5391 -0.5691  0.3099
  187MOL0     H24633   7.198   6.440   7.823 -2.9235  0.1440  1.0917
  187MOL0     H24634   7.214   6.457   7.646 -1.4353  1.7555 -0.7158
  187MOL0     H24635   7.020   6.289   7.638 -0.8705 -0.3240  0.8237
  187MOL0     H24636   6.993   6.458   7.634  1.2816  0.0073 -1.3521
  187MOL0     H24637   6.870   6.589   7.799  1.2962  0.7475 -0.6825
  187MOL0     H24638   6.656   6.586   7.999 -0.3172  1.2732  0.1916
  187MOL0     H24639   6.790   6.618   8.103  2.0931  0.1114 -2.2763
  187MOL0     H24640   6.727   6.409   8.223 -0.1022 -2.3412 -0.8418
  187MOL0     H24641   6.608   6.372   8.107  2.8069 -1.0103 -0.2810
  187MOL0     H24642   6.603   6.636   8.273 -0.7984  1.5484 -1.8626
  187MOL0     H24643   6.491   6.608   8.156  2.4629  2.0480  0.9462
  187MOL0     H24644   6.429   6.571   8.406  1.1744 -2.2043  2.6644
  187MOL0     H24645   6.521   6.422   8.396  1.9640  1.0289 -1.2390
  187MOL0     H24646   6.180   6.240   8.189  0.6148  1.4712 -1.2049
  187MOL0     H24647   5.942   6.232   8.247 -0.3644 -0.7722  0.9639
  187MOL0     H24648   5.718   6.036   8.412 -0.0297 -0.7686 -2.5717
  187MOL0     H24649   5.510   5.925   8.436 -0.4337  0.2692  1.4177
  187MOL0     H24650   5.227   6.142   8.648  0.5026 -0.4520  0.9174
  187MOL0     H24651   5.240   5.964   8.662  1.3527  1.3884  0.8171
  187MOL0     H24652   5.019   6.118   8.506  0.4923  0.4447  0.3192
  187MOL0     H24653   5.005   6.074   8.680  0.7911 -1.3611  1.4797
  187MOL0     H24654   5.026   5.839   8.622 -0.2403 -0.9304 -0.7591
  187MOL0     H24655   5.026   5.877   8.446 -1.9649  1.7182 -0.9764
  187MOL0     H24656   4.799   5.940   8.650  1.2968  3.0601 -0.9147
  187MOL0     H24657   4.802   5.998   8.483  3.2754  0.1724 -2.6732
  187MOL0     H24658   4.818   5.701   8.571 -3.6371 -1.2323  2.3182
  187MOL0     H24659   4.823   5.761   8.402 -0.0927  0.5946  0.2443
  187MOL0     H24660   4.612   5.889   8.454 -0.0641  0.3594  0.8528
  187MOL0     H24661   4.589   5.797   8.600  0.7776 -0.3882  0.7729
  187MOL0     H24662   4.650   5.664   8.320  0.3229  3.1660  0.3618
  187MOL0     H24663   4.573   5.587   8.467 -1.6212 -0.2681 -0.8243
  187MOL0     H24664   4.403   5.658   8.270 -2.9583  0.5351  0.3334
  187MOL0     H24665   4.467   5.808   8.284 -1.2341  0.0901  0.8248
  187MOL0     H24666   5.306   6.304   8.486 -0.4136 -0.7263 -1.7130
  187MOL0     H24667   5.511   6.417   8.431  0.1173 -0.1996 -1.0588
  187MOL0     H24668   5.961   6.617   8.423 -2.6902  0.3061 -1.4484
  187MOL0     H24669   6.207   6.617   8.386  1.1614 -0.7644 -2.3432
  187MOL0     H24670   8.036   5.885   7.595 -1.8375  4.0220 -2.3744
  187MOL0     H24671   8.285   5.836   7.594  0.8673 -0.3211  0.3407
  187MOL0     H24672   8.693   5.859   7.712  1.9258 -0.8494 -0.7898
  187MOL0     H24673   8.938   5.849   7.693  0.4279 -0.6777  0.8269
  187MOL0     H24674   9.146   6.233   7.540  0.7311  0.4350  1.0515
  187MOL0     H24675   9.097   6.131   7.390  1.8818 -4.4534 -1.4576
  187MOL0     H24676   9.349   6.166   7.398  2.0104 -1.4493 -0.8503
  187MOL0     H24677   9.347   6.078   7.547 -0.1425  1.2210 -0.4557
  187MOL0     H24678   9.227   5.893   7.361 -1.3211  2.0566 -1.2532
  187MOL0     H24679   9.398   5.893   7.408 -0.3212 -1.3864 -1.4892
  187MOL0     H24680   9.246   6.055   7.198 -1.1839 -2.0176  2.1651
  187MOL0     H24681   9.421   6.076   7.220 -1.6977  1.8834 -2.9608
  187MOL0     H24682   9.382   5.732   6.987  1.5379 -0.8143  0.1387
  187MOL0     H24683   8.927   6.228   7.480 -4.1889  1.9773  0.3207
  187MOL0     H24684   8.694   6.238   7.494  0.8146 -1.6750 -3.1925
  188MOL0     O24685   0.825   2.737   5.509 -0.6230 -1.2325  0.1155
  188MOL0     C24686   0.844   2.857   5.470  0.3816  0.3214 -0.2530
  188MOL0     O24687   0.744   2.938   5.438  0.0195 -0.0020 -0.4910
  188MOL0     C24688   0.608   2.898   5.452 -0.2272 -0.9533 -0.3752
  188MOL0     C24689   0.520   2.935   5.352  0.3379 -0.1049  0.2215
  188MOL0     C24690   0.390   2.882   5.344 -0.6132 -0.5224  0.3264
  188MOL0     C24691   0.342   2.785   5.440  0.3746  0.2328  0.1049
  188MOL0     O24692   0.225   2.713   5.424  0.0205  0.0031  0.7702
  188MOL0     C24693   0.130   2.724   5.531 -0.8371 -0.2606  0.4237
  188MOL0     C24694  -0.008   2.677   5.488  0.3057 -0.4734  0.1955
  188MOL0     C24695  -0.101   2.669   5.615  0.1003 -0.5626 -0.6091
  188MOL0     C24696  -0.090   2.780   5.731 -0.9534  0.7607  0.4673
  188MOL0     C24697  -0.206   2.761   5.829  0.2834  0.2026  0.6225
  188MOL0     C24698  -0.191   2.657   5.938  0.2196 -0.9908  0.6180
  188MOL0     C24699  -0.325   2.644   6.026  0.1835  0.2724 -0.4758
  188MOL0     C24700  -0.295   2.591   6.168 -0.3137  0.4811 -0.3460
  188MOL0     N24701  -0.413   2.571   6.244  1.5822 -0.2788  0.8447
  188MOL0     C24702  -0.414   2.506   6.368 -0.0654 -0.3113  0.0195
  188MOL0     C24703  -0.537   2.516   6.415  0.4199 -0.1632  1.0427
  188MOL0     C24704  -0.584   2.479   6.546  0.4025  0.3079 -0.2613
  188MOL0     C24705  -0.729   2.434   6.550 -0.5267 -0.3415  0.2254
  188MOL0     C24706  -0.774   2.408   6.694  0.5686  0.2917  0.4665
  188MOL0     C24707  -0.925   2.424   6.707 -0.3701  0.1693 -0.5414
  188MOL0     O24708  -0.989   2.315   6.656 -0.1842  0.2836 -0.0602
  188MOL0     C24709  -1.130   2.307   6.664 -0.0717 -0.2458  0.4207
  188MOL0     C24710  -1.182   2.185   6.624 -0.4162  0.3884 -0.4077
  188MOL0     C24711  -1.322   2.165   6.623 -0.8488  1.6684  0.0290
  188MOL0     C24712  -1.406   2.264   6.664  0.7860  0.4532  0.7628
  188MOL0     C24713  -1.554   2.235   6.670  0.2666 -0.8689  0.4054
  188MOL0     O24714  -1.607   2.125   6.613 -0.6102 -0.1099  0.2937
  188MOL0     C24715  -1.740   2.078   6.624 -0.5790  0.4727 -0.6439
  188MOL0     C24716  -1.807   2.082   6.748  0.0163  0.0609  0.6064
  188MOL0     C24717  -1.934   2.017   6.765 -0.4667 -0.3085  0.0824
  188MOL0     C24718  -1.988   1.945   6.658  0.0781 -0.6760  0.1437
  188MOL0     O24719  -2.107   1.876   6.664 -0.0529  1.0993 -0.3632
  188MOL0     C24720  -2.199   1.937   6.752 -0.1205  0.1444  0.8819
  188MOL0     C24721  -2.339   1.880   6.710  0.0514 -0.0317  0.3726
  188MOL0     C24722  -2.437   1.934   6.807  0.2301 -0.5302  0.1202
  188MOL0     C24723  -2.581   1.895   6.759 -0.6183  0.4853  0.0456
  188MOL0     C24724  -2.669   1.961   6.864 -0.0744 -1.0265 -0.1877
  188MOL0     C24725  -2.808   1.896   6.855 -0.9681 -0.0218  0.6498
  188MOL0     C24726  -2.900   1.931   6.977 -0.6951  0.5335  0.6628
  188MOL0     C24727  -3.049   1.915   6.942 -0.6939  1.1600  0.2753
  188MOL0    Cl24728  -3.112   1.746   6.945  0.2649  0.2982  0.0266
  188MOL0     C24729  -1.924   1.950   6.528 -0.0053  0.2554 -0.4762
  188MOL0     C24730  -1.800   2.017   6.512  0.4540 -0.0290 -0.8818
  188MOL0     O24731  -1.620   2.327   6.728  0.4689 -0.1573 -0.4269
  188MOL0     C24732  -1.358   2.386   6.708 -0.2302 -0.4760  0.3908
  188MOL0     C24733  -1.214   2.413   6.703  0.3757  0.3824  0.0487
  188MOL0     N24734  -0.619   2.567   6.315  0.2456  0.5537  0.3233
  188MOL0     N24735  -0.550   2.605   6.209 -0.6552 -0.4592 -0.1421
  188MOL0     C24736   0.429   2.760   5.549  0.3219 -0.3979 -0.0755
  188MOL0     C24737   0.556   2.813   5.555 -0.6760 -0.5645 -0.5042
  188MOL0     C24738   0.980   2.912   5.467  0.3374  0.9322 -0.3231
  188MOL0     C24739   1.081   2.829   5.516  0.2193  0.2198  0.4667
  188MOL0     C24740   1.214   2.865   5.509  0.4180 -0.5281  0.8535
  188MOL0     C24741   1.244   2.986   5.456 -0.7340  0.6072  0.4676
  188MOL0     O24742   1.382   3.014   5.450  1.1720  0.1096  0.0199
  188MOL0     C24743   1.429   3.147   5.412 -0.5967  0.2265 -0.1010
  188MOL0     C24744   1.581   3.152   5.383 -0.0528 -0.2701 -0.2275
  188MOL0     C24745   1.668   3.096   5.494  0.3727 -0.6022 -0.5592
  188MOL0     C24746   1.819   3.105   5.469 -1.0315 -0.2199  0.3314
  188MOL0     C24747   1.892   3.113   5.591 -0.3873  0.1017 -0.3248
  188MOL0     C24748   1.953   3.122   5.695  0.6793  0.5128 -0.0819
  188MOL0     C24749   1.152   3.068   5.400  0.3738 -0.4175  0.1757
  188MOL0     C24750   1.013   3.031   5.407 -0.0119 -0.6702 -0.4164
  188MOL0     H24751   0.550   3.000   5.270 -0.7436  1.4883  1.0205
  188MOL0     H24752   0.329   2.897   5.255  0.4196 -1.3054 -0.5429
  188MOL0     H24753   0.114   2.829   5.554 -1.4671 -0.2321 -0.1355
  188MOL0     H24754   0.170   2.663   5.613  2.9346 -2.7673 -2.8948
  188MOL0     H24755  -0.020   2.584   5.433 -3.2979 -0.4431  0.7256
  188MOL0     H24756  -0.049   2.757   5.426 -2.2103 -1.1469  0.8900
  188MOL0     H24757  -0.072   2.571   5.654  1.0465 -1.2655 -2.9055
  188MOL0     H24758  -0.207   2.656   5.590 -0.0294 -0.8578  0.0639
  188MOL0     H24759   0.005   2.778   5.785 -0.1857 -2.5927 -0.7198
  188MOL0     H24760  -0.088   2.876   5.680  0.1878 -0.1339 -1.2722
  188MOL0     H24761  -0.287   2.732   5.762 -1.1601  1.9512  1.5343
  188MOL0     H24762  -0.242   2.857   5.866 -1.2361  1.4303 -3.4949
  188MOL0     H24763  -0.125   2.706   6.010 -0.9300 -0.2777  1.2160
  188MOL0     H24764  -0.153   2.564   5.896  2.5739 -1.3033  3.1480
  188MOL0     H24765  -0.375   2.741   6.017 -1.0667 -0.2482  0.5809
  188MOL0     H24766  -0.390   2.568   5.981  0.5614 -0.2371 -0.1651
  188MOL0     H24767  -0.224   2.654   6.222  0.0112 -2.2535  2.7350
  188MOL0     H24768  -0.249   2.492   6.159  1.6872  1.2872  0.4733
  188MOL0     H24769  -0.330   2.478   6.430  0.6211 -0.1561 -0.8165
  188MOL0     H24770  -0.561   2.566   6.608  3.7134 -0.6980  0.1397
  188MOL0     H24771  -0.534   2.392   6.590 -1.2603 -0.4877  0.1529
  188MOL0     H24772  -0.763   2.350   6.490  1.0191 -1.6017  1.0389
  188MOL0     H24773  -0.786   2.522   6.519  1.8749  0.8525 -1.1092
  188MOL0     H24774  -0.758   2.302   6.711  2.0561  0.4862  0.4043
  188MOL0     H24775  -0.717   2.466   6.767  1.0265 -2.1588  2.1767
  188MOL0     H24776  -0.962   2.517   6.664 -0.5758  0.9869  1.2924
  188MOL0     H24777  -0.956   2.428   6.812 -2.0771 -3.3703 -0.7877
  188MOL0     H24778  -1.103   2.117   6.591 -0.3972  1.4087 -2.6528
  188MOL0     H24779  -1.358   2.064   6.605  0.9789  0.7997  0.9269
  188MOL0     H24780  -1.755   2.123   6.834  2.0550  2.8278 -1.7422
  188MOL0     H24781  -1.986   2.019   6.860 -2.0885  1.2928 -0.7712
  188MOL0     H24782  -2.191   2.044   6.731 -1.8492 -0.1661 -1.8315
  188MOL0     H24783  -2.174   1.914   6.856 -2.0245 -1.1816  1.1094
  188MOL0     H24784  -2.317   1.773   6.712  1.7728  0.2600 -0.5705
  188MOL0     H24785  -2.358   1.911   6.607  2.5563  2.8062  0.6384
  188MOL0     H24786  -2.419   2.042   6.799  2.1061 -0.8497 -0.3817
  188MOL0     H24787  -2.408   1.912   6.910 -0.1067  0.7384  0.5036
  188MOL0     H24788  -2.602   1.934   6.659 -0.5172  1.5988  0.4416
  188MOL0     H24789  -2.589   1.786   6.760  0.1142  0.2123 -4.0340
  188MOL0     H24790  -2.663   2.069   6.851 -0.0601 -0.8986  0.7736
  188MOL0     H24791  -2.636   1.936   6.966 -0.1623 -0.3655  0.0078
  188MOL0     H24792  -2.790   1.788   6.849  2.1272  0.4824 -2.7375
  188MOL0     H24793  -2.857   1.928   6.763 -0.9462  2.7642  1.5135
  188MOL0     H24794  -2.880   1.863   7.060  1.2446  0.0937 -0.1166
  188MOL0     H24795  -2.883   2.037   7.002 -1.1758  0.8010 -0.1195
  188MOL0     H24796  -3.065   1.959   6.843  0.8077 -1.7826 -1.3887
  188MOL0     H24797  -3.110   1.977   7.009  1.2442 -1.9216  5.4477
  188MOL0     H24798  -1.965   1.885   6.452 -2.9207 -0.8915  1.8696
  188MOL0     H24799  -1.752   2.017   6.415  3.3755 -0.7131  0.4534
  188MOL0     H24800  -1.417   2.457   6.764  1.5183 -1.3970  3.6739
  188MOL0     H24801  -1.168   2.508   6.727 -0.3007  1.5765 -2.9629
  188MOL0     H24802   0.402   2.693   5.631  1.5317 -1.2320 -0.3362
  188MOL0     H24803   0.625   2.785   5.634  0.6352 -0.4701 -1.5875
  188MOL0     H24804   1.066   2.731   5.560  0.6375  0.4968  1.2429
  188MOL0     H24805   1.288   2.796   5.548 -0.0901 -1.2810  0.5037
  188MOL0     H24806   1.405   3.220   5.490 -1.3158  0.1770 -0.2690
  188MOL0     H24807   1.385   3.175   5.316 -0.3046 -1.0896 -0.6496
  188MOL0     H24808   1.597   3.098   5.289  0.2450 -3.1750  1.3611
  188MOL0     H24809   1.619   3.252   5.359  0.1326 -0.3555 -0.2940
  188MOL0     H24810   1.645   2.991   5.518 -1.3636  0.0740  0.9292
  188MOL0     H24811   1.628   3.146   5.582 -1.0735 -3.0039  0.2793
  188MOL0     H24812   1.854   3.016   5.415  1.8089 -0.2422  2.0010
  188MOL0     H24813   1.847   3.186   5.400  0.6969 -0.1520  1.0488
  188MOL0     H24814   1.999   3.130   5.792 -1.6707 -0.9792  1.2472
  188MOL0     H24815   1.172   3.169   5.368  4.0624 -1.8064 -2.6058
  188MOL0     H24816   0.933   3.089   5.362  1.0154  0.5914 -0.6699
  189MOL0     O24817   6.370   8.507   7.996  0.6091 -0.3678 -0.1468
  189MOL0     C24818   6.430   8.607   7.959 -0.5381 -0.5795 -0.3093
  189MOL0     O24819   6.398   8.689   7.848 -0.1816  0.4675  0.0861
  189MOL0     C24820   6.274   8.704   7.787 -0.1139  0.4136 -0.2652
  189MOL0     C24821   6.260   8.790   7.675  0.6303 -0.4678  0.0081
  189MOL0     C24822   6.134   8.810   7.611 -0.3091  0.8011  0.9675
  189MOL0     C24823   6.031   8.721   7.646 -0.5109  0.6938 -0.9095
  189MOL0     O24824   5.913   8.714   7.575  0.2392  0.2267 -0.5465
  189MOL0     C24825   5.921   8.762   7.435  0.4827  0.3604 -0.6445
  189MOL0     C24826   5.801   8.721   7.353  0.7815 -0.2106 -0.6465
  189MOL0     C24827   5.670   8.790   7.391  0.0528 -0.2076  0.3252
  189MOL0     C24828   5.547   8.733   7.327  0.0359 -1.0052  0.1787
  189MOL0     C24829   5.419   8.788   7.388 -0.1447  0.1945 -0.5436
  189MOL0     C24830   5.289   8.742   7.321 -0.7618  0.3363  0.3569
  189MOL0     C24831   5.166   8.802   7.393  0.0073 -0.1490 -0.2658
  189MOL0     C24832   5.027   8.762   7.336  1.0530  0.6380  0.1033
  189MOL0     N24833   4.912   8.785   7.418 -0.0101 -0.3191 -0.5117
  189MOL0     C24834   4.875   8.694   7.517  0.7506 -0.0154 -0.6296
  189MOL0     C24835   4.762   8.744   7.572 -0.2761 -0.0964 -0.1378
  189MOL0     C24836   4.675   8.678   7.677  0.4536  0.1504  1.3441
  189MOL0     C24837   4.589   8.557   7.626  0.4695  1.1063  0.9354
  189MOL0     C24838   4.516   8.487   7.747  0.3860  0.0135  1.1695
  189MOL0     C24839   4.410   8.581   7.805 -0.1896 -0.3251  0.1063
  189MOL0     O24840   4.290   8.513   7.865 -0.1080  0.7529  0.1695
  189MOL0     C24841   4.181   8.582   7.903 -0.0947  0.6897 -0.1203
  189MOL0     C24842   4.179   8.720   7.905 -0.5482  0.1678 -0.1471
  189MOL0     C24843   4.073   8.789   7.965 -0.4445  1.0800  0.6582
  189MOL0     C24844   3.959   8.721   8.009 -0.2434 -0.2347 -0.8426
  189MOL0     C24845   3.846   8.796   8.053  0.6840  0.9571 -0.1230
  189MOL0     O24846   3.840   8.932   8.035 -0.9136  0.4586  0.0514
  189MOL0     C24847   3.739   9.002   8.080 -0.1534  0.1789 -0.0345
  189MOL0     C24848   3.741   9.054   8.211  0.4028  0.2593  0.2798
  189MOL0     C24849   3.653   9.155   8.250 -0.1068  0.0232 -0.2457
  189MOL0     C24850   3.540   9.187   8.159  1.1647 -0.4718  0.5589
  189MOL0     O24851   3.462   9.297   8.171 -0.2657  0.5818  0.8443
  189MOL0     C24852   3.466   9.379   8.283  0.1245  0.5977  0.8437
  189MOL0     C24853   3.432   9.527   8.257  1.2905  0.3634  1.0875
  189MOL0     C24854   3.287   9.531   8.206  0.3715 -0.3385  0.1187
  189MOL0     C24855   3.245   9.679   8.182  0.5325 -0.8568  0.2096
  189MOL0     C24856   3.096   9.684   8.171  0.1801  0.0644 -0.6424
  189MOL0     C24857   3.054   9.819   8.128 -0.5618  0.0857 -0.4995
  189MOL0     C24858   2.903   9.833   8.138  0.5496  0.3030  0.0249
  189MOL0     C24859   2.873   9.967   8.080 -1.2123  0.0440  0.4772
  189MOL0    Cl24860   2.710  10.010   8.137  0.0927 -0.2704  0.0068
  189MOL0     C24861   3.526   9.114   8.040 -0.3462  0.7571  0.9659
  189MOL0     C24862   3.634   9.037   7.994  0.8443  0.3598  1.0615
  189MOL0     O24863   3.763   8.732   8.120 -0.3514 -0.1097 -0.6931
  189MOL0     C24864   3.955   8.585   7.993  0.7921  0.6894 -0.9353
  189MOL0     C24865   4.068   8.510   7.948 -0.4017 -0.4164  0.6193
  189MOL0     N24866   4.720   8.853   7.494 -0.1668 -0.6117 -0.6572
  189MOL0     N24867   4.814   8.878   7.403  0.1529 -0.1131  0.0649
  189MOL0     C24868   6.041   8.644   7.757  0.7167 -0.1035 -0.7967
  189MOL0     C24869   6.161   8.641   7.830  0.5349  0.2960 -0.0024
  189MOL0     C24870   6.548   8.640   8.047 -0.6316  0.0576  0.8259
  189MOL0     C24871   6.628   8.748   8.015 -0.7503  0.1106 -0.5465
  189MOL0     C24872   6.736   8.781   8.096 -0.1517 -0.1741  0.3247
  189MOL0     C24873   6.778   8.695   8.198 -0.2747  0.3142 -0.5366
  189MOL0     O24874   6.883   8.733   8.285  0.3335  0.0580  0.2297
  189MOL0     C24875   6.974   8.636   8.339  0.6767 -0.0089  0.6866
  189MOL0     C24876   7.095   8.693   8.403 -0.0228  0.5981 -0.8938
  189MOL0     C24877   7.157   8.828   8.348  0.4979 -0.0081  1.0444
  189MOL0     C24878   7.219   8.825   8.206  0.5066  1.6966  0.1423
  189MOL0     C24879   7.303   8.703   8.191 -0.4802  0.5715  0.1123
  189MOL0     C24880   7.386   8.614   8.182  0.6722 -0.5674 -0.8164
  189MOL0     C24881   6.699   8.580   8.225  0.2778 -0.4819  0.0397
  189MOL0     C24882   6.580   8.557   8.160 -0.0440  1.0338 -0.1281
  189MOL0     H24883   6.358   8.832   7.652  1.4331 -2.3801 -0.2234
  189MOL0     H24884   6.128   8.868   7.519  1.4773 -2.5128 -1.4551
  189MOL0     H24885   6.001   8.716   7.375  0.4830 -0.1477 -0.2630
  189MOL0     H24886   5.928   8.871   7.426 -1.1402  0.9019  2.9130
  189MOL0     H24887   5.788   8.612   7.363  2.8985 -0.3293  1.9217
  189MOL0     H24888   5.818   8.740   7.247 -0.3278  2.1484 -0.4685
  189MOL0     H24889   5.666   8.892   7.351  0.0972 -0.2188  0.2912
  189MOL0     H24890   5.658   8.787   7.499  2.1551  0.8579  0.6539
  189MOL0     H24891   5.540   8.755   7.220  0.1370 -0.3921  0.2959
  189MOL0     H24892   5.553   8.626   7.350 -0.5527 -0.6669  1.9929
  189MOL0     H24893   5.413   8.898   7.384 -0.1008  0.2135 -0.0501
  189MOL0     H24894   5.420   8.757   7.492  1.2928  0.8383 -0.3483
  189MOL0     H24895   5.277   8.633   7.326 -0.4542  0.0172 -3.0654
  189MOL0     H24896   5.282   8.763   7.214 -2.2954 -3.1444 -0.3725
  189MOL0     H24897   5.169   8.798   7.503 -2.0181  1.5813 -0.0837
  189MOL0     H24898   5.173   8.909   7.372 -0.2144 -0.1277 -0.2293
  189MOL0     H24899   5.034   8.653   7.322 -2.0295  0.6689 -3.2732
  189MOL0     H24900   5.008   8.803   7.236  2.3469  1.0531  0.0079
  189MOL0     H24901   4.936   8.612   7.552 -1.6456 -2.0420 -0.9325
  189MOL0     H24902   4.596   8.744   7.713 -0.5746 -1.6104  2.4511
  189MOL0     H24903   4.728   8.650   7.768 -2.5236  1.3765  3.5979
  189MOL0     H24904   4.650   8.482   7.574 -2.5061 -0.8918  0.1148
  189MOL0     H24905   4.516   8.580   7.548 -0.2914 -4.7207 -0.4776
  189MOL0     H24906   4.479   8.389   7.717 -0.1761 -0.8930  4.4259
  189MOL0     H24907   4.595   8.458   7.817 -0.1007  1.0587  2.1779
  189MOL0     H24908   4.376   8.647   7.725 -0.7576  1.1683  1.5190
  189MOL0     H24909   4.461   8.640   7.882  0.4538 -2.2818  1.2575
  189MOL0     H24910   4.256   8.775   7.852  1.6087 -1.5499  1.0588
  189MOL0     H24911   4.072   8.897   7.956  0.4696  1.2042  1.7152
  189MOL0     H24912   3.812   9.012   8.282  0.3697 -3.1368 -1.5171
  189MOL0     H24913   3.668   9.198   8.348 -1.6651 -2.3429  1.1419
  189MOL0     H24914   3.568   9.383   8.323  0.0001  1.1593  1.1161
  189MOL0     H24915   3.407   9.344   8.368 -2.0055  1.6262 -0.1520
  189MOL0     H24916   3.492   9.562   8.173 -0.8978  0.5704 -0.4754
  189MOL0     H24917   3.445   9.589   8.346  0.1085 -0.6120  1.9835
  189MOL0     H24918   3.229   9.479   8.283 -1.6533 -1.4928 -2.0603
  189MOL0     H24919   3.274   9.472   8.115 -2.4760 -0.1294  0.3032
  189MOL0     H24920   3.283   9.749   8.258 -1.6724 -0.2241  0.8191
  189MOL0     H24921   3.294   9.712   8.090 -0.8047 -0.9693 -0.5692
  189MOL0     H24922   3.057   9.673   8.273 -0.5023  3.6678 -0.4108
  189MOL0     H24923   3.056   9.601   8.112 -1.4281 -0.2830  0.8384
  189MOL0     H24924   3.094   9.837   8.028 -1.4196 -2.1890 -1.3069
  189MOL0     H24925   3.092   9.897   8.196 -1.2015 -0.8385  0.9653
  189MOL0     H24926   2.852   9.758   8.077 -0.2796  1.3657 -0.6183
  189MOL0     H24927   2.882   9.815   8.244 -0.0498 -0.9639 -0.2810
  189MOL0     H24928   2.871   9.961   7.971  0.7693 -0.8157  0.4486
  189MOL0     H24929   2.947  10.043   8.105  0.1214 -1.3953  1.1054
  189MOL0     H24930   3.443   9.132   7.972 -0.7165 -1.3057  0.8049
  189MOL0     H24931   3.631   8.996   7.893  0.4407 -0.4051  1.3791
  189MOL0     H24932   3.874   8.526   8.034  0.5456  0.9515 -1.0495
  189MOL0     H24933   4.053   8.404   7.932 -0.1337 -0.6342  1.7198
  189MOL0     H24934   5.953   8.595   7.797  0.1400  1.2233 -0.3595
  189MOL0     H24935   6.173   8.573   7.914  0.0922 -0.5063 -0.5682
  189MOL0     H24936   6.591   8.809   7.933  0.8123  1.9281  0.0321
  189MOL0     H24937   6.794   8.870   8.075 -1.4886  0.8537  0.8227
  189MOL0     H24938   7.007   8.574   8.255  2.9586  0.6104  1.0477
  189MOL0     H24939   6.915   8.574   8.408 -0.7572 -0.8112 -1.1843
  189MOL0     H24940   7.066   8.732   8.500 -0.6914 -1.1205 -0.3665
  189MOL0     H24941   7.171   8.615   8.417  1.5092  1.2239 -4.4454
  189MOL0     H24942   7.231   8.875   8.414 -0.9337  2.9967  0.6947
  189MOL0     H24943   7.088   8.913   8.360  0.4347 -0.2529  2.7128
  189MOL0     H24944   7.137   8.825   8.133 -0.9281 -2.2228  1.5135
  189MOL0     H24945   7.276   8.918   8.194  1.9481  0.8034 -0.0967
  189MOL0     H24946   7.454   8.531   8.184  1.5589  0.1330  1.6152
  189MOL0     H24947   6.719   8.528   8.318  2.9707  0.4551  0.0667
  189MOL0     H24948   6.516   8.479   8.200 -0.2952  1.3503  0.0915
  190MOL0     O24949   2.198   8.287   6.693 -0.4350  0.7263  0.0014
  190MOL0     C24950   2.270   8.191   6.732  0.3999  0.2375  0.7624
  190MOL0     O24951   2.233   8.064   6.731  0.5234 -0.2253 -0.2617
  190MOL0     C24952   2.108   8.022   6.685 -0.6028 -0.6421 -0.4071
  190MOL0     C24953   1.991   8.099   6.674  0.2901 -0.3846 -0.0013
  190MOL0     C24954   1.873   8.036   6.616 -0.9263 -0.3881  0.6351
  190MOL0     C24955   1.874   7.902   6.585 -0.4047 -0.5295 -0.5146
  190MOL0     O24956   1.764   7.831   6.562  0.2735 -0.0625  0.2360
  190MOL0     C24957   1.667   7.858   6.461 -0.0113  0.6295 -1.1258
  190MOL0     C24958   1.535   7.787   6.494 -0.1680 -0.1800 -0.1024
  190MOL0     C24959   1.449   7.769   6.365 -0.2354  0.4371 -0.2618
  190MOL0     C24960   1.384   7.897   6.320 -0.5969 -0.8928  0.2345
  190MOL0     C24961   1.327   7.874   6.179  0.0352  0.1052  0.7527
  190MOL0     C24962   1.433   7.886   6.068 -0.4862  0.5097  0.2131
  190MOL0     C24963   1.363   7.883   5.931  0.0594  0.2051 -0.9342
  190MOL0     C24964   1.456   7.868   5.806  0.2538  0.4311 -0.1741
  190MOL0     N24965   1.553   7.979   5.786  0.1343 -0.4413  0.2044
  190MOL0     C24966   1.666   8.002   5.856  0.0862 -0.0704 -0.3307
  190MOL0     C24967   1.720   8.110   5.802 -0.0540  0.4071 -0.2352
  190MOL0     C24968   1.844   8.187   5.844 -0.6946 -0.1155  0.4042
  190MOL0     C24969   1.806   8.328   5.877  0.6422  0.4288  0.0358
  190MOL0     C24970   1.909   8.423   5.833  0.3569 -0.6009 -0.0790
  190MOL0     C24971   2.057   8.390   5.870  0.3534  0.2937 -0.0731
  190MOL0     O24972   2.120   8.514   5.869 -0.2925  0.0921  0.2889
  190MOL0     C24973   2.255   8.497   5.877  0.6273  0.0071  0.1402
  190MOL0     C24974   2.313   8.478   6.002 -0.3905  0.3930 -0.2957
  190MOL0     C24975   2.452   8.449   6.009  0.2218 -0.9598  0.6177
  190MOL0     C24976   2.530   8.434   5.890  0.2794 -0.7347 -1.0647
  190MOL0     C24977   2.673   8.397   5.894 -0.0343  0.7948  0.3888
  190MOL0     O24978   2.732   8.390   5.766  0.5753  0.5103  0.0421
  190MOL0     C24979   2.868   8.355   5.774  0.4982 -1.3824 -0.1396
  190MOL0     C24980   2.963   8.458   5.791 -0.5591  0.0368  0.1269
  190MOL0     C24981   3.101   8.428   5.784  0.2785  0.4139 -0.4613
  190MOL0     C24982   3.145   8.296   5.789 -0.2130  0.3943  0.3359
  190MOL0     O24983   3.273   8.245   5.777 -0.1533 -0.7222 -0.1465
  190MOL0     C24984   3.369   8.333   5.829 -0.0755 -0.6107  0.5347
  190MOL0     C24985   3.481   8.227   5.828 -0.7622  0.2721 -0.4429
  190MOL0     C24986   3.454   8.115   5.937 -0.2744  0.3134  0.8629
  190MOL0     C24987   3.576   8.028   5.930  0.3283  0.8275  0.3532
  190MOL0     C24988   3.578   7.934   5.815  0.2136  0.0856  0.2586
  190MOL0     C24989   3.705   7.872   5.774 -0.0380  0.2475 -1.6551
  190MOL0     C24990   3.781   7.966   5.681 -0.0546  0.2416 -0.2482
  190MOL0     C24991   3.858   7.884   5.574  0.5904 -0.2002  0.5801
  190MOL0    Cl24992   3.752   7.811   5.449 -0.2217  0.5811  0.1678
  190MOL0     C24993   3.045   8.191   5.781 -0.9738 -1.1718 -0.8258
  190MOL0     C24994   2.908   8.226   5.781 -0.1232  0.9592 -0.6816
  190MOL0     O24995   2.730   8.378   5.996 -0.3191  0.1557 -0.0391
  190MOL0     C24996   2.478   8.465   5.765  0.5881  0.0254  0.8139
  190MOL0     C24997   2.334   8.498   5.765 -1.0035  0.4311  0.5673
  190MOL0     N24998   1.644   8.147   5.696 -0.7434 -0.0944 -0.5196
  190MOL0     N24999   1.543   8.075   5.692 -0.5681 -0.2716 -0.6877
  190MOL0     C25000   1.993   7.835   6.598  0.3571 -0.0495  0.0658
  190MOL0     C25001   2.106   7.889   6.651 -0.2882  0.8785 -0.3622
  190MOL0     C25002   2.402   8.226   6.787  0.7032 -0.7168 -0.3466
  190MOL0     C25003   2.456   8.357   6.791  0.2633  0.3863  0.4014
  190MOL0     C25004   2.585   8.368   6.827  0.0536  0.8764  0.0292
  190MOL0     C25005   2.661   8.265   6.874  0.5722  0.5530  0.0739
  190MOL0     O25006   2.788   8.294   6.900  0.1278  0.0553  0.4922
  190MOL0     C25007   2.884   8.183   6.894  0.9412  0.9593  0.0142
  190MOL0     C25008   3.020   8.247   6.926  0.2670  0.1539 -0.2097
  190MOL0     C25009   3.034   8.272   7.076  0.2193 -0.5944 -0.2277
  190MOL0     C25010   3.146   8.365   7.102  0.2693 -0.3207 -1.1141
  190MOL0     C25011   3.242   8.312   7.201 -0.6512  0.2950  0.7902
  190MOL0     C25012   3.329   8.274   7.283 -0.3505 -0.1589  0.2829
  190MOL0     C25013   2.607   8.135   6.868 -0.2854 -0.5321  0.9336
  190MOL0     C25014   2.478   8.120   6.833  0.0041  0.3218 -0.0457
  190MOL0     H25015   1.987   8.198   6.720 -1.9241 -1.8946  3.4846
  190MOL0     H25016   1.780   8.089   6.599 -1.4588 -1.9829 -2.1571
  190MOL0     H25017   1.697   7.810   6.367 -4.0940 -4.8647 -0.1111
  190MOL0     H25018   1.646   7.963   6.440 -3.1280  0.1365 -0.9741
  190MOL0     H25019   1.469   7.850   6.555  0.4990 -0.7792  1.2808
  190MOL0     H25020   1.558   7.700   6.556  0.7223 -0.6706 -1.1070
  190MOL0     H25021   1.371   7.698   6.392 -1.1202  1.6188  0.3824
  190MOL0     H25022   1.512   7.723   6.287 -0.6951  0.3618 -0.5944
  190MOL0     H25023   1.298   7.917   6.384 -0.2989 -0.5949  0.5490
  190MOL0     H25024   1.449   7.985   6.314  2.3835 -2.9516  0.4284
  190MOL0     H25025   1.254   7.951   6.152 -1.7269 -1.5789  0.4895
  190MOL0     H25026   1.273   7.780   6.167  2.0187 -0.8065 -2.1497
  190MOL0     H25027   1.508   7.807   6.079  1.5542  2.3104 -0.1388
  190MOL0     H25028   1.497   7.975   6.074  2.4130 -1.2195 -2.2564
  190MOL0     H25029   1.294   7.799   5.934  0.9221 -0.4933  0.4106
  190MOL0     H25030   1.313   7.980   5.924  0.9582  0.7144 -0.5070
  190MOL0     H25031   1.393   7.868   5.716  1.8078  1.5192 -1.3187
  190MOL0     H25032   1.513   7.775   5.815  0.0556  0.3348  0.1242
  190MOL0     H25033   1.701   7.952   5.945 -2.2638 -1.2703 -0.0272
  190MOL0     H25034   1.910   8.168   5.759 -1.9433  0.4460 -0.7290
  190MOL0     H25035   1.897   8.148   5.931  1.4417  1.2746 -0.2106
  190MOL0     H25036   1.788   8.333   5.985 -2.9667 -2.8060 -0.1888
  190MOL0     H25037   1.707   8.360   5.841  1.3017  1.9462 -0.5319
  190MOL0     H25038   1.898   8.431   5.724  1.4419  0.2764 -0.1443
  190MOL0     H25039   1.886   8.520   5.876 -0.8960 -1.1450  0.5229
  190MOL0     H25040   2.090   8.328   5.786 -1.8680  1.2779 -1.7939
  190MOL0     H25041   2.060   8.342   5.968  2.6092  2.5787  1.0927
  190MOL0     H25042   2.251   8.487   6.091  0.2799  1.1068  0.1221
  190MOL0     H25043   2.499   8.442   6.107 -1.6929 -1.1330  1.5750
  190MOL0     H25044   2.924   8.560   5.793 -0.6259  0.0189 -0.2039
  190MOL0     H25045   3.171   8.511   5.780  0.2276  0.4604 -0.3877
  190MOL0     H25046   3.347   8.363   5.932  1.0963 -0.2780  0.6979
  190MOL0     H25047   3.396   8.412   5.759 -0.8517 -1.5166 -0.8211
  190MOL0     H25048   3.582   8.265   5.847 -0.8893  0.6680 -0.5467
  190MOL0     H25049   3.502   8.184   5.730  2.8856 -0.6000  0.5703
  190MOL0     H25050   3.363   8.064   5.907 -1.8274  3.3173  0.0552
  190MOL0     H25051   3.439   8.170   6.031  1.7119  1.9293  0.3246
  190MOL0     H25052   3.671   8.083   5.935  1.6284 -1.2465 -0.4534
  190MOL0     H25053   3.577   7.962   6.017  5.8942  2.0159  1.6077
  190MOL0     H25054   3.526   7.971   5.726  0.6434 -1.8181 -0.8634
  190MOL0     H25055   3.510   7.852   5.841  3.3650 -2.2336  1.7970
  190MOL0     H25056   3.675   7.778   5.727  2.6193 -0.4413 -2.1693
  190MOL0     H25057   3.762   7.839   5.862 -2.7316 -0.9549 -0.2176
  190MOL0     H25058   3.703   8.021   5.625 -0.7970  0.1008  0.6288
  190MOL0     H25059   3.848   8.040   5.724  2.5189 -0.5381 -2.6371
  190MOL0     H25060   3.921   7.804   5.614  0.0643 -1.6034 -1.2613
  190MOL0     H25061   3.928   7.949   5.520  0.9834 -0.3622  0.8853
  190MOL0     H25062   3.078   8.089   5.762 -0.3845 -1.3820  1.1555
  190MOL0     H25063   2.834   8.147   5.782 -0.8493  1.6203  1.6519
  190MOL0     H25064   2.530   8.445   5.672  0.9751 -2.2136  1.4499
  190MOL0     H25065   2.286   8.523   5.671 -2.2259  0.4687  1.1694
  190MOL0     H25066   1.981   7.729   6.577  0.7057 -0.0589 -0.1047
  190MOL0     H25067   2.191   7.823   6.668 -1.2564 -0.4265 -0.4371
  190MOL0     H25068   2.401   8.442   6.754 -1.5579  0.3521  2.7688
  190MOL0     H25069   2.614   8.470   6.850 -0.5117  0.7243  1.5508
  190MOL0     H25070   2.881   8.142   6.792  0.5765 -0.6332  0.6296
  190MOL0     H25071   2.858   8.102   6.963 -2.1946  2.6440  0.9940
  190MOL0     H25072   3.104   8.178   6.913 -0.1820 -0.8790  1.9524
  190MOL0     H25073   3.047   8.338   6.871  2.6020 -0.3681 -0.0261
  190MOL0     H25074   3.043   8.179   7.134  0.8728 -1.5801 -1.8561
  190MOL0     H25075   2.946   8.322   7.119  0.6316  0.9808 -1.1169
  190MOL0     H25076   3.209   8.388   7.015 -0.2995  0.4438 -1.3351
  190MOL0     H25077   3.109   8.463   7.132 -0.8642 -0.8290 -0.8345
  190MOL0     H25078   3.393   8.253   7.366  2.7396  3.1684 -0.9852
  190MOL0     H25079   2.657   8.048   6.910 -1.1879  0.0100  3.2520
  190MOL0     H25080   2.437   8.021   6.848  3.2402 -0.7990  2.6371
  191MOL0     O25081   3.804  10.516   0.448  0.1984  0.3130  0.1369
  191MOL0     C25082   3.723  10.432   0.395 -1.0524  0.4372  0.6425
  191MOL0     O25083   3.586  10.437   0.396 -0.2628  0.8467 -0.3066
  191MOL0     C25084   3.526  10.539   0.465 -0.1073 -0.1457 -0.1968
  191MOL0     C25085   3.422  10.506   0.556 -0.2084  0.6130  0.6330
  191MOL0     C25086   3.344  10.610   0.612  0.3183 -0.0421 -0.6549
  191MOL0     C25087   3.372  10.742   0.589  0.5623 -0.0726 -0.4965
  191MOL0     O25088   3.293  10.838   0.649  0.2263 -0.2586 -0.1492
  191MOL0     C25089   3.294  10.970   0.593  0.1937  0.0368 -0.3657
  191MOL0     C25090   3.185  11.056   0.664 -1.0410 -0.2814 -0.1819
  191MOL0     C25091   3.055  11.029   0.592 -0.0684  0.1763  0.9034
  191MOL0     C25092   2.937  11.095   0.672  0.1138  0.8551  0.4639
  191MOL0     C25093   2.793  11.061   0.621 -0.1984 -0.4295 -0.0359
  191MOL0     C25094   2.759  11.092   0.470 -0.2516 -0.3660  0.0444
  191MOL0     C25095   2.620  11.066   0.423  0.0707 -0.2862  0.2452
  191MOL0     C25096   2.534  11.188   0.464  0.5419  1.0809  0.8226
  191MOL0     N25097   2.393  11.155   0.450  0.3544  0.1556  0.0396
  191MOL0     C25098   2.331  11.193   0.343  0.2427 -0.5358 -0.0319
  191MOL0     C25099   2.209  11.132   0.347 -0.0955 -0.0813 -0.4109
  191MOL0     C25100   2.113  11.142   0.231 -0.3760  0.4155  0.3427
  191MOL0     C25101   2.151  11.033   0.117  0.2074 -0.2627  0.2234
  191MOL0     C25102   2.036  11.009   0.018  0.7306  0.3109  0.3364
  191MOL0     C25103   2.009  11.121  -0.077 -0.3174  0.4879  0.6358
  191MOL0     O25104   1.979  11.248  -0.026  0.8065  0.2750 -0.3255
  191MOL0     C25105   1.854  11.280   0.019 -0.1386 -0.1018  0.1637
  191MOL0     C25106   1.824  11.415   0.021  0.0395  0.0261 -1.0895
  191MOL0     C25107   1.700  11.463   0.034 -0.5310  0.2722 -1.0174
  191MOL0     C25108   1.586  11.364   0.041  0.6767 -0.4776  0.5610
  191MOL0     C25109   1.446  11.408   0.051  0.2809 -0.3400  0.6999
  191MOL0     O25110   1.409  11.509  -0.037  0.4260 -0.0174  0.1957
  191MOL0     C25111   1.279  11.538  -0.059  0.8750  0.4984 -0.4621
  191MOL0     C25112   1.213  11.641   0.014  0.8587  0.1916  0.2237
  191MOL0     C25113   1.069  11.656   0.005  0.1100 -0.4638  0.2087
  191MOL0     C25114   0.997  11.576  -0.076 -0.3557  0.1328 -0.0023
  191MOL0     O25115   0.862  11.592  -0.095 -0.3035  1.0368  0.7170
  191MOL0     C25116   0.817  11.723  -0.144 -0.5014 -0.0639 -1.0143
  191MOL0     C25117   0.694  11.783  -0.066 -0.7180  0.7366  0.3420
  191MOL0     C25118   0.709  11.797   0.089  1.1979  0.2175  0.3248
  191MOL0     C25119   0.571  11.816   0.139 -0.1953  0.6249 -0.6045
  191MOL0     C25120   0.574  11.852   0.285 -0.1783  0.6052  0.1139
  191MOL0     C25121   0.425  11.844   0.337 -0.6280 -0.3707  0.0146
  191MOL0     C25122   0.421  11.837   0.496  0.2807 -0.5182 -0.3700
  191MOL0     C25123   0.526  11.919   0.577  0.3816 -0.5043  0.4038
  191MOL0    Cl25124   0.487  12.085   0.527  0.2536 -0.0077 -0.0314
  191MOL0     C25125   1.063  11.482  -0.157  0.7497  0.0086 -0.1799
  191MOL0     C25126   1.197  11.461  -0.143  0.2246  0.7556  0.3415
  191MOL0     O25127   1.372  11.353   0.130 -0.4139  0.3619  0.4113
  191MOL0     C25128   1.618  11.222   0.033  1.0726 -0.6607  0.5731
  191MOL0     C25129   1.749  11.192   0.025  0.0403  0.6727  0.0042
  191MOL0     N25130   2.199  11.072   0.473 -0.7307  0.2563  0.3411
  191MOL0     N25131   2.316  11.078   0.525 -0.4789 -1.1325 -0.0516
  191MOL0     C25132   3.474  10.777   0.496  0.2625  0.1601  0.3802
  191MOL0     C25133   3.545  10.669   0.437 -0.1893  0.2769  0.4698
  191MOL0     C25134   3.775  10.319   0.317  1.1224 -0.8048  0.8281
  191MOL0     C25135   3.895  10.270   0.349 -0.5205 -0.6744 -0.3017
  191MOL0     C25136   3.952  10.160   0.276  0.0715 -0.6135  0.3388
  191MOL0     C25137   3.868  10.093   0.182 -0.1842  0.5489 -0.1916
  191MOL0     O25138   3.901   9.980   0.104  0.2307 -0.8057  0.2428
  191MOL0     C25139   4.040   9.944   0.083 -0.4617 -0.8051  0.2677
  191MOL0     C25140   4.060   9.891  -0.056  0.5168  0.2200 -0.5812
  191MOL0     C25141   4.135   9.761  -0.068  0.2772  0.2321 -0.5450
  191MOL0     C25142   4.269   9.756  -0.006  0.3927  0.0789 -0.0615
  191MOL0     C25143   4.352   9.638  -0.032 -0.3662 -0.3770 -0.0049
  191MOL0     C25144   4.417   9.544  -0.062  0.4629  0.0107  0.0297
  191MOL0     C25145   3.745  10.141   0.166  0.2039  0.6340  0.3982
  191MOL0     C25146   3.686  10.251   0.229  0.6456  0.3409  0.2908
  191MOL0     H25147   3.409  10.404   0.590 -1.9440  1.3145  2.2369
  191MOL0     H25148   3.268  10.602   0.689  1.7217  0.6793  0.8850
  191MOL0     H25149   3.278  10.974   0.484  1.3913  1.0575 -0.5248
  191MOL0     H25150   3.389  11.018   0.616 -0.8731  0.8666  2.7141
  191MOL0     H25151   3.208  11.162   0.660  0.8385 -0.6431  0.0492
  191MOL0     H25152   3.176  11.025   0.769  1.9799  0.0627  0.2707
  191MOL0     H25153   3.027  10.924   0.582  1.2747 -0.1211  0.0505
  191MOL0     H25154   3.071  11.067   0.490  1.0426  2.5410  1.8874
  191MOL0     H25155   2.942  11.056   0.774 -5.0057  0.3117  0.8004
  191MOL0     H25156   2.949  11.204   0.673 -0.0836  0.8901  1.9257
  191MOL0     H25157   2.721  11.112   0.685 -0.3366 -1.2731  0.4941
  191MOL0     H25158   2.774  10.955   0.638 -2.0015  0.0862  1.5166
  191MOL0     H25159   2.827  11.032   0.409 -1.9201 -0.6217 -1.6576
  191MOL0     H25160   2.776  11.198   0.448 -0.3022 -0.6382 -1.3526
  191MOL0     H25161   2.634  11.068   0.315 -0.0633  0.6977  0.2389
  191MOL0     H25162   2.586  10.966   0.453 -3.3343  0.4787 -0.6068
  191MOL0     H25163   2.552  11.261   0.384  2.1981 -2.1592 -1.9895
  191MOL0     H25164   2.565  11.227   0.561  2.6410 -0.1897  0.7074
  191MOL0     H25165   2.371  11.248   0.259 -0.9545  1.0518  0.4040
  191MOL0     H25166   2.110  11.241   0.184 -1.5646  0.1745 -0.1329
  191MOL0     H25167   2.019  11.115   0.280  0.3504  0.0041  1.5437
  191MOL0     H25168   2.179  10.935   0.157  0.6455  0.9739  3.2415
  191MOL0     H25169   2.234  11.066   0.053 -0.2954 -0.2310 -0.4208
  191MOL0     H25170   2.061  10.924  -0.046 -1.3497  0.5154 -0.8692
  191MOL0     H25171   1.946  10.980   0.073  0.9057 -0.1780  0.3657
  191MOL0     H25172   1.928  11.091  -0.145 -0.4089 -0.2785  1.0776
  191MOL0     H25173   2.099  11.137  -0.136 -0.5396  0.1385  0.1961
  191MOL0     H25174   1.907  11.486   0.020 -0.6746  0.8889 -0.7950
  191MOL0     H25175   1.674  11.568   0.035 -2.7192 -0.1680  1.9364
  191MOL0     H25176   1.256  11.693   0.099 -2.6451 -0.9253  2.9377
  191MOL0     H25177   1.035  11.741   0.062  0.5460  1.4810 -2.2188
  191MOL0     H25178   0.785  11.707  -0.247  1.8504  1.1712 -2.0363
  191MOL0     H25179   0.898  11.797  -0.139 -0.6594  0.0263  2.5130
  191MOL0     H25180   0.607  11.725  -0.096  0.8633 -0.8448 -1.4287
  191MOL0     H25181   0.672  11.884  -0.102 -3.1071 -0.4267 -1.6853
  191MOL0     H25182   0.762  11.887   0.121 -2.3326  1.5830  3.0474
  191MOL0     H25183   0.743  11.713   0.149 -1.7795 -1.2976  0.0835
  191MOL0     H25184   0.521  11.899   0.087 -2.0973 -0.8026 -1.2086
  191MOL0     H25185   0.511  11.725   0.128  0.9409 -0.0716 -1.2360
  191MOL0     H25186   0.621  11.948   0.308  2.4350 -0.7648  0.8678
  191MOL0     H25187   0.632  11.776   0.339 -0.6569  0.1248 -0.0341
  191MOL0     H25188   0.373  11.757   0.297 -0.8323 -0.8235  1.2231
  191MOL0     H25189   0.367  11.932   0.306  0.1776 -0.5320 -2.1381
  191MOL0     H25190   0.322  11.869   0.531 -0.2567  0.8057 -2.8512
  191MOL0     H25191   0.430  11.732   0.526 -4.8864 -1.1308  0.0930
  191MOL0     H25192   0.630  11.898   0.553  0.5123  1.7491 -1.3198
  191MOL0     H25193   0.515  11.908   0.685  0.8385 -0.8993  0.4149
  191MOL0     H25194   1.000  11.413  -0.213  1.8963 -1.8791  0.7751
  191MOL0     H25195   1.248  11.383  -0.198 -2.0157 -1.2680  0.9818
  191MOL0     H25196   1.537  11.150   0.035 -0.0176  0.4829 -0.5918
  191MOL0     H25197   1.766  11.085   0.020  1.7768  0.6949  2.9751
  191MOL0     H25198   3.479  10.882   0.469 -4.4564 -0.0176 -2.1585
  191MOL0     H25199   3.622  10.707   0.370 -2.0757  1.8238 -0.9567
  191MOL0     H25200   3.963  10.317   0.420 -2.0076 -0.5072  1.0577
  191MOL0     H25201   4.054  10.129   0.295  0.0264  1.2695  5.2493
  191MOL0     H25202   4.067   9.870   0.160  1.4790  0.7686  1.1928
  191MOL0     H25203   4.104  10.031   0.099 -0.2618 -1.0719  0.9877
  191MOL0     H25204   3.970   9.880  -0.116 -0.9453 -2.0642  1.8117
  191MOL0     H25205   4.118   9.964  -0.114 -1.6006  2.4301 -0.1082
  191MOL0     H25206   4.138   9.735  -0.174 -2.5353 -3.8875  0.1378
  191MOL0     H25207   4.071   9.689  -0.017  0.4489 -0.5169 -1.3813
  191MOL0     H25208   4.336   9.834  -0.041 -0.9533  0.1795 -2.6034
  191MOL0     H25209   4.263   9.770   0.103  1.7804 -2.3736  0.4140
  191MOL0     H25210   4.467   9.452  -0.086 -0.5768 -0.9134  1.2836
  191MOL0     H25211   3.686  10.079   0.099 -0.9818  1.4006  0.7037
  191MOL0     H25212   3.589  10.288   0.199  0.2861 -2.8651 -3.2341
  192MOL0     O25213   1.463   2.053   6.312  0.4870  0.8239 -0.0344
  192MOL0     C25214   1.376   2.010   6.230  0.4925 -0.1581  0.3641
  192MOL0     O25215   1.389   2.020   6.093 -0.3238  0.2997 -0.7030
  192MOL0     C25216   1.516   2.053   6.046 -0.1958 -0.1940 -0.9093
  192MOL0     C25217   1.604   1.958   5.982  0.1665 -1.1336 -0.0096
  192MOL0     C25218   1.725   1.999   5.925  1.1560  0.1451  0.7621
  192MOL0     C25219   1.772   2.133   5.934  0.1825  0.0172  0.2338
  192MOL0     O25220   1.887   2.174   5.874  0.0100  0.2496  0.0472
  192MOL0     C25221   1.944   2.306   5.908  0.1328  0.0708 -0.4303
  192MOL0     C25222   2.083   2.305   5.841  0.9842  0.6296 -0.3424
  192MOL0     C25223   2.174   2.192   5.908 -0.3896  0.4682  1.6779
  192MOL0     C25224   2.303   2.177   5.829  0.8479 -0.1657  0.6584
  192MOL0     C25225   2.374   2.044   5.866 -0.2049 -0.8208 -0.7026
  192MOL0     C25226   2.500   2.013   5.782  0.0566 -0.0901  0.2513
  192MOL0     C25227   2.546   1.878   5.820 -0.5152 -0.3971  0.2902
  192MOL0     C25228   2.646   1.823   5.725 -0.0061 -0.4878  0.0692
  192MOL0     N25229   2.586   1.760   5.603  0.1259  0.0150  0.1196
  192MOL0     C25230   2.488   1.669   5.603  0.6478  0.3677  0.5544
  192MOL0     C25231   2.482   1.621   5.479 -0.7467  0.2536 -0.1922
  192MOL0     C25232   2.373   1.522   5.447  0.0413 -0.4710  0.0761
  192MOL0     C25233   2.263   1.573   5.359 -1.0387 -0.4325 -0.6337
  192MOL0     C25234   2.150   1.475   5.338 -0.6126  0.5975 -0.3125
  192MOL0     C25235   2.068   1.517   5.212 -0.4655  0.1596 -0.0795
  192MOL0     O25236   1.999   1.631   5.251  0.3915 -0.1566  0.6227
  192MOL0     C25237   1.863   1.622   5.242  0.9985 -0.2829 -0.1694
  192MOL0     C25238   1.783   1.618   5.356 -0.8461  0.1005  0.3287
  192MOL0     C25239   1.642   1.615   5.345 -0.0946  0.8661 -0.8221
  192MOL0     C25240   1.582   1.595   5.221  0.9042 -0.3388 -0.2374
  192MOL0     C25241   1.440   1.560   5.215  0.3854 -0.2631 -0.0881
  192MOL0     O25242   1.388   1.525   5.098  0.0311 -0.0117  0.4307
  192MOL0     C25243   1.268   1.465   5.093 -0.0380  1.1317 -0.5511
  192MOL0     C25244   1.149   1.535   5.105 -0.2025  0.1640 -0.3933
  192MOL0     C25245   1.028   1.468   5.113 -0.0994 -0.0491  0.2764
  192MOL0     C25246   1.019   1.322   5.112  0.6349  0.6711 -0.7973
  192MOL0     O25247   0.905   1.246   5.154 -0.3961  0.0752  0.0217
  192MOL0     C25248   0.788   1.310   5.202 -0.4238 -0.2804 -0.0617
  192MOL0     C25249   0.679   1.193   5.210  0.3662 -0.9312 -0.0563
  192MOL0     C25250   0.532   1.232   5.247 -0.3057 -0.4648  0.4731
  192MOL0     C25251   0.455   1.094   5.254 -0.5521  0.6176 -0.1799
  192MOL0     C25252   0.306   1.128   5.289  1.2369 -0.1871  0.1620
  192MOL0     C25253   0.211   1.004   5.294  0.0621  0.2944  0.3596
  192MOL0     C25254   0.091   1.016   5.394  0.6673 -0.0801 -0.3681
  192MOL0     C25255   0.110   0.934   5.522 -0.5930 -1.8790 -0.3733
  192MOL0    Cl25256   0.261   0.962   5.599 -0.3759  0.2714 -0.0189
  192MOL0     C25257   1.139   1.251   5.107  0.1065  0.7113  0.4484
  192MOL0     C25258   1.256   1.324   5.093 -0.3000  0.4298  0.6968
  192MOL0     O25259   1.372   1.574   5.315 -0.0313 -0.4811  0.5231
  192MOL0     C25260   1.671   1.593   5.109  1.2526 -0.9547  0.4515
  192MOL0     C25261   1.804   1.605   5.120 -0.1277  0.2788  0.3252
  192MOL0     N25262   2.560   1.705   5.401 -0.8934 -0.0228  0.4306
  192MOL0     N25263   2.627   1.787   5.475 -0.6828  0.6165  0.0229
  192MOL0     C25264   1.687   2.222   6.000 -0.2072 -0.8893  0.0711
  192MOL0     C25265   1.566   2.189   6.057 -0.9101  0.3495  0.4129
  192MOL0     C25266   1.246   1.968   6.287 -0.0410 -0.3318 -0.3352
  192MOL0     C25267   1.147   1.913   6.206  0.4892  0.0618  0.0670
  192MOL0     C25268   1.024   1.875   6.255  0.3140 -0.5739  0.3832
  192MOL0     C25269   0.997   1.905   6.394  0.1348 -0.4135  0.0174
  192MOL0     O25270   0.881   1.871   6.455 -0.4802  0.4241 -0.2096
  192MOL0     C25271   0.770   1.878   6.364  0.7873  0.2181  0.4278
  192MOL0     C25272   0.637   1.898   6.445 -0.8537 -0.1344  0.6273
  192MOL0     C25273   0.633   2.019   6.551  0.3112 -0.3506 -0.2897
  192MOL0     C25274   0.701   2.143   6.500  0.3220  0.3540  0.0186
  192MOL0     C25275   0.672   2.176   6.353 -0.2509 -0.5414 -0.1537
  192MOL0     C25276   0.648   2.186   6.234  0.4865  0.2908  0.7072
  192MOL0     C25277   1.099   1.932   6.482 -0.4343 -0.1927  0.1774
  192MOL0     C25278   1.217   1.972   6.425  0.3520  0.0763 -0.8376
  192MOL0     H25279   1.584   1.852   5.968  2.0447 -1.3019 -1.7873
  192MOL0     H25280   1.790   1.925   5.879  0.5735  0.8606 -1.3107
  192MOL0     H25281   1.936   2.325   6.016 -2.0057 -0.0551 -0.5356
  192MOL0     H25282   1.883   2.382   5.858  1.3631  0.6796 -1.0510
  192MOL0     H25283   2.119   2.408   5.845 -1.4003  1.4975  2.5253
  192MOL0     H25284   2.071   2.282   5.734  1.2907 -3.1450  0.2726
  192MOL0     H25285   2.115   2.099   5.906  0.0911  0.1044 -1.5297
  192MOL0     H25286   2.196   2.223   6.010 -0.3549  0.1587  1.7659
  192MOL0     H25287   2.303   2.196   5.722 -0.9459 -0.1987  0.6184
  192MOL0     H25288   2.367   2.258   5.865 -0.8575  3.5371 -3.6953
  192MOL0     H25289   2.300   1.965   5.852 -0.9933 -0.1363 -0.5128
  192MOL0     H25290   2.405   2.047   5.971  0.7974 -1.7917 -0.9582
  192MOL0     H25291   2.574   2.091   5.802 -0.2007  0.4392 -0.7838
  192MOL0     H25292   2.474   2.011   5.676  0.0611 -1.3822  0.2641
  192MOL0     H25293   2.609   1.889   5.909  2.2651  1.7684 -1.7625
  192MOL0     H25294   2.464   1.807   5.831  0.9525 -2.2027  0.1911
  192MOL0     H25295   2.709   1.756   5.785  1.0490  1.8237  1.6916
  192MOL0     H25296   2.708   1.905   5.688  1.2231 -0.6917  1.5845
  192MOL0     H25297   2.442   1.631   5.694  2.3618 -1.3305  0.7895
  192MOL0     H25298   2.327   1.489   5.540 -1.8789 -0.9787 -1.0007
  192MOL0     H25299   2.425   1.438   5.399  0.4071  0.6288 -1.5320
  192MOL0     H25300   2.311   1.605   5.266 -2.9049  1.0205 -1.1617
  192MOL0     H25301   2.225   1.668   5.398  1.2732  0.9895 -1.6197
  192MOL0     H25302   2.200   1.380   5.319 -0.1883  0.8855 -0.6569
  192MOL0     H25303   2.083   1.463   5.423  1.3290  1.4956  1.4570
  192MOL0     H25304   2.016   1.422   5.194  1.8167 -1.5372  1.6373
  192MOL0     H25305   2.138   1.522   5.128 -0.6076 -1.2835 -0.3207
  192MOL0     H25306   1.828   1.630   5.454 -0.9914  3.3668  0.1147
  192MOL0     H25307   1.581   1.627   5.434  0.7900  0.1462 -0.1120
  192MOL0     H25308   1.160   1.643   5.119  2.7880 -0.0378 -0.7062
  192MOL0     H25309   0.941   1.526   5.141 -0.5545 -0.4542 -0.2762
  192MOL0     H25310   0.755   1.395   5.142 -1.6667 -1.2902 -0.8650
  192MOL0     H25311   0.810   1.343   5.304  1.8998  3.2826 -1.5331
  192MOL0     H25312   0.711   1.113   5.277 -0.1945 -2.5503 -1.6324
  192MOL0     H25313   0.682   1.150   5.109  1.6619  0.4114 -0.6387
  192MOL0     H25314   0.497   1.311   5.180  0.6841  0.7617  1.3662
  192MOL0     H25315   0.539   1.277   5.346  1.5862 -3.4924  1.8546
  192MOL0     H25316   0.461   1.034   5.163  0.0071  0.6433 -0.1603
  192MOL0     H25317   0.502   1.032   5.331  1.6034  1.7791 -0.4755
  192MOL0     H25318   0.272   1.187   5.203 -1.2949 -1.6677  0.0404
  192MOL0     H25319   0.296   1.198   5.372 -1.5602  0.4231 -0.5835
  192MOL0     H25320   0.264   0.913   5.326  0.0452 -0.8514 -2.5701
  192MOL0     H25321   0.177   0.988   5.191 -1.5507  1.9435  0.5832
  192MOL0     H25322   0.078   1.124   5.409  1.4382  0.1231 -1.0392
  192MOL0     H25323   0.003   0.977   5.342 -0.0320  2.2400 -1.0819
  192MOL0     H25324   0.107   0.826   5.505 -0.1481 -2.2174  1.4666
  192MOL0     H25325   0.033   0.966   5.593  0.2713  3.0006 -1.2775
  192MOL0     H25326   1.136   1.143   5.115 -2.7242  0.6874  0.1106
  192MOL0     H25327   1.352   1.273   5.084 -1.0938 -0.8937 -0.8812
  192MOL0     H25328   1.626   1.581   5.011  1.3322  1.1328  0.1141
  192MOL0     H25329   1.865   1.591   5.031  0.4755 -2.1997  1.0625
  192MOL0     H25330   1.712   2.327   6.003  1.9807 -1.3788  2.7294
  192MOL0     H25331   1.500   2.261   6.104  2.0794  2.5648  1.5156
  192MOL0     H25332   1.152   1.902   6.098 -1.0997  2.1371 -0.2823
  192MOL0     H25333   0.963   1.816   6.187  1.0246 -0.8968  0.0016
  192MOL0     H25334   0.765   1.787   6.303  0.6749  0.9226 -0.6588
  192MOL0     H25335   0.782   1.963   6.296 -2.5620 -1.7054 -2.9556
  192MOL0     H25336   0.551   1.924   6.383 -0.6722  1.6501  1.0670
  192MOL0     H25337   0.619   1.809   6.507  2.7546 -1.1457  0.4407
  192MOL0     H25338   0.682   1.984   6.643 -2.1957  0.0982  1.3382
  192MOL0     H25339   0.530   2.040   6.583  0.9063 -0.5432  1.8903
  192MOL0     H25340   0.660   2.220   6.567 -0.3433  0.7906 -0.8629
  192MOL0     H25341   0.809   2.143   6.514  0.6326 -3.8350 -1.1639
  192MOL0     H25342   0.619   2.185   6.131 -0.5817 -0.4109  0.9902
  192MOL0     H25343   1.088   1.935   6.590  0.6285 -1.3428  0.3370
  192MOL0     H25344   1.289   2.014   6.495  0.2119  0.4933 -0.9443
  193MOL0     O25345   6.029   5.366   7.657  0.2022  0.3221  0.4312
  193MOL0     C25346   6.020   5.487   7.692 -0.4992 -0.0857 -1.1567
  193MOL0     O25347   5.926   5.532   7.780 -0.5316 -0.2754  0.4222
  193MOL0     C25348   5.827   5.454   7.835  0.4678 -0.0821  0.4175
  193MOL0     C25349   5.774   5.495   7.955  0.0718  0.2980  0.6059
  193MOL0     C25350   5.657   5.436   8.021 -0.5843  0.1661 -0.1023
  193MOL0     C25351   5.590   5.335   7.947  0.1039 -0.4387 -0.2691
  193MOL0     O25352   5.463   5.309   7.988 -0.5149  0.1078 -0.7379
  193MOL0     C25353   5.401   5.193   7.945 -0.6173  0.5446  1.8217
  193MOL0     C25354   5.246   5.203   7.983 -0.4587  0.2129 -0.5499
  193MOL0     C25355   5.161   5.086   7.939  0.1605  0.0734  0.1612
  193MOL0     C25356   5.016   5.124   7.966  0.7493 -0.3936  0.6371
  193MOL0     C25357   4.904   5.013   7.919 -0.5059 -0.5016 -0.2754
  193MOL0     C25358   4.769   5.033   7.990  0.1223 -0.2617  0.3718
  193MOL0     C25359   4.665   4.928   7.951 -0.6160 -0.3145  0.5996
  193MOL0     C25360   4.532   4.946   8.013  0.4494  0.1104 -0.0207
  193MOL0     N25361   4.430   4.908   7.905  0.3557 -0.3095 -0.0701
  193MOL0     C25362   4.380   4.786   7.889 -0.0778  0.0808 -0.3170
  193MOL0     C25363   4.300   4.783   7.782 -0.3604 -1.2009 -0.4516
  193MOL0     C25364   4.241   4.658   7.740 -0.9376  0.6882 -0.4868
  193MOL0     C25365   4.098   4.659   7.803  0.1447 -0.8056  0.2110
  193MOL0     C25366   3.993   4.756   7.729 -0.6853 -0.6192 -0.4356
  193MOL0     C25367   3.856   4.743   7.806  0.3493  0.0499 -0.0608
  193MOL0     O25368   3.798   4.615   7.760 -1.4950 -0.2093 -0.2503
  193MOL0     C25369   3.675   4.580   7.799  0.2691 -1.0820 -0.1994
  193MOL0     C25370   3.570   4.674   7.796  0.3650  0.1576 -0.7152
  193MOL0     C25371   3.441   4.639   7.843 -0.5689 -0.4323 -0.9926
  193MOL0     C25372   3.417   4.508   7.886  0.0458  1.5657  0.5128
  193MOL0     C25373   3.280   4.460   7.938 -0.4911  0.0303  0.8062
  193MOL0     O25374   3.257   4.328   7.949 -0.6156 -0.2549 -0.3520
  193MOL0     C25375   3.126   4.295   7.980 -0.4687 -0.0519  0.1602
  193MOL0     C25376   3.055   4.240   7.875 -0.3667  0.6286 -0.2818
  193MOL0     C25377   2.927   4.202   7.900 -0.2151 -0.7226 -0.0991
  193MOL0     C25378   2.866   4.203   8.030 -0.4355  0.4821 -0.5122
  193MOL0     O25379   2.729   4.179   8.028 -0.1510 -0.5050  0.1705
  193MOL0     C25380   2.662   4.194   8.158 -0.9583 -0.0474 -0.4325
  193MOL0     C25381   2.511   4.195   8.164  0.2432  0.5289  0.4501
  193MOL0     C25382   2.439   4.279   8.054 -0.2948  0.6170 -0.2071
  193MOL0     C25383   2.294   4.342   8.086 -1.5275  0.1429  0.4670
  193MOL0     C25384   2.250   4.406   7.951 -0.0810  0.1806 -0.7063
  193MOL0     C25385   2.330   4.537   7.915 -0.4655 -0.7138  0.0533
  193MOL0     C25386   2.314   4.600   7.775  0.9802 -0.1746  1.1122
  193MOL0     C25387   2.190   4.683   7.763 -0.0954  0.4058  0.5923
  193MOL0    Cl25388   2.045   4.580   7.773  0.0601  0.2085  0.1421
  193MOL0     C25389   2.947   4.257   8.133 -0.0354  0.1599 -0.1135
  193MOL0     C25390   3.075   4.306   8.106  0.2714  0.2070  0.2911
  193MOL0     O25391   3.202   4.552   7.953 -0.4856 -0.6764  0.6407
  193MOL0     C25392   3.529   4.417   7.899 -0.8176 -0.1139  1.2757
  193MOL0     C25393   3.651   4.453   7.851 -0.0633 -0.5550  0.0235
  193MOL0     N25394   4.311   4.916   7.725  0.8591  0.2655  0.1549
  193MOL0     N25395   4.375   4.993   7.809 -0.1665  0.1439 -0.1756
  193MOL0     C25396   5.645   5.293   7.829 -0.3211  0.7160 -0.4015
  193MOL0     C25397   5.761   5.349   7.774  0.1952  0.4847  0.1758
  193MOL0     C25398   6.112   5.577   7.635 -0.1332  0.9004  0.4975
  193MOL0     C25399   6.093   5.717   7.648 -0.0198  0.7010  0.4765
  193MOL0     C25400   6.186   5.806   7.601  0.1231  0.1124 -0.5418
  193MOL0     C25401   6.288   5.760   7.511 -0.2616 -0.8767  0.2581
  193MOL0     O25402   6.374   5.840   7.444 -0.1423 -0.1057  0.0091
  193MOL0     C25403   6.341   5.979   7.421  0.1680 -0.2140  0.1817
  193MOL0     C25404   6.462   6.046   7.346 -0.5358  0.5266 -0.9356
  193MOL0     C25405   6.509   5.987   7.215  0.5513  0.0298  0.1583
  193MOL0     C25406   6.643   6.040   7.181 -0.3459  0.9471  0.2988
  193MOL0     C25407   6.633   6.178   7.141 -0.0188 -0.0140  0.0711
  193MOL0     C25408   6.644   6.295   7.121 -0.0529 -0.1158  0.7978
  193MOL0     C25409   6.311   5.627   7.485 -0.6594  0.0209  0.1168
  193MOL0     C25410   6.231   5.535   7.558  0.6507  0.1279 -0.2347
  193MOL0     H25411   5.833   5.569   8.008  1.4840 -0.3514 -0.0018
  193MOL0     H25412   5.625   5.465   8.121 -1.1682  0.7232 -0.4485
  193MOL0     H25413   5.456   5.109   7.988 -0.5567  0.1945  1.0830
  193MOL0     H25414   5.402   5.175   7.837 -0.2103  0.6500  1.8076
  193MOL0     H25415   5.204   5.297   7.945 -4.4735 -0.5843  1.3547
  193MOL0     H25416   5.235   5.214   8.092  3.0233  3.1070 -0.3099
  193MOL0     H25417   5.187   4.997   7.995 -2.0464  0.6000  2.1843
  193MOL0     H25418   5.165   5.071   7.830  3.6245  0.1959  0.1753
  193MOL0     H25419   5.011   5.126   8.075  1.4715  0.4118  0.6661
  193MOL0     H25420   4.987   5.225   7.938  1.9131 -0.6210 -1.6252
  193MOL0     H25421   4.938   4.912   7.946 -1.6413 -0.1571  2.9363
  193MOL0     H25422   4.880   5.020   7.813  3.7149 -0.5058 -1.4172
  193MOL0     H25423   4.725   5.133   7.977  0.8052 -0.2164 -2.0626
  193MOL0     H25424   4.800   5.029   8.094  1.4642  0.3804  0.0164
  193MOL0     H25425   4.659   4.943   7.843  2.6435 -0.9113  0.2414
  193MOL0     H25426   4.708   4.829   7.968  0.3123 -0.5128 -2.3112
  193MOL0     H25427   4.507   5.047   8.046  1.9808  0.5609 -0.1537
  193MOL0     H25428   4.523   4.875   8.096  2.2493  0.7373  0.7642
  193MOL0     H25429   4.408   4.695   7.941 -0.4052 -1.4382 -2.6550
  193MOL0     H25430   4.297   4.570   7.775 -1.6408 -0.1000 -1.3068
  193MOL0     H25431   4.231   4.653   7.631  1.3518  1.1036 -0.7753
  193MOL0     H25432   4.112   4.691   7.907 -0.6249 -0.5642  0.2528
  193MOL0     H25433   4.057   4.557   7.805 -0.8723 -0.4083  1.2428
  193MOL0     H25434   4.034   4.857   7.745 -1.7508 -0.5687  2.5796
  193MOL0     H25435   3.989   4.732   7.622 -2.1671 -3.6915  0.2181
  193MOL0     H25436   3.788   4.821   7.771 -1.4496 -2.5510 -2.9148
  193MOL0     H25437   3.873   4.741   7.914  0.4776 -1.7570 -0.0816
  193MOL0     H25438   3.583   4.768   7.744 -0.3020  0.6089 -0.0834
  193MOL0     H25439   3.363   4.714   7.847 -0.5160 -0.3106 -1.8991
  193MOL0     H25440   3.085   4.242   7.771 -2.9576  0.2864 -1.1256
  193MOL0     H25441   2.859   4.180   7.818 -0.8794  2.4984 -0.5662
  193MOL0     H25442   2.695   4.285   8.209 -2.5663 -0.8642  2.2968
  193MOL0     H25443   2.701   4.116   8.225 -0.4124  0.7559  0.1974
  193MOL0     H25444   2.490   4.231   8.265 -1.7804 -2.2481  1.1603
  193MOL0     H25445   2.474   4.092   8.166 -1.5475  1.1451  1.9258
  193MOL0     H25446   2.433   4.207   7.971 -0.7638 -1.9802  1.9310
  193MOL0     H25447   2.507   4.358   8.023  0.6101  0.1211  0.4423
  193MOL0     H25448   2.219   4.268   8.117 -1.7023 -0.1982 -0.7055
  193MOL0     H25449   2.289   4.420   8.163  0.5302  0.7102  0.0861
  193MOL0     H25450   2.151   4.450   7.962  0.9632  2.2027  1.9903
  193MOL0     H25451   2.254   4.327   7.875  0.3247 -2.2990  1.7087
  193MOL0     H25452   2.440   4.532   7.917 -0.3329  1.4684  0.6229
  193MOL0     H25453   2.303   4.618   7.983  1.4604 -0.1527  0.2168
  193MOL0     H25454   2.408   4.650   7.749 -0.1430  1.5768  0.2509
  193MOL0     H25455   2.304   4.520   7.701 -0.9539 -0.6092  1.7932
  193MOL0     H25456   2.195   4.735   7.667 -2.5884 -1.6830 -0.7912
  193MOL0     H25457   2.197   4.761   7.839  1.0756  0.7065  0.2116
  193MOL0     H25458   2.920   4.289   8.233 -0.3005  1.5807 -0.6168
  193MOL0     H25459   3.136   4.365   8.174  2.2361 -1.0112 -0.3375
  193MOL0     H25460   3.514   4.316   7.936  1.1865 -0.1293  2.1884
  193MOL0     H25461   3.725   4.373   7.845 -0.4723 -0.9168 -0.2799
  193MOL0     H25462   5.609   5.218   7.760 -1.8161 -0.7422  1.8210
  193MOL0     H25463   5.784   5.296   7.682 -2.2528 -0.9080  0.2747
  193MOL0     H25464   6.005   5.754   7.700  0.0163  0.1115  0.9736
  193MOL0     H25465   6.178   5.909   7.635 -4.6326 -0.3012  0.1964
  193MOL0     H25466   6.321   6.023   7.519  1.3584  1.3570 -0.2314
  193MOL0     H25467   6.250   5.976   7.360  0.2288 -3.4896  0.0876
  193MOL0     H25468   6.445   6.154   7.339 -1.4663  0.4589  0.0737
  193MOL0     H25469   6.543   6.036   7.418 -2.4779  0.4860  1.3543
  193MOL0     H25470   6.442   6.025   7.138  0.8896  1.1388  0.3880
  193MOL0     H25471   6.497   5.879   7.218  0.5821  0.0266  0.1607
  193MOL0     H25472   6.721   6.021   7.256 -0.4873  5.1355  1.7228
  193MOL0     H25473   6.677   5.977   7.097  3.2830 -0.1447  2.3539
  193MOL0     H25474   6.647   6.402   7.117 -0.9785 -0.0784  0.9300
  193MOL0     H25475   6.389   5.586   7.421 -0.5609  0.6770 -0.1932
  193MOL0     H25476   6.247   5.428   7.545 -1.0703 -0.0782 -0.8604
  194MOL0     O25477  10.029   8.875   3.339 -0.2666  0.5383 -0.4184
  194MOL0     C25478  10.086   8.967   3.399  0.1381  0.1632 -0.0024
  194MOL0     O25479  10.038   9.104   3.410 -0.0472  0.1093  0.1815
  194MOL0     C25480   9.906   9.130   3.369  0.0154  0.2145 -0.5719
  194MOL0     C25481   9.873   9.241   3.290 -0.4508 -0.6778 -0.0235
  194MOL0     C25482   9.740   9.281   3.270 -0.6312 -0.0707  1.0381
  194MOL0     C25483   9.636   9.208   3.328  0.5726 -0.5063  0.0454
  194MOL0     O25484   9.502   9.252   3.307  0.0299  0.6809  0.9043
  194MOL0     C25485   9.394   9.193   3.380  1.0623 -0.8965  0.3826
  194MOL0     C25486   9.275   9.289   3.359  0.0284  0.5567  0.1681
  194MOL0     C25487   9.150   9.229   3.419 -0.0531 -0.1040 -0.3784
  194MOL0     C25488   9.043   9.336   3.408  0.5026 -0.0908  0.1011
  194MOL0     C25489   8.905   9.309   3.459  0.3514  0.2133 -0.2953
  194MOL0     C25490   8.823   9.207   3.373 -0.5564  0.0744  0.6427
  194MOL0     C25491   8.670   9.229   3.393 -1.4019 -0.5569  0.8757
  194MOL0     C25492   8.617   9.372   3.325  0.2622  0.8500 -0.0099
  194MOL0     N25493   8.493   9.408   3.397  0.0940 -0.2551 -0.5299
  194MOL0     C25494   8.377   9.340   3.399  0.0674 -0.0426  0.0220
  194MOL0     C25495   8.303   9.413   3.487  1.1664  0.4658  0.1064
  194MOL0     C25496   8.144   9.404   3.529 -1.2862 -0.6816  0.3629
  194MOL0     C25497   8.069   9.273   3.508 -0.0519  0.4296 -0.1089
  194MOL0     C25498   7.942   9.274   3.587  0.2663  0.4688 -0.1985
  194MOL0     C25499   7.847   9.384   3.547  0.2248  0.5408  0.1724
  194MOL0     O25500   7.734   9.409   3.639 -0.3231 -0.2631  0.8116
  194MOL0     C25501   7.647   9.504   3.613 -0.3838  0.5897 -0.7028
  194MOL0     C25502   7.640   9.587   3.499 -0.9766 -0.4605  0.7214
  194MOL0     C25503   7.542   9.688   3.485 -0.3146  0.1550  0.2956
  194MOL0     C25504   7.452   9.708   3.586  0.1451 -0.8484  0.1633
  194MOL0     C25505   7.355   9.815   3.563 -0.2886 -0.1959  0.2911
  194MOL0     O25506   7.369   9.895   3.449 -0.2921 -0.3191 -0.0945
  194MOL0     C25507   7.261   9.970   3.405  0.2141  0.0231  0.5505
  194MOL0     C25508   7.189  10.065   3.481  0.3902  0.2449  0.2013
  194MOL0     C25509   7.102  10.155   3.416 -0.1045  0.3822  0.1064
  194MOL0     C25510   7.076  10.155   3.275 -0.6596 -0.0180 -0.5196
  194MOL0     O25511   6.997  10.246   3.206 -0.0755 -0.1103  0.3305
  194MOL0     C25512   6.961  10.360   3.268  0.1128  0.5097  0.5003
  194MOL0     C25513   6.899  10.445   3.154 -0.2902  0.0952  0.8965
  194MOL0     C25514   6.748  10.437   3.156 -0.4172  0.4044  0.9109
  194MOL0     C25515   6.675  10.515   3.046 -1.0110 -0.4806 -0.3174
  194MOL0     C25516   6.536  10.536   3.093 -0.3358  0.2120 -0.7186
  194MOL0     C25517   6.462  10.615   2.992  0.5434 -0.9558 -0.3903
  194MOL0     C25518   6.324  10.653   3.041 -0.1151  0.5146  0.1950
  194MOL0     C25519   6.241  10.743   2.939 -0.1531 -0.0154  0.3833
  194MOL0    Cl25520   6.101  10.820   3.006 -0.0149 -0.2869 -0.0319
  194MOL0     C25521   7.134  10.049   3.200  0.8318 -0.9468  0.2625
  194MOL0     C25522   7.232   9.965   3.266 -0.6182  0.5469  0.9783
  194MOL0     O25523   7.258   9.810   3.641  0.6456  0.6608  0.4420
  194MOL0     C25524   7.456   9.622   3.696  0.0472  0.6011 -0.1771
  194MOL0     C25525   7.546   9.516   3.703 -0.4581 -0.4010 -0.1139
  194MOL0     N25526   8.382   9.519   3.532 -0.2860  0.2049 -0.0829
  194MOL0     N25527   8.500   9.510   3.486  0.3318 -0.7869  0.7829
  194MOL0     C25528   9.663   9.094   3.409  0.8621 -0.0841 -0.5092
  194MOL0     C25529   9.797   9.057   3.429  0.1163 -0.4723  0.2413
  194MOL0     C25530  10.226   8.942   3.437  0.5158  0.7601  0.5406
  194MOL0     C25531  10.298   9.032   3.512  0.0632  0.3873  0.4557
  194MOL0     C25532  10.438   9.016   3.535  0.3925  0.7360 -0.3064
  194MOL0     C25533  10.505   8.901   3.489  0.5910  0.0531  0.1453
  194MOL0     O25534  10.641   8.875   3.508  0.1742  0.3233 -0.0534
  194MOL0     C25535  10.716   8.948   3.601  0.2675 -0.6024 -0.2790
  194MOL0     C25536  10.859   8.891   3.628  0.1724 -0.2593  0.0916
  194MOL0     C25537  10.830   8.750   3.693  0.6099 -0.2216 -0.4080
  194MOL0     C25538  10.916   8.722   3.817  0.1973 -0.0787 -0.6878
  194MOL0     C25539  10.876   8.798   3.940  0.5798  0.0785 -0.4677
  194MOL0     C25540  10.824   8.853   4.038 -0.6168  0.3588 -0.2717
  194MOL0     C25541  10.432   8.810   3.421  1.1112  1.0478  0.0018
  194MOL0     C25542  10.299   8.823   3.395 -0.1174 -0.2766  0.4314
  194MOL0     H25543   9.951   9.308   3.254  0.8281 -1.2401  1.5969
  194MOL0     H25544   9.723   9.372   3.215 -0.3114 -2.9908 -4.6070
  194MOL0     H25545   9.430   9.177   3.482  1.7473  2.0033  0.6867
  194MOL0     H25546   9.369   9.099   3.330 -1.7622  0.0983 -0.2969
  194MOL0     H25547   9.262   9.302   3.251  0.8181  0.8250  0.0981
  194MOL0     H25548   9.306   9.388   3.395  4.6947 -0.3171 -0.7601
  194MOL0     H25549   9.166   9.212   3.526  1.6492  1.1556 -0.3883
  194MOL0     H25550   9.117   9.137   3.371 -1.6692  0.0894  0.2833
  194MOL0     H25551   9.081   9.429   3.451  1.9745 -0.2586 -0.7670
  194MOL0     H25552   9.036   9.363   3.303 -0.4270  1.1298  0.4569
  194MOL0     H25553   8.856   9.407   3.464 -1.5404 -0.7607  1.5625
  194MOL0     H25554   8.920   9.270   3.560 -2.5454  0.4798  0.3192
  194MOL0     H25555   8.846   9.102   3.393 -1.6003 -0.6725 -1.6209
  194MOL0     H25556   8.856   9.224   3.270 -2.1491  1.3622  0.2938
  194MOL0     H25557   8.627   9.152   3.327 -1.5307 -0.2208  0.5644
  194MOL0     H25558   8.650   9.235   3.500  1.7292  1.1054  1.4973
  194MOL0     H25559   8.588   9.360   3.220  0.3579 -1.5729  0.1912
  194MOL0     H25560   8.698   9.445   3.334  1.7005 -0.8344  1.5053
  194MOL0     H25561   8.350   9.249   3.347 -2.6804 -0.0270  1.2527
  194MOL0     H25562   8.093   9.480   3.469  0.8404 -0.4491 -1.2780
  194MOL0     H25563   8.139   9.425   3.636 -0.7026  0.2482  0.2181
  194MOL0     H25564   8.133   9.195   3.551 -0.4413  0.4021  0.4276
  194MOL0     H25565   8.056   9.243   3.403 -0.1844 -1.8286  0.5088
  194MOL0     H25566   7.896   9.178   3.564  1.8877 -0.8200  1.5969
  194MOL0     H25567   7.965   9.276   3.694 -1.7183 -0.5563  0.2898
  194MOL0     H25568   7.799   9.369   3.450 -1.8761  0.6114  1.1644
  194MOL0     H25569   7.908   9.474   3.534  0.7358  0.1697 -0.0574
  194MOL0     H25570   7.714   9.577   3.421 -1.1808  0.7988  0.3507
  194MOL0     H25571   7.558   9.744   3.393  1.5990 -3.0208 -1.5008
  194MOL0     H25572   7.217  10.077   3.585  4.3993 -2.1248 -0.3988
  194MOL0     H25573   7.062  10.233   3.481  0.5252  1.2283 -0.5040
  194MOL0     H25574   7.041  10.424   3.307 -1.3649  3.9684 -1.6700
  194MOL0     H25575   6.879  10.333   3.334 -0.2482  1.6158  0.5102
  194MOL0     H25576   6.923  10.401   3.056 -1.4110  0.8111  0.2755
  194MOL0     H25577   6.916  10.552   3.167  0.3918  0.3254 -1.4551
  194MOL0     H25578   6.726  10.475   3.257 -1.1595  2.0499  0.1716
  194MOL0     H25579   6.712  10.337   3.131  0.7075  0.2062 -0.0109
  194MOL0     H25580   6.720  10.615   3.045 -0.8348 -0.5566 -0.9812
  194MOL0     H25581   6.685  10.469   2.947 -0.9930 -0.1769 -0.4603
  194MOL0     H25582   6.530  10.577   3.194 -2.3030 -0.7635 -0.3712
  194MOL0     H25583   6.488  10.438   3.107  1.7085 -1.1194 -2.4769
  194MOL0     H25584   6.440  10.560   2.900 -1.1663  0.9364 -1.1803
  194MOL0     H25585   6.517  10.709   2.977  0.2172 -0.7160 -0.0927
  194MOL0     H25586   6.270  10.560   3.063  0.6506  0.0546  0.1831
  194MOL0     H25587   6.337  10.710   3.133  0.5111  1.9561 -0.7455
  194MOL0     H25588   6.219  10.685   2.849  2.4172 -2.3649  1.1408
  194MOL0     H25589   6.304  10.824   2.899 -0.5906 -0.4219 -1.1728
  194MOL0     H25590   7.120  10.052   3.093  0.7873  4.5566  0.1322
  194MOL0     H25591   7.289   9.903   3.198 -0.8980 -1.1787  2.2468
  194MOL0     H25592   7.383   9.629   3.777  0.4068  1.9862  0.0459
  194MOL0     H25593   7.538   9.447   3.786  0.2212 -0.0371  0.2703
  194MOL0     H25594   9.581   9.039   3.453 -0.5704  3.0223  1.0660
  194MOL0     H25595   9.829   8.989   3.507  1.1292  2.2853  2.4150
  194MOL0     H25596  10.255   9.127   3.544 -0.5397 -0.3874  2.0511
  194MOL0     H25597  10.488   9.089   3.598  1.5421 -0.0248 -0.3246
  194MOL0     H25598  10.669   8.950   3.700  2.3260 -2.0621  0.7893
  194MOL0     H25599  10.710   9.053   3.571 -2.6483 -0.1552  1.4343
  194MOL0     H25600  10.915   8.878   3.535 -1.0402 -1.1693 -0.5477
  194MOL0     H25601  10.912   8.957   3.697 -3.3388  2.0490  0.8684
  194MOL0     H25602  10.860   8.678   3.617 -0.2307  1.0183 -2.0066
  194MOL0     H25603  10.729   8.724   3.726  1.1280 -0.0441  1.4437
  194MOL0     H25604  10.915   8.615   3.839 -1.5500  0.0152 -0.1479
  194MOL0     H25605  11.015   8.753   3.782 -0.4034  1.4848 -1.1034
  194MOL0     H25606  10.783   8.886   4.132  0.6730 -1.9421  1.2005
  194MOL0     H25607  10.485   8.721   3.386 -0.6625 -0.8690  1.9050
  194MOL0     H25608  10.247   8.749   3.335  0.9833 -1.5042  0.9391
  195MOL0     O25609   6.890   6.854  10.665  0.4040 -1.0396  0.1920
  195MOL0     C25610   6.997   6.805  10.679 -0.4556  0.2558  0.6323
  195MOL0     O25611   7.009   6.688  10.758 -0.1458 -0.3201  0.0893
  195MOL0     C25612   6.891   6.632  10.808  0.2232 -0.3620  0.1567
  195MOL0     C25613   6.832   6.506  10.769  0.4184  0.9624  0.2276
  195MOL0     C25614   6.715   6.452  10.833 -0.7036  0.9235 -0.3789
  195MOL0     C25615   6.668   6.517  10.945  0.4292 -0.3215  0.0981
  195MOL0     O25616   6.558   6.474  11.019 -0.0997 -0.2015 -0.2814
  195MOL0     C25617   6.489   6.354  10.993 -0.2916 -0.5837 -0.5108
  195MOL0     C25618   6.373   6.378  10.901  0.1198 -0.4165  0.7067
  195MOL0     C25619   6.285   6.499  10.933 -0.1421 -0.4927 -0.1801
  195MOL0     C25620   6.144   6.506  10.875  0.5661  0.7192  0.5426
  195MOL0     C25621   6.042   6.418  10.946  0.6787  0.3664  0.0426
  195MOL0     C25622   5.911   6.418  10.861 -0.0618  0.9546 -0.0647
  195MOL0     C25623   5.805   6.336  10.934 -0.0274 -0.5306  0.2273
  195MOL0     C25624   5.659   6.360  10.884  0.2895  1.2443  0.9943
  195MOL0     N25625   5.558   6.304  10.981 -0.5047 -0.1182 -0.0084
  195MOL0     C25626   5.548   6.188  11.062 -0.4021  0.1612 -0.3140
  195MOL0     C25627   5.422   6.197  11.101  0.3001  0.5409 -0.8987
  195MOL0     C25628   5.351   6.095  11.188  0.5455  0.0954 -0.4828
  195MOL0     C25629   5.204   6.128  11.222  0.7926 -0.2341 -0.3490
  195MOL0     C25630   5.176   6.255  11.302 -0.5052  0.4798 -0.1413
  195MOL0     C25631   5.035   6.303  11.286  0.2118 -0.0598 -0.2000
  195MOL0     O25632   4.959   6.205  11.356  0.3780  0.0741  0.0157
  195MOL0     C25633   4.825   6.209  11.372  0.1982  0.0316  0.0833
  195MOL0     C25634   4.772   6.116  11.463  0.1670 -0.5491 -0.4687
  195MOL0     C25635   4.633   6.108  11.490 -0.5761  0.2555 -0.3398
  195MOL0     C25636   4.550   6.200  11.424 -0.2840  0.7868 -0.1178
  195MOL0     C25637   4.411   6.221  11.466  1.0114  0.4719 -0.1518
  195MOL0     O25638   4.359   6.140  11.564 -0.4626 -0.6188  0.8763
  195MOL0     C25639   4.227   6.121  11.578  0.6626 -0.4729  0.2815
  195MOL0     C25640   4.137   6.142  11.468 -0.5208  0.1794  0.8668
  195MOL0     C25641   4.001   6.120  11.482 -0.1333 -0.1363 -0.1358
  195MOL0     C25642   3.954   6.061  11.601 -0.1180 -0.0480  0.4700
  195MOL0     O25643   3.818   6.047  11.595 -0.1228  0.5002 -0.0614
  195MOL0     C25644   3.758   6.017  11.723  0.0338 -0.8944  0.0462
  195MOL0     C25645   3.605   6.006  11.693 -0.5853  0.3621 -0.0339
  195MOL0     C25646   3.527   6.003  11.826 -1.1388  0.7696 -0.2722
  195MOL0     C25647   3.378   5.985  11.805  0.5308  1.3236 -0.0978
  195MOL0     C25648   3.304   6.006  11.940  0.6338  0.1389  0.1342
  195MOL0     C25649   3.154   6.042  11.938 -0.8266  0.2137 -0.0974
  195MOL0     C25650   3.061   5.917  11.889 -0.3976 -0.5202  0.1523
  195MOL0     C25651   2.926   5.924  11.958  0.8059 -0.2751  0.6969
  195MOL0    Cl25652   2.820   5.790  11.905  0.3605 -0.2996  0.4778
  195MOL0     C25653   4.047   6.010  11.692 -0.0849  0.5966 -0.1897
  195MOL0     C25654   4.186   6.038  11.681 -0.8264  0.2552  1.1872
  195MOL0     O25655   4.350   6.319  11.420 -0.4112  0.1008 -0.0930
  195MOL0     C25656   4.608   6.289  11.330 -0.2798 -0.1269  0.1773
  195MOL0     C25657   4.745   6.298  11.309 -0.7673 -0.7413 -0.0190
  195MOL0     N25658   5.364   6.305  11.057  0.9121 -0.0722  0.5957
  195MOL0     N25659   5.445   6.375  10.997  0.7377  0.4212 -0.1588
  195MOL0     C25660   6.716   6.640  10.980  0.2861 -0.9763  0.0133
  195MOL0     C25661   6.830   6.693  10.915  0.2298  0.3770  0.4581
  195MOL0     C25662   7.119   6.859  10.612  0.2209 -0.2153  0.5341
  195MOL0     C25663   7.231   6.784  10.618  0.1773  0.4471  0.5621
  195MOL0     C25664   7.348   6.827  10.551 -0.2789  1.1910 -0.7672
  195MOL0     C25665   7.347   6.945  10.480  0.2725  0.3601 -0.0391
  195MOL0     O25666   7.451   6.984  10.400 -0.3112 -0.2962  0.5322
  195MOL0     C25667   7.581   6.927  10.415  0.3480  0.5669  0.0364
  195MOL0     C25668   7.683   7.016  10.344  0.2321 -0.2561  0.5064
  195MOL0     C25669   7.799   6.955  10.263  0.1303 -0.6271 -0.1330
  195MOL0     C25670   7.910   6.889  10.346 -0.3490 -0.1580 -0.0581
  195MOL0     C25671   8.016   6.845  10.265  0.9115  0.4987 -0.1953
  195MOL0     C25672   8.116   6.834  10.191  0.6893  0.3500  0.2449
  195MOL0     C25673   7.225   7.017  10.473 -0.3141  0.2494 -0.6684
  195MOL0     C25674   7.115   6.974  10.545  0.1511 -0.6229  0.4483
  195MOL0     H25675   6.866   6.454  10.680  0.1319 -2.8057  2.1346
  195MOL0     H25676   6.656   6.372  10.788  0.0115  0.1789 -0.0227
  195MOL0     H25677   6.441   6.325  11.087 -1.5023 -1.2950 -1.3190
  195MOL0     H25678   6.559   6.278  10.958 -1.0503 -1.8552  0.6294
  195MOL0     H25679   6.301   6.295  10.902 -2.2522  1.4537 -1.5933
  195MOL0     H25680   6.419   6.386  10.802 -0.0884  0.2727  0.6630
  195MOL0     H25681   6.338   6.594  10.920  0.1615 -0.5091  0.8283
  195MOL0     H25682   6.256   6.500  11.038 -1.2932  0.0813 -0.4826
  195MOL0     H25683   6.098   6.605  10.865  0.8876  0.7189 -1.5019
  195MOL0     H25684   6.155   6.478  10.769  0.3244 -1.8554  1.1283
  195MOL0     H25685   6.010   6.452  11.044 -1.9613  1.5000 -1.1058
  195MOL0     H25686   6.075   6.314  10.953  0.5819  0.1922 -1.5608
  195MOL0     H25687   5.939   6.378  10.763  2.5900 -0.2062  1.0724
  195MOL0     H25688   5.885   6.524  10.854  0.1524  0.9909 -0.3188
  195MOL0     H25689   5.824   6.231  10.913  3.8610 -0.0879  0.8268
  195MOL0     H25690   5.807   6.344  11.043 -4.4858  1.1394  0.4133
  195MOL0     H25691   5.635   6.327  10.783 -2.2603 -0.1552  1.9484
  195MOL0     H25692   5.651   6.469  10.880  1.7385  1.3924  1.4093
  195MOL0     H25693   5.629   6.119  11.084  1.6861  2.0968 -1.4488
  195MOL0     H25694   5.401   6.076  11.284 -0.9710  1.8931  0.7323
  195MOL0     H25695   5.354   6.008  11.121 -1.0391  0.4249 -1.0270
  195MOL0     H25696   5.163   6.050  11.287 -0.2656  1.5116  1.1824
  195MOL0     H25697   5.141   6.128  11.132 -4.8144 -2.5015  3.0612
  195MOL0     H25698   5.207   6.243  11.406 -3.7258 -0.7855  0.8113
  195MOL0     H25699   5.238   6.336  11.263 -0.7228  0.2019 -1.0866
  195MOL0     H25700   5.006   6.316  11.182  0.5104 -0.3191 -0.3188
  195MOL0     H25701   5.036   6.399  11.339 -0.0165  0.2345 -0.7263
  195MOL0     H25702   4.838   6.049  11.516  0.3626 -0.7761 -0.9890
  195MOL0     H25703   4.611   6.049  11.579 -0.6071 -2.6412 -2.1259
  195MOL0     H25704   4.162   6.183  11.371 -1.9693  1.5729  1.0352
  195MOL0     H25705   3.929   6.149  11.407 -0.9367  0.2763  0.7744
  195MOL0     H25706   3.778   6.099  11.792  2.8177 -0.3647 -1.2501
  195MOL0     H25707   3.788   5.925  11.774 -1.2108 -1.1189  0.4258
  195MOL0     H25708   3.584   5.913  11.639 -2.2070 -1.0364  2.7649
  195MOL0     H25709   3.567   6.094  11.641  2.1693  0.8720 -1.3377
  195MOL0     H25710   3.556   6.103  11.859  2.2767 -0.1579 -0.0559
  195MOL0     H25711   3.570   5.937  11.903 -0.6659 -0.0713 -1.2253
  195MOL0     H25712   3.336   6.054  11.731  0.3826 -1.1430 -2.4844
  195MOL0     H25713   3.356   5.881  11.776  2.0945  0.7046  0.7978
  195MOL0     H25714   3.358   6.095  11.974 -2.3745  1.8124  0.8315
  195MOL0     H25715   3.333   5.925  12.008  1.0939  0.2263  0.0460
  195MOL0     H25716   3.139   6.129  11.874  0.7055  0.8433  0.3410
  195MOL0     H25717   3.126   6.077  12.038 -0.6679 -3.7044  1.4958
  195MOL0     H25718   3.041   5.927  11.782  2.4528 -0.3660 -0.4531
  195MOL0     H25719   3.098   5.820  11.924 -1.9901 -1.1547  0.1390
  195MOL0     H25720   2.879   6.018  11.928 -0.9181 -1.4335 -0.3953
  195MOL0     H25721   2.944   5.904  12.064 -0.5872  0.1894  1.0289
  195MOL0     H25722   4.019   5.965  11.786  1.7540  1.3480  0.7832
  195MOL0     H25723   4.249   6.012  11.765  2.0408 -1.4004 -1.2778
  195MOL0     H25724   4.546   6.359  11.276 -2.2757 -1.8769  0.0534
  195MOL0     H25725   4.784   6.383  11.253  1.4095 -0.6526  1.5230
  195MOL0     H25726   6.681   6.695  11.067  2.9516  2.1955 -0.7132
  195MOL0     H25727   6.870   6.788  10.948 -0.5420 -0.1297  3.0461
  195MOL0     H25728   7.249   6.686  10.662  1.7000 -0.4858 -1.9270
  195MOL0     H25729   7.430   6.757  10.543 -0.5112  0.6508  1.1158
  195MOL0     H25730   7.597   6.831  10.365  1.2538 -0.2799  1.8645
  195MOL0     H25731   7.591   6.921  10.524 -3.4854  0.3205  0.5316
  195MOL0     H25732   7.625   7.062  10.263  1.2630 -1.5357 -1.0344
  195MOL0     H25733   7.723   7.097  10.406  0.1677  0.7352 -0.7157
  195MOL0     H25734   7.832   7.035  10.197 -0.2649 -2.2711 -2.4491
  195MOL0     H25735   7.748   6.889  10.192  0.1402 -2.9067  1.8616
  195MOL0     H25736   7.958   6.957  10.416  1.5617 -2.1423  0.6844
  195MOL0     H25737   7.867   6.805  10.401 -0.4765  0.0538  0.1639
  195MOL0     H25738   8.202   6.841  10.128 -1.2240 -1.6758 -2.8499
  195MOL0     H25739   7.240   7.114  10.429 -0.2013  1.2977  1.5266
  195MOL0     H25740   7.028   7.037  10.533  0.5151 -0.3007 -0.6872
  196MOL0     O25741   3.812   2.380   7.245 -0.1814 -0.7134  0.6153
  196MOL0     C25742   3.851   2.266   7.277 -0.1958  0.2849  0.2191
  196MOL0     O25743   3.776   2.154   7.286 -0.2103  0.2147 -0.0898
  196MOL0     C25744   3.639   2.162   7.274 -0.6659  0.5965 -1.0308
  196MOL0     C25745   3.550   2.243   7.347 -0.5544 -0.8168 -0.2669
  196MOL0     C25746   3.413   2.225   7.320 -0.8429  0.0361 -0.4250
  196MOL0     C25747   3.356   2.149   7.217 -0.1097 -0.4325  0.3073
  196MOL0     O25748   3.219   2.167   7.203 -0.5359 -0.2461  0.3176
  196MOL0     C25749   3.154   2.052   7.150 -0.2239  0.2122  0.2620
  196MOL0     C25750   3.006   2.057   7.181  0.4036 -0.3178  0.1958
  196MOL0     C25751   2.933   1.951   7.096  0.2500 -0.1073  0.3855
  196MOL0     C25752   2.785   1.948   7.136  0.0193  0.4783 -0.1459
  196MOL0     C25753   2.711   1.851   7.043 -0.6154 -0.5454 -0.7258
  196MOL0     C25754   2.567   1.846   7.076 -0.0100 -0.1637 -0.7314
  196MOL0     C25755   2.493   1.767   6.979  1.0984 -0.0113  0.1283
  196MOL0     C25756   2.337   1.781   6.991 -1.1278 -0.7947 -0.1655
  196MOL0     N25757   2.283   1.688   6.899  0.3064 -0.4475 -0.1652
  196MOL0     C25758   2.244   1.561   6.928  0.0924  0.3633 -0.3184
  196MOL0     C25759   2.198   1.509   6.819 -0.2969 -0.2054  0.5841
  196MOL0     C25760   2.145   1.367   6.801 -0.3868  0.1835 -0.5512
  196MOL0     C25761   2.022   1.356   6.700 -0.0341 -0.1202 -0.0283
  196MOL0     C25762   1.892   1.442   6.747 -0.1228 -0.2294 -0.5224
  196MOL0     C25763   1.774   1.422   6.655  0.2935  0.1199 -0.1807
  196MOL0     O25764   1.690   1.536   6.643  0.0337 -0.3211 -0.0474
  196MOL0     C25765   1.558   1.522   6.650  0.8428  0.1509 -0.1625
  196MOL0     C25766   1.498   1.516   6.778  0.2653 -0.5977 -0.6813
  196MOL0     C25767   1.360   1.494   6.791 -0.2039  0.1002  0.0813
  196MOL0     C25768   1.277   1.483   6.674  0.0487  0.4502 -0.0604
  196MOL0     C25769   1.133   1.455   6.678  0.1404 -0.2829  0.0016
  196MOL0     O25770   1.076   1.438   6.561  0.7110  0.1475 -0.7306
  196MOL0     C25771   0.945   1.410   6.558 -0.5744 -0.3839  0.3126
  196MOL0     C25772   0.853   1.513   6.559  0.0767  0.5140  0.6263
  196MOL0     C25773   0.721   1.485   6.529 -0.1169  0.5374 -0.1892
  196MOL0     C25774   0.665   1.358   6.522  0.1774 -0.0074 -0.0284
  196MOL0     O25775   0.532   1.345   6.507  0.1677 -0.7643  0.2586
  196MOL0     C25776   0.467   1.227   6.539  0.4452  0.2161  0.9259
  196MOL0     C25777   0.318   1.252   6.559  0.2228  0.6144  0.2148
  196MOL0     C25778   0.254   1.302   6.420  0.6163 -0.4173 -0.7775
  196MOL0     C25779   0.099   1.310   6.439 -0.3185  0.1078  0.2583
  196MOL0     C25780   0.035   1.384   6.313 -0.9580  0.3006 -0.0109
  196MOL0     C25781  -0.114   1.367   6.330  0.2869 -0.3241 -0.5448
  196MOL0     C25782  -0.199   1.426   6.211  0.7679  0.9151 -1.4074
  196MOL0     C25783  -0.349   1.381   6.211 -0.5056 -0.0223  0.3944
  196MOL0    Cl25784  -0.408   1.418   6.364  0.1642  0.2283 -0.2350
  196MOL0     C25785   0.754   1.250   6.538  0.4295 -0.1061  0.5021
  196MOL0     C25786   0.895   1.272   6.546  0.0764 -0.2960  0.4713
  196MOL0     O25787   1.076   1.458   6.790  0.6524  0.6077  0.5380
  196MOL0     C25788   1.344   1.475   6.557  0.2196  0.1286  0.3876
  196MOL0     C25789   1.481   1.491   6.535 -0.4393  0.1488  0.5804
  196MOL0     N25790   2.201   1.603   6.722  0.0257 -1.0577  0.2975
  196MOL0     N25791   2.239   1.715   6.770 -0.0099  0.0938 -0.6756
  196MOL0     C25792   3.446   2.076   7.151 -0.4408 -0.4715  0.7032
  196MOL0     C25793   3.588   2.072   7.182 -0.3794  0.3158  0.2328
  196MOL0     C25794   3.996   2.249   7.320 -0.0803 -0.4478  0.5101
  196MOL0     C25795   4.053   2.121   7.337  1.2956  0.6929 -0.0725
  196MOL0     C25796   4.187   2.102   7.362 -0.0406  0.4995 -0.4881
  196MOL0     C25797   4.278   2.210   7.364  0.2923 -0.9768  0.4444
  196MOL0     O25798   4.412   2.209   7.386 -0.5460  0.3159 -0.7225
  196MOL0     C25799   4.484   2.087   7.407  1.1394  0.2030 -0.8041
  196MOL0     C25800   4.495   2.016   7.270  0.1705  0.2721 -0.2829
  196MOL0     C25801   4.621   2.061   7.187  0.8745 -0.1967 -0.3925
  196MOL0     C25802   4.627   1.986   7.049 -0.2716  0.1540 -0.9502
  196MOL0     C25803   4.527   2.032   6.953  0.1977 -0.3037 -0.1777
  196MOL0     C25804   4.440   2.061   6.873 -0.2883  0.2366  0.1880
  196MOL0     C25805   4.219   2.342   7.359 -0.2388 -0.8565 -0.4081
  196MOL0     C25806   4.081   2.365   7.337  0.0907  0.4514  0.5350
  196MOL0     H25807   3.590   2.319   7.413 -1.3923 -2.5464  2.3931
  196MOL0     H25808   3.348   2.284   7.384  1.0003  1.1625  0.5267
  196MOL0     H25809   3.192   1.963   7.201 -1.7565  0.4340  1.9031
  196MOL0     H25810   3.179   2.047   7.044 -1.1884  5.9627 -0.5749
  196MOL0     H25811   2.970   2.157   7.157  1.8349  0.5127  1.3167
  196MOL0     H25812   2.995   2.023   7.285  3.3951 -0.3785  0.5922
  196MOL0     H25813   2.975   1.850   7.107  0.3881 -0.3434 -1.8349
  196MOL0     H25814   2.948   1.974   6.990 -1.8330  0.5613  0.1834
  196MOL0     H25815   2.780   1.917   7.241  0.7432  1.4123  0.1706
  196MOL0     H25816   2.746   2.050   7.131  1.1073  1.0922  2.4922
  196MOL0     H25817   2.770   1.759   7.036  0.5504  0.1540 -0.4927
  196MOL0     H25818   2.718   1.897   6.943  2.6014 -0.8245 -0.7568
  196MOL0     H25819   2.530   1.948   7.088  0.0598 -0.1231 -0.8613
  196MOL0     H25820   2.557   1.802   7.176  1.8767  1.5812  0.3043
  196MOL0     H25821   2.512   1.806   6.878  1.2956 -1.1135 -0.2754
  196MOL0     H25822   2.530   1.665   6.991  1.1212 -0.1877 -1.2974
  196MOL0     H25823   2.304   1.873   6.942 -0.6019 -0.2378  0.4997
  196MOL0     H25824   2.299   1.773   7.093 -1.2405 -0.0144 -0.1401
  196MOL0     H25825   2.277   1.502   7.013 -0.1543 -1.3536 -1.3534
  196MOL0     H25826   2.120   1.332   6.902  1.0088 -2.7418 -1.1035
  196MOL0     H25827   2.222   1.296   6.771 -1.5181 -1.3579  0.0575
  196MOL0     H25828   1.983   1.254   6.685  2.2188 -1.1893  0.9646
  196MOL0     H25829   2.048   1.396   6.602  0.8659 -0.8216 -0.0869
  196MOL0     H25830   1.856   1.399   6.841 -0.5658 -0.4270 -0.7766
  196MOL0     H25831   1.912   1.546   6.774  1.0901 -0.4238 -0.6104
  196MOL0     H25832   1.718   1.336   6.692  1.9768 -0.5289  1.0036
  196MOL0     H25833   1.828   1.400   6.562  2.3922  1.7446  0.5650
  196MOL0     H25834   1.558   1.532   6.867 -0.2406  0.3302 -0.5047
  196MOL0     H25835   1.314   1.484   6.889  1.2575 -0.9442  0.6992
  196MOL0     H25836   0.876   1.616   6.585  1.3180  0.9394 -1.8271
  196MOL0     H25837   0.661   1.575   6.520  0.1662  1.0730  2.3728
  196MOL0     H25838   0.506   1.180   6.630 -0.5815  2.1279  2.4368
  196MOL0     H25839   0.478   1.168   6.448 -0.0027  1.8841 -0.2589
  196MOL0     H25840   0.293   1.312   6.647  0.1073 -1.6483  1.8291
  196MOL0     H25841   0.277   1.153   6.581  0.8381  0.3931  0.3968
  196MOL0     H25842   0.297   1.258   6.330 -0.6302 -0.4814 -1.3566
  196MOL0     H25843   0.286   1.405   6.403 -1.3844 -0.1530 -3.4817
  196MOL0     H25844   0.051   1.216   6.468  2.5055 -1.0309  1.5807
  196MOL0     H25845   0.075   1.373   6.525 -2.2395 -0.3745  0.1337
  196MOL0     H25846   0.076   1.339   6.222 -0.7564 -0.1816  0.3127
  196MOL0     H25847   0.073   1.485   6.329 -0.8321  0.3460 -0.5633
  196MOL0     H25848  -0.146   1.427   6.416  0.5079  0.3507 -0.9233
  196MOL0     H25849  -0.133   1.261   6.348  4.7410 -1.3646 -0.8512
  196MOL0     H25850  -0.196   1.535   6.205  1.1116  0.9799 -0.3367
  196MOL0     H25851  -0.163   1.388   6.115  0.1149 -1.2086 -0.8789
  196MOL0     H25852  -0.342   1.278   6.176  2.1556  0.4261 -0.6711
  196MOL0     H25853  -0.411   1.435   6.138  1.6887  1.1097 -0.7361
  196MOL0     H25854   0.715   1.149   6.537 -2.5077  0.9338  1.3355
  196MOL0     H25855   0.957   1.184   6.556 -0.9022 -0.7843  2.7241
  196MOL0     H25856   1.291   1.455   6.465  0.7591 -0.3709  0.1801
  196MOL0     H25857   1.524   1.484   6.436  1.2986  2.7838  1.0595
  196MOL0     H25858   3.423   2.013   7.065  0.4456  1.2770 -0.8782
  196MOL0     H25859   3.647   2.010   7.116  1.9700  2.3664  0.2948
  196MOL0     H25860   3.987   2.035   7.332  1.4093  0.5846  0.2266
  196MOL0     H25861   4.224   2.003   7.386  1.9139  1.1636 -0.5588
  196MOL0     H25862   4.432   2.019   7.475 -0.2178  1.9212 -0.0287
  196MOL0     H25863   4.589   2.098   7.436  0.6186  0.3637  1.2157
  196MOL0     H25864   4.510   1.909   7.287  1.8065 -0.0491 -3.0296
  196MOL0     H25865   4.409   2.045   7.209  0.6398  4.5016  0.6977
  196MOL0     H25866   4.710   2.033   7.244  0.8008  1.5079  0.6081
  196MOL0     H25867   4.636   2.169   7.192 -1.5148  0.1979 -0.6209
  196MOL0     H25868   4.731   1.996   7.015  0.6545 -0.3272  1.4987
  196MOL0     H25869   4.607   1.880   7.064  0.7242  0.0573 -0.1668
  196MOL0     H25870   4.350   2.069   6.815 -0.5046 -1.0724  0.3155
  196MOL0     H25871   4.282   2.428   7.377 -0.5619 -0.6855 -0.0943
  196MOL0     H25872   4.036   2.461   7.316 -2.2276 -1.2722 -3.5726
  197MOL0     O25873   2.693   0.273   3.838 -0.2525  0.9093 -0.4504
  197MOL0     C25874   2.808   0.245   3.885  0.7018  0.1260 -0.3541
  197MOL0     O25875   2.832   0.157   3.987  0.3792  0.3355 -0.0925
  197MOL0     C25876   2.729   0.064   4.006 -0.1983  0.1741  0.5698
  197MOL0     C25877   2.723  -0.038   3.921 -0.5225  0.4839  0.3910
  197MOL0     C25878   2.626  -0.140   3.937  0.7160  0.6700  0.5499
  197MOL0     C25879   2.535  -0.133   4.044  0.2118 -0.1155 -0.7019
  197MOL0     O25880   2.440  -0.235   4.054 -0.4047 -0.1367  0.2722
  197MOL0     C25881   2.316  -0.200   4.116 -0.3400 -0.8272 -0.9568
  197MOL0     C25882   2.211  -0.312   4.116 -0.1712  0.4280 -0.3849
  197MOL0     C25883   2.091  -0.262   4.211 -0.2392  0.5920 -0.2825
  197MOL0     C25884   1.985  -0.375   4.187 -0.0046 -0.1610  0.0191
  197MOL0     C25885   1.852  -0.352   4.258  0.3678  0.4386 -0.6672
  197MOL0     C25886   1.878  -0.315   4.406  0.3800  0.2061 -0.1905
  197MOL0     C25887   1.745  -0.295   4.485  0.7271  0.0453  0.6613
  197MOL0     C25888   1.772  -0.279   4.640 -0.3693  0.1983 -0.4730
  197MOL0     N25889   1.656  -0.258   4.724 -1.3764 -0.4217 -0.0602
  197MOL0     C25890   1.557  -0.348   4.752  0.9032 -0.6048  0.1198
  197MOL0     C25891   1.474  -0.275   4.842 -1.0290  0.9497 -0.2352
  197MOL0     C25892   1.344  -0.320   4.909 -0.0372 -0.1398 -0.9860
  197MOL0     C25893   1.291  -0.440   4.836 -0.5419 -0.2325 -0.7671
  197MOL0     C25894   1.154  -0.487   4.900 -0.1296 -0.4042 -0.1418
  197MOL0     C25895   1.141  -0.529   5.047 -0.8295 -0.9526 -0.3177
  197MOL0     O25896   1.004  -0.565   5.071 -0.1362 -0.3878  0.1534
  197MOL0     C25897   0.965  -0.579   5.199  0.4173  0.2320 -0.6590
  197MOL0     C25898   0.997  -0.697   5.273 -0.2349 -0.9983 -0.9611
  197MOL0     C25899   0.956  -0.706   5.412  0.5323  0.4562 -0.3017
  197MOL0     C25900   0.859  -0.616   5.463 -0.6212 -0.1758  1.2519
  197MOL0     C25901   0.800  -0.632   5.599 -0.2003 -0.4999 -0.1731
  197MOL0     O25902   0.778  -0.754   5.644  0.3061  0.6184  0.2967
  197MOL0     C25903   0.714  -0.751   5.766 -1.1911 -0.2602  0.0249
  197MOL0     C25904   0.773  -0.703   5.884  0.9959  0.7143  0.0921
  197MOL0     C25905   0.708  -0.725   6.005 -0.1599 -0.4288  1.1081
  197MOL0     C25906   0.581  -0.784   6.012 -1.0344 -0.5698 -0.1512
  197MOL0     O25907   0.522  -0.789   6.137 -0.3911  0.1114  0.3536
  197MOL0     C25908   0.384  -0.817   6.151  0.0198  0.1943  0.3355
  197MOL0     C25909   0.344  -0.798   6.299 -0.1879  0.0859 -0.0891
  197MOL0     C25910   0.197  -0.778   6.326 -0.3970  0.3415 -0.2151
  197MOL0     C25911   0.096  -0.845   6.227  0.3289 -0.0463 -0.1283
  197MOL0     C25912  -0.045  -0.855   6.270 -0.2865 -0.0559 -0.3739
  197MOL0     C25913  -0.082  -0.926   6.402  0.5364  0.1487  0.5461
  197MOL0     C25914  -0.227  -0.907   6.448  0.2271 -0.5696  0.2209
  197MOL0     C25915  -0.242  -0.939   6.595  0.3750 -0.0503 -0.0064
  197MOL0    Cl25916  -0.252  -1.119   6.608  0.3926  0.1858  0.2499
  197MOL0     C25917   0.519  -0.828   5.894 -0.6842 -0.5941  0.9711
  197MOL0     C25918   0.588  -0.810   5.773  0.4085 -0.5737 -0.3125
  197MOL0     O25919   0.774  -0.525   5.653  0.0770  0.2958  0.3464
  197MOL0     C25920   0.800  -0.520   5.378 -0.6352  0.0851 -1.1209
  197MOL0     C25921   0.863  -0.496   5.253 -0.1308 -0.4532  0.9110
  197MOL0     N25922   1.535  -0.149   4.860  0.2509  0.2052 -0.6630
  197MOL0     N25923   1.640  -0.139   4.790 -0.1604 -0.1779  0.3956
  197MOL0     C25924   2.533  -0.021   4.123 -0.1639 -0.4751  0.1493
  197MOL0     C25925   2.633   0.082   4.109  0.3125  0.3461 -0.6687
  197MOL0     C25926   2.930   0.313   3.828 -0.0129  0.3912 -0.7825
  197MOL0     C25927   3.051   0.305   3.894 -0.1318  0.5052 -0.3288
  197MOL0     C25928   3.169   0.373   3.848  0.3490 -0.1199 -0.0001
  197MOL0     C25929   3.163   0.459   3.736  0.4723  0.3249 -0.4403
  197MOL0     O25930   3.279   0.519   3.705 -0.7378 -0.1946  0.0902
  197MOL0     C25931   3.291   0.573   3.574 -0.6567 -0.2417 -0.4423
  197MOL0     C25932   3.439   0.599   3.544 -0.3494 -0.2980  0.2014
  197MOL0     C25933   3.524   0.476   3.525 -0.2773  0.2274 -0.2464
  197MOL0     C25934   3.513   0.409   3.394  0.0173 -0.1733 -0.0213
  197MOL0     C25935   3.555   0.271   3.395  0.1243 -0.0152  0.8129
  197MOL0     C25936   3.594   0.156   3.407  0.8172  0.0483  0.0593
  197MOL0     C25937   3.038   0.473   3.676 -0.1006  0.1584  0.0561
  197MOL0     C25938   2.923   0.402   3.719 -0.1235  0.1643  0.7785
  197MOL0     H25939   2.798  -0.036   3.842 -2.8775  1.8197 -1.9819
  197MOL0     H25940   2.625  -0.223   3.867 -0.4755  1.7196 -0.7388
  197MOL0     H25941   2.284  -0.111   4.061 -1.3237 -1.2797 -1.1473
  197MOL0     H25942   2.333  -0.159   4.216  2.8171  0.4619 -1.9151
  197MOL0     H25943   2.254  -0.408   4.145  1.6673  0.9025 -1.3934
  197MOL0     H25944   2.178  -0.345   4.017  1.4500 -4.7235  0.5042
  197MOL0     H25945   2.055  -0.166   4.175 -1.4403  0.9419  1.7268
  197MOL0     H25946   2.122  -0.251   4.316 -1.7285 -0.2907  0.2905
  197MOL0     H25947   1.973  -0.389   4.079 -0.0780 -0.9002  0.1187
  197MOL0     H25948   2.025  -0.464   4.236  0.6483 -0.1493 -0.4742
  197MOL0     H25949   1.794  -0.445   4.252  1.4373 -0.6282  2.9454
  197MOL0     H25950   1.801  -0.275   4.200 -0.3671 -1.1453 -2.2412
  197MOL0     H25951   1.935  -0.222   4.416 -0.5682  0.7171  0.6185
  197MOL0     H25952   1.937  -0.387   4.463  1.5727  2.1605  1.1620
  197MOL0     H25953   1.698  -0.211   4.433  1.6327  0.3635  0.3446
  197MOL0     H25954   1.674  -0.378   4.473  0.9052  0.1133 -1.0800
  197MOL0     H25955   1.838  -0.197   4.670 -2.7248  1.3329  2.1725
  197MOL0     H25956   1.820  -0.372   4.669 -1.2734 -0.7690 -1.9289
  197MOL0     H25957   1.549  -0.448   4.710 -1.0574  0.2899 -1.8929
  197MOL0     H25958   1.271  -0.239   4.895 -0.2578 -0.5137 -2.0510
  197MOL0     H25959   1.361  -0.337   5.016 -2.5552  1.2294 -0.2821
  197MOL0     H25960   1.360  -0.524   4.839  2.0398  1.7652 -0.7205
  197MOL0     H25961   1.284  -0.421   4.729 -1.0500  0.1619 -0.6700
  197MOL0     H25962   1.082  -0.405   4.898  0.0391 -0.2688 -0.8463
  197MOL0     H25963   1.111  -0.569   4.841 -0.2596 -1.7798  1.7711
  197MOL0     H25964   1.178  -0.443   5.104 -1.9459 -0.0896 -0.8461
  197MOL0     H25965   1.207  -0.611   5.077 -1.4706 -1.1738  0.5397
  197MOL0     H25966   1.063  -0.778   5.245  0.8535  0.0498 -1.5005
  197MOL0     H25967   0.979  -0.786   5.481 -0.8570  0.2832 -0.0127
  197MOL0     H25968   0.871  -0.656   5.883  0.4834  1.8414 -1.6175
  197MOL0     H25969   0.749  -0.680   6.095  1.2564 -1.7096  1.1250
  197MOL0     H25970   0.369  -0.923   6.124 -0.2511 -0.0285  1.3460
  197MOL0     H25971   0.339  -0.739   6.089  0.4029 -0.7591 -1.1949
  197MOL0     H25972   0.385  -0.707   6.344  2.1530 -1.1386  0.4112
  197MOL0     H25973   0.393  -0.878   6.354  0.7094 -0.0162 -1.0038
  197MOL0     H25974   0.171  -0.672   6.331  0.1363  0.4146  1.3327
  197MOL0     H25975   0.194  -0.821   6.426  1.6086 -0.4060 -0.4488
  197MOL0     H25976   0.105  -0.786   6.135  0.7184 -0.3150 -0.2632
  197MOL0     H25977   0.129  -0.944   6.195 -1.3352 -0.1404 -1.7667
  197MOL0     H25978  -0.097  -0.905   6.187  0.4621 -1.8852  0.2040
  197MOL0     H25979  -0.074  -0.750   6.280  0.6849  0.1536  0.3738
  197MOL0     H25980  -0.025  -0.885   6.485  2.1247 -1.6785  0.4393
  197MOL0     H25981  -0.067  -1.033   6.385  0.6778  0.4748 -1.6869
  197MOL0     H25982  -0.265  -0.807   6.426  2.9743  0.6909  0.7510
  197MOL0     H25983  -0.295  -0.968   6.389 -1.2349  2.6287 -1.6859
  197MOL0     H25984  -0.331  -0.889   6.634 -1.7012 -2.0365 -1.9320
  197MOL0     H25985  -0.160  -0.899   6.656  0.5159 -0.2269 -0.0766
  197MOL0     H25986   0.423  -0.879   5.896 -0.5912 -0.8160  3.7160
  197MOL0     H25987   0.541  -0.839   5.679 -0.5746 -0.8653  0.2525
  197MOL0     H25988   0.709  -0.467   5.405 -2.0842 -1.6730 -2.2498
  197MOL0     H25989   0.811  -0.424   5.192  0.6579 -0.6319 -0.0078
  197MOL0     H25990   2.467   0.003   4.206  0.0522 -0.6480  0.3745
  197MOL0     H25991   2.650   0.168   4.173  0.8580  1.0374 -1.7251
  197MOL0     H25992   3.044   0.261   3.993  0.0335  1.0955 -0.0542
  197MOL0     H25993   3.264   0.340   3.888  0.2414 -1.9418 -1.1256
  197MOL0     H25994   3.246   0.672   3.579  0.5277  0.3306 -0.6664
  197MOL0     H25995   3.247   0.508   3.497 -0.9500 -0.3848 -0.1542
  197MOL0     H25996   3.457   0.667   3.460 -1.6725 -1.6121 -1.2128
  197MOL0     H25997   3.485   0.650   3.629 -0.7986  1.5127 -0.5907
  197MOL0     H25998   3.509   0.408   3.609  1.2691  0.0292 -0.0975
  197MOL0     H25999   3.628   0.509   3.524  0.5611 -2.2233 -0.8920
  197MOL0     H26000   3.411   0.413   3.353  0.3506 -2.8972 -1.3481
  197MOL0     H26001   3.564   0.463   3.314 -1.6698 -2.5298 -2.9346
  197MOL0     H26002   3.634   0.056   3.408  2.3146  0.6189 -0.0586
  197MOL0     H26003   3.032   0.530   3.584  1.0232  0.9841  0.4669
  197MOL0     H26004   2.831   0.416   3.663  0.4533  1.4925  0.1238
  198MOL0     O26005   1.743   5.053   0.056  0.2633  0.2682 -0.0392
  198MOL0     C26006   1.775   5.162   0.111  0.0196 -0.5474  0.8502
  198MOL0     O26007   1.691   5.265   0.138 -0.3183  0.5888  0.2105
  198MOL0     C26008   1.562   5.263   0.098 -0.3801  0.0504  0.2353
  198MOL0     C26009   1.465   5.288   0.194  0.3465  1.1655 -0.4021
  198MOL0     C26010   1.326   5.279   0.152  0.1419  0.0531 -0.5239
  198MOL0     C26011   1.305   5.240   0.017  0.0267 -0.4857 -0.0765
  198MOL0     O26012   1.179   5.252  -0.046  0.3905  0.4852 -0.2606
  198MOL0     C26013   1.061   5.288   0.042 -0.0602  0.7409 -0.1207
  198MOL0     C26014   0.944   5.275  -0.056  0.9187 -0.4608  0.4166
  198MOL0     C26015   0.961   5.358  -0.183 -0.5669 -0.1426  0.5951
  198MOL0     C26016   0.840   5.330  -0.269 -0.2231  0.6691 -0.6131
  198MOL0     C26017   0.706   5.379  -0.208 -0.2037  0.4991 -0.0915
  198MOL0     C26018   0.587   5.356  -0.304 -0.2137 -0.3348 -0.3396
  198MOL0     C26019   0.607   5.421  -0.435 -0.8990  0.5759  0.0765
  198MOL0     C26020   0.487   5.476  -0.498  0.7585  0.1323  0.1554
  198MOL0     N26021   0.384   5.378  -0.539 -0.2865  0.2432  1.1418
  198MOL0     C26022   0.263   5.349  -0.495 -0.0155 -0.2655 -0.4930
  198MOL0     C26023   0.211   5.250  -0.574  0.2542 -0.3855  0.2061
  198MOL0     C26024   0.068   5.195  -0.569 -0.1303 -0.0133 -1.0399
  198MOL0     C26025  -0.033   5.288  -0.642 -0.0759 -0.7608  0.1218
  198MOL0     C26026  -0.019   5.280  -0.795 -0.3489  0.2111  0.0764
  198MOL0     C26027  -0.147   5.301  -0.871  0.3157 -0.0296  0.0983
  198MOL0     O26028  -0.202   5.437  -0.849 -0.1589  0.6090 -0.0025
  198MOL0     C26029  -0.336   5.454  -0.878 -0.1138 -0.4102 -0.7131
  198MOL0     C26030  -0.389   5.577  -0.854  0.6044 -0.9293  0.0428
  198MOL0     C26031  -0.518   5.623  -0.899  0.4937  0.3554 -1.0879
  198MOL0     C26032  -0.581   5.535  -0.982  0.2359  0.3879  0.0947
  198MOL0     C26033  -0.710   5.571  -1.059  0.1216 -0.1477  0.8786
  198MOL0     O26034  -0.753   5.489  -1.152 -0.1975  0.4122 -0.0654
  198MOL0     C26035  -0.889   5.488  -1.187 -0.1667  0.0594  0.3832
  198MOL0     C26036  -1.003   5.509  -1.099 -0.1922 -0.6160  0.1741
  198MOL0     C26037  -1.132   5.505  -1.143  0.1887  0.5668  0.0687
  198MOL0     C26038  -1.161   5.493  -1.281 -0.8683 -0.4434  0.3594
  198MOL0     O26039  -1.290   5.497  -1.315  0.6706 -1.1152 -0.0950
  198MOL0     C26040  -1.335   5.570  -1.433  0.7422 -0.1451 -0.3456
  198MOL0     C26041  -1.467   5.638  -1.398  0.3872 -0.8114 -0.5839
  198MOL0     C26042  -1.532   5.713  -1.520  0.5098  0.4027 -0.6172
  198MOL0     C26043  -1.657   5.784  -1.462  0.6249 -0.3079  0.4010
  198MOL0     C26044  -1.746   5.821  -1.576  0.1557 -0.5066  0.4027
  198MOL0     C26045  -1.809   5.698  -1.650  0.0592  0.0429 -0.3060
  198MOL0     C26046  -1.944   5.731  -1.724 -0.4582 -1.3128  0.3528
  198MOL0     C26047  -1.919   5.783  -1.866 -0.4053  0.2896 -0.9235
  198MOL0    Cl26048  -2.075   5.839  -1.931 -0.0237  0.1415 -0.1093
  198MOL0     C26049  -1.059   5.476  -1.372  0.2014  0.1417  1.1488
  198MOL0     C26050  -0.925   5.464  -1.327 -0.0799 -0.1130  0.2594
  198MOL0     O26051  -0.771   5.668  -1.022  0.8454 -0.1411  0.1264
  198MOL0     C26052  -0.548   5.402  -0.980 -0.2959  0.8850  0.4759
  198MOL0     C26053  -0.425   5.362  -0.926 -0.1806  0.2788  0.3868
  198MOL0     N26054   0.308   5.226  -0.670  0.1092  0.4056  0.0211
  198MOL0     N26055   0.402   5.309  -0.651 -0.7584 -0.8139  0.1904
  198MOL0     C26056   1.406   5.207  -0.071 -0.4050 -0.2812 -0.2238
  198MOL0     C26057   1.538   5.224  -0.030  1.0209 -0.7069  0.4833
  198MOL0     C26058   1.917   5.189   0.139  0.6068  0.8200 -0.1688
  198MOL0     C26059   2.012   5.097   0.102 -0.8381  0.1700  0.4956
  198MOL0     C26060   2.154   5.115   0.118 -0.7885 -0.0272 -0.1221
  198MOL0     C26061   2.188   5.228   0.192  0.1987 -0.5670 -0.2666
  198MOL0     O26062   2.315   5.261   0.212  0.0532  0.2686 -0.3886
  198MOL0     C26063   2.425   5.199   0.136 -0.4487 -0.3948  0.4627
  198MOL0     C26064   2.433   5.276   0.002 -0.3286  0.3461 -0.1424
  198MOL0     C26065   2.486   5.417   0.017 -0.3113  0.2149  0.1311
  198MOL0     C26066   2.513   5.487  -0.118 -0.4699 -0.2055  0.4301
  198MOL0     C26067   2.650   5.442  -0.174 -0.1439 -0.2230 -0.7447
  198MOL0     C26068   2.753   5.404  -0.212 -0.2552 -0.1864  1.0729
  198MOL0     C26069   2.098   5.313   0.246  1.0137 -0.0356  0.0923
  198MOL0     C26070   1.964   5.295   0.216 -0.1095  0.0605  0.5952
  198MOL0     H26071   1.499   5.313   0.294  0.4844  2.0294 -0.6595
  198MOL0     H26072   1.246   5.304   0.221 -0.1673  1.2283 -1.2864
  198MOL0     H26073   1.064   5.387   0.088 -1.6968 -0.3113  2.4928
  198MOL0     H26074   1.042   5.205   0.111  1.0656 -0.0978 -0.7775
  198MOL0     H26075   0.853   5.306  -0.005  0.6473  1.1243 -0.9327
  198MOL0     H26076   0.937   5.168  -0.077  0.2434 -0.3886  0.2469
  198MOL0     H26077   1.053   5.339  -0.239 -1.6637 -1.9231 -0.6895
  198MOL0     H26078   0.971   5.466  -0.167  0.1002  0.2332 -1.8802
  198MOL0     H26079   0.853   5.396  -0.355 -1.9813 -0.2880 -1.6752
  198MOL0     H26080   0.839   5.224  -0.296  2.2708  0.8010 -1.4467
  198MOL0     H26081   0.700   5.481  -0.169 -2.0994  0.0593  0.8911
  198MOL0     H26082   0.681   5.318  -0.121  0.0349  1.3405  0.5815
  198MOL0     H26083   0.495   5.381  -0.251  1.3075  1.1718  1.7588
  198MOL0     H26084   0.579   5.247  -0.317 -1.8461 -0.3557  0.6275
  198MOL0     H26085   0.680   5.501  -0.420  0.0100 -0.0993 -0.6822
  198MOL0     H26086   0.648   5.340  -0.496  1.4217 -0.7507  3.1117
  198MOL0     H26087   0.522   5.534  -0.584 -3.2644  2.3162 -0.2742
  198MOL0     H26088   0.442   5.552  -0.434 -0.8991 -2.8464  2.7961
  198MOL0     H26089   0.218   5.395  -0.407  2.1662 -0.6978  0.9368
  198MOL0     H26090   0.041   5.183  -0.464 -1.1292  2.3955 -0.9522
  198MOL0     H26091   0.048   5.096  -0.610 -4.1584  0.2971 -0.2618
  198MOL0     H26092  -0.006   5.392  -0.619 -0.3279 -0.7710  0.4773
  198MOL0     H26093  -0.137   5.262  -0.618  0.0858 -0.8642  0.7228
  198MOL0     H26094   0.053   5.355  -0.827  0.0996 -0.0932  0.3563
  198MOL0     H26095   0.014   5.182  -0.830  0.1824  0.5283 -0.3249
  198MOL0     H26096  -0.224   5.227  -0.845  0.6165 -0.3076  0.1999
  198MOL0     H26097  -0.126   5.291  -0.977  0.6384  0.3594  0.1206
  198MOL0     H26098  -0.323   5.646  -0.803  1.6283 -3.0231  1.7115
  198MOL0     H26099  -0.550   5.726  -0.884  1.7703  0.6431 -0.1765
  198MOL0     H26100  -0.971   5.504  -0.995 -1.9217 -0.9503  0.7214
  198MOL0     H26101  -1.220   5.511  -1.078 -2.3830 -0.3063 -3.0903
  198MOL0     H26102  -1.337   5.491  -1.509 -1.4113  0.6769 -1.2112
  198MOL0     H26103  -1.264   5.646  -1.468 -1.6852  1.4007 -2.2403
  198MOL0     H26104  -1.439   5.706  -1.317  1.7444  1.4538 -2.8173
  198MOL0     H26105  -1.541   5.565  -1.361  1.5057 -1.1545  1.0974
  198MOL0     H26106  -1.555   5.638  -1.597 -1.0463 -1.4694  1.5351
  198MOL0     H26107  -1.472   5.795  -1.559  1.4421 -0.4278 -0.9837
  198MOL0     H26108  -1.723   5.721  -1.401 -0.1436 -0.3202 -0.4122
  198MOL0     H26109  -1.635   5.873  -1.403 -1.7917  1.5569 -1.3010
  198MOL0     H26110  -1.687   5.878  -1.648  0.9686  0.9386  2.1190
  198MOL0     H26111  -1.829   5.883  -1.541  0.3848 -0.1289  0.2713
  198MOL0     H26112  -1.823   5.634  -1.562  1.8773  4.7573  3.9132
  198MOL0     H26113  -1.731   5.644  -1.704  0.9298 -0.0254  0.9652
  198MOL0     H26114  -1.993   5.633  -1.731 -0.3495 -1.3230 -0.3714
  198MOL0     H26115  -2.005   5.799  -1.664 -0.4238  1.3740 -2.3877
  198MOL0     H26116  -1.876   5.716  -1.941 -1.1532 -2.4816  0.9408
  198MOL0     H26117  -1.856   5.868  -1.840 -0.5188  0.0115  0.3154
  198MOL0     H26118  -1.075   5.457  -1.478  2.3790  0.5842  0.7038
  198MOL0     H26119  -0.844   5.444  -1.396 -0.9019 -0.3539 -0.6530
  198MOL0     H26120  -0.603   5.342  -1.052 -2.1101  3.4785 -0.4671
  198MOL0     H26121  -0.392   5.259  -0.938 -1.4622 -0.4628  2.7069
  198MOL0     H26122   1.383   5.152  -0.162  1.3653 -0.3741 -0.6538
  198MOL0     H26123   1.611   5.192  -0.104 -0.2353  0.1962 -1.2090
  198MOL0     H26124   1.983   5.006   0.051 -0.6232 -1.3528  2.9370
  198MOL0     H26125   2.227   5.045   0.079 -3.3647 -1.8325 -2.0047
  198MOL0     H26126   2.419   5.091   0.122  1.4565 -1.2350  4.6969
  198MOL0     H26127   2.524   5.211   0.180 -0.2081 -2.1803  0.4791
  198MOL0     H26128   2.516   5.230  -0.052 -0.0022  2.2460 -1.3207
  198MOL0     H26129   2.338   5.265  -0.052 -0.4408 -5.2617  0.5411
  198MOL0     H26130   2.574   5.418   0.083 -0.1382 -0.1074 -0.0981
  198MOL0     H26131   2.408   5.477   0.065  1.9632  2.9249  0.7252
  198MOL0     H26132   2.431   5.476  -0.190 -1.7584  2.1682  1.4203
  198MOL0     H26133   2.513   5.594  -0.098 -1.1259  0.3461 -2.0670
  198MOL0     H26134   2.845   5.369  -0.252 -0.7896  0.4102 -0.7852
  198MOL0     H26135   2.129   5.397   0.308 -1.9850  3.9411 -3.2786
  198MOL0     H26136   1.902   5.379   0.243  0.3063  0.2151  1.0740
  199MOL0     O26137   8.116  10.811  10.784 -0.2240 -0.5208  0.6567
  199MOL0     C26138   8.100  10.884  10.688 -0.4902  0.0548  0.2022
  199MOL0     O26139   8.011  10.871  10.587  0.0911  0.1760 -1.2449
  199MOL0     C26140   7.915  10.771  10.588  1.1750 -0.3003  0.8268
  199MOL0     C26141   7.863  10.707  10.699  0.5800 -0.1501  0.4443
  199MOL0     C26142   7.755  10.617  10.696  0.1680 -0.0812 -0.8615
  199MOL0     C26143   7.701  10.584  10.571  0.0762  0.7359 -0.5263
  199MOL0     O26144   7.610  10.492  10.550  0.7505 -0.2780  0.2095
  199MOL0     C26145   7.568  10.405  10.659  0.4289  1.1442  1.2916
  199MOL0     C26146   7.439  10.338  10.608  0.0292  0.3464  0.3538
  199MOL0     C26147   7.306  10.420  10.608  0.3060 -0.3678  0.5458
  199MOL0     C26148   7.321  10.560  10.551 -0.2063 -0.0691 -0.0635
  199MOL0     C26149   7.196  10.646  10.583  0.4239  1.1209  0.4202
  199MOL0     C26150   7.057  10.566  10.554  0.1038  0.5901 -0.7028
  199MOL0     C26151   6.948  10.626  10.458  0.0370 -0.1664 -0.3440
  199MOL0     C26152   6.921  10.767  10.490  0.0303  0.4157 -0.3190
  199MOL0     N26153   6.819  10.829  10.402 -0.9068  0.0130  0.5389
  199MOL0     C26154   6.717  10.917  10.445 -0.0476  0.0432  1.0681
  199MOL0     C26155   6.659  10.960  10.332  0.5548  0.2392 -0.3568
  199MOL0     C26156   6.531  11.036  10.324  0.2769  0.8847  0.6624
  199MOL0     C26157   6.415  10.943  10.276 -0.7753 -0.2119  0.0173
  199MOL0     C26158   6.354  10.850  10.369  1.0866  0.1724  0.0252
  199MOL0     C26159   6.223  10.790  10.315 -0.4958 -0.7856  0.2516
  199MOL0     O26160   6.172  10.686  10.397  0.3823  0.3253  0.1697
  199MOL0     C26161   6.037  10.653  10.379  0.3091 -0.2102  0.0408
  199MOL0     C26162   5.986  10.557  10.471 -0.0225  0.1299 -0.6934
  199MOL0     C26163   5.853  10.514  10.456 -0.3518 -0.3683 -0.0287
  199MOL0     C26164   5.767  10.555  10.353 -1.4227 -0.5680 -0.8085
  199MOL0     C26165   5.630  10.502  10.354 -0.4217 -0.0198  0.9024
  199MOL0     O26166   5.569  10.461  10.466 -0.3483 -0.5143 -0.3619
  199MOL0     C26167   5.439  10.419  10.479 -0.5648  0.7283 -0.6326
  199MOL0     C26168   5.358  10.370  10.376 -0.1454  0.0479  0.0406
  199MOL0     C26169   5.219  10.348  10.399 -0.6981 -0.2073 -0.8705
  199MOL0     C26170   5.163  10.391  10.519  0.4589  0.2367 -1.1474
  199MOL0     O26171   5.027  10.376  10.539 -0.1860 -0.2054 -1.0216
  199MOL0     C26172   4.963  10.254  10.502 -0.1080  0.1238  0.8654
  199MOL0     C26173   4.839  10.225  10.586  0.4635  0.2447  0.6555
  199MOL0     C26174   4.869  10.219  10.741  0.4459  0.2951 -0.6360
  199MOL0     C26175   4.755  10.163  10.819  0.1613 -0.5144 -1.1022
  199MOL0     C26176   4.621  10.237  10.797  1.0328 -0.0142 -0.6449
  199MOL0     C26177   4.518  10.176  10.891 -0.1205  0.7076  0.1109
  199MOL0     C26178   4.482  10.031  10.843  0.5813 -0.6149 -0.3728
  199MOL0     C26179   4.380   9.960  10.935 -0.6540 -1.0555  0.7977
  199MOL0    Cl26180   4.372   9.790  10.867  0.2504 -0.3389 -0.1176
  199MOL0     C26181   5.240  10.448  10.621 -0.5685 -0.4315  0.6015
  199MOL0     C26182   5.379  10.464  10.598  1.2531 -0.1866 -0.5212
  199MOL0     O26183   5.583  10.501  10.241  0.0713 -0.1066  0.8985
  199MOL0     C26184   5.815  10.652  10.266 -0.7401 -0.4685  0.1536
  199MOL0     C26185   5.953  10.695  10.276 -0.1334 -0.4916  0.3111
  199MOL0     N26186   6.734  10.909  10.227 -0.2248  0.4246 -0.0221
  199MOL0     N26187   6.818  10.834  10.272  0.8269 -0.3760  0.3577
  199MOL0     C26188   7.748  10.641  10.458  0.2765 -0.4583  0.4166
  199MOL0     C26189   7.856  10.734  10.465  0.1908  0.0602 -0.5616
  199MOL0     C26190   8.193  11.000  10.680  0.7930  0.1155  0.5610
  199MOL0     C26191   8.250  11.024  10.553 -0.6189 -0.0406  0.0514
  199MOL0     C26192   8.352  11.113  10.547 -0.7490 -0.6548 -0.3916
  199MOL0     C26193   8.397  11.188  10.652  0.2340  0.0564  0.0871
  199MOL0     O26194   8.504  11.271  10.645 -0.7448 -0.8095 -0.4089
  199MOL0     C26195   8.549  11.307  10.515 -0.5650  0.7281  0.6480
  199MOL0     C26196   8.664  11.402  10.536  0.0409 -0.5270  0.2420
  199MOL0     C26197   8.776  11.337  10.625  0.1380  0.1367 -0.3030
  199MOL0     C26198   8.871  11.440  10.662 -0.4124  0.3459  0.1701
  199MOL0     C26199   8.950  11.407  10.780  0.1852  0.9234 -0.8382
  199MOL0     C26200   9.020  11.388  10.878  0.0096  0.1275  0.9684
  199MOL0     C26201   8.332  11.172  10.773 -0.7125  0.5751  0.3249
  199MOL0     C26202   8.237  11.072  10.789 -0.4894 -0.1029  0.1836
  199MOL0     H26203   7.899  10.740  10.796  1.4712  0.3999 -0.0593
  199MOL0     H26204   7.725  10.568  10.788  2.3541 -2.0743 -1.1181
  199MOL0     H26205   7.530  10.449  10.751 -3.9474 -0.3827  0.4709
  199MOL0     H26206   7.651  10.337  10.682 -0.6476 -0.4199  0.7456
  199MOL0     H26207   7.417  10.247  10.665 -1.4486  0.9829  0.8649
  199MOL0     H26208   7.450  10.293  10.509  0.3949  0.3428  0.3930
  199MOL0     H26209   7.269  10.421  10.711 -0.8546  0.2982  0.1480
  199MOL0     H26210   7.228  10.367  10.551 -2.3531  0.7204  2.9265
  199MOL0     H26211   7.410  10.614  10.584 -0.0766 -0.6590  0.5798
  199MOL0     H26212   7.336  10.559  10.443  2.2905  0.7857  0.1896
  199MOL0     H26213   7.203  10.735  10.519 -1.0534 -0.1414 -1.6646
  199MOL0     H26214   7.199  10.684  10.685  0.0372  2.1592  0.0704
  199MOL0     H26215   6.998  10.545  10.644 -1.5277 -2.2591 -2.2730
  199MOL0     H26216   7.077  10.469  10.506 -1.2283 -1.2906  2.2518
  199MOL0     H26217   6.988  10.629  10.356 -0.0350 -1.2714 -0.4123
  199MOL0     H26218   6.850  10.578  10.447 -0.5307  1.0968 -1.0304
  199MOL0     H26219   7.009  10.831  10.485  0.1297  0.5074  1.8629
  199MOL0     H26220   6.895  10.762  10.596 -3.0987  0.2178 -0.9932
  199MOL0     H26221   6.680  10.937  10.545  0.0089  0.8860  0.9241
  199MOL0     H26222   6.548  11.123  10.260  0.6196 -0.1715 -0.7569
  199MOL0     H26223   6.489  11.064  10.420 -3.0471 -1.1292 -0.0350
  199MOL0     H26224   6.446  10.888  10.186 -0.5626  1.1228 -0.7386
  199MOL0     H26225   6.341  11.015  10.240 -1.2294  1.0270  3.1379
  199MOL0     H26226   6.426  10.773  10.399 -2.3213 -2.7646  1.2909
  199MOL0     H26227   6.333  10.914  10.455  1.3817 -0.1322  0.3264
  199MOL0     H26228   6.245  10.746  10.218  1.9687 -0.1595  0.4772
  199MOL0     H26229   6.143  10.863  10.298 -1.0797 -1.4977 -0.1096
  199MOL0     H26230   6.045  10.537  10.559  0.3446  0.1441 -0.9317
  199MOL0     H26231   5.813  10.453  10.536 -0.2501 -0.6340 -0.1799
  199MOL0     H26232   5.392  10.336  10.279 -2.4318 -1.1287 -0.4137
  199MOL0     H26233   5.163  10.302  10.318 -1.7029 -0.7813  0.1329
  199MOL0     H26234   5.033  10.171  10.516  1.9559  1.7629  0.8187
  199MOL0     H26235   4.951  10.268  10.394  0.6620  1.0658  0.8935
  199MOL0     H26236   4.794  10.128  10.559 -0.0470  1.0155 -1.4465
  199MOL0     H26237   4.759  10.300  10.583 -1.2408 -1.5368 -1.6506
  199MOL0     H26238   4.893  10.318  10.781 -0.9882  0.7719 -0.8991
  199MOL0     H26239   4.948  10.146  10.756 -2.7014 -3.1327  0.9425
  199MOL0     H26240   4.745  10.059  10.789  0.9541 -0.9737  0.1282
  199MOL0     H26241   4.778  10.176  10.925 -0.9954  2.3755 -1.1034
  199MOL0     H26242   4.588  10.239  10.693 -0.4636 -1.1906 -0.2262
  199MOL0     H26243   4.635  10.343  10.821  0.4934  0.4552 -2.2800
  199MOL0     H26244   4.430  10.241  10.892 -0.0134  0.9075  2.3631
  199MOL0     H26245   4.560  10.166  10.992  0.2963  1.7204  0.0420
  199MOL0     H26246   4.452  10.045  10.739  2.1846  0.7251 -0.6962
  199MOL0     H26247   4.574   9.973  10.834  2.5308  2.3257 -0.9360
  199MOL0     H26248   4.281  10.005  10.929  0.1590  0.6491 -0.5254
  199MOL0     H26249   4.410   9.962  11.041 -5.2044 -1.2503  2.3341
  199MOL0     H26250   5.193  10.467  10.717  0.5298  3.2930  0.5830
  199MOL0     H26251   5.442  10.497  10.680  1.0992  1.1179 -0.9113
  199MOL0     H26252   5.755  10.680  10.181 -0.9355 -0.1476  0.3944
  199MOL0     H26253   5.998  10.772  10.214  3.0867 -1.5358  1.1550
  199MOL0     H26254   7.714  10.609  10.360  3.0948  1.2807 -1.2625
  199MOL0     H26255   7.893  10.782  10.375  2.3340  0.8442  0.6708
  199MOL0     H26256   8.217  10.968  10.466 -1.6965  2.1526 -1.0419
  199MOL0     H26257   8.404  11.117  10.452  1.7101 -0.1882  0.8923
  199MOL0     H26258   8.470  11.347  10.450 -0.1575 -2.7233 -2.3228
  199MOL0     H26259   8.586  11.219  10.460 -0.0056  0.1706  1.8829
  199MOL0     H26260   8.703  11.424  10.436 -2.5564  0.8267 -0.5711
  199MOL0     H26261   8.623  11.495  10.578  3.8706  1.6114 -0.3523
  199MOL0     H26262   8.823  11.259  10.565 -1.4506 -1.1915  0.0963
  199MOL0     H26263   8.736  11.293  10.717 -0.1725 -1.1162 -1.0168
  199MOL0     H26264   8.944  11.463  10.585  2.0041 -1.2401  1.8366
  199MOL0     H26265   8.811  11.519  10.707  1.6207  0.6455  2.5762
  199MOL0     H26266   9.089  11.382  10.960 -0.9941 -1.5580  1.7721
  199MOL0     H26267   8.366  11.221  10.864  1.9695 -2.1072  0.9204
  199MOL0     H26268   8.216  11.054  10.894  2.2706 -0.8835  0.6864
  200MOL0     O26269   8.585   7.693   4.598 -0.0783  0.0057  0.2544
  200MOL0     C26270   8.597   7.772   4.505 -0.7517 -1.0051 -0.7613
  200MOL0     O26271   8.500   7.812   4.417 -0.0893 -0.0840  0.8259
  200MOL0     C26272   8.375   7.751   4.432  0.4518  0.1875  0.2409
  200MOL0     C26273   8.258   7.817   4.428  0.3982  0.8399  0.5053
  200MOL0     C26274   8.132   7.749   4.444 -0.3972  0.3988  1.1561
  200MOL0     C26275   8.121   7.617   4.446  0.3072  0.7087 -0.0461
  200MOL0     O26276   8.000   7.547   4.451 -0.0961  0.3878  0.3482
  200MOL0     C26277   7.894   7.614   4.388 -0.5927 -0.2253 -0.2687
  200MOL0     C26278   7.768   7.530   4.366 -1.0824 -0.3496  0.2420
  200MOL0     C26279   7.665   7.622   4.306 -0.7403 -0.2693  0.3553
  200MOL0     C26280   7.545   7.535   4.264 -0.1129 -0.4637  0.0056
  200MOL0     C26281   7.413   7.601   4.216  0.1727 -1.0579  0.3588
  200MOL0     C26282   7.304   7.496   4.187 -0.4349 -0.6095  0.0191
  200MOL0     C26283   7.174   7.567   4.156 -1.0325  0.5706  0.0530
  200MOL0     C26284   7.085   7.587   4.271 -0.7485 -0.4848 -1.1634
  200MOL0     N26285   6.952   7.643   4.220  0.5578  0.7010 -0.8830
  200MOL0     C26286   6.856   7.555   4.171  0.0032 -0.8457 -0.8574
  200MOL0     C26287   6.747   7.623   4.166 -0.2829 -0.9380  0.2363
  200MOL0     C26288   6.613   7.562   4.117  0.0593  0.0853  0.6147
  200MOL0     C26289   6.564   7.452   4.213  0.1217  0.9958  0.1533
  200MOL0     C26290   6.447   7.485   4.302  0.0326  0.4133  0.0202
  200MOL0     C26291   6.474   7.628   4.360  0.4772 -0.1830 -0.3738
  200MOL0     O26292   6.404   7.649   4.484  0.6426  0.6205  0.2757
  200MOL0     C26293   6.263   7.653   4.479  0.3408  0.7609 -0.3270
  200MOL0     C26294   6.174   7.700   4.381  0.3258  0.5636  0.2504
  200MOL0     C26295   6.032   7.693   4.402 -0.6209  0.4886  0.4182
  200MOL0     C26296   5.974   7.656   4.526 -0.0819  0.5696  0.6315
  200MOL0     C26297   5.831   7.652   4.547 -0.3564 -0.2702 -0.2648
  200MOL0     O26298   5.785   7.607   4.676 -0.2624  0.0692 -0.3401
  200MOL0     C26299   5.651   7.610   4.710  0.2360  0.8994  0.4086
  200MOL0     C26300   5.634   7.581   4.843 -0.6685 -0.0810 -0.1515
  200MOL0     C26301   5.505   7.567   4.897 -0.5986  0.1333  0.3875
  200MOL0     C26302   5.388   7.605   4.816 -0.9303 -0.2765 -0.0683
  200MOL0     O26303   5.267   7.587   4.876 -0.1715  0.5605  0.2115
  200MOL0     C26304   5.157   7.521   4.801  0.1682 -0.4538  0.5607
  200MOL0     C26305   5.067   7.450   4.905 -0.2362  0.1952 -0.6166
  200MOL0     C26306   4.948   7.386   4.837  0.6368  0.1781  0.5035
  200MOL0     C26307   4.846   7.332   4.936 -0.5733  0.0511  0.1348
  200MOL0     C26308   4.794   7.435   5.035 -1.1887 -0.1731 -0.6535
  200MOL0     C26309   4.682   7.394   5.130 -0.6765 -0.3858  0.4809
  200MOL0     C26310   4.638   7.508   5.221  0.2716  0.2390 -0.4885
  200MOL0     C26311   4.532   7.469   5.329 -0.9138  0.3620 -0.0646
  200MOL0    Cl26312   4.533   7.582   5.462  0.5238  0.2031 -0.2436
  200MOL0     C26313   5.409   7.643   4.686  0.7630  0.4803  0.1937
  200MOL0     C26314   5.539   7.638   4.632  0.7165  0.2220  0.4403
  200MOL0     O26315   5.758   7.706   4.458 -0.6408 -0.1745  0.7760
  200MOL0     C26316   6.063   7.616   4.617  0.2648  0.2666 -0.3091
  200MOL0     C26317   6.205   7.619   4.600 -0.8752  0.4266  0.0596
  200MOL0     N26318   6.764   7.746   4.232  0.1784  0.6092 -0.8622
  200MOL0     N26319   6.883   7.748   4.270  0.5314  0.1802 -0.9446
  200MOL0     C26320   8.235   7.549   4.440  0.1285 -0.1695 -0.2613
  200MOL0     C26321   8.365   7.606   4.430  0.4662 -0.1267 -0.1333
  200MOL0     C26322   8.732   7.850   4.483 -0.3464 -0.1037  0.0556
  200MOL0     C26323   8.750   7.961   4.388  0.2197  0.0775 -0.2569
  200MOL0     C26324   8.876   8.014   4.372 -1.1977 -0.0737  0.7374
  200MOL0     C26325   8.994   7.969   4.439  1.0286  0.3287  0.7872
  200MOL0     O26326   9.112   8.018   4.406  0.5096  0.0454  0.1995
  200MOL0     C26327   9.244   7.959   4.442  0.0088  0.2527  0.2831
  200MOL0     C26328   9.355   8.017   4.350 -1.0156  0.1884  0.1474
  200MOL0     C26329   9.431   8.128   4.414  0.6259 -0.5369 -0.3049
  200MOL0     C26330   9.543   8.185   4.325  0.1471  0.0744 -0.9252
  200MOL0     C26331   9.663   8.112   4.336  0.0988  0.2677 -0.0894
  200MOL0     C26332   9.750   8.029   4.354 -0.7288  0.1608 -0.2209
  200MOL0     C26333   8.981   7.856   4.527 -0.0985  0.0004  0.4621
  200MOL0     C26334   8.847   7.803   4.546  0.1427  0.5370 -0.4025
  200MOL0     H26335   8.248   7.924   4.411  1.2694  0.6801 -1.1956
  200MOL0     H26336   8.042   7.809   4.448 -1.1389 -0.3628 -1.7243
  200MOL0     H26337   7.921   7.644   4.286 -2.7621  1.4910 -0.4135
  200MOL0     H26338   7.865   7.706   4.439  1.1118  0.0237  0.3034
  200MOL0     H26339   7.739   7.476   4.457  0.3330  1.4103  1.8392
  200MOL0     H26340   7.792   7.456   4.289  0.0020  2.2831 -2.1109
  200MOL0     H26341   7.700   7.679   4.220  0.0301 -0.8310  0.2867
  200MOL0     H26342   7.625   7.691   4.381  1.1559 -2.0471  3.2221
  200MOL0     H26343   7.577   7.477   4.177  0.5920  2.0262 -1.5122
  200MOL0     H26344   7.524   7.466   4.346 -0.2242  0.8635  1.1241
  200MOL0     H26345   7.436   7.657   4.124  1.0506 -2.4559 -0.3116
  200MOL0     H26346   7.369   7.666   4.292  0.8469  1.6544 -1.3940
  200MOL0     H26347   7.287   7.438   4.278  1.6452  0.9354  1.4936
  200MOL0     H26348   7.336   7.438   4.099 -0.1383 -1.1180  0.4541
  200MOL0     H26349   7.194   7.658   4.099  1.0779 -0.2427 -0.6312
  200MOL0     H26350   7.111   7.512   4.085  1.1994 -2.0342 -0.1044
  200MOL0     H26351   7.124   7.645   4.355 -5.2593 -0.0126  0.8871
  200MOL0     H26352   7.071   7.490   4.320  1.7003 -0.8016 -0.9825
  200MOL0     H26353   6.868   7.449   4.155  0.3548 -0.9716  0.1304
  200MOL0     H26354   6.643   7.519   4.021 -0.6072  2.0841 -0.5460
  200MOL0     H26355   6.541   7.637   4.083 -0.2942 -1.4466 -2.2439
  200MOL0     H26356   6.642   7.403   4.273 -0.1792 -0.9483 -0.9491
  200MOL0     H26357   6.523   7.374   4.147 -1.8520  0.4793  1.8710
  200MOL0     H26358   6.354   7.484   4.245 -0.4041 -3.0561  0.5974
  200MOL0     H26359   6.437   7.403   4.373  0.5027 -0.9341 -1.4190
  200MOL0     H26360   6.447   7.702   4.285 -0.4029  0.6641  0.7375
  200MOL0     H26361   6.580   7.645   4.378  0.3056  2.0916 -1.1669
  200MOL0     H26362   6.219   7.735   4.288 -0.4960 -1.3804 -0.9617
  200MOL0     H26363   5.975   7.729   4.318  0.9101  1.3232 -0.2984
  200MOL0     H26364   5.727   7.571   4.898 -0.2900 -0.2794 -0.8229
  200MOL0     H26365   5.503   7.532   4.999 -1.1046  1.4735  0.8592
  200MOL0     H26366   5.201   7.445   4.736 -0.1365 -2.6976  2.8331
  200MOL0     H26367   5.104   7.594   4.738 -0.6838  0.3153  2.1224
  200MOL0     H26368   5.034   7.522   4.981 -0.7709 -1.4138  0.7404
  200MOL0     H26369   5.113   7.369   4.962 -0.7516 -0.2027 -0.7638
  200MOL0     H26370   4.983   7.307   4.770  1.5021  0.7185  0.3049
  200MOL0     H26371   4.900   7.465   4.779 -1.5344 -1.5861 -0.2379
  200MOL0     H26372   4.760   7.281   4.892 -1.6144 -3.2350  5.1425
  200MOL0     H26373   4.893   7.258   5.002 -0.7409  0.2184  0.4439
  200MOL0     H26374   4.766   7.518   4.970 -3.1465  0.4763  0.8776
  200MOL0     H26375   4.871   7.478   5.100 -0.7025  1.9638 -2.5053
  200MOL0     H26376   4.703   7.302   5.185 -0.3162 -0.4190  0.2920
  200MOL0     H26377   4.598   7.355   5.071 -2.4587  1.9263  1.3553
  200MOL0     H26378   4.717   7.566   5.269 -1.4888 -0.7171  4.0704
  200MOL0     H26379   4.583   7.574   5.153 -0.4713  0.7932  0.6188
  200MOL0     H26380   4.551   7.368   5.365 -0.3609  0.6610  0.4930
  200MOL0     H26381   4.432   7.476   5.285 -1.6965  1.9582  1.8319
  200MOL0     H26382   5.324   7.677   4.628  1.6493 -0.5102 -1.7944
  200MOL0     H26383   5.547   7.666   4.528 -4.0748  1.1894  0.0918
  200MOL0     H26384   6.028   7.581   4.714  0.3861 -3.1678 -1.3412
  200MOL0     H26385   6.273   7.585   4.677 -0.4632  2.5586  0.7165
  200MOL0     H26386   8.231   7.442   4.459  1.5587  0.4804  5.4311
  200MOL0     H26387   8.455   7.547   4.415 -0.8935 -2.0934 -1.0263
  200MOL0     H26388   8.672   7.992   4.319  1.3382  0.8947 -1.1893
  200MOL0     H26389   8.878   8.098   4.303  2.6444  0.4799  1.2708
  200MOL0     H26390   9.237   7.851   4.424 -1.4835  0.1856  1.0902
  200MOL0     H26391   9.273   7.971   4.547 -1.4766 -2.1420  1.0510
  200MOL0     H26392   9.431   7.941   4.329 -0.0616  1.1905 -0.1196
  200MOL0     H26393   9.312   8.050   4.255  0.3412  4.3808  0.7915
  200MOL0     H26394   9.459   8.093   4.513 -2.5996 -0.3310  0.7647
  200MOL0     H26395   9.359   8.208   4.429 -1.0092 -1.9643 -0.2940
  200MOL0     H26396   9.516   8.186   4.220 -0.0096 -3.0992 -1.0318
  200MOL0     H26397   9.559   8.287   4.361 -0.9300  0.0118 -0.1965
  200MOL0     H26398   9.828   7.960   4.380 -0.6610  0.6233  0.8750
  200MOL0     H26399   9.067   7.808   4.572 -0.8693 -1.0306  0.8798
  200MOL0     H26400   8.837   7.715   4.610 -0.0166 -0.6523 -1.9883
  201MOL0     O26401   9.929   8.808   3.715 -0.2069  0.0421  0.6246
  201MOL0     C26402   9.941   8.769   3.829  1.2020  0.5389  0.3413
  201MOL0     O26403   9.841   8.716   3.906  0.3038  0.1500  0.9941
  201MOL0     C26404   9.714   8.701   3.854  0.0965 -0.8246 -0.3036
  201MOL0     C26405   9.660   8.697   3.721 -0.3241 -0.4953 -0.3221
  201MOL0     C26406   9.516   8.678   3.708  1.0670 -0.1406 -0.4384
  201MOL0     C26407   9.433   8.666   3.822  0.1125 -0.1855  0.1914
  201MOL0     O26408   9.301   8.651   3.794 -0.6954 -0.6130  0.5189
  201MOL0     C26409   9.230   8.774   3.825 -0.8608 -0.1783 -0.1263
  201MOL0     C26410   9.125   8.822   3.726  0.3521  0.6828 -0.0373
  201MOL0     C26411   9.001   8.730   3.690 -0.7711  0.0060  0.2401
  201MOL0     C26412   8.873   8.806   3.676  0.0651  0.7857 -0.2970
  201MOL0     C26413   8.754   8.727   3.731  0.0104 -0.1571 -0.1956
  201MOL0     C26414   8.680   8.657   3.624 -0.6267  0.6569  0.2268
  201MOL0     C26415   8.550   8.608   3.682 -0.2245 -0.1492  0.6068
  201MOL0     C26416   8.475   8.542   3.570  0.3143 -0.1964  0.3939
  201MOL0     N26417   8.350   8.496   3.632  0.1172 -0.0159 -0.2571
  201MOL0     C26418   8.329   8.364   3.677 -0.6594  0.1784 -0.3758
  201MOL0     C26419   8.198   8.359   3.706 -0.1582  0.8457  0.2785
  201MOL0     C26420   8.109   8.245   3.754 -0.3989 -0.5089 -0.1339
  201MOL0     C26421   8.051   8.156   3.642 -0.0834 -0.1587 -0.0163
  201MOL0     C26422   7.922   8.084   3.684  0.7898 -0.2279 -0.2244
  201MOL0     C26423   7.957   7.947   3.757 -0.6070 -0.0021  0.5221
  201MOL0     O26424   7.856   7.883   3.833  0.1925 -0.5066  0.3274
  201MOL0     C26425   7.755   7.813   3.779  0.1352  0.7428 -0.5980
  201MOL0     C26426   7.679   7.750   3.877 -0.2428 -0.9212 -0.0708
  201MOL0     C26427   7.582   7.660   3.851 -0.8409 -0.2520 -0.0364
  201MOL0     C26428   7.557   7.625   3.715 -0.2571 -0.6990  0.4707
  201MOL0     C26429   7.448   7.530   3.685  0.0566 -0.2621 -0.7822
  201MOL0     O26430   7.395   7.542   3.561 -0.5732 -0.6770 -0.2643
  201MOL0     C26431   7.293   7.455   3.517  0.4728 -0.2013  0.5828
  201MOL0     C26432   7.262   7.326   3.570 -0.3018  0.8492 -0.4035
  201MOL0     C26433   7.166   7.240   3.518 -0.1593 -0.5037 -0.1378
  201MOL0     C26434   7.087   7.286   3.411  0.6236  1.4537  0.1124
  201MOL0     O26435   6.986   7.205   3.355 -0.3437  0.4384  0.1523
  201MOL0     C26436   7.021   7.071   3.312  0.3367 -0.6781 -0.8888
  201MOL0     C26437   6.941   7.023   3.201  0.0168  0.2780  0.5117
  201MOL0     C26438   6.991   7.083   3.079  0.1611 -0.4126  1.0268
  201MOL0     C26439   6.888   7.047   2.967  0.0166 -0.8525  0.2649
  201MOL0     C26440   6.916   7.122   2.839 -0.0991  0.2335 -0.7039
  201MOL0     C26441   6.823   7.074   2.729  0.4001  0.3199 -0.7067
  201MOL0     C26442   6.876   7.118   2.590 -0.0831  0.3993 -1.2690
  201MOL0     C26443   6.761   7.098   2.488 -0.2534  0.8774  0.2763
  201MOL0    Cl26444   6.828   7.052   2.328 -0.2513  0.3021 -0.6577
  201MOL0     C26445   7.114   7.405   3.350  0.6130 -0.7575  0.9205
  201MOL0     C26446   7.212   7.493   3.406  0.0811  0.0352  0.3773
  201MOL0     O26447   7.417   7.444   3.760  0.1553 -0.6249 -0.7026
  201MOL0     C26448   7.637   7.684   3.613  0.7315  1.0360 -0.2948
  201MOL0     C26449   7.738   7.776   3.647 -1.7108  0.7132 -0.4547
  201MOL0     N26450   8.142   8.477   3.677 -0.0432 -0.0610  0.0777
  201MOL0     N26451   8.232   8.557   3.625  0.0191 -0.2670  0.1336
  201MOL0     C26452   9.486   8.662   3.944 -1.1506 -0.4411 -0.6758
  201MOL0     C26453   9.622   8.681   3.964 -0.1915  0.6119 -0.6525
  201MOL0     C26454  10.074   8.759   3.888  0.2105  0.2817  0.5209
  201MOL0     C26455  10.086   8.727   4.027 -0.0485 -1.0334 -0.2135
  201MOL0     C26456  10.214   8.727   4.090  0.5310  0.2735  0.4489
  201MOL0     C26457  10.325   8.737   4.012  0.0930  0.7476 -0.2907
  201MOL0     O26458  10.443   8.714   4.070 -0.0790 -0.0841  0.0613
  201MOL0     C26459  10.467   8.577   4.114 -0.9460  0.2175 -0.3553
  201MOL0     C26460  10.586   8.585   4.195 -0.1891  0.3019 -0.0598
  201MOL0     C26461  10.614   8.444   4.248  0.3123 -0.3143  0.8941
  201MOL0     C26462  10.766   8.445   4.296  0.1685 -0.4429 -0.4356
  201MOL0     C26463  10.866   8.469   4.191 -0.3042  0.2408  0.6812
  201MOL0     C26464  10.949   8.484   4.104 -0.2334  0.0962  0.0197
  201MOL0     C26465  10.320   8.747   3.878 -0.3836 -0.3420  0.2920
  201MOL0     C26466  10.190   8.756   3.815 -0.3389  0.0706 -0.2640
  201MOL0     H26467   9.724   8.720   3.637 -2.9039  2.5078 -1.6747
  201MOL0     H26468   9.474   8.674   3.608  0.8322 -3.1005 -0.3287
  201MOL0     H26469   9.297   8.857   3.847 -0.6977 -0.8305  2.1386
  201MOL0     H26470   9.177   8.752   3.918  0.6379 -4.0014  0.0018
  201MOL0     H26471   9.181   8.855   3.639  0.4649  0.3082 -0.1103
  201MOL0     H26472   9.089   8.908   3.782 -0.8384  0.6030 -0.6458
  201MOL0     H26473   8.995   8.660   3.775 -0.3865 -1.1121 -0.6259
  201MOL0     H26474   9.018   8.660   3.608 -0.0289  0.8374 -0.3265
  201MOL0     H26475   8.886   8.898   3.734 -1.1107  0.1539  1.0363
  201MOL0     H26476   8.846   8.832   3.573 -1.9343  0.5957  0.1509
  201MOL0     H26477   8.680   8.795   3.774 -1.8037 -0.1548 -3.0091
  201MOL0     H26478   8.778   8.653   3.807 -2.6056 -1.6826 -0.7175
  201MOL0     H26479   8.730   8.573   3.576 -0.6591  0.2838  0.8280
  201MOL0     H26480   8.662   8.735   3.550 -0.3627  0.2573 -0.2651
  201MOL0     H26481   8.565   8.531   3.758  1.0084 -0.9314 -0.3886
  201MOL0     H26482   8.494   8.690   3.728  2.2908  1.2775  1.3333
  201MOL0     H26483   8.538   8.466   3.524 -0.7707 -1.9767  1.7151
  201MOL0     H26484   8.447   8.611   3.490  0.3737 -2.7044 -1.9323
  201MOL0     H26485   8.404   8.285   3.676 -0.6404 -0.2308 -6.6965
  201MOL0     H26486   8.025   8.292   3.806 -0.5391  0.2979 -1.0561
  201MOL0     H26487   8.160   8.179   3.824  1.9523  1.2181 -0.0783
  201MOL0     H26488   8.124   8.082   3.606 -1.6626 -1.4075 -0.7906
  201MOL0     H26489   8.023   8.221   3.560 -1.1866 -0.9350 -0.2737
  201MOL0     H26490   7.861   8.143   3.753 -3.2643 -2.2264 -1.7586
  201MOL0     H26491   7.857   8.067   3.597  0.5661 -0.6708  0.0276
  201MOL0     H26492   8.039   7.970   3.825  0.0172  0.2551 -0.2954
  201MOL0     H26493   7.989   7.881   3.675  3.8054  1.5092  0.7604
  201MOL0     H26494   7.679   7.786   3.979 -2.7564  1.1041 -0.6484
  201MOL0     H26495   7.517   7.620   3.928 -0.6184  1.1416  0.9023
  201MOL0     H26496   7.325   7.286   3.648  0.5509  2.1304 -0.4108
  201MOL0     H26497   7.148   7.141   3.560 -0.8996  0.5511  2.1846
  201MOL0     H26498   7.011   7.006   3.399  2.7251 -0.7843 -0.6182
  201MOL0     H26499   7.125   7.063   3.278  0.8158 -0.7891  0.5640
  201MOL0     H26500   6.833   7.041   3.208 -0.5279 -1.7672 -1.5593
  201MOL0     H26501   6.964   6.918   3.184 -1.0757  0.0094  0.6121
  201MOL0     H26502   7.086   7.036   3.052  0.2394  0.0456  0.4885
  201MOL0     H26503   6.990   7.192   3.089 -3.5182 -0.0285 -1.4957
  201MOL0     H26504   6.899   6.940   2.949 -2.8254 -1.1883  0.0574
  201MOL0     H26505   6.783   7.062   2.993  0.1835  1.1750 -0.0701
  201MOL0     H26506   7.017   7.093   2.809  1.0985  1.4593  1.8046
  201MOL0     H26507   6.909   7.231   2.843  1.5652  0.3666 -0.7222
  201MOL0     H26508   6.723   7.107   2.757  0.7914  0.4727  0.6142
  201MOL0     H26509   6.807   6.966   2.729 -3.7805  0.6718  2.4597
  201MOL0     H26510   6.910   7.222   2.593  2.0907 -0.2855  0.9447
  201MOL0     H26511   6.962   7.056   2.562 -0.6350 -0.7345 -0.5463
  201MOL0     H26512   6.718   7.197   2.472  0.4347  1.5951  2.4713
  201MOL0     H26513   6.679   7.034   2.524 -1.1756  2.0872  0.3860
  201MOL0     H26514   7.047   7.433   3.269  0.9328  2.5942  1.6733
  201MOL0     H26515   7.237   7.591   3.367 -2.1877  0.3662 -0.3805
  201MOL0     H26516   7.624   7.657   3.508  1.0807 -0.8683  0.1190
  201MOL0     H26517   7.803   7.807   3.566 -1.4605 -3.4836 -2.0763
  201MOL0     H26518   9.434   8.650   4.039  2.2873 -0.2226  1.4043
  201MOL0     H26519   9.663   8.690   4.064 -3.8982  0.7749  0.9911
  201MOL0     H26520   9.999   8.706   4.087 -0.5775 -0.6750 -0.8473
  201MOL0     H26521  10.235   8.717   4.196 -1.8579 -2.3815  0.8315
  201MOL0     H26522  10.472   8.513   4.026  0.2441  1.6862 -1.4198
  201MOL0     H26523  10.385   8.536   4.174 -0.0198 -1.5493 -0.2333
  201MOL0     H26524  10.669   8.625   4.135  0.8419 -1.7492 -0.1291
  201MOL0     H26525  10.574   8.653   4.280  0.6220  0.4582 -0.0584
  201MOL0     H26526  10.600   8.372   4.167  0.0762  0.8275 -0.1111
  201MOL0     H26527  10.537   8.422   4.323  0.0686 -2.5241  0.0472
  201MOL0     H26528  10.784   8.527   4.366  0.2780 -1.3572  0.6184
  201MOL0     H26529  10.790   8.346   4.336  3.7034 -0.5355 -2.3812
  201MOL0     H26530  11.020   8.495   4.024  1.8625 -0.4173  1.6920
  201MOL0     H26531  10.405   8.747   3.811 -2.7879 -0.4526 -3.0113
  201MOL0     H26532  10.176   8.745   3.708 -2.6503  1.0743 -0.1224
  202MOL0     O26533   2.229  11.080   2.435  0.7938  0.7372 -0.3363
  202MOL0     C26534   2.289  11.141   2.526  0.9055  0.0286  0.1833
  202MOL0     O26535   2.236  11.156   2.642  0.1688 -0.1690 -0.0111
  202MOL0     C26536   2.123  11.106   2.701 -0.0981 -0.7587  0.8044
  202MOL0     C26537   2.096  11.162   2.825  0.3396 -0.0944 -0.6446
  202MOL0     C26538   1.978  11.131   2.897  0.2700 -0.0760 -0.9211
  202MOL0     C26539   1.891  11.031   2.851 -0.3732  0.4444  0.4647
  202MOL0     O26540   1.781  10.985   2.923 -0.2587  0.4513 -0.0431
  202MOL0     C26541   1.825  10.934   3.049  0.1563 -0.4593 -0.9174
  202MOL0     C26542   1.738  10.833   3.127 -0.5268  0.2634 -0.1088
  202MOL0     C26543   1.594  10.870   3.171  0.9894  0.0945  0.0067
  202MOL0     C26544   1.510  10.750   3.206  0.5817 -0.1408  0.2053
  202MOL0     C26545   1.361  10.779   3.210 -0.0855  0.0170 -0.5895
  202MOL0     C26546   1.276  10.657   3.239  0.1634 -0.2465  0.3551
  202MOL0     C26547   1.134  10.700   3.241  0.3153  0.5593  0.1775
  202MOL0     C26548   1.074  10.734   3.374  0.3450 -0.1593  0.6101
  202MOL0     N26549   0.924  10.778   3.369 -0.3662 -0.4374 -1.0855
  202MOL0     C26550   0.845  10.842   3.465  0.2559  0.2001  0.0005
  202MOL0     C26551   0.718  10.844   3.421 -0.0274  0.0634 -0.1737
  202MOL0     C26552   0.596  10.884   3.511 -0.0502  0.0262  0.0485
  202MOL0     C26553   0.469  10.928   3.430 -0.5669 -0.1110 -0.0480
  202MOL0     C26554   0.389  10.826   3.355  0.1623 -0.6746  0.5765
  202MOL0     C26555   0.283  10.893   3.268  0.1374 -0.2237 -0.1135
  202MOL0     O26556   0.180  10.799   3.224 -0.2556 -0.3779  0.1373
  202MOL0     C26557   0.048  10.850   3.196 -0.5924  0.6953 -0.0472
  202MOL0     C26558   0.024  10.984   3.154  0.8006 -1.0540  0.3783
  202MOL0     C26559  -0.111  11.026   3.132 -0.1827 -0.2497 -0.3696
  202MOL0     C26560  -0.213  10.928   3.145  1.0883 -0.5153 -0.3697
  202MOL0     C26561  -0.364  10.971   3.149 -0.7668 -0.2659  0.8190
  202MOL0     O26562  -0.381  11.093   3.094 -0.5153 -0.7477 -0.0669
  202MOL0     C26563  -0.505  11.154   3.078  0.5426 -0.3179 -0.8474
  202MOL0     C26564  -0.504  11.286   3.043 -0.0566 -0.6808  0.1257
  202MOL0     C26565  -0.628  11.359   3.028  0.4862 -0.7084 -0.9502
  202MOL0     C26566  -0.745  11.296   3.071 -0.4212  0.4419  1.0068
  202MOL0     O26567  -0.845  11.388   3.075 -0.2261 -0.2228  0.7955
  202MOL0     C26568  -0.982  11.338   3.099 -0.5161  0.0522  0.2887
  202MOL0     C26569  -1.042  11.461   3.152  0.3483  0.5076 -0.1795
  202MOL0     C26570  -1.187  11.435   3.190  0.4599 -0.3963  0.1611
  202MOL0     C26571  -1.282  11.400   3.083  0.5018 -0.3035 -0.6572
  202MOL0     C26572  -1.427  11.417   3.130 -0.4923 -0.5633 -0.8155
  202MOL0     C26573  -1.534  11.342   3.049 -0.7036  1.3151 -0.1703
  202MOL0     C26574  -1.672  11.381   3.096  1.0957 -0.2128  0.4740
  202MOL0     C26575  -1.778  11.287   3.038 -0.1429 -0.6274  0.2829
  202MOL0    Cl26576  -1.929  11.375   3.007  0.4125 -0.1504 -0.3223
  202MOL0     C26577  -0.752  11.163   3.090 -1.1810 -0.4819  0.6094
  202MOL0     C26578  -0.629  11.086   3.088  0.7792 -0.4352 -0.2183
  202MOL0     O26579  -0.446  10.895   3.188  0.2733  0.5757  0.0830
  202MOL0     C26580  -0.184  10.798   3.174 -1.0351  0.0283 -0.5104
  202MOL0     C26581  -0.050  10.758   3.199  0.2761  0.6042 -0.3199
  202MOL0     N26582   0.717  10.766   3.310  0.2942  0.2024  0.3353
  202MOL0     N26583   0.841  10.729   3.278  0.2929 -0.2973  0.4179
  202MOL0     C26584   1.914  10.976   2.718 -0.4780  0.2145  0.3626
  202MOL0     C26585   2.022  11.024   2.643  0.0396  0.3044 -0.3016
  202MOL0     C26586   2.422  11.186   2.505 -0.4690 -0.7792  0.3767
  202MOL0     C26587   2.486  11.180   2.379 -0.0371  0.6750 -0.9946
  202MOL0     C26588   2.601  11.259   2.357 -1.0939  0.1449  0.2771
  202MOL0     C26589   2.653  11.349   2.455  0.1912 -0.6823  0.7571
  202MOL0     O26590   2.757  11.430   2.415 -0.2386 -0.3067  0.0394
  202MOL0     C26591   2.814  11.491   2.524 -0.3955 -0.7147 -0.6220
  202MOL0     C26592   2.942  11.564   2.477  0.0150 -0.1232 -0.4254
  202MOL0     C26593   3.059  11.467   2.449  0.6801 -0.0200 -0.1051
  202MOL0     C26594   3.186  11.553   2.422  0.3837  0.5517 -1.1937
  202MOL0     C26595   3.303  11.467   2.413 -0.2383  0.5065  0.1777
  202MOL0     C26596   3.399  11.392   2.414 -0.2526 -0.4006  0.7542
  202MOL0     C26597   2.576  11.354   2.577 -0.4880 -0.3122 -0.6498
  202MOL0     C26598   2.476  11.272   2.602  0.2993 -1.2664  0.4261
  202MOL0     H26599   2.167  11.229   2.872 -0.6499  0.1522  0.5492
  202MOL0     H26600   1.965  11.177   2.995  0.9456 -4.1007  1.2800
  202MOL0     H26601   1.865  11.012   3.114  0.7337 -0.8046 -0.8529
  202MOL0     H26602   1.912  10.875   3.021 -1.4879 -2.2735 -2.4959
  202MOL0     H26603   1.799  10.806   3.214  1.3348  1.1649 -1.0706
  202MOL0     H26604   1.725  10.745   3.063  2.6565 -0.0481 -0.5175
  202MOL0     H26605   1.557  10.929   3.086 -1.0349  1.4853  1.7630
  202MOL0     H26606   1.597  10.936   3.258 -1.8697 -2.0231  1.8772
  202MOL0     H26607   1.520  10.669   3.134 -1.3547 -1.6500  1.5193
  202MOL0     H26608   1.539  10.711   3.304 -2.8484  0.3437  1.5402
  202MOL0     H26609   1.330  10.836   3.123 -1.3307  1.1626  0.5509
  202MOL0     H26610   1.352  10.844   3.297  0.6330  0.8178 -1.1033
  202MOL0     H26611   1.312  10.600   3.325  1.0795 -2.9447 -1.6714
  202MOL0     H26612   1.284  10.594   3.150  0.6539  2.5539 -1.7333
  202MOL0     H26613   1.118  10.785   3.174 -2.2917 -0.0549 -0.1054
  202MOL0     H26614   1.074  10.623   3.191  0.7164  0.1726  0.2889
  202MOL0     H26615   1.131  10.819   3.414 -1.6427  0.6608  1.8458
  202MOL0     H26616   1.084  10.646   3.437  1.4116  0.0552  0.7639
  202MOL0     H26617   0.897  10.875   3.554  0.3351  1.0812 -0.3689
  202MOL0     H26618   0.623  10.974   3.568  1.2671 -0.9021  0.9317
  202MOL0     H26619   0.583  10.807   3.586 -0.7447  1.0262  0.9839
  202MOL0     H26620   0.502  11.012   3.369 -0.7655  0.8619  1.1300
  202MOL0     H26621   0.410  10.987   3.501  1.2936  1.4096  0.3174
  202MOL0     H26622   0.456  10.787   3.278 -0.0567  1.4005 -0.7359
  202MOL0     H26623   0.348  10.746   3.418 -0.5253  1.3712  2.9207
  202MOL0     H26624   0.332  10.945   3.185  2.8365 -0.4034  1.2640
  202MOL0     H26625   0.244  10.976   3.328  2.5756  1.1217 -0.2490
  202MOL0     H26626   0.101  11.060   3.140  0.7048 -0.7854  1.2278
  202MOL0     H26627  -0.133  11.130   3.112 -1.3044 -0.8307 -2.4188
  202MOL0     H26628  -0.410  11.338   3.031 -1.4973  2.1632  0.3047
  202MOL0     H26629  -0.616  11.463   3.001 -2.3140 -0.2922 -0.7741
  202MOL0     H26630  -0.984  11.264   3.179 -0.1942  0.5910  0.8054
  202MOL0     H26631  -1.032  11.295   3.012 -0.1882 -0.1772  0.2109
  202MOL0     H26632  -1.037  11.545   3.082 -1.8454  2.2996  1.6274
  202MOL0     H26633  -0.996  11.499   3.244 -2.5020  3.0587  0.3589
  202MOL0     H26634  -1.213  11.534   3.228  0.4964 -0.1820 -0.3603
  202MOL0     H26635  -1.187  11.353   3.262  1.3351 -1.3952 -0.9430
  202MOL0     H26636  -1.272  11.463   2.994  1.3373  0.2268 -0.2031
  202MOL0     H26637  -1.261  11.297   3.053 -1.4203 -0.2762 -2.2662
  202MOL0     H26638  -1.451  11.523   3.132  3.4440  0.5115 -1.2963
  202MOL0     H26639  -1.431  11.384   3.234  4.2052  1.6691  0.3543
  202MOL0     H26640  -1.534  11.238   3.083  0.1166  1.6113  0.8220
  202MOL0     H26641  -1.519  11.344   2.941 -1.6976 -1.5086 -0.4214
  202MOL0     H26642  -1.682  11.370   3.204 -1.4277 -0.1967  0.2858
  202MOL0     H26643  -1.700  11.483   3.068 -0.8579 -0.7880  0.2216
  202MOL0     H26644  -1.789  11.198   3.100 -0.5326  0.5352  1.9259
  202MOL0     H26645  -1.752  11.238   2.943 -1.0891  0.9953 -0.8674
  202MOL0     H26646  -0.851  11.123   3.110 -1.1180 -0.2251  1.4698
  202MOL0     H26647  -0.645  10.979   3.091 -4.7902  0.1089  0.6302
  202MOL0     H26648  -0.266  10.727   3.183 -2.4107  1.6271  0.0252
  202MOL0     H26649  -0.028  10.653   3.215  0.4092  0.3613 -1.8788
  202MOL0     H26650   1.849  10.901   2.674  0.7298 -1.2409  0.9694
  202MOL0     H26651   2.025  11.003   2.537  1.4368  3.1043 -0.9094
  202MOL0     H26652   2.458  11.109   2.301  1.4040  1.5640 -2.3902
  202MOL0     H26653   2.653  11.249   2.262 -1.3243 -2.3117  0.3489
  202MOL0     H26654   2.837  11.422   2.606  0.6770  0.0643 -0.2470
  202MOL0     H26655   2.745  11.568   2.558  1.1103 -0.1016  1.1908
  202MOL0     H26656   2.928  11.630   2.391 -1.7129  1.7124  1.1327
  202MOL0     H26657   2.956  11.631   2.563 -1.7574 -2.3993  1.7881
  202MOL0     H26658   3.041  11.398   2.366  1.8145 -1.9741  1.2097
  202MOL0     H26659   3.062  11.393   2.529 -0.6357 -1.1005 -1.0172
  202MOL0     H26660   3.176  11.599   2.323  3.3679 -1.5261 -2.6242
  202MOL0     H26661   3.193  11.619   2.508  1.5295 -1.3578  0.2532
  202MOL0     H26662   3.483  11.327   2.404 -0.2330 -0.2057 -0.4794
  202MOL0     H26663   2.597  11.431   2.651 -0.8444 -0.7900 -0.0310
  202MOL0     H26664   2.429  11.294   2.697  0.8797  0.7821  0.2996
  203MOL0     O26665   9.354   9.794   4.681  0.4288 -0.2064 -0.4727
  203MOL0     C26666   9.401   9.848   4.582  0.1541 -0.4808  0.0958
  203MOL0     O26667   9.346   9.951   4.514 -0.5112  0.3185 -0.0361
  203MOL0     C26668   9.235  10.013   4.562 -0.5747  0.1456  0.4541
  203MOL0     C26669   9.109   9.956   4.578  0.6681  0.2917  0.0849
  203MOL0     C26670   9.004  10.022   4.651 -0.6397  0.1069 -0.0101
  203MOL0     C26671   9.035  10.154   4.691  0.4494  0.6841 -0.7312
  203MOL0     O26672   8.937  10.218   4.761 -0.1658 -0.5878 -0.2756
  203MOL0     C26673   8.799  10.182   4.746 -0.4727 -0.0452 -0.0340
  203MOL0     C26674   8.709  10.314   4.790  0.4014  0.3305 -0.6486
  203MOL0     C26675   8.702  10.418   4.673  0.5445  0.4791 -0.4241
  203MOL0     C26676   8.657  10.555   4.723  0.1724  0.1034 -0.3833
  203MOL0     C26677   8.683  10.654   4.605 -0.6110 -0.6490 -0.7256
  203MOL0     C26678   8.577  10.775   4.631 -1.1001  0.4527  0.0989
  203MOL0     C26679   8.613  10.876   4.523  0.1270  0.0670  0.6151
  203MOL0     C26680   8.553  11.024   4.525 -0.1921  1.0167  0.6634
  203MOL0     N26681   8.405  11.012   4.535  0.5270 -0.4354 -0.6336
  203MOL0     C26682   8.317  11.054   4.633 -0.3567  0.2495 -0.2644
  203MOL0     C26683   8.193  11.016   4.597 -0.3986  0.3953 -0.0767
  203MOL0     C26684   8.083  11.043   4.692 -0.1431 -0.9174  0.0583
  203MOL0     C26685   8.043  10.928   4.786 -0.0529 -0.0280 -0.3344
  203MOL0     C26686   7.966  10.973   4.910 -0.3646  0.8752 -0.1626
  203MOL0     C26687   7.847  11.059   4.867  0.5491 -0.3169 -0.2224
  203MOL0     O26688   7.748  10.985   4.791  0.1834 -0.3794 -0.4429
  203MOL0     C26689   7.683  10.884   4.844  0.6248 -0.0745  0.1986
  203MOL0     C26690   7.655  10.870   4.982 -0.2792  0.4392 -0.0864
  203MOL0     C26691   7.586  10.758   5.025  0.8845  0.0981  0.0127
  203MOL0     C26692   7.540  10.657   4.941 -0.8433 -0.5146 -0.1849
  203MOL0     C26693   7.459  10.545   4.995 -0.0230 -0.9587  0.3854
  203MOL0     O26694   7.421  10.455   4.899  0.0881 -0.2421 -0.7153
  203MOL0     C26695   7.365  10.325   4.926 -0.2722 -0.2650 -0.1252
  203MOL0     C26696   7.409  10.220   4.848 -0.1043  0.4711 -0.5752
  203MOL0     C26697   7.350  10.099   4.846 -0.2178 -0.1085  0.6528
  203MOL0     C26698   7.250  10.074   4.938  0.3665 -0.3291 -0.1102
  203MOL0     O26699   7.185   9.953   4.928 -0.0872  0.7609  0.6241
  203MOL0     C26700   7.079   9.922   5.016 -0.1798 -0.8881 -0.8523
  203MOL0     C26701   7.023   9.790   4.963  0.4890 -0.8252 -0.5263
  203MOL0     C26702   6.890   9.760   5.038  0.4568 -0.0261  0.0034
  203MOL0     C26703   6.912   9.688   5.173 -0.0138  0.0713 -0.3205
  203MOL0     C26704   6.818   9.745   5.276  0.3407 -0.3203 -0.2622
  203MOL0     C26705   6.807   9.659   5.405  0.1189  0.4183 -0.3680
  203MOL0     C26706   6.709   9.738   5.491  0.3535 -0.1516  0.3923
  203MOL0     C26707   6.678   9.673   5.623 -0.0045 -0.3290  0.3384
  203MOL0    Cl26708   6.623   9.510   5.602 -0.1123  0.7120 -0.0795
  203MOL0     C26709   7.210  10.178   5.027 -0.3131  0.5468 -0.1910
  203MOL0     C26710   7.264  10.303   5.023  0.5419  0.1969 -0.7014
  203MOL0     O26711   7.427  10.552   5.116  0.4309 -0.2093 -0.1108
  203MOL0     C26712   7.553  10.685   4.810  0.5045 -0.5758 -0.8379
  203MOL0     C26713   7.621  10.792   4.758 -0.0470 -0.8299 -0.3696
  203MOL0     N26714   8.201  10.934   4.492  0.6078  0.4162  0.1603
  203MOL0     N26715   8.323  10.928   4.457 -0.8690  0.4726  0.0989
  203MOL0     C26716   9.158  10.226   4.661 -0.3082  1.0115  0.3223
  203MOL0     C26717   9.253  10.151   4.594 -0.1724 -0.6561  0.2580
  203MOL0     C26718   9.543   9.818   4.550  0.3411  0.8649 -0.3506
  203MOL0     C26719   9.622   9.719   4.622  0.3964 -1.2672  0.6093
  203MOL0     C26720   9.761   9.709   4.589  0.8883 -0.8291 -0.9292
  203MOL0     C26721   9.815   9.789   4.489  0.3886 -0.1958  0.1318
  203MOL0     O26722   9.947   9.784   4.456  0.2102 -0.4144  0.5061
  203MOL0     C26723  10.034   9.794   4.568  0.3850  0.2260  0.2554
  203MOL0     C26724  10.177   9.768   4.509  0.1617 -0.3380 -0.5339
  203MOL0     C26725  10.289   9.782   4.616  0.6659  0.3035  0.8097
  203MOL0     C26726  10.432   9.794   4.549 -0.0294 -0.5522  0.5192
  203MOL0     C26727  10.527   9.764   4.658 -0.5777 -0.5814  0.9747
  203MOL0     C26728  10.596   9.750   4.750 -0.9126 -0.3448  0.5811
  203MOL0     C26729   9.737   9.874   4.427 -0.5059  0.3199  0.6137
  203MOL0     C26730   9.607   9.889   4.449  0.3906 -0.1681  0.4378
  203MOL0     H26731   9.090   9.854   4.547  2.8889 -0.9157  2.3152
  203MOL0     H26732   8.910   9.973   4.672 -0.3998  0.3939  1.8552
  203MOL0     H26733   8.764  10.103   4.812 -1.4761 -1.5860 -2.2774
  203MOL0     H26734   8.775  10.149   4.644 -0.2352  0.5335 -0.2875
  203MOL0     H26735   8.749  10.362   4.879 -0.6470  0.9615 -0.5033
  203MOL0     H26736   8.608  10.288   4.823 -0.2505 -0.3070 -2.9348
  203MOL0     H26737   8.636  10.389   4.591  0.7301  0.0686 -0.4257
  203MOL0     H26738   8.805  10.434   4.640  0.1195  1.4117 -1.3613
  203MOL0     H26739   8.553  10.549   4.753 -0.3096 -0.1766 -2.0185
  203MOL0     H26740   8.723  10.578   4.807 -1.9234  1.6919  0.9152
  203MOL0     H26741   8.679  10.613   4.504  0.6559  1.9883 -1.9313
  203MOL0     H26742   8.785  10.691   4.617 -0.8333  0.3432 -1.7096
  203MOL0     H26743   8.587  10.797   4.738  0.0208  1.9528 -0.2788
  203MOL0     H26744   8.475  10.739   4.615 -0.7863 -1.3712  1.8271
  203MOL0     H26745   8.722  10.890   4.530  0.3938  0.6598 -2.9808
  203MOL0     H26746   8.593  10.839   4.422  1.2843  0.2019  0.3192
  203MOL0     H26747   8.581  11.069   4.430  0.2003 -2.5420 -1.0528
  203MOL0     H26748   8.600  11.087   4.601  1.9687  0.6750 -0.3282
  203MOL0     H26749   8.348  11.115   4.717 -0.1506  1.1426 -0.9665
  203MOL0     H26750   8.004  11.057   4.618  1.1249 -1.6911 -1.4953
  203MOL0     H26751   8.111  11.128   4.755  4.0847 -0.3713 -2.1881
  203MOL0     H26752   8.133  10.875   4.821  0.0050  1.7335  2.4925
  203MOL0     H26753   7.979  10.857   4.733  1.5257 -2.4930  0.8308
  203MOL0     H26754   7.938  10.885   4.968 -0.6589  0.4901 -0.8829
  203MOL0     H26755   8.023  11.045   4.970 -1.0326  2.8709 -1.8066
  203MOL0     H26756   7.878  11.143   4.804  1.4739  1.8111  2.7855
  203MOL0     H26757   7.804  11.113   4.952 -0.2087  0.8066 -1.2834
  203MOL0     H26758   7.664  10.942   5.063  2.3660 -1.4443  1.4263
  203MOL0     H26759   7.545  10.753   5.126  4.5440 -0.0891  1.6391
  203MOL0     H26760   7.487  10.220   4.773  0.3053  0.0382 -0.1572
  203MOL0     H26761   7.384  10.032   4.767  1.1815  1.5658 -0.2400
  203MOL0     H26762   7.002  10.000   5.011  1.2167  0.6121 -0.0275
  203MOL0     H26763   7.117   9.918   5.118 -0.7153  0.5134 -0.5639
  203MOL0     H26764   7.089   9.704   4.979  0.3843 -1.7558 -4.1875
  203MOL0     H26765   7.013   9.809   4.856  3.4737 -1.2057 -0.9477
  203MOL0     H26766   6.845   9.678   4.981 -0.1255  0.0069  0.4073
  203MOL0     H26767   6.828   9.851   5.036  0.0186 -0.2804 -3.0631
  203MOL0     H26768   6.883   9.582   5.173  1.3576 -0.3636  1.9356
  203MOL0     H26769   7.016   9.688   5.204 -0.1214 -1.7379  0.1850
  203MOL0     H26770   6.714   9.742   5.242 -0.1760 -0.8317  1.3152
  203MOL0     H26771   6.851   9.845   5.305 -0.5607 -0.6479  2.0667
  203MOL0     H26772   6.903   9.655   5.457  0.3677  1.3690 -0.7471
  203MOL0     H26773   6.768   9.559   5.382 -0.4419  0.4201  0.5487
  203MOL0     H26774   6.746   9.839   5.513 -0.0608  0.8011 -2.7721
  203MOL0     H26775   6.613   9.746   5.438  1.3303 -0.0322 -1.4205
  203MOL0     H26776   6.599   9.724   5.678 -3.1050 -1.8073 -2.4238
  203MOL0     H26777   6.771   9.666   5.681 -0.3229 -3.5255  0.6385
  203MOL0     H26778   7.131  10.155   5.099 -1.6545 -0.8723 -1.9977
  203MOL0     H26779   7.235  10.368   5.105  2.4353 -1.4320  1.3964
  203MOL0     H26780   7.511  10.616   4.737  0.5382  0.6243 -2.0539
  203MOL0     H26781   7.613  10.813   4.652 -0.4222 -0.5337 -0.2854
  203MOL0     H26782   9.184  10.328   4.686  1.2788  0.5581  0.6080
  203MOL0     H26783   9.349  10.194   4.569 -0.6096  0.0029 -0.3078
  203MOL0     H26784   9.569   9.656   4.693 -1.4439 -0.1324  0.3000
  203MOL0     H26785   9.814   9.619   4.618  1.1222 -0.2997  0.3417
  203MOL0     H26786  10.013   9.716   4.642  3.1976 -0.5576  0.3292
  203MOL0     H26787  10.037   9.896   4.608 -2.1862  1.4183 -2.1759
  203MOL0     H26788  10.180   9.668   4.464 -1.2961 -2.1492  2.9846
  203MOL0     H26789  10.200   9.844   4.433  0.7591  1.7652  1.6371
  203MOL0     H26790  10.294   9.683   4.662  0.1837  0.0511  0.3265
  203MOL0     H26791  10.270   9.862   4.688 -1.3520  0.0692  0.5957
  203MOL0     H26792  10.445   9.719   4.470 -2.6759 -0.4774 -0.0868
  203MOL0     H26793  10.434   9.900   4.520  0.7137 -1.2097 -2.1204
  203MOL0     H26794  10.665   9.748   4.832  0.7466  1.2583 -0.6837
  203MOL0     H26795   9.781   9.933   4.347 -3.6088  2.6318  0.4316
  203MOL0     H26796   9.568   9.972   4.390  2.9633  1.2748  0.6001
  204MOL0     O26797   6.165   2.869   5.091 -0.2373  0.0956 -0.3221
  204MOL0     C26798   6.150   2.772   5.015 -0.2923 -0.6576 -0.1741
  204MOL0     O26799   6.037   2.705   4.985  0.3403  0.1364  0.4349
  204MOL0     C26800   5.917   2.736   5.050 -0.5723  0.5319  0.6017
  204MOL0     C26801   5.897   2.715   5.187 -0.2831 -0.2902  0.3158
  204MOL0     C26802   5.782   2.736   5.251 -0.2859 -0.0225 -0.5633
  204MOL0     C26803   5.674   2.776   5.178 -0.4096 -0.0747 -0.1500
  204MOL0     O26804   5.547   2.797   5.234 -0.0432 -0.2934 -0.5165
  204MOL0     C26805   5.427   2.743   5.176 -0.3491 -0.1610  0.9870
  204MOL0     C26806   5.313   2.841   5.218  0.3232 -0.1348 -0.0958
  204MOL0     C26807   5.178   2.828   5.148 -0.5685 -0.6423 -0.3925
  204MOL0     C26808   5.073   2.752   5.234 -0.2784 -0.6502  1.0281
  204MOL0     C26809   4.939   2.755   5.177  0.1700 -0.4829 -0.3048
  204MOL0     C26810   4.857   2.630   5.191 -0.0589  0.9260  0.6063
  204MOL0     C26811   4.714   2.655   5.134 -0.1880  0.0587  0.2334
  204MOL0     C26812   4.717   2.650   4.980 -0.0126 -0.0368  0.6927
  204MOL0     N26813   4.590   2.633   4.906  0.8795  0.8940 -0.2461
  204MOL0     C26814   4.483   2.717   4.919 -0.3815 -0.0599 -0.8031
  204MOL0     C26815   4.380   2.660   4.857 -0.0985  1.1742 -0.4368
  204MOL0     C26816   4.246   2.729   4.847  0.1160 -0.3169  0.0671
  204MOL0     C26817   4.138   2.626   4.827  0.1588  0.3695 -0.4811
  204MOL0     C26818   4.113   2.548   4.701 -0.3077  0.2279  1.2011
  204MOL0     C26819   3.983   2.461   4.711  0.0006  0.0728  0.3840
  204MOL0     O26820   3.975   2.371   4.594  0.0495 -0.2937  0.6452
  204MOL0     C26821   3.867   2.288   4.590  0.0268 -0.1244  0.2286
  204MOL0     C26822   3.758   2.290   4.685  0.3958 -0.2082  0.4735
  204MOL0     C26823   3.654   2.203   4.683  0.3347 -0.6594  0.7572
  204MOL0     C26824   3.651   2.103   4.581  0.2375  1.0174 -0.1988
  204MOL0     C26825   3.540   2.003   4.580 -0.5507 -0.0798 -0.5335
  204MOL0     O26826   3.420   2.029   4.647 -0.1006  0.2334 -0.1250
  204MOL0     C26827   3.316   1.937   4.652  0.0876  0.1582  1.2942
  204MOL0     C26828   3.213   1.969   4.740 -0.2269 -1.2374 -0.3569
  204MOL0     C26829   3.092   1.895   4.729  0.7433 -0.5460 -0.3147
  204MOL0     C26830   3.072   1.798   4.634  0.6049 -0.7946 -0.6131
  204MOL0     O26831   2.942   1.742   4.630  0.3445 -0.6985 -0.3995
  204MOL0     C26832   2.906   1.675   4.515  0.3140 -0.0609  0.0282
  204MOL0     C26833   2.758   1.711   4.470  0.1331  0.5830  0.2882
  204MOL0     C26834   2.648   1.643   4.558 -0.8970  0.4811 -0.2116
  204MOL0     C26835   2.511   1.703   4.527 -0.0102  0.3481  0.3462
  204MOL0     C26836   2.383   1.637   4.585  0.2884 -0.3776  1.1681
  204MOL0     C26837   2.260   1.728   4.557 -0.2634  0.1474  0.5096
  204MOL0     C26838   2.122   1.670   4.584  0.9770 -0.2508 -0.2877
  204MOL0     C26839   2.092   1.686   4.729 -0.9870 -0.0415 -0.2560
  204MOL0    Cl26840   1.942   1.610   4.774  0.1794  0.4025  0.1858
  204MOL0     C26841   3.172   1.771   4.546 -0.8443  0.3649 -0.7179
  204MOL0     C26842   3.297   1.837   4.551 -0.3339  0.4160 -0.2470
  204MOL0     O26843   3.571   1.898   4.538  1.0432 -0.4990 -1.3401
  204MOL0     C26844   3.760   2.088   4.493 -0.6279  0.0749 -0.0921
  204MOL0     C26845   3.865   2.176   4.504  0.6891 -0.6494 -0.6974
  204MOL0     N26846   4.423   2.536   4.805  0.1228 -0.0738  0.1553
  204MOL0     N26847   4.551   2.531   4.817 -0.0974  0.6202 -0.5629
  204MOL0     C26848   5.691   2.797   5.044  0.1441 -0.1156 -0.1707
  204MOL0     C26849   5.809   2.769   4.977  0.5532 -0.6567  0.7333
  204MOL0     C26850   6.283   2.730   4.951  0.0551 -0.8210  0.1116
  204MOL0     C26851   6.293   2.597   4.900  0.3362 -0.3393  0.1184
  204MOL0     C26852   6.418   2.556   4.855  0.2126 -0.1376 -0.1442
  204MOL0     C26853   6.528   2.647   4.847 -0.8709  0.4143  0.2338
  204MOL0     O26854   6.662   2.621   4.816 -0.4600  0.5157 -0.3612
  204MOL0     C26855   6.693   2.486   4.778  0.1637  0.4955  0.8167
  204MOL0     C26856   6.848   2.482   4.745  0.1111  0.5479 -0.7114
  204MOL0     C26857   6.946   2.469   4.854 -0.2757 -0.3207 -0.1494
  204MOL0     C26858   7.059   2.370   4.839 -0.3378  0.1953 -0.3010
  204MOL0     C26859   7.154   2.421   4.739 -0.5186  0.0338  0.0185
  204MOL0     C26860   7.224   2.461   4.647  0.3491  0.7047 -0.4414
  204MOL0     C26861   6.513   2.780   4.885  0.1934  0.6039  0.2463
  204MOL0     C26862   6.394   2.815   4.947 -0.2027 -0.3280  0.1946
  204MOL0     H26863   5.987   2.687   5.241 -0.4816  1.2454  1.5123
  204MOL0     H26864   5.772   2.711   5.356  0.5703 -0.1692 -0.5111
  204MOL0     H26865   5.409   2.646   5.225  1.5239  0.2316  2.5895
  204MOL0     H26866   5.432   2.736   5.067  1.2942 -0.1895  1.0487
  204MOL0     H26867   5.364   2.935   5.193  0.1067 -0.1914 -0.7846
  204MOL0     H26868   5.293   2.839   5.326 -1.4933  1.3942 -0.3423
  204MOL0     H26869   5.177   2.758   5.064 -0.7922  0.0847 -1.0072
  204MOL0     H26870   5.136   2.923   5.112 -0.5133 -0.5118 -0.1113
  204MOL0     H26871   5.107   2.649   5.245 -0.3116 -0.9877 -1.4490
  204MOL0     H26872   5.062   2.796   5.333 -1.1230  1.8925 -0.1027
  204MOL0     H26873   4.945   2.786   5.072  1.8676  3.9586  0.8686
  204MOL0     H26874   4.889   2.840   5.223 -0.4273 -0.4991 -0.9174
  204MOL0     H26875   4.851   2.604   5.297  1.2076 -0.9368  0.2614
  204MOL0     H26876   4.900   2.545   5.138  1.3749  3.4667 -2.6652
  204MOL0     H26877   4.647   2.579   5.174  0.8304 -1.6040 -1.1057
  204MOL0     H26878   4.681   2.750   5.178  1.9548 -0.1975  2.6632
  204MOL0     H26879   4.784   2.575   4.938  1.9769  2.8271 -1.6673
  204MOL0     H26880   4.763   2.745   4.949 -0.0184 -1.0035 -2.6563
  204MOL0     H26881   4.479   2.809   4.976 -2.3945 -1.3914  1.4049
  204MOL0     H26882   4.251   2.798   4.762 -2.3073  0.4396  0.4721
  204MOL0     H26883   4.212   2.789   4.932  1.7927  0.4418  0.2604
  204MOL0     H26884   4.047   2.685   4.845 -0.7308  0.6384 -4.7702
  204MOL0     H26885   4.151   2.559   4.912  1.7449  2.2371  0.8316
  204MOL0     H26886   4.113   2.614   4.614 -1.7426 -0.9955  0.2209
  204MOL0     H26887   4.194   2.477   4.683  0.1236  0.2765  2.7612
  204MOL0     H26888   3.893   2.522   4.713  0.2793  0.6672 -2.1626
  204MOL0     H26889   3.987   2.399   4.801 -0.4412 -1.3660 -0.5614
  204MOL0     H26890   3.742   2.366   4.762  0.9416  0.8216 -0.4003
  204MOL0     H26891   3.573   2.207   4.754  0.3605  1.9786  0.7530
  204MOL0     H26892   3.217   2.039   4.823  0.0336 -0.7736 -0.7545
  204MOL0     H26893   3.008   1.904   4.797  1.8974 -0.1820  1.1047
  204MOL0     H26894   2.912   1.566   4.529 -4.0685 -0.4775  0.3033
  204MOL0     H26895   2.980   1.696   4.437  0.6680  3.5074  1.1416
  204MOL0     H26896   2.745   1.673   4.369 -0.5310  1.3254  0.0919
  204MOL0     H26897   2.750   1.820   4.474  0.8281  0.6211  2.3546
  204MOL0     H26898   2.679   1.653   4.662  0.7118 -0.6654 -0.5445
  204MOL0     H26899   2.649   1.537   4.528 -3.0070  0.5520 -0.7319
  204MOL0     H26900   2.517   1.802   4.571  0.9406  0.6449 -0.4079
  204MOL0     H26901   2.503   1.719   4.419  0.4959 -0.2267  0.2158
  204MOL0     H26902   2.400   1.624   4.693  2.9225 -2.9788  0.5712
  204MOL0     H26903   2.364   1.536   4.548 -3.7786  0.5681  0.1213
  204MOL0     H26904   2.270   1.742   4.449  0.1490 -0.2094  0.4996
  204MOL0     H26905   2.266   1.829   4.598 -1.2034 -0.0084  1.0622
  204MOL0     H26906   2.038   1.731   4.549 -1.0088 -1.1519  2.4976
  204MOL0     H26907   2.118   1.564   4.558  0.6953  0.1671 -2.0363
  204MOL0     H26908   2.083   1.794   4.744  0.3376  0.0308  0.1152
  204MOL0     H26909   2.161   1.637   4.798 -1.5680  1.4598  1.4678
  204MOL0     H26910   3.178   1.693   4.471  3.8427  0.8239 -1.1459
  204MOL0     H26911   3.370   1.803   4.478 -1.5582  0.2259 -1.4476
  204MOL0     H26912   3.770   2.011   4.416  2.5754 -0.5502  0.8138
  204MOL0     H26913   3.952   2.147   4.446 -0.2248 -3.5539 -0.7901
  204MOL0     H26914   5.601   2.828   4.993 -1.6624 -2.1961  1.5670
  204MOL0     H26915   5.816   2.753   4.869 -0.8813  0.0792  0.5167
  204MOL0     H26916   6.207   2.533   4.889  0.1627  0.2992 -3.5755
  204MOL0     H26917   6.442   2.451   4.841  2.8718  0.2275  1.0630
  204MOL0     H26918   6.644   2.447   4.688 -0.3720 -0.3512  1.4658
  204MOL0     H26919   6.675   2.416   4.859 -1.3686  0.3360  0.3768
  204MOL0     H26920   6.854   2.402   4.670 -3.0060  0.6283 -1.1811
  204MOL0     H26921   6.872   2.574   4.691  1.5959 -0.2979 -1.5681
  204MOL0     H26922   6.892   2.422   4.937 -0.7213  0.2685 -0.0956
  204MOL0     H26923   6.998   2.561   4.882 -0.7320  0.2006 -0.9870
  204MOL0     H26924   7.111   2.348   4.932  1.5131 -1.7190 -1.6973
  204MOL0     H26925   7.026   2.270   4.810  0.8193  0.0691 -1.2615
  204MOL0     H26926   7.276   2.511   4.567 -0.3833 -2.4923 -3.1442
  204MOL0     H26927   6.604   2.838   4.874  1.5908 -1.1154  2.0379
  204MOL0     H26928   6.391   2.914   4.993  0.0895 -0.0126 -0.4440
  205MOL0     O26929   8.398   2.847   7.507 -0.1163 -0.2444  0.2772
  205MOL0     C26930   8.441   2.871   7.616  0.0130 -0.3432 -0.5255
  205MOL0     O26931   8.369   2.849   7.731  0.1010 -0.3139  0.1185
  205MOL0     C26932   8.253   2.778   7.733 -0.2259 -0.2109 -0.1908
  205MOL0     C26933   8.255   2.683   7.837 -0.8220 -0.1219  0.2447
  205MOL0     C26934   8.138   2.612   7.864 -0.1543  0.0729  0.2581
  205MOL0     C26935   8.015   2.638   7.799  1.0874 -0.6052 -0.0056
  205MOL0     O26936   7.888   2.580   7.821 -0.1495  0.2802  0.7166
  205MOL0     C26937   7.887   2.438   7.857  0.1433 -0.0167 -0.0595
  205MOL0     C26938   7.747   2.389   7.838  0.2960 -0.5195  0.5520
  205MOL0     C26939   7.637   2.479   7.899  0.2997  0.0464 -0.7766
  205MOL0     C26940   7.506   2.424   7.834 -0.5535  1.1229 -0.2931
  205MOL0     C26941   7.381   2.472   7.909 -0.6628 -0.5495 -0.3128
  205MOL0     C26942   7.357   2.625   7.876 -0.9967  0.0434  0.5083
  205MOL0     C26943   7.297   2.709   7.992  0.4635 -0.0834 -0.4556
  205MOL0     C26944   7.137   2.693   8.009 -0.0129 -0.2400  0.4262
  205MOL0     N26945   7.099   2.562   8.064 -0.0948 -0.6247 -0.2417
  205MOL0     C26946   7.047   2.538   8.187 -0.0825 -0.5668 -0.0042
  205MOL0     C26947   6.997   2.411   8.185  0.1596  0.5891 -0.5049
  205MOL0     C26948   6.928   2.343   8.299  0.1251 -0.3201 -0.3095
  205MOL0     C26949   6.773   2.343   8.266  0.3951 -0.2443 -0.3455
  205MOL0     C26950   6.714   2.490   8.281  0.2277 -0.1620 -0.2384
  205MOL0     C26951   6.553   2.495   8.244 -0.5102 -0.1057 -0.3364
  205MOL0     O26952   6.530   2.458   8.107 -0.3024 -0.3344  0.1105
  205MOL0     C26953   6.398   2.437   8.074  0.0851 -0.2090 -0.1279
  205MOL0     C26954   6.291   2.502   8.136 -0.0541 -0.1755  0.1803
  205MOL0     C26955   6.162   2.472   8.100 -1.0245 -0.2441  0.1757
  205MOL0     C26956   6.134   2.368   8.005 -0.0775 -0.2295  0.4395
  205MOL0     C26957   5.996   2.338   7.977  1.0840  0.6194  0.2976
  205MOL0     O26958   5.908   2.433   7.991 -0.1299  0.1355  0.1005
  205MOL0     C26959   5.779   2.408   7.942 -1.1125  0.4924 -0.2358
  205MOL0     C26960   5.735   2.495   7.844 -0.6996  0.2840 -0.0339
  205MOL0     C26961   5.612   2.484   7.786 -0.2049  0.3326  0.3350
  205MOL0     C26962   5.526   2.381   7.827  0.4870 -0.5149  0.7331
  205MOL0     O26963   5.398   2.370   7.783 -0.3880  0.4947 -0.3980
  205MOL0     C26964   5.337   2.463   7.697 -0.1008  0.2694  0.1792
  205MOL0     C26965   5.196   2.412   7.654 -1.7841  0.3873 -0.0075
  205MOL0     C26966   5.089   2.426   7.756 -0.0680 -0.4119 -0.3489
  205MOL0     C26967   4.948   2.372   7.715  0.4839  0.0841  0.1445
  205MOL0     C26968   4.890   2.466   7.607  0.2614 -0.6224 -0.7181
  205MOL0     C26969   4.738   2.444   7.561 -0.0611 -1.0763  0.3586
  205MOL0     C26970   4.649   2.524   7.662 -0.4277  0.1984 -0.5002
  205MOL0     C26971   4.503   2.479   7.678 -0.3543  0.2598  0.4792
  205MOL0    Cl26972   4.403   2.573   7.579  0.1471 -0.7151  0.1418
  205MOL0     C26973   5.570   2.297   7.926 -0.3096 -1.1119 -0.4141
  205MOL0     C26974   5.694   2.314   7.993  0.1392 -0.1965 -0.1886
  205MOL0     O26975   5.976   2.218   7.949 -0.0590  0.6572  0.1566
  205MOL0     C26976   6.244   2.310   7.947 -0.0006  0.3471  1.3433
  205MOL0     C26977   6.372   2.342   7.982  0.4808  1.5473 -0.5093
  205MOL0     N26978   7.026   2.357   8.066 -0.1871  0.2113  0.0219
  205MOL0     N26979   7.073   2.451   7.986  0.9114  0.4319 -0.8768
  205MOL0     C26980   8.023   2.738   7.699  0.6489  0.5487 -0.2336
  205MOL0     C26981   8.138   2.802   7.659  0.6149 -0.2613  0.1096
  205MOL0     C26982   8.581   2.918   7.636 -0.2285  0.6094 -0.0442
  205MOL0     C26983   8.615   2.965   7.774 -0.6046  0.8092  0.3838
  205MOL0     C26984   8.742   3.031   7.788 -0.3413 -0.8873 -0.2569
  205MOL0     C26985   8.834   3.036   7.686 -0.2115  0.1312  0.2895
  205MOL0     O26986   8.962   3.085   7.701  0.2258 -0.5394 -0.5929
  205MOL0     C26987   9.037   3.085   7.826 -0.4476 -0.1123  0.6308
  205MOL0     C26988   9.190   3.093   7.782  0.5982 -0.0852 -0.1470
  205MOL0     C26989   9.255   2.963   7.821  0.6163  0.0573 -0.3636
  205MOL0     C26990   9.411   2.975   7.825  0.0126 -0.7186  0.4159
  205MOL0     C26991   9.491   2.854   7.832  0.2258 -0.6345 -0.4796
  205MOL0     C26992   9.557   2.753   7.845 -0.7479  0.4992 -0.5822
  205MOL0     C26993   8.801   2.978   7.556  0.2678 -1.2066 -0.8237
  205MOL0     C26994   8.680   2.916   7.533  0.8148 -0.2347 -0.3689
  205MOL0     H26995   8.344   2.653   7.891 -0.8321 -2.2712 -0.8094
  205MOL0     H26996   8.140   2.530   7.935 -0.3065 -1.0769 -1.0129
  205MOL0     H26997   7.931   2.413   7.954  0.3575  0.5181 -0.0129
  205MOL0     H26998   7.956   2.386   7.791 -1.3595 -1.5863 -0.4692
  205MOL0     H26999   7.736   2.286   7.872  1.2398 -1.3967 -1.5938
  205MOL0     H27000   7.729   2.400   7.730 -1.8235 -0.7356  0.8491
  205MOL0     H27001   7.652   2.586   7.883  1.6918  0.0752  0.5432
  205MOL0     H27002   7.636   2.462   8.007  1.1707 -1.8297 -1.0330
  205MOL0     H27003   7.491   2.443   7.727  0.2895  2.0264 -0.2636
  205MOL0     H27004   7.500   2.315   7.839  0.2512  0.8894 -2.9912
  205MOL0     H27005   7.387   2.453   8.016 -3.2329  0.6256  0.1272
  205MOL0     H27006   7.291   2.416   7.881 -0.9867 -0.2064  0.0208
  205MOL0     H27007   7.292   2.648   7.791 -0.2616  3.2423  0.6763
  205MOL0     H27008   7.452   2.669   7.846 -1.0944  1.0540  1.5811
  205MOL0     H27009   7.352   2.670   8.079  0.3550  1.0078  0.1217
  205MOL0     H27010   7.316   2.815   7.977  2.2458 -0.0540  1.5597
  205MOL0     H27011   7.094   2.711   7.910  2.4966  1.6169 -0.4320
  205MOL0     H27012   7.105   2.781   8.064  2.1239  0.7354  0.2257
  205MOL0     H27013   7.027   2.611   8.264  0.2470 -1.1795  0.6708
  205MOL0     H27014   6.955   2.397   8.391 -0.5647 -1.9705  0.9147
  205MOL0     H27015   6.960   2.241   8.319  0.3406 -1.2472 -4.6124
  205MOL0     H27016   6.725   2.271   8.332 -0.1719  0.0681 -0.4112
  205MOL0     H27017   6.756   2.305   8.165 -0.7733 -1.1727  0.1825
  205MOL0     H27018   6.729   2.523   8.384  0.0084 -2.3978  0.5460
  205MOL0     H27019   6.773   2.550   8.211  0.2617  0.6355  0.4579
  205MOL0     H27020   6.522   2.599   8.252  0.8323  0.3453 -0.7312
  205MOL0     H27021   6.498   2.424   8.307  2.8307  0.6153  3.8449
  205MOL0     H27022   6.317   2.581   8.205 -0.8050  0.6587 -0.4632
  205MOL0     H27023   6.086   2.533   8.150 -1.3578 -0.4916 -0.0289
  205MOL0     H27024   5.806   2.569   7.808  0.7819 -0.7408  0.6365
  205MOL0     H27025   5.591   2.553   7.705 -0.8517  0.7876  0.8805
  205MOL0     H27026   5.398   2.488   7.609  0.5543 -0.6519  0.3492
  205MOL0     H27027   5.326   2.557   7.752 -1.3740  1.6484 -2.2722
  205MOL0     H27028   5.209   2.306   7.630 -3.3547 -0.1769  1.4362
  205MOL0     H27029   5.169   2.460   7.560  0.5150  1.7457 -0.0468
  205MOL0     H27030   5.066   2.532   7.764  0.5304 -0.0355 -2.8656
  205MOL0     H27031   5.123   2.382   7.850 -3.9640 -0.4482  1.2456
  205MOL0     H27032   4.956   2.270   7.676  1.4741  0.1090  0.2556
  205MOL0     H27033   4.881   2.371   7.801  1.5741  0.3564  1.0314
  205MOL0     H27034   4.952   2.457   7.517  0.0453 -0.1073 -0.9255
  205MOL0     H27035   4.907   2.568   7.641 -1.2649 -1.7745  4.2400
  205MOL0     H27036   4.714   2.338   7.558 -2.3452 -0.6084 -0.1908
  205MOL0     H27037   4.718   2.488   7.463 -0.1223 -1.5618  0.1499
  205MOL0     H27038   4.685   2.509   7.764 -2.7890  3.9892  1.1124
  205MOL0     H27039   4.650   2.630   7.634 -3.3236  0.2643 -0.6732
  205MOL0     H27040   4.480   2.489   7.784  0.2541 -1.6446  0.8311
  205MOL0     H27041   4.498   2.374   7.647 -1.4565  0.8981 -1.7366
  205MOL0     H27042   5.500   2.219   7.955  0.0136 -2.4696 -3.0424
  205MOL0     H27043   5.740   2.250   8.068  0.8028 -1.6345 -1.7467
  205MOL0     H27044   6.235   2.244   7.861  1.4734 -0.1505  1.5464
  205MOL0     H27045   6.458   2.283   7.955 -0.3010 -1.7247  3.2376
  205MOL0     H27046   7.936   2.780   7.648 -0.7946  0.9503  2.4009
  205MOL0     H27047   8.139   2.876   7.580 -3.2127 -0.0984  0.0049
  205MOL0     H27048   8.545   2.965   7.857 -0.7490  0.9536  0.2632
  205MOL0     H27049   8.773   3.076   7.881  0.9235  0.5215 -1.3201
  205MOL0     H27050   9.027   2.998   7.892 -0.9569  0.2022  0.9723
  205MOL0     H27051   9.012   3.174   7.884  0.6699 -0.7189  2.1084
  205MOL0     H27052   9.202   3.108   7.675  1.7395 -1.7311 -0.2870
  205MOL0     H27053   9.230   3.170   7.849  0.7350 -1.2500  1.1572
  205MOL0     H27054   9.232   2.878   7.756 -0.5676  1.0926 -1.3452
  205MOL0     H27055   9.224   2.940   7.924  2.9243  0.5160  0.5070
  205MOL0     H27056   9.453   3.041   7.748 -0.2533 -1.3311 -0.2630
  205MOL0     H27057   9.429   3.036   7.914  0.2967  1.2212 -0.9110
  205MOL0     H27058   9.621   2.667   7.848 -4.3389 -2.4499 -0.6909
  205MOL0     H27059   8.873   2.962   7.477 -1.5689 -2.1193 -2.4089
  205MOL0     H27060   8.658   2.881   7.433 -0.7549 -1.8836  0.4951
  206MOL0     O27061   6.950   1.245   0.267  0.2866  0.2982  0.4841
  206MOL0     C27062   7.046   1.168   0.247 -0.2230  0.6568 -0.9504
  206MOL0     O27063   7.058   1.042   0.294  0.1575  0.6819  0.1971
  206MOL0     C27064   6.962   0.979   0.369 -0.5503 -0.8042 -0.2017
  206MOL0     C27065   6.911   0.861   0.330  0.8993 -0.8224 -0.0064
  206MOL0     C27066   6.828   0.788   0.408 -0.0517 -0.4492 -0.8291
  206MOL0     C27067   6.773   0.842   0.527 -0.0145 -0.6265 -0.9243
  206MOL0     O27068   6.687   0.776   0.605  0.2554  0.4716 -1.1402
  206MOL0     C27069   6.600   0.675   0.558 -1.0057 -0.5820 -0.0963
  206MOL0     C27070   6.463   0.692   0.636 -0.4709 -0.5639 -0.2867
  206MOL0     C27071   6.356   0.604   0.587  0.0738  0.3950  0.8769
  206MOL0     C27072   6.398   0.458   0.625  0.4319 -0.5479  0.4106
  206MOL0     C27073   6.277   0.368   0.639 -0.8794 -0.0786 -0.5605
  206MOL0     C27074   6.316   0.219   0.640 -0.8728 -0.2531  0.5026
  206MOL0     C27075   6.207   0.124   0.683 -0.2463  0.3155 -0.1652
  206MOL0     C27076   6.092   0.122   0.583 -0.5473  0.5169  0.3331
  206MOL0     N27077   6.011   0.002   0.609 -0.2431  0.2360  1.1274
  206MOL0     C27078   5.898   0.000   0.688  0.1861 -0.9857 -0.0254
  206MOL0     C27079   5.829  -0.115   0.651 -0.6709 -0.1284  0.0439
  206MOL0     C27080   5.721  -0.193   0.712  0.7747 -0.1104 -0.3463
  206MOL0     C27081   5.582  -0.127   0.698 -0.1853 -0.3840 -0.0680
  206MOL0     C27082   5.573   0.028   0.748  0.2196  0.2459 -0.1196
  206MOL0     C27083   5.433   0.056   0.792  0.0224 -0.5877 -0.6715
  206MOL0     O27084   5.369   0.104   0.667 -0.1050  0.0525  0.2511
  206MOL0     C27085   5.240   0.150   0.670  0.1567  0.0856  0.3146
  206MOL0     C27086   5.166   0.170   0.789 -0.0995  0.0938 -0.6614
  206MOL0     C27087   5.039   0.227   0.794 -0.3948 -0.0101  1.3011
  206MOL0     C27088   4.975   0.257   0.672  0.7614 -0.5540 -0.4924
  206MOL0     C27089   4.838   0.332   0.681 -0.1122  0.5066  0.2081
  206MOL0     O27090   4.759   0.305   0.792 -0.6792  0.0331  0.6605
  206MOL0     C27091   4.631   0.330   0.776  0.6558 -0.0516 -0.4567
  206MOL0     C27092   4.556   0.374   0.886 -0.1691 -0.0191 -0.5018
  206MOL0     C27093   4.422   0.396   0.878 -0.2263  0.2510  0.1627
  206MOL0     C27094   4.351   0.377   0.764  0.5746  0.8017  0.7937
  206MOL0     O27095   4.213   0.400   0.768 -0.3727  0.3454  0.2172
  206MOL0     C27096   4.140   0.284   0.736  0.3684  0.2105  0.4786
  206MOL0     C27097   4.169   0.171   0.828 -0.1087  0.7184 -0.7811
  206MOL0     C27098   4.066   0.061   0.829 -0.3218 -0.6148 -0.9594
  206MOL0     C27099   4.101  -0.038   0.931  0.7452  0.0296 -0.4946
  206MOL0     C27100   4.000  -0.158   0.926 -0.4291 -0.8257 -0.0071
  206MOL0     C27101   4.022  -0.236   1.056  0.3879  0.0751  0.6109
  206MOL0     C27102   4.167  -0.300   1.061  0.3069  0.5051  0.2550
  206MOL0     C27103   4.164  -0.422   1.153  0.9609  0.5656 -0.5544
  206MOL0    Cl27104   4.313  -0.528   1.110 -0.4174  0.4998 -0.3048
  206MOL0     C27105   4.418   0.341   0.648  0.5173 -0.2254  0.6504
  206MOL0     C27106   4.552   0.301   0.665  0.4652 -0.3128 -0.0629
  206MOL0     O27107   4.809   0.391   0.579  0.3507  0.0597  0.4072
  206MOL0     C27108   5.044   0.229   0.553  0.4753  0.2154  0.6179
  206MOL0     C27109   5.174   0.183   0.546  0.0533  0.2052 -0.3687
  206MOL0     N27110   5.894  -0.169   0.538 -0.2227  0.0592  0.4382
  206MOL0     N27111   5.999  -0.092   0.511  0.9242 -0.5940  0.3160
  206MOL0     C27112   6.819   0.967   0.566  0.1257 -0.0076  0.4029
  206MOL0     C27113   6.911   1.046   0.478  0.5379  0.7053 -0.1156
  206MOL0     C27114   7.169   1.221   0.180 -0.1152  0.1786 -0.4639
  206MOL0     C27115   7.177   1.343   0.115 -0.1867 -0.4758 -0.0886
  206MOL0     C27116   7.288   1.392   0.040 -1.0447 -0.0650 -0.0827
  206MOL0     C27117   7.392   1.296   0.014  0.3374 -0.1508 -0.3369
  206MOL0     O27118   7.498   1.313  -0.068 -0.4267  0.0388  0.5197
  206MOL0     C27119   7.542   1.436  -0.119 -0.8209  0.4310  0.2481
  206MOL0     C27120   7.661   1.483  -0.037  0.2851  0.6931 -0.3276
  206MOL0     C27121   7.781   1.399  -0.074 -0.5447  0.4517 -0.7151
  206MOL0     C27122   7.892   1.468  -0.008 -1.1940 -0.9300  0.3908
  206MOL0     C27123   8.026   1.414  -0.052  0.6517  0.5772  0.1255
  206MOL0     C27124   8.123   1.343  -0.061  0.2522  0.4071 -0.8416
  206MOL0     C27125   7.382   1.174   0.067  0.9171  0.3046  0.0453
  206MOL0     C27126   7.275   1.131   0.149  0.4007  0.1637  0.0852
  206MOL0     H27127   6.956   0.811   0.245  0.0828  1.5032 -1.9121
  206MOL0     H27128   6.808   0.689   0.368  2.8436 -0.0808 -3.6535
  206MOL0     H27129   6.638   0.577   0.589 -0.8732 -0.2203  0.9289
  206MOL0     H27130   6.582   0.685   0.451 -0.7851  0.9376 -0.0072
  206MOL0     H27131   6.440   0.797   0.614  1.2904 -0.0836  0.0051
  206MOL0     H27132   6.483   0.679   0.743  0.6752  0.6670 -0.3184
  206MOL0     H27133   6.338   0.604   0.479  1.2517 -1.0233  0.6514
  206MOL0     H27134   6.266   0.635   0.641 -1.1393 -3.2475  1.2539
  206MOL0     H27135   6.468   0.429   0.546  0.5075  3.0470 -1.0512
  206MOL0     H27136   6.452   0.460   0.720  2.2639 -2.5537 -0.5015
  206MOL0     H27137   6.210   0.388   0.555 -1.6695 -0.7050 -0.0843
  206MOL0     H27138   6.231   0.398   0.733  0.4710 -3.4498  1.3198
  206MOL0     H27139   6.394   0.203   0.715  0.3289 -0.1068 -0.6726
  206MOL0     H27140   6.371   0.183   0.552  1.0441  1.3009  0.9758
  206MOL0     H27141   6.261   0.029   0.693  1.2355  1.0288 -1.1799
  206MOL0     H27142   6.176   0.139   0.787 -3.5450 -0.6943 -0.8742
  206MOL0     H27143   6.129   0.115   0.480  1.4774 -2.0832  1.1255
  206MOL0     H27144   6.024   0.207   0.594 -0.5510  0.6254 -0.4488
  206MOL0     H27145   5.886   0.069   0.771  0.2809 -0.1800 -0.6594
  206MOL0     H27146   5.734  -0.211   0.819 -1.5512  0.0378  0.0176
  206MOL0     H27147   5.702  -0.291   0.666 -4.1753  0.8391 -0.9843
  206MOL0     H27148   5.507  -0.177   0.759 -0.6283  0.1037 -0.2141
  206MOL0     H27149   5.560  -0.131   0.591 -2.2523  0.7311  0.2622
  206MOL0     H27150   5.643   0.045   0.830  2.5824  0.3010 -2.0401
  206MOL0     H27151   5.619   0.081   0.664  0.5225 -0.4928 -0.4303
  206MOL0     H27152   5.423   0.138   0.864  1.3625 -2.3463  1.6570
  206MOL0     H27153   5.377  -0.022   0.844 -3.1480  3.6284  3.1444
  206MOL0     H27154   5.206   0.134   0.883 -0.1787 -1.2253 -1.1109
  206MOL0     H27155   4.999   0.250   0.892 -1.4037 -1.6175  1.3108
  206MOL0     H27156   4.604   0.395   0.981 -0.6590  0.4418 -0.3509
  206MOL0     H27157   4.376   0.424   0.972  0.2769  1.1737  0.1394
  206MOL0     H27158   4.165   0.265   0.632  0.2073  1.3622  0.2204
  206MOL0     H27159   4.032   0.304   0.733 -0.1664 -2.2017  1.0940
  206MOL0     H27160   4.185   0.216   0.926  1.3436 -1.4610  0.0430
  206MOL0     H27161   4.256   0.114   0.797 -1.4539 -1.3650 -0.9412
  206MOL0     H27162   4.046   0.018   0.730 -0.3016 -0.5015 -1.0123
  206MOL0     H27163   3.973   0.111   0.857  0.6256  0.9023 -0.3891
  206MOL0     H27164   4.202  -0.078   0.921 -0.0247 -2.2982  0.3528
  206MOL0     H27165   4.096   0.006   1.031  4.5126  0.9678 -0.5670
  206MOL0     H27166   4.023  -0.211   0.833 -0.5632  2.1873 -1.9286
  206MOL0     H27167   3.896  -0.124   0.923  0.8447  3.8541  0.4107
  206MOL0     H27168   3.944  -0.313   1.053 -0.6209  1.0471  1.0797
  206MOL0     H27169   4.008  -0.176   1.146 -0.6839 -0.0396  0.5322
  206MOL0     H27170   4.205  -0.322   0.960 -0.9910  0.5270 -0.2605
  206MOL0     H27171   4.237  -0.233   1.112  0.2718 -0.0468  1.0351
  206MOL0     H27172   4.068  -0.473   1.137  2.2964 -1.6725 -1.7542
  206MOL0     H27173   4.156  -0.395   1.259 -1.8290  0.6552 -0.6978
  206MOL0     H27174   4.354   0.317   0.564 -1.8862 -1.0550  2.5859
  206MOL0     H27175   4.597   0.244   0.584  0.4130 -1.8419  0.9231
  206MOL0     H27176   4.994   0.253   0.460  0.9360  1.2247  0.6162
  206MOL0     H27177   5.225   0.166   0.452  1.0854 -0.8547  0.3592
  206MOL0     H27178   6.780   1.012   0.657 -1.5576  1.5561 -1.0056
  206MOL0     H27179   6.946   1.148   0.492 -1.1585  1.2446  0.4210
  206MOL0     H27180   7.091   1.410   0.117  0.0555 -0.1721  0.2522
  206MOL0     H27181   7.293   1.489  -0.008  3.6434  1.3157  2.5874
  206MOL0     H27182   7.468   1.515  -0.110 -0.9874  0.5235 -1.5438
  206MOL0     H27183   7.562   1.431  -0.227 -1.0308 -1.7291  0.2488
  206MOL0     H27184   7.679   1.588  -0.062 -1.4885  1.2726  0.6976
  206MOL0     H27185   7.634   1.477   0.069  1.9727  1.6646  0.1967
  206MOL0     H27186   7.787   1.404  -0.183 -3.3101  0.5285 -0.9236
  206MOL0     H27187   7.766   1.297  -0.038 -1.8927  1.1138  0.7082
  206MOL0     H27188   7.895   1.568  -0.052  0.1384 -0.9508  0.4084
  206MOL0     H27189   7.877   1.482   0.100  3.2969  2.7334  0.8342
  206MOL0     H27190   8.207   1.276  -0.055  0.4968  0.6996 -0.9613
  206MOL0     H27191   7.454   1.097   0.041  1.2079  1.2080 -2.0483
  206MOL0     H27192   7.271   1.027   0.179 -2.5282  0.6252  1.5857
  207MOL0     O27193   3.999   9.495   2.950  0.3628  0.3343  0.1899
  207MOL0     C27194   3.974   9.610   2.976 -1.0779 -0.0379  0.0691
  207MOL0     O27195   3.861   9.677   2.943  0.4977  1.0267  0.1333
  207MOL0     C27196   3.763   9.609   2.868 -0.5190  0.0988 -0.3404
  207MOL0     C27197   3.717   9.674   2.757 -0.2651 -1.1064  0.0520
  207MOL0     C27198   3.604   9.629   2.690 -1.0239 -0.1538 -0.1700
  207MOL0     C27199   3.534   9.523   2.739  0.5822  1.2139 -0.2257
  207MOL0     O27200   3.412   9.476   2.694 -0.1508 -0.5854  0.4774
  207MOL0     C27201   3.382   9.513   2.563  0.4684  0.2962  1.3123
  207MOL0     C27202   3.297   9.409   2.480  0.0618  0.4243  0.0413
  207MOL0     C27203   3.174   9.360   2.560  0.7565  0.2863 -0.4251
  207MOL0     C27204   3.075   9.280   2.463  0.7533  0.8678  0.6638
  207MOL0     C27205   3.130   9.169   2.377  0.0661 -0.2063  0.9890
  207MOL0     C27206   3.039   9.111   2.269 -0.2312 -0.2828  0.0021
  207MOL0     C27207   2.919   9.032   2.315 -0.0723  0.1662 -0.2327
  207MOL0     C27208   2.841   8.972   2.193 -0.5685 -0.1916 -1.0281
  207MOL0     N27209   2.736   8.893   2.256 -0.8653  0.6614 -0.2788
  207MOL0     C27210   2.765   8.800   2.356 -0.4231 -0.1357  0.3663
  207MOL0     C27211   2.636   8.767   2.395  0.0217  0.0625 -0.8346
  207MOL0     C27212   2.611   8.695   2.522  0.0126  0.2924  0.1280
  207MOL0     C27213   2.659   8.546   2.504  0.1140  0.3997  0.0507
  207MOL0     C27214   2.591   8.455   2.404 -0.0177  0.2845 -0.1627
  207MOL0     C27215   2.447   8.416   2.426  0.0918  0.6655  0.5596
  207MOL0     O27216   2.423   8.390   2.564 -0.4323  0.6020  0.0160
  207MOL0     C27217   2.292   8.352   2.601  0.0229  0.4131  0.2277
  207MOL0     C27218   2.272   8.308   2.734 -0.8483 -0.2613 -0.4602
  207MOL0     C27219   2.144   8.266   2.764 -0.6049  0.5441 -0.9835
  207MOL0     C27220   2.033   8.264   2.681  0.4299  0.3404  0.1276
  207MOL0     C27221   1.892   8.222   2.711  0.2016 -0.5698 -0.7632
  207MOL0     O27222   1.797   8.242   2.616 -0.3323  0.1704  0.2380
  207MOL0     C27223   1.670   8.234   2.654 -1.0090 -0.1136  0.5926
  207MOL0     C27224   1.594   8.338   2.598 -0.1562  0.4066  0.1119
  207MOL0     C27225   1.460   8.345   2.620  0.5287  0.7673  0.8650
  207MOL0     C27226   1.396   8.251   2.699 -0.5076  1.0162 -0.1234
  207MOL0     O27227   1.261   8.231   2.718  0.1754 -0.3731  0.3139
  207MOL0     C27228   1.170   8.334   2.678 -0.1178 -1.0696  0.0027
  207MOL0     C27229   1.152   8.444   2.780  0.7410  0.0770 -0.1232
  207MOL0     C27230   1.091   8.388   2.916  0.0138 -0.2644  0.1445
  207MOL0     C27231   1.041   8.496   3.006 -0.7037  0.6378  0.5386
  207MOL0     C27232   1.142   8.578   3.086 -0.0604 -0.6604  0.2864
  207MOL0     C27233   1.227   8.484   3.175 -0.6446 -0.2730  0.7081
  207MOL0     C27234   1.283   8.555   3.302  0.0122  1.0220  0.0403
  207MOL0     C27235   1.371   8.464   3.395 -0.8041 -0.9076 -0.0032
  207MOL0    Cl27236   1.508   8.387   3.306 -0.0415 -0.3685 -0.1024
  207MOL0     C27237   1.469   8.149   2.760 -0.8157 -0.8190 -0.6558
  207MOL0     C27238   1.603   8.139   2.733 -0.1314  1.0446  0.3601
  207MOL0     O27239   1.875   8.186   2.828 -0.8976  0.2969 -0.5126
  207MOL0     C27240   2.059   8.309   2.544 -0.6523 -0.1833 -0.2972
  207MOL0     C27241   2.191   8.346   2.504 -0.1772  0.1130  0.1799
  207MOL0     N27242   2.544   8.825   2.311  0.6367  0.4709  0.3749
  207MOL0     N27243   2.603   8.902   2.230 -0.1805  0.8927  0.5242
  207MOL0     C27244   3.575   9.464   2.855 -1.0001  0.4063 -0.8580
  207MOL0     C27245   3.687   9.504   2.925  0.2040  0.4703  0.0204
  207MOL0     C27246   4.087   9.694   3.038  0.2451  1.2986 -0.3926
  207MOL0     C27247   4.078   9.825   3.039 -0.2141  0.3184 -0.9620
  207MOL0     C27248   4.186   9.901   3.105 -0.0797 -0.5432 -0.2945
  207MOL0     C27249   4.291   9.835   3.169 -0.0533 -0.0084  0.5154
  207MOL0     O27250   4.378   9.928   3.226 -0.0645 -0.0882 -0.0593
  207MOL0     C27251   4.505   9.887   3.270  0.9691 -0.0929  0.6238
  207MOL0     C27252   4.599   9.994   3.325 -1.1567 -0.3164 -0.2195
  207MOL0     C27253   4.735   9.937   3.379 -0.8485 -0.1439  0.0131
  207MOL0     C27254   4.859   9.956   3.288  0.5565 -0.4243  0.1725
  207MOL0     C27255   4.979   9.895   3.344 -0.1729 -0.8443  0.0565
  207MOL0     C27256   5.091   9.851   3.377 -0.3929 -0.3171  0.4749
  207MOL0     C27257   4.293   9.699   3.165 -1.1907 -0.3094  0.5862
  207MOL0     C27258   4.194   9.629   3.099  0.4713  0.8974 -0.5963
  207MOL0     H27259   3.769   9.756   2.709 -0.7243 -1.4118 -1.0052
  207MOL0     H27260   3.569   9.690   2.607 -0.2538  1.1382  0.4244
  207MOL0     H27261   3.471   9.535   2.504 -1.7543  1.5146 -1.8150
  207MOL0     H27262   3.319   9.602   2.564 -0.8997 -0.5745  3.7638
  207MOL0     H27263   3.368   9.328   2.455  1.0074  0.9604  0.9075
  207MOL0     H27264   3.266   9.444   2.381 -0.8045  0.0477  0.1722
  207MOL0     H27265   3.112   9.437   2.607 -0.7785 -2.0302  1.5421
  207MOL0     H27266   3.195   9.305   2.652  0.1465  0.1555 -0.3596
  207MOL0     H27267   2.996   9.239   2.526 -0.1832 -1.6221 -1.8738
  207MOL0     H27268   3.040   9.359   2.396  1.3740  2.2630  1.9540
  207MOL0     H27269   3.173   9.092   2.442  0.0256 -0.8616  0.2527
  207MOL0     H27270   3.220   9.200   2.322  0.4772 -1.1719  1.0966
  207MOL0     H27271   3.086   9.044   2.196  0.7376 -1.7619  1.8855
  207MOL0     H27272   3.013   9.204   2.218  1.3736  0.4297  0.4130
  207MOL0     H27273   2.964   8.953   2.375  1.1135  1.2551  0.3688
  207MOL0     H27274   2.846   9.091   2.370  1.3240  2.0621 -0.2930
  207MOL0     H27275   2.909   8.906   2.137  0.0134  0.2115 -0.8103
  207MOL0     H27276   2.806   9.050   2.125 -1.2260  1.3203  0.9508
  207MOL0     H27277   2.862   8.774   2.396 -1.7346 -0.2055  3.8418
  207MOL0     H27278   2.504   8.695   2.546 -0.4377 -1.7685 -1.5668
  207MOL0     H27279   2.668   8.734   2.606 -0.3938  2.1814 -0.4111
  207MOL0     H27280   2.648   8.500   2.603  0.4002  1.4366  0.5675
  207MOL0     H27281   2.766   8.540   2.486  0.5463  3.4319  1.1193
  207MOL0     H27282   2.593   8.510   2.309 -1.9708  1.3040  0.3409
  207MOL0     H27283   2.650   8.364   2.389 -0.0803 -0.5296  3.6386
  207MOL0     H27284   2.421   8.333   2.360 -2.0725  0.3433  1.7035
  207MOL0     H27285   2.388   8.506   2.405 -0.1768  0.9158  2.2259
  207MOL0     H27286   2.346   8.332   2.810 -0.3489  1.2027 -1.3660
  207MOL0     H27287   2.127   8.250   2.870  1.7903  1.9684 -0.3079
  207MOL0     H27288   1.648   8.408   2.536  1.6921 -0.0905  1.0853
  207MOL0     H27289   1.400   8.432   2.593 -1.0481  0.1551  2.1828
  207MOL0     H27290   1.076   8.280   2.668  0.2552 -1.8739  0.6379
  207MOL0     H27291   1.192   8.382   2.583  0.1173 -1.0239  0.0768
  207MOL0     H27292   1.080   8.516   2.740 -0.6748 -1.1004  0.1973
  207MOL0     H27293   1.248   8.495   2.783  1.7335 -1.7325  0.4139
  207MOL0     H27294   1.157   8.325   2.976 -1.5868 -0.4058  1.8436
  207MOL0     H27295   1.006   8.326   2.886  0.6565 -0.4523 -1.4144
  207MOL0     H27296   0.991   8.571   2.944 -1.3525  0.7280  1.1633
  207MOL0     H27297   0.962   8.470   3.077 -1.4055  1.6499  0.1560
  207MOL0     H27298   1.080   8.644   3.147  0.5711  2.0591 -1.8166
  207MOL0     H27299   1.197   8.652   3.027 -1.1604 -0.4159 -0.4612
  207MOL0     H27300   1.300   8.428   3.116 -0.0643  0.7768  0.3934
  207MOL0     H27301   1.160   8.407   3.213 -1.3622  0.3163  0.6712
  207MOL0     H27302   1.334   8.649   3.279 -2.1423  2.6550  1.5724
  207MOL0     H27303   1.197   8.589   3.361 -1.0618  1.1789 -1.5689
  207MOL0     H27304   1.307   8.388   3.441 -4.0626  1.3283 -0.5086
  207MOL0     H27305   1.406   8.530   3.476  2.4711 -0.6335 -1.4829
  207MOL0     H27306   1.419   8.076   2.823 -2.3921  1.2737  0.7043
  207MOL0     H27307   1.645   8.051   2.781  0.4448  1.6861  1.0615
  207MOL0     H27308   1.983   8.307   2.467 -1.6503 -2.7917  0.6445
  207MOL0     H27309   2.213   8.368   2.400 -2.5292 -0.6129 -0.5305
  207MOL0     H27310   3.512   9.381   2.885 -1.5774  0.6703 -1.3330
  207MOL0     H27311   3.723   9.453   3.014  0.3416  0.8787  0.2036
  207MOL0     H27312   4.004   9.881   2.982  1.6923  1.5144 -2.3906
  207MOL0     H27313   4.201  10.009   3.096 -1.3335 -0.1401  1.6887
  207MOL0     H27314   4.543   9.830   3.184 -0.3919 -1.6311  0.9801
  207MOL0     H27315   4.477   9.809   3.342  0.5644 -2.0184 -1.5049
  207MOL0     H27316   4.624  10.072   3.253 -1.7620 -0.4115 -0.5432
  207MOL0     H27317   4.545  10.047   3.404 -1.1353 -2.1120  1.0656
  207MOL0     H27318   4.717   9.829   3.390 -2.0065 -0.0960 -1.1846
  207MOL0     H27319   4.750   9.978   3.480 -0.9843 -4.4418  2.0214
  207MOL0     H27320   4.835   9.910   3.191  3.3075 -0.4581 -0.5971
  207MOL0     H27321   4.885  10.061   3.277  1.8750 -0.7926 -0.4133
  207MOL0     H27322   5.182   9.812   3.417 -0.8632 -0.8370  1.0768
  207MOL0     H27323   4.378   9.653   3.214  1.0342  0.5814 -2.1520
  207MOL0     H27324   4.213   9.523   3.087  3.1320  1.3070 -0.5599
  208MOL0     O27325   1.560   7.154   0.970 -0.3418  0.3067 -0.2539
  208MOL0     C27326   1.618   7.224   0.885 -0.0105 -0.1818 -0.1172
  208MOL0     O27327   1.566   7.256   0.759  0.2429  0.1718 -1.0189
  208MOL0     C27328   1.431   7.212   0.740 -0.3465 -0.8575 -0.8437
  208MOL0     C27329   1.321   7.303   0.769 -0.1832 -0.0578  0.6375
  208MOL0     C27330   1.191   7.282   0.729  1.0713  0.3494  0.4661
  208MOL0     C27331   1.154   7.166   0.656 -0.0409 -0.2481 -0.5268
  208MOL0     O27332   1.028   7.132   0.625  0.1480 -0.7344 -0.4334
  208MOL0     C27333   0.943   7.243   0.575 -0.9502 -0.1076  0.4185
  208MOL0     C27334   0.829   7.185   0.504 -0.4427  0.6929 -0.3434
  208MOL0     C27335   0.806   7.035   0.518 -0.3322  0.8662 -0.3207
  208MOL0     C27336   0.665   7.000   0.464  0.7545 -0.2617  0.4801
  208MOL0     C27337   0.614   6.865   0.518  0.7202 -0.4562  0.7298
  208MOL0     C27338   0.561   6.881   0.661  0.0196 -0.3994 -0.5001
  208MOL0     C27339   0.487   6.762   0.713  0.4915  0.9164  0.5438
  208MOL0     C27340   0.445   6.782   0.862  0.1285  0.1534 -0.0642
  208MOL0     N27341   0.378   6.657   0.910 -0.1924  0.6810 -0.0578
  208MOL0     C27342   0.441   6.530   0.905 -0.4450 -0.4308  0.3645
  208MOL0     C27343   0.343   6.443   0.916  0.1558  0.1941  0.9145
  208MOL0     C27344   0.336   6.289   0.935  0.1216 -0.0981  0.4061
  208MOL0     C27345   0.468   6.215   0.932  0.2759  0.6217  0.2851
  208MOL0     C27346   0.448   6.078   0.861 -0.5543  0.0351 -0.5092
  208MOL0     C27347   0.571   5.990   0.851 -0.1680  0.0969 -0.1574
  208MOL0     O27348   0.539   5.858   0.808  0.1454 -0.5598  0.4688
  208MOL0     C27349   0.625   5.751   0.839 -0.3573  0.6785  0.5415
  208MOL0     C27350   0.726   5.761   0.938 -0.7319 -0.4374  0.3230
  208MOL0     C27351   0.807   5.654   0.964 -0.0614  0.7903  0.7953
  208MOL0     C27352   0.790   5.535   0.892 -0.8169 -1.1881 -0.8786
  208MOL0     C27353   0.861   5.419   0.936  0.5388 -0.3207  0.2423
  208MOL0     O27354   0.930   5.431   1.050  0.1096 -0.1086  0.1365
  208MOL0     C27355   1.022   5.338   1.090  0.6525  0.7743 -0.4933
  208MOL0     C27356   1.039   5.320   1.226 -0.2860 -0.3801  0.5229
  208MOL0     C27357   1.133   5.224   1.278  0.5865  0.7296  0.4792
  208MOL0     C27358   1.222   5.149   1.192 -0.9165 -0.5728 -0.9775
  208MOL0     O27359   1.303   5.045   1.219 -0.8404  0.2689  0.3132
  208MOL0     C27360   1.291   4.978   1.342  0.7838  1.2570 -0.4950
  208MOL0     C27361   1.379   4.846   1.319 -0.4237  0.0413 -0.3863
  208MOL0     C27362   1.373   4.742   1.432 -1.0482 -0.8175  0.5944
  208MOL0     C27363   1.424   4.601   1.386  0.4415  0.2353 -0.5467
  208MOL0     C27364   1.432   4.503   1.504  0.0522 -0.2450 -0.3243
  208MOL0     C27365   1.543   4.528   1.609  0.0229  0.4258 -0.7223
  208MOL0     C27366   1.534   4.409   1.708  0.5900 -0.4721  0.3104
  208MOL0     C27367   1.643   4.416   1.808  0.8077  0.0552 -0.1748
  208MOL0    Cl27368   1.630   4.278   1.925  0.3954  0.1112 -0.0803
  208MOL0     C27369   1.210   5.170   1.056 -0.2957 -0.8016 -0.1434
  208MOL0     C27370   1.116   5.270   1.003  0.2897  0.1106 -0.2222
  208MOL0     O27371   0.869   5.324   0.859  0.7772  0.8063 -0.3733
  208MOL0     C27372   0.696   5.526   0.795  0.7187  0.6623 -0.2329
  208MOL0     C27373   0.615   5.631   0.770 -0.0204 -0.3462  0.7361
  208MOL0     N27374   0.227   6.517   0.919 -0.4922  0.7800  0.4625
  208MOL0     N27375   0.243   6.644   0.918  0.1678 -1.4286 -0.2391
  208MOL0     C27376   1.263   7.079   0.633  0.4001 -0.1008  0.1925
  208MOL0     C27377   1.402   7.104   0.664  1.0113  0.9421  1.3063
  208MOL0     C27378   1.737   7.295   0.930 -0.3288  0.5839  0.0983
  208MOL0     C27379   1.796   7.263   1.050 -0.6659  0.4143 -0.1198
  208MOL0     C27380   1.910   7.331   1.094  0.2124  0.0091 -0.6495
  208MOL0     C27381   1.964   7.427   1.016 -0.1496 -0.2747 -0.2932
  208MOL0     O27382   2.077   7.492   1.057  0.4411  0.4804  0.4072
  208MOL0     C27383   2.199   7.421   1.023 -0.2357  0.2348 -0.5467
  208MOL0     C27384   2.277   7.490   0.910  1.0961  0.4750 -0.7381
  208MOL0     C27385   2.272   7.637   0.913  0.7463  0.2477  0.1452
  208MOL0     C27386   2.347   7.704   0.797  0.0721 -0.3356 -0.3110
  208MOL0     C27387   2.478   7.646   0.753  0.2196  0.0918  0.4239
  208MOL0     C27388   2.579   7.607   0.710 -1.1717 -0.0612 -0.0242
  208MOL0     C27389   1.920   7.441   0.886  0.3192  0.2685  1.1139
  208MOL0     C27390   1.802   7.384   0.842 -0.1406  0.4446 -0.5718
  208MOL0     H27391   1.350   7.397   0.814 -0.4776 -0.2884  1.3270
  208MOL0     H27392   1.121   7.358   0.760 -0.5754 -1.4289  1.3046
  208MOL0     H27393   1.001   7.303   0.505 -0.9182 -1.4102 -0.6971
  208MOL0     H27394   0.917   7.318   0.650 -1.7470  2.2523 -2.0519
  208MOL0     H27395   0.833   7.202   0.396 -1.9907  1.8197 -0.2561
  208MOL0     H27396   0.742   7.241   0.538  0.5109  1.4386  0.9540
  208MOL0     H27397   0.810   7.022   0.627  0.0291  1.9609 -0.1916
  208MOL0     H27398   0.889   6.978   0.474 -1.2761  0.3514 -1.4808
  208MOL0     H27399   0.591   7.078   0.483  0.4563 -0.0387 -1.4709
  208MOL0     H27400   0.678   6.996   0.356  2.4602 -1.6816  0.6908
  208MOL0     H27401   0.694   6.793   0.500  2.9049  2.1819 -0.8674
  208MOL0     H27402   0.539   6.831   0.445  1.3965  1.9847 -1.2051
  208MOL0     H27403   0.493   6.967   0.664 -1.5714 -1.6317 -0.3048
  208MOL0     H27404   0.645   6.893   0.731  0.1696 -0.0673 -0.7279
  208MOL0     H27405   0.388   6.756   0.666  0.7038 -2.3132  0.2724
  208MOL0     H27406   0.548   6.674   0.695  1.2655  1.4554  0.4945
  208MOL0     H27407   0.372   6.863   0.876 -0.7221 -0.8538  1.5746
  208MOL0     H27408   0.536   6.801   0.920 -0.1199 -0.3395  0.4993
  208MOL0     H27409   0.547   6.510   0.894 -0.5125 -0.2853 -0.6142
  208MOL0     H27410   0.286   6.253   0.844 -2.0082  2.9298  0.2082
  208MOL0     H27411   0.277   6.259   1.022  0.1073  2.4031  1.3493
  208MOL0     H27412   0.497   6.197   1.036 -1.8504 -0.7233  0.7110
  208MOL0     H27413   0.536   6.274   0.870 -1.5551  2.3975 -0.1180
  208MOL0     H27414   0.376   6.023   0.923 -1.4266 -0.6641 -2.0693
  208MOL0     H27415   0.403   6.096   0.763  1.5223 -0.8161 -1.6691
  208MOL0     H27416   0.615   5.976   0.950  0.7972 -3.2410 -0.9315
  208MOL0     H27417   0.647   6.039   0.790 -0.2215 -0.7163 -0.8956
  208MOL0     H27418   0.747   5.851   0.994 -0.3414  1.4160 -2.5738
  208MOL0     H27419   0.878   5.661   1.046 -0.5609 -1.1931  1.4476
  208MOL0     H27420   0.974   5.377   1.291 -1.7609  0.2411 -1.3897
  208MOL0     H27421   1.122   5.220   1.386  1.3683  0.7836  0.5630
  208MOL0     H27422   1.186   4.948   1.351  1.1246  0.4257  1.1280
  208MOL0     H27423   1.326   5.036   1.428  1.2437  0.0739  0.1395
  208MOL0     H27424   1.483   4.863   1.288  0.0062 -0.5521  0.6763
  208MOL0     H27425   1.329   4.794   1.237  0.5667 -0.2014 -0.8615
  208MOL0     H27426   1.272   4.736   1.473 -0.4589 -0.0288  2.2425
  208MOL0     H27427   1.438   4.779   1.512  0.1357  1.6185 -1.3510
  208MOL0     H27428   1.361   4.562   1.306 -1.2009  0.8674  0.4099
  208MOL0     H27429   1.521   4.610   1.335 -0.2683 -1.5670 -2.3469
  208MOL0     H27430   1.449   4.403   1.462  1.8196 -0.7946  1.4946
  208MOL0     H27431   1.334   4.510   1.552  0.3431  0.2329  0.2042
  208MOL0     H27432   1.528   4.627   1.651  1.0509  0.5282 -0.5990
  208MOL0     H27433   1.643   4.507   1.570  2.3572 -0.5144  4.9092
  208MOL0     H27434   1.437   4.407   1.760  0.3926 -0.5507 -0.0600
  208MOL0     H27435   1.553   4.313   1.659 -1.6997 -1.4709  1.2098
  208MOL0     H27436   1.632   4.512   1.858 -1.3363  1.0089 -2.3147
  208MOL0     H27437   1.743   4.415   1.762  0.0678 -0.0564 -1.8758
  208MOL0     H27438   1.281   5.126   0.987 -1.1270 -1.4089 -0.6320
  208MOL0     H27439   1.135   5.291   0.899  1.1084 -0.0864 -0.1218
  208MOL0     H27440   0.681   5.434   0.740 -2.2804  2.2256 -2.2927
  208MOL0     H27441   0.527   5.619   0.708 -0.9762 -0.3304  2.0436
  208MOL0     H27442   1.245   6.988   0.576  0.6861 -0.5845  0.8650
  208MOL0     H27443   1.485   7.035   0.656 -1.0548 -1.7881  1.8815
  208MOL0     H27444   1.750   7.186   1.111 -0.1480 -1.5236 -2.0535
  208MOL0     H27445   1.937   7.329   1.200 -0.6931  1.8724 -0.3250
  208MOL0     H27446   2.190   7.317   0.990 -3.2653  0.7613 -1.7372
  208MOL0     H27447   2.262   7.441   1.110 -1.9355  0.2008  0.7354
  208MOL0     H27448   2.379   7.452   0.913  0.3186 -1.9363 -2.0325
  208MOL0     H27449   2.229   7.467   0.814  0.2695  2.7656 -0.9442
  208MOL0     H27450   2.319   7.674   1.005 -1.1333  2.4056  0.3381
  208MOL0     H27451   2.170   7.677   0.907  1.2166  1.4864 -0.0346
  208MOL0     H27452   2.288   7.698   0.705  1.5039  0.0789 -1.2859
  208MOL0     H27453   2.351   7.809   0.827 -1.0653 -0.0965 -0.9712
  208MOL0     H27454   2.679   7.582   0.678 -1.6405 -2.8148  0.4158
  208MOL0     H27455   1.978   7.494   0.810  3.2255 -4.7583 -0.6841
  208MOL0     H27456   1.761   7.401   0.744 -1.9185 -1.1692 -0.1740
  209MOL0     O27457   7.487   4.379   6.449 -0.0699 -0.4812  0.0384
  209MOL0     C27458   7.595   4.323   6.475 -0.0534 -0.1049 -0.5469
  209MOL0     O27459   7.629   4.188   6.466 -0.5421 -0.0686 -0.4466
  209MOL0     C27460   7.536   4.107   6.418 -0.2042  0.7352 -0.0282
  209MOL0     C27461   7.413   4.097   6.476 -0.1114  0.8266 -0.1809
  209MOL0     C27462   7.303   4.032   6.415  0.6188  0.3004  0.7427
  209MOL0     C27463   7.321   3.970   6.289  0.4913  0.1135  1.2012
  209MOL0     O27464   7.200   3.932   6.238  0.6126 -0.2108  0.1964
  209MOL0     C27465   7.189   3.874   6.107  0.1534  0.3315  0.0934
  209MOL0     C27466   7.073   3.778   6.096  0.0192  0.7935 -0.1501
  209MOL0     C27467   7.095   3.644   6.156  0.3686  0.5368 -0.0391
  209MOL0     C27468   6.994   3.538   6.118 -0.2373 -0.4480 -0.2792
  209MOL0     C27469   7.026   3.416   6.192 -0.1212  0.7455  0.8305
  209MOL0     C27470   6.947   3.396   6.319  0.2994 -0.6181 -0.3001
  209MOL0     C27471   6.971   3.273   6.414  0.5060  0.6675  0.3772
  209MOL0     C27472   6.925   3.141   6.350 -0.2361  0.3484 -1.0847
  209MOL0     N27473   6.939   3.034   6.447 -0.4787  1.1750  0.4096
  209MOL0     C27474   6.852   3.006   6.547  0.3701  0.5038 -0.5326
  209MOL0     C27475   6.908   2.905   6.623  0.3640 -0.5601  0.4432
  209MOL0     C27476   6.860   2.832   6.746 -0.6065 -1.6695 -0.6059
  209MOL0     C27477   6.791   2.704   6.710 -0.0208 -0.0235  0.6712
  209MOL0     C27478   6.658   2.728   6.638  0.7164 -0.1641 -0.2389
  209MOL0     C27479   6.548   2.616   6.658 -0.8305  0.7451  0.0094
  209MOL0     O27480   6.470   2.638   6.780  0.3109 -0.0526  0.1570
  209MOL0     C27481   6.427   2.526   6.843  0.2220  0.4161 -0.5276
  209MOL0     C27482   6.396   2.400   6.790 -0.0253 -0.7133  0.1218
  209MOL0     C27483   6.335   2.299   6.871  0.1122 -0.0557 -0.1029
  209MOL0     C27484   6.305   2.328   7.004 -0.1667 -0.2287 -0.4725
  209MOL0     C27485   6.247   2.228   7.093  0.4468 -0.4595 -0.7679
  209MOL0     O27486   6.240   2.105   7.053  0.3061  1.1188 -0.0280
  209MOL0     C27487   6.193   2.003   7.141  0.6295 -0.4382  0.3342
  209MOL0     C27488   6.279   1.964   7.246 -0.2969 -0.1915 -0.4827
  209MOL0     C27489   6.255   1.843   7.311  0.8620  0.1697  0.9545
  209MOL0     C27490   6.135   1.767   7.282  0.2050 -1.2578 -0.1244
  209MOL0     O27491   6.113   1.657   7.351 -0.3913 -0.5690  0.2148
  209MOL0     C27492   5.985   1.584   7.348 -0.0243 -0.5620 -0.0066
  209MOL0     C27493   6.005   1.467   7.450 -0.4085 -0.5176  0.0251
  209MOL0     C27494   5.878   1.379   7.465  0.0128 -0.4872 -0.0496
  209MOL0     C27495   5.749   1.456   7.514 -1.0144  0.0001  0.2572
  209MOL0     C27496   5.639   1.358   7.574 -0.6501  0.0421 -0.1917
  209MOL0     C27497   5.596   1.244   7.491 -0.0209  0.1982 -0.8583
  209MOL0     C27498   5.473   1.177   7.541  0.3570 -0.6319  0.0575
  209MOL0     C27499   5.478   1.035   7.494 -0.0705  0.9940  0.1386
  209MOL0    Cl27500   5.587   0.926   7.583  0.0592  0.6647  0.1125
  209MOL0     C27501   6.037   1.824   7.199 -0.4070 -0.6529  0.4127
  209MOL0     C27502   6.065   1.945   7.125 -0.1869 -0.7888 -0.1138
  209MOL0     O27503   6.190   2.271   7.192 -0.4263  0.0481  0.4153
  209MOL0     C27504   6.336   2.461   7.054 -0.9952 -0.2413 -0.3300
  209MOL0     C27505   6.389   2.558   6.972 -0.4384  0.0813 -0.5661
  209MOL0     N27506   7.010   2.857   6.548 -0.5613  0.4105 -0.0240
  209MOL0     N27507   7.027   2.932   6.440  0.3256  0.1674  0.6031
  209MOL0     C27508   7.451   3.974   6.234 -0.7331 -0.3099 -0.0762
  209MOL0     C27509   7.556   4.045   6.294  0.9882 -0.2493 -0.6608
  209MOL0     C27510   7.701   4.418   6.527  0.2265 -0.2963 -0.3267
  209MOL0     C27511   7.830   4.368   6.544 -0.0325  0.3265 -0.0305
  209MOL0     C27512   7.940   4.444   6.578  0.9413  0.0433 -0.2421
  209MOL0     C27513   7.920   4.583   6.600 -0.3300 -0.3058 -0.2025
  209MOL0     O27514   8.032   4.663   6.620  0.2344  0.0212  0.7158
  209MOL0     C27515   8.128   4.676   6.513  0.1473  0.3138 -0.4066
  209MOL0     C27516   8.165   4.821   6.498  0.6405 -0.3000 -0.6217
  209MOL0     C27517   8.121   4.884   6.357 -0.8212  0.5862  0.1841
  209MOL0     C27518   8.120   5.033   6.367  0.5720  0.5395  0.3929
  209MOL0     C27519   7.993   5.080   6.406  0.7858 -0.6284  1.1075
  209MOL0     C27520   7.882   5.121   6.450  0.6613 -0.2240 -0.5416
  209MOL0     C27521   7.788   4.635   6.601 -0.3734  0.3097 -0.6290
  209MOL0     C27522   7.682   4.554   6.547 -0.1145 -0.6519 -0.0387
  209MOL0     H27523   7.402   4.151   6.569  1.6578  0.6730  0.1608
  209MOL0     H27524   7.204   4.025   6.459 -0.1176 -1.6328 -1.0799
  209MOL0     H27525   7.274   3.810   6.083 -0.4698 -0.5302  0.1508
  209MOL0     H27526   7.186   3.956   6.035 -2.2029 -1.2583 -1.7439
  209MOL0     H27527   7.064   3.761   5.988  0.9653 -2.4568  0.1913
  209MOL0     H27528   6.982   3.826   6.134  1.1367  1.3471  2.0174
  209MOL0     H27529   7.084   3.650   6.265 -1.6858 -5.4745  0.4546
  209MOL0     H27530   7.194   3.602   6.139  0.8543  1.2248  0.9690
  209MOL0     H27531   6.890   3.571   6.127 -0.9200 -2.2751 -0.9298
  209MOL0     H27532   6.993   3.516   6.011 -1.0607 -1.0291 -0.1632
  209MOL0     H27533   7.134   3.406   6.201 -0.2670 -0.7718  1.1508
  209MOL0     H27534   6.998   3.338   6.120  2.7989  1.3947 -1.1955
  209MOL0     H27535   6.842   3.403   6.292 -0.3461  1.0137  2.2726
  209MOL0     H27536   6.958   3.477   6.392  1.3561 -2.2916  1.4927
  209MOL0     H27537   7.077   3.258   6.437 -0.1792 -1.0898  2.8597
  209MOL0     H27538   6.913   3.287   6.506 -2.8719  0.5005 -1.5431
  209MOL0     H27539   6.971   3.137   6.251 -1.0477  1.3278 -1.5099
  209MOL0     H27540   6.818   3.138   6.328 -1.3263 -1.0517  3.2910
  209MOL0     H27541   6.761   3.062   6.566  0.7526  1.2333 -0.7913
  209MOL0     H27542   6.791   2.900   6.798 -0.7276  0.2800 -3.0773
  209MOL0     H27543   6.948   2.812   6.808 -1.2147 -2.0673  0.1500
  209MOL0     H27544   6.771   2.643   6.799 -0.6221 -1.9584 -0.7250
  209MOL0     H27545   6.857   2.646   6.646  0.4663 -0.3295  1.4439
  209MOL0     H27546   6.607   2.816   6.678 -7.2384 -2.6147 -3.1424
  209MOL0     H27547   6.663   2.744   6.530  1.0098  0.4098 -0.1419
  209MOL0     H27548   6.591   2.516   6.652 -1.4457  0.2576  2.5622
  209MOL0     H27549   6.478   2.641   6.578  0.6626  1.2316 -1.2025
  209MOL0     H27550   6.425   2.374   6.688  0.8179 -1.5203  0.5580
  209MOL0     H27551   6.315   2.201   6.829 -0.7709  0.4399 -0.8937
  209MOL0     H27552   6.381   2.001   7.244 -0.2169 -0.1111  2.0044
  209MOL0     H27553   6.327   1.798   7.379 -0.3037 -0.2182  1.9672
  209MOL0     H27554   5.970   1.545   7.248  0.5272 -0.0613 -0.2921
  209MOL0     H27555   5.905   1.645   7.390  1.5205  0.0281  2.3306
  209MOL0     H27556   6.035   1.497   7.551  1.0271  1.7753 -0.9992
  209MOL0     H27557   6.083   1.400   7.412 -1.3620 -0.6265 -1.8645
  209MOL0     H27558   5.900   1.300   7.537  2.1281  1.6849  1.8629
  209MOL0     H27559   5.864   1.336   7.365 -0.0721  1.0887 -0.7482
  209MOL0     H27560   5.772   1.525   7.595 -1.7396  1.7812 -0.9892
  209MOL0     H27561   5.705   1.506   7.427 -1.3881 -1.5942 -0.5127
  209MOL0     H27562   5.549   1.415   7.598 -0.8175  0.2994 -1.3776
  209MOL0     H27563   5.687   1.324   7.667 -0.2601 -1.2635 -0.8541
  209MOL0     H27564   5.678   1.175   7.467  0.7815 -0.0382  2.1952
  209MOL0     H27565   5.569   1.294   7.397 -3.0988 -2.0043 -1.2759
  209MOL0     H27566   5.459   1.185   7.649 -1.0025  1.7397 -0.2318
  209MOL0     H27567   5.382   1.230   7.512  1.2133  2.1789  2.0744
  209MOL0     H27568   5.515   1.025   7.392  1.3504 -0.7536  0.7721
  209MOL0     H27569   5.382   0.984   7.496  1.7448 -2.7269 -0.4385
  209MOL0     H27570   5.941   1.774   7.202 -1.1027  0.6377  0.3682
  209MOL0     H27571   5.991   1.985   7.056 -0.5987  0.8553  1.2420
  209MOL0     H27572   6.324   2.482   7.160  2.4694  1.9029 -0.1792
  209MOL0     H27573   6.401   2.663   6.996  1.8471 -0.1309 -0.5767
  209MOL0     H27574   7.475   3.926   6.140  0.9681  3.2811 -1.6445
  209MOL0     H27575   7.659   4.045   6.259  1.2089  0.4087 -0.0533
  209MOL0     H27576   7.847   4.263   6.527  0.6258  0.8136 -2.8852
  209MOL0     H27577   8.037   4.395   6.575 -0.6842 -3.4083 -2.0434
  209MOL0     H27578   8.074   4.620   6.437 -1.9952 -1.0618  1.9475
  209MOL0     H27579   8.215   4.613   6.536 -1.1552 -2.3120 -2.1698
  209MOL0     H27580   8.124   4.882   6.580 -2.9873 -2.9443 -0.2304
  209MOL0     H27581   8.272   4.840   6.494  1.4025 -2.5119  3.3241
  209MOL0     H27582   8.024   4.845   6.325  0.0887 -0.9971 -0.7863
  209MOL0     H27583   8.185   4.851   6.274  0.8674  0.0155  1.6513
  209MOL0     H27584   8.196   5.070   6.438  2.0013  0.3443 -0.9817
  209MOL0     H27585   8.148   5.082   6.273 -1.5793  0.3035 -0.4110
  209MOL0     H27586   7.796   5.163   6.497 -1.9795 -4.6563 -0.8987
  209MOL0     H27587   7.777   4.742   6.612 -1.3966  0.7187 -4.2732
  209MOL0     H27588   7.581   4.591   6.538 -0.0097 -0.7895 -2.3461
  210MOL0     O27589   9.042  10.372   2.219 -0.1636 -0.6971  0.1206
  210MOL0     C27590   9.111  10.406   2.314 -0.6113 -0.2948  0.3229
  210MOL0     O27591   9.059  10.449   2.434  0.2311 -0.1253 -0.5216
  210MOL0     C27592   8.921  10.432   2.442 -0.1082  0.9792 -0.2562
  210MOL0     C27593   8.848  10.314   2.467 -0.7892  0.3140 -0.2914
  210MOL0     C27594   8.710  10.309   2.475 -0.7585 -0.4861 -0.0927
  210MOL0     C27595   8.637  10.427   2.436  0.4429 -0.2514  0.1753
  210MOL0     O27596   8.500  10.436   2.422 -0.8068  0.2864 -0.2641
  210MOL0     C27597   8.415  10.338   2.453 -0.2967 -0.2553 -0.6152
  210MOL0     C27598   8.275  10.392   2.427  0.3622 -0.4537  1.1680
  210MOL0     C27599   8.173  10.277   2.460  0.1901  0.5697 -0.0177
  210MOL0     C27600   8.029  10.335   2.471 -0.1572  0.2267 -1.0641
  210MOL0     C27601   7.969  10.398   2.339  0.7418  0.6685  1.2489
  210MOL0     C27602   7.817  10.422   2.352  0.1754  0.1563  0.4708
  210MOL0     C27603   7.762  10.521   2.245  0.7802  0.0068  0.3903
  210MOL0     C27604   7.626  10.589   2.282 -0.6626 -0.6185 -0.2451
  210MOL0     N27605   7.527  10.483   2.286 -0.0660  0.0321 -0.0722
  210MOL0     C27606   7.484  10.423   2.402  0.5625  0.3275  0.1401
  210MOL0     C27607   7.371  10.358   2.362 -0.1256  0.2937 -0.3056
  210MOL0     C27608   7.283  10.280   2.460  0.0568  0.0716  0.5399
  210MOL0     C27609   7.176  10.368   2.522  0.2811  0.0328 -0.3921
  210MOL0     C27610   7.097  10.431   2.411 -0.6882 -0.9473 -0.7734
  210MOL0     C27611   6.977  10.514   2.444  0.0666 -0.4866 -0.0966
  210MOL0     O27612   6.882  10.420   2.497 -0.3727 -0.6681 -0.4076
  210MOL0     C27613   6.763  10.471   2.541 -1.1524 -0.4426  0.3932
  210MOL0     C27614   6.767  10.555   2.655  0.1171 -0.0879 -0.1611
  210MOL0     C27615   6.647  10.631   2.686 -0.0504 -0.5400 -0.1389
  210MOL0     C27616   6.532  10.616   2.601  0.3252 -0.0289 -0.1412
  210MOL0     C27617   6.416  10.708   2.598 -1.7448  0.1429  0.4421
  210MOL0     O27618   6.304  10.673   2.533 -0.0436  0.6506  0.6448
  210MOL0     C27619   6.189  10.746   2.536  0.5839  0.2723  0.2973
  210MOL0     C27620   6.093  10.700   2.446  0.1981 -0.1964 -0.1087
  210MOL0     C27621   5.962  10.749   2.441  0.0117 -0.3117 -0.0374
  210MOL0     C27622   5.925  10.865   2.514 -0.5588 -0.4430 -0.4904
  210MOL0     O27623   5.806  10.925   2.522 -0.0864 -0.0287 -0.4375
  210MOL0     C27624   5.730  10.936   2.398  0.2555 -0.3662  0.3668
  210MOL0     C27625   5.633  11.052   2.420 -1.0115 -0.4238  0.2468
  210MOL0     C27626   5.534  11.064   2.305 -0.4634  0.1060 -0.9296
  210MOL0     C27627   5.454  11.191   2.291 -0.8286 -0.2143  0.2430
  210MOL0     C27628   5.521  11.306   2.204 -0.1902 -0.2167  0.6730
  210MOL0     C27629   5.499  11.292   2.052 -0.3120  0.0170 -0.4434
  210MOL0     C27630   5.554  11.411   1.972 -0.8971 -0.4745 -0.2761
  210MOL0     C27631   5.703  11.399   1.927 -0.8328 -0.2229  1.7546
  210MOL0    Cl27632   5.751  11.527   1.811 -0.0191  0.4493 -0.1474
  210MOL0     C27633   6.024  10.907   2.604  0.2252  0.0345  0.3029
  210MOL0     C27634   6.147  10.845   2.621 -0.0184 -0.6374  0.8700
  210MOL0     O27635   6.433  10.809   2.663  0.1679 -0.1380 -0.0946
  210MOL0     C27636   6.534  10.511   2.501 -0.2518 -0.2935 -0.1514
  210MOL0     C27637   6.651  10.437   2.474 -0.1945  0.3096  0.0596
  210MOL0     N27638   7.354  10.359   2.222  0.5278 -0.0110 -0.8586
  210MOL0     N27639   7.449  10.441   2.184 -0.4638  0.5192 -0.3156
  210MOL0     C27640   8.710  10.535   2.407  0.1341  0.2949  0.3101
  210MOL0     C27641   8.843  10.536   2.421 -0.5570 -0.5756  0.3688
  210MOL0     C27642   9.258  10.397   2.305  1.1544  0.3857  0.5156
  210MOL0     C27643   9.330  10.393   2.182  0.2153 -0.2764  0.1975
  210MOL0     C27644   9.471  10.411   2.179 -0.7605 -0.3110 -0.3020
  210MOL0     C27645   9.548  10.413   2.300 -0.1929 -0.2506  0.8547
  210MOL0     O27646   9.685  10.443   2.301  0.1572  0.3789  0.2558
  210MOL0     C27647   9.764  10.447   2.181 -0.1850 -0.4809  0.3431
  210MOL0     C27648   9.912  10.464   2.222 -0.0009 -0.2464  0.4469
  210MOL0     C27649   9.961  10.373   2.325  0.5380 -0.7344  0.2398
  210MOL0     C27650   9.964  10.227   2.279  0.2206 -0.4814  0.4237
  210MOL0     C27651  10.056  10.141   2.354 -0.9113 -0.0860 -0.7032
  210MOL0     C27652  10.139  10.070   2.422 -0.6470 -0.0845  0.3996
  210MOL0     C27653   9.475  10.435   2.419  0.8369  0.2942 -0.8911
  210MOL0     C27654   9.335  10.412   2.419 -0.4560 -0.7177 -0.2259
  210MOL0     H27655   8.902  10.221   2.477 -1.7188 -0.1846  0.2845
  210MOL0     H27656   8.657  10.216   2.491 -1.0131  0.1595  3.7316
  210MOL0     H27657   8.432  10.326   2.560  1.3429  4.2651 -0.1898
  210MOL0     H27658   8.436  10.242   2.403 -1.6261 -1.5499  1.1690
  210MOL0     H27659   8.257  10.416   2.322  1.7665 -1.3577  0.6980
  210MOL0     H27660   8.251  10.482   2.484 -1.3524  0.2044 -0.4753
  210MOL0     H27661   8.198  10.225   2.553  0.5541 -0.5754 -0.7437
  210MOL0     H27662   8.172  10.206   2.378 -1.1086  0.3226  0.1843
  210MOL0     H27663   7.965  10.256   2.510  1.7149 -0.2142  1.3036
  210MOL0     H27664   8.025  10.407   2.553  0.4661 -0.6464 -0.2523
  210MOL0     H27665   7.975  10.322   2.261  1.9937 -0.7828  2.6686
  210MOL0     H27666   8.027  10.487   2.317  1.5444 -0.2808 -0.6881
  210MOL0     H27667   7.806  10.468   2.450  2.9333  1.6138  0.2053
  210MOL0     H27668   7.768  10.327   2.327  0.1116  0.1665  0.5602
  210MOL0     H27669   7.842  10.595   2.253  2.9721 -1.9232 -1.9723
  210MOL0     H27670   7.758  10.487   2.141  2.5870 -0.6193  0.4867
  210MOL0     H27671   7.614  10.663   2.203 -0.9680 -3.1267 -2.7228
  210MOL0     H27672   7.634  10.640   2.378 -2.9343  1.2835 -0.9668
  210MOL0     H27673   7.497  10.433   2.509 -0.1664 -2.3396  0.5621
  210MOL0     H27674   7.336  10.228   2.540 -0.5752  0.7014  1.3807
  210MOL0     H27675   7.232  10.205   2.399  0.9379 -0.3679  0.3351
  210MOL0     H27676   7.216  10.437   2.597 -2.9666  0.7312  0.8968
  210MOL0     H27677   7.111  10.299   2.577  0.3203  0.8237  0.6802
  210MOL0     H27678   7.169  10.487   2.352 -0.7040  0.2209  0.2717
  210MOL0     H27679   7.059  10.357   2.341  0.7114 -2.0020 -0.4598
  210MOL0     H27680   6.953  10.574   2.355  2.9137  1.8947  0.5581
  210MOL0     H27681   6.998  10.591   2.519 -0.3316 -0.8757  0.4167
  210MOL0     H27682   6.853  10.577   2.717 -0.0698  0.5861 -0.1290
  210MOL0     H27683   6.655  10.703   2.767 -0.4987  0.3779 -0.8897
  210MOL0     H27684   6.106  10.622   2.371  0.8953 -1.4883  1.3074
  210MOL0     H27685   5.902  10.716   2.357  3.3811  0.6197 -3.1116
  210MOL0     H27686   5.673  10.844   2.382 -0.8048  0.3352  0.0351
  210MOL0     H27687   5.788  10.949   2.306 -0.1025 -2.7180 -0.2661
  210MOL0     H27688   5.674  11.152   2.430 -1.2482 -0.5371  3.3688
  210MOL0     H27689   5.572  11.038   2.509  0.0673 -2.7096  0.7217
  210MOL0     H27690   5.476  10.972   2.321  4.5453 -2.9588  2.5979
  210MOL0     H27691   5.587  11.034   2.214  0.5284  0.3151 -0.4376
  210MOL0     H27692   5.355  11.160   2.254 -0.8625  2.2947 -2.1591
  210MOL0     H27693   5.438  11.233   2.391  6.3310  3.9159  0.3480
  210MOL0     H27694   5.628  11.306   2.227  0.0910  2.1612 -0.3734
  210MOL0     H27695   5.495  11.407   2.237  2.9690 -0.1114  3.2869
  210MOL0     H27696   5.391  11.282   2.037 -0.5418 -1.4919  1.8795
  210MOL0     H27697   5.535  11.200   2.006 -0.4566 -1.7355  2.6831
  210MOL0     H27698   5.484  11.430   1.889 -0.5201 -0.2354 -0.5416
  210MOL0     H27699   5.552  11.497   2.039  0.0642 -0.8126  0.2051
  210MOL0     H27700   5.723  11.307   1.872  2.3713  0.6629  1.2375
  210MOL0     H27701   5.765  11.400   2.017  1.3006 -0.7644  0.3670
  210MOL0     H27702   6.001  11.000   2.656 -2.8957 -0.1838 -0.5097
  210MOL0     H27703   6.201  10.891   2.703 -2.7850  2.0289  1.3446
  210MOL0     H27704   6.448  10.487   2.439 -0.8858  1.0049  0.1879
  210MOL0     H27705   6.651  10.357   2.402  2.1881 -0.8236  1.2036
  210MOL0     H27706   8.652  10.625   2.385  2.1012  1.6162  0.2906
  210MOL0     H27707   8.908  10.622   2.410  0.9220 -1.0213  4.1682
  210MOL0     H27708   9.275  10.383   2.088  1.2020 -1.6593 -0.2610
  210MOL0     H27709   9.520  10.425   2.083  1.4703  2.0283  1.0736
  210MOL0     H27710   9.736  10.538   2.127 -2.0666  0.0959  2.1553
  210MOL0     H27711   9.756  10.357   2.120  0.3715 -0.3421  0.0550
  210MOL0     H27712   9.977  10.448   2.136  0.4376  0.4998  0.6232
  210MOL0     H27713   9.929  10.567   2.255 -1.0193 -0.2928  1.1686
  210MOL0     H27714   9.906  10.399   2.416  1.5541 -0.8958  0.9265
  210MOL0     H27715  10.062  10.402   2.354  2.1728 -1.3682 -4.0976
  210MOL0     H27716   9.865  10.185   2.300 -1.1371  3.0258  1.8424
  210MOL0     H27717   9.987  10.231   2.172 -0.7413 -1.6330  0.1611
  210MOL0     H27718  10.220  10.012   2.462  0.7872  1.7766  0.3239
  210MOL0     H27719   9.520  10.461   2.514  1.4701 -1.7292 -0.5742
  210MOL0     H27720   9.291  10.424   2.518  1.0248 -0.4149  0.4162
  211MOL0     O27721   2.122  11.035   4.675  0.5446  0.5514  0.1428
  211MOL0     C27722   2.228  11.027   4.739  0.8806 -0.4741  0.1747
  211MOL0     O27723   2.231  10.986   4.872  0.0344 -0.4640 -0.3014
  211MOL0     C27724   2.129  10.969   4.961  0.1058  0.2522  0.3312
  211MOL0     C27725   2.028  11.059   4.971 -0.2582 -0.0484  0.2215
  211MOL0     C27726   1.918  11.039   5.050 -1.2102  0.3206 -0.4066
  211MOL0     C27727   1.904  10.911   5.112  0.8781 -0.3828 -0.0279
  211MOL0     O27728   1.799  10.881   5.188  0.0850 -1.0749  0.0221
  211MOL0     C27729   1.661  10.929   5.171  0.1591  0.5984  0.3816
  211MOL0     C27730   1.573  10.884   5.288  0.1359  0.5877 -0.0969
  211MOL0     C27731   1.525  10.750   5.260 -0.7416  0.6997 -0.5725
  211MOL0     C27732   1.463  10.693   5.379 -0.1307 -0.0144 -0.1887
  211MOL0     C27733   1.343  10.771   5.435  0.3026  0.6856 -0.1880
  211MOL0     C27734   1.284  10.701   5.559  0.1027  0.0229  0.3115
  211MOL0     C27735   1.186  10.794   5.640 -0.4116 -0.3704 -0.0355
  211MOL0     C27736   1.135  10.703   5.759  0.1439  0.2835  0.4572
  211MOL0     N27737   1.069  10.773   5.869 -0.4992  0.7382  0.5984
  211MOL0     C27738   0.968  10.868   5.871 -0.2549 -0.4487  0.2613
  211MOL0     C27739   0.935  10.885   6.012 -0.8594  0.4309 -0.5033
  211MOL0     C27740   0.835  10.978   6.072  0.4580  0.1515 -1.1598
  211MOL0     C27741   0.711  10.907   6.121  0.1521 -0.5413 -0.4685
  211MOL0     C27742   0.590  10.919   6.025 -1.0922 -0.0364 -0.8439
  211MOL0     C27743   0.448  10.881   6.086  0.1466 -0.4983  0.9150
  211MOL0     O27744   0.357  10.891   5.978  0.0410 -0.0018 -0.2727
  211MOL0     C27745   0.226  10.885   6.013 -0.8824  0.1666 -0.0993
  211MOL0     C27746   0.177  10.849   6.140 -0.2832 -0.8521 -1.2862
  211MOL0     C27747   0.045  10.821   6.167  0.0127 -0.5812  0.0183
  211MOL0     C27748  -0.050  10.821   6.068  0.5181 -0.0656 -0.2549
  211MOL0     C27749  -0.187  10.800   6.098  0.2188  0.3523  0.3873
  211MOL0     O27750  -0.276  10.783   5.992  0.0598  0.0907  0.4682
  211MOL0     C27751  -0.418  10.767   6.007 -0.2751  0.8553 -0.5158
  211MOL0     C27752  -0.496  10.773   6.128  0.8191 -0.3151  0.1517
  211MOL0     C27753  -0.627  10.728   6.128  0.1619 -0.9814 -0.0936
  211MOL0     C27754  -0.679  10.668   6.008  0.0257 -0.1311 -0.2352
  211MOL0     O27755  -0.803  10.623   6.031  0.2623  0.4897 -0.8376
  211MOL0     C27756  -0.885  10.600   5.914 -0.9094 -0.4805 -0.5685
  211MOL0     C27757  -1.037  10.603   5.963 -0.8879  1.1396  0.9710
  211MOL0     C27758  -1.075  10.727   6.034 -0.2004 -0.5883  0.3713
  211MOL0     C27759  -1.223  10.744   6.050  0.3680  0.2158  0.3953
  211MOL0     C27760  -1.292  10.634   6.142 -0.3825  0.4131 -0.0102
  211MOL0     C27761  -1.430  10.670   6.206 -1.5643 -0.3631 -0.0088
  211MOL0     C27762  -1.467  10.555   6.307  0.0838  0.2561  0.0952
  211MOL0     C27763  -1.390  10.545   6.431  0.9082  0.9128  0.2884
  211MOL0    Cl27764  -1.476  10.437   6.532 -0.2341  0.2061 -0.1489
  211MOL0     C27765  -0.604  10.668   5.888 -0.6959  0.3803 -0.0236
  211MOL0     C27766  -0.477  10.715   5.886 -0.2203 -0.0000  0.8489
  211MOL0     O27767  -0.221  10.798   6.213 -0.2040  0.1207  0.5165
  211MOL0     C27768  -0.002  10.846   5.939 -0.2688 -0.2372  0.2077
  211MOL0     C27769   0.130  10.881   5.907 -0.5099 -0.3467 -0.7633
  211MOL0     N27770   1.017  10.796   6.084  0.4437 -0.5233  0.1889
  211MOL0     N27771   1.076  10.720   6.001 -0.5388 -0.4302  0.4007
  211MOL0     C27772   2.006  10.814   5.103  0.4953 -0.0722  1.0178
  211MOL0     C27773   2.118  10.844   5.024 -0.3779  0.1488 -0.9229
  211MOL0     C27774   2.360  11.028   4.669  0.6158  0.8753 -0.4052
  211MOL0     C27775   2.471  10.991   4.728  0.2624  0.4630 -0.1059
  211MOL0     C27776   2.593  10.986   4.664 -0.3498 -0.2305 -0.8627
  211MOL0     C27777   2.602  11.023   4.531  0.4208 -0.4645 -0.0960
  211MOL0     O27778   2.713  11.025   4.458  0.2814  0.4260  0.2674
  211MOL0     C27779   2.833  10.956   4.486 -0.2696 -0.0774  0.3068
  211MOL0     C27780   2.922  10.943   4.363  0.4025  0.3457  0.5159
  211MOL0     C27781   3.059  10.882   4.402 -1.6007  0.4665 -0.1196
  211MOL0     C27782   3.130  10.828   4.278 -0.9463  0.5766 -0.1871
  211MOL0     C27783   3.257  10.758   4.304  0.6586  0.3502 -0.5042
  211MOL0     C27784   3.362  10.701   4.309  0.5636  0.4807  0.0582
  211MOL0     C27785   2.481  11.069   4.469 -0.1107  0.9189  0.3070
  211MOL0     C27786   2.355  11.067   4.535  0.1479  0.0012  0.5074
  211MOL0     H27787   2.036  11.145   4.905  0.6579 -1.9130 -2.2564
  211MOL0     H27788   1.844  11.118   5.055  1.1181  2.6704 -1.0098
  211MOL0     H27789   1.629  10.882   5.077  1.5134  1.7617 -0.6980
  211MOL0     H27790   1.658  11.037   5.155 -1.9479  0.3126 -1.6313
  211MOL0     H27791   1.488  10.953   5.290  0.0355  0.4661 -0.1645
  211MOL0     H27792   1.619  10.900   5.386  1.6858 -0.0562 -0.6880
  211MOL0     H27793   1.610  10.687   5.232 -1.7168 -2.2436  2.4031
  211MOL0     H27794   1.453  10.761   5.179 -0.2907  0.6629 -0.9842
  211MOL0     H27795   1.440  10.587   5.364  0.7404 -0.4096  1.0847
  211MOL0     H27796   1.541  10.686   5.456 -0.8254 -0.5069  0.4871
  211MOL0     H27797   1.268  10.786   5.357  1.0887 -0.4900 -1.2016
  211MOL0     H27798   1.371  10.875   5.455  2.6964  0.2574 -0.9241
  211MOL0     H27799   1.366  10.669   5.624 -0.9295 -1.1895  1.0684
  211MOL0     H27800   1.237  10.605   5.537 -1.4045 -0.1227  3.6265
  211MOL0     H27801   1.245  10.876   5.681 -0.1010 -0.2798 -0.6500
  211MOL0     H27802   1.114  10.838   5.571  0.8117  0.5420 -0.7730
  211MOL0     H27803   1.220  10.644   5.794  0.1845 -0.6341 -1.0915
  211MOL0     H27804   1.054  10.641   5.719 -0.7846  2.0459 -0.5335
  211MOL0     H27805   0.933  10.935   5.793  0.4306  0.6865  0.8985
  211MOL0     H27806   0.803  11.049   5.995  0.4682 -0.9422 -2.1986
  211MOL0     H27807   0.887  11.038   6.148 -0.3063  0.6185 -0.9856
  211MOL0     H27808   0.683  10.962   6.212 -0.1936 -2.7211  0.8314
  211MOL0     H27809   0.730  10.805   6.158 -1.5696 -1.1933 -1.2619
  211MOL0     H27810   0.584  11.023   5.990  1.9725  0.1593 -1.0595
  211MOL0     H27811   0.620  10.862   5.937  0.8404  0.0944 -0.3258
  211MOL0     H27812   0.408  10.947   6.163  0.2887 -1.8814  2.2258
  211MOL0     H27813   0.448  10.780   6.128 -1.1936 -0.5817  0.7306
  211MOL0     H27814   0.242  10.857   6.227 -2.4201 -1.1522  0.4505
  211MOL0     H27815   0.007  10.801   6.267  0.8978  0.9176  0.6954
  211MOL0     H27816  -0.441  10.797   6.219  0.0338  2.3321 -0.0058
  211MOL0     H27817  -0.685  10.727   6.220 -0.2582 -1.4539 -0.3582
  211MOL0     H27818  -0.856  10.501   5.880  0.6179  0.0998 -1.0528
  211MOL0     H27819  -0.867  10.676   5.837 -1.7367 -0.8141 -1.0926
  211MOL0     H27820  -1.054  10.511   6.018  2.3585 -1.2083 -1.5402
  211MOL0     H27821  -1.090  10.601   5.867  1.5514  0.1972 -0.4573
  211MOL0     H27822  -1.052  10.810   5.965  0.5263 -1.5478 -0.5675
  211MOL0     H27823  -1.028  10.746   6.131  0.0323  1.3033 -0.0667
  211MOL0     H27824  -1.245  10.841   6.096  2.8612 -0.1302  2.5578
  211MOL0     H27825  -1.272  10.741   5.952 -0.6489 -2.0201  0.8985
  211MOL0     H27826  -1.221  10.619   6.224 -2.0231  0.3478  1.4386
  211MOL0     H27827  -1.296  10.536   6.094 -0.6184 -0.1891  1.2164
  211MOL0     H27828  -1.512  10.682   6.135 -1.3858 -0.6915 -0.2729
  211MOL0     H27829  -1.419  10.766   6.257 -0.9775  0.7072 -2.0499
  211MOL0     H27830  -1.570  10.587   6.325 -0.2014  1.5385 -3.1802
  211MOL0     H27831  -1.470  10.457   6.258  0.8999 -0.9964  2.3690
  211MOL0     H27832  -1.368  10.643   6.474  1.1347  0.7562  0.5298
  211MOL0     H27833  -1.298  10.491   6.408 -0.4312 -2.0960  1.4527
  211MOL0     H27834  -0.623  10.611   5.798  0.2454  3.8805 -2.6960
  211MOL0     H27835  -0.414  10.715   5.797  1.0644 -2.8943  1.6451
  211MOL0     H27836  -0.076  10.848   5.859 -0.2144 -2.6146  0.0003
  211MOL0     H27837   0.176  10.895   5.810 -1.1489  1.8452 -0.7949
  211MOL0     H27838   1.984  10.721   5.154 -3.2088 -0.3997 -0.8694
  211MOL0     H27839   2.204  10.778   5.030  1.3865  2.4107 -0.0966
  211MOL0     H27840   2.474  10.963   4.833  0.6848  0.0055 -0.2396
  211MOL0     H27841   2.682  10.952   4.715 -0.2407  0.5587 -0.5199
  211MOL0     H27842   2.815  10.856   4.528  1.2600  0.9242  3.7005
  211MOL0     H27843   2.890  11.002   4.567  1.4919 -2.3222  0.4622
  211MOL0     H27844   2.872  10.881   4.289 -0.4582 -0.0410  1.4000
  211MOL0     H27845   2.940  11.046   4.329  0.4815 -0.1335 -0.9589
  211MOL0     H27846   3.062  10.811   4.485  0.6726 -0.0805 -0.6014
  211MOL0     H27847   3.119  10.965   4.441 -0.4512  0.0159 -0.8653
  211MOL0     H27848   3.066  10.781   4.203  2.4542 -0.2802 -2.8399
  211MOL0     H27849   3.167  10.917   4.225  1.8529 -0.9697 -1.0660
  211MOL0     H27850   3.450  10.641   4.312  3.3433  4.1755 -0.8075
  211MOL0     H27851   2.484  11.115   4.371 -1.3863  1.8518  0.6871
  211MOL0     H27852   2.261  11.078   4.483 -1.2328 -1.2354  2.5710
  212MOL0     O27853   4.907   7.870   1.992 -0.1332 -0.2704 -0.4116
  212MOL0     C27854   4.942   7.794   2.087 -0.1832 -0.0427  0.6548
  212MOL0     O27855   4.863   7.729   2.168 -0.0166 -0.1946  0.0570
  212MOL0     C27856   4.728   7.723   2.149  0.9018 -0.8247  0.1488
  212MOL0     C27857   4.643   7.698   2.259 -0.1820 -0.1336  0.2170
  212MOL0     C27858   4.509   7.663   2.249 -0.0275 -0.5802 -0.3436
  212MOL0     C27859   4.446   7.647   2.131  0.0600 -0.1589 -0.5391
  212MOL0     O27860   4.313   7.614   2.147 -0.0483 -0.1119 -0.1463
  212MOL0     C27861   4.246   7.602   2.028  0.3942  0.2618 -0.8815
  212MOL0     C27862   4.102   7.564   2.061 -0.5988 -0.5704 -0.5693
  212MOL0     C27863   4.084   7.418   2.117  0.4873  0.3903 -0.4174
  212MOL0     C27864   4.136   7.313   2.015 -0.0691 -0.3077  0.1212
  212MOL0     C27865   4.083   7.172   2.048  0.1087  0.7109  0.2410
  212MOL0     C27866   3.954   7.140   1.972  0.6574  0.2814 -0.6338
  212MOL0     C27867   3.879   7.011   2.010 -0.0051 -0.0101 -0.1879
  212MOL0     C27868   3.796   7.027   2.142  0.3049 -0.1528 -0.7605
  212MOL0     N27869   3.675   6.940   2.141 -0.1789 -0.5992 -0.4684
  212MOL0     C27870   3.655   6.818   2.207  0.0250  0.0360 -0.3011
  212MOL0     C27871   3.521   6.782   2.193 -0.1073  0.7711 -0.2022
  212MOL0     C27872   3.465   6.649   2.226  0.0575 -0.2122 -0.7063
  212MOL0     C27873   3.311   6.661   2.247  1.3816  0.9810 -0.2141
  212MOL0     C27874   3.246   6.541   2.320  0.6317 -0.5356  0.8675
  212MOL0     C27875   3.121   6.584   2.390 -0.0221  0.3644 -0.6142
  212MOL0     O27876   3.056   6.463   2.432  0.0141  0.0325  0.2524
  212MOL0     C27877   2.923   6.479   2.449 -0.4247  0.4815  0.4549
  212MOL0     C27878   2.868   6.540   2.559 -0.3379 -0.2237 -0.0090
  212MOL0     C27879   2.733   6.560   2.577  0.4016 -0.3921  0.4875
  212MOL0     C27880   2.651   6.512   2.477 -0.2244 -0.6486  0.3840
  212MOL0     C27881   2.507   6.539   2.475  0.0488  0.2944  1.2057
  212MOL0     O27882   2.423   6.474   2.381 -1.0666  0.0081  0.7049
  212MOL0     C27883   2.290   6.457   2.397 -0.3825 -0.5471 -0.6315
  212MOL0     C27884   2.238   6.331   2.427  0.4004  0.2264  0.7719
  212MOL0     C27885   2.097   6.313   2.436  0.1195  0.9618 -0.1393
  212MOL0     C27886   2.009   6.434   2.428 -0.4830  0.6089  0.4721
  212MOL0     O27887   1.871   6.416   2.447  0.9098 -0.1087 -0.6826
  212MOL0     C27888   1.825   6.311   2.541  0.2795 -0.0414 -0.8891
  212MOL0     C27889   1.671   6.322   2.555  0.4053  0.0059  0.2302
  212MOL0     C27890   1.607   6.306   2.419  0.3368 -0.7835  0.3449
  212MOL0     C27891   1.636   6.168   2.353 -0.4106 -0.0251  0.0063
  212MOL0     C27892   1.555   6.140   2.225 -0.4789  0.1008 -0.0423
  212MOL0     C27893   1.582   6.002   2.158  0.5487 -0.3227  0.4851
  212MOL0     C27894   1.723   6.020   2.093 -0.8000  0.7552  0.2026
  212MOL0     C27895   1.745   5.913   1.980  0.0328  0.2957  0.1119
  212MOL0    Cl27896   1.906   5.943   1.927 -0.2881 -0.3316 -0.5347
  212MOL0     C27897   2.062   6.557   2.399  1.0902 -0.3832  0.2307
  212MOL0     C27898   2.199   6.567   2.386  0.4138  0.9682 -0.7648
  212MOL0     O27899   2.468   6.632   2.553  0.0072 -0.6774  0.1881
  212MOL0     C27900   2.702   6.460   2.358 -0.7109 -0.1837 -0.4500
  212MOL0     C27901   2.844   6.441   2.344  0.8498  0.1283  0.3066
  212MOL0     N27902   3.458   6.889   2.130  0.1481 -0.0397  0.0793
  212MOL0     N27903   3.552   6.979   2.098 -0.1293  0.2336 -0.2541
  212MOL0     C27904   4.530   7.670   2.013  0.5921  0.4781 -0.1197
  212MOL0     C27905   4.669   7.693   2.023  0.3445 -0.1997  0.0054
  212MOL0     C27906   5.084   7.772   2.104 -0.5401 -0.7298  0.3544
  212MOL0     C27907   5.129   7.707   2.217  0.0255 -1.0358  0.0644
  212MOL0     C27908   5.261   7.656   2.228 -0.8147 -0.2425 -0.2698
  212MOL0     C27909   5.357   7.668   2.121  0.0661  0.1926 -0.5870
  212MOL0     O27910   5.484   7.625   2.142  0.3309  0.0407  0.0203
  212MOL0     C27911   5.588   7.670   2.057 -1.4961 -0.2431 -0.0484
  212MOL0     C27912   5.640   7.800   2.107 -0.2751 -1.1106  0.1313
  212MOL0     C27913   5.687   7.785   2.259 -0.4575 -0.1416 -0.2934
  212MOL0     C27914   5.582   7.792   2.366 -0.9324 -0.6642  0.0350
  212MOL0     C27915   5.489   7.903   2.344  0.0576 -0.3807 -1.1516
  212MOL0     C27916   5.403   7.991   2.330 -0.3081 -0.6688  0.0003
  212MOL0     C27917   5.312   7.736   2.011 -0.3964 -0.0599 -0.1676
  212MOL0     C27918   5.182   7.791   2.005 -0.2969 -0.6539  0.5458
  212MOL0     H27919   4.691   7.705   2.356  0.1929 -2.5567  0.2716
  212MOL0     H27920   4.456   7.646   2.342  0.6145 -1.3685 -0.1081
  212MOL0     H27921   4.289   7.528   1.960 -1.4678 -3.2255  1.4066
  212MOL0     H27922   4.240   7.694   1.970 -0.9175  0.0251 -1.1620
  212MOL0     H27923   4.056   7.560   1.962  0.0351 -2.4957 -0.8246
  212MOL0     H27924   4.053   7.638   2.124 -1.6790 -1.5813 -0.1880
  212MOL0     H27925   3.981   7.396   2.148  0.7389 -0.1142  0.0631
  212MOL0     H27926   4.144   7.410   2.208 -1.1689  0.1840  0.7131
  212MOL0     H27927   4.113   7.328   1.909  0.3080  1.2937  0.2339
  212MOL0     H27928   4.245   7.310   2.028  0.0727  3.1549  0.8778
  212MOL0     H27929   4.067   7.163   2.156  0.1399 -2.4653  0.0631
  212MOL0     H27930   4.160   7.098   2.027 -0.8369  0.1703 -1.5048
  212MOL0     H27931   3.984   7.127   1.867 -1.2714  2.1494 -1.4810
  212MOL0     H27932   3.881   7.221   1.979 -0.3673 -0.7160  1.1540
  212MOL0     H27933   3.815   6.988   1.925  1.4697 -0.3968 -1.2278
  212MOL0     H27934   3.940   6.921   2.023  0.4932  0.2355 -0.7697
  212MOL0     H27935   3.759   7.130   2.151 -0.4520 -0.6189  2.4815
  212MOL0     H27936   3.861   7.012   2.229  0.3802 -1.6641 -1.0558
  212MOL0     H27937   3.730   6.754   2.253  0.5612 -0.9903 -2.4711
  212MOL0     H27938   3.500   6.607   2.321 -1.6031  0.6447  0.3419
  212MOL0     H27939   3.486   6.584   2.141 -0.1349  0.5856 -1.3742
  212MOL0     H27940   3.267   6.665   2.147 -1.7752 -1.0415  0.9425
  212MOL0     H27941   3.291   6.750   2.307  3.1831 -0.0238  2.0263
  212MOL0     H27942   3.207   6.469   2.248  1.5700  1.1254 -1.4188
  212MOL0     H27943   3.318   6.488   2.383  0.7419 -1.8896 -0.3389
  212MOL0     H27944   3.062   6.642   2.319 -2.9400 -0.4952  0.9453
  212MOL0     H27945   3.140   6.664   2.462  0.5004 -0.7378  0.5089
  212MOL0     H27946   2.928   6.577   2.641 -0.6240  0.4916 -0.1157
  212MOL0     H27947   2.693   6.612   2.663 -3.3280  1.1940 -1.9203
  212MOL0     H27948   2.295   6.239   2.429  2.3265  1.2715 -1.4256
  212MOL0     H27949   2.052   6.215   2.432  1.1299  0.5015 -0.5722
  212MOL0     H27950   1.870   6.313   2.640 -2.3292  1.5036  0.3540
  212MOL0     H27951   1.847   6.208   2.512 -1.2853 -0.5732 -0.2409
  212MOL0     H27952   1.660   6.427   2.584 -1.8357 -0.2694  0.5641
  212MOL0     H27953   1.622   6.263   2.633  2.9222  0.9434  2.6589
  212MOL0     H27954   1.633   6.386   2.348 -1.3708 -0.8560 -0.4271
  212MOL0     H27955   1.498   6.308   2.431  0.2723 -0.4646 -0.2734
  212MOL0     H27956   1.741   6.169   2.322 -0.1250  1.6302  0.8865
  212MOL0     H27957   1.628   6.087   2.426  0.0525 -0.1798 -0.1115
  212MOL0     H27958   1.572   6.218   2.150  2.2230 -0.0006  0.3722
  212MOL0     H27959   1.450   6.146   2.255 -1.0658  2.2281 -2.2194
  212MOL0     H27960   1.495   5.975   2.097 -0.9224  2.2614  1.2905
  212MOL0     H27961   1.594   5.914   2.221 -3.4066  0.2670  2.3221
  212MOL0     H27962   1.734   6.124   2.061  1.0370  0.0965 -1.5477
  212MOL0     H27963   1.801   6.003   2.167 -0.0697  2.7895 -0.0362
  212MOL0     H27964   1.676   5.934   1.897 -0.1398  1.9185  0.6270
  212MOL0     H27965   1.750   5.811   2.020 -0.8800 -0.2091 -0.9961
  212MOL0     H27966   1.983   6.631   2.392  0.4418 -1.2160 -3.3341
  212MOL0     H27967   2.243   6.664   2.362  2.9493  0.2838  0.6833
  212MOL0     H27968   2.650   6.446   2.264  0.0671  1.3416 -1.1539
  212MOL0     H27969   2.882   6.389   2.257 -2.0308 -1.6748 -0.0170
  212MOL0     H27970   4.474   7.658   1.921 -1.9686  3.2995  0.9323
  212MOL0     H27971   4.735   7.681   1.937  2.8542 -0.6570  1.8626
  212MOL0     H27972   5.060   7.693   2.299 -0.9055 -0.3709 -0.5807
  212MOL0     H27973   5.294   7.594   2.312 -1.1936 -1.2509 -0.8470
  212MOL0     H27974   5.571   7.674   1.949  1.8516 -0.1363 -0.6715
  212MOL0     H27975   5.674   7.604   2.070  0.1969  1.5692 -1.5309
  212MOL0     H27976   5.721   7.836   2.043 -0.1749 -0.5129  0.5850
  212MOL0     H27977   5.555   7.869   2.098 -0.3121 -1.3820 -2.8235
  212MOL0     H27978   5.757   7.865   2.284 -1.4623  0.5148  0.4649
  212MOL0     H27979   5.751   7.698   2.272  0.2095  0.1611 -1.3749
  212MOL0     H27980   5.530   7.697   2.375  0.6959 -1.4932  1.3038
  212MOL0     H27981   5.628   7.796   2.466 -1.5115 -0.0127  0.2872
  212MOL0     H27982   5.324   8.062   2.346 -0.6608 -1.5419  2.7678
  212MOL0     H27983   5.369   7.752   1.920 -0.1052 -1.7198 -0.3054
  212MOL0     H27984   5.144   7.842   1.918 -1.3436  1.8533  2.3656
  213MOL0     O27985   7.290   8.608   9.101 -0.3407 -0.2608  0.8906
  213MOL0     C27986   7.312   8.624   9.222  0.0046  0.0861  0.1631
  213MOL0     O27987   7.220   8.671   9.314  0.0158 -0.2181 -0.2401
  213MOL0     C27988   7.103   8.706   9.273  0.3268  0.0909  0.1718
  213MOL0     C27989   7.073   8.797   9.172  0.5231 -0.3685  0.0085
  213MOL0     C27990   6.940   8.841   9.161  0.5073 -0.8484  0.4634
  213MOL0     C27991   6.842   8.800   9.247  0.3172 -0.0932  1.0565
  213MOL0     O27992   6.708   8.818   9.230  0.2393 -0.7960 -0.8203
  213MOL0     C27993   6.641   8.817   9.107  0.3314 -0.2169 -0.1491
  213MOL0     C27994   6.497   8.845   9.143  1.0499 -0.7274  0.2303
  213MOL0     C27995   6.397   8.786   9.038  0.8212 -1.0590 -0.1205
  213MOL0     C27996   6.253   8.826   9.072  0.7595 -0.1381 -0.2620
  213MOL0     C27997   6.150   8.745   8.991 -0.3581 -0.4061  0.0739
  213MOL0     C27998   6.005   8.778   9.023  0.0666 -0.0221 -1.1127
  213MOL0     C27999   5.904   8.699   8.938 -0.2183  0.0520 -0.2494
  213MOL0     C28000   5.898   8.544   8.949  0.5393  0.4181  0.3678
  213MOL0     N28001   5.795   8.489   8.863 -0.1191 -0.1201  0.2043
  213MOL0     C28002   5.778   8.509   8.733 -0.2624 -0.2533  1.2191
  213MOL0     C28003   5.654   8.472   8.709 -0.0933 -1.2590 -0.2342
  213MOL0     C28004   5.589   8.484   8.578  0.0835 -0.1752  0.2556
  213MOL0     C28005   5.516   8.364   8.518 -0.4349  0.1923 -0.0015
  213MOL0     C28006   5.608   8.271   8.436  0.3790  0.2063 -0.1588
  213MOL0     C28007   5.527   8.149   8.378 -0.1960 -0.8757 -0.4861
  213MOL0     O28008   5.427   8.195   8.277  0.7534 -0.4685 -0.1739
  213MOL0     C28009   5.323   8.111   8.233 -0.8195 -0.1665  0.4246
  213MOL0     C28010   5.240   8.153   8.126 -0.9527  0.0300  1.2601
  213MOL0     C28011   5.138   8.076   8.068 -0.6489  0.3575  0.5999
  213MOL0     C28012   5.117   7.943   8.119  0.0291 -0.7316 -0.2119
  213MOL0     C28013   5.006   7.866   8.070 -0.0220  0.0278  0.3802
  213MOL0     O28014   4.979   7.750   8.135 -0.1709 -0.4647 -0.7429
  213MOL0     C28015   4.882   7.657   8.094 -0.4499 -0.1939 -0.4944
  213MOL0     C28016   4.866   7.626   7.958 -0.2037 -0.7082  0.2623
  213MOL0     C28017   4.769   7.532   7.924 -0.1674 -0.1354  0.1398
  213MOL0     C28018   4.701   7.465   8.023  0.4204 -0.1853  1.5362
  213MOL0     O28019   4.592   7.388   7.975 -0.3564 -0.2860 -0.2512
  213MOL0     C28020   4.547   7.288   8.066  0.5767  0.2425  0.6187
  213MOL0     C28021   4.460   7.195   7.986 -0.1107  0.5969 -0.0155
  213MOL0     C28022   4.351   7.278   7.902 -0.1707 -0.2643  0.3597
  213MOL0     C28023   4.233   7.185   7.873 -0.2471 -0.1324  0.0370
  213MOL0     C28024   4.148   7.242   7.764  0.2066 -0.1348  1.0058
  213MOL0     C28025   4.001   7.187   7.769  0.5278 -0.4740  0.3148
  213MOL0     C28026   3.899   7.284   7.720 -0.1820  0.3153 -0.9958
  213MOL0     C28027   3.766   7.219   7.713 -0.6779 -0.7992 -0.7146
  213MOL0    Cl28028   3.758   7.098   7.576  0.5457 -0.1384  0.0802
  213MOL0     C28029   4.742   7.469   8.154  0.3858 -0.3840 -0.8127
  213MOL0     C28030   4.829   7.570   8.191 -0.4592  0.7096  0.2328
  213MOL0     O28031   4.935   7.913   7.979 -0.0358 -0.0386  0.3364
  213MOL0     C28032   5.192   7.911   8.232 -0.2144  1.4693  0.0987
  213MOL0     C28033   5.300   7.986   8.285  0.2740 -0.6311  0.1464
  213MOL0     N28034   5.596   8.421   8.822  0.1646 -0.1238 -0.2761
  213MOL0     N28035   5.685   8.430   8.917  0.1753 -0.2851  0.2923
  213MOL0     C28036   6.875   8.707   9.345  0.1153  0.3649  0.2102
  213MOL0     C28037   7.001   8.659   9.358 -0.4470  0.7381  0.1052
  213MOL0     C28038   7.454   8.597   9.263 -0.0796  0.1956 -0.1076
  213MOL0     C28039   7.548   8.532   9.176  0.3840 -0.4650 -0.2086
  213MOL0     C28040   7.685   8.518   9.207  0.9145  0.6342  0.0891
  213MOL0     C28041   7.731   8.566   9.335 -0.3947 -0.0901 -0.3144
  213MOL0     O28042   7.857   8.559   9.383 -0.2916 -0.1972 -0.0338
  213MOL0     C28043   7.953   8.605   9.286  0.5994 -1.2308  0.9503
  213MOL0     C28044   8.087   8.560   9.335  0.2557 -0.0063  0.1791
  213MOL0     C28045   8.197   8.608   9.241 -0.0963  0.3507 -0.2635
  213MOL0     C28046   8.328   8.563   9.290 -0.0593 -0.4221  0.4611
  213MOL0     C28047   8.400   8.656   9.373  0.5131  0.0091 -0.3556
  213MOL0     C28048   8.475   8.735   9.416 -0.3560 -1.2257  0.3789
  213MOL0     C28049   7.639   8.616   9.427  1.2396 -0.1244 -0.3373
  213MOL0     C28050   7.504   8.633   9.393  0.4007  0.4603  0.0892
  213MOL0     H28051   7.149   8.836   9.107 -0.3850  0.0555 -0.8215
  213MOL0     H28052   6.911   8.912   9.085 -1.2694  0.1591  1.9912
  213MOL0     H28053   6.655   8.717   9.063 -0.3487 -0.2817 -0.2278
  213MOL0     H28054   6.674   8.887   9.030 -0.9920  0.0726 -0.4674
  213MOL0     H28055   6.484   8.953   9.138 -0.7850 -0.9675 -2.6575
  213MOL0     H28056   6.465   8.805   9.240  0.7399 -0.8794  0.0669
  213MOL0     H28057   6.414   8.678   9.040  0.3884 -1.2481 -3.0705
  213MOL0     H28058   6.424   8.824   8.939  1.8076  1.3246  0.9801
  213MOL0     H28059   6.237   8.818   9.180  0.3009  0.8425 -0.2450
  213MOL0     H28060   6.236   8.931   9.045  1.3653  0.4132  1.3576
  213MOL0     H28061   6.183   8.643   9.014 -0.3612 -0.8526 -1.7519
  213MOL0     H28062   6.171   8.768   8.886 -0.7659  1.6165  0.3978
  213MOL0     H28063   5.983   8.883   9.001  0.3983  0.0130 -1.2836
  213MOL0     H28064   5.997   8.774   9.132  1.1083  0.6323 -1.0005
  213MOL0     H28065   5.807   8.736   8.973 -0.8530 -2.2647  0.6009
  213MOL0     H28066   5.915   8.732   8.835  2.0832 -0.7898 -0.3384
  213MOL0     H28067   5.892   8.518   9.055 -0.8382  1.5758  0.6011
  213MOL0     H28068   5.997   8.510   8.915  0.3890  0.5044 -0.1651
  213MOL0     H28069   5.853   8.544   8.662  0.1453 -1.2493  1.1340
  213MOL0     H28070   5.665   8.516   8.505  0.0746  1.2121  0.8152
  213MOL0     H28071   5.516   8.565   8.585  1.8224  1.4745  0.2383
  213MOL0     H28072   5.437   8.402   8.453 -1.0200 -0.8686  0.0632
  213MOL0     H28073   5.469   8.303   8.596 -0.3175 -0.4424 -0.4185
  213MOL0     H28074   5.628   8.328   8.344 -3.2527 -1.4184 -2.1550
  213MOL0     H28075   5.701   8.237   8.482 -0.3676 -0.4414  0.9142
  213MOL0     H28076   5.482   8.088   8.457  0.3673 -1.6280 -0.7283
  213MOL0     H28077   5.595   8.090   8.316 -0.1544  1.5705 -2.9181
  213MOL0     H28078   5.266   8.248   8.081  0.4875 -0.4560  1.0086
  213MOL0     H28079   5.090   8.114   7.978 -0.0510 -0.3205 -0.0178
  213MOL0     H28080   4.925   7.669   7.878  1.1418  0.5391  1.8368
  213MOL0     H28081   4.741   7.500   7.824  0.5841  0.0323 -0.1239
  213MOL0     H28082   4.497   7.313   8.160  0.6080 -0.7365  0.9105
  213MOL0     H28083   4.632   7.225   8.094 -0.1348 -0.4311  1.3070
  213MOL0     H28084   4.415   7.128   8.060 -2.1373  2.2495  0.3424
  213MOL0     H28085   4.525   7.134   7.922 -1.1910  0.8514 -1.4032
  213MOL0     H28086   4.393   7.297   7.803 -0.8619 -1.3502 -0.1547
  213MOL0     H28087   4.318   7.375   7.942 -1.1077 -0.8633  1.0690
  213MOL0     H28088   4.266   7.085   7.843 -0.5796 -0.1311 -0.3431
  213MOL0     H28089   4.174   7.177   7.964  0.4991  1.3436  0.6844
  213MOL0     H28090   4.187   7.205   7.669 -1.3973 -1.0324  0.6640
  213MOL0     H28091   4.157   7.351   7.772  2.1562 -0.2781  1.3211
  213MOL0     H28092   3.986   7.166   7.875  2.9472 -0.0285  0.7901
  213MOL0     H28093   3.997   7.094   7.711  0.4678 -2.4163  3.2433
  213MOL0     H28094   3.891   7.361   7.797 -0.6514 -0.7902  0.0977
  213MOL0     H28095   3.919   7.334   7.625  0.9410  0.4568 -0.7041
  213MOL0     H28096   3.697   7.297   7.682  0.1875  0.7989  1.1242
  213MOL0     H28097   3.740   7.166   7.805  3.2944  1.1988  1.8423
  213MOL0     H28098   4.697   7.410   8.233 -0.4008  0.3759 -0.6793
  213MOL0     H28099   4.857   7.576   8.296  1.1139  1.9746 -0.2244
  213MOL0     H28100   5.192   7.824   8.297  1.7489  1.9853  0.8707
  213MOL0     H28101   5.361   7.933   8.357 -0.9845 -0.3695  1.4604
  213MOL0     H28102   6.799   8.666   9.412 -0.6930 -0.7701 -1.3308
  213MOL0     H28103   7.022   8.575   9.423  2.2990 -0.0949 -1.6804
  213MOL0     H28104   7.505   8.491   9.085  3.0127 -1.4031 -1.1316
  213MOL0     H28105   7.748   8.461   9.140  1.3582  0.4958  0.6212
  213MOL0     H28106   7.948   8.711   9.260  0.4052 -1.7578 -1.2869
  213MOL0     H28107   7.931   8.555   9.192 -0.3277  0.7454  0.0441
  213MOL0     H28108   8.105   8.584   9.440  0.7731  3.1612 -0.5197
  213MOL0     H28109   8.077   8.451   9.335  0.3564 -0.0229  0.8980
  213MOL0     H28110   8.202   8.717   9.233  1.6563  0.3939  0.8546
  213MOL0     H28111   8.184   8.574   9.138  2.5000  2.1619 -1.2832
  213MOL0     H28112   8.321   8.463   9.336  0.2584 -0.3463  0.6762
  213MOL0     H28113   8.388   8.559   9.200 -1.4360  1.5664 -0.6236
  213MOL0     H28114   8.553   8.797   9.456 -0.6090 -0.6486 -0.0059
  213MOL0     H28115   7.661   8.642   9.531 -1.9205 -2.4650  1.0801
  213MOL0     H28116   7.435   8.685   9.459 -0.9679  1.3452 -1.9338
  214MOL0     O28117   6.147   0.598   2.910  0.8373 -0.0953  0.6178
  214MOL0     C28118   6.238   0.657   2.969  0.1488  0.5671  0.3446
  214MOL0     O28119   6.224   0.751   3.066  0.2284  0.3899 -0.4228
  214MOL0     C28120   6.098   0.777   3.092  0.0962  0.1358  1.3278
  214MOL0     C28121   6.019   0.693   3.173  0.0606  1.1570 -0.7371
  214MOL0     C28122   5.887   0.728   3.208 -0.8416 -0.2759 -0.0105
  214MOL0     C28123   5.832   0.849   3.165 -0.5884  0.7399 -0.0329
  214MOL0     O28124   5.700   0.868   3.200 -0.1091 -0.1093 -0.1264
  214MOL0     C28125   5.634   0.978   3.138 -0.5603 -0.6510 -0.9761
  214MOL0     C28126   5.489   0.957   3.168 -0.5975  0.8327 -0.0962
  214MOL0     C28127   5.403   1.066   3.097 -0.8135 -0.3846 -0.8463
  214MOL0     C28128   5.252   1.051   3.143  0.1409 -0.2885  0.1569
  214MOL0     C28129   5.235   1.071   3.295  0.2431 -0.2970  0.0372
  214MOL0     C28130   5.094   1.115   3.338  0.4320  0.5103 -0.9899
  214MOL0     C28131   5.090   1.177   3.485 -0.7428  0.9123 -0.1892
  214MOL0     C28132   5.071   1.331   3.483  0.3756  0.3220  0.2760
  214MOL0     N28133   4.919   1.363   3.469 -0.5132  0.7046  0.0835
  214MOL0     C28134   4.850   1.441   3.557  0.4062 -0.1865 -0.8434
  214MOL0     C28135   4.751   1.503   3.487 -0.3668  0.2306 -0.0677
  214MOL0     C28136   4.654   1.603   3.528 -0.5893 -0.5613 -0.4315
  214MOL0     C28137   4.568   1.548   3.638  1.2458 -0.0262  0.2758
  214MOL0     C28138   4.484   1.648   3.712  0.9182  0.9307 -0.6551
  214MOL0     C28139   4.467   1.590   3.851  0.4648 -0.5085  0.0615
  214MOL0     O28140   4.400   1.471   3.848 -0.2132 -0.2683 -0.2354
  214MOL0     C28141   4.265   1.461   3.851  0.0197  0.2099  0.2829
  214MOL0     C28142   4.209   1.358   3.779  0.3897  0.1379  0.3523
  214MOL0     C28143   4.073   1.353   3.754  1.0334  0.3611  0.9377
  214MOL0     C28144   3.984   1.434   3.822 -0.1746 -0.8283  0.7543
  214MOL0     C28145   3.838   1.416   3.795  0.7947  0.4476  0.2415
  214MOL0     O28146   3.748   1.488   3.857  0.0587 -0.0318 -0.2058
  214MOL0     C28147   3.617   1.458   3.853 -0.2115  0.2904 -0.7524
  214MOL0     C28148   3.545   1.564   3.904  0.1763 -0.2692 -0.6616
  214MOL0     C28149   3.404   1.566   3.905  0.1420  0.6114  0.1283
  214MOL0     C28150   3.325   1.454   3.867 -0.3440  0.7406 -0.3209
  214MOL0     O28151   3.189   1.460   3.856  1.0634 -0.1876  0.3164
  214MOL0     C28152   3.114   1.363   3.937  0.0512 -0.1359  0.8275
  214MOL0     C28153   2.995   1.312   3.862  0.9838 -0.3266 -0.0947
  214MOL0     C28154   2.920   1.203   3.940  0.0646  0.5365 -0.2016
  214MOL0     C28155   2.792   1.156   3.866  0.1259  0.9725 -0.3855
  214MOL0     C28156   2.712   1.059   3.942  0.1334  0.2527  0.1739
  214MOL0     C28157   2.591   1.010   3.865 -0.0165  0.2298  0.2665
  214MOL0     C28158   2.495   0.912   3.936  0.2354 -0.6530 -0.3357
  214MOL0     C28159   2.390   0.999   4.018 -0.2104 -0.3098 -0.1737
  214MOL0    Cl28160   2.255   0.885   4.078 -0.3936 -0.1678  0.3176
  214MOL0     C28161   3.396   1.333   3.831 -0.0987 -0.1641  0.3962
  214MOL0     C28162   3.539   1.334   3.833 -0.4736 -1.0788 -0.3015
  214MOL0     O28163   3.811   1.323   3.717  0.4342 -0.5087  0.0925
  214MOL0     C28164   4.038   1.539   3.908  0.2679 -0.0295  0.2370
  214MOL0     C28165   4.180   1.553   3.916  0.3494 -0.5711  0.4393
  214MOL0     N28166   4.774   1.462   3.356  0.5513 -0.1625  0.4170
  214MOL0     N28167   4.866   1.376   3.345  0.7289 -0.2668 -0.7582
  214MOL0     C28168   5.913   0.925   3.076  0.1232 -0.0543 -0.4111
  214MOL0     C28169   6.040   0.887   3.036  0.1828 -0.0822 -0.0437
  214MOL0     C28170   6.374   0.602   2.934 -0.6391  0.7365  0.6107
  214MOL0     C28171   6.396   0.538   2.814 -0.6106  0.9058 -0.1971
  214MOL0     C28172   6.523   0.483   2.794 -0.5943  1.2329 -0.0752
  214MOL0     C28173   6.628   0.494   2.882  0.0797 -0.3292 -0.3779
  214MOL0     O28174   6.757   0.456   2.862 -0.2689  0.2992 -0.2855
  214MOL0     C28175   6.800   0.443   2.728  1.0476  0.4302 -1.2577
  214MOL0     C28176   6.958   0.431   2.726 -0.2246  0.7049 -0.9193
  214MOL0     C28177   7.009   0.304   2.777  0.9770  0.2204  0.3575
  214MOL0     C28178   7.153   0.281   2.759 -1.0663  0.0551  0.1162
  214MOL0     C28179   7.204   0.151   2.805 -0.4633  0.1452  0.3240
  214MOL0     C28180   7.257   0.047   2.833 -1.1656 -0.1265  0.7772
  214MOL0     C28181   6.603   0.565   2.999 -0.2970 -0.4346 -0.2988
  214MOL0     C28182   6.477   0.616   3.026  0.7175 -0.2835 -0.4434
  214MOL0     H28183   6.074   0.609   3.215 -1.0465 -0.3944 -2.2444
  214MOL0     H28184   5.819   0.672   3.271 -1.3993  0.3525 -0.0354
  214MOL0     H28185   5.661   0.971   3.032  1.2861 -4.1321 -0.4222
  214MOL0     H28186   5.680   1.068   3.180 -1.1782  0.0897 -1.8573
  214MOL0     H28187   5.484   0.951   3.277  0.9790 -0.1454 -0.0520
  214MOL0     H28188   5.467   0.855   3.136  1.1831  0.0394  1.0530
  214MOL0     H28189   5.413   1.055   2.989  0.4921  0.2835 -0.8165
  214MOL0     H28190   5.435   1.169   3.116  0.0588 -0.5661 -1.2751
  214MOL0     H28191   5.192   1.114   3.077 -1.5958 -1.9892  0.0175
  214MOL0     H28192   5.216   0.953   3.108  1.5917  0.3648 -3.6504
  214MOL0     H28193   5.310   1.144   3.327 -1.1017  1.3530 -0.4848
  214MOL0     H28194   5.256   0.982   3.355  1.8081  1.7088  2.6828
  214MOL0     H28195   5.031   1.026   3.334  0.8621  0.2213 -1.3998
  214MOL0     H28196   5.066   1.193   3.267  1.1206  2.6334  0.9440
  214MOL0     H28197   5.012   1.130   3.545  0.8449  0.4542  1.6044
  214MOL0     H28198   5.186   1.158   3.535 -0.8427  1.2203  0.1237
  214MOL0     H28199   5.129   1.376   3.401 -0.8864  1.7371  0.1209
  214MOL0     H28200   5.101   1.377   3.577 -2.1596  1.2530  0.6996
  214MOL0     H28201   4.861   1.448   3.664 -0.9519  0.1663 -0.7064
  214MOL0     H28202   4.588   1.627   3.444 -0.2625  1.1732 -0.2495
  214MOL0     H28203   4.711   1.695   3.547 -0.8168 -0.6370  0.6227
  214MOL0     H28204   4.638   1.494   3.703  1.9264  1.8429  1.1722
  214MOL0     H28205   4.501   1.473   3.594 -1.3557  2.7273 -0.7839
  214MOL0     H28206   4.517   1.752   3.718 -5.3499  3.4050 -0.8135
  214MOL0     H28207   4.393   1.649   3.651 -0.5896 -0.3673  1.4709
  214MOL0     H28208   4.430   1.672   3.912  1.9618  2.2972 -2.5223
  214MOL0     H28209   4.566   1.564   3.891  0.5553 -1.2033 -0.6010
  214MOL0     H28210   4.285   1.292   3.737  0.9741  0.0297  1.5280
  214MOL0     H28211   4.038   1.295   3.669  2.3534  1.6799 -0.5560
  214MOL0     H28212   3.596   1.650   3.945 -0.6108 -0.5859  1.0533
  214MOL0     H28213   3.352   1.655   3.940 -1.9424 -0.5737  0.2266
  214MOL0     H28214   3.063   1.405   4.025  1.4396  1.5304  0.8988
  214MOL0     H28215   3.177   1.277   3.962 -1.2166 -1.1290  0.6788
  214MOL0     H28216   3.032   1.263   3.772  0.6409  0.7400 -0.8258
  214MOL0     H28217   2.921   1.389   3.840  0.8746 -0.1453  0.8391
  214MOL0     H28218   2.892   1.242   4.038  2.7381 -1.7958  1.6713
  214MOL0     H28219   2.997   1.126   3.952 -0.4419 -0.0488 -0.6904
  214MOL0     H28220   2.731   1.246   3.849  1.1076  1.7601  0.1147
  214MOL0     H28221   2.822   1.126   3.766 -0.0443  2.2517 -0.8368
  214MOL0     H28222   2.676   1.105   4.035  0.0131  1.4213 -0.4270
  214MOL0     H28223   2.774   0.976   3.976  0.1281  1.1420  2.6059
  214MOL0     H28224   2.631   0.977   3.769 -1.4656  1.5430 -0.8550
  214MOL0     H28225   2.537   1.100   3.833 -1.5093  0.4042  2.9409
  214MOL0     H28226   2.435   0.847   3.873 -1.6838  1.0826 -0.3831
  214MOL0     H28227   2.551   0.860   4.014  0.9217  1.4343  0.6507
  214MOL0     H28228   2.356   1.077   3.949  2.5743  0.4252 -0.8279
  214MOL0     H28229   2.432   1.060   4.100  2.9584 -0.2877 -1.6744
  214MOL0     H28230   3.341   1.246   3.799 -1.6751 -0.3895  3.3924
  214MOL0     H28231   3.596   1.244   3.814  0.0458 -0.4262 -2.0639
  214MOL0     H28232   3.976   1.616   3.953  2.0987  1.4535  0.3528
  214MOL0     H28233   4.221   1.628   3.983  0.9895  0.3668 -0.9576
  214MOL0     H28234   5.866   1.016   3.038  0.7087  0.0076 -0.9963
  214MOL0     H28235   6.093   0.938   2.956 -0.2986 -1.5673 -1.3700
  214MOL0     H28236   6.311   0.540   2.746 -1.3556  1.7773  0.7369
  214MOL0     H28237   6.552   0.420   2.710 -0.2351 -1.2809  1.8214
  214MOL0     H28238   6.774   0.532   2.671  0.1154  0.8111 -0.2703
  214MOL0     H28239   6.771   0.347   2.684  3.4591 -1.0867  0.2283
  214MOL0     H28240   6.992   0.427   2.622 -0.4218 -1.4493 -0.9505
  214MOL0     H28241   6.999   0.513   2.785  1.4548 -0.4097 -0.4491
  214MOL0     H28242   6.955   0.224   2.727  0.1926  0.8010  0.2633
  214MOL0     H28243   6.976   0.299   2.882 -0.1785 -0.0131 -0.0047
  214MOL0     H28244   7.167   0.291   2.651  2.0699  2.6874  0.6288
  214MOL0     H28245   7.219   0.360   2.796  1.7162 -1.2639 -1.6778
  214MOL0     H28246   7.298  -0.049   2.854  0.5269  0.5291  0.6597
  214MOL0     H28247   6.683   0.583   3.070 -1.2543 -0.2691  0.7680
  214MOL0     H28248   6.453   0.675   3.114 -0.5226 -0.0747 -0.8933
  215MOL0     O28249  11.141   4.099   5.784 -0.2864 -0.0812 -0.3635
  215MOL0     C28250  11.221   4.172   5.725  0.9295  0.5682 -0.5214
  215MOL0     O28251  11.197   4.227   5.604  0.1590 -0.0557  0.1711
  215MOL0     C28252  11.072   4.206   5.545 -0.0133 -0.1316  1.2877
  215MOL0     C28253  11.041   4.080   5.490 -0.2671  0.2206 -0.7193
  215MOL0     C28254  10.912   4.059   5.428 -0.8892 -0.1078 -0.1502
  215MOL0     C28255  10.825   4.164   5.420 -0.3280 -0.4982  0.4844
  215MOL0     O28256  10.706   4.134   5.366 -0.0452  0.3181  0.2695
  215MOL0     C28257  10.589   4.171   5.436 -0.0039  0.1434  0.5213
  215MOL0     C28258  10.468   4.135   5.350  0.4369  0.2312 -0.4103
  215MOL0     C28259  10.336   4.148   5.430  0.0872  0.0128 -0.9643
  215MOL0     C28260  10.207   4.125   5.338 -1.4273  0.2029 -0.4571
  215MOL0     C28261  10.074   4.121   5.423  0.1128 -0.3045  0.5884
  215MOL0     C28262   9.959   4.076   5.339 -0.8089  0.2887 -0.4263
  215MOL0     C28263   9.829   4.043   5.421 -0.3354  0.7052 -0.2530
  215MOL0     C28264   9.775   4.163   5.493  0.6385 -0.0366 -0.8336
  215MOL0     N28265   9.631   4.142   5.533 -0.3500 -0.1698  0.3220
  215MOL0     C28266   9.576   4.219   5.635 -0.1074  0.3672 -0.2992
  215MOL0     C28267   9.452   4.173   5.635  0.3310  0.3377 -0.0589
  215MOL0     C28268   9.333   4.236   5.708  0.5326  0.0181 -0.2709
  215MOL0     C28269   9.329   4.197   5.861 -0.3270  0.4575 -0.2683
  215MOL0     C28270   9.349   4.045   5.888 -0.0482  0.7551 -0.4913
  215MOL0     C28271   9.496   3.985   5.880 -0.3218 -1.1564  0.0117
  215MOL0     O28272   9.587   4.075   5.959  0.0027 -0.2216  0.5507
  215MOL0     C28273   9.716   4.092   5.925  0.0234 -0.8656  0.1694
  215MOL0     C28274   9.792   4.006   5.851 -0.6378  1.3001  0.0603
  215MOL0     C28275   9.927   4.021   5.831 -0.0527 -0.2166  0.1117
  215MOL0     C28276   9.992   4.126   5.882 -0.1316  0.5956  0.3646
  215MOL0     C28277  10.137   4.135   5.862 -0.6592 -0.6856  0.0582
  215MOL0     O28278  10.211   4.213   5.948 -0.0488  0.2200 -0.2364
  215MOL0     C28279  10.343   4.225   5.932 -0.7340 -0.1325 -0.1778
  215MOL0     C28280  10.397   4.255   5.805 -0.5054 -0.5553  0.5307
  215MOL0     C28281  10.541   4.271   5.790  0.3732 -0.0932  0.4722
  215MOL0     C28282  10.631   4.263   5.908  1.4029  0.5802 -0.0236
  215MOL0     O28283  10.770   4.296   5.910  0.3326  0.2223 -0.3431
  215MOL0     C28284  10.826   4.380   5.814 -0.3034  0.4575 -0.0102
  215MOL0     C28285  10.803   4.518   5.867  0.0740 -0.0697 -0.9540
  215MOL0     C28286  10.893   4.562   5.986  0.3841  0.7305  0.8210
  215MOL0     C28287  11.040   4.514   5.980 -0.0058 -0.4113  1.1075
  215MOL0     C28288  11.143   4.584   6.066 -0.1020  0.0885 -0.1780
  215MOL0     C28289  11.282   4.551   6.036  0.6493 -0.5491  0.3606
  215MOL0     C28290  11.371   4.613   6.137  0.2168 -0.1219  0.2939
  215MOL0     C28291  11.518   4.580   6.116 -1.2535 -0.7225 -0.1186
  215MOL0    Cl28292  11.614   4.638   6.245 -0.2681 -0.0159 -0.2216
  215MOL0     C28293  10.569   4.233   6.031  0.6868 -0.1947 -0.7508
  215MOL0     C28294  10.431   4.219   6.042  0.8454  0.0373 -0.1696
  215MOL0     O28295  10.185   4.060   5.782  0.4791 -0.5311 -0.2729
  215MOL0     C28296   9.924   4.217   5.969 -0.2868  0.1347 -0.5086
  215MOL0     C28297   9.781   4.196   5.988  0.2610 -0.0414 -0.6914
  215MOL0     N28298   9.432   4.072   5.545 -0.1630 -1.0852 -0.4624
  215MOL0     N28299   9.542   4.066   5.472 -0.0486  0.0785 -0.3205
  215MOL0     C28300  10.859   4.291   5.470  0.5358  0.1011 -0.6726
  215MOL0     C28301  10.976   4.311   5.536 -1.1061  0.2330  0.1823
  215MOL0     C28302  11.344   4.203   5.794  0.2130 -0.1390  0.0893
  215MOL0     C28303  11.358   4.176   5.936 -0.8288 -0.3407 -0.2899
  215MOL0     C28304  11.485   4.211   5.987  0.2813  0.3429  0.0412
  215MOL0     C28305  11.579   4.280   5.919 -0.3475 -0.4105  0.0307
  215MOL0     O28306  11.695   4.315   5.981  0.4219  0.5251 -0.8458
  215MOL0     C28307  11.797   4.374   5.903 -0.0693  0.2141 -0.1470
  215MOL0     C28308  11.932   4.380   5.988  0.0436  0.1333  0.0368
  215MOL0     C28309  12.044   4.412   5.895 -0.3909  1.1786  0.0345
  215MOL0     C28310  12.175   4.409   5.984  0.4400 -0.2382 -0.4943
  215MOL0     C28311  12.285   4.474   5.918  0.4266  0.3066  0.1129
  215MOL0     C28312  12.386   4.524   5.880 -0.6695  0.2681  1.3132
  215MOL0     C28313  11.561   4.312   5.785  0.6377 -0.4707  0.4076
  215MOL0     C28314  11.444   4.275   5.721  0.1244 -0.6734  0.0874
  215MOL0     H28315  11.120   4.006   5.483 -2.7413 -2.8361  0.7993
  215MOL0     H28316  10.889   3.969   5.372  2.1445  0.8759 -3.2888
  215MOL0     H28317  10.590   4.280   5.450 -1.7681  0.2045  0.3423
  215MOL0     H28318  10.598   4.123   5.533  1.1553  1.4875  1.1257
  215MOL0     H28319  10.487   4.035   5.310  2.7439 -0.8322  2.8870
  215MOL0     H28320  10.467   4.199   5.261 -0.4436  0.5187 -0.2072
  215MOL0     H28321  10.336   4.243   5.486  3.1463 -0.2367 -0.3933
  215MOL0     H28322  10.326   4.074   5.510 -2.0847 -0.3207 -1.4680
  215MOL0     H28323  10.207   4.198   5.257  0.6510 -0.8691 -1.4729
  215MOL0     H28324  10.226   4.026   5.296  0.8159  1.4052 -2.4807
  215MOL0     H28325  10.050   4.223   5.454  1.9058 -0.3396  2.2416
  215MOL0     H28326  10.091   4.058   5.510  1.4464  1.2373  1.4965
  215MOL0     H28327   9.992   3.980   5.298  0.8451 -0.7412  2.9164
  215MOL0     H28328   9.928   4.146   5.262 -0.8291  1.4580  0.6141
  215MOL0     H28329   9.752   3.988   5.366  0.9315  0.3577 -1.7670
  215MOL0     H28330   9.866   3.968   5.492 -1.4378 -0.6423 -1.0325
  215MOL0     H28331   9.767   4.250   5.427  0.1370  0.2560 -0.3949
  215MOL0     H28332   9.838   4.184   5.580  2.7425 -3.5106 -1.3095
  215MOL0     H28333   9.617   4.299   5.696  0.6008 -1.9307  2.4812
  215MOL0     H28334   9.238   4.198   5.668 -0.9014  2.6241  0.4054
  215MOL0     H28335   9.332   4.344   5.690 -0.6747  0.8538  3.7898
  215MOL0     H28336   9.227   4.215   5.896 -0.0788  0.0434  0.7050
  215MOL0     H28337   9.402   4.256   5.919 -1.4204 -1.1818  3.0276
  215MOL0     H28338   9.325   4.021   5.992  1.2321 -0.9875 -0.5307
  215MOL0     H28339   9.291   3.975   5.827  2.1048 -1.0062 -0.6541
  215MOL0     H28340   9.533   3.987   5.778 -1.0415 -0.3206 -0.2437
  215MOL0     H28341   9.500   3.881   5.916 -0.6134 -0.9996  0.5193
  215MOL0     H28342   9.765   3.906   5.818  2.8360 -0.0919  0.9484
  215MOL0     H28343   9.991   3.948   5.783 -0.8462 -1.0669  0.2998
  215MOL0     H28344  10.349   4.292   5.715 -0.5054 -0.7060  0.4697
  215MOL0     H28345  10.580   4.316   5.699 -1.9312  2.6972  0.7319
  215MOL0     H28346  10.772   4.375   5.719 -2.4578 -2.9843  1.1871
  215MOL0     H28347  10.929   4.351   5.795 -0.6335 -0.5839 -0.3200
  215MOL0     H28348  10.703   4.540   5.906  0.1392  1.1388 -1.4026
  215MOL0     H28349  10.819   4.592   5.788 -0.2249  2.0084  0.8354
  215MOL0     H28350  10.839   4.522   6.073 -0.7130  1.0119  0.2897
  215MOL0     H28351  10.885   4.668   6.011  2.8069  1.3510 -0.7761
  215MOL0     H28352  11.038   4.407   6.002 -0.0182 -0.3871  1.2296
  215MOL0     H28353  11.072   4.517   5.876 -1.2039 -2.6113  0.6132
  215MOL0     H28354  11.110   4.546   6.163 -2.1906 -0.2107 -0.9377
  215MOL0     H28355  11.132   4.692   6.053 -0.8294  0.0032 -0.3115
  215MOL0     H28356  11.299   4.586   5.934  1.9043  2.4453  1.4695
  215MOL0     H28357  11.299   4.444   6.043 -1.3123 -0.9341  0.0428
  215MOL0     H28358  11.352   4.720   6.148 -1.8507 -0.3128 -0.8704
  215MOL0     H28359  11.344   4.587   6.240 -1.8254 -1.9458 -0.6096
  215MOL0     H28360  11.554   4.633   6.027 -0.4894 -1.3784 -0.2076
  215MOL0     H28361  11.541   4.474   6.108  3.8396  0.1628 -0.3891
  215MOL0     H28362  10.606   4.232   6.132 -0.0549  3.5457 -0.3047
  215MOL0     H28363  10.387   4.219   6.141 -1.6623  0.5060 -1.2110
  215MOL0     H28364   9.972   4.306   6.007 -1.6936  0.7586 -0.1247
  215MOL0     H28365   9.723   4.272   6.040  2.8414  2.1076 -0.7310
  215MOL0     H28366  10.797   4.379   5.457 -0.4883 -0.7212 -1.5592
  215MOL0     H28367  11.005   4.407   5.579  2.0990 -1.5102  2.3414
  215MOL0     H28368  11.288   4.131   6.004  1.3644 -3.8716 -0.0877
  215MOL0     H28369  11.504   4.183   6.090 -1.5974  3.3319  1.3484
  215MOL0     H28370  11.775   4.478   5.875 -1.6519 -0.1823 -0.4615
  215MOL0     H28371  11.818   4.322   5.809  2.0559 -0.4418  0.6529
  215MOL0     H28372  11.916   4.464   6.057  0.2307  0.8349 -0.7550
  215MOL0     H28373  11.952   4.296   6.055  2.2807 -2.1999 -3.2498
  215MOL0     H28374  12.022   4.506   5.844  1.5469  0.1752 -2.9157
  215MOL0     H28375  12.049   4.329   5.824  0.6366 -0.4918  1.9298
  215MOL0     H28376  12.161   4.474   6.071  0.8368  0.9870 -1.3137
  215MOL0     H28377  12.198   4.306   6.014 -2.8730 -0.5183  1.6526
  215MOL0     H28378  12.466   4.576   5.831 -2.3557  0.2167 -1.6862
  215MOL0     H28379  11.633   4.360   5.720 -1.2628  0.9809 -0.7661
  215MOL0     H28380  11.438   4.288   5.614  2.5885 -0.2128 -0.0590
  216MOL0     O28381  10.728   0.728   3.995  0.7704 -0.1699  0.4206
  216MOL0     C28382  10.773   0.747   4.105  1.3778 -0.0053  0.8596
  216MOL0     O28383  10.696   0.770   4.214 -0.6558 -0.1997 -0.2594
  216MOL0     C28384  10.562   0.789   4.218  0.2649  0.3384  0.9033
  216MOL0     C28385  10.466   0.766   4.119 -0.2145 -0.3577  0.3575
  216MOL0     C28386  10.332   0.824   4.126 -0.3116  0.6157  0.0598
  216MOL0     C28387  10.306   0.909   4.233  0.2634 -0.3335  0.2699
  216MOL0     O28388  10.174   0.944   4.238 -0.1870  0.0010  1.1375
  216MOL0     C28389  10.120   1.028   4.340  0.2221  0.1434 -0.0711
  216MOL0     C28390  10.004   1.113   4.286  0.4246 -1.1910  0.0141
  216MOL0     C28391   9.885   1.024   4.259  0.5424 -0.2019  0.0975
  216MOL0     C28392   9.743   1.093   4.235 -0.3939  0.4476 -0.2382
  216MOL0     C28393   9.626   0.999   4.258 -0.0632 -0.0863  0.5898
  216MOL0     C28394   9.504   1.071   4.199 -0.3309 -0.6227  0.4819
  216MOL0     C28395   9.380   0.975   4.229 -0.0785  0.2095 -0.2942
  216MOL0     C28396   9.239   1.022   4.169  0.1991  0.0699 -0.1479
  216MOL0     N28397   9.134   0.925   4.191  0.0998  0.7296  0.0963
  216MOL0     C28398   9.114   0.847   4.302  0.0111  0.4772 -0.1397
  216MOL0     C28399   8.985   0.813   4.311 -0.0106 -0.3113  0.1672
  216MOL0     C28400   8.913   0.739   4.415 -0.0883 -1.1460 -0.4385
  216MOL0     C28401   8.916   0.588   4.402  0.5469 -1.0289 -0.5346
  216MOL0     C28402   8.784   0.520   4.425  0.0263 -0.7266 -1.1542
  216MOL0     C28403   8.715   0.523   4.565 -0.1080  0.3380 -0.1635
  216MOL0     O28404   8.618   0.622   4.585 -1.5840  0.0170  0.0843
  216MOL0     C28405   8.492   0.601   4.554  0.3577 -0.2007 -0.3050
  216MOL0     C28406   8.434   0.490   4.489 -0.3394  0.3035  0.4160
  216MOL0     C28407   8.298   0.477   4.472  0.2742  0.1394  1.0774
  216MOL0     C28408   8.211   0.575   4.516  0.1530 -0.4485  0.1235
  216MOL0     C28409   8.070   0.583   4.485 -0.3577 -0.5224 -0.4034
  216MOL0     O28410   8.011   0.466   4.477  0.1786 -0.5505  0.2444
  216MOL0     C28411   7.880   0.448   4.465  0.0340 -0.2749 -0.2150
  216MOL0     C28412   7.840   0.394   4.348  0.3643  0.1714 -0.1437
  216MOL0     C28413   7.711   0.389   4.309  0.0160 -0.0893  0.0682
  216MOL0     C28414   7.608   0.422   4.393 -0.3002 -0.0330  0.1435
  216MOL0     O28415   7.481   0.399   4.349  0.1892 -0.2701 -0.0976
  216MOL0     C28416   7.416   0.510   4.299 -0.1100 -0.4052 -0.0041
  216MOL0     C28417   7.283   0.473   4.250 -0.3433  0.2700 -0.6720
  216MOL0     C28418   7.211   0.389   4.350  0.2253 -0.0466  0.8845
  216MOL0     C28419   7.073   0.348   4.284  0.3738  0.3352 -0.1864
  216MOL0     C28420   6.996   0.274   4.400  0.0951 -0.3073  0.0050
  216MOL0     C28421   7.060   0.151   4.461  0.4467 -0.4749 -0.6466
  216MOL0     C28422   6.963   0.079   4.555  0.9472 -0.0501 -0.1391
  216MOL0     C28423   6.850   0.021   4.479  1.5342 -0.2409 -0.7677
  216MOL0    Cl28424   6.792  -0.118   4.556  0.4475  0.0647  0.1773
  216MOL0     C28425   7.646   0.482   4.513 -0.2670 -0.2240 -0.4977
  216MOL0     C28426   7.780   0.487   4.554  0.9466 -1.0206 -0.5155
  216MOL0     O28427   8.008   0.692   4.479  0.4870 -0.5742  0.2043
  216MOL0     C28428   8.264   0.689   4.575 -0.6694  0.3054 -0.3866
  216MOL0     C28429   8.403   0.706   4.597  0.5698  0.3321 -0.0562
  216MOL0     N28430   8.922   0.859   4.202  0.0203 -0.8362  0.0716
  216MOL0     N28431   9.007   0.933   4.140  0.1007  0.4674 -0.8630
  216MOL0     C28432  10.398   0.941   4.327  0.1120  0.1358 -0.2877
  216MOL0     C28433  10.531   0.887   4.315 -0.0192 -0.1061 -0.8946
  216MOL0     C28434  10.924   0.728   4.127 -1.0060 -0.8543  1.1038
  216MOL0     C28435  10.991   0.730   4.250  0.1821 -0.4745 -0.3203
  216MOL0     C28436  11.126   0.706   4.261  0.3534  0.5713 -0.5197
  216MOL0     C28437  11.197   0.693   4.138 -0.1213 -0.3164  0.3746
  216MOL0     O28438  11.335   0.678   4.138 -0.7078 -0.2720  0.0375
  216MOL0     C28439  11.412   0.687   4.254  0.5002  0.3416 -0.7812
  216MOL0     C28440  11.554   0.628   4.218  1.3855 -0.1272 -0.1084
  216MOL0     C28441  11.654   0.659   4.328 -0.3880  0.1458  0.3152
  216MOL0     C28442  11.797   0.650   4.280 -0.5056  0.3762 -0.1558
  216MOL0     C28443  11.889   0.659   4.395  0.1012 -0.9628 -0.1134
  216MOL0     C28444  11.964   0.670   4.489 -0.0978 -0.3438 -0.3099
  216MOL0     C28445  11.137   0.694   4.017  0.5288  0.5157 -0.0937
  216MOL0     C28446  10.998   0.708   4.009 -1.1381  1.0948  0.0708
  216MOL0     H28447  10.487   0.716   4.025 -3.3441  0.6673 -1.0438
  216MOL0     H28448  10.259   0.805   4.048 -1.1430  2.3654  0.3673
  216MOL0     H28449  10.192   1.102   4.374  0.4917 -1.5791  3.5313
  216MOL0     H28450  10.084   0.971   4.426 -0.0844  2.7582  1.6468
  216MOL0     H28451  10.047   1.160   4.197  1.4033  0.3633  1.2526
  216MOL0     H28452   9.965   1.185   4.359 -0.0447 -0.2608 -1.1334
  216MOL0     H28453   9.880   0.957   4.346  1.8312  0.7477  0.9345
  216MOL0     H28454   9.908   0.963   4.171  0.9801  1.2430 -0.8155
  216MOL0     H28455   9.732   1.178   4.303 -0.8032 -0.5330  0.9643
  216MOL0     H28456   9.741   1.135   4.134  1.5030  2.3558  0.4486
  216MOL0     H28457   9.623   0.974   4.364 -1.1583 -4.9001 -0.3400
  216MOL0     H28458   9.631   0.904   4.203 -1.1826  0.2514 -0.1387
  216MOL0     H28459   9.525   1.096   4.095  1.7005 -0.5442  0.8590
  216MOL0     H28460   9.489   1.173   4.236 -0.7637  0.2646 -1.9438
  216MOL0     H28461   9.400   0.878   4.181 -0.7586  0.5693 -1.3435
  216MOL0     H28462   9.370   0.955   4.336 -0.0450  2.9251  0.2699
  216MOL0     H28463   9.250   1.049   4.063  3.8513 -0.2180  0.0350
  216MOL0     H28464   9.212   1.107   4.232  0.5074 -2.5936  3.9850
  216MOL0     H28465   9.187   0.820   4.377 -0.1611  1.6093  0.4704
  216MOL0     H28466   8.811   0.774   4.398  0.1718 -1.2851 -2.4670
  216MOL0     H28467   8.934   0.772   4.517 -0.0044 -1.0262 -0.4949
  216MOL0     H28468   8.998   0.547   4.462  2.2263  1.4522 -1.0148
  216MOL0     H28469   8.941   0.576   4.296  0.7358 -2.1269 -0.3829
  216MOL0     H28470   8.715   0.567   4.353  1.2178  3.2429  0.0206
  216MOL0     H28471   8.789   0.416   4.392  0.7827 -1.6965  1.6982
  216MOL0     H28472   8.801   0.542   4.631  0.7607 -0.6951 -0.9594
  216MOL0     H28473   8.672   0.425   4.588  4.0837 -2.1460 -1.7726
  216MOL0     H28474   8.503   0.407   4.477 -1.3124 -0.1816 -2.6640
  216MOL0     H28475   8.263   0.393   4.413 -0.2467 -0.4723  2.2143
  216MOL0     H28476   7.915   0.363   4.277 -0.1048 -1.5667  0.0596
  216MOL0     H28477   7.692   0.367   4.204 -3.7370  0.8098  0.4457
  216MOL0     H28478   7.475   0.562   4.224  0.7233  0.6540  1.3424
  216MOL0     H28479   7.404   0.585   4.378 -3.0087  3.0404 -3.3649
  216MOL0     H28480   7.293   0.424   4.153 -0.0034  1.1592 -1.0988
  216MOL0     H28481   7.227   0.563   4.223  0.2880  0.8941  0.0297
  216MOL0     H28482   7.193   0.454   4.437 -1.6744  1.0406 -0.2533
  216MOL0     H28483   7.271   0.302   4.378  0.3717  0.4744  2.2736
  216MOL0     H28484   7.014   0.437   4.259 -0.4589 -0.0777  0.2683
  216MOL0     H28485   7.083   0.270   4.208 -0.3171  0.3563 -0.3066
  216MOL0     H28486   6.903   0.239   4.354  0.9704 -0.5085 -1.6881
  216MOL0     H28487   6.984   0.349   4.478 -0.8988  0.8589 -1.2042
  216MOL0     H28488   7.151   0.191   4.507  1.4339 -0.4479 -2.5012
  216MOL0     H28489   7.099   0.081   4.386  0.6673  1.4874 -2.4426
  216MOL0     H28490   7.011   0.001   4.615  1.1159  0.1768  0.0255
  216MOL0     H28491   6.914   0.149   4.624  0.5560 -1.2753  0.8572
  216MOL0     H28492   6.875  -0.006   4.375  0.2731 -1.8426 -0.6965
  216MOL0     H28493   6.766   0.090   4.471 -0.9903 -3.2641 -3.0311
  216MOL0     H28494   7.577   0.536   4.577  0.6203  2.6685 -1.8177
  216MOL0     H28495   7.792   0.556   4.637 -2.7897  0.7760 -1.2503
  216MOL0     H28496   8.199   0.769   4.608 -0.9473  0.0879 -0.4070
  216MOL0     H28497   8.434   0.799   4.643 -1.0155  1.1826 -0.6383
  216MOL0     H28498  10.373   1.002   4.413  0.6252 -0.2782  0.1644
  216MOL0     H28499  10.601   0.917   4.393 -1.5998 -1.3536  1.0983
  216MOL0     H28500  10.940   0.743   4.345 -0.5791 -2.9485 -0.3293
  216MOL0     H28501  11.180   0.685   4.352  0.8965 -4.2811 -1.6897
  216MOL0     H28502  11.364   0.617   4.324 -2.1567 -0.4125 -3.1590
  216MOL0     H28503  11.408   0.785   4.303 -1.2686  0.1137 -0.3848
  216MOL0     H28504  11.540   0.520   4.208 -0.9450  0.2665 -2.1744
  216MOL0     H28505  11.593   0.675   4.127 -0.4558  1.2116 -0.2753
  216MOL0     H28506  11.637   0.578   4.400 -0.0480  0.4607  0.7569
  216MOL0     H28507  11.637   0.763   4.358  1.6917  1.5715 -2.8760
  216MOL0     H28508  11.819   0.557   4.227  0.0345  1.1180 -1.2686
  216MOL0     H28509  11.817   0.732   4.211 -0.7707 -0.5778 -1.3943
  216MOL0     H28510  12.045   0.684   4.558  1.4742  1.5481 -2.3878
  216MOL0     H28511  11.196   0.681   3.927  0.7580  3.0829 -0.3905
  216MOL0     H28512  10.951   0.700   3.911 -1.9622 -0.5261  0.5580
  217MOL0     O28513  10.853   1.021   4.297 -0.4046 -0.0194  0.5956
  217MOL0     C28514  10.922   1.057   4.390 -0.1745  0.3693 -0.7011
  217MOL0     O28515  10.873   1.103   4.513 -0.1390 -0.2899 -0.6103
  217MOL0     C28516  10.739   1.122   4.531  1.4289 -0.3213 -0.1911
  217MOL0     C28517  10.667   1.216   4.458 -0.0629 -0.1727  0.4547
  217MOL0     C28518  10.534   1.244   4.491 -0.2923 -0.0394 -0.0058
  217MOL0     C28519  10.469   1.172   4.589 -0.5214  0.4121 -0.7445
  217MOL0     O28520  10.341   1.175   4.625 -0.1151 -0.3566 -0.0136
  217MOL0     C28521  10.285   1.310   4.614  0.2631  0.2260 -0.2764
  217MOL0     C28522  10.175   1.327   4.713  0.3207 -0.3250 -0.0723
  217MOL0     C28523  10.047   1.271   4.643  0.0538 -0.1464 -0.7406
  217MOL0     C28524   9.912   1.330   4.686 -0.0350  0.2346 -0.2730
  217MOL0     C28525   9.777   1.280   4.622 -0.9051 -0.2135 -0.1951
  217MOL0     C28526   9.746   1.131   4.629 -0.0454 -0.3010 -0.5349
  217MOL0     C28527   9.592   1.094   4.636 -0.5162 -0.8436 -0.6630
  217MOL0     C28528   9.590   0.947   4.661  0.0079  0.0305  0.1990
  217MOL0     N28529   9.451   0.917   4.685  0.4711 -0.3249 -0.0507
  217MOL0     C28530   9.404   0.820   4.781 -0.6107 -0.0127  0.0460
  217MOL0     C28531   9.275   0.800   4.752  0.7231  0.0628  0.4589
  217MOL0     C28532   9.179   0.713   4.822 -0.7786  0.9434 -0.2313
  217MOL0     C28533   9.043   0.783   4.843 -0.1219 -0.0737 -0.9187
  217MOL0     C28534   8.934   0.689   4.892 -0.4135  0.0832  0.3159
  217MOL0     C28535   8.801   0.752   4.908  0.2758  0.3218 -0.4481
  217MOL0     O28536   8.704   0.649   4.945  0.5372 -0.0777  0.6220
  217MOL0     C28537   8.572   0.693   4.930 -0.5590 -0.2718  0.9205
  217MOL0     C28538   8.478   0.583   4.930  0.7138 -0.4654 -0.5255
  217MOL0     C28539   8.337   0.608   4.931  0.4604  0.7090 -0.1469
  217MOL0     C28540   8.293   0.741   4.922  0.6791  0.1445  0.3824
  217MOL0     C28541   8.146   0.767   4.912 -0.1034 -0.8075  0.2787
  217MOL0     O28542   8.060   0.670   4.867  0.2753 -0.0853  0.5312
  217MOL0     C28543   7.934   0.699   4.905  0.2476  1.1892  0.7474
  217MOL0     C28544   7.885   0.654   5.025  0.0811  0.5798  0.0759
  217MOL0     C28545   7.752   0.688   5.064 -0.0174 -0.0801 -0.1851
  217MOL0     C28546   7.675   0.772   4.981 -0.1750 -0.1050  0.5223
  217MOL0     O28547   7.546   0.789   5.026 -0.4253  0.1215 -0.1050
  217MOL0     C28548   7.467   0.871   4.943 -0.1566  1.1054 -0.8043
  217MOL0     C28549   7.323   0.862   4.989  0.3297  0.8503 -0.2499
  217MOL0     C28550   7.228   0.944   4.898 -0.2445 -0.2061  0.5797
  217MOL0     C28551   7.082   0.924   4.930 -0.5625 -0.1279  0.9240
  217MOL0     C28552   7.006   1.039   4.866 -0.3497  0.3896  0.1415
  217MOL0     C28553   6.996   1.019   4.722 -0.0334  0.4557  0.3931
  217MOL0     C28554   6.898   1.104   4.645 -0.4847  0.7492 -0.3217
  217MOL0     C28555   6.927   1.256   4.650  0.4889  0.0353  0.1229
  217MOL0    Cl28556   7.066   1.297   4.550 -0.5686 -0.1480  0.2450
  217MOL0     C28557   7.720   0.808   4.848  0.8094 -0.5459  0.1862
  217MOL0     C28558   7.849   0.775   4.818  0.2205  0.7282  0.0479
  217MOL0     O28559   8.112   0.882   4.941 -0.2801  0.0002  0.4922
  217MOL0     C28560   8.393   0.846   4.934  0.2885  0.4914 -0.1648
  217MOL0     C28561   8.524   0.822   4.940  0.2864 -1.2437 -0.1546
  217MOL0     N28562   9.238   0.881   4.644 -0.0476 -0.1757 -0.5188
  217MOL0     N28563   9.342   0.948   4.606  0.3443 -0.3164 -0.8272
  217MOL0     C28564  10.542   1.061   4.650  0.1132 -0.1545 -0.2172
  217MOL0     C28565  10.677   1.048   4.626  0.3185 -0.0962  0.1242
  217MOL0     C28566  11.065   1.051   4.377  0.4598 -0.6718  0.0023
  217MOL0     C28567  11.147   1.055   4.492  0.2317  0.4000 -0.5145
  217MOL0     C28568  11.285   1.044   4.483 -0.7365 -0.6161  0.4168
  217MOL0     C28569  11.347   1.045   4.363 -0.5600 -0.1525 -0.5033
  217MOL0     O28570  11.483   1.039   4.340  0.4588  0.0079 -0.3398
  217MOL0     C28571  11.591   1.039   4.434 -0.7248 -0.1511  0.0209
  217MOL0     C28572  11.726   1.032   4.356  0.8745 -0.6924 -0.9375
  217MOL0     C28573  11.838   1.049   4.457 -0.5444 -0.0485  0.2198
  217MOL0     C28574  11.968   1.028   4.399  0.0785  0.6217  0.7699
  217MOL0     C28575  12.009   1.146   4.318  0.0650  0.7224  1.0282
  217MOL0     C28576  12.045   1.247   4.252  0.1993  0.4153 -0.2372
  217MOL0     C28577  11.268   1.047   4.245 -0.1146  0.7060  0.2316
  217MOL0     C28578  11.127   1.046   4.250  0.2197  0.2711 -0.9665
  217MOL0     H28579  10.712   1.281   4.383  1.4130 -1.6710 -0.0062
  217MOL0     H28580  10.483   1.323   4.438 -1.7487 -0.7543  0.2783
  217MOL0     H28581  10.263   1.324   4.507 -0.3696 -0.9628 -0.3247
  217MOL0     H28582  10.360   1.384   4.639 -0.5519  0.2060  2.5255
  217MOL0     H28583  10.160   1.435   4.723  2.3465  0.0192 -0.3488
  217MOL0     H28584  10.212   1.278   4.803 -0.7270 -0.2365  0.4201
  217MOL0     H28585  10.044   1.163   4.663 -2.4880 -0.6622 -3.2925
  217MOL0     H28586  10.048   1.288   4.535  0.0482 -1.8247 -1.0396
  217MOL0     H28587   9.901   1.313   4.794 -1.5895 -0.9285 -0.5794
  217MOL0     H28588   9.931   1.438   4.683 -0.5671  0.5256  2.9705
  217MOL0     H28589   9.764   1.310   4.517 -3.7213  0.0298  0.1423
  217MOL0     H28590   9.705   1.328   4.688 -0.5131 -1.6328  1.3368
  217MOL0     H28591   9.794   1.095   4.720  0.5536  2.5824  0.3885
  217MOL0     H28592   9.789   1.080   4.542  1.2060 -0.9897  0.4509
  217MOL0     H28593   9.548   1.136   4.727  1.9950  0.2324  0.1585
  217MOL0     H28594   9.534   1.126   4.549  1.4876 -4.1455 -3.4913
  217MOL0     H28595   9.642   0.930   4.756 -2.3660 -1.0453  1.4065
  217MOL0     H28596   9.632   0.875   4.590 -0.3258  1.9980 -2.1165
  217MOL0     H28597   9.458   0.770   4.860 -0.7820  1.6058  1.2527
  217MOL0     H28598   9.225   0.691   4.919 -1.6021 -0.8334 -0.2183
  217MOL0     H28599   9.178   0.619   4.766  0.0653  0.9971 -0.3476
  217MOL0     H28600   9.009   0.833   4.752 -3.3765 -1.2917 -0.5002
  217MOL0     H28601   9.053   0.869   4.910 -1.3019 -0.0432 -0.7657
  217MOL0     H28602   8.923   0.609   4.818  1.7699 -0.1773  0.2067
  217MOL0     H28603   8.965   0.638   4.983 -1.3496 -1.9047 -0.4133
  217MOL0     H28604   8.763   0.798   4.816 -1.1924 -1.7481 -0.9647
  217MOL0     H28605   8.816   0.830   4.983  1.7231 -0.3426 -0.0200
  217MOL0     H28606   8.499   0.476   4.925  1.9417 -0.3243  0.8325
  217MOL0     H28607   8.266   0.526   4.941  1.9146 -0.5360  0.2741
  217MOL0     H28608   7.955   0.604   5.091 -0.9715 -1.3639 -0.2209
  217MOL0     H28609   7.705   0.663   5.158  0.1276  2.5631  0.6883
  217MOL0     H28610   7.476   0.841   4.839 -0.4639 -1.4882 -0.1492
  217MOL0     H28611   7.494   0.977   4.951  3.1758  0.3971 -1.0717
  217MOL0     H28612   7.317   0.897   5.093 -1.6588  1.4479 -0.5266
  217MOL0     H28613   7.294   0.756   4.986  2.2178  0.2510  0.7403
  217MOL0     H28614   7.250   0.921   4.794  0.8143 -0.9402  0.9511
  217MOL0     H28615   7.251   1.049   4.914 -0.7277  0.0110 -0.1027
  217MOL0     H28616   7.045   0.826   4.899  0.5162  0.1630 -1.5023
  217MOL0     H28617   7.076   0.926   5.039 -0.1082 -0.2851  0.9520
  217MOL0     H28618   7.056   1.133   4.888  0.2107  0.1829 -0.2431
  217MOL0     H28619   6.907   1.049   4.911 -0.7254 -2.7966  0.2543
  217MOL0     H28620   6.964   0.915   4.708  0.5675  0.4741 -1.2358
  217MOL0     H28621   7.096   1.026   4.679 -0.4589  0.0697 -0.6805
  217MOL0     H28622   6.884   1.069   4.542  0.2517 -0.0583 -0.1581
  217MOL0     H28623   6.803   1.089   4.697  0.5172 -0.2028  1.3057
  217MOL0     H28624   6.941   1.294   4.752 -0.9356  0.8899  0.0263
  217MOL0     H28625   6.838   1.305   4.610 -0.1728  0.6943  2.2424
  217MOL0     H28626   7.660   0.849   4.766  0.6089  0.2976  0.7396
  217MOL0     H28627   7.880   0.805   4.718  0.1633  1.6962  0.3099
  217MOL0     H28628   8.352   0.946   4.935  1.3747  0.9531 -0.7554
  217MOL0     H28629   8.594   0.904   4.954 -0.9262 -0.5238  2.2681
  217MOL0     H28630  10.489   1.018   4.734  0.5628 -0.7201 -0.2192
  217MOL0     H28631  10.734   0.975   4.682  1.5923  0.4788 -0.3702
  217MOL0     H28632  11.104   1.063   4.591 -1.5887  1.8755 -1.3499
  217MOL0     H28633  11.353   1.041   4.568 -0.0861 -2.4548 -0.1089
  217MOL0     H28634  11.575   0.947   4.491  0.5535 -1.3728 -1.5022
  217MOL0     H28635  11.582   1.127   4.499 -1.0697 -0.0595 -0.1475
  217MOL0     H28636  11.731   0.934   4.309  0.0391 -2.1181  1.7415
  217MOL0     H28637  11.734   1.116   4.285 -1.2102  0.5309  0.1643
  217MOL0     H28638  11.841   0.992   4.550 -1.4625  0.5788  0.6517
  217MOL0     H28639  11.829   1.153   4.493 -0.8680 -1.0331  3.3031
  217MOL0     H28640  12.031   1.019   4.488  0.1921 -1.4679  0.5265
  217MOL0     H28641  11.988   0.939   4.339  0.1321  1.3099 -0.2664
  217MOL0     H28642  12.074   1.325   4.184  1.1029 -2.0142 -2.8456
  217MOL0     H28643  11.324   1.039   4.152  0.8558 -2.7975  0.9950
  217MOL0     H28644  11.062   1.057   4.164 -0.0904 -0.2275 -0.7964
  218MOL0     O28645   4.522   2.910   0.246  0.1811  0.3757  0.5170
  218MOL0     C28646   4.551   2.801   0.288  0.7629  0.0047  0.2279
  218MOL0     O28647   4.463   2.712   0.355  0.2128  0.2101 -0.0370
  218MOL0     C28648   4.328   2.727   0.341  0.8673 -0.1342  0.2281
  218MOL0     C28649   4.256   2.844   0.358 -0.4252  0.5704 -0.3345
  218MOL0     C28650   4.115   2.848   0.355 -0.2572  0.5882  0.0626
  218MOL0     C28651   4.037   2.734   0.342 -0.4689 -0.1688 -0.3789
  218MOL0     O28652   3.902   2.741   0.316 -0.1484  0.0590 -0.4694
  218MOL0     C28653   3.847   2.637   0.240  0.7090  0.2618 -0.5062
  218MOL0     C28654   3.713   2.688   0.209  0.9660 -0.2509  0.8334
  218MOL0     C28655   3.654   2.636   0.075  0.7542 -0.4828  0.3332
  218MOL0     C28656   3.500   2.650   0.057 -0.1483  0.4086 -0.1953
  218MOL0     C28657   3.459   2.800   0.058  0.5052 -0.2550  0.0634
  218MOL0     C28658   3.311   2.823   0.022 -0.0363  0.6388  0.0554
  218MOL0     C28659   3.222   2.790   0.142  0.1192  0.5056 -0.3201
  218MOL0     C28660   3.082   2.839   0.109  1.0903  0.0870  0.8494
  218MOL0     N28661   2.978   2.786   0.199 -1.1247  0.0389 -0.3554
  218MOL0     C28662   2.989   2.775   0.333 -0.7912  0.2462 -0.8628
  218MOL0     C28663   2.888   2.690   0.374 -1.0064  0.2682  0.1272
  218MOL0     C28664   2.862   2.650   0.518  0.1410 -0.3101  0.6880
  218MOL0     C28665   2.715   2.608   0.553  0.1098  0.2757  0.0668
  218MOL0     C28666   2.607   2.690   0.493 -0.7313  0.1106  0.4657
  218MOL0     C28667   2.480   2.684   0.567  0.1747 -0.9124  0.1736
  218MOL0     O28668   2.390   2.774   0.512 -0.3417 -0.2716  0.7689
  218MOL0     C28669   2.256   2.743   0.515 -0.4821 -1.5938 -0.1186
  218MOL0     C28670   2.167   2.838   0.568 -0.6522  0.7406  0.0902
  218MOL0     C28671   2.027   2.813   0.569  0.4531  0.4061  0.0720
  218MOL0     C28672   1.974   2.693   0.519  0.8992 -0.3886 -0.7442
  218MOL0     C28673   1.829   2.668   0.508  0.5260 -0.4534 -0.5375
  218MOL0     O28674   1.786   2.549   0.464  0.4693 -0.1391 -0.0407
  218MOL0     C28675   1.654   2.503   0.475 -0.1274 -0.7478 -0.6734
  218MOL0     C28676   1.549   2.565   0.404 -0.1939  0.8334  0.0336
  218MOL0     C28677   1.416   2.517   0.395 -0.5472  0.2410  0.0584
  218MOL0     C28678   1.374   2.411   0.476  0.2305 -0.0676  0.0898
  218MOL0     O28679   1.253   2.350   0.488  0.2722 -0.0626 -0.5480
  218MOL0     C28680   1.145   2.382   0.395  0.6638  0.4931  0.1775
  218MOL0     C28681   1.029   2.285   0.423  0.1266  0.3685 -0.0737
  218MOL0     C28682   0.895   2.321   0.345 -0.9841  0.1549  0.4651
  218MOL0     C28683   0.791   2.223   0.380 -0.2849 -0.6595 -0.7477
  218MOL0     C28684   0.675   2.220   0.282  1.2027 -0.5888 -0.2414
  218MOL0     C28685   0.564   2.130   0.330  0.5059  0.3855 -0.5025
  218MOL0     C28686   0.444   2.146   0.240 -0.3104 -0.3818  1.2026
  218MOL0     C28687   0.351   2.032   0.261 -0.1877 -0.2856 -0.3261
  218MOL0    Cl28688   0.205   2.045   0.169  0.1154 -0.2520  0.0063
  218MOL0     C28689   1.471   2.353   0.554 -0.7630 -0.5793 -0.5804
  218MOL0     C28690   1.607   2.395   0.557 -0.7348 -0.6568 -0.6543
  218MOL0     O28691   1.751   2.746   0.563 -0.3940  0.1331  0.2110
  218MOL0     C28692   2.065   2.590   0.477 -0.4959  0.0097 -0.3378
  218MOL0     C28693   2.197   2.623   0.472  0.9958  0.7878 -0.5153
  218MOL0     N28694   2.823   2.647   0.262  0.2422  0.9240  0.5300
  218MOL0     N28695   2.878   2.698   0.157  0.5232 -0.4972  0.1431
  218MOL0     C28696   4.112   2.616   0.325 -0.2304  0.7254  0.3252
  218MOL0     C28697   4.252   2.616   0.331  0.0223  0.2251 -0.3306
  218MOL0     C28698   4.687   2.753   0.275  1.3852  1.1047 -0.0997
  218MOL0     C28699   4.743   2.635   0.340  0.5373 -0.1369  0.2031
  218MOL0     C28700   4.873   2.601   0.329 -1.0118  0.3958 -0.5805
  218MOL0     C28701   4.956   2.678   0.247 -0.5603  0.4205 -0.7659
  218MOL0     O28702   5.089   2.642   0.255 -0.0587 -0.0585  0.9422
  218MOL0     C28703   5.186   2.723   0.201  0.5209  0.2353 -0.3812
  218MOL0     C28704   5.331   2.685   0.259  0.0793  0.7299 -0.5547
  218MOL0     C28705   5.447   2.752   0.196 -0.0909 -0.8099  0.1131
  218MOL0     C28706   5.576   2.675   0.218 -0.1596  0.6734 -0.5617
  218MOL0     C28707   5.592   2.558   0.132  1.0466  0.4561 -0.6487
  218MOL0     C28708   5.604   2.455   0.072  0.0567  0.4636 -0.6311
  218MOL0     C28709   4.906   2.791   0.184  0.5364  0.4438  0.7478
  218MOL0     C28710   4.769   2.829   0.201 -0.2387  0.4165 -0.0113
  218MOL0     H28711   4.314   2.934   0.375  1.9390 -1.0953  0.9093
  218MOL0     H28712   4.057   2.939   0.348 -2.0691 -0.6082 -1.5366
  218MOL0     H28713   3.840   2.544   0.297  1.5822 -0.0229 -0.8364
  218MOL0     H28714   3.915   2.636   0.154  0.6546  0.3971 -0.5508
  218MOL0     H28715   3.701   2.797   0.200 -4.6611 -0.5612  0.9390
  218MOL0     H28716   3.649   2.672   0.296 -0.7737 -0.7531 -0.4821
  218MOL0     H28717   3.690   2.533   0.063  0.1098 -0.4154 -3.9645
  218MOL0     H28718   3.701   2.683  -0.012 -0.3056 -0.3587 -0.1935
  218MOL0     H28719   3.481   2.603  -0.040 -3.6222  1.1615  0.0107
  218MOL0     H28720   3.444   2.594   0.132  1.4062  1.4375  1.8307
  218MOL0     H28721   3.532   2.845  -0.010  1.4207 -0.9264  0.5837
  218MOL0     H28722   3.474   2.838   0.159 -0.8154 -1.2410  0.6582
  218MOL0     H28723   3.279   2.759  -0.061 -0.4195  1.3052 -0.3285
  218MOL0     H28724   3.291   2.928  -0.002  0.2789  1.0543  1.5102
  218MOL0     H28725   3.207   2.683   0.154 -1.7100  0.8679  1.1303
  218MOL0     H28726   3.252   2.831   0.239  1.9047 -0.3412 -0.4766
  218MOL0     H28727   3.041   2.810   0.011  0.5270  0.3481  1.0050
  218MOL0     H28728   3.079   2.948   0.113 -0.1011  0.1699 -0.9357
  218MOL0     H28729   3.055   2.823   0.404 -2.8857 -2.2485  3.2388
  218MOL0     H28730   2.869   2.750   0.561  0.2804  0.8859 -1.9048
  218MOL0     H28731   2.934   2.584   0.566 -1.2480 -1.3143  1.4663
  218MOL0     H28732   2.704   2.618   0.662  0.0566 -0.4253  0.1303
  218MOL0     H28733   2.707   2.506   0.515 -0.3966 -0.0222  0.9329
  218MOL0     H28734   2.634   2.795   0.477 -1.2922  0.0551 -1.0518
  218MOL0     H28735   2.600   2.637   0.397  2.1003 -1.6007  1.0781
  218MOL0     H28736   2.491   2.707   0.673 -3.6737 -0.7542  0.6731
  218MOL0     H28737   2.441   2.582   0.556  1.2658 -1.3337  0.0122
  218MOL0     H28738   2.206   2.932   0.606 -0.0618  1.5186 -2.2556
  218MOL0     H28739   1.965   2.895   0.602  0.2443 -0.2995  1.5113
  218MOL0     H28740   1.569   2.642   0.331 -0.8656  0.3841 -0.6420
  218MOL0     H28741   1.333   2.573   0.352 -0.0010  0.6978 -0.4274
  218MOL0     H28742   1.198   2.354   0.304  2.1147 -1.1438  1.4556
  218MOL0     H28743   1.108   2.485   0.393  0.5080  0.4324 -0.1046
  218MOL0     H28744   1.019   2.267   0.531 -0.3258  1.1840  0.0368
  218MOL0     H28745   1.067   2.194   0.376  3.0778  3.1969 -3.7859
  218MOL0     H28746   0.907   2.322   0.237 -1.6813  3.0722  0.3366
  218MOL0     H28747   0.859   2.418   0.380 -0.5185 -1.1320  5.1960
  218MOL0     H28748   0.841   2.125   0.377  3.6986  1.0790  1.6428
  218MOL0     H28749   0.758   2.238   0.483 -1.4061 -1.0018 -1.0301
  218MOL0     H28750   0.693   2.174   0.185  0.7214  0.5438 -0.8833
  218MOL0     H28751   0.640   2.322   0.267  1.2091 -0.5519 -0.0075
  218MOL0     H28752   0.535   2.150   0.434  0.0747 -1.3283 -0.2563
  218MOL0     H28753   0.600   2.027   0.338  0.6156  0.5615  2.4820
  218MOL0     H28754   0.393   2.242   0.246 -0.0748  0.2592 -3.5120
  218MOL0     H28755   0.476   2.149   0.136  0.0305 -1.3439  1.2695
  218MOL0     H28756   0.335   2.023   0.369  1.3855 -0.6738 -0.1024
  218MOL0     H28757   0.398   1.937   0.237 -0.1434 -0.4553  0.4148
  218MOL0     H28758   1.445   2.267   0.614 -0.6986 -0.3650 -0.2428
  218MOL0     H28759   1.673   2.347   0.628  1.7335  2.3309 -0.6895
  218MOL0     H28760   2.022   2.501   0.432 -0.8326  1.7954 -3.9314
  218MOL0     H28761   2.260   2.539   0.445  2.5694  1.6581  0.2497
  218MOL0     H28762   4.060   2.524   0.300 -2.4890  2.0899 -0.2747
  218MOL0     H28763   4.320   2.532   0.331  0.3920  0.4912 -1.6644
  218MOL0     H28764   4.678   2.569   0.396  2.0701 -0.6500  1.4556
  218MOL0     H28765   4.916   2.513   0.374 -3.0785 -1.4468 -2.0245
  218MOL0     H28766   5.169   2.827   0.229  0.0014  0.8925 -2.8778
  218MOL0     H28767   5.194   2.713   0.092 -0.7458  1.7156 -0.6508
  218MOL0     H28768   5.335   2.713   0.365  1.8621  0.3023 -0.4825
  218MOL0     H28769   5.339   2.577   0.248 -1.1809  0.8688 -4.2407
  218MOL0     H28770   5.455   2.855   0.232 -0.2835  0.3516 -2.8703
  218MOL0     H28771   5.429   2.757   0.088 -0.5517 -0.1509  0.2134
  218MOL0     H28772   5.662   2.737   0.191  1.5819  0.1779  3.1828
  218MOL0     H28773   5.594   2.643   0.322  1.0472  0.9255 -0.6778
  218MOL0     H28774   5.606   2.368   0.010  0.2046 -1.4354  1.8686
  218MOL0     H28775   4.978   2.852   0.131  1.4532 -0.6205  0.7307
  218MOL0     H28776   4.731   2.918   0.152 -0.3357 -0.9191 -2.5087
  219MOL0     O28777   5.968   8.308   7.880  0.3937  0.2802 -0.8140
  219MOL0     C28778   6.002   8.268   7.766  0.2525 -0.2397  0.1040
  219MOL0     O28779   5.916   8.253   7.668  0.2418 -0.9230  0.0890
  219MOL0     C28780   5.783   8.293   7.689 -0.1822 -0.8367 -0.1115
  219MOL0     C28781   5.729   8.409   7.627  0.5978  0.8626 -1.3402
  219MOL0     C28782   5.592   8.433   7.645  1.4059  0.1054 -0.1813
  219MOL0     C28783   5.511   8.358   7.736 -0.2264 -0.1340 -0.8374
  219MOL0     O28784   5.379   8.384   7.766  0.3741 -0.2815 -0.1212
  219MOL0     C28785   5.316   8.507   7.725 -0.5027  0.3493  0.0601
  219MOL0     C28786   5.168   8.505   7.758  0.2725  0.0015 -0.9611
  219MOL0     C28787   5.134   8.510   7.907 -0.2242  0.4008  0.5265
  219MOL0     C28788   4.992   8.523   7.937  0.7750 -0.3208 -0.5213
  219MOL0     C28789   4.903   8.395   7.945  0.3723  0.9081 -0.2161
  219MOL0     C28790   4.865   8.327   7.812  1.4130 -0.0288  0.6877
  219MOL0     C28791   4.766   8.216   7.828 -1.3280 -0.3182 -0.3106
  219MOL0     C28792   4.737   8.137   7.696  0.3886  0.3711 -0.2548
  219MOL0     N28793   4.653   8.017   7.721  0.4119 -0.4181  0.2126
  219MOL0     C28794   4.634   7.939   7.829 -0.6213 -0.4442 -0.2960
  219MOL0     C28795   4.533   7.855   7.811  1.1645  0.3889  0.2028
  219MOL0     C28796   4.478   7.762   7.917 -0.1260  1.3704  0.1169
  219MOL0     C28797   4.324   7.759   7.919 -0.7255  0.5947 -0.8317
  219MOL0     C28798   4.292   7.696   8.054  0.2474  0.3307  0.4671
  219MOL0     C28799   4.131   7.691   8.067 -0.3657 -0.0542  0.1557
  219MOL0     O28800   4.087   7.626   8.186  0.0903 -0.0810 -0.0324
  219MOL0     C28801   3.987   7.534   8.173 -0.3076 -0.5122  0.5341
  219MOL0     C28802   3.865   7.577   8.114 -0.8745 -0.0803 -0.5330
  219MOL0     C28803   3.769   7.482   8.081 -0.5758 -0.3993  0.4408
  219MOL0     C28804   3.791   7.340   8.100 -0.0967 -0.1467 -1.2890
  219MOL0     C28805   3.686   7.233   8.081  1.3406 -0.3467  0.3391
  219MOL0     O28806   3.556   7.277   8.085  0.1271 -0.6799  0.0656
  219MOL0     C28807   3.446   7.188   8.090  0.1391  0.3270  0.1709
  219MOL0     C28808   3.445   7.055   8.139 -0.8073  0.3999 -0.3225
  219MOL0     C28809   3.328   6.985   8.132  0.6400  0.9749 -0.0324
  219MOL0     C28810   3.204   7.044   8.103  0.0195  1.3365 -0.2850
  219MOL0     O28811   3.096   6.952   8.106 -0.4642  0.0245  0.0259
  219MOL0     C28812   2.975   7.001   8.164 -0.3957  0.2354 -0.6658
  219MOL0     C28813   2.976   6.962   8.317  0.0728  0.0156 -0.1962
  219MOL0     C28814   2.845   6.999   8.383 -0.2535  0.1983  0.1180
  219MOL0     C28815   2.737   6.889   8.357 -0.0139  0.1471  0.2348
  219MOL0     C28816   2.596   6.909   8.413  0.8488 -0.4350  0.1219
  219MOL0     C28817   2.507   6.992   8.315 -0.1308 -0.2521  0.2150
  219MOL0     C28818   2.359   6.961   8.343 -0.9576 -0.1316  0.0630
  219MOL0     C28819   2.261   7.039   8.252  0.2436  0.3874 -0.5459
  219MOL0    Cl28820   2.087   6.959   8.252 -0.2424  0.3155 -0.5473
  219MOL0     C28821   3.200   7.177   8.074 -0.2193  0.6288 -0.5439
  219MOL0     C28822   3.317   7.244   8.062  0.0112 -0.3504  0.5592
  219MOL0     O28823   3.721   7.122   8.059 -0.5623 -0.5377 -0.5314
  219MOL0     C28824   3.917   7.304   8.153 -0.7683  0.5085  0.6790
  219MOL0     C28825   4.012   7.403   8.194  0.4656  0.5171 -0.9779
  219MOL0     N28826   4.480   7.891   7.681 -0.1617 -0.0030 -0.3739
  219MOL0     N28827   4.564   7.976   7.624  0.2913  0.0018 -0.2587
  219MOL0     C28828   5.569   8.245   7.803 -0.5401  0.4401 -0.3389
  219MOL0     C28829   5.704   8.208   7.776 -0.4730 -0.4500 -0.3017
  219MOL0     C28830   6.148   8.246   7.739  0.0541 -0.6540  0.8670
  219MOL0     C28831   6.245   8.264   7.844  0.5418 -0.6569  0.0604
  219MOL0     C28832   6.378   8.241   7.806 -0.4123 -0.3536 -0.6799
  219MOL0     C28833   6.418   8.196   7.679 -0.5827 -0.1332 -0.8524
  219MOL0     O28834   6.551   8.173   7.632  0.5421  0.6284 -0.2896
  219MOL0     C28835   6.650   8.220   7.722  0.7975 -0.7463 -0.1161
  219MOL0     C28836   6.716   8.116   7.802  0.0668  0.0695 -0.3782
  219MOL0     C28837   6.844   8.166   7.870 -0.2415 -0.7519 -0.3791
  219MOL0     C28838   6.814   8.266   7.985 -0.1057 -0.8088 -0.3672
  219MOL0     C28839   6.936   8.332   8.026 -0.1947  1.0256 -1.1130
  219MOL0     C28840   7.044   8.379   8.058  0.8837 -0.4941  0.0868
  219MOL0     C28841   6.319   8.182   7.584  0.4172 -0.3739  0.0184
  219MOL0     C28842   6.189   8.203   7.617  0.4922  0.0009 -0.0227
  219MOL0     H28843   5.788   8.479   7.570  0.8900 -0.2496 -2.4590
  219MOL0     H28844   5.540   8.514   7.595  1.3679 -1.1058 -2.2618
  219MOL0     H28845   5.328   8.539   7.621  0.4175  1.2582  0.4260
  219MOL0     H28846   5.353   8.585   7.792 -2.2742 -0.7241  2.4000
  219MOL0     H28847   5.134   8.414   7.707 -2.0215 -0.0541  0.5371
  219MOL0     H28848   5.121   8.589   7.708 -0.0366  0.9471  0.8606
  219MOL0     H28849   5.183   8.591   7.962  4.3788 -1.8882  0.2621
  219MOL0     H28850   5.169   8.413   7.943 -1.3950 -1.2462 -2.4906
  219MOL0     H28851   4.976   8.570   8.035 -1.5203 -0.5349 -0.7399
  219MOL0     H28852   4.954   8.581   7.853  1.6420 -1.6929 -1.9049
  219MOL0     H28853   4.808   8.425   7.990 -0.4077  1.6380 -2.2526
  219MOL0     H28854   4.948   8.314   8.004  1.9288  1.4070 -0.6737
  219MOL0     H28855   4.953   8.293   7.755  2.4120 -0.3334  2.3359
  219MOL0     H28856   4.819   8.402   7.747  1.6589 -0.8768 -0.5200
  219MOL0     H28857   4.809   8.139   7.894  0.0827  0.5688 -0.1524
  219MOL0     H28858   4.676   8.259   7.874 -0.4588 -1.1478  2.3387
  219MOL0     H28859   4.827   8.112   7.638 -0.5462  0.5825 -1.8723
  219MOL0     H28860   4.680   8.205   7.633 -1.6172 -0.7850  0.2449
  219MOL0     H28861   4.685   7.954   7.924  1.6394  1.0210 -1.6339
  219MOL0     H28862   4.513   7.795   8.015 -0.7391 -0.3549  0.9504
  219MOL0     H28863   4.511   7.660   7.895  0.7619  1.7548 -0.3895
  219MOL0     H28864   4.288   7.704   7.831 -1.9459  0.7993 -0.4759
  219MOL0     H28865   4.297   7.865   7.919 -0.1957  0.7497  0.4141
  219MOL0     H28866   4.338   7.597   8.055 -1.6771 -0.6257  1.1685
  219MOL0     H28867   4.318   7.760   8.139 -0.2999 -1.4908  2.1048
  219MOL0     H28868   4.094   7.641   7.977  1.4900 -1.4917  0.1391
  219MOL0     H28869   4.091   7.792   8.054  2.4789  2.0415  5.0374
  219MOL0     H28870   3.856   7.683   8.096 -2.7859 -0.2739 -1.0101
  219MOL0     H28871   3.679   7.506   8.027  0.1319 -2.5924 -1.9160
  219MOL0     H28872   3.540   7.001   8.144 -1.1946 -0.2650  0.1344
  219MOL0     H28873   3.330   6.877   8.133  1.6723  0.9866  0.5623
  219MOL0     H28874   2.893   6.947   8.114  1.0527 -1.3817 -1.3863
  219MOL0     H28875   2.965   7.110   8.155 -1.9779  0.3594  1.6009
  219MOL0     H28876   3.062   7.013   8.361 -0.1321  0.6261 -0.4785
  219MOL0     H28877   2.992   6.854   8.311 -1.6953 -0.2914  0.1266
  219MOL0     H28878   2.820   7.094   8.334  2.6765  0.1695 -1.6670
  219MOL0     H28879   2.876   7.015   8.487  4.3374 -1.4691 -0.7728
  219MOL0     H28880   2.734   6.861   8.251  1.9386  0.0184  0.1753
  219MOL0     H28881   2.781   6.806   8.412 -0.6602 -1.6617 -1.8249
  219MOL0     H28882   2.594   6.965   8.507 -3.1830  2.5695 -1.4779
  219MOL0     H28883   2.547   6.812   8.413 -1.2930  0.5804 -0.9906
  219MOL0     H28884   2.539   6.947   8.221  2.2252  3.3466 -0.9166
  219MOL0     H28885   2.527   7.100   8.316 -1.2745 -0.0304  1.3031
  219MOL0     H28886   2.354   6.860   8.300 -0.9765  0.2441 -0.8347
  219MOL0     H28887   2.333   6.976   8.448 -2.3219  0.9650 -0.4094
  219MOL0     H28888   2.298   7.042   8.149 -0.4077  0.3687 -0.7921
  219MOL0     H28889   2.242   7.140   8.289 -1.2213 -0.4855  1.2222
  219MOL0     H28890   3.118   7.246   8.057 -0.8453 -0.1827 -0.8814
  219MOL0     H28891   3.314   7.347   8.026 -1.6045 -0.9008 -1.0397
  219MOL0     H28892   3.943   7.198   8.162 -0.6733  0.3299 -1.3131
  219MOL0     H28893   4.104   7.369   8.241 -2.2421 -3.7893  1.9152
  219MOL0     H28894   5.507   8.184   7.868 -0.3052 -1.2130 -1.6054
  219MOL0     H28895   5.754   8.129   7.831  3.6372  1.2984 -1.1059
  219MOL0     H28896   6.225   8.293   7.947  0.8013 -0.7574  0.1395
  219MOL0     H28897   6.455   8.258   7.881  2.0672  0.9256 -3.2949
  219MOL0     H28898   6.619   8.300   7.790  1.8297 -0.0557 -0.4314
  219MOL0     H28899   6.729   8.263   7.659  0.3771 -1.2141 -0.9755
  219MOL0     H28900   6.647   8.085   7.880  0.7964  1.5720  0.9307
  219MOL0     H28901   6.748   8.042   7.728  3.2909 -0.5055  1.3671
  219MOL0     H28902   6.915   8.216   7.803  0.4913  1.8087  2.1122
  219MOL0     H28903   6.908   8.087   7.910  2.5407  1.2516 -0.6077
  219MOL0     H28904   6.742   8.341   7.949 -0.6420 -0.1270  1.9371
  219MOL0     H28905   6.767   8.213   8.068 -3.4899  1.4535 -0.6551
  219MOL0     H28906   7.141   8.420   8.079 -0.1970  2.4256 -0.2442
  219MOL0     H28907   6.343   8.160   7.480 -1.9044  2.6086 -1.3177
  219MOL0     H28908   6.115   8.190   7.538 -0.9776  0.9515  1.1392
  220MOL0     O28909   1.626   9.089   3.710 -0.5359  0.3584  0.2080
  220MOL0     C28910   1.592   8.967   3.704  0.6232 -0.0998  0.9515
  220MOL0     O28911   1.484   8.912   3.762  0.5877  0.0382 -0.0923
  220MOL0     C28912   1.372   8.990   3.790  0.3457  0.9168  0.5187
  220MOL0     C28913   1.340   9.112   3.748 -0.8774 -1.5482 -0.1558
  220MOL0     C28914   1.226   9.182   3.778  1.3006  0.6045  0.3587
  220MOL0     C28915   1.136   9.131   3.871 -0.1393  0.6132  0.2369
  220MOL0     O28916   1.041   9.210   3.915  0.0231 -0.7401  0.7716
  220MOL0     C28917   0.934   9.155   4.001  0.1421 -0.7592  0.5719
  220MOL0     C28918   0.819   9.256   4.020 -0.2100 -0.0538  0.3300
  220MOL0     C28919   0.787   9.283   4.170  0.5830 -0.6498  0.3783
  220MOL0     C28920   0.666   9.391   4.179  0.0222 -0.8544 -0.0678
  220MOL0     C28921   0.620   9.411   4.325  0.1396  0.0061  0.7851
  220MOL0     C28922   0.501   9.502   4.338 -0.0498 -0.2885  0.0117
  220MOL0     C28923   0.445   9.494   4.484  0.4160 -0.1399 -0.0392
  220MOL0     C28924   0.314   9.571   4.496 -1.2593 -0.7688  0.0405
  220MOL0     N28925   0.270   9.585   4.631  1.1252 -0.1244  0.6806
  220MOL0     C28926   0.181   9.506   4.695  0.6673 -0.1291 -0.0064
  220MOL0     C28927   0.200   9.539   4.826  0.5060 -0.9443 -0.9282
  220MOL0     C28928   0.128   9.491   4.953  0.3386  0.2570 -0.1851
  220MOL0     C28929  -0.012   9.424   4.937 -0.3486  0.2795  0.0116
  220MOL0     C28930  -0.123   9.518   4.897 -0.2346 -0.5218  0.5390
  220MOL0     C28931  -0.248   9.433   4.863 -0.3707  0.0519  0.1293
  220MOL0     O28932  -0.322   9.500   4.759 -0.3717 -0.1314 -0.1789
  220MOL0     C28933  -0.436   9.438   4.707 -0.0608 -0.3499  0.1792
  220MOL0     C28934  -0.487   9.486   4.585 -0.1636 -1.2501  0.2045
  220MOL0     C28935  -0.607   9.438   4.542 -0.3291 -0.4906  0.4704
  220MOL0     C28936  -0.699   9.359   4.621  0.0491 -0.4615  0.2183
  220MOL0     C28937  -0.837   9.326   4.572  0.3558  0.1936  0.1660
  220MOL0     O28938  -0.879   9.345   4.445 -0.6830 -0.4145 -0.0505
  220MOL0     C28939  -1.005   9.329   4.409  0.1266  0.2941 -0.0657
  220MOL0     C28940  -1.033   9.259   4.296  0.3752  0.3322  0.3524
  220MOL0     C28941  -1.160   9.268   4.239 -0.0672  0.0437 -0.4727
  220MOL0     C28942  -1.261   9.340   4.306  0.3411  0.3401  0.0554
  220MOL0     O28943  -1.377   9.357   4.236 -0.2678 -0.6498 -0.7078
  220MOL0     C28944  -1.470   9.450   4.297  0.1980 -0.6763 -0.1101
  220MOL0     C28945  -1.609   9.442   4.238 -0.4487 -0.0373 -0.4203
  220MOL0     C28946  -1.689   9.562   4.265  0.8223 -0.3086  0.4597
  220MOL0     C28947  -1.833   9.542   4.210 -0.0253 -0.0971 -0.5607
  220MOL0     C28948  -1.933   9.658   4.257  0.3571 -0.5402  0.0638
  220MOL0     C28949  -2.069   9.655   4.177  0.3058  0.2019 -0.1022
  220MOL0     C28950  -2.181   9.740   4.227  0.4846 -0.1092  0.3191
  220MOL0     C28951  -2.159   9.896   4.229  0.2393  0.1129 -0.1628
  220MOL0    Cl28952  -2.312   9.989   4.203 -0.2325 -0.0869 -0.1194
  220MOL0     C28953  -1.228   9.406   4.424 -0.4403 -0.4683  0.2620
  220MOL0     C28954  -1.098   9.410   4.470 -0.2390  0.1333 -0.3688
  220MOL0     O28955  -0.909   9.270   4.657  0.3562 -1.1369  0.0016
  220MOL0     C28956  -0.641   9.313   4.740 -0.2813 -0.6065 -0.1471
  220MOL0     C28957  -0.511   9.345   4.783 -0.4482  0.3520  0.1201
  220MOL0     N28958   0.283   9.648   4.833 -0.7825  0.4156 -0.1734
  220MOL0     N28959   0.328   9.672   4.716  0.3792 -0.3280 -0.3705
  220MOL0     C28960   1.163   8.997   3.917 -0.2416  0.4348  0.6950
  220MOL0     C28961   1.284   8.933   3.879  0.3689  0.4475 -0.2826
  220MOL0     C28962   1.689   8.868   3.638  0.3904  0.4948 -0.2974
  220MOL0     C28963   1.638   8.741   3.595 -0.8528 -0.0269 -0.5417
  220MOL0     C28964   1.719   8.642   3.535  0.2839 -0.5550  0.8807
  220MOL0     C28965   1.852   8.680   3.506 -0.1736  0.8679  0.1032
  220MOL0     O28966   1.920   8.595   3.418 -0.6712  0.3337  0.3336
  220MOL0     C28967   2.052   8.619   3.376 -0.0487  0.1099 -0.7685
  220MOL0     C28968   2.078   8.513   3.264  0.2651 -0.3412 -0.0821
  220MOL0     C28969   2.082   8.366   3.327 -0.2223  0.3061 -0.8185
  220MOL0     C28970   2.095   8.250   3.234 -0.2984 -0.6068  0.1278
  220MOL0     C28971   1.968   8.229   3.177  0.5034 -0.1212 -0.0814
  220MOL0     C28972   1.852   8.199   3.138 -1.1034  1.2587 -0.9532
  220MOL0     C28973   1.901   8.804   3.553 -0.2466  0.1526  0.3322
  220MOL0     C28974   1.819   8.893   3.618 -0.2054  0.1876 -0.3585
  220MOL0     H28975   1.405   9.176   3.689  0.2165 -3.5064 -1.1899
  220MOL0     H28976   1.211   9.287   3.752  2.3208  0.6939  0.1059
  220MOL0     H28977   0.967   9.121   4.100  4.3887  0.9259 -0.0195
  220MOL0     H28978   0.906   9.061   3.953 -1.3627  1.4339 -3.1948
  220MOL0     H28979   0.728   9.217   3.974 -0.1784  0.1768  0.0711
  220MOL0     H28980   0.844   9.344   3.960 -0.8699 -0.9264 -1.2816
  220MOL0     H28981   0.883   9.327   4.201  0.4633 -0.9245  1.1749
  220MOL0     H28982   0.772   9.198   4.237 -0.6598 -1.0713 -0.4087
  220MOL0     H28983   0.698   9.485   4.133 -2.0927  0.6693  1.4037
  220MOL0     H28984   0.577   9.367   4.120 -0.1776  1.1388 -0.6570
  220MOL0     H28985   0.704   9.454   4.381  2.8477 -1.3514 -1.9393
  220MOL0     H28986   0.595   9.314   4.370  1.3196  0.0090  1.4948
  220MOL0     H28987   0.425   9.475   4.264  0.3510  0.6927 -0.7784
  220MOL0     H28988   0.530   9.605   4.314  0.6655 -0.3022  0.7836
  220MOL0     H28989   0.423   9.391   4.512 -0.1028  0.0861  0.4050
  220MOL0     H28990   0.509   9.538   4.561 -1.3914 -1.0813  2.1347
  220MOL0     H28991   0.247   9.508   4.437 -0.6353 -1.2388 -0.1848
  220MOL0     H28992   0.325   9.667   4.445 -3.8706  0.3919  1.4934
  220MOL0     H28993   0.127   9.422   4.653  0.2653 -1.4604  2.9359
  220MOL0     H28994   0.117   9.576   5.021 -0.8271 -1.0440  1.3381
  220MOL0     H28995   0.194   9.417   5.000  1.5174  1.2362 -0.2550
  220MOL0     H28996  -0.031   9.390   5.039  0.4893  0.6794  0.3082
  220MOL0     H28997   0.007   9.344   4.865 -0.2804 -1.2041  1.6294
  220MOL0     H28998  -0.146   9.589   4.977 -1.1343  0.0922 -0.2383
  220MOL0     H28999  -0.090   9.587   4.819  1.5934  0.4172  2.0834
  220MOL0     H29000  -0.309   9.427   4.953 -0.4316 -1.1223  0.0216
  220MOL0     H29001  -0.209   9.336   4.832  0.8801  1.0144 -1.4854
  220MOL0     H29002  -0.449   9.572   4.531 -3.6963  0.0422 -0.4925
  220MOL0     H29003  -0.646   9.473   4.447 -0.9870  0.2547  1.0018
  220MOL0     H29004  -0.953   9.210   4.241 -0.3461  2.2464 -2.6983
  220MOL0     H29005  -1.181   9.207   4.152 -0.1882 -0.2460 -0.2437
  220MOL0     H29006  -1.430   9.550   4.279  4.6425 -2.7027 -3.3943
  220MOL0     H29007  -1.478   9.449   4.406 -1.0625  2.3552 -0.0775
  220MOL0     H29008  -1.651   9.351   4.283 -0.2558 -0.2718 -0.7146
  220MOL0     H29009  -1.604   9.436   4.129 -0.0754  2.7603 -0.6128
  220MOL0     H29010  -1.634   9.647   4.225  3.4329 -1.0101  2.2661
  220MOL0     H29011  -1.700   9.588   4.371 -2.9836  1.8200 -0.2793
  220MOL0     H29012  -1.830   9.553   4.101 -2.5542  2.1491 -0.5031
  220MOL0     H29013  -1.882   9.449   4.240 -2.0932  1.8105  2.5144
  220MOL0     H29014  -1.886   9.754   4.232 -1.3156  1.0294  2.5050
  220MOL0     H29015  -1.933   9.664   4.366  1.7587  2.2471  0.0183
  220MOL0     H29016  -2.109   9.553   4.173  1.0212 -0.0463 -1.6589
  220MOL0     H29017  -2.037   9.689   4.078  0.8676 -0.0593 -0.0112
  220MOL0     H29018  -2.262   9.711   4.159  1.6044 -0.3668 -0.9466
  220MOL0     H29019  -2.216   9.709   4.326 -0.0838  3.1369  1.2266
  220MOL0     H29020  -2.102   9.909   4.137  1.1029  0.1593  0.3706
  220MOL0     H29021  -2.098   9.934   4.311 -0.2680  0.2593  0.1575
  220MOL0     H29022  -1.284   9.481   4.479 -0.2317  0.2570 -0.4906
  220MOL0     H29023  -1.063   9.481   4.544 -0.5007  0.2884 -0.3903
  220MOL0     H29024  -0.699   9.238   4.792 -0.9836  0.4476  0.6309
  220MOL0     H29025  -0.470   9.296   4.871  0.5227  1.3141  0.2261
  220MOL0     H29026   1.103   8.960   3.999 -0.8056 -0.2166  0.0012
  220MOL0     H29027   1.299   8.837   3.927 -0.9146  1.4089  2.2411
  220MOL0     H29028   1.535   8.708   3.601  0.0901 -3.0986  3.9748
  220MOL0     H29029   1.683   8.543   3.508 -2.2829  0.9029 -1.6475
  220MOL0     H29030   2.117   8.610   3.464 -2.3361 -1.4172  0.8943
  220MOL0     H29031   2.048   8.723   3.343 -1.6820  0.9381  1.7340
  220MOL0     H29032   2.007   8.513   3.181 -0.7935  0.9939  0.7840
  220MOL0     H29033   2.178   8.539   3.227  0.0647  2.9904  1.3466
  220MOL0     H29034   1.989   8.349   3.382  0.0900 -1.2956 -0.7148
  220MOL0     H29035   2.171   8.358   3.390 -0.7163  1.4491  0.0657
  220MOL0     H29036   2.155   8.271   3.145 -2.1932 -0.5120 -1.1862
  220MOL0     H29037   2.126   8.158   3.285 -0.4739 -0.5681  0.3072
  220MOL0     H29038   1.761   8.172   3.088 -2.8446  1.4678  1.8942
  220MOL0     H29039   2.003   8.835   3.531 -0.5374 -0.7911 -2.7861
  220MOL0     H29040   1.854   8.991   3.650  2.8194  0.3932 -3.6387
  221MOL0     O29041   5.125   8.514   3.977 -0.4915 -0.4746 -0.1470
  221MOL0     C29042   5.217   8.471   4.052 -0.0527  0.2297  0.2419
  221MOL0     O29043   5.206   8.445   4.187 -0.2703 -0.8939  0.0916
  221MOL0     C29044   5.091   8.482   4.254 -1.3537 -0.4925 -0.4443
  221MOL0     C29045   5.094   8.568   4.373  0.0166 -0.2927 -0.0525
  221MOL0     C29046   4.987   8.607   4.455  0.2280 -0.5274 -0.1174
  221MOL0     C29047   4.869   8.562   4.411  0.0467  0.3435 -0.4756
  221MOL0     O29048   4.759   8.597   4.482  0.2464 -0.4031  0.3549
  221MOL0     C29049   4.657   8.501   4.509 -0.6124  0.1196 -0.4240
  221MOL0     C29050   4.605   8.539   4.646 -0.1813  0.1860 -0.1013
  221MOL0     C29051   4.504   8.437   4.688  0.0902 -0.5179  0.3834
  221MOL0     C29052   4.446   8.468   4.826 -0.3759  0.9104 -0.4165
  221MOL0     C29053   4.359   8.351   4.869 -0.7227 -0.3660 -0.0069
  221MOL0     C29054   4.254   8.392   4.969  0.0171 -0.0864 -0.1199
  221MOL0     C29055   4.159   8.277   5.007  0.6343  0.1415  0.4541
  221MOL0     C29056   4.029   8.292   4.925  0.7770  0.7725 -0.2826
  221MOL0     N29057   3.953   8.161   4.925  0.5907 -0.8192 -0.5460
  221MOL0     C29058   3.880   8.109   5.032 -0.0631 -0.0707  0.3335
  221MOL0     C29059   3.873   7.976   5.000  1.0633  0.0215 -0.5027
  221MOL0     C29060   3.811   7.881   5.103  0.6601 -0.7430 -0.0424
  221MOL0     C29061   3.661   7.899   5.100  0.2329 -0.6441  0.4953
  221MOL0     C29062   3.596   7.844   4.971 -0.1044  0.7002  0.5584
  221MOL0     C29063   3.450   7.880   4.958  0.5635  0.6609 -0.1702
  221MOL0     O29064   3.374   7.828   5.066  0.6706 -0.6359 -0.3369
  221MOL0     C29065   3.241   7.794   5.045 -0.5854 -0.5295 -0.0583
  221MOL0     C29066   3.159   7.854   4.959  0.7373 -0.8340 -0.0361
  221MOL0     C29067   3.018   7.825   4.955 -0.6988 -0.6856  0.0252
  221MOL0     C29068   2.971   7.716   5.035 -0.6906 -0.3074  0.2813
  221MOL0     C29069   2.837   7.661   5.018 -0.6583  0.4964 -0.9277
  221MOL0     O29070   2.815   7.526   5.048 -0.2022  0.7260 -0.3180
  221MOL0     C29071   2.684   7.492   5.038  0.6226  0.5953  0.7688
  221MOL0     C29072   2.588   7.526   5.136 -0.6331 -0.0315 -0.0772
  221MOL0     C29073   2.456   7.491   5.118  0.2588 -1.0673  0.0511
  221MOL0     C29074   2.416   7.423   5.007 -0.3170  0.6730 -0.1149
  221MOL0     O29075   2.275   7.392   4.982 -0.4528  0.4344 -0.2091
  221MOL0     C29076   2.201   7.514   4.977 -0.0409 -0.7410  0.1099
  221MOL0     C29077   2.056   7.494   4.955  0.7961  0.2556  0.4978
  221MOL0     C29078   1.989   7.422   5.072 -0.6042  0.0019  1.0136
  221MOL0     C29079   1.842   7.406   5.040 -0.1034  0.0318  0.0075
  221MOL0     C29080   1.773   7.357   5.168 -0.6467  0.3851 -0.6381
  221MOL0     C29081   1.759   7.470   5.275 -0.0788 -0.3457 -0.4146
  221MOL0     C29082   1.710   7.417   5.409  1.4490  0.0653  0.0702
  221MOL0     C29083   1.649   7.523   5.495 -0.0222 -0.0606 -0.0345
  221MOL0    Cl29084   1.618   7.464   5.655 -0.4615 -0.0695 -0.1897
  221MOL0     C29085   2.510   7.377   4.913  0.2524 -0.7660 -0.2076
  221MOL0     C29086   2.642   7.418   4.925 -0.2749 -0.0943 -1.0392
  221MOL0     O29087   2.757   7.733   4.962  0.1312  0.1814 -0.1361
  221MOL0     C29088   3.062   7.646   5.122  0.7913 -0.5993  0.0226
  221MOL0     C29089   3.191   7.692   5.119 -0.5776 -0.4454  1.2184
  221MOL0     N29090   3.920   7.949   4.869 -0.1630 -0.3747  0.0873
  221MOL0     N29091   3.968   8.059   4.825 -0.7833 -0.6993 -1.6193
  221MOL0     C29092   4.849   8.486   4.293  0.0086  0.9716 -0.1857
  221MOL0     C29093   4.962   8.438   4.221 -0.3754 -1.0391  0.1920
  221MOL0     C29094   5.348   8.449   3.980  0.7961  0.4162  0.2452
  221MOL0     C29095   5.458   8.386   4.043 -0.5027 -0.1036 -0.1822
  221MOL0     C29096   5.588   8.374   3.989 -0.2985 -0.0492  0.5523
  221MOL0     C29097   5.610   8.424   3.864  0.8575 -1.1684 -0.5359
  221MOL0     O29098   5.729   8.419   3.800 -0.0858 -0.1582  0.7939
  221MOL0     C29099   5.827   8.335   3.847  0.1546  0.4620 -0.0900
  221MOL0     C29100   5.945   8.348   3.746  0.1228 -0.0735  0.0628
  221MOL0     C29101   6.050   8.250   3.782  0.3660  0.0178  0.3262
  221MOL0     C29102   6.170   8.247   3.683  0.6960 -0.9605  0.0058
  221MOL0     C29103   6.135   8.199   3.552  0.3093  0.4078 -0.5344
  221MOL0     C29104   6.083   8.177   3.445 -0.0551 -0.2622 -0.2315
  221MOL0     C29105   5.502   8.492   3.801  0.1988 -0.2712 -0.4772
  221MOL0     C29106   5.372   8.506   3.853 -0.2421  0.0567 -0.5924
  221MOL0     H29107   5.191   8.613   4.393  0.7692 -1.7480 -0.3038
  221MOL0     H29108   4.997   8.675   4.539  2.7670  1.0701 -1.5672
  221MOL0     H29109   4.702   8.402   4.510 -1.1291 -0.3190  4.5623
  221MOL0     H29110   4.569   8.521   4.447 -0.7042  1.5250  0.1139
  221MOL0     H29111   4.552   8.634   4.632 -1.5831  0.3378  4.6235
  221MOL0     H29112   4.697   8.549   4.704  1.2223 -0.6718 -2.0527
  221MOL0     H29113   4.560   8.344   4.698  2.5751  0.8066 -0.3645
  221MOL0     H29114   4.422   8.428   4.616  2.0011  1.7515 -2.3138
  221MOL0     H29115   4.531   8.488   4.891  0.2912  2.1374 -1.6141
  221MOL0     H29116   4.388   8.561   4.829 -1.3904  0.3101  3.3834
  221MOL0     H29117   4.422   8.268   4.901 -1.9694 -1.6917 -0.8933
  221MOL0     H29118   4.310   8.313   4.779 -0.1284 -3.0030  0.7034
  221MOL0     H29119   4.195   8.478   4.936 -1.5629 -0.1166  2.3670
  221MOL0     H29120   4.309   8.427   5.058 -1.2844  3.5927 -0.5984
  221MOL0     H29121   4.198   8.178   4.982 -0.6800 -0.1203 -0.7161
  221MOL0     H29122   4.134   8.289   5.113 -3.8973  4.0065 -0.6683
  221MOL0     H29123   4.064   8.321   4.825  3.0927  1.1750  0.5733
  221MOL0     H29124   3.977   8.378   4.969  2.3375  1.4417  0.3721
  221MOL0     H29125   3.859   8.150   5.130  2.7596 -1.3724  1.6048
  221MOL0     H29126   3.844   7.903   5.205 -2.2961 -2.3827  1.4076
  221MOL0     H29127   3.845   7.779   5.084 -2.1178 -2.2587  2.3604
  221MOL0     H29128   3.633   8.003   5.119 -1.3975 -0.1170 -3.7967
  221MOL0     H29129   3.623   7.832   5.178  0.9475 -2.5169 -0.6839
  221MOL0     H29130   3.659   7.866   4.884  1.0947  1.8430  1.6769
  221MOL0     H29131   3.610   7.735   4.966  1.8595  0.9679 -1.4907
  221MOL0     H29132   3.412   7.838   4.864 -0.0708  2.8740 -0.9710
  221MOL0     H29133   3.438   7.988   4.963  0.5740  0.6099  1.9691
  221MOL0     H29134   3.184   7.944   4.904 -1.0906  2.2421  3.6876
  221MOL0     H29135   2.955   7.881   4.886 -1.1135 -1.6711 -0.4236
  221MOL0     H29136   2.629   7.587   5.216  3.2064 -1.5306 -0.6857
  221MOL0     H29137   2.382   7.519   5.192  1.7141  0.1665  1.1055
  221MOL0     H29138   2.232   7.569   4.888  3.2971 -1.4520  0.7137
  221MOL0     H29139   2.209   7.589   5.056  1.4857 -1.6598  0.8792
  221MOL0     H29140   2.049   7.431   4.866 -2.6319 -2.0213  2.1254
  221MOL0     H29141   2.005   7.585   4.922 -3.9356 -2.0921  0.5291
  221MOL0     H29142   2.015   7.471   5.166  2.1075  0.5744  0.0599
  221MOL0     H29143   2.030   7.321   5.076 -1.0730 -0.1900  0.9487
  221MOL0     H29144   1.800   7.498   5.000 -0.5095 -0.1105  0.1026
  221MOL0     H29145   1.834   7.324   4.968 -0.1089 -1.5704  1.7279
  221MOL0     H29146   1.833   7.275   5.208 -0.0867  1.4124  0.7054
  221MOL0     H29147   1.669   7.329   5.150 -1.6769  2.6310  1.1983
  221MOL0     H29148   1.683   7.539   5.239 -0.8102  0.9646  3.2461
  221MOL0     H29149   1.853   7.519   5.306  2.1018 -3.0122 -2.3226
  221MOL0     H29150   1.640   7.337   5.385 -1.3442  2.3477  0.0721
  221MOL0     H29151   1.793   7.371   5.464  1.2726  1.3155  1.4469
  221MOL0     H29152   1.550   7.553   5.458 -1.0798 -0.0125  2.6275
  221MOL0     H29153   1.706   7.616   5.492  2.4407 -1.4828 -0.0454
  221MOL0     H29154   2.482   7.338   4.816  1.6272  1.7150 -1.7180
  221MOL0     H29155   2.725   7.394   4.859  0.7761 -1.1845  0.6193
  221MOL0     H29156   3.042   7.563   5.188  1.6864 -0.7731  0.0891
  221MOL0     H29157   3.264   7.629   5.170 -0.3521 -1.1882  0.0080
  221MOL0     H29158   4.751   8.459   4.255 -0.8535  4.8456 -1.1488
  221MOL0     H29159   4.948   8.374   4.135  0.1201 -2.1289  0.8867
  221MOL0     H29160   5.438   8.363   4.147 -1.8072 -1.4163 -0.7006
  221MOL0     H29161   5.677   8.332   4.035  2.8148  3.0903 -2.0259
  221MOL0     H29162   5.802   8.229   3.857  2.8888 -0.2204  0.2831
  221MOL0     H29163   5.861   8.361   3.948  1.8886  0.0115 -0.5263
  221MOL0     H29164   5.911   8.337   3.643  1.8452  1.6402 -0.7600
  221MOL0     H29165   5.990   8.448   3.749  0.6617 -0.3202  1.8956
  221MOL0     H29166   6.009   8.149   3.784 -1.5715  0.7849  1.2998
  221MOL0     H29167   6.074   8.287   3.882 -1.4663  1.1728  0.3848
  221MOL0     H29168   6.208   8.349   3.678 -2.4036  0.2534 -1.4203
  221MOL0     H29169   6.244   8.179   3.727  0.5409 -0.8312  0.4721
  221MOL0     H29170   6.024   8.161   3.357  1.7310  0.0047 -1.5247
  221MOL0     H29171   5.529   8.518   3.699  0.0464 -2.2299 -1.0514
  221MOL0     H29172   5.297   8.552   3.789  1.5051  3.5264 -0.3498
  222MOL0     O29173   6.626   3.475   3.150 -0.0637 -0.7217 -0.0754
  222MOL0     C29174   6.688   3.578   3.133  0.3661 -0.0181  0.1936
  222MOL0     O29175   6.637   3.702   3.162 -0.7240 -0.0900 -0.1156
  222MOL0     C29176   6.502   3.718   3.182  0.1971  0.0539  0.7554
  222MOL0     C29177   6.424   3.649   3.278 -0.5140 -0.4119 -0.4654
  222MOL0     C29178   6.294   3.688   3.314  0.3032  0.2405  0.1554
  222MOL0     C29179   6.230   3.794   3.229 -0.0988 -0.1743 -0.1225
  222MOL0     O29180   6.099   3.837   3.229 -0.2364 -0.2967 -0.4744
  222MOL0     C29181   6.024   3.803   3.342 -0.3666  0.2991 -0.0133
  222MOL0     C29182   5.916   3.907   3.361 -0.4588  0.1521 -0.2368
  222MOL0     C29183   5.835   3.862   3.493 -0.5290 -0.0088 -0.7333
  222MOL0     C29184   5.744   3.975   3.520 -0.2304  0.1168 -0.1883
  222MOL0     C29185   5.663   3.954   3.645 -0.6978  0.1872 -0.4103
  222MOL0     C29186   5.539   4.050   3.643  0.9599 -0.4876  0.3772
  222MOL0     C29187   5.589   4.196   3.631  0.3148  0.3478  0.3396
  222MOL0     C29188   5.477   4.291   3.658 -0.2176  0.5951 -0.4173
  222MOL0     N29189   5.520   4.432   3.652 -0.3219  0.6572 -0.0048
  222MOL0     C29190   5.627   4.483   3.721 -0.0212 -0.0042 -0.2017
  222MOL0     C29191   5.625   4.616   3.690  0.2210 -0.3963 -0.3373
  222MOL0     C29192   5.714   4.731   3.747 -0.2107 -0.0309 -0.2461
  222MOL0     C29193   5.857   4.688   3.750 -0.6535 -0.0409 -0.2378
  222MOL0     C29194   5.933   4.802   3.828  0.1493  0.1306  0.9192
  222MOL0     C29195   6.078   4.812   3.782 -0.0157 -0.4536 -0.0063
  222MOL0     O29196   6.097   4.807   3.640  0.3467  0.7418  0.1974
  222MOL0     C29197   6.215   4.857   3.587  0.3393 -0.2882 -0.4059
  222MOL0     C29198   6.339   4.863   3.659  0.2111  0.8854 -0.0936
  222MOL0     C29199   6.461   4.885   3.590  0.1639  0.3709 -0.0972
  222MOL0     C29200   6.463   4.935   3.467  0.0824 -0.0340 -0.8209
  222MOL0     C29201   6.599   4.957   3.404  0.4047 -0.2883  0.0382
  222MOL0     O29202   6.705   4.971   3.489  0.1712 -0.7070  0.5295
  222MOL0     C29203   6.818   5.032   3.433  0.5822 -0.6479 -0.5695
  222MOL0     C29204   6.810   5.166   3.391 -1.4256  0.1665 -0.1398
  222MOL0     C29205   6.929   5.235   3.346  0.4657  0.0740 -0.5864
  222MOL0     C29206   7.048   5.161   3.343 -0.6262 -0.5798  0.3602
  222MOL0     O29207   7.153   5.237   3.287  0.1071  0.0543  0.0423
  222MOL0     C29208   7.277   5.173   3.234  0.2008  0.9238 -0.4948
  222MOL0     C29209   7.378   5.133   3.341 -1.0654  0.0340 -0.0789
  222MOL0     C29210   7.504   5.044   3.291 -0.9485  0.4501  0.2485
  222MOL0     C29211   7.595   4.999   3.410  0.8554 -1.0436  0.8132
  222MOL0     C29212   7.734   4.938   3.376 -0.3286  0.4526  0.1605
  222MOL0     C29213   7.723   4.843   3.261  0.3322 -0.3192 -0.3057
  222MOL0     C29214   7.865   4.789   3.219  0.2995  0.0081 -1.0203
  222MOL0     C29215   7.842   4.663   3.140  0.7888  0.4425  0.0819
  222MOL0    Cl29216   7.759   4.678   2.988  0.0780  0.2350  0.0290
  222MOL0     C29217   7.055   5.029   3.384  0.1268  0.2243  0.0942
  222MOL0     C29218   6.941   4.972   3.435 -0.7948  0.3958 -0.3090
  222MOL0     O29219   6.606   4.942   3.283  0.0399 -0.3707  0.4955
  222MOL0     C29220   6.344   4.926   3.393 -0.1780 -0.2480  0.2646
  222MOL0     C29221   6.216   4.891   3.449 -0.2740 -0.6232  0.8027
  222MOL0     N29222   5.533   4.636   3.591  0.9769 -0.4430 -0.9143
  222MOL0     N29223   5.472   4.528   3.573  0.0966  0.6342 -0.5938
  222MOL0     C29224   6.314   3.867   3.146  0.5769 -0.2540 -0.3466
  222MOL0     C29225   6.449   3.835   3.126 -0.4162  0.7946 -0.0898
  222MOL0     C29226   6.832   3.569   3.112 -0.3789 -0.3125  0.9477
  222MOL0     C29227   6.900   3.443   3.107 -0.5186 -0.2074 -0.4667
  222MOL0     C29228   7.044   3.442   3.110 -0.1161 -0.0301  0.6172
  222MOL0     C29229   7.124   3.560   3.087 -0.3585 -0.8977 -0.0263
  222MOL0     O29230   7.258   3.547   3.065  0.1848 -0.3789 -0.3639
  222MOL0     C29231   7.344   3.647   3.016  0.3693  0.6221 -0.5043
  222MOL0     C29232   7.475   3.580   2.961  1.1865  0.3674  0.1625
  222MOL0     C29233   7.595   3.662   2.960  0.3197 -1.0171  0.4113
  222MOL0     C29234   7.709   3.609   2.871  1.1870 -0.4009  0.6796
  222MOL0     C29235   7.830   3.679   2.905  0.3718 -0.5194  0.5893
  222MOL0     C29236   7.933   3.730   2.942  0.6649 -0.6752 -0.0284
  222MOL0     C29237   7.055   3.681   3.089  0.1811  0.8926  0.2907
  222MOL0     C29238   6.916   3.694   3.100  0.4857  0.0382  0.2425
  222MOL0     H29239   6.474   3.574   3.338 -0.1930  0.1216 -0.0619
  222MOL0     H29240   6.233   3.632   3.384  1.2565 -0.2764  0.5954
  222MOL0     H29241   6.084   3.802   3.434 -0.4103 -1.1131  0.0231
  222MOL0     H29242   5.975   3.707   3.324  3.1141 -1.5501 -0.5645
  222MOL0     H29243   5.845   3.896   3.279 -0.3446  0.7274 -0.4177
  222MOL0     H29244   5.950   4.011   3.367 -1.0314  0.2784  3.1305
  222MOL0     H29245   5.904   3.849   3.577 -1.2951  3.1775  0.5416
  222MOL0     H29246   5.778   3.770   3.474 -1.0217 -0.2036  1.4603
  222MOL0     H29247   5.802   4.068   3.531 -1.9024  1.3745 -1.4385
  222MOL0     H29248   5.676   3.983   3.435 -0.1489 -0.0894 -0.2738
  222MOL0     H29249   5.719   3.983   3.734 -1.4861  0.3969  0.0294
  222MOL0     H29250   5.624   3.853   3.656 -1.5216  0.6442  1.2092
  222MOL0     H29251   5.480   4.034   3.733  1.2670  0.8987  0.8455
  222MOL0     H29252   5.474   4.017   3.561  1.7910  2.8881 -1.8543
  222MOL0     H29253   5.668   4.220   3.703  0.2298  0.7810  0.2893
  222MOL0     H29254   5.627   4.215   3.530  0.4861 -1.7140 -0.0192
  222MOL0     H29255   5.432   4.275   3.757  1.6229  0.0681  0.3782
  222MOL0     H29256   5.394   4.280   3.587 -2.1135  3.9657  1.0273
  222MOL0     H29257   5.694   4.439   3.794  1.6362  0.0338 -1.6345
  222MOL0     H29258   5.685   4.756   3.850  0.4961 -2.2842  0.5684
  222MOL0     H29259   5.694   4.821   3.689 -0.1533 -0.0560 -0.3048
  222MOL0     H29260   5.897   4.664   3.651 -0.6474 -3.2432  0.4449
  222MOL0     H29261   5.867   4.592   3.802 -1.1079 -1.6554 -2.9302
  222MOL0     H29262   5.880   4.894   3.802  2.3358  0.7959 -1.6593
  222MOL0     H29263   5.918   4.791   3.936 -0.6806  1.0739  0.9140
  222MOL0     H29264   6.140   4.733   3.826  1.0260 -0.3002 -1.1382
  222MOL0     H29265   6.126   4.901   3.824 -0.7656  0.9997 -2.0663
  222MOL0     H29266   6.342   4.831   3.762  1.5840  0.8072 -0.1424
  222MOL0     H29267   6.548   4.863   3.652 -2.6732 -2.6330  3.3192
  222MOL0     H29268   6.723   5.231   3.398  0.4575  2.6959  1.6259
  222MOL0     H29269   6.932   5.336   3.307 -1.4056 -0.3646 -1.9697
  222MOL0     H29270   7.331   5.250   3.179  0.0348 -0.7449 -3.1954
  222MOL0     H29271   7.256   5.082   3.176  1.3143 -1.7512  2.9457
  222MOL0     H29272   7.324   5.079   3.420  3.4267 -2.8623  1.3997
  222MOL0     H29273   7.423   5.219   3.391 -1.8172 -0.6445  1.8540
  222MOL0     H29274   7.559   5.103   3.217  0.0576  0.0061  0.6242
  222MOL0     H29275   7.467   4.958   3.235  0.9736  2.6304 -5.0238
  222MOL0     H29276   7.604   5.081   3.482 -0.8854 -0.8009  0.7872
  222MOL0     H29277   7.544   4.920   3.465 -1.2399 -0.6118 -0.3801
  222MOL0     H29278   7.768   4.878   3.461 -1.1720 -0.3762 -0.0681
  222MOL0     H29279   7.798   5.024   3.355  0.1021 -0.0493 -0.5842
  222MOL0     H29280   7.676   4.897   3.178  0.9811 -0.1111 -0.5489
  222MOL0     H29281   7.660   4.759   3.293 -0.2482  0.9003  1.9271
  222MOL0     H29282   7.920   4.859   3.155  2.6437  1.6776  2.5479
  222MOL0     H29283   7.926   4.756   3.303  0.5583 -1.5093 -1.7576
  222MOL0     H29284   7.784   4.592   3.199  1.9943 -0.7269 -0.0771
  222MOL0     H29285   7.936   4.609   3.122  0.4936 -0.3226  0.7773
  222MOL0     H29286   7.145   4.969   3.388  0.8370  1.3147  1.4356
  222MOL0     H29287   6.937   4.871   3.475 -2.7698 -0.1132 -1.6603
  222MOL0     H29288   6.353   4.956   3.289 -0.6590 -0.5182  0.1394
  222MOL0     H29289   6.135   4.894   3.377 -0.2777  0.6452  0.8375
  222MOL0     H29290   6.280   3.957   3.096  0.3003 -0.7791 -1.1148
  222MOL0     H29291   6.513   3.897   3.065 -1.8230  1.1635 -1.2442
  222MOL0     H29292   6.840   3.354   3.119 -0.8611  0.0420 -0.3198
  222MOL0     H29293   7.091   3.348   3.138 -4.0988 -2.6309 -0.6137
  222MOL0     H29294   7.377   3.706   3.102  0.6749 -1.6568  1.0142
  222MOL0     H29295   7.297   3.708   2.938  1.3313 -0.3321 -1.8623
  222MOL0     H29296   7.492   3.501   3.034 -1.5528  1.1608  1.7835
  222MOL0     H29297   7.460   3.540   2.860  2.5461  0.6414 -0.1704
  222MOL0     H29298   7.635   3.664   3.062  0.7053  0.9102  0.2535
  222MOL0     H29299   7.575   3.760   2.915 -0.8042 -1.1538  0.5829
  222MOL0     H29300   7.725   3.503   2.895 -1.2954 -0.7184  1.1670
  222MOL0     H29301   7.693   3.634   2.766  1.8829  2.3869  1.1678
  222MOL0     H29302   8.018   3.783   2.980  1.0111 -1.1251 -0.1666
  222MOL0     H29303   7.116   3.766   3.064 -0.0156  0.7228 -0.8517
  222MOL0     H29304   6.882   3.796   3.116 -2.2526 -1.1484  2.8851
  223MOL0     O29305   1.995   6.262  10.070 -0.1473 -0.7409  0.2289
  223MOL0     C29306   2.006   6.367  10.010 -0.0104  0.0415  0.0702
  223MOL0     O29307   1.913   6.426   9.922 -0.2826  0.2135  0.1139
  223MOL0     C29308   1.801   6.364   9.866 -0.2891 -0.3094  0.4750
  223MOL0     C29309   1.730   6.266   9.943 -0.1730  0.4755  0.3759
  223MOL0     C29310   1.617   6.204   9.888 -0.1168  0.3899  0.0671
  223MOL0     C29311   1.563   6.257   9.764 -0.4978 -0.0769 -0.3572
  223MOL0     O29312   1.436   6.208   9.717 -0.2673  0.3716  0.1522
  223MOL0     C29313   1.362   6.104   9.776  0.0819  0.4708 -0.0802
  223MOL0     C29314   1.225   6.106   9.711  0.2191  0.0946 -0.1635
  223MOL0     C29315   1.132   5.994   9.762  0.0172 -0.0564 -0.3496
  223MOL0     C29316   1.020   5.950   9.669 -0.7035  0.4370 -0.1650
  223MOL0     C29317   0.925   6.063   9.612  0.6217  0.2462  0.2395
  223MOL0     C29318   0.802   6.016   9.540 -0.4850  0.0663  0.1822
  223MOL0     C29319   0.722   6.122   9.450 -0.8283  0.6375 -0.4092
  223MOL0     C29320   0.602   6.078   9.378  0.0671  0.0374 -0.1739
  223MOL0     N29321   0.528   6.188   9.320  0.2009  0.4451  0.4390
  223MOL0     C29322   0.424   6.256   9.381  0.2651 -0.6557 -0.1164
  223MOL0     C29323   0.399   6.356   9.294  0.6339 -0.1572  0.1648
  223MOL0     C29324   0.285   6.451   9.311  0.6202 -0.8369 -0.8249
  223MOL0     C29325   0.156   6.369   9.277 -0.7207  0.3885  0.0361
  223MOL0     C29326   0.026   6.441   9.331  1.3015  0.2926  0.5428
  223MOL0     C29327  -0.095   6.396   9.246 -0.5181  0.0080  0.3973
  223MOL0     O29328  -0.221   6.458   9.292  0.3029  0.5770 -0.2487
  223MOL0     C29329  -0.336   6.437   9.219  1.0368  0.2601  0.2509
  223MOL0     C29330  -0.347   6.330   9.122 -1.0520  0.2152  0.5263
  223MOL0     C29331  -0.472   6.327   9.053 -0.8358  1.0242 -0.1623
  223MOL0     C29332  -0.572   6.413   9.076 -0.0699  0.0790  0.0617
  223MOL0     C29333  -0.695   6.413   8.993 -0.6802  0.4822 -0.0189
  223MOL0     O29334  -0.727   6.303   8.921  0.4529 -0.1168  0.1912
  223MOL0     C29335  -0.865   6.283   8.918  0.9865 -0.6175  0.7408
  223MOL0     C29336  -0.943   6.343   8.816 -0.3220 -1.1046 -0.7297
  223MOL0     C29337  -1.081   6.315   8.798 -0.2889 -1.2590 -0.7683
  223MOL0     C29338  -1.135   6.212   8.870  0.5505 -0.0002  0.1061
  223MOL0     O29339  -1.266   6.191   8.860 -0.6233 -0.1767  0.0079
  223MOL0     C29340  -1.325   6.136   8.742 -0.2565 -0.7514 -0.3430
  223MOL0     C29341  -1.263   5.994   8.716 -0.2685  0.5123 -0.1152
  223MOL0     C29342  -1.309   5.883   8.815  0.3748 -0.3706 -0.8760
  223MOL0     C29343  -1.220   5.753   8.822 -0.0082  0.0346 -0.7166
  223MOL0     C29344  -1.238   5.665   8.949 -0.2763  0.3217 -0.3161
  223MOL0     C29345  -1.385   5.645   8.984  0.6058 -1.1866 -0.3079
  223MOL0     C29346  -1.417   5.554   9.098 -1.0877  0.3126  0.0712
  223MOL0     C29347  -1.392   5.409   9.053 -0.2367 -0.8212 -0.4561
  223MOL0    Cl29348  -1.488   5.306   9.158  0.0602  0.0936  0.5982
  223MOL0     C29349  -1.049   6.145   8.963  0.4225 -0.7666 -0.4530
  223MOL0     C29350  -0.922   6.177   8.991  0.6155 -1.1147 -0.1962
  223MOL0     O29351  -0.762   6.517   8.992  0.0327  0.7929  0.0505
  223MOL0     C29352  -0.560   6.514   9.173  0.3604  0.2191 -0.7626
  223MOL0     C29353  -0.441   6.526   9.241 -0.1557 -0.5283 -0.1456
  223MOL0     N29354   0.488   6.353   9.187 -0.2742 -0.3750 -0.3361
  223MOL0     N29355   0.564   6.255   9.206 -0.5455  0.1079  0.0652
  223MOL0     C29356   1.638   6.348   9.691 -0.2421 -0.3095 -0.2831
  223MOL0     C29357   1.758   6.398   9.738  0.0683 -0.3922 -0.5946
  223MOL0     C29358   2.144   6.434  10.020  0.1410 -0.5411  0.6554
  223MOL0     C29359   2.177   6.542   9.942 -0.0984  0.3117  0.4769
  223MOL0     C29360   2.303   6.596   9.938 -0.1089 -0.2136 -0.0409
  223MOL0     C29361   2.397   6.544  10.022  0.0933  0.2920  0.4836
  223MOL0     O29362   2.514   6.619  10.010  0.1838 -0.7010  0.0524
  223MOL0     C29363   2.634   6.546  10.045 -0.1822  0.0894  0.4521
  223MOL0     C29364   2.748   6.598   9.954  0.2745  0.7204 -0.4755
  223MOL0     C29365   2.891   6.539   9.979  0.5074 -0.4566  0.5672
  223MOL0     C29366   2.966   6.633  10.080  0.3816 -0.0764  0.3414
  223MOL0     C29367   3.080   6.576  10.152  0.1557  0.8998 -0.8100
  223MOL0     C29368   3.178   6.531  10.209  0.4910 -0.6825 -0.3835
  223MOL0     C29369   2.368   6.435  10.108 -0.2008  0.2379 -0.5197
  223MOL0     C29370   2.237   6.377  10.106 -0.3842 -0.2824 -0.8217
  223MOL0     H29371   1.750   6.248  10.048 -2.5834  0.2200  0.8569
  223MOL0     H29372   1.561   6.123   9.935  0.1637 -1.4856 -2.6162
  223MOL0     H29373   1.347   6.105   9.885 -2.3805 -0.5533 -0.3277
  223MOL0     H29374   1.407   6.008   9.751 -2.9664 -1.8458  2.4709
  223MOL0     H29375   1.231   6.100   9.602 -2.1161  2.4316 -0.5147
  223MOL0     H29376   1.178   6.204   9.726  0.2185  0.1253 -0.3513
  223MOL0     H29377   1.091   6.031   9.856  2.2895 -2.5658  1.8142
  223MOL0     H29378   1.194   5.907   9.787 -0.0132  0.2019  0.6838
  223MOL0     H29379   1.058   5.901   9.579 -0.2193 -1.5627  1.0826
  223MOL0     H29380   0.965   5.875   9.727  1.5690 -1.7771 -0.7144
  223MOL0     H29381   0.975   6.121   9.534  0.5164 -1.0618 -0.8201
  223MOL0     H29382   0.888   6.125   9.695  1.4525  0.6920  0.2812
  223MOL0     H29383   0.739   5.976   9.620 -2.9955 -0.4365 -1.9417
  223MOL0     H29384   0.841   5.938   9.474 -2.1065  0.4954 -1.3460
  223MOL0     H29385   0.695   6.200   9.522 -1.0370 -0.9254  1.2585
  223MOL0     H29386   0.794   6.162   9.378 -0.6805  0.3133 -0.4452
  223MOL0     H29387   0.541   6.024   9.452  1.1463  0.1175  0.8028
  223MOL0     H29388   0.636   6.007   9.302  1.0363 -0.9480  1.1050
  223MOL0     H29389   0.369   6.222   9.468 -0.8408  0.4374 -0.3611
  223MOL0     H29390   0.291   6.537   9.242 -1.5509  1.1884  1.2933
  223MOL0     H29391   0.271   6.494   9.411  0.5495 -4.1106  0.6739
  223MOL0     H29392   0.156   6.267   9.316 -1.1009 -0.6252 -2.4290
  223MOL0     H29393   0.160   6.367   9.168 -0.4958  1.3433  0.0195
  223MOL0     H29394   0.021   6.409   9.436 -0.1860  0.1501  0.4459
  223MOL0     H29395   0.033   6.550   9.325  0.6549  0.3177  0.2060
  223MOL0     H29396  -0.101   6.287   9.243 -0.9188  0.0550 -1.7508
  223MOL0     H29397  -0.068   6.422   9.143 -1.0415  0.1078  0.2792
  223MOL0     H29398  -0.261   6.266   9.102  1.5349  3.9159 -1.4333
  223MOL0     H29399  -0.474   6.249   8.978 -1.4340 -1.2100  2.0569
  223MOL0     H29400  -0.897   6.423   8.759  0.0273  0.1550  1.2138
  223MOL0     H29401  -1.138   6.369   8.724 -0.7649  1.7970  1.6380
  223MOL0     H29402  -1.307   6.205   8.659 -2.7383  1.6209  0.9268
  223MOL0     H29403  -1.432   6.143   8.764  0.1398  4.7828  1.4037
  223MOL0     H29404  -1.154   6.001   8.729 -0.3560 -1.4685  2.3832
  223MOL0     H29405  -1.296   5.968   8.615 -2.0971  1.4693  0.2064
  223MOL0     H29406  -1.411   5.865   8.780 -0.4596  0.9433  0.7221
  223MOL0     H29407  -1.318   5.924   8.916  1.2559 -1.1594 -0.4637
  223MOL0     H29408  -1.246   5.688   8.738 -3.0387  1.3534 -0.9082
  223MOL0     H29409  -1.115   5.786   8.817  0.5400 -1.5278 -0.2880
  223MOL0     H29410  -1.177   5.707   9.030  0.3234 -3.1264  1.2097
  223MOL0     H29411  -1.189   5.572   8.919  1.3512  2.1407 -3.9770
  223MOL0     H29412  -1.443   5.615   8.896 -0.3467  0.2813 -0.2078
  223MOL0     H29413  -1.436   5.734   9.021 -5.2959 -3.0056 -2.8289
  223MOL0     H29414  -1.358   5.575   9.187  1.6801  0.0824 -1.6006
  223MOL0     H29415  -1.524   5.570   9.116 -1.1223  1.1790 -0.7958
  223MOL0     H29416  -1.284   5.388   9.051  0.7652  3.3897 -1.4264
  223MOL0     H29417  -1.422   5.396   8.949  1.9659 -1.6637 -1.0454
  223MOL0     H29418  -1.091   6.073   9.033 -0.2386  2.0200  2.2604
  223MOL0     H29419  -0.861   6.128   9.066  2.1310 -0.7149 -1.1269
  223MOL0     H29420  -0.649   6.572   9.192 -1.1861 -1.4525 -2.5588
  223MOL0     H29421  -0.425   6.608   9.310 -3.6853  1.9863 -2.0010
  223MOL0     H29422   1.602   6.381   9.594  2.2106  0.0629 -1.1229
  223MOL0     H29423   1.785   6.496   9.699 -1.5640  1.1225  1.8011
  223MOL0     H29424   2.107   6.583   9.870  1.6841 -1.7112 -2.6297
  223MOL0     H29425   2.340   6.678   9.878  0.9574  0.9508  2.0956
  223MOL0     H29426   2.617   6.439  10.030  0.5390  0.1299 -0.8099
  223MOL0     H29427   2.650   6.562  10.152  0.6452  0.7535  0.2386
  223MOL0     H29428   2.715   6.553   9.859 -0.6018 -0.7514  0.4779
  223MOL0     H29429   2.753   6.707   9.946 -0.6583  1.0840  2.6171
  223MOL0     H29430   2.945   6.547   9.884 -1.8160  2.1198 -0.6582
  223MOL0     H29431   2.888   6.433  10.007 -0.1486 -1.1483 -1.9314
  223MOL0     H29432   3.000   6.715  10.016 -2.0327 -1.4552 -3.0007
  223MOL0     H29433   2.894   6.666  10.155  2.3462 -0.2954  2.4598
  223MOL0     H29434   3.268   6.488  10.250  1.0489  0.3142 -0.5329
  223MOL0     H29435   2.450   6.402  10.170 -1.6258 -0.9254  0.8592
  223MOL0     H29436   2.218   6.284  10.160 -0.6445  0.0209 -0.3855
  224MOL0     O29437   5.966   3.291   0.265 -0.0544  0.2002 -0.3943
  224MOL0     C29438   5.985   3.335   0.151  0.4072  0.2368  0.8241
  224MOL0     O29439   5.884   3.352   0.062  0.4979 -0.2867  1.0398
  224MOL0     C29440   5.764   3.279   0.069 -0.0164 -0.5767  0.0355
  224MOL0     C29441   5.648   3.342   0.013 -0.5979  0.2545  0.1374
  224MOL0     C29442   5.520   3.308   0.029  0.4111 -0.5547  0.1201
  224MOL0     C29443   5.487   3.181   0.093 -1.1797 -0.9255 -0.1502
  224MOL0     O29444   5.364   3.126   0.104  0.3898 -0.3911 -0.3473
  224MOL0     C29445   5.266   3.173   0.018  0.5861  0.4341 -0.8648
  224MOL0     C29446   5.132   3.120   0.045  0.0735  0.0589  0.3252
  224MOL0     C29447   5.029   3.184  -0.045  0.4606  0.8317 -0.0658
  224MOL0     C29448   4.882   3.145  -0.004 -0.2873 -0.2274 -0.4767
  224MOL0     C29449   4.791   3.197  -0.112 -0.8132 -0.2367 -0.6328
  224MOL0     C29450   4.646   3.188  -0.072  0.3972 -0.0174  0.9340
  224MOL0     C29451   4.551   3.209  -0.189 -0.3243  0.3414 -0.8367
  224MOL0     C29452   4.406   3.204  -0.139  0.3073  0.6324 -0.6525
  224MOL0     N29453   4.359   3.329  -0.087 -0.8166  0.1105  0.2213
  224MOL0     C29454   4.331   3.362   0.042  0.3526 -0.6467  0.2791
  224MOL0     C29455   4.234   3.465   0.035 -0.0340  1.0955  0.7042
  224MOL0     C29456   4.172   3.528   0.158 -1.0143  0.5377  0.3333
  224MOL0     C29457   4.130   3.675   0.129 -0.0218  0.0411 -0.4962
  224MOL0     C29458   4.059   3.745   0.249 -0.2274  0.3636  0.3197
  224MOL0     C29459   4.033   3.895   0.233  0.1808 -0.4692  0.3950
  224MOL0     O29460   3.970   3.945   0.352  1.0455  0.2737  0.2121
  224MOL0     C29461   3.835   3.942   0.362 -0.0141  1.0984 -0.1103
  224MOL0     C29462   3.781   3.998   0.481 -0.1312 -0.3342  0.9266
  224MOL0     C29463   3.641   4.010   0.490  0.4957  0.0742 -0.5441
  224MOL0     C29464   3.556   3.960   0.387 -0.3608 -0.7508  0.5380
  224MOL0     C29465   3.420   3.991   0.380  0.6687  0.5596  0.1340
  224MOL0     O29466   3.372   4.049   0.503 -0.0144  0.6511  0.8018
  224MOL0     C29467   3.249   4.110   0.512  0.1701  0.5384  0.9712
  224MOL0     C29468   3.254   4.242   0.467  0.2095  0.5361  0.2351
  224MOL0     C29469   3.138   4.318   0.457 -0.3061 -0.5015 -0.3758
  224MOL0     C29470   3.018   4.274   0.498  0.7765 -0.0696 -0.4648
  224MOL0     O29471   2.899   4.345   0.478 -0.0680 -0.7609 -0.8605
  224MOL0     C29472   2.790   4.332   0.572  0.3287  0.3739 -0.0607
  224MOL0     C29473   2.668   4.403   0.505 -0.1606 -0.5393  0.0990
  224MOL0     C29474   2.533   4.394   0.572  0.3614 -0.8075 -0.0724
  224MOL0     C29475   2.427   4.489   0.504 -0.2352 -0.2845 -0.0022
  224MOL0     C29476   2.294   4.493   0.581  0.2043 -0.8501  0.4185
  224MOL0     C29477   2.297   4.610   0.687 -1.0009  0.2025  0.5071
  224MOL0     C29478   2.159   4.637   0.751  0.7739 -0.2866  0.0129
  224MOL0     C29479   2.127   4.775   0.808 -0.0597 -0.1619 -0.8357
  224MOL0    Cl29480   2.252   4.823   0.938 -0.0312 -0.1631 -0.1020
  224MOL0     C29481   3.014   4.131   0.531 -0.5088 -0.9955  0.6939
  224MOL0     C29482   3.129   4.054   0.543  0.3282 -0.2226  0.8979
  224MOL0     O29483   3.359   4.002   0.274 -0.9438 -0.0144  0.4012
  224MOL0     C29484   3.612   3.902   0.275 -0.8227  0.3724 -0.3971
  224MOL0     C29485   3.752   3.888   0.260  0.9855  0.3300  0.2794
  224MOL0     N29486   4.218   3.500  -0.098  0.5798  0.2020 -0.0342
  224MOL0     N29487   4.289   3.418  -0.165  0.2963 -0.3382  0.3349
  224MOL0     C29488   5.593   3.119   0.163  0.0621 -0.4472 -0.1055
  224MOL0     C29489   5.724   3.173   0.151 -0.5910 -0.5579  0.0205
  224MOL0     C29490   6.121   3.371   0.104  0.4549 -0.7464  1.0489
  224MOL0     C29491   6.237   3.348   0.175 -0.8757 -1.4869  0.8882
  224MOL0     C29492   6.360   3.397   0.121 -0.1414 -0.4418  0.4649
  224MOL0     C29493   6.368   3.444  -0.010  0.3462  0.1568 -0.4367
  224MOL0     O29494   6.491   3.455  -0.078  0.0297 -0.2192 -0.8952
  224MOL0     C29495   6.526   3.586  -0.119  0.4135  0.2867  0.1069
  224MOL0     C29496   6.592   3.678  -0.016  0.2493  0.3006  0.7211
  224MOL0     C29497   6.738   3.654   0.005 -0.7532  0.0497  0.5896
  224MOL0     C29498   6.757   3.519   0.078 -0.4842 -0.5376  0.0272
  224MOL0     C29499   6.893   3.509   0.134  0.5849  0.7122 -0.7589
  224MOL0     C29500   6.998   3.498   0.188 -0.8402 -0.1694 -0.1509
  224MOL0     C29501   6.255   3.469  -0.081  0.5850 -0.0524  0.1408
  224MOL0     C29502   6.128   3.439  -0.019 -0.1770  0.0614 -0.3733
  224MOL0     H29503   5.668   3.431  -0.046  2.6326 -1.5064 -1.6863
  224MOL0     H29504   5.444   3.380  -0.001  1.1337  0.7009  1.2015
  224MOL0     H29505   5.294   3.146  -0.084 -0.4856  0.1516 -1.0953
  224MOL0     H29506   5.245   3.280   0.030 -0.3507  0.1245  0.4948
  224MOL0     H29507   5.106   3.144   0.148 -0.9638  0.7782 -0.0877
  224MOL0     H29508   5.142   3.011   0.045  0.7662  0.1217  0.6328
  224MOL0     H29509   5.040   3.138  -0.144  1.1106  2.1641 -0.6439
  224MOL0     H29510   5.041   3.292  -0.051 -0.0958  0.8847 -0.3309
  224MOL0     H29511   4.869   3.038   0.016  0.8407  0.0287  2.0155
  224MOL0     H29512   4.864   3.187   0.096  3.8178 -1.4632  0.9905
  224MOL0     H29513   4.802   3.149  -0.210 -1.0617 -1.0226 -0.2845
  224MOL0     H29514   4.819   3.302  -0.127  2.6285 -0.5385  2.2383
  224MOL0     H29515   4.636   3.272  -0.002 -0.6523  0.8107 -0.1653
  224MOL0     H29516   4.635   3.093  -0.020  2.2415  0.2509  1.9013
  224MOL0     H29517   4.561   3.306  -0.239 -3.1005  2.5797  2.4196
  224MOL0     H29518   4.573   3.135  -0.266 -0.6518  1.8428 -2.4268
  224MOL0     H29519   4.390   3.137  -0.054 -1.1280  1.5591 -0.1586
  224MOL0     H29520   4.343   3.176  -0.224  0.8178 -1.4217 -0.4211
  224MOL0     H29521   4.370   3.316   0.133  2.4583 -1.9830 -1.2227
  224MOL0     H29522   4.243   3.530   0.240 -0.0753 -1.3818 -0.3932
  224MOL0     H29523   4.083   3.473   0.188 -1.8678 -0.0987 -2.9266
  224MOL0     H29524   4.063   3.665   0.043 -1.3460  1.0868  0.3853
  224MOL0     H29525   4.221   3.727   0.098 -0.4075 -0.4140 -2.5952
  224MOL0     H29526   3.963   3.692   0.255  0.4960 -1.4639 -2.2338
  224MOL0     H29527   4.109   3.715   0.341 -2.2160 -0.9038  1.0622
  224MOL0     H29528   3.971   3.916   0.145  2.3646  5.0140 -0.2110
  224MOL0     H29529   4.123   3.955   0.219 -0.3341 -0.3469 -3.1966
  224MOL0     H29530   3.844   4.039   0.559 -0.7048 -0.0965  1.2732
  224MOL0     H29531   3.597   4.067   0.571 -2.1635 -3.7270  1.0194
  224MOL0     H29532   3.338   4.271   0.405  0.8317  0.0604  0.8378
  224MOL0     H29533   3.147   4.405   0.392  1.6290  0.0044  0.5114
  224MOL0     H29534   2.804   4.377   0.671 -0.2972 -2.1395  1.2533
  224MOL0     H29535   2.770   4.226   0.588 -0.1306  0.5871  0.8050
  224MOL0     H29536   2.667   4.377   0.399 -2.2604 -0.2564 -0.0028
  224MOL0     H29537   2.703   4.506   0.495 -0.0434 -0.7312 -1.8559
  224MOL0     H29538   2.541   4.420   0.678 -0.2316  1.0169 -0.4557
  224MOL0     H29539   2.504   4.288   0.570  2.1090 -1.3183 -1.3805
  224MOL0     H29540   2.466   4.591   0.498 -3.2686  1.0444  0.7574
  224MOL0     H29541   2.419   4.467   0.397 -2.0648  1.2605 -0.2457
  224MOL0     H29542   2.276   4.394   0.624  1.4434 -1.2553  0.0425
  224MOL0     H29543   2.217   4.513   0.505  2.3866 -3.7535 -2.8619
  224MOL0     H29544   2.336   4.701   0.641  1.7297 -1.5894 -1.0127
  224MOL0     H29545   2.372   4.583   0.762 -0.5619 -1.6709 -0.5539
  224MOL0     H29546   2.083   4.627   0.672 -2.4541  2.4750  2.4894
  224MOL0     H29547   2.147   4.557   0.825  1.7312  1.0662  1.7073
  224MOL0     H29548   2.026   4.785   0.849  1.4288  0.7325  3.0436
  224MOL0     H29549   2.142   4.839   0.720 -0.3613 -0.9858 -1.5089
  224MOL0     H29550   2.923   4.076   0.553 -0.7022 -1.4598 -1.0946
  224MOL0     H29551   3.137   3.948   0.567  1.6916 -0.2399  0.4738
  224MOL0     H29552   3.555   3.872   0.188  0.1779  0.7499 -1.1948
  224MOL0     H29553   3.779   3.841   0.165 -2.0088 -1.9847  0.4066
  224MOL0     H29554   5.544   3.034   0.210 -4.0633  1.9820  0.4076
  224MOL0     H29555   5.801   3.126   0.212  0.2479 -1.5210 -1.7111
  224MOL0     H29556   6.234   3.304   0.275 -1.2232 -0.5825  1.2909
  224MOL0     H29557   6.453   3.391   0.177  0.4993  1.5234 -0.3145
  224MOL0     H29558   6.440   3.644  -0.156 -0.1551  0.1474  1.1620
  224MOL0     H29559   6.588   3.575  -0.209  0.2620  0.0956  0.0248
  224MOL0     H29560   6.574   3.783  -0.041 -1.4762 -0.2739 -0.6061
  224MOL0     H29561   6.547   3.652   0.080  0.1744 -1.5863  0.2212
  224MOL0     H29562   6.760   3.731   0.078 -1.6617 -0.6773  1.6662
  224MOL0     H29563   6.799   3.663  -0.086 -0.4736  1.9735  0.9330
  224MOL0     H29564   6.680   3.517   0.156  0.3742  2.7998  1.1500
  224MOL0     H29565   6.736   3.432   0.015 -4.2616  0.1004  0.1492
  224MOL0     H29566   7.093   3.496   0.236 -0.2392  1.0051 -1.2106
  224MOL0     H29567   6.266   3.509  -0.181  4.4933 -0.7384  0.1609
  224MOL0     H29568   6.043   3.476  -0.076 -0.4976 -0.0823  0.0112
  225MOL0     O29569   2.873   7.934   2.994 -0.1437  0.3079 -0.3679
  225MOL0     C29570   2.852   8.052   2.967  0.5076  0.3637  0.3461
  225MOL0     O29571   2.727   8.106   2.936  0.7010  0.1243  0.3079
  225MOL0     C29572   2.602   8.035   2.928  0.1670  0.1434  0.0295
  225MOL0     C29573   2.584   7.891   2.916  0.3454  0.4894 -0.8455
  225MOL0     C29574   2.454   7.835   2.926  0.7453 -0.1269  0.2929
  225MOL0     C29575   2.345   7.919   2.925  0.0589 -0.2251  0.9790
  225MOL0     O29576   2.228   7.844   2.925 -0.4979  0.0496  0.7491
  225MOL0     C29577   2.102   7.912   2.927  0.5060 -0.3503  0.4308
  225MOL0     C29578   1.996   7.809   2.971 -0.2047 -0.2113 -0.0274
  225MOL0     C29579   2.004   7.794   3.123  0.4517  0.7322 -1.3304
  225MOL0     C29580   1.893   7.696   3.162  0.9927  0.4339  0.4256
  225MOL0     C29581   1.760   7.771   3.200 -1.0848 -0.3627 -0.0982
  225MOL0     C29582   1.669   7.693   3.287  0.0977 -0.4470  0.4860
  225MOL0     C29583   1.615   7.567   3.212  0.3439  0.5645  0.8181
  225MOL0     C29584   1.544   7.475   3.316  0.1728 -0.5219  0.8591
  225MOL0     N29585   1.460   7.379   3.247  0.2190  0.3851 -0.1636
  225MOL0     C29586   1.496   7.262   3.167 -0.1858  0.2891  0.1286
  225MOL0     C29587   1.393   7.184   3.173 -0.5160 -0.4053 -0.5860
  225MOL0     C29588   1.368   7.057   3.091  0.4104  0.3048  0.4360
  225MOL0     C29589   1.272   7.089   2.978 -0.1486 -0.3084  0.3965
  225MOL0     C29590   1.242   6.977   2.876 -0.0545 -0.1964 -0.3064
  225MOL0     C29591   1.094   6.970   2.842 -0.3841 -0.7791 -0.3142
  225MOL0     O29592   1.065   7.096   2.785  0.5396  0.4365  0.3444
  225MOL0     C29593   0.933   7.137   2.801 -1.0178 -0.7497 -0.6394
  225MOL0     C29594   0.896   7.204   2.916 -0.4074 -1.5403 -0.9693
  225MOL0     C29595   0.754   7.246   2.929 -0.5026 -0.0580 -0.9869
  225MOL0     C29596   0.662   7.219   2.830 -0.7699 -0.1796 -0.8301
  225MOL0     C29597   0.522   7.272   2.839 -0.9673  0.9967  0.9297
  225MOL0     O29598   0.447   7.265   2.721 -0.9726  0.4340 -0.7621
  225MOL0     C29599   0.314   7.294   2.743  0.0351 -0.1457 -0.5551
  225MOL0     C29600   0.234   7.209   2.816 -0.1964  0.1680 -0.0324
  225MOL0     C29601   0.097   7.229   2.835 -0.2833  0.2107  0.0127
  225MOL0     C29602   0.034   7.348   2.790 -0.0538  0.7466 -0.5355
  225MOL0     O29603  -0.100   7.379   2.814  0.5035  0.2496  0.4580
  225MOL0     C29604  -0.189   7.270   2.805 -0.7101  0.4696 -0.4737
  225MOL0     C29605  -0.330   7.323   2.790 -0.2101 -0.4285  0.3236
  225MOL0     C29606  -0.431   7.219   2.738 -0.2588 -0.7715 -0.1297
  225MOL0     C29607  -0.546   7.291   2.655 -0.2414  0.3247  0.0363
  225MOL0     C29608  -0.690   7.275   2.713  0.0284  0.0744  0.6545
  225MOL0     C29609  -0.780   7.366   2.627 -0.9780 -0.2241  0.6975
  225MOL0     C29610  -0.928   7.332   2.629 -0.5519  0.2818 -0.2587
  225MOL0     C29611  -0.981   7.325   2.767 -0.1804  0.0797 -0.3986
  225MOL0    Cl29612  -1.162   7.314   2.759 -0.0758  0.2850  0.4385
  225MOL0     C29613   0.120   7.436   2.721  0.4615 -0.6571  0.8672
  225MOL0     C29614   0.256   7.411   2.692  0.6771 -1.5403  0.2509
  225MOL0     O29615   0.490   7.322   2.946  0.5869  0.2754 -0.5288
  225MOL0     C29616   0.703   7.150   2.717  1.2193  0.2836 -0.0655
  225MOL0     C29617   0.844   7.110   2.712  0.4927 -0.2187  0.0911
  225MOL0     N29618   1.295   7.247   3.245  0.0483  0.3718 -0.2070
  225MOL0     N29619   1.330   7.367   3.277  0.8578  0.5329  0.5300
  225MOL0     C29620   2.361   8.057   2.940  0.8395  1.1155  0.0307
  225MOL0     C29621   2.484   8.117   2.941 -0.7312  0.2223 -0.2221
  225MOL0     C29622   2.966   8.138   2.972 -0.0167  0.6171  0.1458
  225MOL0     C29623   3.089   8.083   2.999 -0.8116  0.3922 -0.8545
  225MOL0     C29624   3.197   8.179   3.014  0.6060 -0.3123  0.1701
  225MOL0     C29625   3.186   8.319   2.990 -0.7918  0.2794 -0.3028
  225MOL0     O29626   3.297   8.411   2.996  0.1252  0.8803 -0.3415
  225MOL0     C29627   3.427   8.351   2.995 -0.7741 -0.3282  0.4510
  225MOL0     C29628   3.540   8.457   2.985  0.1420 -0.2407  0.3191
  225MOL0     C29629   3.562   8.525   2.849  0.6576 -0.2390  0.1784
  225MOL0     C29630   3.443   8.608   2.794  0.7855 -0.6196  0.1823
  225MOL0     C29631   3.482   8.651   2.659  0.0053 -0.3988 -0.9918
  225MOL0     C29632   3.497   8.698   2.546  0.5672  0.3908 -1.0504
  225MOL0     C29633   3.063   8.368   2.959 -0.6294  0.2525  0.5957
  225MOL0     C29634   2.956   8.282   2.957  0.3721  0.4105 -0.6265
  225MOL0     H29635   2.667   7.825   2.897 -1.1884 -1.3098 -1.6130
  225MOL0     H29636   2.431   7.730   2.913  1.4888 -0.7551  3.2903
  225MOL0     H29637   2.075   7.948   2.828 -0.7606 -1.1655  0.4488
  225MOL0     H29638   2.108   8.000   2.991  2.2366  0.7360 -1.1358
  225MOL0     H29639   2.002   7.715   2.914 -2.4344  1.1046 -2.6682
  225MOL0     H29640   1.898   7.846   2.942 -0.2178 -0.3641 -0.1826
  225MOL0     H29641   1.997   7.887   3.181  0.7482  0.0827 -0.2336
  225MOL0     H29642   2.102   7.761   3.159 -0.3250  0.6310  0.7635
  225MOL0     H29643   1.875   7.637   3.071  2.1997  1.1502 -0.3084
  225MOL0     H29644   1.920   7.631   3.246  0.4226  1.1598  1.1824
  225MOL0     H29645   1.706   7.802   3.110 -1.8069  0.0457  0.4618
  225MOL0     H29646   1.797   7.856   3.258  2.5417 -0.7594 -1.5644
  225MOL0     H29647   1.584   7.757   3.311 -0.4225 -0.5978 -0.8625
  225MOL0     H29648   1.721   7.669   3.380  1.2363  1.5684  0.4346
  225MOL0     H29649   1.551   7.587   3.126 -1.1449 -2.2759  1.1325
  225MOL0     H29650   1.694   7.507   3.165  0.0838  1.4349 -0.7953
  225MOL0     H29651   1.493   7.541   3.387 -2.0178  1.2972 -2.1983
  225MOL0     H29652   1.623   7.416   3.364 -2.1204 -2.9400  1.8872
  225MOL0     H29653   1.596   7.241   3.129 -0.5570 -0.1124 -0.6414
  225MOL0     H29654   1.333   6.977   3.156 -1.1409 -1.4733 -2.4050
  225MOL0     H29655   1.467   7.029   3.055 -0.0650  0.8178 -1.3675
  225MOL0     H29656   1.303   7.179   2.924 -0.1410 -0.7585 -0.3673
  225MOL0     H29657   1.177   7.112   3.027 -1.1875 -5.4397  1.3409
  225MOL0     H29658   1.296   6.985   2.781  3.1212  0.2355  1.3947
  225MOL0     H29659   1.258   6.882   2.927  0.7563  0.1208  0.0419
  225MOL0     H29660   1.032   6.949   2.930  0.7202 -0.4221  0.5775
  225MOL0     H29661   1.068   6.890   2.773  3.8651 -1.0257 -1.8929
  225MOL0     H29662   0.968   7.242   2.987 -1.7593 -1.3616  0.3589
  225MOL0     H29663   0.722   7.302   3.017 -1.4787 -3.0647  0.7163
  225MOL0     H29664   0.274   7.114   2.851 -1.7978 -0.5152  0.0141
  225MOL0     H29665   0.049   7.144   2.884  1.9769  0.0311  2.0644
  225MOL0     H29666  -0.185   7.208   2.895 -0.3016 -0.1839 -0.9291
  225MOL0     H29667  -0.158   7.205   2.723 -2.2861 -0.7945 -0.1037
  225MOL0     H29668  -0.329   7.402   2.715 -0.6990 -1.4078 -0.7423
  225MOL0     H29669  -0.362   7.363   2.887  3.3277  1.9024  0.7181
  225MOL0     H29670  -0.468   7.151   2.815 -1.6446  0.1024  0.0011
  225MOL0     H29671  -0.386   7.150   2.666 -1.0351  0.1024 -1.5113
  225MOL0     H29672  -0.517   7.395   2.640 -1.2135  0.3920 -1.8039
  225MOL0     H29673  -0.539   7.251   2.553  1.1163  0.4442  0.0610
  225MOL0     H29674  -0.698   7.306   2.817 -2.8563  3.2047 -0.3108
  225MOL0     H29675  -0.710   7.169   2.695 -0.5465  0.5316 -1.7735
  225MOL0     H29676  -0.750   7.357   2.522  1.3890  2.5288  1.0189
  225MOL0     H29677  -0.773   7.470   2.660 -5.7188  0.7937 -0.6465
  225MOL0     H29678  -0.976   7.417   2.579  1.7707  1.0984 -1.2548
  225MOL0     H29679  -0.963   7.246   2.570 -0.3945  0.6060 -0.8354
  225MOL0     H29680  -0.943   7.406   2.829 -0.4978 -1.0479  1.3327
  225MOL0     H29681  -0.936   7.232   2.804 -1.1003 -0.9735 -1.8022
  225MOL0     H29682   0.071   7.522   2.677  1.2183 -0.9656 -0.6638
  225MOL0     H29683   0.322   7.473   2.633 -0.8055  0.0782  0.1937
  225MOL0     H29684   0.632   7.125   2.639  0.0394 -1.7447  1.5368
  225MOL0     H29685   0.880   7.055   2.625 -0.5566  2.3968 -2.1570
  225MOL0     H29686   2.279   8.126   2.956  2.8618  3.6149  0.2414
  225MOL0     H29687   2.472   8.224   2.940 -0.9904  0.2041 -1.7315
  225MOL0     H29688   3.118   7.982   3.027  0.7268  0.8540 -0.7077
  225MOL0     H29689   3.297   8.144   3.036 -0.2945 -2.0146  1.8355
  225MOL0     H29690   3.437   8.278   2.915  0.6773  0.4974 -0.1541
  225MOL0     H29691   3.466   8.313   3.090  4.1355  3.9513  0.6178
  225MOL0     H29692   3.520   8.533   3.062  0.6690  0.7756 -0.5245
  225MOL0     H29693   3.635   8.414   3.016  0.7398 -1.4388 -2.8900
  225MOL0     H29694   3.583   8.441   2.782  0.9942 -2.5493  2.9954
  225MOL0     H29695   3.648   8.591   2.862 -0.0492  0.8878 -0.6465
  225MOL0     H29696   3.351   8.549   2.788 -1.0597  2.0792  0.4050
  225MOL0     H29697   3.434   8.698   2.855  2.6972 -1.8742  2.4651
  225MOL0     H29698   3.484   8.745   2.450 -1.2075 -0.2218 -1.1485
  225MOL0     H29699   3.065   8.476   2.952  2.5072  0.4858  2.9871
  225MOL0     H29700   2.861   8.330   2.936 -0.4902  0.0849  2.1459
  226MOL0     O29701   9.751   1.758   5.643 -1.2439 -0.1812  0.3256
  226MOL0     C29702   9.772   1.822   5.745  0.1964  0.0115 -0.7699
  226MOL0     O29703   9.676   1.849   5.843 -0.1745 -0.5130  0.8354
  226MOL0     C29704   9.553   1.791   5.820  0.9053  1.5734  0.4953
  226MOL0     C29705   9.470   1.845   5.712 -0.1427 -0.2541 -0.2686
  226MOL0     C29706   9.342   1.784   5.683 -0.0362  0.0316  0.1654
  226MOL0     C29707   9.288   1.691   5.769  0.2256 -0.8879 -0.8363
  226MOL0     O29708   9.162   1.639   5.762  0.0945  0.4224 -0.3572
  226MOL0     C29709   9.083   1.643   5.642 -0.1220 -0.3639  0.7562
  226MOL0     C29710   8.971   1.556   5.648  0.2177  0.1471  0.1137
  226MOL0     C29711   8.921   1.497   5.513  0.6020  0.0397 -0.2235
  226MOL0     C29712   8.817   1.388   5.533 -0.0067 -0.6307  0.2996
  226MOL0     C29713   8.747   1.351   5.399  0.8996  0.2118  1.1883
  226MOL0     C29714   8.731   1.201   5.387  0.3284  0.0040 -0.4086
  226MOL0     C29715   8.679   1.135   5.258 -0.3178 -0.4614 -0.3476
  226MOL0     C29716   8.581   1.235   5.183 -0.2854  0.2406  1.0428
  226MOL0     N29717   8.450   1.260   5.231 -0.0596  0.0200  1.3281
  226MOL0     C29718   8.333   1.185   5.203 -0.3559  0.0200 -0.6181
  226MOL0     C29719   8.235   1.259   5.274  0.3503 -0.7111  0.0605
  226MOL0     C29720   8.089   1.214   5.283 -0.1767  0.2577 -0.2185
  226MOL0     C29721   7.996   1.337   5.260 -0.5333  0.0295 -0.3294
  226MOL0     C29722   7.845   1.312   5.274 -0.2601  0.8538  0.5263
  226MOL0     C29723   7.784   1.311   5.406 -1.1636 -0.6301 -0.5662
  226MOL0     O29724   7.637   1.313   5.391  0.2218 -0.8878 -0.0253
  226MOL0     C29725   7.551   1.313   5.497  0.3371 -0.1570 -0.1737
  226MOL0     C29726   7.597   1.295   5.634 -0.2950  0.1440 -0.4243
  226MOL0     C29727   7.507   1.302   5.735  0.1672 -0.0753 -0.0059
  226MOL0     C29728   7.373   1.345   5.712  0.3548 -0.3921 -0.2234
  226MOL0     C29729   7.276   1.363   5.825 -0.0443 -0.6873  0.0884
  226MOL0     O29730   7.177   1.450   5.803 -0.0071  0.1595  0.0939
  226MOL0     C29731   7.085   1.467   5.903  0.0570 -0.9335  0.2847
  226MOL0     C29732   6.954   1.432   5.870  0.1672  0.5890  0.5016
  226MOL0     C29733   6.852   1.445   5.964  0.1886 -0.0752 -0.0205
  226MOL0     C29734   6.881   1.489   6.094  0.0472  0.1139 -0.0054
  226MOL0     O29735   6.775   1.495   6.180  0.7720  0.7917 -0.3649
  226MOL0     C29736   6.793   1.493   6.320  1.2890 -0.4755  0.6944
  226MOL0     C29737   6.655   1.488   6.383 -0.2028 -0.3812  0.7074
  226MOL0     C29738   6.633   1.417   6.517  0.0617  0.4948 -0.2405
  226MOL0     C29739   6.489   1.414   6.565  0.1515 -0.3795  0.1154
  226MOL0     C29740   6.459   1.315   6.672 -0.2354 -0.0024 -0.1552
  226MOL0     C29741   6.444   1.170   6.623 -0.8518 -0.4174  0.6112
  226MOL0     C29742   6.436   1.070   6.741  0.0871 -0.3232  0.9947
  226MOL0     C29743   6.369   0.942   6.683  0.6982 -0.2202 -0.5175
  226MOL0    Cl29744   6.195   0.956   6.704  0.4626  0.0232  0.4639
  226MOL0     C29745   7.011   1.533   6.126 -0.2305  0.2161 -0.0444
  226MOL0     C29746   7.114   1.529   6.033  0.2173  0.4951  0.5976
  226MOL0     O29747   7.295   1.308   5.931  0.0622 -0.3757  0.2432
  226MOL0     C29748   7.327   1.359   5.585 -0.8934 -1.5637 -0.1681
  226MOL0     C29749   7.419   1.346   5.479 -0.0233  0.3605  1.2717
  226MOL0     N29750   8.291   1.378   5.329 -0.1307 -0.0732 -0.9662
  226MOL0     N29751   8.420   1.378   5.295 -0.1210  0.3417 -0.0474
  226MOL0     C29752   9.372   1.646   5.880 -0.3932 -0.7794 -0.4269
  226MOL0     C29753   9.503   1.697   5.907  0.3199  0.1041 -0.4932
  226MOL0     C29754   9.914   1.872   5.768  0.6641  0.8374 -0.0146
  226MOL0     C29755  10.017   1.818   5.686 -0.7509 -0.0164  0.0785
  226MOL0     C29756  10.143   1.867   5.691 -0.3701 -0.0761  1.7553
  226MOL0     C29757  10.185   1.972   5.784  0.3018  0.6492  1.0226
  226MOL0     O29758  10.309   2.030   5.786  0.6806  0.1048 -0.0976
  226MOL0     C29759  10.406   1.953   5.714 -0.8807  0.2428 -0.1446
  226MOL0     C29760  10.537   2.021   5.735  0.6156 -0.1412  0.8287
  226MOL0     C29761  10.654   1.937   5.668  0.1282  0.1077  0.0562
  226MOL0     C29762  10.801   1.987   5.695 -0.5711 -0.0674 -0.6942
  226MOL0     C29763  10.816   2.112   5.629  1.1463  0.0510  0.4375
  226MOL0     C29764  10.834   2.228   5.582 -0.5959  0.2277  0.4795
  226MOL0     C29765  10.085   2.021   5.864 -0.3330 -0.0076  0.6780
  226MOL0     C29766   9.955   1.975   5.859 -0.3731 -0.1651 -0.7500
  226MOL0     H29767   9.510   1.924   5.650 -1.2334 -0.1914 -0.9145
  226MOL0     H29768   9.275   1.839   5.618 -0.3438  1.0014  1.2573
  226MOL0     H29769   9.155   1.619   5.563 -1.2090  2.3209 -1.2212
  226MOL0     H29770   9.046   1.746   5.632 -1.1338 -0.9007 -1.4419
  226MOL0     H29771   8.886   1.605   5.697 -1.1859 -3.2850  1.4605
  226MOL0     H29772   8.998   1.473   5.715  1.1019  0.7884  0.5743
  226MOL0     H29773   9.012   1.464   5.463 -0.4654 -1.3079 -1.3485
  226MOL0     H29774   8.879   1.575   5.448 -2.1391 -2.0879 -1.2118
  226MOL0     H29775   8.865   1.298   5.573 -0.0419 -1.6626 -1.8450
  226MOL0     H29776   8.741   1.418   5.605 -0.3619  1.1172 -0.7290
  226MOL0     H29777   8.803   1.399   5.319 -0.0454  1.9126  1.4932
  226MOL0     H29778   8.649   1.398   5.390  0.8511 -0.0272  0.3922
  226MOL0     H29779   8.668   1.172   5.471 -1.6191  1.9613 -1.0938
  226MOL0     H29780   8.832   1.162   5.405 -0.0267  0.4028  3.0913
  226MOL0     H29781   8.756   1.111   5.183 -2.1930  0.1637 -2.5924
  226MOL0     H29782   8.641   1.033   5.271  1.0405 -0.8305  1.1433
  226MOL0     H29783   8.553   1.191   5.087 -1.8023 -0.8262  1.9073
  226MOL0     H29784   8.639   1.321   5.151 -0.6614 -0.4197 -1.6029
  226MOL0     H29785   8.327   1.090   5.150  2.1782 -0.4364 -0.2250
  226MOL0     H29786   8.073   1.171   5.383  0.7900 -0.4137 -0.3380
  226MOL0     H29787   8.083   1.137   5.205  3.1928 -0.2914 -0.1004
  226MOL0     H29788   8.010   1.365   5.155  0.1314  0.9771 -0.0119
  226MOL0     H29789   8.030   1.416   5.328 -0.1549 -1.7752  1.6985
  226MOL0     H29790   7.797   1.391   5.214 -0.5259  0.5556  0.3407
  226MOL0     H29791   7.815   1.220   5.224 -0.9079  0.7587  1.0847
  226MOL0     H29792   7.821   1.402   5.454 -0.7301  1.5533 -4.6700
  226MOL0     H29793   7.817   1.223   5.462 -1.6757  0.1337  1.0114
  226MOL0     H29794   7.702   1.282   5.660 -0.7667  1.2114  2.3715
  226MOL0     H29795   7.540   1.286   5.838  0.7997 -4.8391 -0.7265
  226MOL0     H29796   6.945   1.403   5.766  2.6391  1.9755 -0.1936
  226MOL0     H29797   6.749   1.434   5.933  0.5064  1.0184 -1.5901
  226MOL0     H29798   6.826   1.588   6.363 -2.8015  1.9668 -0.9260
  226MOL0     H29799   6.845   1.406   6.359  0.7731 -0.1040  2.2728
  226MOL0     H29800   6.578   1.453   6.314  0.6664  1.8710 -1.5419
  226MOL0     H29801   6.620   1.589   6.408  0.6930 -0.0250  0.5666
  226MOL0     H29802   6.709   1.450   6.588 -1.3033 -0.8851  1.9995
  226MOL0     H29803   6.662   1.314   6.493 -2.4748 -0.8442  1.8815
  226MOL0     H29804   6.451   1.509   6.603  0.4192 -1.0279  2.1383
  226MOL0     H29805   6.426   1.390   6.479  0.9763 -0.7683 -0.4022
  226MOL0     H29806   6.360   1.335   6.715  0.2757 -1.9606  2.2032
  226MOL0     H29807   6.535   1.317   6.751  0.0882  0.8434 -0.4773
  226MOL0     H29808   6.528   1.135   6.562 -1.4345 -1.1629  0.2281
  226MOL0     H29809   6.350   1.171   6.567 -1.3968  3.4987  1.2791
  226MOL0     H29810   6.537   1.049   6.778 -0.8154 -1.2254  3.1220
  226MOL0     H29811   6.384   1.116   6.825 -2.7163  0.6207 -1.1155
  226MOL0     H29812   6.418   0.859   6.735  0.8521  0.1955  0.0035
  226MOL0     H29813   6.393   0.928   6.577  1.4106  1.6797 -0.6346
  226MOL0     H29814   7.030   1.556   6.230 -0.2940 -0.7451  0.1891
  226MOL0     H29815   7.212   1.566   6.061 -0.0900  0.4833  1.7431
  226MOL0     H29816   7.228   1.393   5.558  0.3577  1.4657 -1.4639
  226MOL0     H29817   7.399   1.360   5.374 -0.1470 -2.0272  0.9265
  226MOL0     H29818   9.319   1.571   5.938  1.4587 -1.1187  0.9545
  226MOL0     H29819   9.557   1.663   5.995 -0.1783 -0.8527 -0.5426
  226MOL0     H29820   9.993   1.734   5.622  1.9772  0.4242 -1.6568
  226MOL0     H29821  10.210   1.818   5.622 -2.5526 -0.6446 -0.0897
  226MOL0     H29822  10.379   1.944   5.608 -2.5557  0.9092  0.1847
  226MOL0     H29823  10.403   1.855   5.762 -0.1819  0.8477  1.1645
  226MOL0     H29824  10.533   2.121   5.689 -0.8639 -0.2900  0.5701
  226MOL0     H29825  10.558   2.038   5.841  0.4349  2.7804  0.4764
  226MOL0     H29826  10.636   1.919   5.561  4.4819  2.2066 -1.2439
  226MOL0     H29827  10.650   1.842   5.722  0.5324 -0.1046 -0.2812
  226MOL0     H29828  10.818   1.998   5.803  3.6556  0.3853 -1.2469
  226MOL0     H29829  10.863   1.902   5.665  0.5630 -0.6289  2.7949
  226MOL0     H29830  10.853   2.325   5.543 -1.7401  0.7343  1.1179
  226MOL0     H29831  10.114   2.105   5.926 -0.1023 -0.2008  0.8377
  226MOL0     H29832   9.888   2.027   5.926 -0.9069 -1.4401 -0.2579
  227MOL0     O29833   6.336   3.236   6.753  0.2184  0.0941 -0.5249
  227MOL0     C29834   6.366   3.184   6.857  0.3165 -0.5793  0.2154
  227MOL0     O29835   6.281   3.128   6.951 -0.3799 -0.7002 -0.1434
  227MOL0     C29836   6.148   3.126   6.928  0.8251  0.2603  0.2079
  227MOL0     C29837   6.070   3.248   6.912  0.1895  0.3408 -0.0886
  227MOL0     C29838   5.929   3.241   6.904 -0.5806 -0.1679 -0.1497
  227MOL0     C29839   5.867   3.118   6.894  0.1423 -0.8928 -0.2466
  227MOL0     O29840   5.737   3.121   6.861  0.0908  0.3510 -0.4979
  227MOL0     C29841   5.654   3.054   6.966 -0.0784 -0.3169  0.3997
  227MOL0     C29842   5.521   3.129   6.961 -0.5208 -0.5648  0.7507
  227MOL0     C29843   5.421   3.075   7.070 -0.3501  0.9826 -0.1450
  227MOL0     C29844   5.269   3.104   7.043 -0.3876 -0.3599  0.6013
  227MOL0     C29845   5.186   3.060   7.156 -0.5533  0.5919  0.4304
  227MOL0     C29846   5.042   3.089   7.130  0.3175  0.7885 -1.2455
  227MOL0     C29847   4.956   3.029   7.247 -0.1877 -0.0417  0.1841
  227MOL0     C29848   4.874   2.906   7.207  0.2630  0.4970  0.4798
  227MOL0     N29849   4.761   2.949   7.139  0.4726 -0.0741  0.6656
  227MOL0     C29850   4.644   3.009   7.199 -1.3625  1.0014  0.2652
  227MOL0     C29851   4.555   3.007   7.096 -0.8731 -1.1394 -0.9096
  227MOL0     C29852   4.411   3.051   7.110  0.1144 -0.0301  0.3805
  227MOL0     C29853   4.312   2.942   7.155 -0.4898 -0.7723  0.9879
  227MOL0     C29854   4.357   2.911   7.297  0.4146  0.8262  0.3793
  227MOL0     C29855   4.242   2.839   7.368  0.0767  0.6588 -0.0499
  227MOL0     O29856   4.140   2.939   7.392  0.5541 -0.2355 -0.9805
  227MOL0     C29857   4.014   2.880   7.420 -0.0495 -1.0591  1.0006
  227MOL0     C29858   3.934   2.816   7.320 -0.4364  0.3272  1.0925
  227MOL0     C29859   3.802   2.783   7.354 -0.6558 -0.5533  0.1139
  227MOL0     C29860   3.754   2.795   7.492  0.2553  0.2622  0.1416
  227MOL0     C29861   3.620   2.750   7.540  0.0081 -0.7543 -0.9737
  227MOL0     O29862   3.567   2.673   7.449  0.8647  0.1524 -0.2993
  227MOL0     C29863   3.431   2.636   7.438 -0.3197 -0.6230 -0.1722
  227MOL0     C29864   3.387   2.553   7.335 -0.0760  0.4652  0.7000
  227MOL0     C29865   3.252   2.531   7.306 -0.1389 -0.1511 -0.1363
  227MOL0     C29866   3.154   2.582   7.392  0.0381 -1.0693  0.3465
  227MOL0     O29867   3.018   2.554   7.389  0.4290 -0.0907 -0.3761
  227MOL0     C29868   2.968   2.459   7.291 -0.8050 -0.0680  0.4531
  227MOL0     C29869   2.832   2.399   7.337  0.3118 -0.0781 -0.0054
  227MOL0     C29870   2.716   2.497   7.292 -0.1310  0.4854 -0.1868
  227MOL0     C29871   2.577   2.441   7.330 -0.7048  0.0046  0.0740
  227MOL0     C29872   2.469   2.533   7.272 -0.1337  0.3088  0.3086
  227MOL0     C29873   2.334   2.484   7.332 -0.5427 -0.5079  1.5791
  227MOL0     C29874   2.215   2.561   7.270 -0.4864 -0.1584 -0.6949
  227MOL0     C29875   2.098   2.476   7.269  0.4422  0.3419  0.0065
  227MOL0    Cl29876   1.954   2.555   7.201 -0.0695  0.1286  0.1131
  227MOL0     C29877   3.194   2.668   7.487 -0.0674 -0.1664 -0.0337
  227MOL0     C29878   3.330   2.708   7.500 -0.1911 -0.8782 -0.3479
  227MOL0     O29879   3.577   2.782   7.649  0.2810 -0.6019  0.0157
  227MOL0     C29880   3.843   2.856   7.584  0.0880  0.0062 -0.3701
  227MOL0     C29881   3.971   2.911   7.548  0.2027  0.2792 -0.1861
  227MOL0     N29882   4.609   2.950   6.986 -0.1487 -0.3108 -0.0683
  227MOL0     N29883   4.726   2.910   7.017  0.0585  0.6621  0.8796
  227MOL0     C29884   5.935   3.001   6.902  0.1577 -0.1077  0.4708
  227MOL0     C29885   6.076   2.999   6.929  0.3159  0.8014 -0.0802
  227MOL0     C29886   6.509   3.179   6.891 -0.1522  0.5829  0.4238
  227MOL0     C29887   6.610   3.230   6.801 -0.6636  0.2083  0.2623
  227MOL0     C29888   6.743   3.221   6.825  0.2745 -0.2354 -0.5215
  227MOL0     C29889   6.785   3.167   6.946  1.1596  0.2321  0.2693
  227MOL0     O29890   6.921   3.162   6.949  0.1382 -0.2428  0.0464
  227MOL0     C29891   6.982   3.121   7.070 -0.2379  0.7264  0.1929
  227MOL0     C29892   6.990   3.224   7.181 -0.0016 -0.0134 -0.3039
  227MOL0     C29893   7.079   3.182   7.306 -0.2004  0.2925  0.0530
  227MOL0     C29894   7.094   3.297   7.408 -0.3325 -0.0486 -0.6812
  227MOL0     C29895   6.959   3.339   7.457  0.7388 -0.7338  1.0622
  227MOL0     C29896   6.846   3.371   7.488  0.2529 -0.4956 -0.0029
  227MOL0     C29897   6.692   3.110   7.029  0.1856  0.3584 -0.3389
  227MOL0     C29898   6.558   3.108   7.002  0.5528  0.3050  0.8228
  227MOL0     H29899   6.129   3.339   6.913  0.8625 -0.0721 -0.6405
  227MOL0     H29900   5.863   3.327   6.905 -0.0078  0.3426  2.7898
  227MOL0     H29901   5.689   3.046   7.069  0.8647  4.4754  0.7122
  227MOL0     H29902   5.633   2.951   6.936 -2.4832 -0.5762  2.5512
  227MOL0     H29903   5.478   3.128   6.861 -2.1217  1.4125  1.3438
  227MOL0     H29904   5.549   3.234   6.977  0.6851 -0.9104  1.0132
  227MOL0     H29905   5.457   3.108   7.168 -0.5026 -1.6524  0.8621
  227MOL0     H29906   5.441   2.968   7.065 -0.5379  0.9627 -3.7038
  227MOL0     H29907   5.257   3.211   7.026  1.2865 -0.1949  0.3342
  227MOL0     H29908   5.250   3.050   6.950 -0.8411  2.3921 -1.0137
  227MOL0     H29909   5.212   3.116   7.246  1.5323 -0.7887  0.7586
  227MOL0     H29910   5.206   2.955   7.178 -0.2820  0.1028 -1.9345
  227MOL0     H29911   5.015   3.035   7.039 -1.7822 -0.9922  0.3447
  227MOL0     H29912   5.028   3.198   7.127 -2.0819  0.5428 -0.9524
  227MOL0     H29913   5.022   2.993   7.326 -0.1788 -1.6017 -0.4886
  227MOL0     H29914   4.897   3.111   7.288 -1.2527 -2.0117  2.8584
  227MOL0     H29915   4.853   2.834   7.287 -0.2222  0.7826  0.6134
  227MOL0     H29916   4.938   2.853   7.136 -0.8997 -0.6562  0.2402
  227MOL0     H29917   4.617   3.029   7.302  0.4150 -0.2045  1.0297
  227MOL0     H29918   4.378   3.088   7.013 -0.1395 -2.1263 -0.3778
  227MOL0     H29919   4.408   3.138   7.176  3.0895  1.9144 -1.8202
  227MOL0     H29920   4.317   2.859   7.083 -0.1310  1.7063 -2.0551
  227MOL0     H29921   4.212   2.985   7.164 -0.0751 -0.2327  3.9858
  227MOL0     H29922   4.450   2.855   7.289 -0.5317 -0.5097 -2.7454
  227MOL0     H29923   4.375   3.000   7.358  0.3588  1.4887 -0.5426
  227MOL0     H29924   4.270   2.795   7.464 -1.6461  0.7637  0.5402
  227MOL0     H29925   4.197   2.758   7.310 -0.8568  1.8610 -1.0638
  227MOL0     H29926   3.974   2.798   7.221  0.1372 -1.0004  1.5520
  227MOL0     H29927   3.736   2.744   7.277  0.6482  1.5724 -2.2187
  227MOL0     H29928   3.460   2.509   7.268 -1.7128 -0.4019 -0.5809
  227MOL0     H29929   3.214   2.471   7.224  2.2300  1.0415 -2.2641
  227MOL0     H29930   3.031   2.370   7.280 -1.4153 -0.2691 -1.7998
  227MOL0     H29931   2.950   2.511   7.196  0.1623  3.7068  2.1428
  227MOL0     H29932   2.830   2.387   7.446 -1.4607 -0.5513 -0.0625
  227MOL0     H29933   2.807   2.304   7.289  0.3852  0.3901 -0.9996
  227MOL0     H29934   2.716   2.497   7.183  2.4950  2.7679 -0.2885
  227MOL0     H29935   2.729   2.592   7.344 -3.8458 -0.2462  2.4959
  227MOL0     H29936   2.578   2.339   7.291  0.6398 -1.8992  4.4138
  227MOL0     H29937   2.571   2.433   7.439  0.2592 -2.8719 -0.0099
  227MOL0     H29938   2.471   2.521   7.163 -0.1336  0.2465  0.3151
  227MOL0     H29939   2.479   2.636   7.305  0.2810 -0.4624  2.8020
  227MOL0     H29940   2.338   2.488   7.441  1.5132  0.5538  1.5102
  227MOL0     H29941   2.329   2.378   7.305 -0.2419  0.2748 -2.1244
  227MOL0     H29942   2.194   2.648   7.333 -3.9225 -1.4127  0.0911
  227MOL0     H29943   2.243   2.598   7.170 -2.7211  0.9644 -0.9668
  227MOL0     H29944   2.074   2.435   7.367 -0.0296 -1.0989 -0.6789
  227MOL0     H29945   2.115   2.382   7.214  0.0908  0.3555 -0.1315
  227MOL0     H29946   3.108   2.711   7.538  0.3988  0.9562 -0.1736
  227MOL0     H29947   3.352   2.785   7.573  1.3230  0.2273 -1.8810
  227MOL0     H29948   3.818   2.857   7.689 -2.8266 -1.9970 -0.9316
  227MOL0     H29949   4.039   2.956   7.619 -0.8894  0.3860  0.8359
  227MOL0     H29950   5.883   2.906   6.901 -0.0965  0.0343 -0.6901
  227MOL0     H29951   6.133   2.910   6.954 -1.3821  0.0579  1.3474
  227MOL0     H29952   6.576   3.300   6.725  0.0032  1.6056  1.2129
  227MOL0     H29953   6.813   3.264   6.754 -0.7505  1.1702 -0.7239
  227MOL0     H29954   7.089   3.099   7.068 -0.3077  0.4066 -0.1876
  227MOL0     H29955   6.943   3.029   7.115  1.4431 -0.6678 -1.0305
  227MOL0     H29956   7.030   3.312   7.130 -2.0604 -0.4169 -2.8530
  227MOL0     H29957   6.889   3.252   7.214  0.9281  0.9765  1.8760
  227MOL0     H29958   7.176   3.164   7.258  0.1945 -0.8130  1.2029
  227MOL0     H29959   7.041   3.090   7.352  2.1811 -0.0101  1.5926
  227MOL0     H29960   7.157   3.268   7.493 -0.3719  2.0517  0.1382
  227MOL0     H29961   7.144   3.380   7.357  2.2117  1.0692  3.1074
  227MOL0     H29962   6.744   3.375   7.521  0.7616  0.0403  1.6161
  227MOL0     H29963   6.730   3.046   7.109  3.5315 -2.4135 -3.7755
  227MOL0     H29964   6.486   3.052   7.061  0.9066  1.5949  2.5704
  228MOL0     O29965   5.399   9.947   7.316  0.1428 -0.8848  0.0700
  228MOL0     C29966   5.476   9.917   7.401 -0.4404 -0.6157 -0.6519
  228MOL0     O29967   5.447   9.893   7.529 -0.3644  0.2329 -0.2732
  228MOL0     C29968   5.328   9.844   7.576  0.2295 -0.6175 -0.1177
  228MOL0     C29969   5.271   9.899   7.694  0.0592 -0.7444  0.8034
  228MOL0     C29970   5.145   9.847   7.744 -0.5824  0.5182 -0.0522
  228MOL0     C29971   5.089   9.738   7.671 -0.2628  0.2189  0.4321
  228MOL0     O29972   4.964   9.691   7.699 -0.5368  0.2930 -0.0195
  228MOL0     C29973   4.932   9.672   7.837  0.0551  0.0473 -0.4684
  228MOL0     C29974   4.793   9.742   7.876 -0.1836 -0.1824 -0.2620
  228MOL0     C29975   4.674   9.654   7.825 -0.1388 -0.4756  0.1574
  228MOL0     C29976   4.658   9.668   7.667 -0.8655 -0.4489  0.2937
  228MOL0     C29977   4.594   9.541   7.609 -0.3746 -0.7961  0.0949
  228MOL0     C29978   4.471   9.501   7.685  0.1358 -0.2218 -0.1725
  228MOL0     C29979   4.396   9.387   7.625 -0.5116  0.3064 -0.0410
  228MOL0     C29980   4.245   9.380   7.671  0.5979 -0.3186 -0.3505
  228MOL0     N29981   4.165   9.488   7.605 -0.8381  0.9253  0.0371
  228MOL0     C29982   4.168   9.496   7.466 -0.8887  0.1046  0.2326
  228MOL0     C29983   4.108   9.612   7.434  0.6047 -0.3971 -0.1268
  228MOL0     C29984   4.093   9.672   7.295  0.4828  0.6528  0.2773
  228MOL0     C29985   4.034   9.816   7.297 -0.0951  0.8190  0.6128
  228MOL0     C29986   4.026   9.870   7.155 -0.5914  0.0225  0.1017
  228MOL0     C29987   3.927   9.799   7.061  0.8524  0.6664  0.4159
  228MOL0     O29988   3.794   9.809   7.113 -0.0266  0.1276  0.2456
  228MOL0     C29989   3.707   9.906   7.073 -0.1003  0.6893 -0.0137
  228MOL0     C29990   3.739  10.012   6.988 -0.4156 -0.7218 -0.4952
  228MOL0     C29991   3.635  10.101   6.947 -0.2680  0.0457 -0.2137
  228MOL0     C29992   3.499  10.073   6.987  0.6853 -0.6501  0.5714
  228MOL0     C29993   3.392  10.160   6.943  0.3283 -0.3086 -0.4332
  228MOL0     O29994   3.264  10.125   6.948  0.1143 -0.1646  0.7622
  228MOL0     C29995   3.165  10.223   6.929 -0.6198 -0.1320 -0.1967
  228MOL0     C29996   3.067  10.201   6.824 -0.0926  0.9510 -0.3928
  228MOL0     C29997   2.967  10.294   6.815 -0.2139  0.2238  0.2316
  228MOL0     C29998   2.945  10.407   6.892  0.4455  0.6603  0.6742
  228MOL0     O29999   2.824  10.473   6.896  0.2682  0.2067  0.3408
  228MOL0     C30000   2.800  10.539   7.017 -0.0947 -1.3157 -0.6592
  228MOL0     C30001   2.654  10.582   7.030  0.3654  0.4523 -0.4449
  228MOL0     C30002   2.558  10.455   7.019  0.0127 -0.2274  0.4852
  228MOL0     C30003   2.413  10.502   7.023  0.2568 -0.5116  0.2904
  228MOL0     C30004   2.311  10.402   6.970 -0.2503 -0.2845  0.2682
  228MOL0     C30005   2.176  10.472   6.934  0.2723 -0.0514  0.3161
  228MOL0     C30006   2.101  10.410   6.820 -0.2441  0.3084  0.1463
  228MOL0     C30007   2.065  10.264   6.845 -0.1671  0.4347 -0.1046
  228MOL0    Cl30008   1.982  10.236   6.997 -0.2390 -0.5012  0.0958
  228MOL0     C30009   3.061  10.438   6.969  0.0425 -0.8129 -0.1705
  228MOL0     C30010   3.164  10.344   6.998 -0.1898  0.6736  0.7730
  228MOL0     O30011   3.429  10.271   6.904  0.5643 -1.0439 -0.4103
  228MOL0     C30012   3.465   9.962   7.063  0.0874  0.3185 -0.5674
  228MOL0     C30013   3.573   9.879   7.098  0.5036  0.2936  0.3523
  228MOL0     N30014   4.066   9.678   7.551  0.5113 -0.1499 -0.0190
  228MOL0     N30015   4.110   9.605   7.647 -0.1328 -0.4472  0.0002
  228MOL0     C30016   5.153   9.688   7.557  0.6616  1.0276  0.0337
  228MOL0     C30017   5.273   9.738   7.509  0.4362  0.6874  0.3418
  228MOL0     C30018   5.619   9.937   7.372 -0.0916 -0.1510 -0.4134
  228MOL0     C30019   5.652   9.956   7.241 -0.3277  0.3217  0.0961
  228MOL0     C30020   5.788   9.973   7.204 -0.7293  0.3674 -0.2853
  228MOL0     C30021   5.890   9.969   7.301 -0.1232  0.7682  0.6837
  228MOL0     O30022   6.032   9.969   7.290  0.2667  0.7973 -0.2761
  228MOL0     C30023   6.085  10.033   7.171  0.6647  0.5527  0.2814
  228MOL0     C30024   6.231  10.060   7.186  0.6354  0.2581 -0.8023
  228MOL0     C30025   6.262  10.157   7.310 -0.9283  0.0398 -0.3086
  228MOL0     C30026   6.403  10.155   7.362 -0.3462 -0.5776  0.4578
  228MOL0     C30027   6.491  10.190   7.250 -0.2005  0.4224 -0.2563
  228MOL0     C30028   6.555  10.223   7.158  0.4055 -0.4042 -0.2828
  228MOL0     C30029   5.853   9.941   7.434 -0.4466  0.5177 -0.1168
  228MOL0     C30030   5.722   9.929   7.469 -0.1999 -0.3306  0.3165
  228MOL0     H30031   5.318   9.984   7.743 -0.5350  0.8990 -1.3139
  228MOL0     H30032   5.086   9.893   7.822 -0.5077  0.0564  0.2889
  228MOL0     H30033   4.993   9.702   7.923 -2.6937  1.3444  1.1602
  228MOL0     H30034   4.922   9.566   7.865  1.5103 -0.5222 -1.9937
  228MOL0     H30035   4.773   9.840   7.832 -1.4904  0.0968  0.8637
  228MOL0     H30036   4.789   9.750   7.985 -0.3118 -2.3772 -0.0686
  228MOL0     H30037   4.582   9.691   7.871 -0.1405 -1.6702  1.1616
  228MOL0     H30038   4.696   9.550   7.847  1.5109 -0.1740  0.0862
  228MOL0     H30039   4.599   9.760   7.665  3.3051  2.5910  2.9303
  228MOL0     H30040   4.755   9.680   7.618 -1.4762  1.6022 -0.5254
  228MOL0     H30041   4.658   9.452   7.612 -1.3128 -1.5120 -0.6472
  228MOL0     H30042   4.562   9.559   7.506  0.1538 -0.6980 -0.0540
  228MOL0     H30043   4.402   9.585   7.693  1.4694  0.7108  3.3960
  228MOL0     H30044   4.501   9.464   7.784  1.3521 -0.0823 -0.4677
  228MOL0     H30045   4.398   9.382   7.515 -4.2342  0.1324 -0.2306
  228MOL0     H30046   4.436   9.290   7.654  1.8162  0.7687 -1.4720
  228MOL0     H30047   4.227   9.404   7.776 -1.5463  0.4926 -0.8581
  228MOL0     H30048   4.193   9.284   7.658 -1.9038  0.3064  3.4586
  228MOL0     H30049   4.203   9.425   7.392 -2.8957 -0.8019  0.0806
  228MOL0     H30050   4.014   9.612   7.249  2.5733  0.0911 -2.9222
  228MOL0     H30051   4.183   9.658   7.233 -0.7525 -1.9087 -1.0698
  228MOL0     H30052   4.085   9.889   7.361  2.6142 -0.7142  0.3734
  228MOL0     H30053   3.930   9.808   7.329 -0.5801  0.3939 -0.9831
  228MOL0     H30054   3.993   9.974   7.161  0.8296  0.8443 -3.5243
  228MOL0     H30055   4.124   9.858   7.107 -1.4313  2.0177 -2.2815
  228MOL0     H30056   3.939   9.691   7.054 -1.2647  0.4669 -0.9583
  228MOL0     H30057   3.938   9.837   6.959  3.1642  1.0206  0.7356
  228MOL0     H30058   3.840  10.033   6.957 -0.8591  0.6559 -1.0820
  228MOL0     H30059   3.661  10.184   6.882 -1.4040  1.2954  0.8425
  228MOL0     H30060   3.081  10.110   6.767  0.2089  1.4724 -1.1666
  228MOL0     H30061   2.884  10.256   6.755 -0.9653 -1.0183  1.9759
  228MOL0     H30062   2.863  10.627   7.031  1.0418 -2.2383  0.2610
  228MOL0     H30063   2.832  10.470   7.095 -1.4941 -0.6447  0.5610
  228MOL0     H30064   2.637  10.660   6.955 -1.4107  0.9465  0.4301
  228MOL0     H30065   2.633  10.633   7.124 -0.4800 -1.7709  0.6563
  228MOL0     H30066   2.589  10.382   7.094 -0.8742 -0.2076  0.8884
  228MOL0     H30067   2.573  10.404   6.923  1.7323 -1.2987  1.2824
  228MOL0     H30068   2.381  10.539   7.121 -1.6838 -0.3300 -0.3749
  228MOL0     H30069   2.396  10.587   6.956  0.1556  0.5710  1.6399
  228MOL0     H30070   2.287  10.334   7.052  1.4559  0.0342  1.0912
  228MOL0     H30071   2.346  10.362   6.874 -1.8385 -1.0739 -0.0040
  228MOL0     H30072   2.183  10.576   6.902 -2.0782  1.1847  3.3273
  228MOL0     H30073   2.107  10.491   7.016  2.1930  2.3942  1.4755
  228MOL0     H30074   2.007  10.464   6.807 -0.5239 -0.5694 -1.6977
  228MOL0     H30075   2.151  10.419   6.723 -1.0978 -1.3243 -0.4826
  228MOL0     H30076   2.150  10.195   6.845  0.6869  1.4639  0.4985
  228MOL0     H30077   2.000  10.235   6.762  3.1095  0.3642 -2.8723
  228MOL0     H30078   3.072  10.522   7.036 -2.2536 -0.5347 -0.0572
  228MOL0     H30079   3.248  10.372   7.060  2.1059 -1.4360 -1.1836
  228MOL0     H30080   3.369   9.934   7.106  1.4276 -3.5992  0.3265
  228MOL0     H30081   3.563   9.785   7.151  2.2640  0.0380  0.3084
  228MOL0     H30082   5.100   9.611   7.502  1.1550  1.4438 -1.0408
  228MOL0     H30083   5.307   9.700   7.414  0.4918  4.2070 -1.2057
  228MOL0     H30084   5.578   9.975   7.165  0.1322  0.4763 -0.3159
  228MOL0     H30085   5.802   9.994   7.098  2.6069  1.6883  0.3069
  228MOL0     H30086   6.032  10.124   7.141  0.3212  0.5874  0.9716
  228MOL0     H30087   6.067   9.959   7.093 -0.7205 -1.2015  2.1734
  228MOL0     H30088   6.270   9.960   7.212 -2.9842 -1.0684  0.0955
  228MOL0     H30089   6.271  10.081   7.087 -1.7436 -3.3398 -2.7670
  228MOL0     H30090   6.205  10.125   7.398  0.0201  1.7820  1.0060
  228MOL0     H30091   6.240  10.263   7.290 -2.1388 -0.1328 -0.0132
  228MOL0     H30092   6.423  10.229   7.440 -1.5583  2.7015 -2.1138
  228MOL0     H30093   6.430  10.051   7.386  3.5050  0.3443  0.7242
  228MOL0     H30094   6.605  10.231   7.063 -0.6136  0.5749 -0.7566
  228MOL0     H30095   5.935   9.926   7.503  0.2859 -1.6626 -1.3578
  228MOL0     H30096   5.705   9.915   7.575 -0.7904  0.1193  0.2852
  229MOL0     O30097   8.125   8.956   0.104  0.4063 -0.2394 -0.4827
  229MOL0     C30098   8.220   8.882   0.092  0.5341 -0.5189  1.3533
  229MOL0     O30099   8.211   8.743   0.079 -0.2012  0.5723 -0.7191
  229MOL0     C30100   8.104   8.661   0.096 -0.7397 -0.2953  0.0907
  229MOL0     C30101   8.129   8.525   0.068  1.0485 -0.7406  0.5358
  229MOL0     C30102   8.029   8.428   0.089 -0.3236  0.0703  0.5368
  229MOL0     C30103   7.897   8.471   0.116  0.9072 -0.7687  0.6591
  229MOL0     O30104   7.804   8.378   0.137  0.0842  0.1555 -0.0580
  229MOL0     C30105   7.672   8.414   0.104 -0.2081 -0.2822  0.4348
  229MOL0     C30106   7.605   8.288   0.063  0.7538  0.1701 -0.0715
  229MOL0     C30107   7.460   8.277   0.112 -0.1217 -0.2599 -0.4587
  229MOL0     C30108   7.412   8.127   0.129 -0.7676 -0.5337  0.6152
  229MOL0     C30109   7.297   8.111   0.229 -0.3259 -0.2409 -0.5435
  229MOL0     C30110   7.256   7.965   0.225  0.4952 -0.4309 -0.1231
  229MOL0     C30111   7.133   7.939   0.305  0.1465  0.2940  0.2022
  229MOL0     C30112   7.056   7.815   0.259  0.0074  0.4675  0.7333
  229MOL0     N30113   6.953   7.776   0.360 -0.0992  1.0199  0.0580
  229MOL0     C30114   6.824   7.734   0.335 -0.3719 -0.9681 -0.2471
  229MOL0     C30115   6.773   7.689   0.450  0.1777  0.7994 -1.4089
  229MOL0     C30116   6.640   7.623   0.467  0.0212  0.1189  0.1803
  229MOL0     C30117   6.529   7.706   0.433  1.0979 -0.3987 -0.3599
  229MOL0     C30118   6.519   7.835   0.507  0.7426  0.3120 -0.2319
  229MOL0     C30119   6.397   7.921   0.484 -0.6104 -0.0557  0.3237
  229MOL0     O30120   6.292   7.870   0.563  0.2183 -0.6226 -1.0112
  229MOL0     C30121   6.161   7.883   0.519  0.6498 -0.1836 -1.1203
  229MOL0     C30122   6.057   7.805   0.589 -1.0573  0.2803  0.0419
  229MOL0     C30123   5.925   7.809   0.535  0.9461  0.4579  0.5228
  229MOL0     C30124   5.881   7.908   0.442 -0.5511 -0.1610  0.4887
  229MOL0     C30125   5.734   7.919   0.395  0.0099  0.1641  0.1726
  229MOL0     O30126   5.656   7.817   0.440  0.3208  0.7431  0.2122
  229MOL0     C30127   5.526   7.813   0.400 -0.7490 -0.3599 -0.1625
  229MOL0     C30128   5.483   7.768   0.275 -0.7615  1.2085 -1.0195
  229MOL0     C30129   5.345   7.747   0.253 -0.2171 -0.4082 -0.1347
  229MOL0     C30130   5.248   7.776   0.351 -0.2781  0.3085  0.8051
  229MOL0     O30131   5.123   7.756   0.305  0.8917  0.5770  0.7241
  229MOL0     C30132   5.025   7.790   0.407  0.1000  0.2281  0.4077
  229MOL0     C30133   4.897   7.757   0.343  0.9280  0.2141 -0.6890
  229MOL0     C30134   4.775   7.789   0.436 -0.8513  0.3107 -0.1082
  229MOL0     C30135   4.782   7.928   0.505 -0.1503 -0.5623  0.2471
  229MOL0     C30136   4.670   7.948   0.608  0.0520 -0.7870 -0.2786
  229MOL0     C30137   4.705   8.063   0.704  0.4946 -0.6643  0.6194
  229MOL0     C30138   4.588   8.109   0.786 -0.3995  0.6710 -0.1635
  229MOL0     C30139   4.583   8.029   0.912  0.6450 -0.2223  0.3955
  229MOL0    Cl30140   4.445   8.084   1.006 -0.5151  0.2491 -0.5189
  229MOL0     C30141   5.295   7.831   0.470  0.1573  0.7348 -0.5656
  229MOL0     C30142   5.430   7.842   0.498 -0.2883 -0.2868  0.9764
  229MOL0     O30143   5.697   8.017   0.342 -0.0480 -0.6374 -0.0442
  229MOL0     C30144   5.979   7.995   0.402 -0.2426  0.3612 -0.0935
  229MOL0     C30145   6.116   7.991   0.436  1.4515  0.0388  0.2227
  229MOL0     N30146   6.863   7.722   0.552  0.5087  0.6571 -0.3440
  229MOL0     N30147   6.971   7.758   0.495 -0.4344 -0.6257  0.4206
  229MOL0     C30148   7.871   8.607   0.145  0.0170  0.0734 -0.5199
  229MOL0     C30149   7.971   8.704   0.138 -1.6467  0.6242  0.0206
  229MOL0     C30150   8.348   8.953   0.103  0.1202  0.3476 -0.1370
  229MOL0     C30151   8.368   9.043   0.210 -0.0526 -0.0342 -1.2992
  229MOL0     C30152   8.499   9.090   0.236 -0.4581 -0.1775 -0.1941
  229MOL0     C30153   8.600   9.036   0.143  0.2388 -0.3687  0.0279
  229MOL0     O30154   8.725   9.085   0.165 -0.7537  0.0221 -0.3197
  229MOL0     C30155   8.836   9.040   0.091 -0.8946  0.1101 -0.3855
  229MOL0     C30156   8.956   9.098   0.161 -0.5045 -0.2484 -0.2998
  229MOL0     C30157   9.084   9.011   0.140  0.2255 -0.1980  0.0210
  229MOL0     C30158   9.145   9.042   0.007 -0.4326 -0.0060 -0.6285
  229MOL0     C30159   9.093   8.949  -0.097  0.6549  0.2435 -0.5273
  229MOL0     C30160   9.063   8.870  -0.182 -1.0396  0.2870 -0.3166
  229MOL0     C30161   8.568   8.959   0.025 -0.6213 -0.1882  0.0087
  229MOL0     C30162   8.440   8.915   0.008 -0.8824 -0.3491  0.3631
  229MOL0     H30163   8.231   8.502   0.036 -0.1983 -0.0182 -5.1271
  229MOL0     H30164   8.050   8.323   0.075 -0.2217  0.2663 -0.9293
  229MOL0     H30165   7.677   8.482   0.019  4.5977 -0.1287  0.5401
  229MOL0     H30166   7.611   8.451   0.187 -1.5676 -1.1372 -0.1446
  229MOL0     H30167   7.664   8.202   0.096  1.0787  0.7954  1.0348
  229MOL0     H30168   7.593   8.288  -0.045 -0.3013 -2.2561 -0.0239
  229MOL0     H30169   7.384   8.322   0.046  3.1161  1.0814 -3.6321
  229MOL0     H30170   7.456   8.338   0.203 -1.1569  2.0079 -1.9190
  229MOL0     H30171   7.383   8.084   0.032 -0.9371 -3.7860  1.9839
  229MOL0     H30172   7.496   8.065   0.163 -0.7855  0.2738  2.2240
  229MOL0     H30173   7.210   8.173   0.203  0.0690  2.1859  3.0960
  229MOL0     H30174   7.329   8.140   0.329  1.8484 -0.2325 -1.1905
  229MOL0     H30175   7.339   7.901   0.256 -1.2443 -2.1512  1.2761
  229MOL0     H30176   7.225   7.940   0.123  0.6637  0.7724 -0.4735
  229MOL0     H30177   7.151   7.942   0.413 -2.3029  0.2977  0.6539
  229MOL0     H30178   7.061   8.019   0.288 -0.5267 -0.0916  1.1810
  229MOL0     H30179   7.123   7.731   0.239  0.2902  1.2130 -1.9837
  229MOL0     H30180   7.006   7.842   0.165  1.9991  0.3668 -0.4135
  229MOL0     H30181   6.771   7.737   0.240 -1.0689 -0.1549  0.1666
  229MOL0     H30182   6.623   7.597   0.572 -0.2561 -0.6872 -0.0533
  229MOL0     H30183   6.641   7.527   0.413 -1.8739  0.0535  0.2106
  229MOL0     H30184   6.432   7.655   0.442 -1.2227  3.8441  2.3866
  229MOL0     H30185   6.533   7.729   0.326 -0.2583 -0.7442 -0.5086
  229MOL0     H30186   6.524   7.810   0.614  2.4114  1.6273  0.0371
  229MOL0     H30187   6.601   7.904   0.485  1.7988 -0.3663  1.3677
  229MOL0     H30188   6.362   7.922   0.380  0.1794  0.4114  0.0584
  229MOL0     H30189   6.443   8.017   0.507  2.8317 -0.6852 -2.9151
  229MOL0     H30190   6.092   7.727   0.655 -2.8084 -0.9620 -0.4523
  229MOL0     H30191   5.863   7.729   0.575  0.0315  1.4320  1.0879
  229MOL0     H30192   5.565   7.735   0.212 -1.8309 -1.4577 -1.1566
  229MOL0     H30193   5.308   7.710   0.158 -3.1568  2.5788 -0.3663
  229MOL0     H30194   5.028   7.898   0.423 -0.0279  0.6675 -2.1465
  229MOL0     H30195   5.044   7.728   0.495 -0.0436  1.1110  1.0685
  229MOL0     H30196   4.895   7.648   0.330  0.4210 -0.0568  1.4073
  229MOL0     H30197   4.890   7.809   0.247 -0.3207  2.0100  0.3273
  229MOL0     H30198   4.763   7.709   0.509  1.8505 -0.1319 -0.0358
  229MOL0     H30199   4.690   7.791   0.367 -1.1952  0.1973  0.3127
  229MOL0     H30200   4.880   7.947   0.549  0.4261  1.9210 -1.8481
  229MOL0     H30201   4.773   8.004   0.427  0.4169 -0.6443  0.0946
  229MOL0     H30202   4.671   7.861   0.675  2.6433 -0.2166  0.5404
  229MOL0     H30203   4.581   7.956   0.544  1.2582  0.0347 -1.9299
  229MOL0     H30204   4.728   8.140   0.631  1.6920 -2.4940 -1.0398
  229MOL0     H30205   4.793   8.055   0.768  1.3154  1.9888 -0.0701
  229MOL0     H30206   4.611   8.213   0.810  3.5633  0.3330 -1.6233
  229MOL0     H30207   4.494   8.112   0.731 -1.3338  3.0477  1.4369
  229MOL0     H30208   4.665   8.057   0.980  3.2686  1.8903 -3.2735
  229MOL0     H30209   4.574   7.921   0.897  1.3488 -0.0825 -1.2333
  229MOL0     H30210   5.223   7.851   0.548  0.4906  0.0070 -0.0557
  229MOL0     H30211   5.470   7.884   0.589  2.6942  0.8233 -0.6790
  229MOL0     H30212   5.961   8.059   0.317  1.6883 -0.1786 -0.9668
  229MOL0     H30213   6.180   8.066   0.391 -0.6065  2.0114  0.4071
  229MOL0     H30214   7.776   8.643   0.184  1.5336  3.8798  0.0920
  229MOL0     H30215   7.948   8.808   0.159  1.5944  1.4888 -0.1908
  229MOL0     H30216   8.290   9.072   0.280  2.1056  0.9172  0.8490
  229MOL0     H30217   8.540   9.154   0.313 -1.1524  1.9443 -1.5042
  229MOL0     H30218   8.827   9.078  -0.011 -1.9765  2.4541  0.5206
  229MOL0     H30219   8.832   8.930   0.093 -3.0863  0.1672  0.6490
  229MOL0     H30220   8.967   9.205   0.141 -0.7540  0.0917  1.2870
  229MOL0     H30221   8.928   9.113   0.265  0.3917 -1.1615  0.0901
  229MOL0     H30222   9.057   8.905   0.146 -3.0945  0.4498 -1.0504
  229MOL0     H30223   9.168   9.030   0.207  2.7085  0.9384 -3.1657
  229MOL0     H30224   9.130   9.149  -0.012 -0.1546  0.3175  0.8256
  229MOL0     H30225   9.251   9.016   0.015  0.2448  2.7303  0.4474
  229MOL0     H30226   9.054   8.793  -0.256  0.0604 -0.4887  0.3273
  229MOL0     H30227   8.649   8.939  -0.045 -1.0018  2.8397 -1.4276
  229MOL0     H30228   8.427   8.838  -0.068  5.5780  0.6702 -2.4799
  230MOL0     O30229   2.498   5.748   9.059  0.9346  0.2579 -0.6079
  230MOL0     C30230   2.528   5.760   8.940  0.1187 -0.0890 -0.0576
  230MOL0     O30231   2.444   5.724   8.828 -0.5719 -0.2497 -0.4810
  230MOL0     C30232   2.316   5.680   8.852 -0.6184  0.2248 -0.2439
  230MOL0     C30233   2.270   5.577   8.770 -0.9337 -0.3059  0.5695
  230MOL0     C30234   2.136   5.539   8.774  0.1088  0.0848 -1.2027
  230MOL0     C30235   2.057   5.572   8.881  0.7854  0.1861 -0.2647
  230MOL0     O30236   1.921   5.546   8.889 -0.8856 -0.5601  0.3722
  230MOL0     C30237   1.894   5.401   8.883 -0.0141 -0.4538  0.1590
  230MOL0     C30238   1.743   5.397   8.876  0.8534  0.2253 -0.4213
  230MOL0     C30239   1.694   5.247   8.880  0.6617 -0.1325  1.0066
  230MOL0     C30240   1.724   5.155   9.008 -0.7418 -0.8440 -0.0440
  230MOL0     C30241   1.623   5.044   9.016  0.0018 -0.4273 -0.2981
  230MOL0     C30242   1.670   4.934   8.917 -0.9102  0.4830 -0.9284
  230MOL0     C30243   1.649   4.794   8.977  0.5760  0.3953 -0.2181
  230MOL0     C30244   1.506   4.761   8.947 -0.2804 -0.7888  0.4910
  230MOL0     N30245   1.480   4.621   8.988  0.4783  0.6885 -0.1026
  230MOL0     C30246   1.420   4.517   8.909 -0.6325 -0.4156 -0.9820
  230MOL0     C30247   1.430   4.413   8.993  0.0021  0.4641  1.1079
  230MOL0     C30248   1.378   4.274   8.964  0.2141 -0.1050  0.3803
  230MOL0     C30249   1.233   4.259   9.011 -0.5055  0.7192  0.2317
  230MOL0     C30250   1.209   4.249   9.169 -0.3136  0.5165 -0.0400
  230MOL0     C30251   1.071   4.194   9.200 -0.2132  0.5257  0.5593
  230MOL0     O30252   1.065   4.053   9.167  0.1263 -0.2554 -0.3547
  230MOL0     C30253   0.937   4.022   9.125 -0.1915  0.4276 -0.2263
  230MOL0     C30254   0.938   3.946   9.011  0.2400  0.1622  0.1758
  230MOL0     C30255   0.818   3.901   8.956 -0.3848  0.2902 -0.8843
  230MOL0     C30256   0.696   3.949   9.016 -0.3650  0.1573  0.5836
  230MOL0     C30257   0.577   3.898   8.956  0.4589 -0.1040 -0.1251
  230MOL0     O30258   0.551   3.931   8.823 -0.9914 -0.3019 -0.6936
  230MOL0     C30259   0.436   3.868   8.767 -0.5152  0.1067 -1.0966
  230MOL0     C30260   0.325   3.946   8.734  0.7537 -0.5061  0.5002
  230MOL0     C30261   0.215   3.882   8.666  0.5555 -0.0170 -0.1771
  230MOL0     C30262   0.222   3.745   8.630 -0.6644  0.1536 -0.8513
  230MOL0     O30263   0.133   3.679   8.549 -0.0191  0.8305 -0.4013
  230MOL0     C30264   0.071   3.761   8.452 -0.4381 -0.1182  0.1800
  230MOL0     C30265  -0.015   3.680   8.353 -0.3820  0.3510 -0.1998
  230MOL0     C30266  -0.064   3.762   8.239  0.1669  0.6528  0.8879
  230MOL0     C30267  -0.067   3.681   8.114  0.7005 -0.0980 -0.0319
  230MOL0     C30268  -0.134   3.764   8.003  0.3159  0.0463  0.1839
  230MOL0     C30269  -0.164   3.672   7.876  0.0613 -0.3547 -0.0254
  230MOL0     C30270  -0.303   3.595   7.869 -0.4055  1.2607 -0.3284
  230MOL0     C30271  -0.296   3.452   7.925 -0.9163 -0.4827  0.1185
  230MOL0    Cl30272  -0.184   3.337   7.839  0.2401 -0.5633 -0.1783
  230MOL0     C30273   0.337   3.679   8.664 -0.8589  0.7488 -0.4198
  230MOL0     C30274   0.442   3.732   8.730 -0.4650 -0.0867  0.4084
  230MOL0     O30275   0.500   3.832   9.024 -0.9741  0.4164 -0.0314
  230MOL0     C30276   0.701   4.018   9.138  0.4930 -0.2224 -0.5752
  230MOL0     C30277   0.820   4.071   9.187 -0.4357  0.5838 -0.1656
  230MOL0     N30278   1.495   4.450   9.120 -0.2894  0.2036 -0.0160
  230MOL0     N30279   1.513   4.572   9.114  0.5084 -0.2948  0.1548
  230MOL0     C30280   2.111   5.673   8.970  0.8298 -0.5602  0.0430
  230MOL0     C30281   2.235   5.721   8.956  1.0335 -0.7962 -1.1036
  230MOL0     C30282   2.655   5.823   8.906  0.4627 -0.4602 -0.2789
  230MOL0     C30283   2.662   5.917   8.805  0.5181 -0.0672 -0.4008
  230MOL0     C30284   2.778   5.988   8.778  0.1610  0.5638  0.2736
  230MOL0     C30285   2.888   5.964   8.861  0.8214  0.0189 -0.4275
  230MOL0     O30286   3.006   6.026   8.835 -0.1165 -0.4820 -0.0691
  230MOL0     C30287   3.117   5.945   8.801 -0.1454 -0.0412  0.1096
  230MOL0     C30288   3.221   5.958   8.910  0.1071 -0.0311 -0.4537
  230MOL0     C30289   3.310   6.079   8.898 -0.2933 -0.6159 -0.0692
  230MOL0     C30290   3.397   6.095   9.021  0.2186 -0.4814  0.0540
  230MOL0     C30291   3.496   5.993   9.040  0.1730  0.3790 -0.1638
  230MOL0     C30292   3.573   5.907   9.083  0.5971 -0.3019 -0.2245
  230MOL0     C30293   2.879   5.877   8.971 -0.3736  0.0591 -0.9457
  230MOL0     C30294   2.758   5.809   9.001 -0.2959 -0.5701  0.4541
  230MOL0     H30295   2.332   5.524   8.699 -0.4671 -0.0522  0.7815
  230MOL0     H30296   2.095   5.469   8.702  1.5678 -1.7798 -0.2937
  230MOL0     H30297   1.918   5.338   8.969 -0.5257  1.1676  1.5411
  230MOL0     H30298   1.931   5.349   8.794 -1.8354 -2.1530  0.3294
  230MOL0     H30299   1.698   5.450   8.791 -1.1749 -0.5453  0.1052
  230MOL0     H30300   1.701   5.447   8.964 -1.2756 -2.1267  0.0020
  230MOL0     H30301   1.713   5.202   8.782 -0.1018  2.4494 -0.4202
  230MOL0     H30302   1.585   5.249   8.863  0.7040  0.6178  0.8057
  230MOL0     H30303   1.825   5.114   9.005  1.1485  3.1564  2.0727
  230MOL0     H30304   1.724   5.215   9.099  0.8848 -2.8670  1.3852
  230MOL0     H30305   1.523   5.082   8.993 -0.6899 -1.7982  0.3488
  230MOL0     H30306   1.624   5.001   9.116 -1.0941 -0.2907 -0.2101
  230MOL0     H30307   1.778   4.935   8.901 -0.6996  3.6395  0.1517
  230MOL0     H30308   1.626   4.948   8.818 -0.4899  0.4725 -1.1173
  230MOL0     H30309   1.712   4.712   8.942 -0.8015 -1.7017  1.8563
  230MOL0     H30310   1.667   4.787   9.085 -2.4574  2.2167  0.5022
  230MOL0     H30311   1.495   4.775   8.839  1.1379  1.3578  0.5737
  230MOL0     H30312   1.452   4.831   9.011  0.4381 -2.2150  2.7674
  230MOL0     H30313   1.390   4.522   8.805 -0.6545 -4.1492 -1.2895
  230MOL0     H30314   1.452   4.207   9.009 -1.9567 -1.9934  1.3679
  230MOL0     H30315   1.376   4.250   8.857  1.3232 -0.1086  0.3515
  230MOL0     H30316   1.197   4.168   8.962  1.6127 -0.1009  0.0917
  230MOL0     H30317   1.181   4.343   8.966  0.1812 -0.8289 -3.8324
  230MOL0     H30318   1.277   4.173   9.209 -0.7534 -0.4621 -1.0773
  230MOL0     H30319   1.225   4.348   9.212  2.9081 -0.1746  0.5689
  230MOL0     H30320   1.005   4.257   9.140  0.6448  1.1085  0.2086
  230MOL0     H30321   1.043   4.210   9.304 -1.8194 -2.4823  0.6853
  230MOL0     H30322   1.037   3.919   8.977 -1.2124 -1.3772 -3.2435
  230MOL0     H30323   0.820   3.826   8.877  1.2686 -0.9592  0.2819
  230MOL0     H30324   0.322   4.053   8.756  2.6975 -0.3087 -0.0607
  230MOL0     H30325   0.132   3.949   8.646 -0.2790 -1.0147 -0.1351
  230MOL0     H30326   0.154   3.810   8.401  0.9033 -0.8319  1.5796
  230MOL0     H30327   0.005   3.829   8.506 -1.2159 -0.6378 -0.1045
  230MOL0     H30328  -0.095   3.633   8.412 -1.1463  1.8325 -0.0142
  230MOL0     H30329   0.042   3.596   8.312 -0.1138  1.0074 -1.1883
  230MOL0     H30330   0.004   3.845   8.218  1.5837 -1.2647 -3.4161
  230MOL0     H30331  -0.164   3.801   8.261 -0.7351 -0.4508 -0.9856
  230MOL0     H30332   0.040   3.670   8.092  1.5380  3.1106  1.6633
  230MOL0     H30333  -0.124   3.589   8.127  1.2390 -0.1576  2.4581
  230MOL0     H30334  -0.069   3.843   7.966  0.9756 -0.1579  0.8801
  230MOL0     H30335  -0.220   3.813   8.049  0.3519  1.4882 -1.2119
  230MOL0     H30336  -0.076   3.607   7.870  3.0408  3.1228  1.8094
  230MOL0     H30337  -0.140   3.731   7.788  2.6660  1.8751  1.9992
  230MOL0     H30338  -0.378   3.650   7.926 -0.1725  0.6207  0.6160
  230MOL0     H30339  -0.334   3.580   7.765 -4.0277 -1.9469  0.9809
  230MOL0     H30340  -0.395   3.406   7.932 -1.8985  0.9645 -2.6486
  230MOL0     H30341  -0.259   3.465   8.027 -1.5050 -0.6258  0.3547
  230MOL0     H30342   0.342   3.574   8.634 -2.2056 -0.0380  1.8502
  230MOL0     H30343   0.529   3.668   8.739 -1.4384 -1.1668  3.0528
  230MOL0     H30344   0.610   4.038   9.193  0.1678  0.6463 -1.3942
  230MOL0     H30345   0.835   4.125   9.280 -2.2972 -0.0707  0.5743
  230MOL0     H30346   2.051   5.689   9.059 -1.1300 -1.3129 -1.0908
  230MOL0     H30347   2.264   5.805   9.017  1.2309  0.1041 -2.3995
  230MOL0     H30348   2.579   5.948   8.743  0.0606  1.5856  0.9462
  230MOL0     H30349   2.781   6.059   8.696  3.8539  0.2684 -0.0349
  230MOL0     H30350   3.157   5.974   8.703 -2.1310 -1.7127 -1.2870
  230MOL0     H30351   3.097   5.839   8.785 -0.0408  0.2907 -2.8027
  230MOL0     H30352   3.169   5.953   9.006 -0.2227  0.6393 -0.5899
  230MOL0     H30353   3.288   5.872   8.899  0.8024  0.4706 -0.1490
  230MOL0     H30354   3.255   6.173   8.891  2.5745  1.1636 -0.4416
  230MOL0     H30355   3.375   6.060   8.812 -1.1598 -0.5014 -0.7746
  230MOL0     H30356   3.448   6.191   9.015  1.6317 -1.1680  0.6809
  230MOL0     H30357   3.343   6.104   9.116  0.7566  2.0367  0.1750
  230MOL0     H30358   3.644   5.841   9.130 -0.0513  0.5991  2.1828
  230MOL0     H30359   2.960   5.877   9.043 -1.9838  1.5679  1.0273
  230MOL0     H30360   2.740   5.737   9.080  0.0783 -1.2615 -0.0770
  231MOL0     O30361   3.121   2.433   1.586 -0.1184  0.3468  0.1214
  231MOL0     C30362   3.183   2.537   1.614 -0.1690 -0.7874  0.3924
  231MOL0     O30363   3.135   2.632   1.694 -0.1641  0.0887  0.2737
  231MOL0     C30364   2.999   2.627   1.723 -0.2181  0.1856 -0.4683
  231MOL0     C30365   2.895   2.569   1.660  0.2404  0.2643  1.0017
  231MOL0     C30366   2.759   2.591   1.706 -0.2390  0.1630  0.4682
  231MOL0     C30367   2.732   2.669   1.819  0.3179  0.2225 -0.3485
  231MOL0     O30368   2.604   2.687   1.861  0.7273 -0.0235 -0.2696
  231MOL0     C30369   2.588   2.788   1.964 -0.5149 -0.6560 -0.1209
  231MOL0     C30370   2.452   2.829   2.010  0.4020  0.7263 -0.4573
  231MOL0     C30371   2.366   2.710   2.034 -0.0988  0.1837 -0.3814
  231MOL0     C30372   2.430   2.614   2.132 -0.1968 -0.6221  0.6592
  231MOL0     C30373   2.326   2.544   2.216  0.0272  0.4399 -0.1790
  231MOL0     C30374   2.268   2.632   2.331 -0.0575 -0.5678 -0.9432
  231MOL0     C30375   2.184   2.553   2.422  0.5567  0.1013  0.8593
  231MOL0     C30376   2.200   2.588   2.565 -0.9006  0.1075  0.5143
  231MOL0     N30377   2.109   2.693   2.616  0.2589 -0.1482  0.6538
  231MOL0     C30378   2.110   2.818   2.572 -0.5542 -0.8566  0.0395
  231MOL0     C30379   2.007   2.882   2.630  0.6724  0.2084 -0.3025
  231MOL0     C30380   1.970   3.028   2.616 -0.3484  0.0025 -0.4730
  231MOL0     C30381   1.834   3.037   2.550  0.1077 -0.0293 -0.4922
  231MOL0     C30382   1.790   3.184   2.548 -0.4625  0.3962 -0.3858
  231MOL0     C30383   1.762   3.239   2.683 -0.3628 -0.3926 -0.0616
  231MOL0     O30384   1.658   3.336   2.668 -0.8678  0.3663  0.3103
  231MOL0     C30385   1.538   3.306   2.723 -0.5226 -0.4585 -0.2043
  231MOL0     C30386   1.471   3.195   2.686  0.2432  0.5267 -0.3095
  231MOL0     C30387   1.357   3.162   2.750  0.3153  0.1299 -0.5263
  231MOL0     C30388   1.301   3.244   2.850  0.7931  0.1496  0.2762
  231MOL0     C30389   1.179   3.208   2.928  0.0255  0.0710  0.0196
  231MOL0     O30390   1.104   3.313   2.962 -0.0059  0.0265 -0.2512
  231MOL0     C30391   0.975   3.300   3.009 -1.0426 -0.6812 -0.2763
  231MOL0     C30392   0.883   3.402   2.978 -0.1854  0.7145 -0.8658
  231MOL0     C30393   0.753   3.408   3.039 -0.1085  0.9506 -0.2011
  231MOL0     C30394   0.717   3.303   3.117 -0.3303 -0.6048 -0.2097
  231MOL0     O30395   0.588   3.301   3.151  0.4606 -0.0460  0.1511
  231MOL0     C30396   0.545   3.217   3.253 -0.3903  0.1189  0.2372
  231MOL0     C30397   0.394   3.239   3.275  0.4930  0.5793 -0.7037
  231MOL0     C30398   0.315   3.170   3.163 -0.4400 -0.2283  0.0209
  231MOL0     C30399   0.169   3.157   3.190  0.5332  0.1984  0.6063
  231MOL0     C30400   0.107   3.289   3.180  0.9202 -0.0620  0.3534
  231MOL0     C30401  -0.043   3.277   3.184 -0.1390 -0.1998  0.5411
  231MOL0     C30402  -0.114   3.419   3.209 -0.4063  0.6208 -0.5549
  231MOL0     C30403  -0.264   3.418   3.153 -0.7410 -0.2046  0.4239
  231MOL0    Cl30404  -0.287   3.345   2.989 -0.3440 -0.1603  0.2523
  231MOL0     C30405   0.807   3.200   3.148  0.8747 -0.1281 -0.6726
  231MOL0     C30406   0.933   3.187   3.082  0.6972 -0.4498 -0.9499
  231MOL0     O30407   1.146   3.087   2.931  0.0964 -0.2704  0.4161
  231MOL0     C30408   1.364   3.372   2.870  0.3739  0.2595 -0.3161
  231MOL0     C30409   1.489   3.395   2.813 -0.1776 -0.5629 -0.1981
  231MOL0     N30410   1.932   2.790   2.705 -0.7600  0.4760  0.1090
  231MOL0     N30411   2.004   2.675   2.695 -0.4048  0.3113  0.6030
  231MOL0     C30412   2.839   2.728   1.882 -0.0602 -0.2912  0.0172
  231MOL0     C30413   2.970   2.705   1.837 -0.7703  0.3881  0.4595
  231MOL0     C30414   3.328   2.558   1.567 -0.5290  0.1160 -0.2951
  231MOL0     C30415   3.404   2.660   1.622 -0.3907 -0.1525 -0.6934
  231MOL0     C30416   3.534   2.681   1.570 -0.2065  0.5066 -0.8247
  231MOL0     C30417   3.586   2.589   1.477  0.7250 -0.0624 -0.3363
  231MOL0     O30418   3.706   2.598   1.412 -0.0039  0.6011  0.2664
  231MOL0     C30419   3.796   2.708   1.431  0.0915  0.1273  0.6043
  231MOL0     C30420   3.921   2.700   1.338  0.1948  0.2667  0.5310
  231MOL0     C30421   4.027   2.792   1.391 -0.0164  0.1884 -0.2973
  231MOL0     C30422   4.170   2.771   1.340  0.3504 -0.3364  1.0255
  231MOL0     C30423   4.269   2.837   1.427  0.4334  0.0791  0.1146
  231MOL0     C30424   4.357   2.895   1.494  0.4665  0.7977 -0.1504
  231MOL0     C30425   3.500   2.483   1.425  0.2108 -0.2796  0.8180
  231MOL0     C30426   3.377   2.459   1.477  0.5537 -0.6724 -0.7220
  231MOL0     H30427   2.899   2.518   1.564 -5.3302 -3.4946  2.2567
  231MOL0     H30428   2.670   2.561   1.650  0.9763 -0.5132 -1.1836
  231MOL0     H30429   2.617   2.886   1.925  0.3160 -1.2019 -0.9151
  231MOL0     H30430   2.647   2.771   2.054  1.2106  4.1462 -0.0334
  231MOL0     H30431   2.404   2.894   1.937  1.7469  0.7480 -1.3578
  231MOL0     H30432   2.453   2.882   2.105 -0.1096  0.0581 -0.0653
  231MOL0     H30433   2.334   2.653   1.946 -0.8477  1.5614 -1.0286
  231MOL0     H30434   2.265   2.740   2.064 -0.2298 -0.0612 -0.5783
  231MOL0     H30435   2.493   2.545   2.074 -0.5209 -0.9850  0.7311
  231MOL0     H30436   2.501   2.666   2.197  1.2109 -1.0603 -0.4661
  231MOL0     H30437   2.374   2.454   2.256  0.9033 -0.1163 -2.3212
  231MOL0     H30438   2.246   2.494   2.160  0.3630 -1.1207  0.6637
  231MOL0     H30439   2.215   2.720   2.292 -0.4603 -0.9570 -1.2861
  231MOL0     H30440   2.352   2.676   2.385 -1.5024 -1.3899  2.2035
  231MOL0     H30441   2.081   2.573   2.392  0.6646 -3.1067 -2.2641
  231MOL0     H30442   2.194   2.444   2.411 -1.3070  0.1195 -1.6169
  231MOL0     H30443   2.307   2.607   2.568 -0.4041 -2.4007  0.7852
  231MOL0     H30444   2.173   2.499   2.623 -4.6013 -0.2165 -1.3727
  231MOL0     H30445   2.184   2.861   2.505 -1.0366 -0.1608 -0.0555
  231MOL0     H30446   2.043   3.086   2.558  2.3617 -3.2927 -0.6882
  231MOL0     H30447   1.953   3.079   2.711 -0.4728 -1.1974  0.1655
  231MOL0     H30448   1.753   2.990   2.606 -1.7536  3.3178 -0.0874
  231MOL0     H30449   1.835   2.995   2.449  3.4298  0.4378 -0.7538
  231MOL0     H30450   1.874   3.243   2.511 -1.6074  2.0099 -0.5117
  231MOL0     H30451   1.707   3.203   2.479 -1.5802 -2.5155  0.0034
  231MOL0     H30452   1.848   3.297   2.716 -0.5780 -0.7213  1.1397
  231MOL0     H30453   1.749   3.162   2.761 -0.9473 -2.8953 -2.4521
  231MOL0     H30454   1.504   3.141   2.598  2.1604  1.4204 -0.2023
  231MOL0     H30455   1.314   3.068   2.717 -0.0144  0.1958 -0.2867
  231MOL0     H30456   0.909   3.482   2.909 -2.3952  0.7805 -1.6987
  231MOL0     H30457   0.678   3.476   3.001  0.2035  1.0590 -0.6402
  231MOL0     H30458   0.595   3.234   3.349 -1.8214 -1.5038  1.3271
  231MOL0     H30459   0.562   3.111   3.234  0.5356  0.2990  0.0164
  231MOL0     H30460   0.377   3.347   3.280 -2.6928  0.1136  2.6730
  231MOL0     H30461   0.370   3.199   3.374 -2.4654  0.6635 -1.2859
  231MOL0     H30462   0.357   3.072   3.138  0.0495 -0.7833  2.6557
  231MOL0     H30463   0.317   3.231   3.072  0.2570 -1.5147 -0.8613
  231MOL0     H30464   0.122   3.090   3.118 -2.2720  1.9828  0.6186
  231MOL0     H30465   0.150   3.117   3.290 -0.9265  1.1967  0.7432
  231MOL0     H30466   0.137   3.342   3.089 -0.8531 -2.2331 -1.6173
  231MOL0     H30467   0.144   3.331   3.274  1.4367 -0.7321  0.4641
  231MOL0     H30468  -0.060   3.207   3.267  1.6042 -2.2301 -0.7010
  231MOL0     H30469  -0.076   3.226   3.093  1.9536 -2.2430  0.8270
  231MOL0     H30470  -0.100   3.447   3.313  1.4814  0.5114 -0.7411
  231MOL0     H30471  -0.060   3.499   3.159  0.9616  0.8567  1.2047
  231MOL0     H30472  -0.287   3.525   3.150 -0.2611 -0.0367  1.9816
  231MOL0     H30473  -0.333   3.367   3.220 -0.5837 -0.2833  0.5276
  231MOL0     H30474   0.775   3.125   3.219 -0.2773  0.1756 -0.8565
  231MOL0     H30475   0.980   3.093   3.110 -2.1223 -1.2058  1.8913
  231MOL0     H30476   1.320   3.447   2.935  1.2223  1.8459 -1.5104
  231MOL0     H30477   1.533   3.490   2.842  0.6643 -1.6201  2.2638
  231MOL0     H30478   2.829   2.783   1.975 -1.7927 -3.4957  1.9420
  231MOL0     H30479   3.049   2.749   1.897 -0.6589 -0.8282  1.2394
  231MOL0     H30480   3.368   2.739   1.687 -0.7523 -2.7190  2.4300
  231MOL0     H30481   3.593   2.766   1.601 -1.1057  0.8268  0.0671
  231MOL0     H30482   3.813   2.711   1.539  0.9787 -1.7022  0.5467
  231MOL0     H30483   3.739   2.793   1.394  1.0338  0.3483 -0.4003
  231MOL0     H30484   3.958   2.598   1.336 -0.3318 -0.1208  4.1077
  231MOL0     H30485   3.894   2.736   1.238 -1.3159  0.1985  0.8923
  231MOL0     H30486   4.005   2.786   1.498 -3.2451  2.0376 -0.7075
  231MOL0     H30487   4.004   2.897   1.367 -0.7552  0.5884  1.9423
  231MOL0     H30488   4.193   2.664   1.343  0.9285 -0.2320  0.5857
  231MOL0     H30489   4.189   2.812   1.240 -0.8913 -0.8529  0.5618
  231MOL0     H30490   4.418   2.955   1.558 -1.1123  1.4904  0.7550
  231MOL0     H30491   3.548   2.422   1.349  3.4202  2.7301  0.1450
  231MOL0     H30492   3.309   2.385   1.436  0.6636 -0.6417 -0.9570
  232MOL0     O30493   4.222   2.076  11.019  0.0468 -0.1672  0.2290
  232MOL0     C30494   4.293   2.051  10.921 -0.3059 -0.1940 -0.7397
  232MOL0     O30495   4.252   2.025  10.796 -0.3638 -0.1813  0.1392
  232MOL0     C30496   4.116   2.009  10.785 -0.8176  0.0046 -0.7230
  232MOL0     C30497   4.029   2.101  10.738  0.6989 -0.1260 -0.3167
  232MOL0     C30498   3.893   2.087  10.724  0.2283  0.0623  0.1166
  232MOL0     C30499   3.835   1.961  10.757 -0.4373 -0.2526  0.5692
  232MOL0     O30500   3.699   1.946  10.762  0.4410 -0.2066  0.1774
  232MOL0     C30501   3.621   2.059  10.801 -0.3586  0.9618  0.0534
  232MOL0     C30502   3.472   2.012  10.811 -0.0231 -0.1747 -1.2026
  232MOL0     C30503   3.381   2.129  10.792 -0.4833  0.8967  0.1635
  232MOL0     C30504   3.238   2.092  10.845  0.1487  0.5061  0.1275
  232MOL0     C30505   3.149   2.219  10.828 -0.7833  0.9413 -0.1104
  232MOL0     C30506   2.998   2.189  10.806 -0.2195  0.3885 -0.2669
  232MOL0     C30507   2.940   2.109  10.931 -0.2467 -0.2850 -0.2146
  232MOL0     C30508   2.789   2.089  10.901 -0.0260 -0.3186 -0.7647
  232MOL0     N30509   2.701   2.060  11.020 -0.0163  0.1809  0.4027
  232MOL0     C30510   2.716   1.959  11.106 -0.3021  0.1429  1.0686
  232MOL0     C30511   2.609   1.961  11.187  0.0380  0.5002 -0.0366
  232MOL0     C30512   2.586   1.867  11.297  0.9962  0.5890 -0.2093
  232MOL0     C30513   2.446   1.853  11.353  0.7506 -0.5458  0.0534
  232MOL0     C30514   2.403   1.971  11.438 -0.2981 -0.2679  0.3249
  232MOL0     C30515   2.258   1.971  11.494 -0.8762 -0.0221 -0.3030
  232MOL0     O30516   2.238   1.849  11.574  0.0090 -0.4929 -0.1584
  232MOL0     C30517   2.131   1.772  11.566  0.1502  1.0117  0.1213
  232MOL0     C30518   2.082   1.728  11.695  0.2403  0.2693 -0.2696
  232MOL0     C30519   1.954   1.666  11.708 -0.7115 -0.9323 -0.0077
  232MOL0     C30520   1.878   1.648  11.592  1.1242 -0.3764  0.3817
  232MOL0     C30521   1.738   1.588  11.595 -0.3839  1.0818  0.4672
  232MOL0     O30522   1.675   1.582  11.473 -0.4370  0.1403 -0.1714
  232MOL0     C30523   1.540   1.548  11.483  0.7329  0.7399  0.2645
  232MOL0     C30524   1.487   1.440  11.412  1.0665  0.0274 -0.1350
  232MOL0     C30525   1.354   1.399  11.426 -0.3427 -0.8977  0.9398
  232MOL0     C30526   1.275   1.471  11.516  0.5069  0.0466  0.4734
  232MOL0     O30527   1.149   1.426  11.539 -0.9913 -0.0011 -0.6325
  232MOL0     C30528   1.059   1.514  11.612  0.0547  0.3438 -0.0095
  232MOL0     C30529   0.916   1.466  11.606 -0.1573 -0.2037 -0.7919
  232MOL0     C30530   0.857   1.439  11.469  0.1257  0.2611  0.8972
  232MOL0     C30531   0.714   1.378  11.466  0.9872  0.1161 -0.5843
  232MOL0     C30532   0.667   1.356  11.324  0.2632  0.0757  0.2851
  232MOL0     C30533   0.533   1.272  11.308  0.5793  0.5541 -1.1121
  232MOL0     C30534   0.546   1.136  11.383  0.7606  0.2690 -0.2423
  232MOL0     C30535   0.432   1.037  11.355  0.3729  0.6184 -0.2285
  232MOL0    Cl30536   0.278   1.111  11.410 -0.3221 -0.2823  0.0745
  232MOL0     C30537   1.326   1.579  11.587  0.4516 -0.2730  0.1079
  232MOL0     C30538   1.461   1.616  11.573  0.7742  0.1650 -0.1529
  232MOL0     O30539   1.701   1.533  11.696 -0.6014  0.1140  0.3102
  232MOL0     C30540   1.928   1.690  11.465  1.0274  0.1882  0.3566
  232MOL0     C30541   2.052   1.750  11.456  0.1241  0.3353 -0.7312
  232MOL0     N30542   2.528   2.058  11.146 -0.2272  0.4215  0.2008
  232MOL0     N30543   2.583   2.123  11.045  0.4900 -0.1449  0.6168
  232MOL0     C30544   3.922   1.859  10.809 -0.0989 -0.0950  0.2159
  232MOL0     C30545   4.060   1.880  10.815 -0.3759  0.2943  0.4005
  232MOL0     C30546   4.436   2.047  10.954 -0.1093  0.9534  0.0423
  232MOL0     C30547   4.483   2.057  11.091 -0.2951  0.6485 -0.2688
  232MOL0     C30548   4.613   2.059  11.130  0.3771 -0.6264 -0.1573
  232MOL0     C30549   4.704   2.062  11.026 -0.6839 -0.4975 -0.4628
  232MOL0     O30550   4.836   2.068  11.037  0.4162 -0.0046 -0.8509
  232MOL0     C30551   4.890   2.043  11.170  0.0053 -0.9005 -0.1237
  232MOL0     C30552   5.036   2.016  11.168  0.1008 -0.6854  0.4984
  232MOL0     C30553   5.110   2.039  11.306 -0.4016 -0.3645 -0.4081
  232MOL0     C30554   5.056   1.973  11.426 -0.4664 -0.2307 -0.3383
  232MOL0     C30555   5.165   1.952  11.525 -0.4515  0.8168  0.3826
  232MOL0     C30556   5.251   1.943  11.610  0.3925 -0.7405 -0.2712
  232MOL0     C30557   4.657   2.059  10.897 -0.6686 -0.6163 -0.3123
  232MOL0     C30558   4.530   2.051  10.855  0.5769 -0.1818 -0.6928
  232MOL0     H30559   4.055   2.205  10.716 -0.6947  0.0589 -1.1865
  232MOL0     H30560   3.831   2.173  10.698  1.1275  0.9511  0.8185
  232MOL0     H30561   3.618   2.134  10.721  0.0170  0.3569 -0.5361
  232MOL0     H30562   3.643   2.098  10.901 -0.3965 -1.0648  0.8855
  232MOL0     H30563   3.452   1.973  10.911  2.0459 -3.4311 -1.8899
  232MOL0     H30564   3.457   1.931  10.738  1.8566 -3.2255  1.5236
  232MOL0     H30565   3.382   2.147  10.684 -1.7027 -4.5984 -1.0566
  232MOL0     H30566   3.404   2.219  10.850 -0.1534  1.6425 -1.0665
  232MOL0     H30567   3.198   2.006  10.791  0.5207 -0.2676  1.0487
  232MOL0     H30568   3.250   2.064  10.950  4.7994  1.2957  0.0371
  232MOL0     H30569   3.169   2.280  10.741  2.1498  1.5547  0.8825
  232MOL0     H30570   3.170   2.283  10.915  1.8833  0.4853 -0.3465
  232MOL0     H30571   2.967   2.125  10.723  0.7448 -0.3827 -0.0659
  232MOL0     H30572   2.958   2.288  10.785  0.3626  0.3043 -1.9406
  232MOL0     H30573   2.993   2.014  10.946  2.5020  1.2411  0.3996
  232MOL0     H30574   2.957   2.167  11.022 -1.6942  1.0274 -0.7464
  232MOL0     H30575   2.778   2.013  10.823 -1.6659 -1.1828  0.2491
  232MOL0     H30576   2.753   2.180  10.851  1.6202 -0.6736 -2.7109
  232MOL0     H30577   2.795   1.885  11.105  0.2498  0.6718 -1.7823
  232MOL0     H30578   2.659   1.895  11.373  0.8154 -0.4711  0.3628
  232MOL0     H30579   2.608   1.764  11.268  0.0842  0.3405 -0.0562
  232MOL0     H30580   2.446   1.764  11.418 -1.5566 -0.9093 -0.3619
  232MOL0     H30581   2.380   1.844  11.267 -0.4884  3.9376  0.3186
  232MOL0     H30582   2.466   1.978  11.528  0.4435  0.8411 -0.2556
  232MOL0     H30583   2.430   2.062  11.384  3.8088 -0.7028  1.3305
  232MOL0     H30584   2.176   1.988  11.424  1.6628  3.3042 -2.8244
  232MOL0     H30585   2.247   2.060  11.557 -0.3572 -1.4096  1.8285
  232MOL0     H30586   2.153   1.728  11.777 -0.8424 -1.7860  0.7596
  232MOL0     H30587   1.915   1.645  11.807  0.8306  2.2025  1.4039
  232MOL0     H30588   1.554   1.388  11.344  0.8247 -0.2071 -0.1979
  232MOL0     H30589   1.335   1.309  11.369  1.9181 -0.8963  0.0817
  232MOL0     H30590   1.059   1.618  11.576 -1.2236  1.2572  2.3412
  232MOL0     H30591   1.091   1.521  11.717 -1.1391  1.4846  0.3154
  232MOL0     H30592   0.849   1.518  11.676 -0.4225 -3.0319  1.2269
  232MOL0     H30593   0.915   1.371  11.661  3.1638 -0.3304 -0.7404
  232MOL0     H30594   0.919   1.370  11.411 -0.6672 -0.8265  1.3008
  232MOL0     H30595   0.856   1.535  11.416 -0.2645 -0.7164 -0.9727
  232MOL0     H30596   0.719   1.285  11.524 -1.7133  0.7200  0.7305
  232MOL0     H30597   0.645   1.453  11.504  1.5779  1.1008 -1.4167
  232MOL0     H30598   0.747   1.316  11.261 -0.2870  2.4756 -2.1179
  232MOL0     H30599   0.649   1.450  11.272  0.1798 -0.9022 -1.5533
  232MOL0     H30600   0.523   1.265  11.200  0.0997  2.8272 -1.2682
  232MOL0     H30601   0.443   1.327  11.339  0.3921 -0.2333 -0.2083
  232MOL0     H30602   0.635   1.085  11.343  0.5513  0.7055 -1.3049
  232MOL0     H30603   0.553   1.158  11.490  1.1525 -1.5011  0.1219
  232MOL0     H30604   0.439   0.940  11.406 -0.1961  1.6389  1.9120
  232MOL0     H30605   0.424   1.016  11.248 -1.9565 -4.7822  0.6580
  232MOL0     H30606   1.273   1.636  11.663  1.0733 -0.1020  0.4128
  232MOL0     H30607   1.486   1.707  11.627 -0.6343  0.9959 -0.8445
  232MOL0     H30608   1.871   1.682  11.373  2.1934 -1.8095 -0.2474
  232MOL0     H30609   2.087   1.781  11.357 -1.0725 -1.4880 -1.7810
  232MOL0     H30610   3.886   1.763  10.844  1.3360 -0.2904  1.2260
  232MOL0     H30611   4.125   1.798  10.843 -0.0065  0.8368  1.1625
  232MOL0     H30612   4.404   2.072  11.165  0.0241  0.4035  0.1199
  232MOL0     H30613   4.633   2.079  11.235 -1.5172 -2.0679  0.5409
  232MOL0     H30614   4.837   1.959  11.215  0.7150 -0.5278  1.4988
  232MOL0     H30615   4.865   2.127  11.236 -1.5946 -2.7989  1.8186
  232MOL0     H30616   5.042   1.916  11.123 -2.4473 -1.3626  1.5179
  232MOL0     H30617   5.084   2.075  11.089  3.9579 -4.3500 -0.2903
  232MOL0     H30618   5.102   2.148  11.316 -0.6987 -0.3735 -0.5261
  232MOL0     H30619   5.216   2.013  11.303  0.1857  1.0219  3.3371
  232MOL0     H30620   4.984   2.035  11.481  0.1766  1.6380 -1.5141
  232MOL0     H30621   5.010   1.879  11.394 -3.0537  0.7601  0.2214
  232MOL0     H30622   5.329   1.912  11.676  0.0874 -0.9372  0.0013
  232MOL0     H30623   4.738   2.064  10.824  0.9472  1.7379  1.4875
  232MOL0     H30624   4.497   2.052  10.751 -0.5520 -3.1873 -0.4471
  233MOL0     O30625   1.476  10.811   2.326 -0.3227 -0.1620  0.0565
  233MOL0     C30626   1.540  10.916   2.365  0.3314  0.0935  0.2701
  233MOL0     O30627   1.505  11.002   2.481 -1.0668 -0.8679 -0.3733
  233MOL0     C30628   1.387  10.992   2.540 -0.0857  0.3493  0.4424
  233MOL0     C30629   1.270  10.986   2.463  0.2192  0.5299 -0.6740
  233MOL0     C30630   1.147  10.986   2.525  0.3260  0.0373 -0.6342
  233MOL0     C30631   1.139  11.004   2.665 -0.8049  0.2619 -0.2068
  233MOL0     O30632   1.022  11.019   2.730  0.7842  0.5778  0.2232
  233MOL0     C30633   0.903  10.991   2.660  0.3999 -0.2400  0.0022
  233MOL0     C30634   0.788  10.997   2.765 -0.4045 -0.1739 -0.2738
  233MOL0     C30635   0.648  10.967   2.706 -0.8650 -0.3491  1.8256
  233MOL0     C30636   0.550  10.934   2.818  0.7096  0.8692 -0.2740
  233MOL0     C30637   0.401  10.902   2.758 -0.7763  0.4743 -0.1118
  233MOL0     C30638   0.293  10.846   2.866 -1.0074 -0.6035  0.4264
  233MOL0     C30639   0.162  10.818   2.803  0.0355 -0.1208 -0.0838
  233MOL0     C30640   0.159  10.691   2.718 -0.2638  0.2548 -0.2453
  233MOL0     N30641   0.018  10.651   2.677  0.7943  0.2799  0.2287
  233MOL0     C30642  -0.072  10.587   2.756 -0.7613  0.4293 -0.3879
  233MOL0     C30643  -0.178  10.573   2.674 -0.0409  0.8859 -0.0464
  233MOL0     C30644  -0.295  10.477   2.704  0.3982  0.0147  1.7434
  233MOL0     C30645  -0.377  10.519   2.829  0.1707 -0.2098 -0.5769
  233MOL0     C30646  -0.417  10.668   2.831 -0.0414 -0.4066  0.5402
  233MOL0     C30647  -0.527  10.704   2.930  0.3282  0.4200  0.9482
  233MOL0     O30648  -0.650  10.653   2.877 -0.0375 -0.0067  0.0060
  233MOL0     C30649  -0.752  10.722   2.931  0.7804 -0.8527 -0.0603
  233MOL0     C30650  -0.773  10.736   3.073  0.2268 -0.2404  0.0612
  233MOL0     C30651  -0.889  10.798   3.124 -0.5575 -0.3989  0.5104
  233MOL0     C30652  -0.974  10.865   3.033  0.3849  0.0104  0.7073
  233MOL0     C30653  -1.066  10.969   3.085 -0.5324  0.2046  0.9096
  233MOL0     O30654  -1.089  10.973   3.213 -0.1303 -0.5258  0.2500
  233MOL0     C30655  -1.206  11.028   3.264 -0.4555  0.3973 -0.1690
  233MOL0     C30656  -1.340  10.992   3.232  0.0568  0.1286 -0.2615
  233MOL0     C30657  -1.454  11.032   3.304  0.8087 -1.5433  0.7572
  233MOL0     C30658  -1.436  11.112   3.419  0.0802  0.1354  0.6014
  233MOL0     O30659  -1.539  11.152   3.505 -0.1014  0.1916 -0.0837
  233MOL0     C30660  -1.670  11.175   3.442  0.1166 -1.1181 -0.8370
  233MOL0     C30661  -1.762  11.060   3.479  0.4863  0.1267  0.3303
  233MOL0     C30662  -1.896  11.084   3.407  1.1938 -0.4404  0.0612
  233MOL0     C30663  -1.996  10.993   3.464  0.4322  0.8957 -0.3718
  233MOL0     C30664  -2.141  11.012   3.402 -0.8504  0.1246  0.0680
  233MOL0     C30665  -2.254  10.929   3.479 -0.5781 -0.3680 -0.9293
  233MOL0     C30666  -2.397  10.929   3.411  0.6998 -0.5382 -0.1401
  233MOL0     C30667  -2.479  10.818   3.465  0.4466  0.2683  0.5314
  233MOL0    Cl30668  -2.639  10.808   3.379 -0.1595 -0.0631 -0.2949
  233MOL0     C30669  -1.312  11.127   3.469  0.6332 -0.7486 -0.5646
  233MOL0     C30670  -1.200  11.092   3.390 -0.4450 -0.7178  0.5046
  233MOL0     O30671  -1.122  11.042   3.002  0.1488  0.3202 -0.3329
  233MOL0     C30672  -0.946  10.859   2.894 -0.2908  0.0445 -0.0322
  233MOL0     C30673  -0.844  10.780   2.842 -0.0151  0.7078 -0.0089
  233MOL0     N30674  -0.157  10.629   2.553  0.0783  0.1375  0.1583
  233MOL0     N30675  -0.036  10.684   2.557 -0.0847 -0.6225 -0.3147
  233MOL0     C30676   1.258  11.011   2.744  0.9933  0.0521  0.4785
  233MOL0     C30677   1.383  10.998   2.679 -0.2763 -0.3869 -0.3949
  233MOL0     C30678   1.658  10.949   2.289 -0.7241  0.0439 -0.5817
  233MOL0     C30679   1.707  10.863   2.186 -0.2660  0.2312  0.3148
  233MOL0     C30680   1.820  10.900   2.113  0.1108  0.7536  0.2237
  233MOL0     C30681   1.896  11.012   2.147  0.9315 -0.3600 -0.2502
  233MOL0     O30682   2.000  11.046   2.063  0.8228 -0.9816 -0.3067
  233MOL0     C30683   2.102  11.140   2.106 -0.7590 -0.3146 -0.1454
  233MOL0     C30684   2.220  11.130   2.011 -0.9548 -1.1883  0.4657
  233MOL0     C30685   2.322  11.240   2.042 -0.1764 -0.3749  0.4755
  233MOL0     C30686   2.427  11.255   1.936  0.3603 -0.4512  0.0912
  233MOL0     C30687   2.374  11.341   1.826 -0.4246 -0.7030 -0.3282
  233MOL0     C30688   2.312  11.413   1.749  0.1466  0.5121 -1.0125
  233MOL0     C30689   1.860  11.092   2.254 -0.0982  0.3807 -0.3862
  233MOL0     C30690   1.741  11.058   2.327 -0.4941  0.2999  0.7986
  233MOL0     H30691   1.265  10.989   2.355  2.6358 -0.1012 -0.8625
  233MOL0     H30692   1.057  10.984   2.464  0.0737  0.0758 -0.2691
  233MOL0     H30693   0.894  10.890   2.619 -1.3958  0.7296 -2.1747
  233MOL0     H30694   0.881  11.052   2.572  0.3996 -0.3995 -0.1076
  233MOL0     H30695   0.790  11.093   2.817  3.3965  0.7890 -1.8404
  233MOL0     H30696   0.815  10.919   2.836  1.2460  0.4329 -0.1850
  233MOL0     H30697   0.664  10.887   2.633  0.0052  0.2808  1.2945
  233MOL0     H30698   0.614  11.059   2.657  1.8402  0.2799  0.9706
  233MOL0     H30699   0.587  10.856   2.884 -0.6197  1.4336  1.2254
  233MOL0     H30700   0.537  11.021   2.883 -3.3326 -1.5934  2.7129
  233MOL0     H30701   0.400  10.819   2.687 -0.2114 -0.8446  1.3752
  233MOL0     H30702   0.357  10.995   2.719 -1.5443 -0.4666 -1.5898
  233MOL0     H30703   0.285  10.920   2.946 -0.8577  2.4779 -2.1955
  233MOL0     H30704   0.317  10.746   2.904 -1.6582 -1.2930 -0.9046
  233MOL0     H30705   0.103  10.808   2.895  0.8126  2.3112  0.7324
  233MOL0     H30706   0.121  10.901   2.745  0.5417  0.8219  0.8705
  233MOL0     H30707   0.193  10.602   2.772  0.5848  0.4539 -0.4336
  233MOL0     H30708   0.233  10.704   2.638  2.6317  1.3628  2.3921
  233MOL0     H30709  -0.057  10.564   2.861 -0.8412 -3.1579 -1.0402
  233MOL0     H30710  -0.270  10.371   2.714  1.8625  0.0550 -0.6118
  233MOL0     H30711  -0.357  10.495   2.616  0.9537 -0.4316  1.2549
  233MOL0     H30712  -0.324  10.494   2.922 -1.3876 -0.4907  0.2749
  233MOL0     H30713  -0.472  10.465   2.831  1.1119 -2.0742 -2.5273
  233MOL0     H30714  -0.324  10.721   2.857  0.2919 -0.5790 -0.2598
  233MOL0     H30715  -0.447  10.701   2.731  3.9825  0.3987 -0.5844
  233MOL0     H30716  -0.525  10.812   2.944 -2.0442  0.9147 -1.7230
  233MOL0     H30717  -0.507  10.653   3.024  0.6878 -0.5721  0.3468
  233MOL0     H30718  -0.702  10.691   3.142  0.2843  1.8442  1.4629
  233MOL0     H30719  -0.912  10.810   3.230 -0.3412  0.7251  0.4421
  233MOL0     H30720  -1.349  10.925   3.147  1.6223  0.2724 -0.5656
  233MOL0     H30721  -1.554  11.006   3.269  0.7808 -0.5979  0.1142
  233MOL0     H30722  -1.656  11.184   3.334 -0.4398 -0.9859 -0.8993
  233MOL0     H30723  -1.701  11.275   3.472  0.6314 -0.5702 -2.0801
  233MOL0     H30724  -1.780  11.058   3.587  0.2765  2.1125  0.3590
  233MOL0     H30725  -1.720  10.967   3.440  0.7060  1.6114 -3.3247
  233MOL0     H30726  -1.880  11.067   3.300  1.1791  4.0404 -0.8598
  233MOL0     H30727  -1.932  11.187   3.409  0.7057 -0.5998  2.4659
  233MOL0     H30728  -1.961  10.893   3.437  0.1950  1.6058 -3.6571
  233MOL0     H30729  -2.004  11.000   3.573 -0.5140 -0.4307 -0.3220
  233MOL0     H30730  -2.140  10.982   3.297  0.7102 -2.0905  0.6451
  233MOL0     H30731  -2.161  11.119   3.405  0.5431  0.4771 -1.7993
  233MOL0     H30732  -2.259  10.964   3.582  2.6866  2.4312 -1.5380
  233MOL0     H30733  -2.219  10.825   3.476  1.8038  0.3675 -1.0731
  233MOL0     H30734  -2.448  11.022   3.436 -0.5385 -1.5335  1.2282
  233MOL0     H30735  -2.382  10.921   3.303 -0.8764  1.2137 -0.5406
  233MOL0     H30736  -2.502  10.824   3.572 -0.0598 -2.6433  0.6900
  233MOL0     H30737  -2.425  10.722   3.459 -0.1637  0.0202 -1.5254
  233MOL0     H30738  -1.278  11.163   3.566  1.8824 -0.1073 -1.2059
  233MOL0     H30739  -1.103  11.112   3.435  0.4198 -1.4880 -0.8967
  233MOL0     H30740  -0.993  10.939   2.838  0.2941  0.5794  0.2211
  233MOL0     H30741  -0.831  10.764   2.736 -0.2906 -0.5573  0.1349
  233MOL0     H30742   1.244  11.013   2.852 -2.0686  0.2323  0.1471
  233MOL0     H30743   1.472  10.990   2.742 -0.3983 -3.3755 -0.4337
  233MOL0     H30744   1.651  10.773   2.164 -0.8333  0.5022  0.6201
  233MOL0     H30745   1.847  10.840   2.028  0.9572  4.2580 -2.2161
  233MOL0     H30746   2.136  11.122   2.209  2.0994  0.1997 -0.9067
  233MOL0     H30747   2.064  11.242   2.115 -2.2965 -0.8082 -0.7256
  233MOL0     H30748   2.261  11.029   2.015 -0.3026 -1.1031 -2.1072
  233MOL0     H30749   2.179  11.138   1.910 -1.3931  0.3776  0.7429
  233MOL0     H30750   2.375  11.214   2.134  0.9724  0.3420  0.0239
  233MOL0     H30751   2.268  11.333   2.062 -1.7316 -0.2013 -3.5495
  233MOL0     H30752   2.522  11.300   1.966 -0.4389  2.3017 -1.1527
  233MOL0     H30753   2.453  11.158   1.893  1.5394 -1.8126  3.5015
  233MOL0     H30754   2.268  11.480   1.679  0.8151  0.3641 -1.5868
  233MOL0     H30755   1.925  11.174   2.284  1.9494 -1.0038 -0.8594
  233MOL0     H30756   1.710  11.122   2.408 -1.2085  1.3703 -0.2821
  234MOL0     O30757   7.452   9.396   0.319 -0.1169 -0.4329 -0.0749
  234MOL0     C30758   7.385   9.496   0.282  1.5268 -0.1921 -0.6984
  234MOL0     O30759   7.272   9.491   0.201 -0.3973  0.2801  0.1530
  234MOL0     C30760   7.244   9.370   0.143  0.1275 -0.9550  0.3719
  234MOL0     C30761   7.196   9.263   0.219 -0.0064  0.5526  0.0704
  234MOL0     C30762   7.154   9.138   0.153  0.3183  0.1871  0.2270
  234MOL0     C30763   7.174   9.121   0.015  0.2088  0.6884  0.7799
  234MOL0     O30764   7.156   8.995  -0.047 -0.0828 -0.9726  0.3429
  234MOL0     C30765   7.066   8.901   0.007  0.1632  0.4904 -0.5151
  234MOL0     C30766   7.040   8.815  -0.111 -0.3445 -0.5749  0.5974
  234MOL0     C30767   6.936   8.713  -0.084 -0.3554  0.1787  0.1347
  234MOL0     C30768   6.790   8.752  -0.067  0.3628  0.0514 -0.5576
  234MOL0     C30769   6.716   8.629  -0.021 -0.1989  0.0583  0.0830
  234MOL0     C30770   6.570   8.651   0.014  0.6228 -1.0989 -0.1305
  234MOL0     C30771   6.485   8.695  -0.106  0.2313 -0.4236  0.2209
  234MOL0     C30772   6.332   8.694  -0.080  0.0239 -0.2362 -1.0257
  234MOL0     N30773   6.256   8.724  -0.198 -0.3825 -0.2663 -0.2769
  234MOL0     C30774   6.177   8.841  -0.225 -0.3745 -0.2329 -0.3915
  234MOL0     C30775   6.114   8.819  -0.342  0.2008  0.3695 -0.3485
  234MOL0     C30776   6.033   8.918  -0.416  1.3954 -0.1990  0.2066
  234MOL0     C30777   5.899   8.873  -0.477  0.0956 -0.6711  0.5973
  234MOL0     C30778   5.837   8.980  -0.577 -0.6550  0.5221 -0.1822
  234MOL0     C30779   5.719   8.911  -0.645 -0.1593  0.2445  0.2534
  234MOL0     O30780   5.667   9.005  -0.738 -0.4851 -0.3347  0.5397
  234MOL0     C30781   5.537   8.983  -0.783 -0.0676 -0.0628  0.1577
  234MOL0     C30782   5.450   9.092  -0.793  0.4110  0.8786  0.0352
  234MOL0     C30783   5.313   9.074  -0.830  0.1092 -0.6946  0.9926
  234MOL0     C30784   5.263   8.938  -0.841  0.0743 -0.0734 -0.5146
  234MOL0     C30785   5.123   8.923  -0.889  0.2486 -0.4923 -1.2470
  234MOL0     O30786   5.036   9.027  -0.875  0.0915 -1.2493  0.4424
  234MOL0     C30787   4.906   9.005  -0.912  0.5466 -0.4602  0.0769
  234MOL0     C30788   4.822   8.902  -0.859 -0.6562 -0.2102 -0.2990
  234MOL0     C30789   4.689   8.895  -0.911  0.1164 -0.3600 -0.2256
  234MOL0     C30790   4.639   8.978  -1.008  0.4583 -0.9656 -0.6283
  234MOL0     O30791   4.511   8.964  -1.054  0.0313 -0.0968 -0.9092
  234MOL0     C30792   4.523   8.933  -1.189  0.8068  0.6317  0.1383
  234MOL0     C30793   4.375   8.892  -1.232 -0.3450  0.7345  0.2833
  234MOL0     C30794   4.312   8.794  -1.147  0.3101  0.3331 -0.5704
  234MOL0     C30795   4.173   8.737  -1.196 -0.6076  0.9865 -0.4809
  234MOL0     C30796   4.172   8.671  -1.338  0.2557 -0.1481  0.4928
  234MOL0     C30797   4.275   8.558  -1.359 -0.3672  0.3947 -0.1826
  234MOL0     C30798   4.260   8.441  -1.272  0.4788  0.1100  0.5021
  234MOL0     C30799   4.129   8.362  -1.287  0.4747 -0.1250 -0.1842
  234MOL0    Cl30800   4.005   8.447  -1.196 -0.2301  0.0952  0.0788
  234MOL0     C30801   4.725   9.080  -1.053 -0.1795 -0.4979  0.7878
  234MOL0     C30802   4.853   9.091  -1.005  0.6406  0.2705 -0.4479
  234MOL0     O30803   5.093   8.805  -0.908 -0.1795  0.3627  0.4790
  234MOL0     C30804   5.356   8.835  -0.849 -0.3662  0.8941 -0.1767
  234MOL0     C30805   5.483   8.853  -0.797  0.5860  1.4613  0.3445
  234MOL0     N30806   6.132   8.685  -0.376 -0.5591  0.1458 -0.4730
  234MOL0     N30807   6.204   8.631  -0.284  0.6578  0.0691  0.2829
  234MOL0     C30808   7.224   9.231  -0.059 -0.2285 -0.0380 -0.1974
  234MOL0     C30809   7.260   9.352   0.004  0.3467  0.7289 -0.0505
  234MOL0     C30810   7.433   9.636   0.318  0.0497  0.1581 -0.4010
  234MOL0     C30811   7.552   9.657   0.402 -0.6152  0.1486  0.1140
  234MOL0     C30812   7.600   9.784   0.427 -0.3526  0.5611  0.2478
  234MOL0     C30813   7.548   9.892   0.351 -0.3958 -0.0019 -0.5275
  234MOL0     O30814   7.601  10.021   0.365 -0.1318  0.6068 -0.5268
  234MOL0     C30815   7.741  10.037   0.365  0.5354 -0.0123 -0.3167
  234MOL0     C30816   7.783  10.129   0.243 -0.2826 -0.3794 -0.0107
  234MOL0     C30817   7.933  10.118   0.208  0.2359  0.0227 -0.5826
  234MOL0     C30818   8.030  10.172   0.318  0.0278 -0.2505 -0.5137
  234MOL0     C30819   8.134  10.256   0.255  0.4723  0.1948 -0.0684
  234MOL0     C30820   8.222  10.318   0.201  0.1824 -0.0030  0.6521
  234MOL0     C30821   7.436   9.878   0.276  0.6428 -0.0508  0.9565
  234MOL0     C30822   7.374   9.753   0.260 -0.0940 -1.0208 -0.1205
  234MOL0     H30823   7.191   9.273   0.327  0.8759  1.1075  0.0710
  234MOL0     H30824   7.109   9.053   0.203  0.8726 -0.2661 -0.0330
  234MOL0     H30825   6.980   8.951   0.052 -1.5779 -0.3280 -2.7844
  234MOL0     H30826   7.115   8.846   0.088 -0.6105  0.4231 -0.0791
  234MOL0     H30827   7.130   8.762  -0.145 -0.3368  0.5326 -1.2289
  234MOL0     H30828   7.017   8.869  -0.204 -1.1713  0.9178  1.6386
  234MOL0     H30829   6.956   8.674   0.016 -2.7055  0.6150  0.8508
  234MOL0     H30830   6.943   8.636  -0.161  4.7075  1.4294 -1.0067
  234MOL0     H30831   6.772   8.837  -0.001  0.3633  1.3780 -2.1745
  234MOL0     H30832   6.757   8.769  -0.171 -1.4311 -1.6752 -0.3361
  234MOL0     H30833   6.766   8.596   0.070 -1.2254 -0.5582  0.4254
  234MOL0     H30834   6.721   8.552  -0.099  1.4790 -0.6468  0.8475
  234MOL0     H30835   6.577   8.733   0.086  3.6520  1.8087 -3.3516
  234MOL0     H30836   6.537   8.556   0.058  4.9340 -2.4102  0.7345
  234MOL0     H30837   6.512   8.796  -0.138 -0.3004 -0.7675 -1.4160
  234MOL0     H30838   6.510   8.636  -0.194  0.8076  1.0414 -0.6392
  234MOL0     H30839   6.318   8.778  -0.012  1.6024  0.1034 -1.0650
  234MOL0     H30840   6.304   8.599  -0.033 -0.2909  1.0452  1.5452
  234MOL0     H30841   6.184   8.941  -0.183 -1.3334 -0.0898 -0.5417
  234MOL0     H30842   6.095   8.958  -0.497 -3.8767  0.5653 -3.9987
  234MOL0     H30843   6.005   9.000  -0.350 -0.4272  0.0458 -0.8047
  234MOL0     H30844   5.829   8.864  -0.394 -0.0746 -0.3708  0.4845
  234MOL0     H30845   5.929   8.781  -0.529  3.8676  0.9276 -0.4556
  234MOL0     H30846   5.780   9.056  -0.522 -1.4346 -1.3033  1.6852
  234MOL0     H30847   5.909   9.016  -0.651  0.6712 -0.6829  0.4496
  234MOL0     H30848   5.642   8.873  -0.577  1.6002 -1.0463  1.6149
  234MOL0     H30849   5.755   8.830  -0.710 -1.2026 -0.7212  0.8305
  234MOL0     H30850   5.499   9.189  -0.792  2.0979  0.0718  1.5540
  234MOL0     H30851   5.258   9.165  -0.852  1.2913 -0.7228 -2.7585
  234MOL0     H30852   4.867   8.837  -0.784  1.2877 -1.6029 -2.5254
  234MOL0     H30853   4.616   8.823  -0.875 -2.0441  1.7129 -0.2551
  234MOL0     H30854   4.593   8.852  -1.209  1.7930  0.3163  4.0378
  234MOL0     H30855   4.553   9.019  -1.250 -0.1822  1.5837  0.9581
  234MOL0     H30856   4.389   8.864  -1.337  2.9627  2.3630  0.1697
  234MOL0     H30857   4.310   8.980  -1.225  2.2979  2.7947  0.5727
  234MOL0     H30858   4.302   8.844  -1.050  1.6285  1.1715 -0.8399
  234MOL0     H30859   4.384   8.713  -1.134 -1.4219 -1.2506 -0.3791
  234MOL0     H30860   4.138   8.659  -1.127 -0.8878 -0.6468 -2.3509
  234MOL0     H30861   4.109   8.826  -1.202 -0.1845  1.5677  2.3036
  234MOL0     H30862   4.210   8.744  -1.410  5.1875 -2.9780 -0.2743
  234MOL0     H30863   4.072   8.644  -1.370  0.8467  0.8098 -2.4282
  234MOL0     H30864   4.376   8.598  -1.355  0.7277 -2.1693 -0.4231
  234MOL0     H30865   4.267   8.535  -1.466 -0.7917 -0.1439 -0.0399
  234MOL0     H30866   4.341   8.376  -1.307  0.2916 -1.3423  2.6224
  234MOL0     H30867   4.285   8.464  -1.168  0.5403  0.6293  0.3773
  234MOL0     H30868   4.161   8.270  -1.239  0.9249  0.4534  0.6368
  234MOL0     H30869   4.106   8.338  -1.391 -2.4461 -1.5414  0.6730
  234MOL0     H30870   4.693   9.158  -1.120  1.2186  2.5157  3.3902
  234MOL0     H30871   4.924   9.163  -1.043  4.7098 -0.9145  3.8643
  234MOL0     H30872   5.323   8.732  -0.854 -0.8356  0.9114  1.6366
  234MOL0     H30873   5.554   8.776  -0.768  1.1945  1.9513  0.1681
  234MOL0     H30874   7.240   9.212  -0.164 -0.1495 -1.4119  0.0404
  234MOL0     H30875   7.273   9.433  -0.068  0.6817 -0.0998 -0.9492
  234MOL0     H30876   7.609   9.571   0.436 -0.8095 -0.0175  0.0195
  234MOL0     H30877   7.678   9.807   0.499  1.2225  1.3791 -1.6488
  234MOL0     H30878   7.797   9.943   0.363  2.4372  1.0801 -1.6562
  234MOL0     H30879   7.769  10.076   0.464  1.2324  1.2141 -0.9713
  234MOL0     H30880   7.719  10.099   0.160 -0.7726 -0.3274  0.3432
  234MOL0     H30881   7.758  10.234   0.262 -1.3802 -0.7213  0.5223
  234MOL0     H30882   7.950  10.179   0.119  0.1236  0.8202 -0.0715
  234MOL0     H30883   7.965  10.019   0.175  0.3903  0.6248 -2.3095
  234MOL0     H30884   7.976  10.239   0.385  1.4501  1.7174 -1.2311
  234MOL0     H30885   8.072  10.086   0.372  2.7137  3.0759  3.2721
  234MOL0     H30886   8.314  10.345   0.152  0.6456  0.8829  1.9543
  234MOL0     H30887   7.398   9.966   0.226  1.2133 -0.1991  0.2490
  234MOL0     H30888   7.282   9.751   0.202 -0.4796 -0.0039  0.4337
  235MOL0     O30889   2.880   3.385   7.947  0.0752 -0.3820 -0.1106
  235MOL0     C30890   2.796   3.457   7.886 -0.1752  0.7005 -0.5494
  235MOL0     O30891   2.810   3.527   7.763  0.3405 -0.3008 -0.1577
  235MOL0     C30892   2.928   3.517   7.691 -0.5969 -0.6879 -0.2312
  235MOL0     C30893   2.961   3.612   7.607 -0.8295 -0.2671  1.3008
  235MOL0     C30894   3.077   3.606   7.526  0.2895 -0.6807 -0.3558
  235MOL0     C30895   3.156   3.492   7.527 -1.0640 -0.2847  0.1204
  235MOL0     O30896   3.274   3.479   7.447  0.1483 -0.2592  0.0742
  235MOL0     C30897   3.292   3.563   7.329 -0.2907  0.4763 -0.3447
  235MOL0     C30898   3.399   3.668   7.369  0.6374 -0.9375 -0.0439
  235MOL0     C30899   3.407   3.792   7.277 -0.2583 -0.4817  0.6724
  235MOL0     C30900   3.277   3.862   7.228  0.1424  0.6873  0.1012
  235MOL0     C30901   3.299   4.001   7.162  0.4695 -0.8800 -0.2511
  235MOL0     C30902   3.437   3.997   7.078 -0.1513  0.0638 -0.0719
  235MOL0     C30903   3.459   4.131   7.001  0.4750  0.0871  0.6436
  235MOL0     C30904   3.501   4.242   7.096 -0.3726 -1.2242  0.1123
  235MOL0     N30905   3.617   4.213   7.176 -0.6333  0.2217  0.2888
  235MOL0     C30906   3.737   4.174   7.129  1.1845 -0.0389 -0.4614
  235MOL0     C30907   3.812   4.152   7.242 -0.5761 -0.9896  0.5947
  235MOL0     C30908   3.954   4.091   7.251 -1.4195  0.9561  0.0259
  235MOL0     C30909   4.056   4.196   7.299 -0.1268 -0.0871  0.0564
  235MOL0     C30910   4.040   4.246   7.431 -0.2104 -0.1367 -0.3380
  235MOL0     C30911   4.090   4.394   7.449  0.1861 -0.9766  0.0165
  235MOL0     O30912   4.043   4.498   7.360  0.2852  0.3668 -0.5790
  235MOL0     C30913   3.907   4.503   7.368 -0.3766  0.4330  0.8399
  235MOL0     C30914   3.846   4.555   7.252  1.0953  0.1663 -0.1949
  235MOL0     C30915   3.705   4.564   7.239 -0.5697 -0.1103  0.0377
  235MOL0     C30916   3.633   4.522   7.349  0.0878  0.3346  0.0608
  235MOL0     C30917   3.478   4.511   7.345  0.0338 -0.2378 -0.4857
  235MOL0     O30918   3.410   4.487   7.463  0.2941 -0.0506  0.3277
  235MOL0     C30919   3.274   4.482   7.446 -0.5865 -0.7071 -0.3583
  235MOL0     C30920   3.196   4.591   7.498  0.3004  0.6077  0.5604
  235MOL0     C30921   3.058   4.602   7.492 -0.2329 -0.3870 -0.4246
  235MOL0     C30922   2.985   4.482   7.453  0.4733  1.2160 -0.1509
  235MOL0     O30923   2.852   4.469   7.457 -0.3499  0.4157 -0.4110
  235MOL0     C30924   2.795   4.477   7.586  0.3595 -0.5776 -1.3294
  235MOL0     C30925   2.648   4.457   7.578  0.5283 -0.0815  0.3058
  235MOL0     C30926   2.614   4.315   7.557  0.7083  0.4308  0.5777
  235MOL0     C30927   2.468   4.273   7.600 -0.5147  0.3083  0.3505
  235MOL0     C30928   2.369   4.330   7.499  0.4789 -0.4364 -0.2005
  235MOL0     C30929   2.353   4.242   7.372  0.0673 -0.0575 -0.4857
  235MOL0     C30930   2.296   4.329   7.258 -0.7454 -0.2580  0.1795
  235MOL0     C30931   2.287   4.249   7.136  0.1376 -0.7640 -0.2595
  235MOL0    Cl30932   2.163   4.125   7.174  0.2346 -0.3725 -0.2183
  235MOL0     C30933   3.057   4.372   7.397  0.0373  0.8318  0.1446
  235MOL0     C30934   3.202   4.379   7.399 -0.0962  0.6548  0.1800
  235MOL0     O30935   3.427   4.534   7.236 -0.8252  0.0811  0.6264
  235MOL0     C30936   3.700   4.470   7.455  0.7539 -0.9870 -0.6164
  235MOL0     C30937   3.831   4.469   7.475  0.0316 -0.2959  0.0184
  235MOL0     N30938   3.730   4.168   7.350  0.1504 -0.0162  0.3415
  235MOL0     N30939   3.619   4.211   7.308  0.0859  1.0392  0.0994
  235MOL0     C30940   3.122   3.390   7.616  1.3704 -0.0120 -0.8095
  235MOL0     C30941   3.012   3.406   7.688  0.0135  0.4028 -0.9464
  235MOL0     C30942   2.655   3.446   7.941 -0.5514  0.0550  0.0092
  235MOL0     C30943   2.558   3.536   7.898 -0.1978  0.3368 -0.0576
  235MOL0     C30944   2.434   3.546   7.976 -0.3887 -0.6693  0.1456
  235MOL0     C30945   2.392   3.450   8.065 -0.2469  0.5922 -0.5496
  235MOL0     O30946   2.278   3.453   8.139 -0.0511  0.1462  0.2342
  235MOL0     C30947   2.199   3.341   8.111 -1.1088  0.0783  0.1494
  235MOL0     C30948   2.053   3.366   8.147 -0.1706  0.5938 -0.0048
  235MOL0     C30949   1.980   3.225   8.162  0.6063 -0.6684 -0.0853
  235MOL0     C30950   1.924   3.186   8.025 -0.2857  0.2935 -0.0644
  235MOL0     C30951   2.018   3.103   7.949 -0.3379  0.0191  0.1071
  235MOL0     C30952   2.107   3.046   7.894 -0.1375  0.4254  0.2351
  235MOL0     C30953   2.485   3.351   8.101 -0.4832  0.2809 -0.4951
  235MOL0     C30954   2.612   3.353   8.042 -0.0651  0.2241  0.0068
  235MOL0     H30955   2.897   3.698   7.596 -3.0501 -1.9671  0.2045
  235MOL0     H30956   3.096   3.697   7.470  0.8119 -0.6545 -0.1371
  235MOL0     H30957   3.197   3.609   7.300 -0.7659 -0.3872 -0.1998
  235MOL0     H30958   3.329   3.493   7.253 -2.6990 -3.3847  1.7194
  235MOL0     H30959   3.490   3.607   7.360  2.1255  0.8615  2.0351
  235MOL0     H30960   3.391   3.692   7.475 -1.2111  0.0437 -0.3659
  235MOL0     H30961   3.461   3.773   7.184 -0.2012 -0.4460  0.6984
  235MOL0     H30962   3.453   3.868   7.341 -2.6931 -0.1784  2.1896
  235MOL0     H30963   3.240   3.789   7.156 -2.4389 -0.4747  2.4347
  235MOL0     H30964   3.205   3.862   7.310  0.8842  2.7350  0.8280
  235MOL0     H30965   3.309   4.073   7.244  3.7150  1.2655 -2.2945
  235MOL0     H30966   3.214   4.029   7.098  0.9131 -1.6096 -1.1737
  235MOL0     H30967   3.426   3.909   7.014 -4.1941 -2.5565  3.5855
  235MOL0     H30968   3.524   3.981   7.143  0.1107  1.1167 -0.1605
  235MOL0     H30969   3.539   4.107   6.930 -0.9619 -3.1698 -0.0577
  235MOL0     H30970   3.371   4.163   6.945 -0.3785  0.6763  2.2711
  235MOL0     H30971   3.422   4.253   7.172  0.3635 -1.6180  0.9626
  235MOL0     H30972   3.517   4.330   7.034 -3.1747 -1.5768 -1.2490
  235MOL0     H30973   3.755   4.164   7.023  1.8001 -0.5282 -0.3216
  235MOL0     H30974   3.988   4.046   7.157 -0.6682 -2.2899  1.7000
  235MOL0     H30975   3.947   4.021   7.335  2.5522  1.7151  1.1820
  235MOL0     H30976   4.053   4.278   7.226  3.4071  0.9014  0.8231
  235MOL0     H30977   4.158   4.158   7.285 -1.0887 -2.7490 -0.3352
  235MOL0     H30978   3.934   4.243   7.461 -0.1796 -1.9705 -0.2717
  235MOL0     H30979   4.095   4.189   7.507  1.9554  0.6892 -1.2316
  235MOL0     H30980   4.195   4.404   7.423  0.2026 -1.5107 -0.1240
  235MOL0     H30981   4.083   4.436   7.550 -4.3611  2.1145 -1.2551
  235MOL0     H30982   3.908   4.579   7.166  2.2379  1.3495  0.9073
  235MOL0     H30983   3.662   4.602   7.146 -1.3140 -1.2181 -0.0914
  235MOL0     H30984   3.250   4.681   7.525  1.6547 -0.3065  0.9970
  235MOL0     H30985   3.016   4.698   7.521 -2.6706 -0.6266 -2.7667
  235MOL0     H30986   2.805   4.581   7.620 -1.6284 -1.1594  1.3767
  235MOL0     H30987   2.854   4.421   7.660  2.8470  2.0546 -1.1269
  235MOL0     H30988   2.613   4.518   7.494  1.9444  0.0462 -0.2193
  235MOL0     H30989   2.599   4.495   7.668 -1.2694  4.1973 -2.1851
  235MOL0     H30990   2.673   4.249   7.622  0.7828 -0.2900 -0.1993
  235MOL0     H30991   2.650   4.291   7.457  0.7635 -2.0361  1.1175
  235MOL0     H30992   2.460   4.164   7.598  0.4560  0.2077 -2.5859
  235MOL0     H30993   2.447   4.311   7.700  0.4401  1.0091  0.3031
  235MOL0     H30994   2.395   4.433   7.470 -0.5531  0.0925  0.6590
  235MOL0     H30995   2.273   4.345   7.550 -0.1552 -3.3382 -0.3755
  235MOL0     H30996   2.295   4.155   7.404  0.1473 -0.4246 -1.3373
  235MOL0     H30997   2.449   4.201   7.342 -0.5333  0.2672 -3.0189
  235MOL0     H30998   2.199   4.365   7.293 -0.9113 -1.4480  1.0198
  235MOL0     H30999   2.371   4.407   7.243 -0.9872  0.4164  2.1550
  235MOL0     H31000   2.382   4.198   7.115 -0.1301 -1.6668  0.6132
  235MOL0     H31001   2.255   4.317   7.057  2.3122  2.1560  1.2013
  235MOL0     H31002   2.995   4.290   7.364  1.7647 -1.5636  2.4088
  235MOL0     H31003   3.254   4.301   7.346 -0.5161  1.1374 -0.9753
  235MOL0     H31004   3.629   4.435   7.529 -2.2738  2.1183 -1.7703
  235MOL0     H31005   3.875   4.427   7.565  2.2881  1.5678 -0.1205
  235MOL0     H31006   3.181   3.302   7.640  1.5015  0.9413  3.1423
  235MOL0     H31007   2.997   3.322   7.756  0.4159  0.2194 -1.0854
  235MOL0     H31008   2.587   3.615   7.829 -0.6591  0.1329 -0.4895
  235MOL0     H31009   2.364   3.628   7.966  0.5222  0.1337  0.1386
  235MOL0     H31010   2.241   3.258   8.168  0.2627 -0.6832 -1.8702
  235MOL0     H31011   2.209   3.304   8.008  3.0885 -1.7886  1.0259
  235MOL0     H31012   2.045   3.424   8.240 -1.6364  2.8218 -1.4307
  235MOL0     H31013   2.004   3.427   8.071 -0.5884  1.3293  0.8411
  235MOL0     H31014   1.894   3.242   8.227  1.5991 -0.5564  1.2365
  235MOL0     H31015   2.051   3.151   8.201 -0.4382 -1.1650  0.9705
  235MOL0     H31016   1.833   3.127   8.032  0.1235 -0.1326  2.9483
  235MOL0     H31017   1.918   3.279   7.966  0.2729  0.5473  0.2651
  235MOL0     H31018   2.194   3.013   7.842 -1.4437  0.2547 -1.9590
  235MOL0     H31019   2.460   3.275   8.174  0.3897  0.5261  0.0690
  235MOL0     H31020   2.681   3.274   8.072 -0.4557 -0.9451 -1.9491
  236MOL0     O31021   9.487   6.847   0.134  0.1865 -0.3745 -0.4462
  236MOL0     C31022   9.511   6.846   0.255 -0.4691  0.1729  0.6480
  236MOL0     O31023   9.442   6.915   0.344 -0.3949  0.3769 -0.6703
  236MOL0     C31024   9.334   6.994   0.303  0.5486 -0.8378 -0.1624
  236MOL0     C31025   9.224   6.934   0.242  0.9560  0.1832  0.0896
  236MOL0     C31026   9.117   7.011   0.206 -0.6999 -1.1212  0.2452
  236MOL0     C31027   9.101   7.148   0.240 -0.0234 -0.3934 -0.4335
  236MOL0     O31028   8.984   7.218   0.195  0.2282  0.5462 -0.1177
  236MOL0     C31029   9.006   7.353   0.143 -0.1219  0.2591 -0.3810
  236MOL0     C31030   8.877   7.412   0.087  0.9869  0.1139  0.2186
  236MOL0     C31031   8.797   7.481   0.207 -0.2172 -0.2406 -0.8133
  236MOL0     C31032   8.654   7.515   0.167  0.0936 -0.5304 -0.3041
  236MOL0     C31033   8.657   7.643   0.080  0.5742 -0.6569 -0.3523
  236MOL0     C31034   8.691   7.771   0.152 -0.0367  0.0654  0.3301
  236MOL0     C31035   8.624   7.897   0.091 -0.4689  1.0809  0.5158
  236MOL0     C31036   8.707   7.939  -0.028  0.0896 -0.5292  0.0200
  236MOL0     N31037   8.631   8.037  -0.111 -0.3702 -0.3124 -0.1367
  236MOL0     C31038   8.509   8.015  -0.170  0.3433  0.1594 -0.2773
  236MOL0     C31039   8.487   8.130  -0.241 -0.3105  0.3292 -0.5346
  236MOL0     C31040   8.367   8.170  -0.313 -1.0287 -0.8988  0.0578
  236MOL0     C31041   8.284   8.255  -0.211  0.5727 -0.3382  0.3868
  236MOL0     C31042   8.154   8.314  -0.261 -0.0328 -0.3046  0.2274
  236MOL0     C31043   8.042   8.217  -0.295 -0.4769 -0.0821 -0.3421
  236MOL0     O31044   7.993   8.146  -0.182  0.4584 -0.4824  0.3677
  236MOL0     C31045   7.862   8.096  -0.176 -0.5415  0.2909  0.4148
  236MOL0     C31046   7.829   8.009  -0.078 -0.1055 -0.4879  0.0372
  236MOL0     C31047   7.707   7.954  -0.061  0.2452  0.7132  0.9109
  236MOL0     C31048   7.612   7.965  -0.165 -0.0766  0.2546 -0.6756
  236MOL0     C31049   7.483   7.887  -0.177 -0.1491 -0.0314 -0.2583
  236MOL0     O31050   7.382   7.944  -0.257 -0.8103  0.4395 -0.0376
  236MOL0     C31051   7.261   7.900  -0.223  0.1684  0.5359 -0.2438
  236MOL0     C31052   7.215   7.774  -0.274  0.6901  0.6624  0.5181
  236MOL0     C31053   7.085   7.723  -0.243 -1.0011 -0.9751  0.5938
  236MOL0     C31054   7.000   7.805  -0.174  0.1704  0.1212  0.5563
  236MOL0     O31055   6.867   7.778  -0.160  0.4227 -1.0747 -0.3156
  236MOL0     C31056   6.799   7.670  -0.229 -0.2840 -0.1062 -0.3279
  236MOL0     C31057   6.662   7.639  -0.177 -0.5907 -1.7344  0.0045
  236MOL0     C31058   6.598   7.546  -0.274 -0.8956 -0.6666  0.7804
  236MOL0     C31059   6.449   7.509  -0.252 -0.2520 -0.8826 -0.3507
  236MOL0     C31060   6.413   7.373  -0.314 -0.6173 -0.2686 -0.8382
  236MOL0     C31061   6.281   7.310  -0.261 -1.3501 -0.2922 -0.3909
  236MOL0     C31062   6.156   7.393  -0.255 -0.5618 -0.4015  0.4648
  236MOL0     C31063   6.036   7.302  -0.219  0.0716 -0.3223 -1.0009
  236MOL0    Cl31064   6.059   7.251  -0.048  0.5466  0.3031  0.0022
  236MOL0     C31065   7.051   7.925  -0.122  0.2205  0.5662  0.3574
  236MOL0     C31066   7.177   7.969  -0.137 -0.3285 -0.0591  0.3392
  236MOL0     O31067   7.466   7.787  -0.104  0.2147  0.6008 -0.3104
  236MOL0     C31068   7.644   8.060  -0.265  0.4691 -0.2838 -0.0570
  236MOL0     C31069   7.770   8.112  -0.280  0.1234 -0.0765 -0.1591
  236MOL0     N31070   8.595   8.220  -0.227  0.2433  0.2915  0.5534
  236MOL0     N31071   8.683   8.156  -0.152 -0.4914 -0.9959 -0.2389
  236MOL0     C31072   9.206   7.208   0.316  0.0083  0.3944 -0.4988
  236MOL0     C31073   9.324   7.130   0.344 -0.0606 -0.3013 -0.3410
  236MOL0     C31074   9.619   6.753   0.291 -0.2645 -0.1205  0.0145
  236MOL0     C31075   9.747   6.752   0.229 -0.4432 -0.0069 -0.8188
  236MOL0     C31076   9.851   6.663   0.261  0.8699 -0.3256  0.0005
  236MOL0     C31077   9.813   6.555   0.346 -0.0144 -0.1747  0.0468
  236MOL0     O31078   9.914   6.457   0.353  0.0594 -0.1792 -0.2484
  236MOL0     C31079   9.908   6.357   0.451 -0.3733  0.4564  0.0936
  236MOL0     C31080   9.951   6.405   0.593  0.0274 -0.3660  0.7209
  236MOL0     C31081  10.099   6.421   0.614 -0.8199  0.2397 -0.1613
  236MOL0     C31082  10.162   6.539   0.549 -0.5000 -0.0930 -0.1411
  236MOL0     C31083  10.299   6.564   0.605 -0.5865 -0.0440 -0.0681
  236MOL0     C31084  10.414   6.586   0.653 -0.4727  0.2388 -0.2684
  236MOL0     C31085   9.685   6.552   0.406  0.9030 -0.1805 -0.2907
  236MOL0     C31086   9.596   6.652   0.382  0.2411  0.5425  0.5139
  236MOL0     H31087   9.229   6.831   0.208 -0.3961  0.8139 -2.2336
  236MOL0     H31088   9.037   6.976   0.142 -0.4582  0.5627 -1.0626
  236MOL0     H31089   9.084   7.351   0.066  1.2932  0.2988  1.0227
  236MOL0     H31090   9.033   7.418   0.226  0.0672 -0.0552 -0.1976
  236MOL0     H31091   8.813   7.332   0.048  1.3349 -0.5267  0.9522
  236MOL0     H31092   8.892   7.492   0.013  1.8423 -0.4197 -0.1948
  236MOL0     H31093   8.857   7.565   0.243 -1.6005  1.4499 -2.3345
  236MOL0     H31094   8.791   7.407   0.288 -0.1634 -0.5328 -1.0748
  236MOL0     H31095   8.602   7.435   0.114 -0.0065 -0.1866 -0.7333
  236MOL0     H31096   8.583   7.536   0.248  0.6688  1.6804 -0.3091
  236MOL0     H31097   8.559   7.651   0.033 -1.2312 -0.0332  3.1509
  236MOL0     H31098   8.734   7.640   0.002 -0.2120  0.6631 -1.2165
  236MOL0     H31099   8.800   7.779   0.152 -0.0616  0.3953  0.4668
  236MOL0     H31100   8.671   7.758   0.259  0.7485  0.0785  0.4846
  236MOL0     H31101   8.519   7.882   0.067 -0.1452  0.6134 -0.7007
  236MOL0     H31102   8.616   7.981   0.161 -1.1004  1.2301  0.2682
  236MOL0     H31103   8.723   7.861  -0.104  3.5979  2.5513 -2.8683
  236MOL0     H31104   8.805   7.972   0.009  1.1987 -3.5801  0.1050
  236MOL0     H31105   8.435   7.937  -0.156 -0.0209  0.2103 -1.7654
  236MOL0     H31106   8.307   8.086  -0.348  1.3376 -2.2806 -0.8547
  236MOL0     H31107   8.395   8.234  -0.397 -0.1004  0.2889  1.2293
  236MOL0     H31108   8.345   8.341  -0.183  0.5958 -0.0037 -0.6577
  236MOL0     H31109   8.265   8.203  -0.117 -0.9038 -0.6041 -0.0200
  236MOL0     H31110   8.116   8.380  -0.182  1.2625  0.9337 -0.1292
  236MOL0     H31111   8.165   8.371  -0.354 -0.1308 -3.3384 -1.8005
  236MOL0     H31112   8.094   8.143  -0.355 -0.1648 -0.1711  0.0361
  236MOL0     H31113   7.964   8.268  -0.353 -0.3848 -0.1564 -0.5285
  236MOL0     H31114   7.905   7.993  -0.002  1.4210  1.4667 -0.9710
  236MOL0     H31115   7.686   7.903   0.033  0.5203  1.6970  1.5222
  236MOL0     H31116   7.289   7.721  -0.334 -1.2210  0.3790 -1.7832
  236MOL0     H31117   7.058   7.627  -0.286 -1.7525 -0.4889 -0.0523
  236MOL0     H31118   6.848   7.573  -0.220  0.1784  0.1910  0.4978
  236MOL0     H31119   6.799   7.696  -0.335  1.0156  0.1767 -0.2865
  236MOL0     H31120   6.604   7.731  -0.178  1.1478 -0.5679 -2.0473
  236MOL0     H31121   6.678   7.599  -0.076 -0.7075 -1.2772  0.2062
  236MOL0     H31122   6.661   7.457  -0.286 -0.3653 -0.4046  1.5330
  236MOL0     H31123   6.582   7.585  -0.375 -1.8551 -0.1323  1.1248
  236MOL0     H31124   6.426   7.509  -0.145  0.1021 -0.8719 -0.2743
  236MOL0     H31125   6.384   7.587  -0.292  0.8538  0.6601  0.7763
  236MOL0     H31126   6.482   7.289  -0.300 -1.2881 -0.6344  0.4635
  236MOL0     H31127   6.401   7.397  -0.420  1.4489  0.6122 -0.9122
  236MOL0     H31128   6.315   7.269  -0.165  3.2057  2.0028 -0.7433
  236MOL0     H31129   6.260   7.225  -0.326 -2.0004 -2.1404  2.0611
  236MOL0     H31130   6.159   7.468  -0.176  0.0015  0.7951 -0.6709
  236MOL0     H31131   6.139   7.437  -0.354 -1.9839 -0.5673  0.6141
  236MOL0     H31132   6.024   7.214  -0.283  1.0553 -0.2113 -1.3573
  236MOL0     H31133   5.945   7.361  -0.228 -0.8652 -1.5649 -0.0196
  236MOL0     H31134   6.984   7.991  -0.069 -0.4307  0.8351 -0.7780
  236MOL0     H31135   7.208   8.057  -0.080  3.2687 -0.7373 -0.3707
  236MOL0     H31136   7.563   8.088  -0.333 -0.9540  1.0094  2.0499
  236MOL0     H31137   7.787   8.188  -0.356 -0.2226 -0.9652 -1.1535
  236MOL0     H31138   9.197   7.316   0.329 -0.6155  0.2300  0.5624
  236MOL0     H31139   9.406   7.163   0.407  0.0103 -2.2272  0.6605
  236MOL0     H31140   9.765   6.833   0.158 -0.7334  1.6229  0.8827
  236MOL0     H31141   9.951   6.663   0.220  1.6140  1.4728  1.6690
  236MOL0     H31142   9.978   6.279   0.419  0.4456  1.0323  0.4358
  236MOL0     H31143   9.805   6.321   0.458  0.4541 -3.1989 -2.8951
  236MOL0     H31144   9.896   6.496   0.616  0.6711 -0.1592  1.5090
  236MOL0     H31145   9.909   6.335   0.666  1.4446 -1.7271  0.3100
  236MOL0     H31146  10.152   6.339   0.565 -1.2479  0.2325 -0.6105
  236MOL0     H31147  10.129   6.419   0.720 -0.3202 -0.7091 -0.3090
  236MOL0     H31148  10.172   6.527   0.441  1.6219  1.0543 -0.1296
  236MOL0     H31149  10.103   6.631   0.554 -1.4372 -0.4575 -2.9014
  236MOL0     H31150  10.509   6.604   0.697 -0.2238  1.2433 -1.1893
  236MOL0     H31151   9.655   6.497   0.494 -1.7305 -0.2164 -1.1213
  236MOL0     H31152   9.496   6.655   0.426 -2.2988  0.6335 -4.5514
  237MOL0     O31153   0.494   7.933   4.094  1.4199 -0.1131  0.1885
  237MOL0     C31154   0.580   7.864   4.031 -0.1111 -0.5188 -0.1489
  237MOL0     O31155   0.555   7.774   3.933 -0.0480  0.0500  1.1909
  237MOL0     C31156   0.421   7.784   3.890  0.1627 -0.4092  0.1391
  237MOL0     C31157   0.313   7.732   3.968 -0.1235  0.2389  0.5913
  237MOL0     C31158   0.183   7.733   3.922  0.5315 -0.9183  0.9317
  237MOL0     C31159   0.150   7.787   3.794 -0.2750  0.8132 -0.8622
  237MOL0     O31160   0.017   7.761   3.746  0.1050 -0.0548 -0.2447
  237MOL0     C31161  -0.026   7.815   3.614 -0.3125 -0.6181 -0.4378
  237MOL0     C31162  -0.163   7.761   3.566 -0.1596  0.4285  0.2445
  237MOL0     C31163  -0.281   7.805   3.649  0.0086  0.7951  0.4715
  237MOL0     C31164  -0.397   7.718   3.602 -0.0912 -0.8029  0.7840
  237MOL0     C31165  -0.514   7.740   3.704  0.1510  0.3169  0.3684
  237MOL0     C31166  -0.640   7.658   3.667  0.0366  0.6744  0.3310
  237MOL0     C31167  -0.762   7.671   3.761 -0.1466 -0.0184  0.1510
  237MOL0     C31168  -0.889   7.671   3.684  0.3674  0.3012 -0.1999
  237MOL0     N31169  -0.997   7.704   3.777  0.6834  0.7842  1.0988
  237MOL0     C31170  -1.035   7.616   3.873 -0.7609 -1.0688  0.0174
  237MOL0     C31171  -1.147   7.669   3.932  0.7360  0.3376 -0.2965
  237MOL0     C31172  -1.226   7.606   4.043 -0.0622 -0.1886 -0.5004
  237MOL0     C31173  -1.249   7.705   4.162  0.9632  0.4018 -0.7159
  237MOL0     C31174  -1.286   7.626   4.294 -0.2499  0.0046  0.3205
  237MOL0     C31175  -1.422   7.561   4.278 -0.4625 -0.3321  0.2664
  237MOL0     O31176  -1.427   7.445   4.195 -0.5876 -0.8479  0.3171
  237MOL0     C31177  -1.547   7.424   4.129 -0.7761 -1.2523 -0.3338
  237MOL0     C31178  -1.675   7.460   4.179  0.6272  0.4951  0.2480
  237MOL0     C31179  -1.800   7.412   4.120  0.4940 -0.6824 -0.1806
  237MOL0     C31180  -1.806   7.347   4.000 -0.4414  0.3057 -0.2925
  237MOL0     C31181  -1.928   7.302   3.934 -0.0294  0.1219 -0.6736
  237MOL0     O31182  -2.051   7.306   4.002 -0.1762  0.0611  0.2169
  237MOL0     C31183  -2.158   7.265   3.918 -0.3236 -0.9700 -0.2008
  237MOL0     C31184  -2.230   7.148   3.956 -0.6678 -0.3500  0.3771
  237MOL0     C31185  -2.357   7.124   3.905  0.8303 -0.1346  0.4481
  237MOL0     C31186  -2.409   7.202   3.809  0.3031  0.2086  1.0335
  237MOL0     O31187  -2.536   7.181   3.775  0.3152 -0.5688 -0.1707
  237MOL0     C31188  -2.577   7.233   3.649 -0.0408  0.4528  0.6018
  237MOL0     C31189  -2.704   7.161   3.588  0.5252  0.1543 -0.1344
  237MOL0     C31190  -2.658   7.015   3.548  0.7787 -0.1189 -0.2486
  237MOL0     C31191  -2.774   6.934   3.500  1.4451 -0.5419  0.6208
  237MOL0     C31192  -2.728   6.807   3.424  0.1710 -0.0458 -0.8085
  237MOL0     C31193  -2.836   6.739   3.337 -0.1292  0.1519 -0.2386
  237MOL0     C31194  -2.756   6.646   3.245 -0.1293 -0.2921 -0.6340
  237MOL0     C31195  -2.843   6.518   3.232  0.4386  0.0720  0.3757
  237MOL0    Cl31196  -2.776   6.390   3.135 -0.2188  0.1704 -0.4613
  237MOL0     C31197  -2.329   7.311   3.761 -0.3773  0.1767  0.0449
  237MOL0     C31198  -2.212   7.351   3.821 -0.1537 -0.0710  0.2400
  237MOL0     O31199  -1.915   7.275   3.816 -0.4529  0.3068 -0.1448
  237MOL0     C31200  -1.674   7.335   3.945  0.3171  0.0215 -0.0344
  237MOL0     C31201  -1.552   7.356   4.009 -0.3992 -0.4682  0.4542
  237MOL0     N31202  -1.169   7.800   3.877  0.4260  0.0501  1.0066
  237MOL0     N31203  -1.077   7.816   3.784 -0.5161  0.2467 -0.4467
  237MOL0     C31204   0.256   7.841   3.715 -0.6365 -0.1873  0.5222
  237MOL0     C31205   0.392   7.841   3.762 -0.7156  0.2400  0.3415
  237MOL0     C31206   0.722   7.879   4.081  0.9234 -0.2563 -0.1072
  237MOL0     C31207   0.759   7.985   4.156 -0.6187 -0.1562 -0.9917
  237MOL0     C31208   0.899   8.003   4.185  0.3296 -0.0143  0.1745
  237MOL0     C31209   1.001   7.910   4.138 -0.0068 -0.4407 -0.2765
  237MOL0     O31210   1.127   7.938   4.161  0.2944  0.5575 -0.8559
  237MOL0     C31211   1.228   7.832   4.178 -0.0041 -0.4842  0.1793
  237MOL0     C31212   1.318   7.820   4.054 -0.7453 -0.3113  0.2626
  237MOL0     C31213   1.386   7.960   4.026  0.5374  0.4803 -0.0602
  237MOL0     C31214   1.511   7.978   4.129 -0.1386  0.1804 -0.0346
  237MOL0     C31215   1.636   7.910   4.096 -0.2048  0.2382 -0.7762
  237MOL0     C31216   1.744   7.855   4.075 -0.7218  0.1032 -0.1033
  237MOL0     C31217   0.947   7.794   4.068  1.1454  0.3664 -0.1160
  237MOL0     C31218   0.812   7.775   4.047 -0.4927 -0.3114  0.5490
  237MOL0     H31219   0.342   7.681   4.059  5.5788  3.9203  1.3566
  237MOL0     H31220   0.112   7.685   3.987 -0.0296 -2.6265 -0.8528
  237MOL0     H31221   0.047   7.787   3.538 -0.7013 -0.1017 -1.0107
  237MOL0     H31222  -0.030   7.924   3.623  0.7529 -0.6996  1.4118
  237MOL0     H31223  -0.146   7.656   3.589  1.6207  0.9000  1.2748
  237MOL0     H31224  -0.177   7.770   3.458 -0.1974  2.2501  0.3643
  237MOL0     H31225  -0.300   7.913   3.640 -1.1729  0.6290  0.8154
  237MOL0     H31226  -0.256   7.783   3.753  5.7197  0.3227 -0.6904
  237MOL0     H31227  -0.420   7.739   3.497  1.3420  0.7191  0.7298
  237MOL0     H31228  -0.369   7.613   3.613 -1.5086 -1.5275 -1.7333
  237MOL0     H31229  -0.538   7.846   3.711 -1.4960 -0.0347  0.3590
  237MOL0     H31230  -0.482   7.712   3.805 -2.1690  0.6726  1.2639
  237MOL0     H31231  -0.621   7.550   3.664 -1.8407  0.1899  2.5946
  237MOL0     H31232  -0.682   7.682   3.570 -1.1107 -0.8903  0.3973
  237MOL0     H31233  -0.760   7.582   3.825 -0.8678 -1.8303 -2.1833
  237MOL0     H31234  -0.747   7.764   3.816 -0.7128 -0.0017  0.2845
  237MOL0     H31235  -0.915   7.578   3.633 -2.9274 -0.7478  2.9433
  237MOL0     H31236  -0.871   7.754   3.614  0.5055  0.1471 -0.3462
  237MOL0     H31237  -0.989   7.518   3.884  1.8698  0.0178 -0.5902
  237MOL0     H31238  -1.160   7.524   4.071 -0.0402 -1.3179 -3.5057
  237MOL0     H31239  -1.324   7.571   4.009 -1.3009  0.9381  1.7114
  237MOL0     H31240  -1.319   7.787   4.143 -2.3501 -1.7289  1.3258
  237MOL0     H31241  -1.152   7.753   4.177  1.3249  1.6902 -5.4619
  237MOL0     H31242  -1.219   7.544   4.322 -0.9100 -0.8443 -0.5374
  237MOL0     H31243  -1.285   7.691   4.382  0.7385  0.3853  0.0345
  237MOL0     H31244  -1.486   7.641   4.240  1.8173  1.1599 -0.6334
  237MOL0     H31245  -1.467   7.534   4.374  0.0622  3.5017  1.7694
  237MOL0     H31246  -1.684   7.490   4.283  0.9409 -1.6638  0.9536
  237MOL0     H31247  -1.889   7.429   4.179  1.2624  0.6094  0.6325
  237MOL0     H31248  -2.186   7.068   4.014 -0.8142 -0.3110  0.5434
  237MOL0     H31249  -2.412   7.032   3.916  0.9609 -0.1775  0.7693
  237MOL0     H31250  -2.506   7.230   3.566 -1.3785  1.6229 -0.6430
  237MOL0     H31251  -2.607   7.337   3.667 -0.6827  0.1403  1.3871
  237MOL0     H31252  -2.740   7.210   3.497  1.6638  0.5315 -0.3964
  237MOL0     H31253  -2.779   7.161   3.667  1.8781 -1.4376  1.2220
  237MOL0     H31254  -2.624   6.967   3.639  0.5523  0.3174  0.0722
  237MOL0     H31255  -2.571   7.021   3.482  0.1957 -0.1665 -1.0491
  237MOL0     H31256  -2.842   6.912   3.583  1.8789  1.5768  1.6177
  237MOL0     H31257  -2.825   6.993   3.424  0.3076 -0.6998  1.2315
  237MOL0     H31258  -2.673   6.737   3.488  2.2757  1.0186 -1.3625
  237MOL0     H31259  -2.645   6.826   3.355 -0.2550 -1.3024 -1.7116
  237MOL0     H31260  -2.888   6.812   3.274 -2.5542 -1.6913 -0.5312
  237MOL0     H31261  -2.908   6.698   3.408 -3.8934  1.6001 -2.8950
  237MOL0     H31262  -2.736   6.691   3.148  0.3254  0.6428 -0.1166
  237MOL0     H31263  -2.659   6.610   3.280 -0.4220 -0.7157 -0.2361
  237MOL0     H31264  -2.939   6.544   3.187  0.1821  0.0595  0.9050
  237MOL0     H31265  -2.861   6.472   3.330 -0.7112 -0.7818 -0.2094
  237MOL0     H31266  -2.358   7.387   3.689  0.4731  0.0230 -0.4778
  237MOL0     H31267  -2.156   7.438   3.788 -2.3971  1.1582 -0.4669
  237MOL0     H31268  -1.679   7.292   3.845 -0.7529  0.6833 -0.2820
  237MOL0     H31269  -1.460   7.309   3.976  0.3977  1.2092  0.2184
  237MOL0     H31270   0.236   7.892   3.621  0.5282  2.0700  1.4390
  237MOL0     H31271   0.472   7.873   3.696 -2.2696  2.3492 -0.6685
  237MOL0     H31272   0.693   8.064   4.189  1.1945  1.5249 -1.1718
  237MOL0     H31273   0.932   8.094   4.233 -0.8388  1.0899 -1.0289
  237MOL0     H31274   1.187   7.732   4.194 -1.3967  0.2803  1.6881
  237MOL0     H31275   1.283   7.863   4.267  0.3054  2.1068 -0.8295
  237MOL0     H31276   1.396   7.743   4.064  0.7818  1.2665  1.0574
  237MOL0     H31277   1.262   7.800   3.962  0.0844 -1.9625  0.0810
  237MOL0     H31278   1.310   8.039   4.032 -1.2107 -1.2428  2.1805
  237MOL0     H31279   1.432   7.957   3.926 -1.2160 -0.9627 -0.8832
  237MOL0     H31280   1.522   8.086   4.127 -3.4605  0.6351 -1.1557
  237MOL0     H31281   1.497   7.944   4.232 -0.9572 -3.4719 -1.1716
  237MOL0     H31282   1.845   7.819   4.063 -0.2526  0.8637  1.3537
  237MOL0     H31283   1.011   7.717   4.027 -1.4346 -3.1467  1.9197
  237MOL0     H31284   0.789   7.689   3.985  0.6913 -4.0850  4.8306
  238MOL0     O31285   2.475   5.554  10.538  1.1655 -0.3521  0.5783
  238MOL0     C31286   2.523   5.441  10.557 -0.5722 -0.2056  0.9808
  238MOL0     O31287   2.448   5.328  10.594 -0.2287 -0.0766 -0.4837
  238MOL0     C31288   2.327   5.347  10.654  0.3739 -0.2622  0.9080
  238MOL0     C31289   2.324   5.407  10.770  0.1863 -1.2367 -0.5918
  238MOL0     C31290   2.196   5.431  10.833 -0.0055 -0.3686  0.1054
  238MOL0     C31291   2.079   5.392  10.771  0.4100 -0.6942  0.7552
  238MOL0     O31292   1.966   5.451  10.807  0.9486 -0.7248 -0.1223
  238MOL0     C31293   1.950   5.595  10.778  0.5219  0.4940 -0.0841
  238MOL0     C31294   1.881   5.606  10.636  0.7620 -0.1380  0.3582
  238MOL0     C31295   1.763   5.514  10.625 -0.0338 -0.4815  0.4565
  238MOL0     C31296   1.757   5.474  10.477  0.5748  0.4869 -0.2559
  238MOL0     C31297   1.617   5.424  10.437  0.1300  0.3699  0.2796
  238MOL0     C31298   1.555   5.315  10.526  0.2638  0.4842 -0.7071
  238MOL0     C31299   1.452   5.226  10.450 -0.3228  0.3749  0.0477
  238MOL0     C31300   1.319   5.298  10.429  0.6724  1.3112  0.0635
  238MOL0     N31301   1.261   5.249  10.302 -0.6177 -0.5830 -0.4571
  238MOL0     C31302   1.232   5.118  10.263 -0.6380 -0.4411 -0.8046
  238MOL0     C31303   1.159   5.134  10.157  0.5675 -0.3916 -0.3670
  238MOL0     C31304   1.092   5.034  10.075  0.1784  1.1953  0.8930
  238MOL0     C31305   1.059   4.901  10.149  0.1417 -0.4589 -0.6333
  238MOL0     C31306   0.951   4.926  10.253 -0.6242 -0.0919  1.0739
  238MOL0     C31307   0.905   4.797  10.324  0.6452 -0.0338 -0.8983
  238MOL0     O31308   0.849   4.685  10.250  0.3956 -0.0937  0.4049
  238MOL0     C31309   0.716   4.644  10.245  0.1887 -0.5929  0.1253
  238MOL0     C31310   0.601   4.722  10.273 -0.5172 -0.2762 -0.6329
  238MOL0     C31311   0.472   4.675  10.256  0.7473  0.0833  0.1493
  238MOL0     C31312   0.452   4.537  10.222 -0.2412 -0.1450 -1.2380
  238MOL0     C31313   0.319   4.472  10.218  0.0238 -0.2694 -0.2060
  238MOL0     O31314   0.305   4.369  10.124  0.8414  0.0812  1.0379
  238MOL0     C31315   0.173   4.330  10.098  1.1241 -0.7901 -0.5256
  238MOL0     C31316   0.088   4.271  10.198  0.6029  0.5057  0.2980
  238MOL0     C31317  -0.045   4.235  10.163 -0.3353  0.8773 -0.4417
  238MOL0     C31318  -0.100   4.253  10.040  0.6582  0.2658 -0.6995
  238MOL0     O31319  -0.238   4.237  10.010 -0.6013  0.4952 -0.3054
  238MOL0     C31320  -0.330   4.221  10.119  0.8474 -0.2302 -0.0865
  238MOL0     C31321  -0.467   4.200  10.072  0.1822 -0.7384 -0.0135
  238MOL0     C31322  -0.561   4.193  10.185  0.7097 -0.2588 -0.5263
  238MOL0     C31323  -0.697   4.172  10.120  0.0587 -0.6350  0.6401
  238MOL0     C31324  -0.802   4.168  10.227 -0.0167  0.5810 -0.1675
  238MOL0     C31325  -0.919   4.103  10.159  0.3344 -0.3201  0.6832
  238MOL0     C31326  -1.049   4.112  10.240  0.5334  0.5193  0.0634
  238MOL0     C31327  -1.160   4.044  10.176  0.6389 -0.5342  0.5355
  238MOL0    Cl31328  -1.277   4.038  10.310 -0.3884  0.1879  0.3589
  238MOL0     C31329  -0.005   4.297   9.944  0.4468  0.1816 -0.2792
  238MOL0     C31330   0.130   4.334   9.971  0.3319  0.2381  0.3774
  238MOL0     O31331   0.231   4.522  10.283 -0.4501 -0.3713  0.2693
  238MOL0     C31332   0.568   4.460  10.189 -0.0307  0.0895 -0.0296
  238MOL0     C31333   0.697   4.517  10.201 -0.4917  0.1229 -0.9349
  238MOL0     N31334   1.160   5.269  10.114  0.1423  0.3706 -0.2057
  238MOL0     N31335   1.224   5.331  10.202  0.1537 -0.6107  0.0331
  238MOL0     C31336   2.086   5.328  10.643 -0.2045 -0.4680 -0.3434
  238MOL0     C31337   2.209   5.305  10.589 -0.5848 -0.5258  0.1047
  238MOL0     C31338   2.667   5.435  10.541 -0.1360  0.0352 -0.1207
  238MOL0     C31339   2.735   5.531  10.463  0.1658 -0.3749 -0.1360
  238MOL0     C31340   2.868   5.506  10.430  0.1039  0.3825 -0.0125
  238MOL0     C31341   2.945   5.402  10.481 -0.1367 -0.2136  0.3922
  238MOL0     O31342   3.081   5.412  10.466  0.4478  0.7766 -0.3628
  238MOL0     C31343   3.159   5.357  10.573  0.7451  0.0845 -0.0074
  238MOL0     C31344   3.216   5.222  10.533  0.7556  0.1035 -0.4402
  238MOL0     C31345   3.319   5.230  10.427 -0.1999 -0.0242 -0.1830
  238MOL0     C31346   3.444   5.308  10.455 -0.5742 -0.0438  0.2926
  238MOL0     C31347   3.525   5.251  10.566  0.0108 -0.4107 -0.4387
  238MOL0     C31348   3.589   5.217  10.668  0.0348 -0.3033 -0.7934
  238MOL0     C31349   2.873   5.301  10.544  0.6526 -0.3793 -1.1396
  238MOL0     C31350   2.732   5.314  10.570 -0.6858 -0.3866 -0.7621
  238MOL0     H31351   2.420   5.444  10.804  0.6335 -0.3121 -2.6949
  238MOL0     H31352   2.200   5.501  10.916  0.2680 -1.3615  0.9527
  238MOL0     H31353   2.046   5.648  10.770  0.6559  0.4305  0.9640
  238MOL0     H31354   1.885   5.645  10.850  0.3529  0.5478 -0.2733
  238MOL0     H31355   1.958   5.574  10.566 -0.8930  0.1333 -1.6792
  238MOL0     H31356   1.849   5.711  10.627 -0.9580 -0.2858  3.3493
  238MOL0     H31357   1.667   5.551  10.662  0.1041  1.4993 -0.9894
  238MOL0     H31358   1.783   5.416  10.669  0.3796  0.2536  1.9806
  238MOL0     H31359   1.793   5.554  10.412 -0.7859  1.7842  0.5186
  238MOL0     H31360   1.812   5.382  10.457 -2.6187 -0.9358 -3.6495
  238MOL0     H31361   1.624   5.387  10.334 -0.1540 -0.6738  0.6192
  238MOL0     H31362   1.550   5.510  10.433 -0.6828 -0.2060  1.1814
  238MOL0     H31363   1.507   5.366  10.610 -1.3031 -0.5561 -0.9135
  238MOL0     H31364   1.629   5.244  10.564 -0.7731  1.2438  3.2086
  238MOL0     H31365   1.505   5.199  10.359  0.1971 -2.2375  1.0360
  238MOL0     H31366   1.433   5.132  10.504 -2.1068 -0.1012 -1.3211
  238MOL0     H31367   1.333   5.406  10.427  1.9683  1.1516 -0.0933
  238MOL0     H31368   1.245   5.273  10.506 -0.8754  0.1391 -1.6973
  238MOL0     H31369   1.257   5.024  10.311  1.7317 -0.1292 -1.3276
  238MOL0     H31370   1.155   5.001   9.992 -0.9602  0.4116  0.3116
  238MOL0     H31371   1.002   5.061  10.020 -0.0030 -0.9199  0.0473
  238MOL0     H31372   1.153   4.866  10.191  0.8312  1.6548 -0.2613
  238MOL0     H31373   1.026   4.820  10.083 -1.5049 -3.3125  3.2936
  238MOL0     H31374   0.989   4.999  10.325 -2.7395 -0.6720  2.9081
  238MOL0     H31375   0.867   4.975  10.202  0.0555  3.4564  3.0221
  238MOL0     H31376   0.824   4.831  10.390  1.0264  0.7134 -0.8033
  238MOL0     H31377   0.983   4.755  10.387 -0.8944  0.5263  1.5263
  238MOL0     H31378   0.610   4.830  10.284  1.9040 -0.5551  1.0982
  238MOL0     H31379   0.388   4.741  10.276  0.1785 -1.0621  1.7576
  238MOL0     H31380   0.122   4.257  10.300 -1.4603  1.8725  1.2206
  238MOL0     H31381  -0.101   4.189  10.244 -0.4390  0.0441 -0.9765
  238MOL0     H31382  -0.329   4.306  10.189 -1.0791 -0.0830 -0.1744
  238MOL0     H31383  -0.307   4.136  10.183  0.3429 -1.6100 -1.6760
  238MOL0     H31384  -0.469   4.103  10.021  1.0966 -1.7381  1.7530
  238MOL0     H31385  -0.485   4.285  10.007 -0.5686  0.2566  1.4439
  238MOL0     H31386  -0.566   4.286  10.241  1.8629 -0.5413  0.0642
  238MOL0     H31387  -0.547   4.106  10.250  1.1401 -0.5201 -0.9565
  238MOL0     H31388  -0.717   4.257  10.054 -1.2872  0.3745  2.2383
  238MOL0     H31389  -0.695   4.077  10.067 -0.0025  0.4267 -1.3517
  238MOL0     H31390  -0.841   4.264  10.262 -2.5267 -0.1931 -0.6651
  238MOL0     H31391  -0.774   4.102  10.309 -1.0507 -2.3874 -2.0434
  238MOL0     H31392  -0.897   3.999  10.136 -1.3378 -0.5217 -0.1367
  238MOL0     H31393  -0.939   4.154  10.064  0.8045  1.1876  1.3645
  238MOL0     H31394  -1.041   4.074  10.342 -1.2346 -1.6422 -0.5279
  238MOL0     H31395  -1.072   4.218  10.251  0.2453  0.4263  0.3564
  238MOL0     H31396  -1.130   3.948  10.132 -2.1726 -0.2395 -2.4247
  238MOL0     H31397  -1.203   4.093  10.088  1.5674 -1.2800 -0.3666
  238MOL0     H31398  -0.039   4.282   9.842  1.9231 -1.5557 -0.5741
  238MOL0     H31399   0.201   4.378   9.903  0.3599 -0.3994 -0.0129
  238MOL0     H31400   0.555   4.356  10.158  3.5394 -0.9841  1.4834
  238MOL0     H31401   0.781   4.457  10.166  1.3356  1.8486  0.3177
  238MOL0     H31402   1.994   5.299  10.592 -1.8165  2.9566  0.3055
  238MOL0     H31403   2.214   5.259  10.491  1.3658  1.2213 -0.6950
  238MOL0     H31404   2.707   5.633  10.440 -2.4431 -0.3897  2.3886
  238MOL0     H31405   2.923   5.584  10.378  3.2711 -0.7131  1.4374
  238MOL0     H31406   3.108   5.345  10.668  1.7493 -0.2135  0.5063
  238MOL0     H31407   3.231   5.436  10.594  0.1863  1.0103 -1.3556
  238MOL0     H31408   3.249   5.170  10.623  1.4472  1.3631  0.0665
  238MOL0     H31409   3.141   5.151  10.497 -1.2355  1.0592  1.5841
  238MOL0     H31410   3.273   5.268  10.335 -3.0585  0.1995  1.2185
  238MOL0     H31411   3.353   5.129  10.403 -2.9209 -0.9885 -0.3804
  238MOL0     H31412   3.509   5.310  10.367 -0.1690 -1.9866  0.5096
  238MOL0     H31413   3.423   5.413  10.478 -0.3063 -0.8973  5.4470
  238MOL0     H31414   3.630   5.171  10.756 -2.6068 -2.2092 -0.4204
  238MOL0     H31415   2.916   5.208  10.582 -1.4329 -0.3976  1.4034
  238MOL0     H31416   2.681   5.227  10.611 -1.5568  1.2162  1.8536
  239MOL0     O31417   6.544   4.125   5.154  0.1077  0.3749 -0.6956
  239MOL0     C31418   6.623   4.071   5.239 -0.0955  0.4955 -0.5320
  239MOL0     O31419   6.571   4.021   5.352  0.2782  0.6371  0.6857
  239MOL0     C31420   6.444   4.047   5.377  0.3900  0.6680 -0.0104
  239MOL0     C31421   6.398   4.179   5.403  0.2674 -0.0558  0.1900
  239MOL0     C31422   6.260   4.212   5.433 -0.8936 -0.0562 -0.2190
  239MOL0     C31423   6.168   4.109   5.414  0.5461  0.3156  0.4411
  239MOL0     O31424   6.040   4.144   5.437 -0.5767 -0.2721 -0.0686
  239MOL0     C31425   5.946   4.047   5.394 -0.3567 -1.1726  0.6956
  239MOL0     C31426   5.815   4.123   5.396  1.0743 -0.6212  0.7336
  239MOL0     C31427   5.698   4.046   5.332 -0.9894  0.0733  0.1717
  239MOL0     C31428   5.649   3.924   5.414  0.2657  0.2670  0.6742
  239MOL0     C31429   5.592   3.805   5.329  0.5609  0.4667  0.5295
  239MOL0     C31430   5.518   3.698   5.413  1.0297  0.0433  0.0465
  239MOL0     C31431   5.470   3.578   5.334  0.5353  0.4883 -0.2830
  239MOL0     C31432   5.431   3.458   5.422  0.6746 -0.2841  0.0996
  239MOL0     N31433   5.287   3.480   5.470 -0.1561 -0.7308  0.4149
  239MOL0     C31434   5.253   3.534   5.585  0.4853 -1.0648 -0.1483
  239MOL0     C31435   5.119   3.507   5.599 -0.4530  0.0247  1.0327
  239MOL0     C31436   5.043   3.543   5.719  0.5430  0.0586 -0.2294
  239MOL0     C31437   5.042   3.697   5.741 -0.9902  0.2905 -0.1651
  239MOL0     C31438   4.938   3.746   5.850  0.2874  0.4789 -0.1028
  239MOL0     C31439   4.899   3.896   5.829  0.2764  0.4197 -0.1902
  239MOL0     O31440   4.982   3.996   5.884 -0.8123 -0.0821 -0.2347
  239MOL0     C31441   4.926   4.118   5.890 -0.2851  0.5432  1.3050
  239MOL0     C31442   5.010   4.212   5.944  0.3555 -0.2636 -0.7827
  239MOL0     C31443   4.975   4.348   5.954 -0.0583  0.0004 -0.5704
  239MOL0     C31444   4.845   4.385   5.921  0.4328 -0.0478  0.3611
  239MOL0     C31445   4.796   4.522   5.947  0.5810  0.1345 -0.2630
  239MOL0     O31446   4.671   4.555   5.885 -0.3090 -0.1333 -0.2390
  239MOL0     C31447   4.618   4.676   5.901 -0.2293 -0.0460 -0.1071
  239MOL0     C31448   4.694   4.780   5.854  0.8840 -0.0717 -0.7214
  239MOL0     C31449   4.633   4.910   5.862  1.2789 -1.0794  0.8112
  239MOL0     C31450   4.499   4.942   5.907  0.2458  0.5833 -0.1236
  239MOL0     O31451   4.462   5.068   5.919  0.3764  0.1797 -0.6334
  239MOL0     C31452   4.336   5.106   5.983 -0.2628 -0.3974 -0.5596
  239MOL0     C31453   4.220   5.081   5.884  0.0318  0.0702  0.0477
  239MOL0     C31454   4.104   5.182   5.915 -0.0783 -0.6823 -0.1037
  239MOL0     C31455   3.981   5.157   5.820 -0.0131  0.2418  0.0857
  239MOL0     C31456   3.846   5.217   5.870  0.4306 -0.2060  1.6336
  239MOL0     C31457   3.728   5.177   5.779  0.6137 -0.1397 -0.5833
  239MOL0     C31458   3.606   5.256   5.832 -0.2736  0.4268 -0.7713
  239MOL0     C31459   3.499   5.269   5.726 -1.1202 -0.7707 -0.5037
  239MOL0    Cl31460   3.350   5.303   5.806 -0.2071  0.0438 -0.0953
  239MOL0     C31461   4.429   4.822   5.946 -0.5658 -0.2646 -0.0563
  239MOL0     C31462   4.487   4.697   5.943  0.3304 -0.0050  0.5823
  239MOL0     O31463   4.870   4.596   6.009 -0.3909 -0.3153 -0.3048
  239MOL0     C31464   4.767   4.291   5.851  0.3713  0.0687 -0.1607
  239MOL0     C31465   4.808   4.165   5.833 -0.8455  0.4289  0.1284
  239MOL0     N31466   5.072   3.441   5.484  0.8732  0.3695  0.5361
  239MOL0     N31467   5.175   3.434   5.404  0.4894  0.1132 -0.1626
  239MOL0     C31468   6.211   3.984   5.374  0.0315  0.4712  0.5473
  239MOL0     C31469   6.345   3.953   5.362  0.0098 -0.3298  0.2772
  239MOL0     C31470   6.774   4.095   5.223  0.2575 -0.3195 -0.2888
  239MOL0     C31471   6.858   4.079   5.329  0.1575  0.8233  0.5367
  239MOL0     C31472   6.994   4.067   5.308  0.1237 -0.2041 -0.1287
  239MOL0     C31473   7.057   4.075   5.180  0.0193  0.5693 -1.1180
  239MOL0     O31474   7.191   4.076   5.183 -0.5797  0.1647 -0.4535
  239MOL0     C31475   7.254   4.100   5.053  0.5759  0.1443 -0.4829
  239MOL0     C31476   7.265   3.974   4.974 -0.7370  0.1029 -0.3387
  239MOL0     C31477   7.366   3.986   4.856  0.3876 -0.7492  0.0241
  239MOL0     C31478   7.316   4.096   4.755 -0.6090  0.5091  0.5535
  239MOL0     C31479   7.382   4.076   4.624  0.7072  0.8959 -0.1082
  239MOL0     C31480   7.439   4.066   4.513  0.6532  0.3968 -0.0269
  239MOL0     C31481   6.971   4.093   5.074  0.1494  0.5217  0.6417
  239MOL0     C31482   6.831   4.099   5.096  0.6310 -0.0946 -0.8466
  239MOL0     H31483   6.466   4.263   5.412  0.0164  0.2391 -0.6109
  239MOL0     H31484   6.221   4.313   5.443 -1.5588 -0.1182 -1.8608
  239MOL0     H31485   5.937   3.959   5.458 -0.1242 -0.9840  0.9897
  239MOL0     H31486   5.963   4.018   5.290  1.7793  1.5409  0.1626
  239MOL0     H31487   5.826   4.219   5.344 -3.9382  0.1213  0.6001
  239MOL0     H31488   5.784   4.147   5.498 -0.2904  0.6013  0.0670
  239MOL0     H31489   5.730   4.009   5.234 -2.9771 -0.7411 -0.2209
  239MOL0     H31490   5.618   4.118   5.316 -2.0342 -0.5596  2.1860
  239MOL0     H31491   5.729   3.884   5.477  2.4669  1.1969 -1.3814
  239MOL0     H31492   5.571   3.961   5.482 -1.8769  0.1705 -1.5644
  239MOL0     H31493   5.676   3.755   5.278 -0.5302 -0.6096 -0.2869
  239MOL0     H31494   5.514   3.838   5.260  1.5241 -0.6327 -1.1703
  239MOL0     H31495   5.430   3.747   5.456  0.5952  1.5109 -2.3408
  239MOL0     H31496   5.586   3.655   5.488 -2.0858 -2.0040  1.9576
  239MOL0     H31497   5.388   3.599   5.264  0.3480  0.3859 -0.0927
  239MOL0     H31498   5.560   3.546   5.280  1.5590 -0.5749  1.9345
  239MOL0     H31499   5.493   3.438   5.510 -2.5775 -0.6243  2.5204
  239MOL0     H31500   5.436   3.370   5.358  0.8059  1.6174 -2.6893
  239MOL0     H31501   5.307   3.596   5.656 -0.4148  0.0883 -0.4230
  239MOL0     H31502   5.088   3.497   5.808  0.6475 -0.6014 -0.6198
  239MOL0     H31503   4.944   3.498   5.711  0.5226 -0.0598  0.5617
  239MOL0     H31504   5.010   3.747   5.649  0.4874  0.5779 -0.5629
  239MOL0     H31505   5.144   3.731   5.763 -0.8713  0.5584 -1.0634
  239MOL0     H31506   4.845   3.687   5.844  0.4064  0.3327 -0.5278
  239MOL0     H31507   4.985   3.721   5.945  1.9273  1.2600 -0.6704
  239MOL0     H31508   4.803   3.903   5.880  1.2407  1.7037  1.5758
  239MOL0     H31509   4.892   3.912   5.721 -0.4567  0.0380 -0.2041
  239MOL0     H31510   5.105   4.189   5.992 -0.5128  0.7715  1.5483
  239MOL0     H31511   5.037   4.415   6.013 -1.9742  0.4982  0.9948
  239MOL0     H31512   4.797   4.764   5.823  0.8759  1.1084 -1.4313
  239MOL0     H31513   4.685   4.997   5.821 -0.4480 -0.5891 -0.4388
  239MOL0     H31514   4.341   5.211   6.013  3.8597 -0.2077 -1.2960
  239MOL0     H31515   4.339   5.055   6.080  0.4357  2.4400  1.0264
  239MOL0     H31516   4.180   4.980   5.895  1.3258 -0.8771 -2.7929
  239MOL0     H31517   4.251   5.097   5.780  1.2365  3.8682  0.8305
  239MOL0     H31518   4.144   5.283   5.906  0.2774 -0.8660 -0.6683
  239MOL0     H31519   4.069   5.165   6.017 -0.1129  0.3564  0.0675
  239MOL0     H31520   4.002   5.188   5.717 -1.8945 -2.5909 -1.2904
  239MOL0     H31521   3.965   5.049   5.812  4.4696 -0.5468 -1.2110
  239MOL0     H31522   3.864   5.325   5.865 -0.5672 -0.0586  0.8922
  239MOL0     H31523   3.824   5.182   5.971 -0.5217 -1.0804  1.1422
  239MOL0     H31524   3.711   5.071   5.800  2.1817 -0.3512 -0.1830
  239MOL0     H31525   3.737   5.200   5.673 -2.2828  2.1912 -0.4662
  239MOL0     H31526   3.576   5.208   5.926  0.0536  1.5615 -0.0654
  239MOL0     H31527   3.638   5.355   5.864 -0.7833 -0.0838  1.5691
  239MOL0     H31528   3.505   5.174   5.672 -1.4953 -0.8339 -0.4339
  239MOL0     H31529   3.513   5.356   5.660 -3.6153 -0.8786 -1.2823
  239MOL0     H31530   4.324   4.829   5.974 -0.5418 -2.0690  0.5815
  239MOL0     H31531   4.419   4.614   5.963 -0.6707  0.5258 -0.4831
  239MOL0     H31532   4.669   4.326   5.821  0.4641  1.0211  0.5702
  239MOL0     H31533   4.743   4.097   5.779 -1.6262  0.6716  0.7359
  239MOL0     H31534   6.141   3.903   5.353 -2.3251  2.8111 -1.3530
  239MOL0     H31535   6.379   3.856   5.329 -0.5230 -0.6054  0.5282
  239MOL0     H31536   6.817   4.072   5.429  2.2738  1.6276  1.5233
  239MOL0     H31537   7.058   4.057   5.395 -1.6139 -0.1066  1.2001
  239MOL0     H31538   7.351   4.147   5.069  1.4931  0.2884 -5.1814
  239MOL0     H31539   7.199   4.176   4.997 -1.5065  0.8788  2.3106
  239MOL0     H31540   7.303   3.897   5.042  4.4939  0.0627 -2.8160
  239MOL0     H31541   7.170   3.933   4.940  0.2294 -2.1544 -0.4575
  239MOL0     H31542   7.369   3.884   4.818  2.3137 -0.9480  0.5857
  239MOL0     H31543   7.471   4.006   4.878  0.3493  1.3774 -1.3452
  239MOL0     H31544   7.206   4.091   4.748 -0.5984  0.2503  0.5494
  239MOL0     H31545   7.345   4.196   4.789  1.0045  0.8303 -1.5416
  239MOL0     H31546   7.477   4.061   4.414  0.6569 -3.0099  0.0137
  239MOL0     H31547   7.000   4.096   4.970 -3.6571 -2.4350 -0.7451
  239MOL0     H31548   6.772   4.113   5.006 -0.7926  0.4129  0.1386
  240MOL0     O31549   6.247   5.928   5.207 -0.3565  0.6406 -0.6441
  240MOL0     C31550   6.326   5.971   5.126 -0.0108 -0.5508  0.7144
  240MOL0     O31551   6.303   6.037   5.007 -0.2040  0.4063  0.4811
  240MOL0     C31552   6.187   6.103   5.007 -0.3688  0.3458  0.4343
  240MOL0     C31553   6.157   6.234   4.998 -0.3174 -0.2387  0.2608
  240MOL0     C31554   6.030   6.294   5.005  0.9635 -0.2537 -0.0546
  240MOL0     C31555   5.915   6.217   5.021 -0.3683 -0.7236  0.5281
  240MOL0     O31556   5.790   6.282   5.011 -0.0027 -0.0765 -0.0841
  240MOL0     C31557   5.668   6.207   5.017 -1.0251  0.1702  0.1205
  240MOL0     C31558   5.539   6.285   4.981 -0.2123  0.5610 -0.5078
  240MOL0     C31559   5.406   6.221   5.022 -1.0368 -0.3847 -0.3694
  240MOL0     C31560   5.395   6.200   5.172 -0.0385 -0.0081 -0.2343
  240MOL0     C31561   5.247   6.177   5.221 -0.1809  0.8128  1.1599
  240MOL0     C31562   5.254   6.162   5.373  0.6710 -0.4601  0.2522
  240MOL0     C31563   5.115   6.142   5.431 -0.1148  0.3476 -0.9440
  240MOL0     C31564   5.131   6.122   5.583  0.5282  0.2801 -0.5234
  240MOL0     N31565   5.002   6.126   5.657  0.6872 -0.4011 -1.1041
  240MOL0     C31566   4.893   6.205   5.645  0.5494  0.0266  0.2780
  240MOL0     C31567   4.796   6.166   5.736  0.4243 -0.5955 -0.1028
  240MOL0     C31568   4.658   6.220   5.754 -0.4494  0.8837 -0.1720
  240MOL0     C31569   4.564   6.172   5.640 -0.3149 -0.0476 -0.1613
  240MOL0     C31570   4.434   6.259   5.631 -0.0542 -0.2442  0.2598
  240MOL0     C31571   4.330   6.210   5.738 -0.8704  0.8971  0.6553
  240MOL0     O31572   4.224   6.299   5.776 -0.1797 -0.0990  0.7702
  240MOL0     C31573   4.109   6.316   5.706 -0.4926 -0.3213 -0.3662
  240MOL0     C31574   3.988   6.346   5.774 -0.4015 -0.0548  0.4480
  240MOL0     C31575   3.866   6.376   5.713  0.1689 -0.3913 -0.3157
  240MOL0     C31576   3.866   6.362   5.569  0.1914  0.7955 -0.1097
  240MOL0     C31577   3.729   6.371   5.502 -0.4360  0.3839 -0.1435
  240MOL0     O31578   3.628   6.338   5.582  0.3271  0.4406 -0.8095
  240MOL0     C31579   3.493   6.366   5.555 -0.3448  0.6723  0.2606
  240MOL0     C31580   3.429   6.371   5.429 -0.0486  1.0232 -0.4037
  240MOL0     C31581   3.289   6.396   5.418 -1.4454 -0.1897  0.3571
  240MOL0     C31582   3.217   6.412   5.541  0.1022  0.5956  0.0753
  240MOL0     O31583   3.081   6.432   5.544  0.4573 -0.3790  0.3654
  240MOL0     C31584   3.015   6.426   5.422  0.2715  0.8131  0.7168
  240MOL0     C31585   2.864   6.426   5.452 -0.2585 -0.5536 -0.3276
  240MOL0     C31586   2.803   6.445   5.313  0.5848 -0.5163 -0.2336
  240MOL0     C31587   2.646   6.453   5.333 -0.6785 -0.7517  0.3240
  240MOL0     C31588   2.578   6.324   5.392 -0.0565 -0.5359  0.8467
  240MOL0     C31589   2.619   6.199   5.306 -0.1230  0.7041 -0.3164
  240MOL0     C31590   2.561   6.070   5.365 -0.1817  0.6710 -1.2495
  240MOL0     C31591   2.653   5.949   5.332 -0.0759 -0.0763  0.8717
  240MOL0    Cl31592   2.633   5.905   5.155  0.0756  0.0838  0.0725
  240MOL0     C31593   3.278   6.386   5.662 -0.2284 -0.0782 -1.3844
  240MOL0     C31594   3.413   6.370   5.670 -0.0397 -0.6681 -0.3735
  240MOL0     O31595   3.721   6.416   5.390  0.3151  0.3742 -0.4736
  240MOL0     C31596   3.982   6.321   5.505  0.4696 -1.1518 -0.1036
  240MOL0     C31597   4.098   6.299   5.569  0.3300 -0.0203  0.9964
  240MOL0     N31598   4.853   6.066   5.804  0.2729 -0.3511 -0.8058
  240MOL0     N31599   4.967   6.043   5.761  0.3096 -0.4517  0.1539
  240MOL0     C31600   5.940   6.079   5.010  0.5302 -0.6733 -0.5152
  240MOL0     C31601   6.072   6.025   5.003 -0.4743 -0.0864  0.0259
  240MOL0     C31602   6.469   5.947   5.158 -0.5909 -0.5171 -0.2469
  240MOL0     C31603   6.567   5.945   5.059 -0.7700 -0.3322 -0.3670
  240MOL0     C31604   6.703   5.932   5.086  0.5786 -0.6054 -0.0371
  240MOL0     C31605   6.745   5.910   5.222  0.6281  0.3885 -0.8505
  240MOL0     O31606   6.873   5.888   5.253 -0.7273  0.1718  0.2726
  240MOL0     C31607   6.974   5.866   5.151  0.0844 -0.5562  0.2069
  240MOL0     C31608   7.102   5.876   5.223 -0.2433  0.3367  0.4373
  240MOL0     C31609   7.220   5.920   5.131  0.6834  0.5978  0.4749
  240MOL0     C31610   7.357   5.918   5.206  0.1172  0.4630 -0.3207
  240MOL0     C31611   7.462   5.957   5.112  0.3322  0.0834  0.8935
  240MOL0     C31612   7.554   5.997   5.045  0.2427  0.1754 -0.8142
  240MOL0     C31613   6.645   5.911   5.325  0.0874  0.1501 -0.3661
  240MOL0     C31614   6.509   5.932   5.298  0.1879 -0.0692  0.2725
  240MOL0     H31615   6.237   6.308   4.988 -2.8285  2.3708 -3.0189
  240MOL0     H31616   6.015   6.402   5.006  2.7033  0.0284  0.7636
  240MOL0     H31617   5.653   6.180   5.121 -2.1130  1.9050  0.4558
  240MOL0     H31618   5.684   6.120   4.952 -0.7928  0.8712 -0.7955
  240MOL0     H31619   5.545   6.299   4.872  2.3268  1.1786 -0.3654
  240MOL0     H31620   5.544   6.387   5.021 -1.3031  1.5713 -2.7285
  240MOL0     H31621   5.392   6.127   4.968  0.0373 -1.1352  0.6144
  240MOL0     H31622   5.325   6.286   4.989  1.1940  1.4838 -2.6628
  240MOL0     H31623   5.456   6.112   5.197  3.4169  1.9925 -0.9487
  240MOL0     H31624   5.433   6.286   5.227 -1.9231 -0.3079  1.6369
  240MOL0     H31625   5.196   6.095   5.170  0.2425  0.5532  1.1507
  240MOL0     H31626   5.185   6.267   5.213 -0.6948  0.3708 -0.0547
  240MOL0     H31627   5.296   6.252   5.419  2.3773 -0.9228 -0.3243
  240MOL0     H31628   5.322   6.082   5.400  0.0310 -0.9088  0.5511
  240MOL0     H31629   5.062   6.233   5.399 -0.8719 -1.1300 -4.3408
  240MOL0     H31630   5.063   6.059   5.382 -4.2809  1.2710  1.4084
  240MOL0     H31631   5.201   6.200   5.614 -0.8788  2.3773 -2.3106
  240MOL0     H31632   5.181   6.028   5.610 -1.3051 -1.2265 -2.0450
  240MOL0     H31633   4.897   6.288   5.576  0.0725 -0.3345 -0.1837
  240MOL0     H31634   4.659   6.330   5.750 -0.8472  0.8441 -2.0477
  240MOL0     H31635   4.621   6.191   5.853 -0.6885  2.2130  0.1555
  240MOL0     H31636   4.544   6.066   5.657 -0.2451 -0.1734 -0.8520
  240MOL0     H31637   4.618   6.194   5.547  1.4724  0.6598  0.9795
  240MOL0     H31638   4.467   6.361   5.652 -0.3118  0.0375 -0.6503
  240MOL0     H31639   4.381   6.252   5.536 -3.2779  1.5230  1.7736
  240MOL0     H31640   4.379   6.186   5.833 -0.9261 -0.2375  0.4067
  240MOL0     H31641   4.287   6.120   5.693  1.0850  1.1062 -1.8910
  240MOL0     H31642   3.996   6.350   5.882 -2.1022  0.3243  0.5950
  240MOL0     H31643   3.785   6.403   5.780 -0.6898 -1.3695 -0.9173
  240MOL0     H31644   3.484   6.339   5.341  1.1394  0.1203  0.6244
  240MOL0     H31645   3.245   6.401   5.319  1.4714 -2.3369 -1.1955
  240MOL0     H31646   3.042   6.343   5.356  1.3024  2.0534 -0.4750
  240MOL0     H31647   3.039   6.518   5.369 -0.9536  0.0715 -1.2121
  240MOL0     H31648   2.839   6.511   5.516 -2.3807  0.8278 -2.7945
  240MOL0     H31649   2.841   6.328   5.493  1.3150 -0.4961  0.7389
  240MOL0     H31650   2.826   6.369   5.238 -1.2892 -0.7865 -0.5817
  240MOL0     H31651   2.845   6.540   5.279 -1.1742 -0.1195 -1.4339
  240MOL0     H31652   2.619   6.537   5.397 -0.2775 -0.9771  0.7987
  240MOL0     H31653   2.605   6.468   5.233  1.4081 -0.3728 -0.5183
  240MOL0     H31654   2.471   6.345   5.393 -0.3920 -1.7001 -1.9015
  240MOL0     H31655   2.608   6.312   5.497  1.4834 -0.6817  0.4075
  240MOL0     H31656   2.725   6.180   5.288 -0.0542  1.3846 -0.6574
  240MOL0     H31657   2.569   6.219   5.210  0.9855 -1.1235 -1.3334
  240MOL0     H31658   2.566   6.081   5.473  0.6192 -1.9169 -0.9385
  240MOL0     H31659   2.459   6.058   5.327 -0.2139 -0.3376 -0.8840
  240MOL0     H31660   2.645   5.872   5.409  3.0537 -1.3934  0.0148
  240MOL0     H31661   2.755   5.988   5.342 -1.0564  2.9363  0.4450
  240MOL0     H31662   3.227   6.402   5.756  2.1239  2.7207 -0.4458
  240MOL0     H31663   3.453   6.350   5.769  0.0330  1.7080  0.1282
  240MOL0     H31664   3.982   6.294   5.400 -0.7767 -0.3176 -0.3374
  240MOL0     H31665   4.183   6.264   5.512 -0.3551 -2.0726  1.1519
  240MOL0     H31666   5.855   6.015   5.030  0.8905 -0.3898  2.2280
  240MOL0     H31667   6.077   5.917   5.001  0.2047 -0.1233  1.8193
  240MOL0     H31668   6.541   5.968   4.956  0.3265  1.3354 -0.3233
  240MOL0     H31669   6.778   5.940   5.008  1.7613 -4.0516  0.5832
  240MOL0     H31670   6.981   5.944   5.075  1.6584 -0.5380  0.3461
  240MOL0     H31671   6.955   5.773   5.097 -0.5714  0.1785 -0.8736
  240MOL0     H31672   7.095   5.940   5.311 -2.4228 -0.7518  1.1158
  240MOL0     H31673   7.122   5.777   5.264  0.8938  0.6285  0.6305
  240MOL0     H31674   7.187   6.015   5.088 -3.1178 -0.4838  0.6582
  240MOL0     H31675   7.217   5.850   5.046 -2.8777 -0.5397  1.3775
  240MOL0     H31676   7.352   5.989   5.289  0.5553 -0.9407  0.9351
  240MOL0     H31677   7.385   5.825   5.255  1.9622  1.2994  0.3150
  240MOL0     H31678   7.635   6.034   4.985 -1.1603  1.3706 -2.0668
  240MOL0     H31679   6.679   5.904   5.428  1.6066  1.9608 -0.6996
  240MOL0     H31680   6.437   5.941   5.378  1.6006  0.5050  1.5209
  241MOL0     O31681   2.121   8.541   2.223  0.3324  0.3858  0.9407
  241MOL0     C31682   2.035   8.626   2.231  0.3746  0.4726 -0.3705
  241MOL0     O31683   1.905   8.604   2.186  0.6867 -0.8500 -0.4320
  241MOL0     C31684   1.875   8.518   2.083  0.0952 -0.9120  0.2667
  241MOL0     C31685   1.753   8.463   2.069 -0.4087 -0.7832  0.3888
  241MOL0     C31686   1.714   8.390   1.957 -0.0783  0.2224 -0.4015
  241MOL0     C31687   1.796   8.393   1.845 -0.4756  0.4392 -0.3551
  241MOL0     O31688   1.775   8.331   1.722  0.9128 -0.0892 -0.2366
  241MOL0     C31689   1.639   8.287   1.694 -0.4145  0.1259  0.0186
  241MOL0     C31690   1.554   8.413   1.670  0.0840  0.8929  0.1845
  241MOL0     C31691   1.424   8.384   1.596 -0.5893  0.2094  0.0087
  241MOL0     C31692   1.326   8.295   1.671  1.0247 -0.7461  0.0254
  241MOL0     C31693   1.189   8.288   1.595 -0.6945 -0.6474  0.4516
  241MOL0     C31694   1.085   8.185   1.652 -0.7533 -0.3581 -0.1391
  241MOL0     C31695   0.940   8.182   1.588 -0.8245 -1.0436 -0.0527
  241MOL0     C31696   0.954   8.118   1.451  0.7941  1.1867  0.2062
  241MOL0     N31697   0.835   8.144   1.368  1.0018  0.2181  0.0556
  241MOL0     C31698   0.782   8.265   1.338  0.1835  0.3735  0.8047
  241MOL0     C31699   0.666   8.238   1.273  0.1701  0.3208  0.5509
  241MOL0     C31700   0.557   8.332   1.245  0.1331 -0.6089  0.1128
  241MOL0     C31701   0.505   8.326   1.095  0.2183 -0.1263 -0.7753
  241MOL0     C31702   0.435   8.459   1.064  0.2898  0.3632  0.0248
  241MOL0     C31703   0.297   8.482   1.137 -0.0400 -0.1372 -0.4614
  241MOL0     O31704   0.207   8.385   1.086 -0.1425 -0.4556  0.7096
  241MOL0     C31705   0.071   8.390   1.117  0.3021  0.0234  0.6764
  241MOL0     C31706   0.010   8.479   1.208 -0.9866  0.5063 -0.7617
  241MOL0     C31707  -0.126   8.476   1.226 -0.6853 -0.8327 -0.1976
  241MOL0     C31708  -0.203   8.384   1.151  0.4236 -0.3879  0.2574
  241MOL0     C31709  -0.348   8.399   1.151 -0.7518 -0.1832 -0.4226
  241MOL0     O31710  -0.416   8.322   1.067  0.5713 -0.1978  0.0291
  241MOL0     C31711  -0.550   8.338   1.039  0.5444 -0.1265 -0.9450
  241MOL0     C31712  -0.593   8.455   0.968 -0.2948 -0.0227 -0.3801
  241MOL0     C31713  -0.726   8.458   0.928  0.5411 -0.0416 -0.3057
  241MOL0     C31714  -0.823   8.363   0.969  0.7112  0.0192 -0.2423
  241MOL0     O31715  -0.957   8.384   0.933 -0.3160  0.5903 -0.0970
  241MOL0     C31716  -1.051   8.314   1.006  0.4342  1.1065  0.0133
  241MOL0     C31717  -1.193   8.382   1.007 -0.7377  0.1560  0.4819
  241MOL0     C31718  -1.188   8.520   1.080 -0.1739 -0.4550 -0.2221
  241MOL0     C31719  -1.306   8.613   1.042 -0.6134  0.1791 -0.0041
  241MOL0     C31720  -1.449   8.557   1.039 -0.2256  0.9135  0.8335
  241MOL0     C31721  -1.522   8.662   0.962 -0.0599 -0.2928 -0.7016
  241MOL0     C31722  -1.671   8.625   0.958 -0.9846 -0.0101 -0.1932
  241MOL0     C31723  -1.748   8.730   0.877  0.3596  0.1651 -0.7791
  241MOL0    Cl31724  -1.924   8.710   0.876  0.0677 -0.1224  0.2053
  241MOL0     C31725  -0.771   8.249   1.031 -0.4475 -0.5715 -0.3390
  241MOL0     C31726  -0.637   8.241   1.067 -0.5640 -0.3340 -0.2719
  241MOL0     O31727  -0.391   8.476   1.228  0.0528  0.7093 -0.6948
  241MOL0     C31728  -0.147   8.299   1.057 -0.5596 -0.6971  0.2606
  241MOL0     C31729  -0.009   8.301   1.044  0.2563 -0.6534  0.5419
  241MOL0     N31730   0.662   8.101   1.253  0.3085  0.7434  1.2428
  241MOL0     N31731   0.762   8.051   1.317 -0.5248 -0.0777  0.0199
  241MOL0     C31732   1.926   8.444   1.858 -0.3086 -0.4457  0.1371
  241MOL0     C31733   1.964   8.505   1.977 -0.2060 -0.2921 -0.8700
  241MOL0     C31734   2.068   8.746   2.306  0.5435 -0.1740 -0.8758
  241MOL0     C31735   1.975   8.849   2.327 -0.3462 -0.4614  0.2549
  241MOL0     C31736   2.010   8.955   2.407  0.0709 -0.4797 -0.8125
  241MOL0     C31737   2.129   8.962   2.479  0.2429 -0.0203 -0.6403
  241MOL0     O31738   2.125   9.061   2.575 -0.4722  0.2636 -0.2073
  241MOL0     C31739   2.227   9.062   2.673  0.5663 -0.4165  0.6305
  241MOL0     C31740   2.362   9.100   2.612  0.3756  0.1064  0.3582
  241MOL0     C31741   2.484   9.043   2.683  0.3957 -0.0179  0.2579
  241MOL0     C31742   2.612   9.115   2.632 -0.4861 -0.3976 -0.0327
  241MOL0     C31743   2.723   9.022   2.638 -0.3243  0.1543 -0.7219
  241MOL0     C31744   2.822   8.959   2.635 -0.6964 -0.5883  0.2037
  241MOL0     C31745   2.228   8.863   2.459 -0.2558 -0.2991  0.1020
  241MOL0     C31746   2.196   8.759   2.370  0.2075 -0.1115  0.1817
  241MOL0     H31747   1.686   8.475   2.153  0.5316 -1.3907  1.2608
  241MOL0     H31748   1.622   8.335   1.941 -0.2587  1.2481 -3.6434
  241MOL0     H31749   1.587   8.229   1.771 -1.5971 -1.8065 -2.1181
  241MOL0     H31750   1.644   8.232   1.600 -0.8436 -2.2461  1.3129
  241MOL0     H31751   1.613   8.488   1.617  0.2892  1.2124  0.8443
  241MOL0     H31752   1.522   8.463   1.762 -0.1227  0.5009  0.3275
  241MOL0     H31753   1.449   8.344   1.497 -2.3411  1.4095 -0.9576
  241MOL0     H31754   1.371   8.476   1.570 -1.9234 -0.5676 -0.1205
  241MOL0     H31755   1.361   8.191   1.675 -1.2693 -1.5697  0.1178
  241MOL0     H31756   1.309   8.330   1.773 -0.0303 -0.2673 -0.2974
  241MOL0     H31757   1.204   8.264   1.489 -4.1224 -1.6612  0.0537
  241MOL0     H31758   1.143   8.386   1.579  0.4335 -0.3478 -1.2682
  241MOL0     H31759   1.076   8.205   1.759  1.4774  0.1193  0.0153
  241MOL0     H31760   1.141   8.092   1.634 -0.5734 -0.4607  0.8824
  241MOL0     H31761   0.867   8.128   1.649  0.5353  0.6362  3.3493
  241MOL0     H31762   0.903   8.284   1.573 -0.0687 -1.1247 -3.0328
  241MOL0     H31763   0.982   8.013   1.459  2.7912  1.5783 -0.9584
  241MOL0     H31764   1.036   8.156   1.390 -0.8293  1.1768 -2.1265
  241MOL0     H31765   0.811   8.363   1.375  1.0408 -0.1652  1.6130
  241MOL0     H31766   0.573   8.437   1.270  0.1321 -0.0129 -2.1738
  241MOL0     H31767   0.480   8.297   1.315  0.0601 -0.4113  0.1321
  241MOL0     H31768   0.431   8.247   1.081  0.4127 -0.4992  0.2018
  241MOL0     H31769   0.587   8.288   1.033  0.5476 -0.0761 -0.3779
  241MOL0     H31770   0.500   8.546   1.079  0.2846  0.5785 -1.1471
  241MOL0     H31771   0.415   8.470   0.957 -2.9061  0.1239  0.4937
  241MOL0     H31772   0.255   8.581   1.117  3.0813  1.3774 -0.0380
  241MOL0     H31773   0.317   8.474   1.245  2.1200  1.0762 -0.7192
  241MOL0     H31774   0.057   8.555   1.270 -1.3411  1.7271 -1.9334
  241MOL0     H31775  -0.173   8.549   1.291  0.0063  0.3208 -0.9562
  241MOL0     H31776  -0.519   8.532   0.954  0.2937  0.3479  3.6114
  241MOL0     H31777  -0.764   8.544   0.874 -0.4984  0.4029  1.0768
  241MOL0     H31778  -1.026   8.296   1.111 -1.0084  0.2709  0.2417
  241MOL0     H31779  -1.061   8.217   0.958 -1.9592  2.2378 -2.0202
  241MOL0     H31780  -1.268   8.311   1.043 -0.5552  0.6136  1.8229
  241MOL0     H31781  -1.212   8.402   0.901  1.2550  0.1626  0.0991
  241MOL0     H31782  -1.104   8.583   1.052 -2.6433  2.3973 -1.8799
  241MOL0     H31783  -1.172   8.500   1.186 -0.8493 -1.5355 -0.3097
  241MOL0     H31784  -1.292   8.694   1.114 -0.2342  1.1555 -1.1273
  241MOL0     H31785  -1.276   8.648   0.942 -1.8683  0.4995 -0.2804
  241MOL0     H31786  -1.502   8.542   1.134 -1.5809 -0.8432 -0.1476
  241MOL0     H31787  -1.445   8.460   0.990 -1.4144  0.0710  2.3113
  241MOL0     H31788  -1.492   8.660   0.857  1.5327 -0.4261 -0.2768
  241MOL0     H31789  -1.514   8.760   1.010 -0.0462 -0.9000  0.5749
  241MOL0     H31790  -1.683   8.536   0.896 -0.4398 -0.9503  1.0211
  241MOL0     H31791  -1.704   8.626   1.063 -1.2835 -0.8022 -0.2730
  241MOL0     H31792  -1.718   8.726   0.772  0.0265 -1.1149 -0.8453
  241MOL0     H31793  -1.728   8.832   0.912  3.0804 -1.1585  2.0240
  241MOL0     H31794  -0.828   8.160   1.058 -0.3231 -0.5582 -0.0333
  241MOL0     H31795  -0.600   8.160   1.128  1.0883  1.2743  0.9688
  241MOL0     H31796  -0.201   8.237   0.986  0.1713 -1.7874  0.6232
  241MOL0     H31797   0.049   8.233   0.983  1.4997  2.4513 -1.9910
  241MOL0     H31798   1.993   8.434   1.773 -1.0403  2.1870 -0.8430
  241MOL0     H31799   2.066   8.539   1.989 -0.2785  0.4250 -2.1966
  241MOL0     H31800   1.876   8.854   2.283 -0.4446  3.0720  0.6041
  241MOL0     H31801   1.946   9.041   2.427  0.2084 -0.6731  0.5055
  241MOL0     H31802   2.234   8.962   2.716  0.4815 -0.5449  0.3513
  241MOL0     H31803   2.211   9.136   2.752  1.2039  1.3304 -0.8185
  241MOL0     H31804   2.361   9.076   2.506 -2.6959  0.2949  0.2394
  241MOL0     H31805   2.368   9.209   2.622 -1.0752  0.0624  2.2858
  241MOL0     H31806   2.497   8.940   2.649  0.2352 -0.9357  2.7368
  241MOL0     H31807   2.479   9.059   2.791 -0.1721  2.4942 -0.0756
  241MOL0     H31808   2.600   9.145   2.527  2.3465 -0.8292 -0.5867
  241MOL0     H31809   2.635   9.204   2.692 -0.1323 -0.4253 -0.1218
  241MOL0     H31810   2.908   8.896   2.624 -0.0780  0.4081 -0.9125
  241MOL0     H31811   2.310   8.869   2.529 -1.8067  2.6224  1.8839
  241MOL0     H31812   2.272   8.682   2.356 -1.7041 -1.9733 -0.4642
  242MOL0     O31813   6.556   2.003   7.429 -0.1050 -0.5713 -0.3120
  242MOL0     C31814   6.509   2.092   7.504 -0.1780  0.1180  0.9086
  242MOL0     O31815   6.434   2.070   7.614  0.5862 -0.1178  0.1304
  242MOL0     C31816   6.406   1.938   7.650  0.0099  0.4852 -0.8184
  242MOL0     C31817   6.486   1.823   7.649  0.4609 -0.5432 -0.4487
  242MOL0     C31818   6.442   1.702   7.696  0.2445  0.3215 -0.8260
  242MOL0     C31819   6.312   1.698   7.754 -1.2479 -0.0443  0.4514
  242MOL0     O31820   6.272   1.582   7.814 -0.0532 -0.0388 -0.1518
  242MOL0     C31821   6.265   1.600   7.958 -0.8915  0.7108  0.0465
  242MOL0     C31822   6.238   1.449   8.002  0.4424 -0.2736 -0.1430
  242MOL0     C31823   6.230   1.436   8.156  1.0180  0.9902  0.2553
  242MOL0     C31824   6.252   1.286   8.193  0.0072 -0.1204 -0.1110
  242MOL0     C31825   6.221   1.266   8.336 -0.2171 -0.0181 -0.5650
  242MOL0     C31826   6.186   1.116   8.357 -0.3073  0.1818 -0.0009
  242MOL0     C31827   6.114   1.106   8.491  0.2294  0.3589 -0.3082
  242MOL0     C31828   5.977   1.183   8.499 -0.6028 -0.2286 -0.1060
  242MOL0     N31829   5.906   1.147   8.624  0.9375 -0.4889 -0.6954
  242MOL0     C31830   5.840   1.034   8.654  0.0221  1.0191 -0.4772
  242MOL0     C31831   5.801   1.048   8.785 -0.3950  0.3075  0.3182
  242MOL0     C31832   5.718   0.960   8.871 -0.8019 -0.1789  0.0488
  242MOL0     C31833   5.585   1.025   8.909  0.1618  0.0431 -0.4836
  242MOL0     C31834   5.507   1.048   8.778 -0.2144 -0.7333  0.1867
  242MOL0     C31835   5.369   1.112   8.822 -0.8367 -0.0428  0.3867
  242MOL0     O31836   5.313   1.182   8.709 -0.1505  0.5312  0.6546
  242MOL0     C31837   5.181   1.203   8.715  0.5694 -0.1642  0.2526
  242MOL0     C31838   5.091   1.096   8.721  0.0296  0.4355  0.1719
  242MOL0     C31839   4.961   1.124   8.721  0.3276 -0.7520 -0.7343
  242MOL0     C31840   4.913   1.257   8.710  0.7708  0.1087  0.4971
  242MOL0     C31841   4.768   1.286   8.719 -0.0310  0.6856 -0.1261
  242MOL0     O31842   4.723   1.413   8.767 -0.1979 -0.5413 -0.0043
  242MOL0     C31843   4.583   1.416   8.773 -0.5293 -0.0713 -0.6219
  242MOL0     C31844   4.525   1.445   8.900  0.7886 -0.0265 -0.3379
  242MOL0     C31845   4.383   1.464   8.908 -0.6222 -0.0556  0.2706
  242MOL0     C31846   4.306   1.442   8.788  0.1575  0.3645 -0.4131
  242MOL0     O31847   4.171   1.446   8.789 -0.7033 -0.5702 -0.4719
  242MOL0     C31848   4.134   1.584   8.804 -0.1914 -0.3694  0.4876
  242MOL0     C31849   4.044   1.604   8.928  0.3047 -0.0938 -0.5917
  242MOL0     C31850   3.900   1.589   8.893 -0.5349 -0.3035 -0.8764
  242MOL0     C31851   3.813   1.594   9.026 -0.5810  0.2323  0.2260
  242MOL0     C31852   3.668   1.559   8.989  1.6408 -0.2051 -0.6632
  242MOL0     C31853   3.628   1.436   8.902  0.7230 -0.1214 -0.1638
  242MOL0     C31854   3.483   1.414   8.910  0.5879 -0.2218 -0.0863
  242MOL0     C31855   3.387   1.526   8.859  0.1586  0.2890  0.1598
  242MOL0    Cl31856   3.371   1.664   8.973 -0.1490  0.2026 -0.0654
  242MOL0     C31857   4.365   1.419   8.665 -0.4140 -0.2540 -0.9489
  242MOL0     C31858   4.505   1.413   8.656  0.1388 -0.7506  0.6256
  242MOL0     O31859   4.699   1.192   8.676 -0.0385  0.6299  0.7937
  242MOL0     C31860   4.994   1.368   8.694 -0.7460 -0.1055 -0.6030
  242MOL0     C31861   5.133   1.338   8.704 -0.1856  0.2487  0.1597
  242MOL0     N31862   5.838   1.175   8.831 -0.0809  0.1353  0.1223
  242MOL0     N31863   5.897   1.230   8.734  1.2399 -0.1845 -0.5813
  242MOL0     C31864   6.228   1.809   7.761 -0.3245 -0.4343  0.4604
  242MOL0     C31865   6.274   1.927   7.704 -0.2320  0.9731  0.0725
  242MOL0     C31866   6.523   2.232   7.454  0.0964  0.3890 -0.3368
  242MOL0     C31867   6.416   2.312   7.450  0.2489  0.5724 -0.2971
  242MOL0     C31868   6.419   2.437   7.397 -0.6272  0.1811 -0.4733
  242MOL0     C31869   6.543   2.490   7.360  1.1247 -0.3704  0.0386
  242MOL0     O31870   6.545   2.621   7.319  0.1588  0.5446  0.2660
  242MOL0     C31871   6.675   2.683   7.282  0.9251 -0.1301 -0.5702
  242MOL0     C31872   6.722   2.644   7.133  0.7097 -0.3455 -0.4148
  242MOL0     C31873   6.845   2.723   7.099 -0.3761 -0.4422 -0.3261
  242MOL0     C31874   6.956   2.728   7.209  1.1008 -0.4225 -0.7835
  242MOL0     C31875   7.086   2.784   7.166 -1.2512  0.3574  0.5697
  242MOL0     C31876   7.183   2.857   7.139  0.1253  1.0559 -1.1436
  242MOL0     C31877   6.659   2.408   7.372 -0.0890 -0.1320 -0.4756
  242MOL0     C31878   6.642   2.275   7.408 -1.0315 -0.5166 -0.1324
  242MOL0     H31879   6.589   1.835   7.617  0.0309  1.8547 -1.1479
  242MOL0     H31880   6.495   1.610   7.671 -2.2570 -0.5228 -3.5415
  242MOL0     H31881   6.179   1.662   7.987 -1.2289  1.1598 -1.7397
  242MOL0     H31882   6.359   1.640   7.995 -0.5863  1.3992 -1.3927
  242MOL0     H31883   6.312   1.374   7.972  1.1304 -0.9423  2.8952
  242MOL0     H31884   6.145   1.420   7.953 -0.3713  2.2850 -0.2642
  242MOL0     H31885   6.133   1.476   8.185 -0.1865 -2.3591  1.2717
  242MOL0     H31886   6.319   1.485   8.197  0.6495  1.0858  0.9508
  242MOL0     H31887   6.180   1.235   8.128 -0.5393 -1.0767  1.1946
  242MOL0     H31888   6.351   1.253   8.163 -0.5139 -0.8621 -1.0672
  242MOL0     H31889   6.142   1.338   8.359 -0.3556 -0.5956  0.8633
  242MOL0     H31890   6.314   1.283   8.390  1.0896 -1.7312 -2.1377
  242MOL0     H31891   6.280   1.061   8.357  0.4325  1.3833  1.0990
  242MOL0     H31892   6.119   1.081   8.277 -0.2637 -2.1815  0.9093
  242MOL0     H31893   6.095   1.000   8.505  0.8651  0.5068  2.0036
  242MOL0     H31894   6.181   1.139   8.571  0.2491 -0.9204  0.2199
  242MOL0     H31895   5.913   1.161   8.413 -1.5156  2.5180 -0.2132
  242MOL0     H31896   5.995   1.291   8.500 -3.3586  0.3349 -2.0234
  242MOL0     H31897   5.826   0.957   8.579  0.7446  0.4992 -0.0862
  242MOL0     H31898   5.773   0.958   8.965 -0.5483  1.6936 -0.0330
  242MOL0     H31899   5.713   0.862   8.822 -2.7748 -0.1483  0.1350
  242MOL0     H31900   5.592   1.118   8.966  0.1583 -1.2258  1.7096
  242MOL0     H31901   5.523   0.956   8.968 -1.8721 -0.8907 -3.4750
  242MOL0     H31902   5.557   1.119   8.711 -2.7042 -1.4014 -2.6124
  242MOL0     H31903   5.511   0.953   8.723  2.5496 -0.4331 -0.2558
  242MOL0     H31904   5.375   1.177   8.910  1.5705 -0.7797  0.8335
  242MOL0     H31905   5.314   1.022   8.850 -0.2019 -0.3426  0.7038
  242MOL0     H31906   5.126   0.994   8.722 -1.0264  0.0361  2.1120
  242MOL0     H31907   4.901   1.034   8.732  3.7726 -3.2236 -0.7582
  242MOL0     H31908   4.582   1.443   8.993  1.9329 -2.4471 -1.0104
  242MOL0     H31909   4.328   1.485   8.999 -2.5160  2.5904 -1.3430
  242MOL0     H31910   4.073   1.624   8.722 -1.0230  0.8420  1.6500
  242MOL0     H31911   4.221   1.650   8.813 -1.6103  1.7328 -0.3373
  242MOL0     H31912   4.073   1.699   8.973 -1.5254  1.3544 -2.3150
  242MOL0     H31913   4.072   1.530   9.004  0.5994  0.9306  0.3243
  242MOL0     H31914   3.897   1.493   8.841 -2.2040 -0.4249 -0.5967
  242MOL0     H31915   3.871   1.669   8.824  0.0445  1.0560  0.3967
  242MOL0     H31916   3.854   1.519   9.094 -2.8404 -0.8414  0.4919
  242MOL0     H31917   3.826   1.692   9.071  0.6781  1.4943 -2.6310
  242MOL0     H31918   3.631   1.648   8.938 -0.4141  1.1714  2.8514
  242MOL0     H31919   3.613   1.561   9.084  1.7315 -0.1293 -0.6119
  242MOL0     H31920   3.679   1.344   8.933 -1.4652 -0.5906  2.4277
  242MOL0     H31921   3.666   1.446   8.800  3.3229 -1.7851  0.5377
  242MOL0     H31922   3.470   1.334   8.837  1.3446 -0.4142 -0.0252
  242MOL0     H31923   3.449   1.388   9.010 -1.3643  0.6476 -0.4788
  242MOL0     H31924   3.284   1.493   8.847 -0.1336  1.7166 -1.7815
  242MOL0     H31925   3.431   1.559   8.764 -2.1603  0.7272 -0.8194
  242MOL0     H31926   4.309   1.401   8.574  1.5142  1.8625 -2.6694
  242MOL0     H31927   4.553   1.405   8.558  0.9512  0.3217  0.9157
  242MOL0     H31928   4.955   1.467   8.676 -0.0646  0.3748  0.4683
  242MOL0     H31929   5.200   1.422   8.692 -1.3675  1.6119  2.3321
  242MOL0     H31930   6.133   1.807   7.813 -0.4101 -0.0005  0.3292
  242MOL0     H31931   6.219   2.021   7.704  0.4195  1.3730 -0.9989
  242MOL0     H31932   6.316   2.279   7.477 -0.2371  1.6663 -0.6814
  242MOL0     H31933   6.331   2.500   7.396 -1.0384 -0.3836 -0.5300
  242MOL0     H31934   6.757   2.650   7.347  1.7428  0.4633 -1.2916
  242MOL0     H31935   6.645   2.788   7.288 -2.8477 -0.9776 -1.4168
  242MOL0     H31936   6.735   2.536   7.126  0.7857 -0.3935  0.4338
  242MOL0     H31937   6.647   2.674   7.059 -0.4901  0.7313  1.1585
  242MOL0     H31938   6.818   2.828   7.088  3.7417  0.8205  0.0041
  242MOL0     H31939   6.897   2.688   7.009 -0.8302 -0.4656 -0.5866
  242MOL0     H31940   6.923   2.788   7.294  0.2220  2.5930 -3.0582
  242MOL0     H31941   6.983   2.623   7.221  2.8714 -0.0225 -0.9651
  242MOL0     H31942   7.262   2.925   7.116 -0.6818  2.1343 -0.8089
  242MOL0     H31943   6.756   2.444   7.340 -1.8097  1.6444 -4.3877
  242MOL0     H31944   6.722   2.204   7.422 -2.2812 -1.9139  0.1432
  243MOL0     O31945   2.168   1.963   1.889  0.1332  0.7596 -0.3721
  243MOL0     C31946   2.260   1.996   1.815  0.2410  0.1791 -0.0123
  243MOL0     O31947   2.265   1.984   1.681  0.2214 -0.4237  1.0299
  243MOL0     C31948   2.165   1.933   1.601  0.0570 -0.3827  0.3733
  243MOL0     C31949   2.158   1.976   1.465 -0.6709  0.4272 -0.4734
  243MOL0     C31950   2.063   1.929   1.379  0.1303 -0.8534  0.7033
  243MOL0     C31951   1.966   1.841   1.420 -0.2804  0.5253 -0.9585
  243MOL0     O31952   1.868   1.787   1.337  0.0176 -0.5278 -0.8337
  243MOL0     C31953   1.733   1.787   1.393 -0.3508 -0.3012 -0.2081
  243MOL0     C31954   1.618   1.778   1.291  0.8442  0.0747  0.8760
  243MOL0     C31955   1.492   1.721   1.358 -0.0451 -0.1071 -0.1352
  243MOL0     C31956   1.380   1.736   1.257  0.2686 -1.4286 -0.2709
  243MOL0     C31957   1.235   1.726   1.311 -0.6856  0.3769  0.1486
  243MOL0     C31958   1.123   1.736   1.200 -0.8275 -0.0029 -0.3679
  243MOL0     C31959   0.979   1.725   1.260 -0.2599 -0.2842  0.6082
  243MOL0     C31960   0.877   1.739   1.154 -0.0140  0.5146 -0.0359
  243MOL0     N31961   0.746   1.703   1.199  0.5253  0.3980 -0.0464
  243MOL0     C31962   0.676   1.786   1.277  0.9927  0.1678  0.3099
  243MOL0     C31963   0.562   1.720   1.297  0.1655  0.0727  0.1936
  243MOL0     C31964   0.435   1.780   1.357 -0.3336 -0.1430  0.3653
  243MOL0     C31965   0.472   1.824   1.496  0.1508 -0.9372  0.3572
  243MOL0     C31966   0.530   1.725   1.601 -0.0031 -0.2610  0.1259
  243MOL0     C31967   0.450   1.589   1.612 -0.5907  0.9890 -0.1357
  243MOL0     O31968   0.496   1.509   1.720 -0.1457 -0.5292 -0.2443
  243MOL0     C31969   0.467   1.377   1.736 -0.1968 -0.0010 -0.5170
  243MOL0     C31970   0.390   1.298   1.649  0.1525 -0.0001  0.5888
  243MOL0     C31971   0.389   1.154   1.668  0.2118  0.8484 -0.2868
  243MOL0     C31972   0.458   1.092   1.784  0.1266 -0.1253  0.4295
  243MOL0     C31973   0.451   0.944   1.796 -0.1740 -0.2553  0.8718
  243MOL0     O31974   0.523   0.893   1.896 -1.2070 -0.9111 -1.2291
  243MOL0     C31975   0.505   0.777   1.964  0.5373  0.0636  0.1333
  243MOL0     C31976   0.413   0.672   1.935 -0.6764 -0.7611  1.0625
  243MOL0     C31977   0.401   0.559   2.017  0.4261 -0.0214  0.0201
  243MOL0     C31978   0.492   0.534   2.115 -0.7970 -0.2498  0.3706
  243MOL0     O31979   0.511   0.425   2.192  1.1621  0.1250  0.7308
  243MOL0     C31980   0.407   0.328   2.208 -0.7682 -0.0521 -0.1986
  243MOL0     C31981   0.434   0.217   2.104 -0.6824 -0.0330  0.7916
  243MOL0     C31982   0.314   0.120   2.087  0.8003  0.1652 -0.3111
  243MOL0     C31983   0.207   0.193   2.005 -1.3300 -0.1755  0.1584
  243MOL0     C31984   0.075   0.118   2.008  0.1803 -0.3064 -0.2227
  243MOL0     C31985   0.064   0.029   1.890  0.8734  0.8680 -0.0704
  243MOL0     C31986  -0.088  -0.016   1.886  0.5159 -0.1010 -0.0557
  243MOL0     C31987  -0.107  -0.092   1.752 -0.4371  0.1289  0.2585
  243MOL0    Cl31988  -0.262  -0.176   1.736 -0.4231  0.0023 -0.1187
  243MOL0     C31989   0.598   0.626   2.131 -0.7826 -0.4741 -0.2263
  243MOL0     C31990   0.608   0.748   2.061  0.3081 -0.9499  0.6158
  243MOL0     O31991   0.367   0.885   1.733  0.1863  0.8473  0.1704
  243MOL0     C31992   0.524   1.178   1.874  1.1425  0.3679  0.2386
  243MOL0     C31993   0.523   1.316   1.851  0.3680  0.1627 -0.0333
  243MOL0     N31994   0.564   1.607   1.229 -0.4040 -0.2104  0.6368
  243MOL0     N31995   0.675   1.593   1.166  0.5554  0.1461  0.3852
  243MOL0     C31996   1.983   1.788   1.548 -0.1757 -0.1363  0.5153
  243MOL0     C31997   2.078   1.835   1.636  0.2916  0.2529 -0.1786
  243MOL0     C31998   2.366   2.095   1.866  0.6797 -0.1075  0.2583
  243MOL0     C31999   2.463   2.143   1.777 -1.5013  0.0698 -0.1791
  243MOL0     C32000   2.568   2.229   1.813 -0.4090  0.1023 -0.1352
  243MOL0     C32001   2.583   2.269   1.947  0.3016 -0.1546 -0.3848
  243MOL0     O32002   2.680   2.359   1.981 -0.4286 -0.7733  0.5980
  243MOL0     C32003   2.742   2.358   2.108 -0.5661  0.8211  0.4609
  243MOL0     C32004   2.870   2.444   2.119  0.0339  0.1153  0.3561
  243MOL0     C32005   2.916   2.462   2.261  0.7268  0.9222  0.0028
  243MOL0     C32006   2.816   2.527   2.354 -0.1357  0.5101  0.2832
  243MOL0     C32007   2.788   2.670   2.329 -0.0309 -0.0322  0.6834
  243MOL0     C32008   2.770   2.791   2.327 -1.0920 -0.0461  0.6480
  243MOL0     C32009   2.491   2.218   2.039 -0.3334 -0.5109  0.9114
  243MOL0     C32010   2.383   2.128   2.000  0.2870 -0.1295 -0.6673
  243MOL0     H32011   2.237   2.039   1.427  1.6068 -2.2485 -0.5062
  243MOL0     H32012   2.054   1.953   1.274 -1.1247 -3.7189  0.0832
  243MOL0     H32013   1.719   1.877   1.453  2.2223  1.3306 -1.8705
  243MOL0     H32014   1.720   1.701   1.460  0.7156  1.0369  1.8067
  243MOL0     H32015   1.648   1.709   1.211 -1.4497  0.0164  0.0140
  243MOL0     H32016   1.593   1.874   1.246 -2.5930 -0.1386  2.0791
  243MOL0     H32017   1.462   1.777   1.447  0.3614  1.8260 -1.1664
  243MOL0     H32018   1.501   1.614   1.380  3.7112  0.5237  2.2915
  243MOL0     H32019   1.382   1.837   1.217  0.3057 -1.2846  0.0893
  243MOL0     H32020   1.411   1.678   1.170 -0.2749 -0.7092 -0.9550
  243MOL0     H32021   1.224   1.807   1.385 -0.6285  1.2349 -0.7618
  243MOL0     H32022   1.217   1.628   1.357  0.2702  0.5284  0.8816
  243MOL0     H32023   1.136   1.654   1.128  1.0866 -0.7125  0.7088
  243MOL0     H32024   1.129   1.831   1.146  1.0379 -1.5080 -3.0546
  243MOL0     H32025   0.957   1.627   1.303 -1.6373  0.1320  0.8883
  243MOL0     H32026   0.963   1.805   1.333 -2.4517  0.7304 -0.9034
  243MOL0     H32027   0.895   1.669   1.072  0.9354  1.4331 -0.6392
  243MOL0     H32028   0.890   1.839   1.110  2.3290 -0.0393 -0.7740
  243MOL0     H32029   0.704   1.888   1.301 -2.4166  0.9095  1.7895
  243MOL0     H32030   0.352   1.708   1.351  0.5243 -1.0353 -3.5415
  243MOL0     H32031   0.405   1.869   1.301  0.5972  0.3981  0.7140
  243MOL0     H32032   0.385   1.863   1.550 -0.4192  1.3108 -1.9853
  243MOL0     H32033   0.545   1.905   1.485  0.0330 -0.8666  0.0952
  243MOL0     H32034   0.633   1.703   1.570  0.4161  1.5130  0.1733
  243MOL0     H32035   0.544   1.779   1.695 -1.8632  1.0025 -0.2781
  243MOL0     H32036   0.463   1.536   1.517  1.5573  2.7185 -0.9130
  243MOL0     H32037   0.343   1.608   1.610 -0.7402  0.2236  0.4721
  243MOL0     H32038   0.335   1.338   1.564 -0.6878  1.7339  1.8696
  243MOL0     H32039   0.340   1.091   1.595  0.4613  0.9305 -0.5304
  243MOL0     H32040   0.335   0.676   1.859 -1.1619 -1.3814  1.5240
  243MOL0     H32041   0.325   0.490   1.982 -0.2202  0.6759  0.0418
  243MOL0     H32042   0.307   0.370   2.217 -1.4267 -1.7255  0.7310
  243MOL0     H32043   0.411   0.280   2.306 -0.4659  1.9266  0.8197
  243MOL0     H32044   0.512   0.149   2.142  0.6906  1.4718  0.7778
  243MOL0     H32045   0.473   0.264   2.014 -0.0414  0.4055  1.2893
  243MOL0     H32046   0.275   0.102   2.188  1.8426 -2.4184 -0.2942
  243MOL0     H32047   0.340   0.026   2.036 -1.6819 -1.0914  0.5479
  243MOL0     H32048   0.177   0.284   2.057  2.0683  1.2699 -0.1684
  243MOL0     H32049   0.240   0.220   1.904 -1.9184 -1.0917 -0.2957
  243MOL0     H32050  -0.014   0.181   1.997 -1.5564 -2.1021  2.5126
  243MOL0     H32051   0.059   0.062   2.100  0.4461  2.3734  1.5871
  243MOL0     H32052   0.133  -0.055   1.892  0.7223  0.7520  1.5168
  243MOL0     H32053   0.085   0.087   1.800 -0.2364  0.1852 -0.7905
  243MOL0     H32054  -0.103  -0.078   1.974  1.4831  0.0394  0.2282
  243MOL0     H32055  -0.157   0.069   1.890 -1.9806 -2.0658  2.3442
  243MOL0     H32056  -0.025  -0.164   1.741  0.5445  0.9352  1.9587
  243MOL0     H32057  -0.088  -0.019   1.673 -0.4055  0.0760  0.2170
  243MOL0     H32058   0.666   0.614   2.215 -0.6116 -1.2239 -0.4633
  243MOL0     H32059   0.670   0.834   2.080  0.7409 -0.5794 -2.0164
  243MOL0     H32060   0.576   1.142   1.963  0.3360  0.5931  0.8108
  243MOL0     H32061   0.589   1.378   1.910  0.6461 -0.4718  0.3291
  243MOL0     H32062   1.915   1.706   1.570 -0.1199 -0.6239 -1.0203
  243MOL0     H32063   2.105   1.776   1.723 -0.5275 -0.5651 -0.4676
  243MOL0     H32064   2.467   2.110   1.674 -1.0637 -1.6848  0.3540
  243MOL0     H32065   2.646   2.267   1.749  0.1592  0.7334  0.9063
  243MOL0     H32066   2.759   2.254   2.139  0.5804  0.2510 -1.9085
  243MOL0     H32067   2.672   2.390   2.186 -0.5270  0.9833  0.4283
  243MOL0     H32068   2.949   2.395   2.062  0.2666  1.4409 -0.4951
  243MOL0     H32069   2.864   2.541   2.070  0.4264  0.7579  1.5471
  243MOL0     H32070   3.005   2.524   2.250  0.0478  1.5894 -2.2410
  243MOL0     H32071   2.942   2.362   2.294  1.6476  0.8632 -0.8575
  243MOL0     H32072   2.721   2.475   2.367 -1.0033  1.7762 -0.6593
  243MOL0     H32073   2.870   2.519   2.449  0.4317 -2.1703 -0.1861
  243MOL0     H32074   2.752   2.896   2.327 -0.4457  0.1248 -2.2519
  243MOL0     H32075   2.491   2.255   2.141 -0.7971  0.9081  0.4186
  243MOL0     H32076   2.314   2.079   2.069  1.7334  2.2878  2.8172
  244MOL0     O32077   9.530  10.619   2.809 -0.7055 -1.1302  0.3490
  244MOL0     C32078   9.640  10.673   2.825  0.5785  0.9695  0.2841
  244MOL0     O32079   9.657  10.789   2.891 -0.2029  0.4495 -0.6770
  244MOL0     C32080   9.545  10.863   2.916  0.2719 -0.4374 -0.2239
  244MOL0     C32081   9.482  10.945   2.823  0.9434 -0.2796  0.9395
  244MOL0     C32082   9.359  11.002   2.853  0.0614 -0.1620  0.0883
  244MOL0     C32083   9.302  10.986   2.981 -0.1753 -0.6600  0.7175
  244MOL0     O32084   9.187  11.047   3.030  0.7823  0.6003  0.1926
  244MOL0     C32085   9.073  11.060   2.941 -0.3979  0.3558  0.1820
  244MOL0     C32086   8.960  11.107   3.030  0.2418 -0.3085  0.1294
  244MOL0     C32087   8.811  11.116   2.978 -0.5625 -0.3335 -0.6471
  244MOL0     C32088   8.730  11.146   3.102  0.1311 -0.0705  0.7084
  244MOL0     C32089   8.579  11.126   3.073 -0.6816  0.0378  0.7627
  244MOL0     C32090   8.507  11.116   3.202 -0.1706  0.0072  0.9048
  244MOL0     C32091   8.366  11.161   3.203  1.3017 -0.4882  0.7139
  244MOL0     C32092   8.276  11.068   3.124  0.1918 -0.6072 -0.2198
  244MOL0     N32093   8.136  11.113   3.150 -0.2755  0.2301 -0.4362
  244MOL0     C32094   8.059  11.072   3.263 -0.5137  0.5334  0.0374
  244MOL0     C32095   7.956  11.153   3.256 -0.0723 -0.4853  0.5604
  244MOL0     C32096   7.839  11.157   3.349 -0.6638  0.2010 -0.9738
  244MOL0     C32097   7.836  11.268   3.450 -0.4316  0.1945 -0.3537
  244MOL0     C32098   7.780  11.398   3.395 -0.2152  0.3292 -0.1042
  244MOL0     C32099   7.786  11.493   3.506 -0.4156 -0.0240 -0.0736
  244MOL0     O32100   7.682  11.455   3.601  0.1564  0.2148 -0.2992
  244MOL0     C32101   7.555  11.498   3.582  0.4204 -0.6071 -0.1565
  244MOL0     C32102   7.449  11.424   3.641  0.1157  0.0393  1.0026
  244MOL0     C32103   7.313  11.451   3.625 -0.4329  0.4253  1.1804
  244MOL0     C32104   7.276  11.567   3.547  1.2128  0.3085 -0.7189
  244MOL0     C32105   7.137  11.607   3.545 -0.0759 -0.9629 -0.5845
  244MOL0     O32106   7.103  11.720   3.481 -0.4585 -0.1514 -0.4634
  244MOL0     C32107   6.970  11.753   3.470 -0.1363  0.4672 -0.8750
  244MOL0     C32108   6.866  11.656   3.450 -0.4225 -0.0641  0.5853
  244MOL0     C32109   6.729  11.693   3.432 -0.1044 -0.1631 -0.8999
  244MOL0     C32110   6.703  11.834   3.448  0.0766  0.6934  0.3951
  244MOL0     O32111   6.578  11.882   3.434 -0.1951 -1.1409  0.3761
  244MOL0     C32112   6.467  11.790   3.411  0.4444  1.2213 -0.3936
  244MOL0     C32113   6.340  11.862   3.424 -0.4961  1.5374  0.1210
  244MOL0     C32114   6.304  11.886   3.574 -0.4690  0.4673 -0.3508
  244MOL0     C32115   6.163  11.942   3.601  0.0899 -0.1744 -0.4804
  244MOL0     C32116   6.115  12.058   3.503  0.3188 -0.6154  0.2025
  244MOL0     C32117   5.992  12.133   3.546 -0.2081 -0.7266  0.2033
  244MOL0     C32118   5.873  12.046   3.585 -0.2471  0.1926  0.0804
  244MOL0     C32119   5.749  12.129   3.588 -0.2855 -0.2339 -0.1374
  244MOL0    Cl32120   5.611  12.020   3.643  0.0849 -0.1495  0.3415
  244MOL0     C32121   6.807  11.927   3.459  0.5657  0.0720 -0.8353
  244MOL0     C32122   6.935  11.883   3.464 -0.1350  0.2423  0.9239
  244MOL0     O32123   7.059  11.528   3.599  0.1088 -0.8938 -0.4667
  244MOL0     C32124   7.383  11.653   3.505 -0.4496 -0.2293  0.2404
  244MOL0     C32125   7.519  11.624   3.527 -0.6561 -0.2833  1.0067
  244MOL0     N32126   7.958  11.224   3.130 -0.2884 -0.7031 -0.1551
  244MOL0     N32127   8.065  11.194   3.065  0.6271  0.6176 -0.4722
  244MOL0     C32128   9.370  10.911   3.080 -0.8169  1.1053  0.2115
  244MOL0     C32129   9.494  10.851   3.046  0.8788 -0.1830  0.2420
  244MOL0     C32130   9.756  10.583   2.795 -0.0983  0.1404  0.4315
  244MOL0     C32131   9.877  10.611   2.840  0.4420  0.4685 -0.6660
  244MOL0     C32132   9.996  10.541   2.801  0.5634 -0.4241  0.6283
  244MOL0     C32133   9.986  10.434   2.718 -0.0772 -0.1988  1.1248
  244MOL0     O32134  10.082  10.359   2.651  0.0966 -0.2516  0.4426
  244MOL0     C32135  10.218  10.380   2.679 -0.5677  0.3431  0.6243
  244MOL0     C32136  10.268  10.475   2.560 -0.0346  0.8376  0.3690
  244MOL0     C32137  10.415  10.497   2.560  0.4798  0.2882 -0.5546
  244MOL0     C32138  10.443  10.587   2.440 -0.4419  0.4534  0.3964
  244MOL0     C32139  10.589  10.597   2.439  0.2018 -0.2135  0.3793
  244MOL0     C32140  10.710  10.597   2.442  0.4427  0.3582 -0.0460
  244MOL0     C32141   9.859  10.390   2.682  0.1902 -0.4006 -0.9165
  244MOL0     C32142   9.745  10.468   2.715  0.7209 -0.3606 -0.0424
  244MOL0     H32143   9.515  10.960   2.720 -0.6686 -0.4833  0.3677
  244MOL0     H32144   9.306  11.059   2.778 -0.2771  2.4566  2.1645
  244MOL0     H32145   9.060  10.957   2.907  3.4253 -0.7450  1.5862
  244MOL0     H32146   9.101  11.134   2.866  1.6536  0.6823  1.2036
  244MOL0     H32147   8.984  11.201   3.079 -2.6298  0.7719 -0.3309
  244MOL0     H32148   8.955  11.034   3.111 -2.3596  1.9388  2.2032
  244MOL0     H32149   8.781  11.019   2.937  2.7433 -2.4000  1.3465
  244MOL0     H32150   8.798  11.198   2.907 -0.4368 -0.6179 -1.0035
  244MOL0     H32151   8.742  11.081   3.189 -2.7961  0.6802  1.8028
  244MOL0     H32152   8.746  11.250   3.128  2.5621 -0.4981  1.1383
  244MOL0     H32153   8.555  11.045   3.003 -5.1093  2.9291 -1.5895
  244MOL0     H32154   8.541  11.217   3.023  1.9130  1.0245  0.4587
  244MOL0     H32155   8.556  11.180   3.277 -2.5132 -0.2195  2.7262
  244MOL0     H32156   8.504  11.013   3.239  0.9318 -1.0662 -1.7535
  244MOL0     H32157   8.327  11.146   3.304 -1.1270 -0.2085 -0.1185
  244MOL0     H32158   8.345  11.264   3.173 -4.3049 -1.3478  0.7413
  244MOL0     H32159   8.303  10.963   3.138 -0.0699 -1.0340 -2.4653
  244MOL0     H32160   8.297  11.088   3.018 -0.2249  3.0769  0.2652
  244MOL0     H32161   8.080  10.995   3.336  2.3013  2.0895  1.0402
  244MOL0     H32162   7.844  11.056   3.389  0.5579 -1.5296 -4.9846
  244MOL0     H32163   7.752  11.173   3.284 -0.9877  2.9633 -0.0166
  244MOL0     H32164   7.943  11.281   3.472  0.2836 -0.7011 -2.9820
  244MOL0     H32165   7.781  11.231   3.537 -0.4433 -1.2225 -0.9313
  244MOL0     H32166   7.849  11.435   3.318  1.5199 -3.8343 -0.8203
  244MOL0     H32167   7.679  11.386   3.353 -1.3807  0.0105  2.6197
  244MOL0     H32168   7.768  11.594   3.469 -1.7764  0.4194  1.6699
  244MOL0     H32169   7.881  11.495   3.561 -0.6932 -2.6568  0.6291
  244MOL0     H32170   7.476  11.341   3.707  3.0626  1.1882  1.4115
  244MOL0     H32171   7.236  11.389   3.668  0.8342 -1.1877  1.2194
  244MOL0     H32172   6.890  11.550   3.448 -1.6028 -0.3297 -0.4412
  244MOL0     H32173   6.649  11.621   3.419 -1.5988  0.8711  1.6967
  244MOL0     H32174   6.464  11.701   3.474  1.0771  1.7739  0.4223
  244MOL0     H32175   6.480  11.755   3.308  3.1523  0.9912 -0.0408
  244MOL0     H32176   6.254  11.809   3.381 -0.1915  1.1625 -0.0252
  244MOL0     H32177   6.338  11.957   3.369 -1.4465  0.6461 -1.4592
  244MOL0     H32178   6.381  11.947   3.621 -0.3204 -1.0341  1.4367
  244MOL0     H32179   6.316  11.798   3.637  0.6812  0.8908  0.0345
  244MOL0     H32180   6.091  11.859   3.604  0.8785 -0.8805 -0.8924
  244MOL0     H32181   6.163  11.988   3.701  0.2129  4.0469 -2.2471
  244MOL0     H32182   6.090  12.014   3.406 -1.8860  1.8828 -0.5009
  244MOL0     H32183   6.194  12.133   3.494  0.5856 -0.8835  0.3297
  244MOL0     H32184   5.968  12.205   3.467  1.3251  0.3066  0.6306
  244MOL0     H32185   6.028  12.189   3.632  3.0966  0.0790 -1.5278
  244MOL0     H32186   5.875  11.960   3.517  2.3814 -1.5185  2.1097
  244MOL0     H32187   5.892  12.000   3.683  0.4958 -1.8020 -0.9262
  244MOL0     H32188   5.728  12.168   3.488  3.4603  0.3750 -0.8245
  244MOL0     H32189   5.749  12.206   3.666 -0.9251 -1.7093  1.4065
  244MOL0     H32190   6.790  12.034   3.454 -0.3352  0.1231  1.7563
  244MOL0     H32191   7.020  11.950   3.456  0.1909 -0.3536 -1.0744
  244MOL0     H32192   7.358  11.750   3.464 -0.1155  1.7030  4.1077
  244MOL0     H32193   7.598  11.694   3.502 -1.6049  0.2039 -0.9005
  244MOL0     H32194   9.342  10.884   3.182  2.6529  0.6896  1.1814
  244MOL0     H32195   9.564  10.796   3.109  2.6228  2.5144  0.8909
  244MOL0     H32196   9.897  10.688   2.914 -1.1647 -0.4633  0.8193
  244MOL0     H32197  10.091  10.574   2.840  0.4095 -1.6927  2.2026
  244MOL0     H32198  10.274  10.286   2.677 -2.1821 -0.6781 -2.4732
  244MOL0     H32199  10.225  10.424   2.778  0.6648  2.3788 -0.2980
  244MOL0     H32200  10.262  10.422   2.464  2.1148  2.0972 -0.5301
  244MOL0     H32201  10.196  10.557   2.556 -1.6534 -0.5818 -0.7869
  244MOL0     H32202  10.470  10.403   2.555  0.7616  0.4785 -1.1597
  244MOL0     H32203  10.449  10.548   2.651 -1.1008 -0.9203  0.7740
  244MOL0     H32204  10.417  10.528   2.351  2.2073 -0.5302  0.2083
  244MOL0     H32205  10.399  10.687   2.446  1.6136  1.3119  2.9988
  244MOL0     H32206  10.815  10.575   2.441  0.1149 -1.6407  1.8179
  244MOL0     H32207   9.854  10.286   2.652  1.5335 -0.1011 -2.2847
  244MOL0     H32208   9.647  10.433   2.684  0.7552 -0.6007  0.1186
  245MOL0     O32209   5.670  10.609   4.060 -0.7932  0.0480 -0.4781
  245MOL0     C32210   5.742  10.699   4.095  0.6730 -0.7377  0.4419
  245MOL0     O32211   5.704  10.830   4.104 -0.0474  0.1842 -0.1262
  245MOL0     C32212   5.564  10.852   4.085 -1.1657  0.6502  0.2931
  245MOL0     C32213   5.524  10.929   3.978  0.6334 -0.1447  0.6568
  245MOL0     C32214   5.391  10.963   3.961  0.5567  0.2593  0.1071
  245MOL0     C32215   5.288  10.924   4.050 -0.0802 -0.6736  0.1859
  245MOL0     O32216   5.154  10.961   4.023 -0.0051 -0.7305  0.2698
  245MOL0     C32217   5.053  10.889   4.110 -0.0147 -0.7471  0.8075
  245MOL0     C32218   4.915  10.950   4.065 -0.2563  0.8359  0.7342
  245MOL0     C32219   4.870  10.883   3.936  0.2827  0.0750 -0.7453
  245MOL0     C32220   4.721  10.915   3.895 -0.2662  0.4307  0.3186
  245MOL0     C32221   4.676  10.813   3.783  0.6552 -0.0808 -0.5404
  245MOL0     C32222   4.615  10.679   3.839  0.0749 -0.4705 -0.4135
  245MOL0     C32223   4.505  10.623   3.749  0.2034  1.0536 -0.7046
  245MOL0     C32224   4.530  10.612   3.600  0.2431 -1.0613  0.2298
  245MOL0     N32225   4.426  10.528   3.543 -0.0644 -0.9943  0.5278
  245MOL0     C32226   4.310  10.568   3.484 -0.2179  0.0428 -0.7236
  245MOL0     C32227   4.250  10.467   3.432  0.5161  0.6237 -0.0583
  245MOL0     C32228   4.119  10.475   3.357 -0.1816 -0.4859  0.7651
  245MOL0     C32229   4.038  10.341   3.348  0.1559  0.2037 -0.7229
  245MOL0     C32230   3.901  10.368   3.281  0.1631  0.4751 -0.7020
  245MOL0     C32231   3.817  10.239   3.238  0.3483  0.1655 -0.1093
  245MOL0     O32232   3.752  10.185   3.349  0.1773 -0.7993  0.0976
  245MOL0     C32233   3.623  10.153   3.356 -0.6916 -0.5840 -0.3094
  245MOL0     C32234   3.525  10.171   3.254 -1.2608  0.7780 -0.3267
  245MOL0     C32235   3.396  10.120   3.275 -0.5492  0.0400  0.2002
  245MOL0     C32236   3.360  10.057   3.396 -0.2301  0.1490  0.0165
  245MOL0     C32237   3.231   9.993   3.413 -0.9720 -0.1030  1.0737
  245MOL0     O32238   3.166   9.973   3.299 -0.1397 -0.3463 -0.0935
  245MOL0     C32239   3.041   9.911   3.288 -0.9331  0.4286 -0.2962
  245MOL0     C32240   3.001   9.811   3.373  0.3883  0.4497 -0.3390
  245MOL0     C32241   2.871   9.772   3.359  0.0102 -0.3098 -0.4164
  245MOL0     C32242   2.780   9.820   3.261  0.3390 -0.2614  0.4242
  245MOL0     O32243   2.651   9.774   3.233  0.4796  1.2562 -0.1947
  245MOL0     C32244   2.617   9.656   3.316  0.0264  0.4448  0.6358
  245MOL0     C32245   2.490   9.586   3.266  0.7220 -0.0900 -0.9067
  245MOL0     C32246   2.371   9.687   3.265 -0.4075  0.2912  0.5728
  245MOL0     C32247   2.247   9.620   3.213  0.6117 -0.9688  0.2293
  245MOL0     C32248   2.180   9.518   3.307  0.0066  0.8154  0.0905
  245MOL0     C32249   2.046   9.463   3.259  1.0170 -0.2419 -0.5247
  245MOL0     C32250   2.019   9.325   3.318 -0.1424 -0.1099 -0.3079
  245MOL0     C32251   1.873   9.277   3.284 -0.2373 -0.1602 -0.1150
  245MOL0    Cl32252   1.836   9.118   3.349  0.3029  0.0802  0.1553
  245MOL0     C32253   2.828   9.924   3.183 -0.2084 -0.3748  0.0419
  245MOL0     C32254   2.953   9.972   3.198  0.0494 -0.0315  0.0153
  245MOL0     O32255   3.196   9.957   3.521  1.3515  0.5073  0.2936
  245MOL0     C32256   3.456  10.042   3.488 -0.2090 -0.3916  0.1267
  245MOL0     C32257   3.590  10.084   3.472  0.2083 -0.5965 -0.2528
  245MOL0     N32258   4.330  10.359   3.456 -0.0084 -0.3164  0.2612
  245MOL0     N32259   4.431  10.393   3.534  0.2876 -0.6614 -0.3078
  245MOL0     C32260   5.328  10.846   4.158 -0.7999  0.5468 -0.5200
  245MOL0     C32261   5.467  10.810   4.174 -0.6938 -1.2178 -0.0334
  245MOL0     C32262   5.894  10.666   4.120  0.5155  0.1288  0.1434
  245MOL0     C32263   5.952  10.535   4.108 -0.5438  0.0810  0.6328
  245MOL0     C32264   6.093  10.522   4.130  0.4363  0.2018  0.0125
  245MOL0     C32265   6.165  10.634   4.184 -0.2763  0.7385 -0.2167
  245MOL0     O32266   6.295  10.622   4.233 -0.2952 -0.0371 -0.0872
  245MOL0     C32267   6.385  10.519   4.189 -1.2983  0.4845  0.3183
  245MOL0     C32268   6.527  10.592   4.193 -0.1116  0.1244 -0.4459
  245MOL0     C32269   6.653  10.503   4.164 -0.1815 -0.0571  0.8824
  245MOL0     C32270   6.773  10.542   4.244 -0.0630 -0.3407 -0.5637
  245MOL0     C32271   6.898  10.483   4.192  0.7377  0.7745  0.2566
  245MOL0     C32272   6.989  10.436   4.122  0.5250 -0.6352  0.6836
  245MOL0     C32273   6.114  10.760   4.191  0.0261  0.1019 -0.8532
  245MOL0     C32274   5.980  10.777   4.154 -0.3059 -0.0216  0.1550
  245MOL0     H32275   5.603  10.958   3.909  1.4546 -0.7514  1.3165
  245MOL0     H32276   5.356  11.015   3.872  0.8960 -1.3935 -1.0446
  245MOL0     H32277   5.076  10.908   4.216  1.1573 -2.1662  0.8393
  245MOL0     H32278   5.053  10.780   4.096  0.9454 -0.5294 -1.1010
  245MOL0     H32279   4.930  11.058   4.052 -2.3692  1.1276  0.2201
  245MOL0     H32280   4.835  10.945   4.139  0.3396  0.3914  1.3554
  245MOL0     H32281   4.873  10.777   3.963 -2.6044  0.5446  2.0240
  245MOL0     H32282   4.936  10.889   3.849  0.5551  2.8327 -0.4271
  245MOL0     H32283   4.658  10.905   3.984  0.3314 -0.3272  0.6639
  245MOL0     H32284   4.716  11.010   3.841  2.3551 -1.3881 -3.6342
  245MOL0     H32285   4.765  10.801   3.722  2.5258  0.6822  1.8795
  245MOL0     H32286   4.599  10.860   3.721  2.3828  0.7612 -2.1436
  245MOL0     H32287   4.588  10.693   3.944  0.0810  1.6866 -0.6497
  245MOL0     H32288   4.698  10.609   3.836  1.2010  0.7453  0.8901
  245MOL0     H32289   4.481  10.521   3.781  0.9269  1.0762 -0.0754
  245MOL0     H32290   4.412  10.678   3.765 -0.1606  0.6118 -1.2370
  245MOL0     H32291   4.629  10.578   3.567  0.1761  2.1850 -4.2469
  245MOL0     H32292   4.529  10.714   3.560 -0.8393 -1.0485  0.2765
  245MOL0     H32293   4.263  10.665   3.476 -2.4970 -0.7918  1.1172
  245MOL0     H32294   4.141  10.499   3.253 -0.6904 -1.1954  0.4821
  245MOL0     H32295   4.049  10.545   3.404 -0.1861 -1.0203  1.5766
  245MOL0     H32296   4.023  10.303   3.450 -1.3208 -1.1808 -1.4148
  245MOL0     H32297   4.096  10.262   3.300  1.0195 -0.3346  1.1118
  245MOL0     H32298   3.848  10.434   3.351  0.8892  1.3025 -0.9129
  245MOL0     H32299   3.926  10.433   3.197  1.6397 -0.1258 -0.7648
  245MOL0     H32300   3.889  10.176   3.186  2.3157  1.3383  1.0709
  245MOL0     H32301   3.746  10.279   3.164 -1.8048 -1.8230  0.7591
  245MOL0     H32302   3.548  10.234   3.169 -1.9909  0.7256 -0.5786
  245MOL0     H32303   3.318  10.123   3.200  0.0883  1.4170 -0.4505
  245MOL0     H32304   3.066   9.757   3.441  0.7945 -0.1942 -1.2146
  245MOL0     H32305   2.827   9.694   3.421 -2.4058  0.7328 -0.7139
  245MOL0     H32306   2.604   9.687   3.420 -1.6976  0.2645  0.4989
  245MOL0     H32307   2.695   9.583   3.293  0.8619  1.6964 -0.7043
  245MOL0     H32308   2.476   9.494   3.325  0.6173 -1.1111 -2.4702
  245MOL0     H32309   2.491   9.561   3.160 -4.1129  0.2012 -1.2287
  245MOL0     H32310   2.404   9.769   3.200 -0.9383 -1.9395 -2.7453
  245MOL0     H32311   2.348   9.724   3.365  0.9494 -0.8247  1.3433
  245MOL0     H32312   2.180   9.704   3.194  0.9843  0.4778  4.2088
  245MOL0     H32313   2.276   9.570   3.120  0.4641 -2.1091  0.7676
  245MOL0     H32314   2.170   9.573   3.402  0.1931 -0.3120  0.7798
  245MOL0     H32315   2.248   9.438   3.336 -2.3807 -0.4653  2.6547
  245MOL0     H32316   2.020   9.473   3.154 -2.3476  1.7554  0.3749
  245MOL0     H32317   1.965   9.526   3.296 -0.1647 -2.4762  0.9139
  245MOL0     H32318   2.090   9.254   3.274 -1.3578 -1.5050 -0.0880
  245MOL0     H32319   2.038   9.321   3.426 -0.8367 -2.2105 -0.2060
  245MOL0     H32320   1.869   9.275   3.174  1.5953  0.5116 -0.2168
  245MOL0     H32321   1.809   9.348   3.337 -0.0381 -1.5913  2.1831
  245MOL0     H32322   2.773   9.960   3.097 -1.5562  0.6771  1.2793
  245MOL0     H32323   2.983  10.052   3.131  1.0485 -0.7423 -0.4210
  245MOL0     H32324   3.434  10.002   3.587  1.7728  2.5587  1.9399
  245MOL0     H32325   3.676  10.058   3.533  1.0102 -3.4969 -2.3880
  245MOL0     H32326   5.266  10.805   4.237  1.0655  1.2460  1.4065
  245MOL0     H32327   5.496  10.750   4.260  1.9967  0.5618  0.3955
  245MOL0     H32328   5.900  10.454   4.058  1.1779  0.9833 -2.8923
  245MOL0     H32329   6.150  10.430   4.121 -0.8506 -0.5177 -1.0096
  245MOL0     H32330   6.365  10.483   4.087  2.7818  0.2171 -0.5955
  245MOL0     H32331   6.384  10.440   4.264 -1.4086  0.7929  0.6423
  245MOL0     H32332   6.529  10.679   4.127  2.5977  0.2809 -0.2689
  245MOL0     H32333   6.536  10.624   4.297  1.9206 -2.3305  0.2309
  245MOL0     H32334   6.677  10.500   4.057 -1.8548  0.5188  0.4575
  245MOL0     H32335   6.628  10.402   4.198 -2.9680  1.1685  2.8853
  245MOL0     H32336   6.771  10.651   4.254  1.6397 -0.3307 -0.0252
  245MOL0     H32337   6.762  10.502   4.345 -1.4970 -0.6866 -0.8325
  245MOL0     H32338   7.068  10.408   4.055 -0.6104 -0.3000 -0.8600
  245MOL0     H32339   6.173  10.842   4.232 -3.3707  2.2034  0.2313
  245MOL0     H32340   5.939  10.876   4.160 -1.6679 -0.6648  3.6163
  246MOL0     O32341   3.686   7.388   1.763 -0.4624  0.2835  0.8272
  246MOL0     C32342   3.619   7.436   1.677 -0.2778  0.0518  0.5329
  246MOL0     O32343   3.484   7.423   1.662  0.2354  0.4076  0.6471
  246MOL0     C32344   3.405   7.348   1.746 -0.4673 -0.5685 -0.1294
  246MOL0     C32345   3.264   7.376   1.738 -0.9143  0.1673  0.2627
  246MOL0     C32346   3.171   7.309   1.817  0.4098 -0.9836  0.2740
  246MOL0     C32347   3.212   7.215   1.908  0.7290  0.0140 -1.0656
  246MOL0     O32348   3.122   7.124   1.970  0.5736  0.2672 -0.1460
  246MOL0     C32349   2.985   7.133   1.939 -0.3035  0.7796 -0.4698
  246MOL0     C32350   2.916   7.014   2.001  0.4102 -0.4211  0.6844
  246MOL0     C32351   2.888   7.032   2.155  0.6323  0.6355  0.5717
  246MOL0     C32352   2.822   6.906   2.206  0.9399 -0.2518 -0.1610
  246MOL0     C32353   2.672   6.916   2.181 -0.1104  0.1617  0.5988
  246MOL0     C32354   2.608   6.783   2.213  0.1179  0.9917  0.5763
  246MOL0     C32355   2.455   6.779   2.175 -0.2523 -0.6675  0.1573
  246MOL0     C32356   2.366   6.909   2.218 -0.6947  0.2696  0.7084
  246MOL0     N32357   2.278   6.957   2.107  0.1840  0.6848 -0.5200
  246MOL0     C32358   2.147   6.934   2.093  0.4548 -0.9420  0.0435
  246MOL0     C32359   2.112   6.998   1.977  0.0825 -0.3140  0.3445
  246MOL0     C32360   1.974   7.045   1.934  0.3897 -0.6422 -0.3711
  246MOL0     C32361   1.903   6.913   1.892 -0.3669 -0.8980  0.8077
  246MOL0     C32362   1.813   6.953   1.777  0.5927 -0.5904 -1.2444
  246MOL0     C32363   1.713   6.843   1.745 -0.0847  1.1012  0.0833
  246MOL0     O32364   1.596   6.863   1.819  0.0869  0.7520  0.2263
  246MOL0     C32365   1.486   6.790   1.790 -0.2155 -0.1960 -0.5373
  246MOL0     C32366   1.363   6.839   1.833  0.5970  0.0556  0.7356
  246MOL0     C32367   1.245   6.772   1.801 -0.0339  0.1218 -0.0079
  246MOL0     C32368   1.239   6.659   1.726 -0.5020  0.5099 -0.4669
  246MOL0     C32369   1.117   6.587   1.703  0.0028  0.2639  0.2926
  246MOL0     O32370   1.049   6.536   1.810  0.2125  0.0888  0.1283
  246MOL0     C32371   0.932   6.468   1.792  0.4395 -0.3779  0.2358
  246MOL0     C32372   0.893   6.385   1.896  0.1870  1.0125 -0.6562
  246MOL0     C32373   0.776   6.317   1.911  0.5518  0.4520  0.3967
  246MOL0     C32374   0.687   6.348   1.810 -0.4597 -0.1047 -0.1806
  246MOL0     O32375   0.565   6.292   1.817  0.1348 -0.2609  0.3194
  246MOL0     C32376   0.476   6.316   1.931 -0.0852 -0.3657  0.6718
  246MOL0     C32377   0.433   6.464   1.962 -0.6043  0.4233 -0.3110
  246MOL0     C32378   0.316   6.521   1.877 -0.0464 -0.9720  0.6043
  246MOL0     C32379   0.305   6.681   1.908  1.0283  1.0450 -0.3064
  246MOL0     C32380   0.156   6.710   1.873  0.0234  0.3262 -0.1040
  246MOL0     C32381   0.126   6.866   1.864 -0.3386 -0.2091 -0.1303
  246MOL0     C32382   0.074   6.906   2.002 -0.3912  0.5977  0.2086
  246MOL0     C32383   0.094   7.054   2.016 -0.1666  0.1282 -0.3853
  246MOL0    Cl32384  -0.003   7.148   1.890  0.0514  0.3772 -0.4702
  246MOL0     C32385   0.713   6.432   1.705 -0.2332 -0.0256 -0.2040
  246MOL0     C32386   0.841   6.489   1.688  0.3514  0.2373  0.8227
  246MOL0     O32387   1.088   6.561   1.583 -0.5318 -0.4418 -0.0846
  246MOL0     C32388   1.364   6.602   1.692  0.7396  0.5177 -1.1747
  246MOL0     C32389   1.480   6.672   1.718  0.0121  0.4867  0.2912
  246MOL0     N32390   2.231   7.042   1.920 -0.0371  0.4032  0.0799
  246MOL0     N32391   2.327   7.021   1.999  0.2845 -0.5990  0.8312
  246MOL0     C32392   3.343   7.178   1.913  0.4615  0.6474 -0.1019
  246MOL0     C32393   3.437   7.248   1.837 -0.2637 -0.2726 -0.4262
  246MOL0     C32394   3.693   7.522   1.575 -0.1962  0.6048 -0.6230
  246MOL0     C32395   3.811   7.590   1.606 -1.1943  0.1923 -0.0520
  246MOL0     C32396   3.870   7.681   1.516  0.5274 -0.8024 -0.1842
  246MOL0     C32397   3.800   7.714   1.398 -0.6565  1.1633 -0.1484
  246MOL0     O32398   3.839   7.810   1.318  0.0078 -0.2043 -0.0571
  246MOL0     C32399   3.925   7.922   1.359 -0.4769  0.7563 -0.1511
  246MOL0     C32400   4.076   7.889   1.333 -0.0754  0.3081 -0.1663
  246MOL0     C32401   4.089   7.896   1.178  0.1078  0.6487  0.1628
  246MOL0     C32402   4.155   7.775   1.130 -0.5934 -0.8680 -0.5439
  246MOL0     C32403   4.052   7.680   1.082 -0.1983 -0.3460  0.7340
  246MOL0     C32404   3.947   7.627   1.047  0.1048  0.2590  0.0599
  246MOL0     C32405   3.684   7.640   1.362  0.2186  0.4507 -0.4466
  246MOL0     C32406   3.629   7.555   1.457 -0.6041 -0.6226 -0.8646
  246MOL0     H32407   3.234   7.451   1.665 -0.3460 -1.5577 -1.8429
  246MOL0     H32408   3.066   7.336   1.810  0.7338  0.2218 -0.3248
  246MOL0     H32409   2.959   7.136   1.833 -1.0413  0.1999 -0.3111
  246MOL0     H32410   2.944   7.223   1.985  0.2490  0.2668  1.0694
  246MOL0     H32411   2.972   6.921   1.990 -1.5412 -1.6679  0.6763
  246MOL0     H32412   2.824   7.007   1.942  1.1058 -0.2908 -0.4428
  246MOL0     H32413   2.822   7.118   2.172 -0.5402 -0.0097 -0.5753
  246MOL0     H32414   2.986   7.039   2.204  0.0231  0.7120  1.8043
  246MOL0     H32415   2.867   6.825   2.148  3.5362  2.3084 -2.0012
  246MOL0     H32416   2.836   6.891   2.314  3.2082  0.2353 -0.3317
  246MOL0     H32417   2.654   6.939   2.076 -0.9846  1.6325  1.0398
  246MOL0     H32418   2.630   6.988   2.252 -0.6698 -0.6315  1.0878
  246MOL0     H32419   2.613   6.774   2.322 -2.3909  2.7409  0.9377
  246MOL0     H32420   2.662   6.702   2.163  0.1379  1.4434 -0.1442
  246MOL0     H32421   2.459   6.762   2.067  3.0853  0.9124 -0.0967
  246MOL0     H32422   2.412   6.696   2.233 -0.6491 -1.4497 -1.2129
  246MOL0     H32423   2.429   6.996   2.237 -1.3383  1.0930 -0.7073
  246MOL0     H32424   2.308   6.898   2.309 -2.9672  2.1053 -0.4244
  246MOL0     H32425   2.078   6.899   2.168 -1.9072 -1.7393 -2.3330
  246MOL0     H32426   1.979   7.115   1.850  0.4345 -1.3339 -0.9495
  246MOL0     H32427   1.916   7.090   2.015 -0.8033 -0.0748 -1.5072
  246MOL0     H32428   1.844   6.873   1.975  0.2907  0.3115  1.8961
  246MOL0     H32429   1.974   6.837   1.859 -0.0903 -1.2044  2.0451
  246MOL0     H32430   1.758   7.042   1.808  0.4807  0.2774 -3.6710
  246MOL0     H32431   1.865   6.995   1.690 -2.2398  0.2639 -2.6436
  246MOL0     H32432   1.760   6.745   1.761  0.1518  0.9056 -1.5906
  246MOL0     H32433   1.677   6.860   1.643 -1.5234 -0.9780  0.1733
  246MOL0     H32434   1.352   6.929   1.894  0.9837 -0.0994  1.0340
  246MOL0     H32435   1.149   6.799   1.846 -2.2117 -2.8863 -2.3768
  246MOL0     H32436   0.947   6.389   1.990 -1.7730  3.1020  0.4901
  246MOL0     H32437   0.749   6.254   1.995  0.6333 -2.2148 -1.4564
  246MOL0     H32438   0.512   6.277   2.027  0.6351 -1.9487 -0.1992
  246MOL0     H32439   0.389   6.252   1.919 -0.1435 -0.0825 -0.5472
  246MOL0     H32440   0.522   6.526   1.951 -1.4905  1.6565 -0.7128
  246MOL0     H32441   0.413   6.473   2.070  1.9715  3.0422  0.0531
  246MOL0     H32442   0.230   6.466   1.915 -0.1692 -1.8192 -0.8237
  246MOL0     H32443   0.327   6.498   1.771  2.1163 -0.2385  0.6104
  246MOL0     H32444   0.326   6.706   2.013  1.1603 -0.7121  0.1086
  246MOL0     H32445   0.378   6.740   1.852  0.4723  0.8720 -1.2352
  246MOL0     H32446   0.104   6.655   1.953 -1.8273 -0.2412 -1.6412
  246MOL0     H32447   0.141   6.664   1.775 -0.4028 -1.0308  0.5614
  246MOL0     H32448   0.050   6.884   1.788  0.1479  0.2570 -0.5159
  246MOL0     H32449   0.210   6.927   1.829 -1.4542  1.0765 -0.6213
  246MOL0     H32450  -0.027   6.870   2.026 -0.3159  0.7269  0.7365
  246MOL0     H32451   0.148   6.865   2.072  1.8690  0.5015 -2.0881
  246MOL0     H32452   0.200   7.078   2.004 -0.3085 -0.0438 -2.4689
  246MOL0     H32453   0.053   7.069   2.116 -1.0329  0.2844 -0.7540
  246MOL0     H32454   0.632   6.444   1.633 -1.2880  1.1929  1.1148
  246MOL0     H32455   0.850   6.567   1.613 -0.0775  1.8231  2.3559
  246MOL0     H32456   1.364   6.502   1.649  0.0432 -0.8638  1.8089
  246MOL0     H32457   1.566   6.620   1.676  0.4443  1.0321  0.4873
  246MOL0     H32458   3.368   7.093   1.975 -0.5121  0.0369 -0.5279
  246MOL0     H32459   3.541   7.225   1.859 -0.4200  0.8913  1.9166
  246MOL0     H32460   3.871   7.563   1.692 -1.4794  0.3931  0.2134
  246MOL0     H32461   3.966   7.729   1.533  0.9155 -1.3698 -0.7471
  246MOL0     H32462   3.911   7.946   1.465 -1.0327 -2.8098  0.7155
  246MOL0     H32463   3.889   8.005   1.298  1.1849  2.7498  1.4246
  246MOL0     H32464   4.131   7.973   1.376 -1.2037 -0.4715  3.0885
  246MOL0     H32465   4.108   7.798   1.384  0.0705  1.6055  2.2464
  246MOL0     H32466   4.160   7.977   1.157  1.8974 -0.9398 -0.1361
  246MOL0     H32467   3.993   7.902   1.124  0.7594 -2.6589 -1.6596
  246MOL0     H32468   4.217   7.817   1.051 -0.9444 -0.9222 -0.8479
  246MOL0     H32469   4.211   7.722   1.209 -0.9437  2.8015  2.4679
  246MOL0     H32470   3.854   7.580   1.022  0.1662  0.8848 -1.5008
  246MOL0     H32471   3.621   7.656   1.276  0.5348  1.2791 -0.5278
  246MOL0     H32472   3.527   7.528   1.431  0.3736 -2.9541 -2.7053
  247MOL0     O32473  10.678   2.354   4.167 -0.0529 -0.2980 -0.2345
  247MOL0     C32474  10.734   2.377   4.064 -0.9888  0.8167  0.3532
  247MOL0     O32475  10.681   2.453   3.958 -0.0319 -0.3309  0.2970
  247MOL0     C32476  10.558   2.503   3.969  0.5367 -0.3450 -0.3449
  247MOL0     C32477  10.548   2.639   3.933 -0.3175  0.6982  0.0024
  247MOL0     C32478  10.428   2.696   3.925  0.1877 -0.5493 -0.0917
  247MOL0     C32479  10.316   2.634   3.963 -0.3533  0.0965 -0.6442
  247MOL0     O32480  10.189   2.677   3.960  0.9024  0.2345  1.0423
  247MOL0     C32481  10.179   2.827   3.945  0.4681  0.0277  1.0585
  247MOL0     C32482  10.047   2.875   4.012 -1.3019  0.7502  0.0563
  247MOL0     C32483  10.008   3.010   3.960  0.3160  1.0861 -0.8290
  247MOL0     C32484   9.905   3.074   4.051 -0.3137 -0.3792 -0.5386
  247MOL0     C32485   9.878   3.222   4.006  0.1048 -0.4040  0.1952
  247MOL0     C32486   9.785   3.299   4.106  0.4989 -0.5044 -0.0199
  247MOL0     C32487   9.781   3.450   4.069 -0.8634  0.5762 -0.5176
  247MOL0     C32488   9.652   3.530   4.111  0.2996  1.1788  0.2757
  247MOL0     N32489   9.653   3.559   4.251  0.2859 -0.2280 -0.8732
  247MOL0     C32490   9.643   3.470   4.359  0.5381  0.0581  0.2140
  247MOL0     C32491   9.650   3.542   4.473 -0.1642 -0.5404 -0.2139
  247MOL0     C32492   9.639   3.500   4.618  0.0492 -0.0162 -0.0713
  247MOL0     C32493   9.517   3.416   4.658 -0.3885 -0.2933 -0.4022
  247MOL0     C32494   9.525   3.382   4.810  0.8859  0.0892 -0.2691
  247MOL0     C32495   9.419   3.273   4.847  0.9161 -0.1370  1.1957
  247MOL0     O32496   9.306   3.341   4.900  0.3145  0.4110 -0.5229
  247MOL0     C32497   9.207   3.274   4.968 -0.4426 -1.5209  0.0434
  247MOL0     C32498   9.188   3.139   4.984  0.0275  0.3729  0.3502
  247MOL0     C32499   9.072   3.093   5.042 -0.0913 -0.1876 -0.0684
  247MOL0     C32500   8.978   3.178   5.104  0.4013  0.1008  1.0046
  247MOL0     C32501   8.854   3.128   5.170 -0.6462 -0.3571 -0.6914
  247MOL0     O32502   8.860   2.994   5.202 -0.3336  0.4135  0.2950
  247MOL0     C32503   8.768   2.949   5.297  0.0173 -0.5637 -0.5446
  247MOL0     C32504   8.661   2.870   5.257  0.7627  0.1631 -0.2414
  247MOL0     C32505   8.573   2.826   5.355  0.6443  0.1946  0.0993
  247MOL0     C32506   8.596   2.853   5.494  0.8438  0.3434  0.0154
  247MOL0     O32507   8.514   2.804   5.589  0.9924  0.1775 -0.6840
  247MOL0     C32508   8.378   2.753   5.557 -0.4709 -0.6935 -0.0359
  247MOL0     C32509   8.306   2.715   5.681  0.8380 -0.3442  0.1356
  247MOL0     C32510   8.171   2.651   5.656  0.2622 -0.7272 -0.2684
  247MOL0     C32511   8.056   2.759   5.624  0.2296  0.7617  0.4515
  247MOL0     C32512   7.935   2.678   5.561  0.2694 -0.2462 -0.1129
  247MOL0     C32513   7.811   2.761   5.552 -0.8364  0.8041  0.7778
  247MOL0     C32514   7.683   2.695   5.490 -0.3254 -0.3478  0.1740
  247MOL0     C32515   7.628   2.571   5.560  0.4794 -0.0414 -0.1061
  247MOL0    Cl32516   7.538   2.468   5.440  0.4598  0.3608  0.0607
  247MOL0     C32517   8.707   2.926   5.524  0.6262 -0.5939 -0.2789
  247MOL0     C32518   8.797   2.975   5.431  0.1946 -0.8883 -0.3793
  247MOL0     O32519   8.765   3.211   5.199 -0.6553 -0.0958 -0.1214
  247MOL0     C32520   9.005   3.310   5.103  0.3695 -0.2598  0.0909
  247MOL0     C32521   9.118   3.363   5.035 -0.3607  0.4096  0.0117
  247MOL0     N32522   9.648   3.676   4.437  0.2459  1.0933 -0.0228
  247MOL0     N32523   9.649   3.684   4.307  0.1795  0.3189  0.5213
  247MOL0     C32524  10.328   2.498   3.999  0.7908 -0.3037  0.3792
  247MOL0     C32525  10.440   2.427   3.997  0.2720 -0.3036  0.5230
  247MOL0     C32526  10.864   2.309   4.045  0.3029 -0.7391  0.6078
  247MOL0     C32527  10.903   2.198   4.122 -0.3114  0.9398 -0.0623
  247MOL0     C32528  11.019   2.129   4.080 -0.1209  0.2776 -0.4759
  247MOL0     C32529  11.094   2.154   3.970  0.1827  0.0249  0.2163
  247MOL0     O32530  11.205   2.078   3.967  0.2025 -0.0317  0.6538
  247MOL0     C32531  11.275   2.068   3.838 -0.0771 -0.7250  0.4365
  247MOL0     C32532  11.367   1.957   3.826  0.5692 -0.3943 -0.2268
  247MOL0     C32533  11.475   1.969   3.928 -0.6845  0.9039  0.6471
  247MOL0     C32534  11.577   1.865   3.896 -0.7859  0.9955 -0.0968
  247MOL0     C32535  11.694   1.883   3.975 -0.9011  0.3129 -0.1234
  247MOL0     C32536  11.793   1.892   4.046  0.1141 -0.5587 -0.4967
  247MOL0     C32537  11.062   2.264   3.899 -0.0805 -0.1962 -0.3361
  247MOL0     C32538  10.949   2.343   3.936 -0.7037 -0.9235  0.1013
  247MOL0     H32539  10.645   2.683   3.914  0.4055 -0.0716  1.6381
  247MOL0     H32540  10.429   2.795   3.882  2.6973 -0.2092  0.5525
  247MOL0     H32541  10.170   2.851   3.838  0.5487 -1.2760  0.7536
  247MOL0     H32542  10.267   2.875   3.989  2.8688 -3.3741  0.3383
  247MOL0     H32543  10.058   2.874   4.121 -1.0960 -0.7016  0.0393
  247MOL0     H32544   9.961   2.808   3.999 -3.1107  2.8366  0.6122
  247MOL0     H32545   9.976   3.009   3.855  2.3680 -0.5731 -1.5167
  247MOL0     H32546  10.098   3.071   3.960  1.8950 -1.0738  0.5393
  247MOL0     H32547   9.813   3.014   4.054  0.4589 -1.5825  0.0535
  247MOL0     H32548   9.943   3.072   4.154  0.4459  1.5841 -0.7455
  247MOL0     H32549   9.848   3.236   3.902  0.8022 -0.3854 -0.0079
  247MOL0     H32550   9.973   3.275   4.007 -0.6294  0.9625  0.3359
  247MOL0     H32551   9.810   3.287   4.212 -2.2908 -1.9417  0.5677
  247MOL0     H32552   9.685   3.262   4.087 -0.3689  0.5036  2.2241
  247MOL0     H32553   9.872   3.495   4.110  0.0744 -1.8419  0.2399
  247MOL0     H32554   9.796   3.443   3.961 -0.8714 -1.6307 -0.4255
  247MOL0     H32555   9.562   3.475   4.081  1.4131 -0.9241  0.6562
  247MOL0     H32556   9.652   3.626   4.059  1.5944  1.1547  0.2119
  247MOL0     H32557   9.632   3.362   4.351  0.6728  0.1519 -1.6137
  247MOL0     H32558   9.634   3.589   4.681 -1.6696 -0.9414  1.1906
  247MOL0     H32559   9.724   3.439   4.650 -0.7902 -0.7246  0.8637
  247MOL0     H32560   9.509   3.325   4.598 -0.2301 -0.0860 -0.7395
  247MOL0     H32561   9.425   3.471   4.635  0.6020  1.0303 -1.3389
  247MOL0     H32562   9.623   3.336   4.822 -0.2086 -2.3568  0.0653
  247MOL0     H32563   9.520   3.474   4.868 -1.4662  0.6983 -1.3011
  247MOL0     H32564   9.463   3.205   4.921 -3.6495 -4.6157  0.3608
  247MOL0     H32565   9.384   3.209   4.766 -1.5841  2.8675 -0.3078
  247MOL0     H32566   9.242   3.062   4.930 -2.8446 -1.3548 -0.2357
  247MOL0     H32567   9.052   2.987   5.057 -1.0602  0.0688  0.4868
  247MOL0     H32568   8.658   2.837   5.154  1.4192 -1.7942  0.3183
  247MOL0     H32569   8.485   2.775   5.316 -0.1553 -0.2038  2.3034
  247MOL0     H32570   8.387   2.669   5.488  2.2859 -2.1001  1.8725
  247MOL0     H32571   8.321   2.831   5.505  0.0904  0.7384  1.4016
  247MOL0     H32572   8.305   2.805   5.743 -0.9985  3.4085 -4.7629
  247MOL0     H32573   8.380   2.644   5.721  2.9419  0.9780 -1.2348
  247MOL0     H32574   8.145   2.597   5.748  0.2139 -0.5222 -0.1602
  247MOL0     H32575   8.175   2.584   5.569 -0.8001  0.4769 -1.2929
  247MOL0     H32576   8.022   2.808   5.716 -1.9731  1.0377 -0.4617
  247MOL0     H32577   8.082   2.833   5.547 -5.0721  4.6701  1.8154
  247MOL0     H32578   7.921   2.594   5.630  0.2155  0.0502  0.2449
  247MOL0     H32579   7.961   2.645   5.461  1.7784  3.3523 -1.0885
  247MOL0     H32580   7.835   2.849   5.491 -0.6152 -0.3893 -0.9105
  247MOL0     H32581   7.791   2.798   5.654 -0.3696 -0.5257  1.3649
  247MOL0     H32582   7.605   2.770   5.478 -3.1622 -3.4927 -4.0101
  247MOL0     H32583   7.708   2.678   5.385  0.2347  2.0775 -0.1255
  247MOL0     H32584   7.571   2.607   5.646 -1.8241  1.2718 -2.0555
  247MOL0     H32585   7.711   2.509   5.594  1.9807  0.7148 -2.1609
  247MOL0     H32586   8.712   2.966   5.624 -3.0848  1.8604 -0.8825
  247MOL0     H32587   8.881   3.037   5.459 -0.0887 -0.8674  0.4303
  247MOL0     H32588   8.940   3.362   5.173 -0.0248 -0.6551  0.0208
  247MOL0     H32589   9.137   3.470   5.035  0.4288  0.3916 -3.3209
  247MOL0     H32590  10.239   2.440   4.020  1.5005 -1.7471 -0.4327
  247MOL0     H32591  10.437   2.321   4.023 -2.7240 -0.4388 -0.1027
  247MOL0     H32592  10.859   2.154   4.211  3.8927  1.1752  2.4269
  247MOL0     H32593  11.051   2.040   4.133  1.6047 -0.1763 -2.1438
  247MOL0     H32594  11.337   2.156   3.820  1.1913 -1.5479  0.6980
  247MOL0     H32595  11.200   2.067   3.757  1.8898 -1.1740 -1.4710
  247MOL0     H32596  11.310   1.869   3.856 -0.8288  1.1586  2.0193
  247MOL0     H32597  11.399   1.953   3.721 -0.9662 -1.8015 -0.6892
  247MOL0     H32598  11.444   1.951   4.031 -1.2057 -0.5237  0.2588
  247MOL0     H32599  11.508   2.073   3.924 -1.1256  1.1153  2.2070
  247MOL0     H32600  11.545   1.762   3.919  2.3897 -0.2276 -0.6393
  247MOL0     H32601  11.614   1.861   3.792  0.5803 -1.6453  0.3908
  247MOL0     H32602  11.871   1.891   4.119 -1.8354  0.5798  1.7289
  247MOL0     H32603  11.116   2.290   3.808 -0.9116  0.0409 -0.7709
  247MOL0     H32604  10.931   2.431   3.875 -2.5240 -1.4044 -0.1006
  248MOL0     O32605   1.512   5.641   1.451 -0.1992  0.7013  0.0900
  248MOL0     C32606   1.461   5.524   1.428 -0.3082 -0.7380 -0.5166
  248MOL0     O32607   1.331   5.502   1.397 -0.1186  0.6914 -0.0520
  248MOL0     C32608   1.256   5.605   1.357 -0.4798 -0.5805  0.1715
  248MOL0     C32609   1.203   5.691   1.455 -0.4606 -0.4579 -0.5386
  248MOL0     C32610   1.106   5.785   1.423 -0.3908 -1.3834 -0.1411
  248MOL0     C32611   1.056   5.798   1.294  0.0898  0.0626  0.6159
  248MOL0     O32612   0.945   5.868   1.263  0.1546  0.8297  1.2064
  248MOL0     C32613   0.886   5.949   1.358  0.0670 -0.0353 -0.2568
  248MOL0     C32614   0.757   5.996   1.296  1.0055 -0.0650 -0.2064
  248MOL0     C32615   0.683   6.101   1.386 -0.0041  1.0729  0.4685
  248MOL0     C32616   0.566   6.166   1.310  0.8210  0.1861 -0.4189
  248MOL0     C32617   0.460   6.218   1.413 -0.4085 -0.8746 -0.2673
  248MOL0     C32618   0.353   6.115   1.451 -0.2370  0.5195 -0.5070
  248MOL0     C32619   0.232   6.184   1.522 -0.0284  0.3461  0.1428
  248MOL0     C32620   0.270   6.217   1.671  0.5075  0.8670 -0.4420
  248MOL0     N32621   0.157   6.262   1.753  0.2376 -0.3318  0.0256
  248MOL0     C32622   0.042   6.321   1.701  0.3835  1.1356  0.4006
  248MOL0     C32623  -0.043   6.313   1.805 -0.8120  0.2083 -0.0033
  248MOL0     C32624  -0.176   6.390   1.816 -0.1151  0.8890 -0.4896
  248MOL0     C32625  -0.140   6.537   1.811 -0.4929 -0.1974  0.2159
  248MOL0     C32626  -0.248   6.633   1.847  0.2201 -0.5134 -0.2982
  248MOL0     C32627  -0.383   6.599   1.783 -0.3043 -0.5591  0.0074
  248MOL0     O32628  -0.475   6.691   1.829  0.3002  0.9715  0.0680
  248MOL0     C32629  -0.600   6.677   1.782  0.0985 -0.0836  0.4660
  248MOL0     C32630  -0.654   6.585   1.686 -0.8522  0.7298 -0.2031
  248MOL0     C32631  -0.782   6.591   1.636 -0.3355 -0.2752  0.0554
  248MOL0     C32632  -0.870   6.690   1.680 -0.0188 -1.1318 -0.4475
  248MOL0     C32633  -1.007   6.690   1.628 -0.7500 -0.1451  0.3218
  248MOL0     O32634  -1.051   6.599   1.534  0.3226  0.7447 -0.0048
  248MOL0     C32635  -1.185   6.610   1.495 -0.7627  0.5113 -0.3807
  248MOL0     C32636  -1.220   6.723   1.425 -0.2995 -0.3225  0.1666
  248MOL0     C32637  -1.364   6.749   1.399 -0.2169 -0.8061 -0.8153
  248MOL0     C32638  -1.465   6.661   1.435  0.2044  0.5453  0.5292
  248MOL0     O32639  -1.593   6.706   1.409  0.5001 -1.1324 -0.1520
  248MOL0     C32640  -1.706   6.625   1.445 -0.2689 -0.5016 -0.0316
  248MOL0     C32641  -1.827   6.713   1.397  0.4349 -0.5322  1.1682
  248MOL0     C32642  -1.963   6.639   1.412 -0.7157  0.5443 -0.3472
  248MOL0     C32643  -2.075   6.731   1.379  0.3916 -0.9480  0.9333
  248MOL0     C32644  -2.212   6.679   1.435  0.5497 -0.8241 -0.5830
  248MOL0     C32645  -2.319   6.779   1.408  0.6691 -0.4482  0.0839
  248MOL0     C32646  -2.467   6.716   1.432 -0.6956 -0.1203  0.0144
  248MOL0     C32647  -2.543   6.811   1.524  0.3493  0.6213  0.0255
  248MOL0    Cl32648  -2.721   6.775   1.511  0.0780  0.1450 -0.0532
  248MOL0     C32649  -1.428   6.536   1.486 -0.6201  0.3248 -0.3505
  248MOL0     C32650  -1.292   6.516   1.523  0.0322 -0.4669  0.4468
  248MOL0     O32651  -1.070   6.789   1.667  0.5812  0.1425  0.8020
  248MOL0     C32652  -0.814   6.792   1.766 -0.2384 -0.6196  0.4928
  248MOL0     C32653  -0.686   6.785   1.816 -0.2104  0.6232  0.6779
  248MOL0     N32654   0.013   6.256   1.915 -0.0428 -0.1866 -0.7598
  248MOL0     N32655   0.137   6.228   1.883  0.6171 -0.1267  0.1846
  248MOL0     C32656   1.127   5.727   1.189  0.2555 -0.5413  1.1004
  248MOL0     C32657   1.230   5.633   1.222  0.9931  0.2840  0.4102
  248MOL0     C32658   1.543   5.400   1.459  0.3008  0.3570  0.3493
  248MOL0     C32659   1.509   5.271   1.414  0.3335 -0.0654  0.4992
  248MOL0     C32660   1.589   5.154   1.434  0.1028  0.4697  0.2662
  248MOL0     C32661   1.718   5.179   1.472 -0.3843 -0.0163 -0.2460
  248MOL0     O32662   1.807   5.077   1.485 -0.2193  0.2826  0.8003
  248MOL0     C32663   1.776   4.937   1.436  0.4958  0.3430 -0.0971
  248MOL0     C32664   1.904   4.846   1.434 -0.2502 -0.1532 -0.4865
  248MOL0     C32665   1.863   4.701   1.447 -0.4721 -0.1461  0.1257
  248MOL0     C32666   1.892   4.636   1.586 -0.0425 -0.1505 -0.4998
  248MOL0     C32667   1.827   4.721   1.689  0.0737 -0.4318 -0.2941
  248MOL0     C32668   1.791   4.796   1.775 -0.1615 -0.0808  0.6116
  248MOL0     C32669   1.750   5.302   1.529  0.7364 -0.2843 -0.2792
  248MOL0     C32670   1.666   5.411   1.522 -0.1023 -0.1357  1.0701
  248MOL0     H32671   1.231   5.672   1.558 -3.4672 -2.1034  0.0681
  248MOL0     H32672   1.057   5.830   1.508  1.7600  2.1440 -0.5425
  248MOL0     H32673   0.944   6.038   1.382 -1.0164  1.1496 -1.8703
  248MOL0     H32674   0.850   5.882   1.437 -1.1841  0.7556 -0.1471
  248MOL0     H32675   0.686   5.914   1.285 -0.2064  0.4910  2.5204
  248MOL0     H32676   0.779   6.037   1.197  1.5104  0.9363  0.2999
  248MOL0     H32677   0.750   6.175   1.431  2.5001 -0.0851 -1.1608
  248MOL0     H32678   0.627   6.049   1.464  0.5628 -0.0812  0.1158
  248MOL0     H32679   0.598   6.252   1.251 -1.5512  2.9250  1.9877
  248MOL0     H32680   0.513   6.099   1.241 -0.6495  0.9606 -0.0898
  248MOL0     H32681   0.424   6.309   1.364  2.4181  0.0748 -0.7943
  248MOL0     H32682   0.520   6.256   1.497  0.4266  2.0635 -2.0324
  248MOL0     H32683   0.404   6.035   1.506 -0.7014  2.3637  2.8988
  248MOL0     H32684   0.310   6.082   1.356 -0.3846  0.7280 -0.5145
  248MOL0     H32685   0.199   6.276   1.472 -1.7117 -0.2933  0.0133
  248MOL0     H32686   0.145   6.118   1.510  0.6501 -0.1788 -2.9011
  248MOL0     H32687   0.343   6.298   1.670 -1.2181  2.5239  0.4190
  248MOL0     H32688   0.319   6.139   1.730 -0.1971  0.8459  0.1286
  248MOL0     H32689   0.031   6.377   1.608  1.2927  1.6011  0.5638
  248MOL0     H32690  -0.212   6.369   1.917  1.3540  0.9258  0.0547
  248MOL0     H32691  -0.246   6.355   1.739 -0.4226  1.5446 -0.5151
  248MOL0     H32692  -0.115   6.561   1.707 -2.1685 -0.0977 -0.1944
  248MOL0     H32693  -0.057   6.553   1.879 -0.8685 -0.5145  0.7579
  248MOL0     H32694  -0.260   6.645   1.955  0.6424  2.6489 -0.5174
  248MOL0     H32695  -0.211   6.732   1.823  3.1057 -1.8803 -2.0109
  248MOL0     H32696  -0.417   6.500   1.813 -0.3805 -1.4168 -2.6562
  248MOL0     H32697  -0.381   6.605   1.674 -1.0085  1.6008  0.0657
  248MOL0     H32698  -0.594   6.502   1.651 -1.1670 -0.1113  1.1860
  248MOL0     H32699  -0.819   6.511   1.573 -3.4246  0.2924  0.9863
  248MOL0     H32700  -1.142   6.791   1.394 -1.5238  0.5075 -1.2153
  248MOL0     H32701  -1.386   6.839   1.343 -0.0531 -1.2451 -1.5968
  248MOL0     H32702  -1.710   6.619   1.554 -1.7143  1.5070  0.0956
  248MOL0     H32703  -1.697   6.525   1.402 -0.4466 -0.7306  0.4621
  248MOL0     H32704  -1.805   6.718   1.289  0.7632 -0.9445  1.2153
  248MOL0     H32705  -1.818   6.811   1.445  4.3255 -0.7798  1.2858
  248MOL0     H32706  -1.966   6.607   1.517  2.3170 -0.1645 -0.3695
  248MOL0     H32707  -1.956   6.551   1.347  0.2544 -0.1977  0.7209
  248MOL0     H32708  -2.062   6.824   1.435 -3.7353  0.7422 -0.5859
  248MOL0     H32709  -2.093   6.755   1.274 -1.0979 -0.8789  1.1869
  248MOL0     H32710  -2.203   6.686   1.544  1.0460 -2.5179 -0.4904
  248MOL0     H32711  -2.242   6.579   1.403  0.0847 -1.3133  1.2388
  248MOL0     H32712  -2.319   6.805   1.302  0.0730  1.9887  0.6222
  248MOL0     H32713  -2.314   6.873   1.463 -2.8959  0.0790 -0.2749
  248MOL0     H32714  -2.528   6.714   1.342 -1.2209  2.9545  0.2205
  248MOL0     H32715  -2.466   6.614   1.473 -3.0618 -0.4131 -0.5033
  248MOL0     H32716  -2.533   6.916   1.493  1.8250  0.1209 -1.3075
  248MOL0     H32717  -2.511   6.803   1.629 -1.2172 -0.5901  0.4372
  248MOL0     H32718  -1.502   6.466   1.524 -3.2359  2.6897 -0.7730
  248MOL0     H32719  -1.279   6.421   1.573 -2.4027 -0.8580  0.4772
  248MOL0     H32720  -0.877   6.881   1.771  1.5012  0.9197 -2.1739
  248MOL0     H32721  -0.639   6.864   1.874 -1.6388  2.1167 -0.0857
  248MOL0     H32722   1.096   5.732   1.085 -0.2639  2.4811  1.3212
  248MOL0     H32723   1.286   5.577   1.149 -1.2807 -2.6818  0.7759
  248MOL0     H32724   1.428   5.254   1.345  2.1071 -0.7325 -1.5370
  248MOL0     H32725   1.558   5.055   1.402  0.6476  0.7965 -1.3493
  248MOL0     H32726   1.734   4.935   1.336  0.4035  1.3661 -0.0874
  248MOL0     H32727   1.692   4.890   1.488 -0.5418 -0.2693 -2.2456
  248MOL0     H32728   1.969   4.860   1.347 -1.9238  1.9799 -1.4918
  248MOL0     H32729   1.973   4.868   1.515 -0.9504  0.6364 -0.0927
  248MOL0     H32730   1.917   4.643   1.371  0.1651 -0.0349  0.4780
  248MOL0     H32731   1.758   4.694   1.421 -0.2858 -0.3827 -0.5834
  248MOL0     H32732   1.850   4.536   1.602  1.2794 -0.6152  0.2501
  248MOL0     H32733   2.001   4.648   1.590  0.0852 -1.0525 -1.0463
  248MOL0     H32734   1.739   4.859   1.845 -0.1203 -0.2927  0.8375
  248MOL0     H32735   1.850   5.319   1.568  1.4446 -3.5216 -0.3534
  248MOL0     H32736   1.700   5.508   1.558 -0.6099  0.1710  0.7341
  249MOL0     O32737   2.144  10.568   7.883 -0.3298  0.1121  0.0435
  249MOL0     C32738   2.248  10.641   7.883  0.5976 -0.3896  0.5217
  249MOL0     O32739   2.241  10.785   7.864  0.1029 -0.0322 -0.4159
  249MOL0     C32740   2.121  10.839   7.835  0.6477  0.0433 -0.2621
  249MOL0     C32741   2.118  10.964   7.900  0.7683 -0.2134 -0.7890
  249MOL0     C32742   2.014  11.051   7.882  0.6201 -0.0276  0.2053
  249MOL0     C32743   1.901  11.014   7.808  0.4054  0.5484  1.0371
  249MOL0     O32744   1.795  11.095   7.792 -0.2623  0.0292  1.1514
  249MOL0     C32745   1.732  11.134   7.913 -0.0153  0.1916  0.8526
  249MOL0     C32746   1.633  11.254   7.884 -0.3683  0.4804  0.3584
  249MOL0     C32747   1.502  11.193   7.816 -0.3732  0.4722 -0.6311
  249MOL0     C32748   1.419  11.307   7.764 -0.0005  0.3552  0.2968
  249MOL0     C32749   1.277  11.257   7.731  0.2250 -0.2727  0.6221
  249MOL0     C32750   1.187  11.247   7.847 -0.4149  0.1942 -1.1455
  249MOL0     C32751   1.044  11.208   7.807 -0.6298  0.1095  0.6630
  249MOL0     C32752   0.953  11.203   7.926  0.4201 -0.2662 -0.0526
  249MOL0     N32753   0.840  11.122   7.882  1.0170  0.7840  0.0346
  249MOL0     C32754   0.793  11.008   7.941 -0.9635 -0.4829  0.3732
  249MOL0     C32755   0.701  10.956   7.858 -0.1756  0.7889 -0.3866
  249MOL0     C32756   0.625  10.841   7.896  0.2810 -0.6516  0.3291
  249MOL0     C32757   0.514  10.867   7.995  0.3447 -0.7027 -0.2003
  249MOL0     C32758   0.434  10.993   7.959  0.4519  0.0004 -0.8251
  249MOL0     C32759   0.317  11.034   8.046 -0.2867 -0.1529 -0.1480
  249MOL0     O32760   0.194  10.962   8.017 -0.0433  0.7036 -0.3951
  249MOL0     C32761   0.084  10.999   8.084 -1.1276  0.3656 -0.3522
  249MOL0     C32762   0.069  11.124   8.142  0.9742 -0.2672 -0.3710
  249MOL0     C32763  -0.054  11.155   8.211 -0.0024  0.2949 -0.0799
  249MOL0     C32764  -0.156  11.060   8.224  0.1831 -0.1557  0.4145
  249MOL0     C32765  -0.285  11.111   8.268 -0.1684 -0.4896  0.1287
  249MOL0     O32766  -0.375  11.010   8.281 -0.5758 -0.9914 -0.3992
  249MOL0     C32767  -0.502  11.043   8.297  0.4639 -0.3449 -0.6475
  249MOL0     C32768  -0.594  11.043   8.194  0.0638  0.5730  0.9009
  249MOL0     C32769  -0.730  11.059   8.213 -1.3845 -0.0283 -0.8055
  249MOL0     C32770  -0.767  11.061   8.351 -0.4608 -0.3389 -0.0868
  249MOL0     O32771  -0.901  11.073   8.374 -0.3465 -0.0552  0.7805
  249MOL0     C32772  -0.955  11.066   8.505  0.5946 -0.4489 -0.2058
  249MOL0     C32773  -1.111  11.055   8.514  0.1800 -0.6517  0.3356
  249MOL0     C32774  -1.178  10.921   8.482 -0.3410 -0.7322 -0.4158
  249MOL0     C32775  -1.326  10.936   8.505  0.3054 -0.3263 -0.0581
  249MOL0     C32776  -1.410  10.803   8.500 -0.1420 -0.5019 -0.1504
  249MOL0     C32777  -1.555  10.819   8.554  0.1209  0.9342 -0.1560
  249MOL0     C32778  -1.643  10.689   8.528 -0.9076 -0.0244 -0.2543
  249MOL0     C32779  -1.792  10.701   8.573  0.0855 -0.1708  0.2548
  249MOL0    Cl32780  -1.868  10.549   8.557  0.0747  0.0270 -0.1431
  249MOL0     C32781  -0.677  11.067   8.457 -0.1513  0.9096  0.6790
  249MOL0     C32782  -0.539  11.058   8.429  1.2167  0.7009  1.2621
  249MOL0     O32783  -0.299  11.230   8.302 -0.5327  0.5843 -0.3304
  249MOL0     C32784  -0.131  10.931   8.178  0.1915 -0.1768  0.2941
  249MOL0     C32785  -0.012  10.904   8.110  0.5096 -0.4598  0.5251
  249MOL0     N32786   0.675  11.045   7.755 -0.2966 -0.4737  0.5426
  249MOL0     N32787   0.756  11.144   7.774 -0.2237 -0.2380  0.2747
  249MOL0     C32788   1.908  10.894   7.732  0.6772 -0.1450  0.0478
  249MOL0     C32789   2.024  10.804   7.741 -0.1107  0.1774  0.5261
  249MOL0     C32790   2.378  10.579   7.907  0.1326  1.7876 -1.2411
  249MOL0     C32791   2.495  10.656   7.907 -0.1670 -0.3299 -0.2974
  249MOL0     C32792   2.612  10.590   7.920 -0.2737 -0.0281 -0.1901
  249MOL0     C32793   2.622  10.452   7.932 -1.1223  0.9460 -0.6078
  249MOL0     O32794   2.747  10.391   7.922  0.3271 -0.4909  0.4351
  249MOL0     C32795   2.855  10.441   8.000  0.5510 -0.2184  0.3231
  249MOL0     C32796   2.951  10.337   8.047 -0.5665 -0.0076 -0.9627
  249MOL0     C32797   3.076  10.406   8.119 -0.2778  0.0101 -0.4359
  249MOL0     C32798   3.164  10.309   8.202 -1.2655 -0.4189 -0.5951
  249MOL0     C32799   3.224  10.222   8.106  0.1495 -0.3075 -0.3810
  249MOL0     C32800   3.276  10.147   8.028 -0.4501 -0.1712 -0.4903
  249MOL0     C32801   2.506  10.368   7.943 -0.4181 -0.5430 -0.3302
  249MOL0     C32802   2.382  10.431   7.924 -0.3797 -0.8039  0.1591
  249MOL0     H32803   2.192  10.986   7.976 -1.2988 -0.6015  1.4419
  249MOL0     H32804   2.011  11.155   7.914  0.4631 -0.2388  0.8861
  249MOL0     H32805   1.803  11.166   7.990  1.0456 -2.8424  1.2709
  249MOL0     H32806   1.671  11.047   7.938 -0.2059 -0.6906 -2.3311
  249MOL0     H32807   1.694  11.325   7.829  3.3021 -1.7774  1.1719
  249MOL0     H32808   1.595  11.303   7.974 -0.7113  0.6908  0.0993
  249MOL0     H32809   1.449  11.140   7.895 -0.7839  0.6249 -0.7990
  249MOL0     H32810   1.543  11.133   7.734  4.1503  1.2126  0.8105
  249MOL0     H32811   1.421  11.389   7.837  0.2542  1.1984 -0.6334
  249MOL0     H32812   1.465  11.348   7.674  1.2896 -2.8194 -0.5955
  249MOL0     H32813   1.274  11.167   7.669 -2.4651 -0.2369  0.6226
  249MOL0     H32814   1.224  11.323   7.662  0.1237 -3.5716 -2.7935
  249MOL0     H32815   1.183  11.340   7.903 -0.8947 -2.0506  2.9705
  249MOL0     H32816   1.238  11.169   7.905  2.2837  1.1911 -2.0732
  249MOL0     H32817   1.002  11.285   7.741  0.7983  0.3615  0.0266
  249MOL0     H32818   1.052  11.107   7.766  2.7060  0.0761  1.1391
  249MOL0     H32819   0.915  11.302   7.955  0.4723 -0.7910  1.9596
  249MOL0     H32820   0.986  11.157   8.020  0.4751 -0.0819  0.0194
  249MOL0     H32821   0.846  10.965   8.026  0.4394  0.0739 -0.1948
  249MOL0     H32822   0.676  10.763   7.954  0.2813  0.4499  1.8596
  249MOL0     H32823   0.569  10.814   7.806  0.9266  3.8342 -1.7021
  249MOL0     H32824   0.555  10.873   8.096 -3.3291 -0.9699  1.4764
  249MOL0     H32825   0.442  10.785   7.997 -0.8806  0.3398 -0.6410
  249MOL0     H32826   0.506  11.069   7.989  1.2347 -1.2438  0.5805
  249MOL0     H32827   0.419  10.999   7.851  3.2977 -2.0308 -1.4224
  249MOL0     H32828   0.295  11.139   8.025 -1.8214 -0.9548 -3.0934
  249MOL0     H32829   0.331  11.029   8.155  1.4603  1.0659 -0.2839
  249MOL0     H32830   0.145  11.201   8.143 -0.0803  0.8003  0.4455
  249MOL0     H32831  -0.074  11.259   8.235 -2.8244  0.0517 -0.9260
  249MOL0     H32832  -0.554  11.027   8.095 -1.8738 -0.4668  0.2174
  249MOL0     H32833  -0.800  11.060   8.130 -2.0633  0.0573 -0.2347
  249MOL0     H32834  -0.932  11.160   8.557  2.3791  0.1056 -1.8561
  249MOL0     H32835  -0.923  10.971   8.549 -0.7970  0.5283  3.2428
  249MOL0     H32836  -1.147  11.138   8.453  0.1773  0.2901  1.5823
  249MOL0     H32837  -1.132  11.086   8.617 -0.9694  0.9910 -0.3414
  249MOL0     H32838  -1.136  10.849   8.553 -0.5488 -1.2690 -0.8407
  249MOL0     H32839  -1.159  10.886   8.380 -0.8332 -1.1272 -0.3714
  249MOL0     H32840  -1.351  10.987   8.598 -0.7823  1.2391 -1.1404
  249MOL0     H32841  -1.372  10.988   8.420 -0.0737 -0.8808 -0.1975
  249MOL0     H32842  -1.360  10.719   8.550 -3.0193 -2.2644 -0.0131
  249MOL0     H32843  -1.408  10.786   8.392  3.9399  1.9366 -0.6651
  249MOL0     H32844  -1.607  10.904   8.509  0.9858  0.2482 -2.6238
  249MOL0     H32845  -1.547  10.846   8.660 -1.2689  2.8547 -0.5002
  249MOL0     H32846  -1.646  10.660   8.422  0.7719 -0.0640 -0.3165
  249MOL0     H32847  -1.598  10.606   8.584 -0.5227  1.2332  1.3479
  249MOL0     H32848  -1.833  10.771   8.500  0.8090  0.6735  0.6445
  249MOL0     H32849  -1.794  10.726   8.680  0.1956 -1.4543  0.5681
  249MOL0     H32850  -0.706  11.055   8.561 -1.1088 -2.1541  0.1463
  249MOL0     H32851  -0.467  11.040   8.509  0.0111  0.0499  2.2472
  249MOL0     H32852  -0.206  10.853   8.180 -1.2878  1.1537 -0.8337
  249MOL0     H32853   0.006  10.811   8.057 -0.9674 -0.4954  0.0286
  249MOL0     H32854   1.826  10.875   7.663  0.6032 -0.5904  0.2553
  249MOL0     H32855   2.041  10.714   7.683 -2.2485  0.1780 -0.1893
  249MOL0     H32856   2.494  10.765   7.906 -0.0508 -0.3242 -1.8580
  249MOL0     H32857   2.697  10.653   7.943 -2.7088  2.6610  2.4506
  249MOL0     H32858   2.823  10.499   8.086  1.1332 -1.0417  1.1058
  249MOL0     H32859   2.896  10.518   7.934 -0.6201  0.2858  0.1485
  249MOL0     H32860   2.899  10.283   8.127  1.4419  2.5774  2.3695
  249MOL0     H32861   2.980  10.266   7.969 -2.8472 -1.7092 -0.3617
  249MOL0     H32862   3.040  10.472   8.198  0.0758 -1.1299  0.7152
  249MOL0     H32863   3.137  10.458   8.046  1.6082 -1.0583  0.3076
  249MOL0     H32864   3.255  10.344   8.252 -0.5070 -1.7483 -0.9844
  249MOL0     H32865   3.096  10.260   8.272  1.3463 -2.0060  1.0233
  249MOL0     H32866   3.321  10.068   7.971  2.0344 -2.2121  3.7820
  249MOL0     H32867   2.521  10.260   7.943 -0.9985 -0.6563  1.2892
  249MOL0     H32868   2.285  10.386   7.906  0.5888 -2.4917 -1.1442
  250MOL0     O32869   2.292  10.042   9.896 -0.3587 -0.8812 -0.0051
  250MOL0     C32870   2.329  10.097  10.000  0.4987  0.0799  0.0982
  250MOL0     O32871   2.249  10.161  10.078  0.0525 -0.7945  0.2343
  250MOL0     C32872   2.115  10.165  10.034  0.1936 -0.8286 -0.3331
  250MOL0     C32873   2.031  10.073  10.094 -0.1552 -0.2239  0.3879
  250MOL0     C32874   1.898  10.072  10.049  0.1109 -0.6210  0.5150
  250MOL0     C32875   1.847  10.168   9.958 -0.2845  0.0552 -0.4335
  250MOL0     O32876   1.719  10.180   9.916  0.0865 -0.2087 -0.4456
  250MOL0     C32877   1.648  10.293   9.966  0.3884 -0.1531  0.1213
  250MOL0     C32878   1.571  10.251  10.093  0.0345 -0.3884 -0.1743
  250MOL0     C32879   1.475  10.134  10.075  0.4910  0.1283 -0.3066
  250MOL0     C32880   1.395  10.090  10.195 -0.0565 -0.4973 -0.0492
  250MOL0     C32881   1.308   9.963  10.179 -0.3549 -0.4058  0.2820
  250MOL0     C32882   1.251   9.926  10.308 -1.6027  0.1800  1.1303
  250MOL0     C32883   1.147   9.815  10.303 -0.5904 -0.4278 -0.0741
  250MOL0     C32884   1.118   9.770  10.447 -0.9367  0.4009  0.0099
  250MOL0     N32885   0.979   9.818  10.472 -0.8766 -0.1117  0.3066
  250MOL0     C32886   0.949   9.943  10.500  0.3507 -0.3504  0.1173
  250MOL0     C32887   0.819   9.958  10.465 -1.5814 -0.8053 -0.3226
  250MOL0     C32888   0.729  10.077  10.486  0.0959  0.3043  0.0656
  250MOL0     C32889   0.675  10.083  10.629 -0.9427 -0.5866 -0.0624
  250MOL0     C32890   0.519  10.103  10.625  1.0168 -0.0040  0.4485
  250MOL0     C32891   0.459  10.134  10.758  0.7611 -0.2459 -0.4663
  250MOL0     O32892   0.456  10.016  10.838 -0.0942  0.0725  0.1250
  250MOL0     C32893   0.432  10.032  10.972  0.6053 -0.3029 -0.4534
  250MOL0     C32894   0.358   9.930  11.042  0.8963 -0.3177  0.1023
  250MOL0     C32895   0.339   9.938  11.180 -0.7479  0.2919  0.2572
  250MOL0     C32896   0.383  10.056  11.255  0.3832 -0.2669  0.2210
  250MOL0     C32897   0.362  10.078  11.401  0.1052  0.6499  0.0952
  250MOL0     O32898   0.281   9.994  11.456  0.6060  0.8557 -0.0995
  250MOL0     C32899   0.253  10.005  11.586  0.5373 -1.7521 -0.7521
  250MOL0     C32900   0.332   9.939  11.679 -0.1361 -0.5683  0.1353
  250MOL0     C32901   0.308   9.954  11.821 -0.1134 -0.3268  0.3370
  250MOL0     C32902   0.184  10.003  11.866 -0.2411  0.5577  0.6692
  250MOL0     O32903   0.161   9.996  12.002 -0.4114 -0.1744 -0.3643
  250MOL0     C32904   0.025   9.993  12.058 -0.2014 -1.4393 -0.4800
  250MOL0     C32905  -0.036   9.852  12.064 -0.4608  0.1689  0.2597
  250MOL0     C32906  -0.185   9.858  12.040  0.6872  1.3948 -0.5578
  250MOL0     C32907  -0.258   9.720  12.078 -0.6101  0.1253  0.6732
  250MOL0     C32908  -0.399   9.702  12.033  0.2097  1.0905  1.2496
  250MOL0     C32909  -0.412   9.661  11.879 -0.1816  0.3865 -0.8920
  250MOL0     C32910  -0.546   9.590  11.840 -0.3782  0.1797 -0.5311
  250MOL0     C32911  -0.662   9.689  11.831 -0.1263 -0.2271  0.6808
  250MOL0    Cl32912  -0.668   9.761  11.670  0.1484 -0.0951 -0.1521
  250MOL0     C32913   0.108  10.071  11.768  0.1923  0.1988 -0.2404
  250MOL0     C32914   0.136  10.076  11.634  0.4100  0.5373  0.2114
  250MOL0     O32915   0.415  10.172  11.457  0.0647 -0.2532 -0.4468
  250MOL0     C32916   0.452  10.155  11.180 -0.8299 -0.6669 -0.5139
  250MOL0     C32917   0.466  10.151  11.047  0.3366  0.1466  0.8277
  250MOL0     N32918   0.771   9.836  10.423 -0.3706  1.1074 -0.0394
  250MOL0     N32919   0.870   9.757  10.422  1.2818  0.0315  0.1844
  250MOL0     C32920   1.938  10.243   9.895  0.3536 -0.3423 -0.5488
  250MOL0     C32921   2.070  10.244   9.933 -0.2596 -0.7227  0.1664
  250MOL0     C32922   2.464  10.077  10.043  0.7519 -0.1748 -0.7897
  250MOL0     C32923   2.544   9.998   9.963 -0.1350 -0.5795  0.0491
  250MOL0     C32924   2.669   9.981  10.012 -1.0915 -0.3954 -0.4039
  250MOL0     C32925   2.720  10.040  10.137 -0.0322 -0.4551 -0.3455
  250MOL0     O32926   2.847  10.016  10.184 -0.1277  0.3024  0.2781
  250MOL0     C32927   2.918   9.909  10.127  0.1263  0.1605  0.0350
  250MOL0     C32928   3.058   9.890  10.189  1.1059  0.2123  0.4622
  250MOL0     C32929   3.138  10.017  10.154  0.1207  0.1357  0.8055
  250MOL0     C32930   3.281   9.988  10.204  0.8626 -1.0198 -0.3652
  250MOL0     C32931   3.279   9.978  10.349 -0.1219 -0.2290  0.0873
  250MOL0     C32932   3.277   9.983  10.470 -0.3442  0.5365 -0.8549
  250MOL0     C32933   2.634  10.124  10.208 -0.0997  0.5402 -0.3693
  250MOL0     C32934   2.503  10.145  10.164 -0.4400  0.4503 -0.3150
  250MOL0     H32935   2.066  10.009  10.174 -0.4395 -1.1200 -0.1925
  250MOL0     H32936   1.841   9.994  10.098 -0.0116 -0.0116  1.3642
  250MOL0     H32937   1.568  10.327   9.900 -0.3056  1.3509  1.6525
  250MOL0     H32938   1.711  10.379   9.992 -2.4480  1.9388  0.6592
  250MOL0     H32939   1.521  10.339  10.135 -0.7521 -1.2957  0.8626
  250MOL0     H32940   1.644  10.216  10.167 -0.0556  0.0788  0.1418
  250MOL0     H32941   1.526  10.046  10.034 -0.0937  0.4794 -1.8883
  250MOL0     H32942   1.407  10.161   9.993 -0.4311  0.3157  0.5040
  250MOL0     H32943   1.472  10.066  10.269  0.4651 -1.2639 -0.8209
  250MOL0     H32944   1.336  10.179  10.220 -2.1773 -1.7921 -0.2271
  250MOL0     H32945   1.371   9.886  10.134  0.2436  0.6541 -0.7427
  250MOL0     H32946   1.221   9.991  10.119  0.3944 -2.6368 -2.0187
  250MOL0     H32947   1.206  10.016  10.351 -0.6795 -0.4988  3.7198
  250MOL0     H32948   1.339   9.898  10.367 -0.9048  1.9536  1.0014
  250MOL0     H32949   1.060   9.857  10.253  0.5220  1.0449 -0.8527
  250MOL0     H32950   1.189   9.726  10.254  0.3341 -0.2420  0.3540
  250MOL0     H32951   1.194   9.803  10.518  0.0897  0.3626 -1.0459
  250MOL0     H32952   1.111   9.661  10.445 -0.9250  0.2796  2.6545
  250MOL0     H32953   1.023  10.005  10.551  2.4909 -2.2267 -0.5281
  250MOL0     H32954   0.648  10.046  10.420  0.2887 -0.3270  0.1173
  250MOL0     H32955   0.776  10.171  10.455  0.7353  0.6122  1.8632
  250MOL0     H32956   0.725  10.166  10.678 -1.8642 -0.6861  1.1136
  250MOL0     H32957   0.702   9.988  10.677 -0.2110 -0.2840  0.1312
  250MOL0     H32958   0.504  10.196  10.570  1.8616  0.5531  1.1326
  250MOL0     H32959   0.474  10.017  10.573 -0.1243  0.4558  0.6529
  250MOL0     H32960   0.360  10.176  10.739  1.7611  1.9322 -1.1446
  250MOL0     H32961   0.527  10.209  10.798  0.4627 -0.3066  0.1661
  250MOL0     H32962   0.338   9.841  10.983  1.0918  0.2777 -0.8856
  250MOL0     H32963   0.298   9.846  11.221 -0.6256  0.1435  0.0457
  250MOL0     H32964   0.417   9.881  11.645 -0.7664 -0.8219 -1.0816
  250MOL0     H32965   0.369   9.895  11.888  2.3620  0.7593 -0.8110
  250MOL0     H32966  -0.041  10.067  12.011  0.2712 -0.8152 -0.1846
  250MOL0     H32967   0.040  10.029  12.161  2.2640 -2.1924 -0.5113
  250MOL0     H32968  -0.006   9.809  12.160  0.7440 -1.5000 -0.8033
  250MOL0     H32969   0.024   9.796  11.991  3.3536  1.1078  2.4128
  250MOL0     H32970  -0.210   9.887  11.937 -2.1713 -0.5691 -0.5392
  250MOL0     H32971  -0.225   9.935  12.107  1.7498  1.3751  0.1207
  250MOL0     H32972  -0.202   9.633  12.041  1.4907  2.1473 -1.3103
  250MOL0     H32973  -0.264   9.724  12.187 -2.4524  0.8043  0.5690
  250MOL0     H32974  -0.469   9.787  12.039  0.4767  1.8711 -2.9537
  250MOL0     H32975  -0.439   9.617  12.089  4.1077 -0.9563  1.2415
  250MOL0     H32976  -0.321   9.602  11.864  0.2262 -0.2690  3.0792
  250MOL0     H32977  -0.393   9.754  11.825 -2.0564  0.7735 -0.9462
  250MOL0     H32978  -0.546   9.536  11.745 -1.3993  1.8773 -1.5403
  250MOL0     H32979  -0.570   9.524  11.924 -1.8835  1.0612 -0.2336
  250MOL0     H32980  -0.653   9.766  11.908  1.2785  0.5734 -0.2338
  250MOL0     H32981  -0.756   9.641  11.859  1.0277 -2.0106  1.7215
  250MOL0     H32982   0.026  10.126  11.813  1.7007 -1.4129  5.3238
  250MOL0     H32983   0.068  10.140  11.580 -0.3341 -1.8410 -1.8877
  250MOL0     H32984   0.506  10.233  11.233 -1.5138  0.9347 -2.0678
  250MOL0     H32985   0.505  10.241  11.000  3.0543 -2.6969 -3.0341
  250MOL0     H32986   1.906  10.319   9.823  3.2190  3.0225  1.4373
  250MOL0     H32987   2.151  10.305   9.894  0.7938 -2.3325 -0.2765
  250MOL0     H32988   2.505   9.954   9.872 -2.9145  1.8982 -0.1105
  250MOL0     H32989   2.739   9.923   9.952  2.2066  2.5122  0.2782
  250MOL0     H32990   2.936   9.908  10.019 -0.2569 -2.5105 -0.0643
  250MOL0     H32991   2.854   9.821  10.136 -0.6348  0.3299 -2.6889
  250MOL0     H32992   3.044   9.883  10.297 -2.0112 -0.0356  0.1182
  250MOL0     H32993   3.104   9.800  10.146 -1.0597 -1.4213  1.3821
  250MOL0     H32994   3.093  10.098  10.211 -3.5513 -0.9221 -0.2784
  250MOL0     H32995   3.139  10.044  10.048 -1.9751  1.4223  1.0655
  250MOL0     H32996   3.334   9.905  10.155  1.9069 -0.5154 -0.1296
  250MOL0     H32997   3.345  10.073  10.179  2.2586 -0.6363  3.7767
  250MOL0     H32998   3.275  10.013  10.573 -0.3107  2.7152 -1.4315
  250MOL0     H32999   2.670  10.171  10.300  0.5322  0.0496 -0.3579
  250MOL0     H33000   2.427  10.203  10.214 -0.3719 -0.0976  0.4324
  251MOL0     O33001   4.576   2.547   8.759  0.5950 -0.0075 -0.3411
  251MOL0     C33002   4.680   2.606   8.744 -0.3569 -0.1998  0.3937
  251MOL0     O33003   4.696   2.711   8.652 -0.4270  0.3647  0.6436
  251MOL0     C33004   4.604   2.775   8.580  0.8153  0.0499  0.2635
  251MOL0     C33005   4.466   2.798   8.618  0.2568  1.2767  0.3392
  251MOL0     C33006   4.379   2.875   8.537  0.4352 -0.3174 -0.3568
  251MOL0     C33007   4.433   2.950   8.429  0.0521  0.3888  0.7115
  251MOL0     O33008   4.380   3.047   8.349  0.1909  0.3159  0.6514
  251MOL0     C33009   4.256   3.099   8.401 -0.9160 -0.9082 -0.6974
  251MOL0     C33010   4.203   3.205   8.304 -0.5127  0.3461 -0.5582
  251MOL0     C33011   4.285   3.334   8.299 -0.6423  0.2723 -0.3035
  251MOL0     C33012   4.192   3.427   8.217  0.3572 -0.1836 -0.3295
  251MOL0     C33013   4.257   3.564   8.198  0.5026  0.1716 -0.3550
  251MOL0     C33014   4.145   3.658   8.143 -1.0861 -0.1819  0.7458
  251MOL0     C33015   4.202   3.802   8.118  0.4273  0.6819  0.1696
  251MOL0     C33016   4.253   3.893   8.239  0.2791  0.0365 -0.1124
  251MOL0     N33017   4.267   4.025   8.180  0.6138 -0.1800  0.0149
  251MOL0     C33018   4.343   4.045   8.071 -0.1031  0.0043 -0.0082
  251MOL0     C33019   4.304   4.169   8.021 -0.4631  0.4236 -0.4877
  251MOL0     C33020   4.355   4.228   7.899  0.5277 -0.3588  1.0265
  251MOL0     C33021   4.293   4.167   7.778 -0.3069 -0.5279 -0.5513
  251MOL0     C33022   4.360   4.234   7.650 -0.0898  0.4827 -0.5089
  251MOL0     C33023   4.505   4.207   7.639 -0.8364  0.2362 -0.6757
  251MOL0     O33024   4.523   4.071   7.671 -0.9198 -0.0527  0.0354
  251MOL0     C33025   4.646   4.024   7.699  0.1151  0.3589  0.5252
  251MOL0     C33026   4.752   4.046   7.619  0.0655  0.1043 -0.0311
  251MOL0     C33027   4.876   4.001   7.650  1.1304  0.1283  0.2311
  251MOL0     C33028   4.900   3.922   7.757 -0.7965 -0.0625  0.9821
  251MOL0     C33029   5.029   3.864   7.795 -0.0785  0.6298  0.3267
  251MOL0     O33030   5.127   3.856   7.700  0.8839  0.4570 -0.2206
  251MOL0     C33031   5.236   3.778   7.740  0.7240 -0.6671 -0.3241
  251MOL0     C33032   5.211   3.638   7.758  0.1506 -1.3361 -0.8083
  251MOL0     C33033   5.308   3.564   7.816 -0.6367  0.4730 -1.0436
  251MOL0     C33034   5.441   3.601   7.842  0.0087  0.7681  0.2426
  251MOL0     O33035   5.527   3.507   7.899 -0.5974 -0.5184  0.3261
  251MOL0     C33036   5.665   3.529   7.862 -0.4323 -1.0380  0.2616
  251MOL0     C33037   5.749   3.413   7.898  0.0797 -0.4309 -0.0325
  251MOL0     C33038   5.742   3.355   8.038 -0.0007  0.3794  0.2551
  251MOL0     C33039   5.791   3.466   8.141  0.2748 -0.3192  0.6239
  251MOL0     C33040   5.805   3.394   8.270 -0.2091  0.4491 -0.3814
  251MOL0     C33041   5.908   3.279   8.286  0.6656 -0.5969 -0.3655
  251MOL0     C33042   6.055   3.322   8.262 -0.3244  0.3920  0.0300
  251MOL0     C33043   6.155   3.207   8.279  0.8752  0.4755 -0.3405
  251MOL0    Cl33044   6.241   3.198   8.445 -0.1112  0.1286 -0.1337
  251MOL0     C33045   5.470   3.739   7.806 -0.3968  0.8578 -0.2280
  251MOL0     C33046   5.368   3.826   7.761  0.3224  0.0714 -0.1966
  251MOL0     O33047   5.027   3.810   7.905 -0.1812 -0.4430 -0.5743
  251MOL0     C33048   4.783   3.878   7.837 -0.1648 -0.6301 -0.1190
  251MOL0     C33049   4.656   3.932   7.800  0.3525  0.2908 -0.2025
  251MOL0     N33050   4.190   4.213   8.094  0.5175  0.9922 -0.6408
  251MOL0     N33051   4.171   4.119   8.182  0.2956 -0.5680  0.1677
  251MOL0     C33052   4.565   2.919   8.386  1.4674  0.0528 -0.0325
  251MOL0     C33053   4.656   2.835   8.463  0.2619  0.3471 -0.0967
  251MOL0     C33054   4.792   2.546   8.802 -0.2137 -0.2014  0.4167
  251MOL0     C33055   4.781   2.409   8.840 -0.5723  0.0730 -0.4648
  251MOL0     C33056   4.894   2.352   8.898  0.7418  0.4986 -0.1818
  251MOL0     C33057   5.013   2.417   8.914  0.0400 -0.2389 -0.7050
  251MOL0     O33058   5.128   2.368   8.964 -0.9465  0.3046  0.6086
  251MOL0     C33059   5.138   2.227   9.004  0.3132 -0.5717 -0.4061
  251MOL0     C33060   5.265   2.199   9.076 -0.0354 -0.6578 -0.8320
  251MOL0     C33061   5.304   2.301   9.191 -0.5143 -0.9020 -0.3950
  251MOL0     C33062   5.225   2.278   9.314  0.3377  0.2735  0.1058
  251MOL0     C33063   5.280   2.353   9.427 -0.4606 -0.6276 -0.8131
  251MOL0     C33064   5.291   2.422   9.523  0.9548 -0.8291 -0.3783
  251MOL0     C33065   5.029   2.545   8.865 -0.4674 -0.8595  0.6819
  251MOL0     C33066   4.913   2.611   8.816  0.6701 -0.1093 -0.7021
  251MOL0     H33067   4.417   2.746   8.700  2.4098 -0.4707  0.6193
  251MOL0     H33068   4.281   2.885   8.583  1.1807 -4.6931  2.8089
  251MOL0     H33069   4.282   3.152   8.493 -2.8580 -1.2201  0.0869
  251MOL0     H33070   4.182   3.021   8.423 -0.2574 -1.1577  0.7110
  251MOL0     H33071   4.100   3.232   8.331 -0.1483 -0.5665  1.9787
  251MOL0     H33072   4.196   3.151   8.209 -2.7833  0.9026 -0.7762
  251MOL0     H33073   4.380   3.311   8.249  1.8155 -1.5389  4.4997
  251MOL0     H33074   4.313   3.366   8.400 -0.7150 -0.4582 -0.0449
  251MOL0     H33075   4.175   3.384   8.118  0.4179 -2.2836  0.5296
  251MOL0     H33076   4.095   3.441   8.266  0.9339  1.1788  0.5167
  251MOL0     H33077   4.338   3.550   8.125  0.0998 -4.0676 -0.2247
  251MOL0     H33078   4.298   3.605   8.291 -1.2334  0.5230  0.2915
  251MOL0     H33079   4.048   3.655   8.193 -1.7445 -3.7702 -0.4797
  251MOL0     H33080   4.129   3.613   8.045 -2.2184  1.0374  0.3446
  251MOL0     H33081   4.282   3.802   8.044  0.5310  1.7132  0.2676
  251MOL0     H33082   4.115   3.854   8.077  1.6446  0.9314 -2.2852
  251MOL0     H33083   4.346   3.855   8.283 -0.1517 -1.5306 -0.4644
  251MOL0     H33084   4.181   3.889   8.320 -1.3445  0.5822 -1.4752
  251MOL0     H33085   4.423   3.979   8.038  0.0397 -0.0884  0.5049
  251MOL0     H33086   4.464   4.218   7.901  0.3248 -3.7073  1.1290
  251MOL0     H33087   4.327   4.334   7.902 -2.0939 -0.9950  1.0625
  251MOL0     H33088   4.186   4.186   7.775 -0.5889 -2.0575 -1.1284
  251MOL0     H33089   4.304   4.058   7.776  3.6762 -0.2613 -1.3367
  251MOL0     H33090   4.321   4.190   7.557 -0.9884 -1.7166  0.8363
  251MOL0     H33091   4.346   4.342   7.659 -0.0770  0.3568  1.4320
  251MOL0     H33092   4.565   4.272   7.703 -1.5278  0.0053  0.2271
  251MOL0     H33093   4.540   4.239   7.540 -2.3097  2.2644 -0.6054
  251MOL0     H33094   4.734   4.115   7.537  0.4205  0.1071 -0.1080
  251MOL0     H33095   4.960   4.035   7.590  0.5260 -0.4254 -0.9661
  251MOL0     H33096   5.110   3.596   7.760  0.3080 -1.9704  3.6045
  251MOL0     H33097   5.295   3.459   7.840  2.5667  0.2665  0.3877
  251MOL0     H33098   5.704   3.616   7.916  2.2829 -1.4927 -0.7871
  251MOL0     H33099   5.683   3.534   7.754  1.5059 -0.2545  0.5673
  251MOL0     H33100   5.854   3.431   7.870  0.0716 -2.4626 -1.5946
  251MOL0     H33101   5.718   3.334   7.829  0.1031 -0.8117  0.3900
  251MOL0     H33102   5.801   3.263   8.042 -0.6745 -0.0444  2.9658
  251MOL0     H33103   5.637   3.332   8.057  0.5601 -0.5969  2.6132
  251MOL0     H33104   5.885   3.511   8.107  0.1857  0.5887  1.5485
  251MOL0     H33105   5.717   3.546   8.148  0.5740  0.1849 -1.3479
  251MOL0     H33106   5.706   3.349   8.283 -0.5201  1.4524  1.0186
  251MOL0     H33107   5.810   3.469   8.349 -4.5249 -2.2131  2.8845
  251MOL0     H33108   5.890   3.194   8.220 -1.6765 -1.6840  1.5031
  251MOL0     H33109   5.897   3.234   8.385  1.3601 -0.1196 -0.0672
  251MOL0     H33110   6.057   3.347   8.156  0.1095  1.8126  0.3562
  251MOL0     H33111   6.080   3.407   8.327  1.7437 -1.3421  1.6912
  251MOL0     H33112   6.227   3.211   8.197  1.0837 -1.0354 -0.2708
  251MOL0     H33113   6.098   3.114   8.268 -1.4298  1.7694  0.1643
  251MOL0     H33114   5.571   3.777   7.819 -0.7917  1.7454  0.3038
  251MOL0     H33115   5.390   3.928   7.732  0.8656 -0.7662 -3.0581
  251MOL0     H33116   4.787   3.804   7.916  0.6756  0.1771  0.6125
  251MOL0     H33117   4.565   3.906   7.854 -0.6283  5.6996  1.3440
  251MOL0     H33118   4.593   2.975   8.298 -1.6031 -0.6972 -1.6511
  251MOL0     H33119   4.753   2.799   8.432  1.1247 -0.0166  2.6777
  251MOL0     H33120   4.690   2.352   8.827 -0.6710  0.5140 -1.8955
  251MOL0     H33121   4.894   2.257   8.952  6.9785  0.8072  1.1950
  251MOL0     H33122   5.121   2.162   8.918 -0.2607  0.5753 -1.1931
  251MOL0     H33123   5.064   2.224   9.084 -0.0702  1.1721 -0.6575
  251MOL0     H33124   5.274   2.095   9.109  1.3173  0.0116  1.0677
  251MOL0     H33125   5.340   2.207   8.997  2.3710 -1.4421  1.2550
  251MOL0     H33126   5.279   2.398   9.147  0.6325 -1.5504 -2.6393
  251MOL0     H33127   5.411   2.300   9.213 -0.4587 -0.4057 -0.6218
  251MOL0     H33128   5.121   2.311   9.306  1.0437  2.5523 -0.2655
  251MOL0     H33129   5.229   2.169   9.329  2.7066  0.0709 -1.5749
  251MOL0     H33130   5.320   2.477   9.610  2.0039 -2.2047  0.1807
  251MOL0     H33131   5.120   2.600   8.886 -0.7954 -0.4927  1.1678
  251MOL0     H33132   4.925   2.715   8.788  3.9781 -0.0598  0.4927
  252MOL0     O33133  10.365   6.609   9.688  0.1150  0.5655 -0.3769
  252MOL0     C33134  10.440   6.525   9.645  0.4781  0.2881 -0.2690
  252MOL0     O33135  10.400   6.417   9.561 -0.1705 -0.3934  0.2251
  252MOL0     C33136  10.276   6.418   9.509  0.4311  0.9374 -0.5872
  252MOL0     C33137  10.266   6.409   9.375  0.9479 -1.1450  0.1982
  252MOL0     C33138  10.137   6.422   9.312 -0.7140  0.6099 -0.8054
  252MOL0     C33139  10.021   6.439   9.391  0.6079  0.3062 -0.3968
  252MOL0     O33140   9.902   6.471   9.331  0.9177 -0.0335 -0.2524
  252MOL0     C33141   9.794   6.376   9.350  0.0503  1.1603 -0.1677
  252MOL0     C33142   9.663   6.453   9.343 -1.4995 -0.2776  0.6122
  252MOL0     C33143   9.662   6.588   9.428  0.6841  0.4023  0.2255
  252MOL0     C33144   9.521   6.629   9.452 -0.2381 -0.6608 -0.6609
  252MOL0     C33145   9.516   6.749   9.550  0.1215  0.0991 -0.0309
  252MOL0     C33146   9.372   6.779   9.575 -0.1533  0.4514 -1.0028
  252MOL0     C33147   9.359   6.921   9.633  0.8026  0.1896  0.8026
  252MOL0     C33148   9.289   7.016   9.526  0.2656  0.0712 -1.0541
  252MOL0     N33149   9.145   7.004   9.529 -0.4225 -0.5774 -0.6762
  252MOL0     C33150   9.066   7.080   9.604  0.3328  0.3507  0.5122
  252MOL0     C33151   8.943   7.021   9.594 -0.8658 -0.3483  0.1863
  252MOL0     C33152   8.808   7.063   9.658 -0.2185  0.3736 -0.0596
  252MOL0     C33153   8.680   6.984   9.621 -0.6757  0.4541  0.2840
  252MOL0     C33154   8.622   7.024   9.488  0.0514 -0.6641  0.5554
  252MOL0     C33155   8.585   7.169   9.464  1.3187 -0.5207 -0.7597
  252MOL0     O33156   8.484   7.199   9.566  0.1319  0.5147 -0.0501
  252MOL0     C33157   8.356   7.229   9.532 -0.0872 -0.1419 -0.2691
  252MOL0     C33158   8.330   7.341   9.446  0.3497  0.8332  1.3166
  252MOL0     C33159   8.198   7.379   9.422  0.8112  0.6338  0.4784
  252MOL0     C33160   8.092   7.305   9.482  1.0929  0.3365 -0.0281
  252MOL0     C33161   7.944   7.335   9.452 -0.4034 -0.1387 -0.0216
  252MOL0     O33162   7.929   7.447   9.382 -0.1701 -0.2252  0.3409
  252MOL0     C33163   7.807   7.479   9.338  0.7143  0.5003  0.2431
  252MOL0     C33164   7.686   7.444   9.392 -0.6910 -0.1673 -0.5553
  252MOL0     C33165   7.566   7.512   9.353 -0.5776  0.3940 -0.5104
  252MOL0     C33166   7.554   7.585   9.243 -0.0239  0.8801  0.2773
  252MOL0     O33167   7.435   7.627   9.193  0.0352  0.0060 -0.4531
  252MOL0     C33168   7.428   7.715   9.085 -1.2197 -0.4390  0.3174
  252MOL0     C33169   7.274   7.729   9.055  0.3817  1.1299 -0.3098
  252MOL0     C33170   7.230   7.816   8.938  0.1768  0.4530  0.4321
  252MOL0     C33171   7.089   7.766   8.902  0.1726  0.2750 -0.1454
  252MOL0     C33172   6.991   7.858   8.828 -0.6114  0.2242 -0.2508
  252MOL0     C33173   6.861   7.783   8.821 -0.4195  0.2493 -0.7791
  252MOL0     C33174   6.754   7.855   8.741  0.8265 -0.1793 -0.0596
  252MOL0     C33175   6.709   7.989   8.799  0.6648 -0.4573 -0.4355
  252MOL0    Cl33176   6.603   7.964   8.940 -0.0812 -0.1914 -0.3437
  252MOL0     C33177   7.683   7.604   9.168  0.0098  0.0531 -0.4311
  252MOL0     C33178   7.808   7.556   9.222 -0.2433 -0.7531  0.2470
  252MOL0     O33179   7.865   7.238   9.469  0.4091  0.2746 -0.2994
  252MOL0     C33180   8.122   7.199   9.563  0.1088  0.1171 -0.2571
  252MOL0     C33181   8.253   7.153   9.586 -0.4894  0.3329  0.3846
  252MOL0     N33182   8.952   6.912   9.500 -0.4155  0.2427 -0.3820
  252MOL0     N33183   9.072   6.908   9.470  0.0522 -0.4440 -0.0276
  252MOL0     C33184  10.031   6.435   9.534 -0.3322 -0.9196  0.3589
  252MOL0     C33185  10.165   6.430   9.587  0.0574  0.3878 -0.4587
  252MOL0     C33186  10.587   6.550   9.670  0.0649  0.9524 -0.0569
  252MOL0     C33187  10.682   6.468   9.593  0.1665 -0.4915  0.3723
  252MOL0     C33188  10.818   6.489   9.613  0.2499 -1.3871  0.3514
  252MOL0     C33189  10.870   6.589   9.702 -0.0292 -0.2559 -0.3808
  252MOL0     O33190  11.008   6.598   9.723  0.2834 -0.0876  0.0015
  252MOL0     C33191  11.099   6.542   9.624 -0.0519 -0.0401  0.1996
  252MOL0     C33192  11.238   6.541   9.686  0.2318 -0.2445 -0.4382
  252MOL0     C33193  11.290   6.685   9.731  0.3157  0.2395  0.0973
  252MOL0     C33194  11.417   6.662   9.812 -0.7897  0.1978  0.2278
  252MOL0     C33195  11.526   6.601   9.741  0.0861 -0.4000  0.0401
  252MOL0     C33196  11.611   6.535   9.684  0.3436  0.1673  0.7832
  252MOL0     C33197  10.772   6.675   9.761 -0.4101 -0.8777 -0.1905
  252MOL0     C33198  10.637   6.653   9.760  0.4023  0.0939 -0.1454
  252MOL0     H33199  10.350   6.403   9.307  0.8946 -1.0303  0.1204
  252MOL0     H33200  10.128   6.432   9.205 -0.7025  1.7253 -0.7082
  252MOL0     H33201   9.794   6.327   9.448 -0.6598 -1.7765 -1.5359
  252MOL0     H33202   9.799   6.298   9.275 -0.7299  0.0475  0.8999
  252MOL0     H33203   9.584   6.378   9.358 -0.1216 -2.2137 -1.2693
  252MOL0     H33204   9.659   6.479   9.236  2.8495 -2.9196 -0.4310
  252MOL0     H33205   9.713   6.662   9.364  1.3610 -0.7727 -0.6478
  252MOL0     H33206   9.713   6.572   9.523  2.7055 -0.8521 -0.9872
  252MOL0     H33207   9.469   6.656   9.360 -0.7963 -0.0921 -0.1863
  252MOL0     H33208   9.461   6.549   9.496 -2.8898  1.9379  0.7873
  252MOL0     H33209   9.563   6.837   9.505 -1.1524  0.0355 -1.5824
  252MOL0     H33210   9.556   6.712   9.645  0.7428 -0.0108 -0.3324
  252MOL0     H33211   9.335   6.711   9.653 -0.0368  3.4750  1.9317
  252MOL0     H33212   9.309   6.768   9.487  0.9911 -2.3159 -1.5791
  252MOL0     H33213   9.291   6.919   9.719  1.1675  1.3671  1.1357
  252MOL0     H33214   9.453   6.968   9.663  0.3003  1.1417  0.9197
  252MOL0     H33215   9.334   6.996   9.428  4.6567 -0.3347  0.8137
  252MOL0     H33216   9.309   7.121   9.551 -0.8633 -0.3497  2.0384
  252MOL0     H33217   9.089   7.175   9.650 -0.1337  1.3992 -1.3031
  252MOL0     H33218   8.796   7.171   9.647 -0.8443  0.3469  0.2857
  252MOL0     H33219   8.831   7.051   9.764  2.1011  1.0815 -0.4266
  252MOL0     H33220   8.599   6.994   9.694  0.5744  0.7185  1.6881
  252MOL0     H33221   8.710   6.880   9.607 -0.1768  0.9734 -3.8031
  252MOL0     H33222   8.694   6.994   9.411 -2.2910 -1.7148 -1.3591
  252MOL0     H33223   8.540   6.953   9.477  0.2598 -0.7676 -0.4437
  252MOL0     H33224   8.540   7.190   9.367  0.0938  1.3896  0.1517
  252MOL0     H33225   8.669   7.239   9.467 -0.0401  1.2565 -1.9610
  252MOL0     H33226   8.416   7.399   9.414  0.7787  0.9808  2.6731
  252MOL0     H33227   8.188   7.458   9.348  6.2786  0.0765 -1.3648
  252MOL0     H33228   7.685   7.382   9.481 -0.4276  2.3800  1.3184
  252MOL0     H33229   7.474   7.486   9.404 -0.4965  0.6928 -0.2068
  252MOL0     H33230   7.479   7.675   8.998  1.0964 -1.2756  1.9726
  252MOL0     H33231   7.469   7.810   9.122  2.7610 -1.6258 -0.6066
  252MOL0     H33232   7.229   7.755   9.151  2.1959 -0.4954  1.0455
  252MOL0     H33233   7.247   7.626   9.034  2.0641  1.0462 -2.3823
  252MOL0     H33234   7.303   7.806   8.857 -0.9957 -1.7330 -0.4361
  252MOL0     H33235   7.211   7.922   8.955 -1.6403  0.1465  0.5653
  252MOL0     H33236   7.087   7.664   8.863  0.7503  0.2131 -0.0196
  252MOL0     H33237   7.036   7.749   8.997 -0.1909  2.0975  0.0152
  252MOL0     H33238   7.027   7.872   8.726 -0.9904  1.1833 -0.2632
  252MOL0     H33239   6.979   7.949   8.888  1.9275 -0.5710  1.6440
  252MOL0     H33240   6.815   7.755   8.916  1.5086 -2.1531 -0.4597
  252MOL0     H33241   6.886   7.690   8.771  1.4233  0.7700 -0.8865
  252MOL0     H33242   6.800   7.884   8.646 -1.1751  2.0785 -0.4229
  252MOL0     H33243   6.671   7.787   8.718 -2.7223  4.3347 -2.0655
  252MOL0     H33244   6.659   8.048   8.722  0.9780  2.9240  1.7652
  252MOL0     H33245   6.787   8.054   8.840  0.7130 -0.4401 -0.5505
  252MOL0     H33246   7.684   7.646   9.068 -0.7486  1.3853  0.0832
  252MOL0     H33247   7.904   7.580   9.176  1.3815 -2.9506  2.2132
  252MOL0     H33248   8.048   7.130   9.602  2.1140 -1.4299  1.0635
  252MOL0     H33249   8.267   7.071   9.655  1.5087  0.4344  0.1417
  252MOL0     H33250   9.943   6.444   9.596 -0.4950 -0.1252  0.0248
  252MOL0     H33251  10.192   6.439   9.692  1.5385  4.8299 -1.0274
  252MOL0     H33252  10.648   6.388   9.528 -0.3077  0.1337 -0.1641
  252MOL0     H33253  10.889   6.423   9.564  1.3774 -0.1279  0.2417
  252MOL0     H33254  11.085   6.600   9.532 -1.9178  0.5444  0.7858
  252MOL0     H33255  11.078   6.437   9.600  0.6367 -0.4696  1.4084
  252MOL0     H33256  11.235   6.493   9.784  3.2658  0.5394  0.1447
  252MOL0     H33257  11.301   6.490   9.614 -1.2431 -0.3307 -1.7328
  252MOL0     H33258  11.209   6.731   9.788 -0.9291  0.2533 -1.6051
  252MOL0     H33259  11.315   6.749   9.646  0.7393  0.0025  0.0418
  252MOL0     H33260  11.449   6.752   9.864  1.6561 -0.4190 -0.1099
  252MOL0     H33261  11.398   6.582   9.884  3.3028 -0.3558  0.9035
  252MOL0     H33262  11.674   6.482   9.615 -0.3013 -1.2164  1.2212
  252MOL0     H33263  10.815   6.760   9.814  3.3079 -2.9689  0.5054
  252MOL0     H33264  10.571   6.726   9.807 -1.0544 -0.7750 -0.7780
  253MOL0     O33265   0.085   6.651   8.901 -0.4674  0.7146 -0.4668
  253MOL0     C33266   0.156   6.663   8.801 -0.2105  0.4508 -0.3567
  253MOL0     O33267   0.139   6.756   8.699  0.5660  0.0410 -0.4899
  253MOL0     C33268   0.018   6.815   8.677  0.3212 -0.3589 -0.4000
  253MOL0     C33269   0.002   6.954   8.694  0.4676  0.3226 -0.4111
  253MOL0     C33270  -0.118   7.016   8.670 -0.7474  0.4508  0.8648
  253MOL0     C33271  -0.219   6.933   8.612  0.0422 -1.1068 -1.1036
  253MOL0     O33272  -0.338   6.981   8.557  0.5007  0.0444 -0.2216
  253MOL0     C33273  -0.402   7.087   8.637  0.2731 -0.4866 -0.2950
  253MOL0     C33274  -0.446   7.040   8.776  0.3667 -0.5770  0.2219
  253MOL0     C33275  -0.551   6.930   8.774 -0.4099  0.9215  1.1546
  253MOL0     C33276  -0.570   6.868   8.904  0.1384  0.1664 -0.0125
  253MOL0     C33277  -0.447   6.772   8.947  0.7334 -0.2428 -0.4438
  253MOL0     C33278  -0.359   6.835   9.057 -0.3715  0.4465  0.3353
  253MOL0     C33279  -0.224   6.756   9.063 -0.5891  0.1121 -0.3448
  253MOL0     C33280  -0.118   6.816   9.161  0.3211  0.4178  0.1541
  253MOL0     N33281  -0.103   6.956   9.141 -0.2940 -0.0110 -0.4517
  253MOL0     C33282  -0.013   6.999   9.047 -0.1180  0.5017  1.0170
  253MOL0     C33283   0.028   7.119   9.091 -0.0967 -0.4003  0.5555
  253MOL0     C33284   0.141   7.190   9.014  0.4655  0.3598  0.0343
  253MOL0     C33285   0.170   7.333   9.077 -0.3243 -0.5857 -0.1812
  253MOL0     C33286   0.257   7.411   8.976  0.2355  0.3312 -0.1452
  253MOL0     C33287   0.180   7.494   8.875 -0.5275 -1.2620 -0.4792
  253MOL0     O33288   0.145   7.623   8.926  0.2871  0.7506  0.0370
  253MOL0     C33289   0.043   7.708   8.873 -0.6153 -0.3775 -0.0860
  253MOL0     C33290   0.037   7.833   8.931 -0.6474 -0.3201  0.7907
  253MOL0     C33291  -0.040   7.931   8.870 -0.7396  0.0704  0.4375
  253MOL0     C33292  -0.136   7.892   8.778  0.4204  0.1753 -0.2802
  253MOL0     C33293  -0.230   7.995   8.727 -0.0126 -0.2286 -0.0953
  253MOL0     O33294  -0.226   8.116   8.783 -0.4658 -0.1120 -0.1954
  253MOL0     C33295  -0.329   8.210   8.776  0.4775 -0.8426  0.9735
  253MOL0     C33296  -0.300   8.348   8.797  0.0540 -0.0111 -0.7368
  253MOL0     C33297  -0.402   8.437   8.823  0.2255  0.4312  0.2607
  253MOL0     C33298  -0.535   8.410   8.821  0.8286  0.0743  0.4114
  253MOL0     O33299  -0.626   8.515   8.830  0.1930  0.4437  0.5619
  253MOL0     C33300  -0.763   8.489   8.864 -0.4859 -0.5423 -0.4177
  253MOL0     C33301  -0.831   8.622   8.835  0.4120 -1.0872  0.9580
  253MOL0     C33302  -0.796   8.697   8.704  0.0623 -0.3901 -0.0628
  253MOL0     C33303  -0.877   8.829   8.677  0.8360  0.4508 -0.2617
  253MOL0     C33304  -1.019   8.794   8.631 -0.2330  0.4276  0.6558
  253MOL0     C33305  -1.077   8.909   8.560 -0.0450  0.8501 -0.3540
  253MOL0     C33306  -1.229   8.898   8.536  0.3509 -1.1529 -0.3770
  253MOL0     C33307  -1.287   9.049   8.523 -0.0649  0.5303  0.3057
  253MOL0    Cl33308  -1.224   9.117   8.371  0.0021 -0.3088 -0.1378
  253MOL0     C33309  -0.564   8.270   8.791  0.5370  0.2587  0.1568
  253MOL0     C33310  -0.468   8.176   8.771 -0.8204  0.4100 -0.2080
  253MOL0     O33311  -0.322   7.952   8.657  0.6556 -0.0705  0.4731
  253MOL0     C33312  -0.136   7.761   8.721 -0.4560  0.2807  0.3555
  253MOL0     C33313  -0.039   7.674   8.767 -0.4690  0.3386 -0.1574
  253MOL0     N33314  -0.026   7.137   9.224  0.6980  0.0924 -0.2313
  253MOL0     N33315  -0.113   7.044   9.246  0.2375  0.5147 -0.0498
  253MOL0     C33316  -0.203   6.797   8.591 -0.0348  0.3713 -0.7313
  253MOL0     C33317  -0.088   6.735   8.635  0.2793  0.2649  0.1070
  253MOL0     C33318   0.275   6.575   8.788  0.5404 -0.8253  0.4483
  253MOL0     C33319   0.349   6.578   8.667  0.6070 -0.2757  0.0641
  253MOL0     C33320   0.449   6.485   8.641 -0.3248 -0.2530 -0.3569
  253MOL0     C33321   0.475   6.386   8.736 -0.2909  0.3093 -0.1356
  253MOL0     O33322   0.568   6.281   8.724 -0.7710  0.2549 -0.0438
  253MOL0     C33323   0.608   6.243   8.589 -0.4023  0.6074  0.4211
  253MOL0     C33324   0.666   6.103   8.579  0.6192 -0.4120 -0.5204
  253MOL0     C33325   0.815   6.116   8.617 -1.6764 -0.1868 -0.1951
  253MOL0     C33326   0.875   5.981   8.658  0.2370 -0.5160  0.5030
  253MOL0     C33327   1.019   6.001   8.686 -0.3883  0.3280 -0.2552
  253MOL0     C33328   1.137   6.013   8.709 -0.3998  0.4857 -0.5271
  253MOL0     C33329   0.402   6.388   8.859 -0.1039 -0.4740 -0.5818
  253MOL0     C33330   0.309   6.483   8.882  0.4685  0.0608  0.2088
  253MOL0     H33331   0.076   7.019   8.738  0.3144  0.0478  0.2546
  253MOL0     H33332  -0.127   7.120   8.696  0.9758  0.9409 -0.3373
  253MOL0     H33333  -0.483   7.125   8.574 -0.3951 -1.2619  0.0826
  253MOL0     H33334  -0.347   7.180   8.654  1.1299 -1.2100  1.1162
  253MOL0     H33335  -0.500   7.127   8.814 -0.7865 -0.9416 -0.5175
  253MOL0     H33336  -0.361   7.032   8.844  0.2021  1.5895  0.7572
  253MOL0     H33337  -0.512   6.866   8.695 -1.8220 -0.7508  1.7547
  253MOL0     H33338  -0.649   6.971   8.745 -1.0928 -2.1043 -1.3146
  253MOL0     H33339  -0.580   6.949   8.977  0.5940  0.0699  0.1634
  253MOL0     H33340  -0.663   6.809   8.905 -0.1976  0.6887  0.1006
  253MOL0     H33341  -0.383   6.752   8.860  0.0945 -0.9207 -0.7620
  253MOL0     H33342  -0.484   6.676   8.982 -0.3774  0.6838  1.0395
  253MOL0     H33343  -0.400   6.825   9.158  2.2050 -2.3289  1.2617
  253MOL0     H33344  -0.333   6.939   9.032 -1.3598  0.6006 -0.0922
  253MOL0     H33345  -0.250   6.654   9.092 -2.7281  0.5524 -0.5586
  253MOL0     H33346  -0.190   6.756   8.959 -0.1078  1.8447 -0.2226
  253MOL0     H33347  -0.028   6.753   9.162  0.0861  0.0788  0.2856
  253MOL0     H33348  -0.159   6.797   9.261  1.8168  1.2418  0.9599
  253MOL0     H33349   0.021   6.946   8.959  1.1543  0.9549  1.2114
  253MOL0     H33350   0.122   7.200   8.907 -0.0480 -1.0443 -0.0179
  253MOL0     H33351   0.231   7.131   9.035  0.4091 -0.0627 -0.8626
  253MOL0     H33352   0.197   7.310   9.180 -3.5515 -3.5217  0.1930
  253MOL0     H33353   0.070   7.374   9.091  0.0106 -0.8649  4.3502
  253MOL0     H33354   0.321   7.477   9.035  1.4932  0.0331 -1.1331
  253MOL0     H33355   0.329   7.346   8.924  0.5696 -0.4357  1.2409
  253MOL0     H33356   0.086   7.443   8.849 -2.7644  2.3188 -0.1551
  253MOL0     H33357   0.235   7.502   8.781  1.4434  0.8832  0.7479
  253MOL0     H33358   0.107   7.855   9.012 -1.8009  0.6451  1.5639
  253MOL0     H33359  -0.034   8.030   8.914  0.2197 -0.3235  1.2606
  253MOL0     H33360  -0.205   8.397   8.815  1.1565 -0.8319 -3.7660
  253MOL0     H33361  -0.379   8.540   8.848  0.5042  0.3149  0.4980
  253MOL0     H33362  -0.785   8.481   8.970 -0.8846  1.3408 -0.3085
  253MOL0     H33363  -0.814   8.411   8.806  4.2905 -2.3516 -2.6588
  253MOL0     H33364  -0.814   8.682   8.925  0.5949  0.8934 -0.3186
  253MOL0     H33365  -0.940   8.615   8.820  0.4265 -0.4088  0.4743
  253MOL0     H33366  -0.817   8.614   8.637 -3.2606  1.2481 -1.2364
  253MOL0     H33367  -0.687   8.711   8.707  0.0666 -0.4833  1.6369
  253MOL0     H33368  -0.883   8.886   8.770  1.6218  1.3337 -0.7425
  253MOL0     H33369  -0.823   8.896   8.610 -1.0085  1.3435 -0.9039
  253MOL0     H33370  -1.082   8.774   8.718  3.5230  0.9187  3.7812
  253MOL0     H33371  -1.012   8.701   8.573 -0.0924 -0.6825  2.3666
  253MOL0     H33372  -1.021   8.933   8.469  0.6951  0.2249 -0.0744
  253MOL0     H33373  -1.046   8.995   8.620 -0.8564  0.6777  0.3243
  253MOL0     H33374  -1.248   8.845   8.442  0.2072  1.5253 -1.9584
  253MOL0     H33375  -1.288   8.855   8.616 -0.0862 -2.4328 -1.3568
  253MOL0     H33376  -1.264   9.115   8.607 -1.3318  2.0413 -0.4891
  253MOL0     H33377  -1.394   9.032   8.515  0.3532 -2.3241 -0.4034
  253MOL0     H33378  -0.669   8.251   8.772  0.9507 -2.0285 -0.0692
  253MOL0     H33379  -0.499   8.074   8.752  1.2535 -0.0206 -1.7111
  253MOL0     H33380  -0.215   7.720   8.659 -0.6961  0.5571  0.4775
  253MOL0     H33381  -0.023   7.571   8.737  0.1991 -0.8817  3.7627
  253MOL0     H33382  -0.277   6.732   8.546  1.7447 -1.0432 -1.7791
  253MOL0     H33383  -0.074   6.628   8.621  0.8685  0.5733 -2.1639
  253MOL0     H33384   0.338   6.660   8.598  1.9900 -0.6390 -0.6408
  253MOL0     H33385   0.508   6.492   8.550  1.6950  0.9636  0.9609
  253MOL0     H33386   0.679   6.310   8.539 -2.3559  0.9489 -2.1402
  253MOL0     H33387   0.520   6.243   8.524  0.3287 -0.5466 -0.6165
  253MOL0     H33388   0.613   6.039   8.650 -0.1003 -1.7560 -2.1888
  253MOL0     H33389   0.655   6.047   8.485 -1.1795  1.3624 -1.4710
  253MOL0     H33390   0.818   6.188   8.699 -0.1533 -0.9006  0.4244
  253MOL0     H33391   0.869   6.173   8.541 -0.5946 -1.1288 -0.1630
  253MOL0     H33392   0.820   5.943   8.744 -0.4044  1.0126  0.8156
  253MOL0     H33393   0.854   5.909   8.579 -0.7297  0.6150 -0.3023
  253MOL0     H33394   1.235   6.020   8.750  0.1257  2.8407 -1.9939
  253MOL0     H33395   0.414   6.316   8.940  2.2801 -0.4364 -0.8279
  253MOL0     H33396   0.248   6.486   8.972 -1.6721  2.1104 -1.1763
  254MOL0     O33397   3.447   3.353   2.845 -0.1093  0.2908  0.2316
  254MOL0     C33398   3.496   3.253   2.793 -0.5609  0.1897 -0.6417
  254MOL0     O33399   3.432   3.137   2.785 -0.0990  0.0163 -0.0415
  254MOL0     C33400   3.303   3.135   2.827 -0.3483 -0.3850 -0.3684
  254MOL0     C33401   3.282   3.107   2.961 -0.2798  0.1778  0.1721
  254MOL0     C33402   3.157   3.113   3.022  0.0569 -0.1781  0.4721
  254MOL0     C33403   3.046   3.140   2.935 -0.8643 -0.2089  0.0521
  254MOL0     O33404   2.918   3.144   2.982  0.7717  0.4442  0.7205
  254MOL0     C33405   2.886   3.017   3.048 -0.0146  0.3113  0.2428
  254MOL0     C33406   2.744   3.016   3.095 -0.2207 -0.6198 -0.6101
  254MOL0     C33407   2.699   3.125   3.188 -0.5365 -0.4770  0.7598
  254MOL0     C33408   2.550   3.137   3.211  0.6044 -0.1718 -0.0465
  254MOL0     C33409   2.497   3.243   3.310  0.4885  0.2966  0.5909
  254MOL0     C33410   2.352   3.223   3.357 -0.3920 -0.7230  0.2136
  254MOL0     C33411   2.316   3.320   3.473  0.2722  0.6232 -0.5130
  254MOL0     C33412   2.162   3.330   3.507 -0.3231  0.1442  0.2852
  254MOL0     N33413   2.131   3.450   3.590  0.7746 -0.4062  0.5252
  254MOL0     C33414   2.024   3.454   3.676 -0.5917 -0.5004  0.3324
  254MOL0     C33415   2.026   3.580   3.720  0.4895  1.0150 -0.2694
  254MOL0     C33416   1.943   3.628   3.835  0.3666  0.4186  0.3551
  254MOL0     C33417   1.794   3.608   3.800  0.0699 -1.2946 -0.2479
  254MOL0     C33418   1.731   3.490   3.866 -0.0070  0.2481 -0.6278
  254MOL0     C33419   1.726   3.512   4.023  0.1910  0.1400  0.3226
  254MOL0     O33420   1.645   3.400   4.067  0.2276  0.0804  0.1138
  254MOL0     C33421   1.528   3.423   4.135 -0.1696 -0.6481  0.1046
  254MOL0     C33422   1.483   3.318   4.211 -0.3597 -0.2118 -0.6266
  254MOL0     C33423   1.357   3.325   4.286  0.6932 -0.1906  0.5683
  254MOL0     C33424   1.278   3.437   4.270 -0.0351  0.3079  0.8283
  254MOL0     C33425   1.147   3.438   4.319 -0.7768  0.9336  1.2750
  254MOL0     O33426   1.100   3.328   4.381  0.3000  0.8517 -0.3567
  254MOL0     C33427   0.971   3.316   4.411 -0.4553  0.0421  0.7517
  254MOL0     C33428   0.878   3.287   4.314  0.7061 -0.1499  0.3512
  254MOL0     C33429   0.741   3.289   4.341  0.3871 -0.3350  0.4029
  254MOL0     C33430   0.697   3.309   4.477 -0.0884  0.5894 -0.0081
  254MOL0     O33431   0.565   3.306   4.500  0.2111 -0.2075  0.0747
  254MOL0     C33432   0.518   3.378   4.611  0.2042 -0.2074  0.1668
  254MOL0     C33433   0.368   3.356   4.637  0.1291 -0.4593 -0.5224
  254MOL0     C33434   0.275   3.423   4.533  0.0308 -0.0341 -0.3610
  254MOL0     C33435   0.290   3.378   4.386 -0.3842  0.5334 -0.9876
  254MOL0     C33436   0.280   3.223   4.353 -0.2586 -0.3734  0.3879
  254MOL0     C33437   0.248   3.205   4.203  0.5940  0.2622  0.0028
  254MOL0     C33438   0.259   3.055   4.156  0.9857 -0.1142  0.1301
  254MOL0     C33439   0.221   3.024   4.010  0.1798 -0.3228 -0.0787
  254MOL0    Cl33440   0.359   3.053   3.911  0.1103  0.0359 -0.3367
  254MOL0     C33441   0.801   3.331   4.575  0.4027 -0.3621 -0.0693
  254MOL0     C33442   0.933   3.336   4.540 -0.2119  0.0428  0.7145
  254MOL0     O33443   1.082   3.536   4.298  0.0642  0.1473 -0.8006
  254MOL0     C33444   1.330   3.545   4.193 -0.5984 -0.5724 -0.7404
  254MOL0     C33445   1.451   3.548   4.128 -0.7826  0.5107 -0.8762
  254MOL0     N33446   2.121   3.655   3.669  0.0979  0.2564  0.2165
  254MOL0     N33447   2.181   3.572   3.584  0.1925  0.5330  0.3359
  254MOL0     C33448   3.076   3.176   2.798  0.0029  0.1425  0.6249
  254MOL0     C33449   3.204   3.170   2.739  0.8027 -0.1171  0.1042
  254MOL0     C33450   3.632   3.263   2.744 -0.5797 -0.7438 -0.1353
  254MOL0     C33451   3.685   3.158   2.659 -0.4458 -0.8233 -0.0725
  254MOL0     C33452   3.808   3.180   2.593  0.2117  0.0556  0.2975
  254MOL0     C33453   3.890   3.289   2.609  0.9196 -0.1989 -0.0668
  254MOL0     O33454   3.999   3.322   2.547  0.0269 -0.7081 -0.3439
  254MOL0     C33455   4.056   3.234   2.443  0.3509 -0.8047  0.3294
  254MOL0     C33456   4.171   3.322   2.390  0.0803  0.1569  0.6008
  254MOL0     C33457   4.128   3.449   2.307 -0.5836 -0.0961  0.1677
  254MOL0     C33458   4.241   3.556   2.291  0.6383  0.1944 -0.3345
  254MOL0     C33459   4.366   3.493   2.246 -0.6523 -0.1151  0.5532
  254MOL0     C33460   4.473   3.457   2.200  0.1390  0.0752  0.6658
  254MOL0     C33461   3.845   3.379   2.696  0.1837  0.1941 -1.4254
  254MOL0     C33462   3.722   3.369   2.761 -0.2391  0.1083  0.0250
  254MOL0     H33463   3.369   3.082   3.022 -1.2099  2.1530  2.4593
  254MOL0     H33464   3.135   3.082   3.124 -2.6181 -1.4870 -0.4269
  254MOL0     H33465   2.955   3.008   3.132  2.8463  2.6542 -1.6526
  254MOL0     H33466   2.916   2.930   2.990  0.1826  0.2056  0.5010
  254MOL0     H33467   2.715   2.928   3.153  0.2677  0.3944  1.2899
  254MOL0     H33468   2.678   3.022   3.008 -3.2449 -0.5878  1.4859
  254MOL0     H33469   2.744   3.215   3.144 -1.1621 -0.6131 -0.1758
  254MOL0     H33470   2.753   3.113   3.282  0.6525  1.9451  0.4626
  254MOL0     H33471   2.504   3.154   3.113  3.4860  0.7948 -1.3384
  254MOL0     H33472   2.524   3.041   3.256  1.6143 -0.6249 -0.4172
  254MOL0     H33473   2.513   3.336   3.255 -2.4098 -1.3693 -3.5335
  254MOL0     H33474   2.561   3.233   3.399  2.6904 -0.2711 -0.9782
  254MOL0     H33475   2.343   3.116   3.377 -2.7921 -0.7742 -0.8405
  254MOL0     H33476   2.283   3.233   3.273 -1.4913 -1.7036  0.9735
  254MOL0     H33477   2.361   3.293   3.570  3.4386  1.0782 -1.7197
  254MOL0     H33478   2.337   3.424   3.446 -3.0344  0.7369 -3.2510
  254MOL0     H33479   2.115   3.239   3.545 -1.8589  1.0253  0.6025
  254MOL0     H33480   2.105   3.351   3.417  0.7464  1.0646 -0.2009
  254MOL0     H33481   1.952   3.379   3.706 -0.4644 -1.1010 -0.8051
  254MOL0     H33482   1.952   3.737   3.839  3.2388  0.2235  2.4179
  254MOL0     H33483   1.978   3.578   3.925  2.7949 -3.0680 -2.2342
  254MOL0     H33484   1.776   3.604   3.692  1.1300  1.9406 -0.6490
  254MOL0     H33485   1.736   3.695   3.830  1.7078  0.4371 -1.8005
  254MOL0     H33486   1.635   3.470   3.818  1.0728 -2.0706 -1.9966
  254MOL0     H33487   1.791   3.400   3.850  0.4361  0.3751  0.2684
  254MOL0     H33488   1.691   3.610   4.057 -1.5678 -1.1076  2.3432
  254MOL0     H33489   1.828   3.511   4.063 -0.6836  2.5550  2.8855
  254MOL0     H33490   1.540   3.226   4.219  0.2206 -0.0991 -2.9434
  254MOL0     H33491   1.328   3.245   4.353  0.6570  1.1327  2.1759
  254MOL0     H33492   0.902   3.262   4.211  1.6596 -0.0944  0.5514
  254MOL0     H33493   0.667   3.275   4.264  0.4925  1.5351 -0.0818
  254MOL0     H33494   0.545   3.483   4.594  0.4218 -0.3189 -0.1938
  254MOL0     H33495   0.549   3.344   4.709 -2.7680 -1.4394  0.7915
  254MOL0     H33496   0.342   3.396   4.735 -1.6714 -0.5045 -0.9297
  254MOL0     H33497   0.341   3.251   4.651 -2.4478  0.4024  1.9940
  254MOL0     H33498   0.294   3.531   4.530 -0.8996  0.1433  0.0621
  254MOL0     H33499   0.175   3.399   4.569  0.1732  2.5134  2.0194
  254MOL0     H33500   0.197   3.410   4.338 -1.0777  1.2461  0.7739
  254MOL0     H33501   0.377   3.428   4.343 -0.5383  0.1426 -1.7891
  254MOL0     H33502   0.203   3.196   4.426  0.3825  2.2378  2.1501
  254MOL0     H33503   0.370   3.162   4.362  0.7897  0.7569 -1.7000
  254MOL0     H33504   0.319   3.269   4.149  0.2267  2.2000  1.7106
  254MOL0     H33505   0.148   3.244   4.182 -0.0875 -0.9389  0.9034
  254MOL0     H33506   0.360   3.015   4.167  2.3294  2.6264 -1.1449
  254MOL0     H33507   0.196   2.997   4.224 -0.0162 -0.2374 -0.8713
  254MOL0     H33508   0.132   3.083   3.987 -0.2662 -0.6709  0.7001
  254MOL0     H33509   0.186   2.922   3.990 -0.3736 -0.1695  0.0899
  254MOL0     H33510   0.790   3.346   4.682  0.3638  3.2911 -0.4514
  254MOL0     H33511   1.007   3.373   4.610 -0.7221  0.6534  0.9374
  254MOL0     H33512   1.269   3.631   4.167 -1.9807 -1.3749 -0.2746
  254MOL0     H33513   1.482   3.636   4.072  1.5079  1.2489  1.3572
  254MOL0     H33514   2.985   3.199   2.743  0.7446 -1.5447 -1.4323
  254MOL0     H33515   3.230   3.183   2.634 -1.7386  1.1062 -0.4633
  254MOL0     H33516   3.630   3.071   2.625  1.6376 -1.0508 -3.2480
  254MOL0     H33517   3.842   3.091   2.541 -3.7348 -0.2175 -2.2258
  254MOL0     H33518   3.992   3.214   2.357  0.2246  0.8566  0.0173
  254MOL0     H33519   4.094   3.142   2.489 -0.4729 -1.7740 -0.8632
  254MOL0     H33520   4.220   3.363   2.478  0.6366  0.4149  0.1699
  254MOL0     H33521   4.241   3.260   2.334  0.7527  1.8728 -0.5264
  254MOL0     H33522   4.043   3.492   2.361  0.4934 -0.4074  2.2496
  254MOL0     H33523   4.095   3.422   2.207  2.7448  2.0815 -1.7295
  254MOL0     H33524   4.206   3.617   2.207 -3.0751 -1.7697 -0.4192
  254MOL0     H33525   4.255   3.615   2.383 -0.9900 -3.2159  2.3359
  254MOL0     H33526   4.570   3.443   2.157 -0.9404 -1.1639 -1.5065
  254MOL0     H33527   3.899   3.473   2.706  3.5755 -1.6211 -1.4168
  254MOL0     H33528   3.697   3.434   2.845 -0.2320 -0.3894  0.4223
  255MOL0     O33529   4.672   3.860  10.839 -0.0732  0.1180  0.1074
  255MOL0     C33530   4.683   3.739  10.855  0.2943  0.0340  0.4693
  255MOL0     O33531   4.584   3.650  10.819 -0.2351  0.7054  0.0518
  255MOL0     C33532   4.462   3.679  10.758 -1.4078  0.0470  0.6131
  255MOL0     C33533   4.344   3.608  10.796 -0.4163  0.5249 -0.1790
  255MOL0     C33534   4.216   3.632  10.738  0.6927  0.0059 -0.5950
  255MOL0     C33535   4.206   3.706  10.621 -0.0414  0.1739 -0.6161
  255MOL0     O33536   4.085   3.708  10.559 -0.7159 -0.4962  0.2991
  255MOL0     C33537   4.071   3.756  10.423 -0.0448 -0.2146 -0.1592
  255MOL0     C33538   3.945   3.686  10.371  0.1584  0.6834 -0.6247
  255MOL0     C33539   3.922   3.705  10.221 -0.6154 -0.3966  0.4148
  255MOL0     C33540   3.889   3.846  10.168  0.0202 -0.4169  0.0697
  255MOL0     C33541   3.824   3.852  10.029 -0.7247  0.4840 -0.0506
  255MOL0     C33542   3.897   3.791   9.909 -0.0166 -0.4367  0.5450
  255MOL0     C33543   4.048   3.827   9.902 -0.4765 -0.4607  0.0097
  255MOL0     C33544   4.131   3.734   9.822 -0.3175 -0.1006  0.1388
  255MOL0     N33545   4.277   3.758   9.827  0.3008 -0.7845  0.0997
  255MOL0     C33546   4.368   3.758   9.727  0.8611 -0.4697  0.0782
  255MOL0     C33547   4.484   3.793   9.782 -1.1634  0.1656  0.1176
  255MOL0     C33548   4.619   3.800   9.699  0.0370 -0.4276 -0.5806
  255MOL0     C33549   4.657   3.945   9.686 -0.4430 -0.4156 -0.3818
  255MOL0     C33550   4.736   3.959   9.560 -0.2837  0.1643 -0.2517
  255MOL0     C33551   4.850   3.864   9.541 -0.1345 -0.3149 -0.3256
  255MOL0     O33552   4.900   3.899   9.413 -0.3222 -0.0245 -0.7547
  255MOL0     C33553   5.020   3.854   9.375 -0.0140 -0.5538  1.0853
  255MOL0     C33554   5.141   3.916   9.398  0.7094 -0.5974  0.9835
  255MOL0     C33555   5.250   3.890   9.324  0.8898 -0.6339  0.3856
  255MOL0     C33556   5.247   3.786   9.235  0.1197 -0.2977 -1.5167
  255MOL0     C33557   5.365   3.759   9.153 -0.9420  0.2241  0.2036
  255MOL0     O33558   5.471   3.848   9.177  0.2426 -0.0594  0.4256
  255MOL0     C33559   5.594   3.841   9.119 -0.3509 -0.1472 -0.3620
  255MOL0     C33560   5.615   3.851   8.982 -0.7484 -0.7442 -0.2681
  255MOL0     C33561   5.746   3.847   8.932  0.4821 -0.0091 -0.7644
  255MOL0     C33562   5.854   3.813   9.012 -0.9429  0.5201 -0.2272
  255MOL0     O33563   5.985   3.795   8.970 -0.6848  0.0484  0.1307
  255MOL0     C33564   6.032   3.924   8.922  0.7616  0.0878  0.0743
  255MOL0     C33565   6.136   3.977   9.032 -0.2000  0.5105  0.6216
  255MOL0     C33566   6.257   3.890   9.048  0.9907 -0.0641  0.4148
  255MOL0     C33567   6.384   3.960   9.111 -0.3790  0.1766  0.2587
  255MOL0     C33568   6.491   3.851   9.143 -0.0112 -0.8795  0.3935
  255MOL0     C33569   6.615   3.914   9.202 -0.4453 -0.6677  0.5274
  255MOL0     C33570   6.702   3.808   9.272  0.3298  0.0489  0.0786
  255MOL0     C33571   6.847   3.864   9.306  0.3026 -0.5270 -0.4448
  255MOL0    Cl33572   6.854   4.018   9.389 -0.3575  0.4850 -0.8400
  255MOL0     C33573   5.831   3.803   9.151 -1.1627  0.4062 -0.5318
  255MOL0     C33574   5.699   3.803   9.203 -0.1135  0.7274 -0.2476
  255MOL0     O33575   5.357   3.678   9.061  0.3741 -0.4208  0.2300
  255MOL0     C33576   5.134   3.707   9.227 -0.3184  0.1706  0.9873
  255MOL0     C33577   5.026   3.732   9.311  0.3183  0.6942 -1.0325
  255MOL0     N33578   4.469   3.817   9.914  0.1276 -1.0344 -0.9246
  255MOL0     N33579   4.349   3.793   9.943 -0.5550 -0.2612 -0.3686
  255MOL0     C33580   4.325   3.763  10.568 -1.5615 -0.1841 -0.1351
  255MOL0     C33581   4.445   3.749  10.629  0.3407 -0.5031  0.3300
  255MOL0     C33582   4.806   3.676  10.904  0.1143 -0.4546  0.3306
  255MOL0     C33583   4.825   3.537  10.906 -0.5369  0.2335 -0.4064
  255MOL0     C33584   4.954   3.491  10.946 -0.4854  0.4311 -0.3189
  255MOL0     C33585   5.059   3.568  10.983  0.4195  0.0110 -0.5294
  255MOL0     O33586   5.179   3.523  11.020 -0.2396 -0.6859  0.3156
  255MOL0     C33587   5.240   3.455  10.910  0.8258 -0.2503 -0.1649
  255MOL0     C33588   5.384   3.434  10.935 -0.8003  0.3415  0.2515
  255MOL0     C33589   5.447   3.388  10.798 -0.3019 -0.3024  0.4451
  255MOL0     C33590   5.554   3.279  10.816  0.2065  0.0095  0.6225
  255MOL0     C33591   5.608   3.243  10.682 -0.1298 -0.0055  0.5501
  255MOL0     C33592   5.668   3.214  10.581  0.2028  0.3073  0.3417
  255MOL0     C33593   5.050   3.710  10.971 -0.1572  0.8129 -0.5628
  255MOL0     C33594   4.918   3.761  10.935 -0.6200  0.9866 -0.1207
  255MOL0     H33595   4.352   3.536  10.876  2.6350 -0.7747 -1.5035
  255MOL0     H33596   4.131   3.587  10.788 -0.2824 -0.4451 -2.5547
  255MOL0     H33597   4.151   3.717  10.359 -1.4120 -2.0916 -0.7992
  255MOL0     H33598   4.075   3.865  10.415 -1.1412 -0.1829 -0.4835
  255MOL0     H33599   3.857   3.720  10.426  0.2506 -1.5783  1.0859
  255MOL0     H33600   3.949   3.582  10.405  1.5732  0.9973  0.2454
  255MOL0     H33601   3.834   3.648  10.192 -1.3053  0.7280  0.2207
  255MOL0     H33602   4.005   3.662  10.165  0.8467  2.2694  0.3839
  255MOL0     H33603   3.818   3.891  10.238  0.0594  1.0140 -0.7814
  255MOL0     H33604   3.975   3.914  10.172 -0.8162  0.6733 -0.0404
  255MOL0     H33605   3.813   3.957   9.997 -0.5421  0.1098 -1.3961
  255MOL0     H33606   3.724   3.808  10.040 -1.1982  2.0279  3.2335
  255MOL0     H33607   3.842   3.827   9.822 -0.7634 -0.1448  1.1260
  255MOL0     H33608   3.898   3.681   9.909 -1.1254 -0.4767 -1.0117
  255MOL0     H33609   4.049   3.925   9.853 -0.9485 -1.6492 -2.5212
  255MOL0     H33610   4.083   3.828  10.006  1.2462 -1.7182 -0.5097
  255MOL0     H33611   4.096   3.757   9.721 -0.5847 -1.3077 -0.0594
  255MOL0     H33612   4.112   3.632   9.858  2.6244 -0.1731  1.7648
  255MOL0     H33613   4.354   3.744   9.620  2.0779  0.5656 -0.2422
  255MOL0     H33614   4.593   3.751   9.604  1.0670 -2.3003  0.0604
  255MOL0     H33615   4.693   3.736   9.749  1.7594  0.0624 -2.3630
  255MOL0     H33616   4.718   3.971   9.773 -2.8426 -1.1954  1.6765
  255MOL0     H33617   4.567   4.005   9.673 -0.4019 -0.2755 -0.0425
  255MOL0     H33618   4.668   3.951   9.474 -1.3362  0.3110  0.5445
  255MOL0     H33619   4.781   4.058   9.566 -0.4675  0.1596  1.8846
  255MOL0     H33620   4.823   3.758   9.531  1.9468 -0.6929 -3.2794
  255MOL0     H33621   4.935   3.868   9.610  0.6194  0.2462 -1.2568
  255MOL0     H33622   5.141   4.001   9.466  0.1710  0.4600 -0.2670
  255MOL0     H33623   5.339   3.951   9.340  0.2372  0.8975 -1.4496
  255MOL0     H33624   5.529   3.849   8.917 -1.1983  0.6975  0.2410
  255MOL0     H33625   5.758   3.847   8.824 -0.6405  2.8599 -0.9921
  255MOL0     H33626   5.957   4.003   8.909  1.6540  1.3580  2.1144
  255MOL0     H33627   6.082   3.916   8.825  3.0512  3.5381  0.7642
  255MOL0     H33628   6.089   3.985   9.130 -1.0886 -1.6270  0.4118
  255MOL0     H33629   6.175   4.070   8.990 -2.4855  0.5941 -1.5946
  255MOL0     H33630   6.273   3.858   8.944  1.8930 -1.2056  0.8840
  255MOL0     H33631   6.225   3.812   9.118  1.4067  0.1674  0.8642
  255MOL0     H33632   6.410   4.036   9.037 -0.9489  0.9242  0.8244
  255MOL0     H33633   6.361   4.017   9.201 -0.5326 -0.9769  0.9645
  255MOL0     H33634   6.518   3.779   9.065  2.3504 -1.1954  1.3983
  255MOL0     H33635   6.440   3.796   9.223  0.8746 -3.1700 -0.5186
  255MOL0     H33636   6.584   3.990   9.273 -2.1810  1.7363 -2.5687
  255MOL0     H33637   6.673   3.965   9.125  1.6057 -3.3777  0.1257
  255MOL0     H33638   6.650   3.781   9.365  0.1959  1.5148  0.4644
  255MOL0     H33639   6.715   3.721   9.208 -0.0290 -0.9580  1.3208
  255MOL0     H33640   6.899   3.865   9.210 -0.6929  2.1841 -1.0721
  255MOL0     H33641   6.902   3.792   9.366 -0.1778 -0.9895 -0.5519
  255MOL0     H33642   5.910   3.782   9.222 -0.2286  0.0655 -1.6362
  255MOL0     H33643   5.697   3.776   9.307 -1.2988 -2.7946 -1.0612
  255MOL0     H33644   5.127   3.613   9.173  0.9874 -0.1377  1.3043
  255MOL0     H33645   4.936   3.672   9.310  0.8130 -0.6337  4.5268
  255MOL0     H33646   4.316   3.817  10.474 -0.0507 -0.3860 -0.4172
  255MOL0     H33647   4.531   3.799  10.585  1.3003 -0.1135  2.5613
  255MOL0     H33648   4.743   3.467  10.894  0.7684 -1.4432  0.2487
  255MOL0     H33649   4.969   3.384  10.945  1.5637  0.6648  0.0560
  255MOL0     H33650   5.226   3.517  10.821  1.2513 -0.7131 -0.5565
  255MOL0     H33651   5.189   3.359  10.895 -1.4927  0.4269  2.5276
  255MOL0     H33652   5.437   3.524  10.967 -0.5331 -1.1531  4.6165
  255MOL0     H33653   5.402   3.357  11.011 -1.1697 -1.1978 -1.1606
  255MOL0     H33654   5.496   3.468  10.742 -0.7856 -0.5849 -0.4083
  255MOL0     H33655   5.361   3.361  10.736  1.5238 -0.3088 -2.2748
  255MOL0     H33656   5.641   3.296  10.879  1.5328 -1.0007 -0.8483
  255MOL0     H33657   5.504   3.190  10.856 -1.9849  0.9889  0.2055
  255MOL0     H33658   5.715   3.180  10.491 -0.3788  1.5846 -0.4791
  255MOL0     H33659   5.134   3.772  10.999  0.4841 -0.1901 -0.1950
  255MOL0     H33660   4.911   3.869  10.923 -0.6631  1.0517  0.4821
  256MOL0     O33661   2.396   2.328   3.744 -0.2332  0.4390 -0.3358
  256MOL0     C33662   2.487   2.251   3.782  0.0548  0.3391  0.5937
  256MOL0     O33663   2.472   2.113   3.790 -0.2922  0.0809  0.2864
  256MOL0     C33664   2.338   2.071   3.776 -0.8108 -0.0661 -0.2163
  256MOL0     C33665   2.252   2.111   3.878  0.0502  1.0794 -0.1808
  256MOL0     C33666   2.115   2.090   3.867  0.3894 -0.1119 -0.1433
  256MOL0     C33667   2.069   2.006   3.766 -0.1937  0.0870  0.4781
  256MOL0     O33668   1.936   1.979   3.784 -0.2213 -0.3211  0.2328
  256MOL0     C33669   1.885   1.857   3.726 -0.4918 -0.3098 -1.4091
  256MOL0     C33670   1.732   1.867   3.715 -0.3904 -0.7569 -0.1177
  256MOL0     C33671   1.656   1.903   3.846  0.1107  0.2492  0.1342
  256MOL0     C33672   1.496   1.925   3.838  0.3098  0.0444  0.0679
  256MOL0     C33673   1.423   2.016   3.948  0.4537  0.5357 -0.0170
  256MOL0     C33674   1.288   1.951   3.965 -0.8415 -0.6925  0.1248
  256MOL0     C33675   1.211   2.027   4.072  0.3289 -0.5717 -0.4105
  256MOL0     C33676   1.077   1.951   4.107 -0.5280 -0.1643  0.2992
  256MOL0     N33677   1.004   1.909   3.986 -0.1142 -0.1850  0.2510
  256MOL0     C33678   0.933   1.999   3.910  1.4476  0.0500 -0.1019
  256MOL0     C33679   0.867   1.935   3.815 -0.1122 -0.8063  0.0383
  256MOL0     C33680   0.759   1.989   3.726 -0.0962  0.4104 -0.3618
  256MOL0     C33681   0.675   2.106   3.781  0.3645 -0.6497  0.2862
  256MOL0     C33682   0.546   2.133   3.707 -0.2359 -0.5730  0.3693
  256MOL0     C33683   0.463   2.248   3.766 -0.3531 -0.3721 -0.4269
  256MOL0     O33684   0.365   2.255   3.665  0.0752  0.1115 -0.1192
  256MOL0     C33685   0.258   2.338   3.670 -0.1096  0.2735  0.1100
  256MOL0     C33686   0.170   2.324   3.561 -0.2583 -0.6142 -0.2195
  256MOL0     C33687   0.053   2.394   3.564  0.9939  0.4513  0.8202
  256MOL0     C33688   0.024   2.486   3.664  0.0371  0.4641  0.2407
  256MOL0     C33689  -0.114   2.544   3.676 -0.1693 -0.0840  0.3590
  256MOL0     O33690  -0.199   2.517   3.579  0.1354  0.2308 -0.6096
  256MOL0     C33691  -0.321   2.584   3.583  0.3209 -0.3971 -0.2227
  256MOL0     C33692  -0.331   2.728   3.571  0.1533 -0.4696  0.2178
  256MOL0     C33693  -0.457   2.788   3.569 -0.8284  0.2834  0.2302
  256MOL0     C33694  -0.571   2.702   3.592 -0.0790 -0.0583  0.4483
  256MOL0     O33695  -0.687   2.767   3.605  0.9631 -0.4628  0.2348
  256MOL0     C33696  -0.782   2.755   3.497 -0.0644 -0.2241  0.6257
  256MOL0     C33697  -0.901   2.822   3.545  0.6467 -0.4486 -0.2754
  256MOL0     C33698  -1.002   2.853   3.433  0.2119  0.7305 -0.3844
  256MOL0     C33699  -1.103   2.961   3.484 -0.7799 -0.4203 -0.3836
  256MOL0     C33700  -1.197   2.993   3.371  0.1761 -0.3730 -0.4427
  256MOL0     C33701  -1.305   3.092   3.415 -0.0022 -0.6269 -0.2370
  256MOL0     C33702  -1.396   3.124   3.296 -0.7219 -0.1975  0.2495
  256MOL0     C33703  -1.514   3.217   3.333  0.0983  1.0902 -0.7643
  256MOL0    Cl33704  -1.639   3.121   3.416  0.1736 -0.0957  0.1157
  256MOL0     C33705  -0.560   2.564   3.616 -0.4524  0.1000 -0.5783
  256MOL0     C33706  -0.434   2.509   3.616 -0.1960  0.1472  0.8716
  256MOL0     O33707  -0.130   2.619   3.769  0.7184 -0.3296  0.3875
  256MOL0     C33708   0.115   2.504   3.767  0.1739 -0.0307  0.4899
  256MOL0     C33709   0.231   2.433   3.772  0.0409 -0.7133 -0.0806
  256MOL0     N33710   0.898   1.802   3.828 -0.7529  0.8447 -0.8812
  256MOL0     N33711   0.991   1.786   3.922 -0.6534 -0.3614  0.3367
  256MOL0     C33712   2.153   1.964   3.651  0.2652 -0.0449 -0.3262
  256MOL0     C33713   2.291   2.008   3.666 -0.1285 -0.3557 -0.0386
  256MOL0     C33714   2.615   2.317   3.835  0.6443  0.3832  0.3855
  256MOL0     C33715   2.644   2.456   3.845  0.0502  0.4156 -0.5071
  256MOL0     C33716   2.767   2.505   3.899  0.4102 -0.3158  0.0702
  256MOL0     C33717   2.862   2.414   3.942  0.0892  1.0196  0.1012
  256MOL0     O33718   3.001   2.434   3.979 -0.2658  0.2930  0.7984
  256MOL0     C33719   3.040   2.558   4.038  0.3903  0.2190  0.3609
  256MOL0     C33720   3.193   2.546   4.076  0.2104  0.3156  0.4224
  256MOL0     C33721   3.290   2.514   3.974 -0.6945 -0.2460  0.0365
  256MOL0     C33722   3.319   2.621   3.873 -0.5285  0.3664  0.3248
  256MOL0     C33723   3.382   2.560   3.756 -0.7359  0.6197  0.1816
  256MOL0     C33724   3.431   2.497   3.664 -0.5675 -0.1021  0.6898
  256MOL0     C33725   2.825   2.281   3.936 -0.6428 -0.0293  1.1274
  256MOL0     C33726   2.704   2.226   3.890  0.3228 -0.2300 -0.1156
  256MOL0     H33727   2.285   2.154   3.972  0.3437 -2.3411  1.4629
  256MOL0     H33728   2.051   2.125   3.947  2.2028  2.7224  0.1821
  256MOL0     H33729   1.911   1.774   3.793 -2.2331  0.7667  0.7112
  256MOL0     H33730   1.928   1.845   3.626  0.6098 -0.7025 -0.9091
  256MOL0     H33731   1.691   1.774   3.675 -0.1503  0.1744 -2.7678
  256MOL0     H33732   1.715   1.949   3.644 -0.3512 -0.6785 -0.0358
  256MOL0     H33733   1.697   1.997   3.886  3.2461 -0.6073 -0.7567
  256MOL0     H33734   1.675   1.823   3.919 -0.9742  0.3165  0.4975
  256MOL0     H33735   1.482   1.983   3.746  0.0305 -0.2897 -0.0974
  256MOL0     H33736   1.454   1.825   3.843 -0.2037  0.2393 -0.2513
  256MOL0     H33737   1.407   2.114   3.901  0.2859 -0.4374 -2.0948
  256MOL0     H33738   1.472   2.023   4.045 -5.4185  1.8536  3.3407
  256MOL0     H33739   1.294   1.846   3.997 -2.3730 -0.9800 -0.4341
  256MOL0     H33740   1.246   1.959   3.865 -0.6581 -1.0223  0.0176
  256MOL0     H33741   1.268   2.029   4.165 -1.7756 -1.5223  0.9906
  256MOL0     H33742   1.186   2.131   4.046 -0.1432 -0.4517  0.4923
  256MOL0     H33743   1.013   2.004   4.177 -4.3271 -1.7163 -1.7042
  256MOL0     H33744   1.105   1.850   4.139 -1.4704 -0.4806  0.1577
  256MOL0     H33745   0.925   2.106   3.927  1.0067  0.0280 -0.1681
  256MOL0     H33746   0.686   1.910   3.705 -0.6848  0.9468 -0.3604
  256MOL0     H33747   0.813   2.021   3.636 -0.0455  3.0692  0.5143
  256MOL0     H33748   0.741   2.193   3.778  0.1372 -0.4460  0.9554
  256MOL0     H33749   0.653   2.092   3.887  2.7213  0.5531  1.0098
  256MOL0     H33750   0.574   2.161   3.605  0.5100  1.7422  1.1544
  256MOL0     H33751   0.487   2.041   3.697 -1.0288  0.1768 -3.4666
  256MOL0     H33752   0.523   2.339   3.780 -1.8483  0.4209  1.0491
  256MOL0     H33753   0.424   2.225   3.865  1.5182 -0.4195  0.3504
  256MOL0     H33754   0.204   2.265   3.477 -1.1898  0.4320 -1.3730
  256MOL0     H33755  -0.009   2.381   3.476  1.3882 -0.3137  0.6522
  256MOL0     H33756  -0.250   2.797   3.547 -1.0832  0.6721 -0.8510
  256MOL0     H33757  -0.461   2.896   3.576  2.0900  0.4770 -0.0809
  256MOL0     H33758  -0.799   2.653   3.460 -0.1117 -0.7090  1.9086
  256MOL0     H33759  -0.741   2.816   3.417  1.2947  1.3391  2.4402
  256MOL0     H33760  -0.877   2.917   3.593  1.1337 -0.5927 -0.2353
  256MOL0     H33761  -0.952   2.755   3.616 -2.7230  1.5844 -0.5494
  256MOL0     H33762  -1.060   2.761   3.416 -0.9242  1.3184  0.2115
  256MOL0     H33763  -0.954   2.871   3.336 -0.7861 -0.6689 -1.1807
  256MOL0     H33764  -1.147   2.928   3.579  0.1339  0.1829  0.2677
  256MOL0     H33765  -1.051   3.056   3.500  0.7086 -0.6657 -3.1431
  256MOL0     H33766  -1.259   2.909   3.337 -2.7049  1.9579 -1.3582
  256MOL0     H33767  -1.140   3.033   3.287  0.3347 -1.6512 -0.9717
  256MOL0     H33768  -1.266   3.188   3.451  0.5135 -0.4311 -1.2777
  256MOL0     H33769  -1.359   3.045   3.498  0.7278  0.1184  0.6727
  256MOL0     H33770  -1.333   3.176   3.224  0.5843 -1.8761  0.1107
  256MOL0     H33771  -1.439   3.028   3.265 -0.3389 -0.0162 -0.8677
  256MOL0     H33772  -1.560   3.259   3.243  0.4461  2.2489 -0.4166
  256MOL0     H33773  -1.478   3.299   3.396 -0.7877  0.9948 -0.1172
  256MOL0     H33774  -0.655   2.519   3.646 -0.3450  0.3282  0.1181
  256MOL0     H33775  -0.428   2.401   3.628 -3.8729 -0.8602 -3.4177
  256MOL0     H33776   0.087   2.568   3.850 -0.7376  0.2514 -0.0177
  256MOL0     H33777   0.306   2.453   3.848 -2.8535 -1.8666  3.3815
  256MOL0     H33778   2.121   1.898   3.571 -4.6054  1.2543  0.2204
  256MOL0     H33779   2.372   1.985   3.597  0.8874 -0.4420  1.1491
  256MOL0     H33780   2.574   2.529   3.804 -1.1059 -0.1206  0.4629
  256MOL0     H33781   2.801   2.608   3.902  1.1471 -0.5680  0.8410
  256MOL0     H33782   2.980   2.590   4.123 -2.7350 -2.7397 -0.5120
  256MOL0     H33783   3.027   2.635   3.961  0.1108  0.9130  1.0843
  256MOL0     H33784   3.222   2.641   4.121  0.1463 -0.2595  1.7149
  256MOL0     H33785   3.193   2.468   4.153  0.0042 -0.9995 -0.8474
  256MOL0     H33786   3.258   2.415   3.942  2.6757 -1.7244  0.7841
  256MOL0     H33787   3.383   2.479   4.020 -0.9077 -0.6523  0.1633
  256MOL0     H33788   3.225   2.654   3.827  1.8816  1.1559 -4.7241
  256MOL0     H33789   3.381   2.699   3.917 -0.6972 -0.3789  1.9486
  256MOL0     H33790   3.480   2.445   3.584 -1.7180  0.7423 -0.5907
  256MOL0     H33791   2.905   2.212   3.957 -2.7238 -2.5915  1.1136
  256MOL0     H33792   2.696   2.118   3.887 -1.9811 -0.1376  0.5712
  257MOL0     O33793   2.980   3.628   8.984 -0.3011  0.0278  0.4943
  257MOL0     C33794   3.006   3.570   8.876 -0.0476  0.6566 -0.7911
  257MOL0     O33795   2.954   3.452   8.836  0.9452 -0.1232 -0.5927
  257MOL0     C33796   2.829   3.408   8.889 -0.0282 -0.1333 -0.6390
  257MOL0     C33797   2.728   3.384   8.795 -0.8115 -0.1998  0.0164
  257MOL0     C33798   2.601   3.354   8.847  0.2752 -0.3161 -0.1336
  257MOL0     C33799   2.581   3.329   8.982  0.7845  0.3612  0.0823
  257MOL0     O33800   2.463   3.290   9.030  0.0649  0.6716  0.3106
  257MOL0     C33801   2.356   3.258   8.937 -1.0176  0.1436 -0.1537
  257MOL0     C33802   2.237   3.205   9.016 -0.1446 -0.7330 -0.3571
  257MOL0     C33803   2.178   3.297   9.118  0.7081  0.5873 -0.0076
  257MOL0     C33804   2.063   3.380   9.054 -0.0621  0.6161 -0.0668
  257MOL0     C33805   1.986   3.455   9.164 -0.1111  0.7735 -0.0250
  257MOL0     C33806   1.878   3.544   9.107  1.1177  0.9704 -0.1535
  257MOL0     C33807   1.744   3.475   9.086 -0.1049  0.0284  0.8765
  257MOL0     C33808   1.661   3.412   9.207 -0.0268  0.6414  0.2416
  257MOL0     N33809   1.535   3.369   9.144  0.4116 -0.4193 -0.6647
  257MOL0     C33810   1.499   3.237   9.122  0.0662 -0.0495 -0.2781
  257MOL0     C33811   1.369   3.236   9.078  0.2694  0.0168  0.4830
  257MOL0     C33812   1.291   3.121   9.038 -0.1219 -0.7350 -0.0051
  257MOL0     C33813   1.161   3.147   8.966 -0.3061 -0.5931  0.4097
  257MOL0     C33814   1.103   3.024   8.906  0.4918  0.4506  0.2174
  257MOL0     C33815   1.074   2.904   9.009  0.3859  0.2418 -0.2679
  257MOL0     O33816   0.965   2.928   9.093 -0.0656  0.5156 -0.5575
  257MOL0     C33817   0.843   2.921   9.042  0.3077  0.8294  0.1537
  257MOL0     C33818   0.794   2.804   8.980 -0.1574  0.1358 -0.6331
  257MOL0     C33819   0.659   2.788   8.936 -0.5764  0.0751 -0.5327
  257MOL0     C33820   0.569   2.898   8.950 -0.2765 -1.0123 -0.6470
  257MOL0     C33821   0.426   2.888   8.905 -0.6207  0.2056  0.6625
  257MOL0     O33822   0.362   3.004   8.881 -0.3583 -0.6085  0.2166
  257MOL0     C33823   0.231   2.999   8.863 -0.2364 -0.0204 -0.5595
  257MOL0     C33824   0.171   3.020   8.739 -0.3759  0.3584  0.3891
  257MOL0     C33825   0.030   3.039   8.717 -1.1329 -0.4875 -0.3033
  257MOL0     C33826  -0.055   3.015   8.833 -0.1382 -1.0212  0.3047
  257MOL0     O33827  -0.185   2.996   8.830  1.0331 -0.1356 -0.0049
  257MOL0     C33828  -0.245   3.067   8.721  0.3708 -0.0939  0.0216
  257MOL0     C33829  -0.394   3.063   8.744 -0.1864 -0.0673  0.0788
  257MOL0     C33830  -0.469   3.122   8.635 -0.0220  0.4671  0.9628
  257MOL0     C33831  -0.617   3.129   8.663 -0.6538  0.1738 -0.3764
  257MOL0     C33832  -0.697   3.230   8.576 -0.2338  0.1180 -1.0203
  257MOL0     C33833  -0.735   3.190   8.440  0.4693  0.0715 -0.2402
  257MOL0     C33834  -0.835   3.293   8.380  0.7244  0.4603  0.1254
  257MOL0     C33835  -0.869   3.252   8.241  0.1140 -0.4557 -0.6337
  257MOL0    Cl33836  -0.724   3.242   8.128 -0.1014  0.2644  0.0348
  257MOL0     C33837   0.007   2.997   8.956 -0.1418 -0.2973  0.5191
  257MOL0     C33838   0.142   2.983   8.977  0.3990 -0.5748  0.1117
  257MOL0     O33839   0.377   2.774   8.890 -0.3371  0.2825  0.4800
  257MOL0     C33840   0.615   3.013   9.024  0.3306 -0.0980  0.5668
  257MOL0     C33841   0.747   3.019   9.065  0.5867 -0.2411 -0.4207
  257MOL0     N33842   1.329   3.366   9.070 -0.7772 -0.4300  0.3900
  257MOL0     N33843   1.417   3.441   9.116  0.6486  0.5113 -0.2886
  257MOL0     C33844   2.683   3.352   9.074  0.4937  0.6527 -0.5341
  257MOL0     C33845   2.802   3.396   9.029  0.1388  0.0819  0.3990
  257MOL0     C33846   3.120   3.621   8.791 -0.0967 -0.3051  0.8391
  257MOL0     C33847   3.141   3.580   8.653 -0.3723  0.3983  0.2625
  257MOL0     C33848   3.253   3.624   8.577  0.2190  1.0078  0.2937
  257MOL0     C33849   3.350   3.704   8.634 -0.4237 -1.0110  0.4482
  257MOL0     O33850   3.465   3.750   8.559  0.8026  0.8387 -0.2961
  257MOL0     C33851   3.583   3.766   8.643  0.4885 -1.1169 -0.1795
  257MOL0     C33852   3.716   3.776   8.557 -0.3114 -0.1819 -0.6544
  257MOL0     C33853   3.829   3.830   8.641 -0.3719  0.0456 -0.3480
  257MOL0     C33854   3.959   3.851   8.553  1.0321 -0.1498 -0.4298
  257MOL0     C33855   4.022   3.717   8.547 -0.5215 -0.0136 -0.0774
  257MOL0     C33856   4.077   3.611   8.508  0.0494  0.1831  0.1157
  257MOL0     C33857   3.325   3.752   8.769  0.1540  0.7023  0.0554
  257MOL0     C33858   3.208   3.709   8.844  0.2676 -0.6184  0.0931
  257MOL0     H33859   2.729   3.393   8.687 -3.0783  0.0475 -0.0360
  257MOL0     H33860   2.525   3.329   8.774  0.1215 -0.7149  0.1587
  257MOL0     H33861   2.389   3.178   8.870  0.9164 -0.1221  1.0537
  257MOL0     H33862   2.324   3.346   8.879 -0.5609 -1.2489 -2.6465
  257MOL0     H33863   2.266   3.115   9.072 -1.8862 -0.7619  0.5557
  257MOL0     H33864   2.168   3.174   8.937  0.2951  2.3262 -2.0872
  257MOL0     H33865   2.249   3.366   9.163 -1.5059  1.5812  2.1729
  257MOL0     H33866   2.130   3.242   9.199 -2.4940  2.3861 -0.5026
  257MOL0     H33867   2.109   3.448   8.981  0.3276 -2.0543 -2.4889
  257MOL0     H33868   1.995   3.309   9.006  0.0040 -0.2376  1.0580
  257MOL0     H33869   2.052   3.521   9.222 -1.4045  1.7046  0.4319
  257MOL0     H33870   1.947   3.386   9.240 -0.7216  0.5623 -0.5209
  257MOL0     H33871   1.913   3.599   9.019  2.2076 -1.7852 -1.5517
  257MOL0     H33872   1.865   3.621   9.183  1.5130 -0.2703  1.2251
  257MOL0     H33873   1.677   3.554   9.051 -0.7298 -1.0350 -0.3938
  257MOL0     H33874   1.755   3.402   9.006 -3.0878  0.6264 -0.1811
  257MOL0     H33875   1.647   3.486   9.286  0.5201  2.4995 -1.3348
  257MOL0     H33876   1.713   3.325   9.248 -2.7341 -1.2497 -0.0590
  257MOL0     H33877   1.566   3.151   9.122  2.4713  1.7354 -0.1665
  257MOL0     H33878   1.273   3.059   9.126 -3.5810  1.7831  1.2803
  257MOL0     H33879   1.352   3.060   8.970  0.3686 -1.0351  0.7015
  257MOL0     H33880   1.184   3.219   8.887 -0.9842  0.4316  1.1302
  257MOL0     H33881   1.081   3.181   9.031  0.1949  0.8271  0.3237
  257MOL0     H33882   1.015   3.049   8.847 -1.2702  0.1818  2.5704
  257MOL0     H33883   1.161   2.979   8.826  0.6861 -1.5737  1.4404
  257MOL0     H33884   1.157   2.878   9.076  1.0552 -3.1728 -2.2059
  257MOL0     H33885   1.064   2.804   8.966 -1.4924  1.1441 -2.0918
  257MOL0     H33886   0.855   2.714   8.977  0.6460  0.5555  1.3414
  257MOL0     H33887   0.631   2.692   8.894  0.5636  0.1145 -1.4619
  257MOL0     H33888   0.231   3.049   8.653 -0.0119 -0.5866  0.3162
  257MOL0     H33889  -0.008   3.046   8.615 -2.1241  1.5578  0.1598
  257MOL0     H33890  -0.219   3.017   8.627  0.6618  0.3803 -0.1509
  257MOL0     H33891  -0.213   3.171   8.723 -0.1100  0.0544  0.1185
  257MOL0     H33892  -0.406   3.131   8.830  1.0947  0.9732 -0.5266
  257MOL0     H33893  -0.423   2.962   8.774 -0.4953  0.2554  0.8909
  257MOL0     H33894  -0.460   3.071   8.539 -2.4446  1.2886  0.2301
  257MOL0     H33895  -0.428   3.222   8.616  0.7155 -0.3784 -2.6071
  257MOL0     H33896  -0.657   3.028   8.650  2.1610 -0.8849 -1.5546
  257MOL0     H33897  -0.625   3.162   8.767  0.1756  0.2281 -0.3198
  257MOL0     H33898  -0.637   3.321   8.570 -0.0435  0.0622 -0.1267
  257MOL0     H33899  -0.789   3.262   8.625 -1.7428 -0.8171 -3.0687
  257MOL0     H33900  -0.780   3.091   8.452 -0.9981  0.5834 -1.3168
  257MOL0     H33901  -0.644   3.179   8.381  1.3268 -0.5952  1.1409
  257MOL0     H33902  -0.929   3.293   8.436 -0.2488  1.6516 -1.4184
  257MOL0     H33903  -0.780   3.387   8.387  0.2160  0.7018  1.1176
  257MOL0     H33904  -0.942   3.322   8.199 -0.2849 -0.2612  0.3636
  257MOL0     H33905  -0.919   3.156   8.249 -0.0275 -0.2440  1.5356
  257MOL0     H33906  -0.061   2.974   9.038 -1.5155 -1.7497 -0.9303
  257MOL0     H33907   0.171   2.959   9.078  3.3064  0.2578 -0.4327
  257MOL0     H33908   0.547   3.095   9.047 -3.0170 -2.9769  1.8859
  257MOL0     H33909   0.774   3.098   9.135 -1.1592 -0.8068  0.9775
  257MOL0     H33910   2.672   3.350   9.182  0.3128 -0.3228 -0.5587
  257MOL0     H33911   2.872   3.438   9.101  1.6248 -0.9295 -0.4145
  257MOL0     H33912   3.077   3.505   8.609 -0.8819  0.5982  0.6625
  257MOL0     H33913   3.255   3.587   8.475 -2.5316  1.3961  0.0303
  257MOL0     H33914   3.596   3.688   8.719  0.7921  0.2676  1.2550
  257MOL0     H33915   3.567   3.864   8.689  0.9826 -1.3382  0.4770
  257MOL0     H33916   3.746   3.683   8.508  0.3003 -0.0219 -0.5985
  257MOL0     H33917   3.694   3.834   8.468 -1.2238  3.4028  1.7128
  257MOL0     H33918   3.839   3.767   8.730  0.8157  0.3480 -0.2494
  257MOL0     H33919   3.801   3.929   8.678  2.0613  1.2124 -1.4078
  257MOL0     H33920   3.926   3.866   8.449 -3.4383 -0.8217  0.6652
  257MOL0     H33921   4.035   3.922   8.587  0.3881  1.1023 -1.5052
  257MOL0     H33922   4.133   3.523   8.482  0.2591  0.7826 -1.5584
  257MOL0     H33923   3.379   3.830   8.820 -2.0783  2.6108 -0.3198
  257MOL0     H33924   3.202   3.726   8.951 -2.4961 -0.6370  0.0309
  258MOL0     O33925   9.193   2.321   9.582  0.5013  0.5657 -0.8676
  258MOL0     C33926   9.194   2.405   9.497 -0.0400 -0.3877  0.0240
  258MOL0     O33927   9.082   2.429   9.410  0.2487  0.4864  0.3781
  258MOL0     C33928   8.973   2.354   9.412 -0.4293 -0.5654 -0.4714
  258MOL0     C33929   8.890   2.326   9.524  0.2904 -0.9323  0.0748
  258MOL0     C33930   8.777   2.252   9.511 -0.4576  0.1314  0.0292
  258MOL0     C33931   8.723   2.207   9.391 -0.1583  0.4799  0.4079
  258MOL0     O33932   8.606   2.139   9.392 -0.0259 -0.3190 -0.5426
  258MOL0     C33933   8.574   2.043   9.284 -0.6577 -0.5053 -0.6973
  258MOL0     C33934   8.448   1.969   9.328  0.0632 -0.5994 -0.3206
  258MOL0     C33935   8.328   2.070   9.347 -0.1500  0.7217 -0.7002
  258MOL0     C33936   8.188   1.990   9.352  0.6599  0.3175  0.0315
  258MOL0     C33937   8.072   2.092   9.360 -0.3673 -0.2620  0.7463
  258MOL0     C33938   7.931   2.046   9.347  0.3965  0.4031  0.3452
  258MOL0     C33939   7.826   2.157   9.368  0.6989 -0.0080  1.2434
  258MOL0     C33940   7.686   2.096   9.376  0.9435  0.4296  0.1259
  258MOL0     N33941   7.576   2.191   9.407 -0.7247 -0.1184 -0.7529
  258MOL0     C33942   7.570   2.321   9.356  0.4531 -0.4139 -0.6025
  258MOL0     C33943   7.437   2.359   9.378 -0.1791 -0.1439  0.1474
  258MOL0     C33944   7.367   2.485   9.349  0.4628 -0.4555  1.2211
  258MOL0     C33945   7.341   2.509   9.202 -0.2419  0.4116  0.2510
  258MOL0     C33946   7.248   2.631   9.169  1.1386  0.0458 -0.1499
  258MOL0     C33947   7.102   2.600   9.198  0.2190 -0.3867 -0.2159
  258MOL0     O33948   7.007   2.692   9.138 -0.6301 -0.5305 -0.4390
  258MOL0     C33949   6.874   2.661   9.135 -0.4977 -0.0146  0.2731
  258MOL0     C33950   6.786   2.746   9.072 -0.7484 -0.2924  0.4057
  258MOL0     C33951   6.650   2.723   9.059  0.1963  0.5332 -0.1243
  258MOL0     C33952   6.592   2.605   9.106 -0.1674  0.1875  0.2984
  258MOL0     C33953   6.449   2.581   9.089  0.2778 -0.6349  0.0717
  258MOL0     O33954   6.394   2.472   9.153 -0.0782  0.3171  0.2217
  258MOL0     C33955   6.259   2.442   9.134 -0.1707 -0.5007  0.2539
  258MOL0     C33956   6.160   2.531   9.185 -0.5624  0.0094 -0.2112
  258MOL0     C33957   6.025   2.524   9.141 -0.9528 -0.1458 -0.7182
  258MOL0     C33958   5.983   2.422   9.063  0.4734 -0.0729 -0.0684
  258MOL0     O33959   5.849   2.430   9.050  0.0938  0.1250 -0.3672
  258MOL0     C33960   5.795   2.373   8.933  0.8424  1.2684  0.3010
  258MOL0     C33961   5.641   2.396   8.942  0.2147 -0.3841  0.0618
  258MOL0     C33962   5.614   2.556   8.937  0.4052  0.4296 -0.0817
  258MOL0     C33963   5.484   2.580   8.870 -0.2915  0.4567  0.2474
  258MOL0     C33964   5.472   2.732   8.832 -0.2930  0.6494 -0.0881
  258MOL0     C33965   5.336   2.772   8.771 -0.0631 -0.5928  0.2252
  258MOL0     C33966   5.315   2.922   8.737  0.0184  0.0143 -0.2878
  258MOL0     C33967   5.310   3.006   8.867 -0.4494 -0.1187  0.5504
  258MOL0    Cl33968   5.282   3.183   8.845  0.0783 -0.3104 -0.2841
  258MOL0     C33969   6.083   2.333   9.014  0.1280 -0.9231  0.0683
  258MOL0     C33970   6.227   2.344   9.042 -0.1157  0.5655 -0.3648
  258MOL0     O33971   6.386   2.657   9.014  0.6305  0.0778 -0.8392
  258MOL0     C33972   6.686   2.510   9.155  0.6791  0.1505  0.1132
  258MOL0     C33973   6.818   2.540   9.171 -0.5262 -0.5200 -0.3617
  258MOL0     N33974   7.367   2.245   9.424 -0.8152 -0.2306 -0.3278
  258MOL0     N33975   7.452   2.158   9.452 -0.3767  0.2199 -0.5656
  258MOL0     C33976   8.812   2.222   9.284 -0.0839  0.2468 -0.7595
  258MOL0     C33977   8.930   2.305   9.288 -0.0808  0.1016  0.2201
  258MOL0     C33978   9.325   2.478   9.458 -0.1661  0.1568 -0.2504
  258MOL0     C33979   9.335   2.553   9.341 -0.7350  0.0614  0.1901
  258MOL0     C33980   9.464   2.607   9.307 -0.0456  0.7587  0.6185
  258MOL0     C33981   9.574   2.598   9.398 -0.5015 -1.1858 -0.0126
  258MOL0     O33982   9.692   2.644   9.349  0.3978 -0.4128 -0.6431
  258MOL0     C33983   9.804   2.597   9.419 -0.0393  1.0972  0.0530
  258MOL0     C33984   9.922   2.611   9.322 -0.6577  0.3507 -0.4243
  258MOL0     C33985  10.059   2.570   9.362 -0.1472  0.2132 -0.5368
  258MOL0     C33986  10.164   2.580   9.246 -0.2636 -0.6615 -0.2254
  258MOL0     C33987  10.301   2.615   9.285 -0.4059 -0.0698 -0.2775
  258MOL0     C33988  10.418   2.638   9.307  0.1741  0.1199 -0.2556
  258MOL0     C33989   9.553   2.539   9.523 -0.1843  0.6319  0.1371
  258MOL0     C33990   9.432   2.468   9.550 -0.3232 -0.0016  0.0319
  258MOL0     H33991   8.907   2.356   9.628  0.0113 -3.2023  0.8211
  258MOL0     H33992   8.719   2.229   9.600 -2.3382  2.5316 -0.4600
  258MOL0     H33993   8.656   1.971   9.275  0.1565  0.4481 -1.1049
  258MOL0     H33994   8.561   2.108   9.197 -2.3118  3.3050  2.1701
  258MOL0     H33995   8.468   1.912   9.419 -0.3101 -2.3810 -1.3173
  258MOL0     H33996   8.425   1.892   9.254 -0.3389 -1.1331  0.3489
  258MOL0     H33997   8.334   2.150   9.273  1.1344  2.1731  0.8749
  258MOL0     H33998   8.340   2.121   9.443 -2.8673  0.4641 -0.1543
  258MOL0     H33999   8.186   1.928   9.262 -1.8840  0.1685  0.1181
  258MOL0     H34000   8.190   1.925   9.440 -1.0757  2.4784  1.8080
  258MOL0     H34001   8.095   2.162   9.280  2.2433 -2.8255 -0.9312
  258MOL0     H34002   8.088   2.155   9.448  0.1904  0.0300  0.4392
  258MOL0     H34003   7.921   1.962   9.416  1.5875  0.4767  0.6384
  258MOL0     H34004   7.921   2.009   9.245  0.5567  2.6914 -0.5646
  258MOL0     H34005   7.837   2.217   9.459 -0.1391  2.3163 -0.0971
  258MOL0     H34006   7.830   2.222   9.280 -0.3703 -0.7859  0.5902
  258MOL0     H34007   7.677   2.018   9.451  0.5382 -1.5909 -1.8994
  258MOL0     H34008   7.664   2.044   9.282  0.4272  1.5201 -0.3821
  258MOL0     H34009   7.649   2.380   9.310 -1.1893  0.7839 -2.0135
  258MOL0     H34010   7.434   2.565   9.384  1.4856  0.0530 -1.6530
  258MOL0     H34011   7.271   2.487   9.400  0.6635 -1.1083  1.6465
  258MOL0     H34012   7.285   2.424   9.163  0.6032 -0.2425  0.4195
  258MOL0     H34013   7.434   2.515   9.144 -0.0347  2.3787  0.6881
  258MOL0     H34014   7.279   2.711   9.236 -0.1824 -0.8601  1.6210
  258MOL0     H34015   7.258   2.669   9.067  2.1015 -2.0337 -0.8801
  258MOL0     H34016   7.097   2.601   9.308  0.3604 -0.6793 -0.2048
  258MOL0     H34017   7.079   2.502   9.155  0.2007 -0.5048  0.0583
  258MOL0     H34018   6.837   2.836   9.042 -2.4730  1.3530  2.0620
  258MOL0     H34019   6.595   2.810   9.025  2.0021  1.3363 -1.1663
  258MOL0     H34020   6.192   2.608   9.255  1.7511 -0.6277 -0.4878
  258MOL0     H34021   5.959   2.583   9.203 -0.4916  0.3430 -0.6932
  258MOL0     H34022   5.810   2.265   8.921  1.2746  1.3754 -0.1508
  258MOL0     H34023   5.823   2.431   8.845 -1.2223  1.0271 -0.5599
  258MOL0     H34024   5.602   2.360   9.038 -1.3332 -0.3226 -0.5190
  258MOL0     H34025   5.590   2.345   8.860 -0.1194  1.8708 -1.2220
  258MOL0     H34026   5.685   2.605   8.869 -0.3644  0.5657 -0.7971
  258MOL0     H34027   5.616   2.598   9.037  2.4180 -1.3192  0.6864
  258MOL0     H34028   5.471   2.518   8.782 -0.4550 -1.5498  1.6179
  258MOL0     H34029   5.403   2.542   8.934 -0.4190 -0.7475 -0.6000
  258MOL0     H34030   5.555   2.751   8.763  1.8727 -2.3411  1.4974
  258MOL0     H34031   5.502   2.802   8.911  1.3140  1.1862 -1.1200
  258MOL0     H34032   5.265   2.748   8.851 -2.7540  0.3029 -1.7820
  258MOL0     H34033   5.323   2.706   8.685  2.2065 -0.6153 -0.1862
  258MOL0     H34034   5.404   2.948   8.678 -0.9818  4.3080 -0.2912
  258MOL0     H34035   5.224   2.936   8.677  0.3251  1.3491 -0.4756
  258MOL0     H34036   5.411   3.006   8.909 -0.7645 -0.4552  1.3292
  258MOL0     H34037   5.242   2.961   8.940 -0.6748 -2.5711 -1.0483
  258MOL0     H34038   6.041   2.252   8.955 -2.8124 -0.2293  1.0335
  258MOL0     H34039   6.295   2.273   8.996 -0.1753  0.7648 -0.7643
  258MOL0     H34040   6.657   2.410   9.186 -1.8101  0.8464  0.3062
  258MOL0     H34041   6.880   2.454   9.194  0.4680  0.2158 -0.2055
  258MOL0     H34042   8.772   2.194   9.187 -0.8685  1.3388 -0.7721
  258MOL0     H34043   8.991   2.322   9.199  0.0599  0.9070  0.4630
  258MOL0     H34044   9.258   2.548   9.265  0.3693 -0.0830 -0.9510
  258MOL0     H34045   9.455   2.654   9.210 -2.1084 -0.5133  0.1310
  258MOL0     H34046   9.798   2.491   9.443  0.2755  1.0515 -0.0661
  258MOL0     H34047   9.828   2.657   9.507 -0.7982  1.1447  0.2316
  258MOL0     H34048   9.907   2.552   9.232  1.9428 -2.2376  0.6936
  258MOL0     H34049   9.923   2.712   9.279 -2.4786 -0.5218 -2.6904
  258MOL0     H34050  10.076   2.472   9.408  0.7474  1.7550  2.7557
  258MOL0     H34051  10.093   2.638   9.441 -0.1518 -0.7713  0.3391
  258MOL0     H34052  10.158   2.480   9.202  0.4467 -0.5178 -0.6665
  258MOL0     H34053  10.127   2.645   9.166  1.4263 -0.7594 -1.1345
  258MOL0     H34054  10.518   2.661   9.335 -0.5427  1.7417  1.1955
  258MOL0     H34055   9.630   2.544   9.599 -1.2960  5.3720  1.2905
  258MOL0     H34056   9.420   2.420   9.646  1.8938 -0.1207  0.3022
  259MOL0     O34057   9.201   4.863   0.408  0.2895  0.0717 -0.5233
  259MOL0     C34058   9.232   4.957   0.485 -0.4994 -0.5119 -0.4938
  259MOL0     O34059   9.156   5.065   0.515 -0.1842 -0.1083  0.0186
  259MOL0     C34060   9.029   5.069   0.465 -0.0234 -0.0671 -0.9351
  259MOL0     C34061   9.002   5.055   0.330  0.0155  1.4182  0.2774
  259MOL0     C34062   8.872   5.069   0.280  0.0585 -0.1502 -0.5679
  259MOL0     C34063   8.768   5.091   0.367  0.9101 -0.2736 -0.3938
  259MOL0     O34064   8.631   5.091   0.332  0.4715  0.2432 -0.5057
  259MOL0     C34065   8.577   4.964   0.291 -0.2120  0.0482 -0.1305
  259MOL0     C34066   8.440   4.995   0.227  0.0024 -0.3565  0.4647
  259MOL0     C34067   8.381   4.879   0.145 -0.3583  0.4545 -0.0225
  259MOL0     C34068   8.234   4.904   0.120 -0.3712 -0.1534  0.0206
  259MOL0     C34069   8.178   4.777   0.062 -0.2151 -0.2416 -0.2041
  259MOL0     C34070   8.037   4.810   0.003 -0.4753 -0.5392  0.7150
  259MOL0     C34071   8.004   4.707  -0.101 -0.9945  0.0193  0.0618
  259MOL0     C34072   7.984   4.559  -0.055  0.0340 -0.5331 -0.5088
  259MOL0     N34073   7.850   4.547   0.008  0.3168  0.3330  0.8356
  259MOL0     C34074   7.829   4.596   0.136 -0.1240  0.7881  0.3845
  259MOL0     C34075   7.694   4.589   0.147  1.0332  1.0631  0.0960
  259MOL0     C34076   7.613   4.633   0.265  0.5583  0.8626 -0.0845
  259MOL0     C34077   7.577   4.783   0.270  0.1177  0.5084  0.2869
  259MOL0     C34078   7.497   4.836   0.147 -0.9812 -0.2027 -0.1998
  259MOL0     C34079   7.383   4.738   0.121  0.2320  0.5572  0.3013
  259MOL0     O34080   7.304   4.738   0.239  0.3031 -0.0616 -0.4507
  259MOL0     C34081   7.190   4.665   0.246  0.3488  0.4655  0.3377
  259MOL0     C34082   7.118   4.663   0.363  0.5359  0.9897  0.0364
  259MOL0     C34083   6.998   4.585   0.366 -0.3131 -0.0838  0.4794
  259MOL0     C34084   6.945   4.515   0.259 -0.4577  0.3586 -1.0248
  259MOL0     C34085   6.829   4.422   0.269  0.1187 -0.2717 -1.0431
  259MOL0     O34086   6.799   4.358   0.153 -0.4248  0.8485 -0.2322
  259MOL0     C34087   6.711   4.247   0.158  0.9950  0.2427  0.3943
  259MOL0     C34088   6.745   4.129   0.220 -0.0798  0.6823 -0.0703
  259MOL0     C34089   6.648   4.031   0.243 -0.4539 -0.0299 -0.8897
  259MOL0     C34090   6.514   4.050   0.209  0.7464 -0.1164  0.3494
  259MOL0     O34091   6.411   3.957   0.243 -0.6103  0.7969  0.5286
  259MOL0     C34092   6.322   3.930   0.125 -0.4750  0.4825  0.4924
  259MOL0     C34093   6.177   3.988   0.141 -0.1400  0.0751  0.1182
  259MOL0     C34094   6.066   3.896   0.096  0.9246 -0.0230  0.4271
  259MOL0     C34095   5.948   3.992   0.078 -0.9543 -0.0573 -0.7922
  259MOL0     C34096   5.828   3.925   0.023 -0.5985 -0.1941  0.5091
  259MOL0     C34097   5.752   3.846   0.125  0.4378  0.0744 -0.5393
  259MOL0     C34098   5.647   3.756   0.053  0.0346  0.0054 -0.6332
  259MOL0     C34099   5.526   3.821  -0.011 -0.8935 -0.4060 -0.4466
  259MOL0    Cl34100   5.437   3.709  -0.116 -0.1646 -0.2735 -0.4497
  259MOL0     C34101   6.478   4.170   0.144 -1.0294  0.0791 -0.8405
  259MOL0     C34102   6.575   4.269   0.119 -0.9102  0.4840  0.2509
  259MOL0     O34103   6.780   4.395   0.375  0.1278 -0.0475 -0.5300
  259MOL0     C34104   7.023   4.525   0.140 -0.7981 -0.3770 -0.5606
  259MOL0     C34105   7.137   4.600   0.129  0.8881  0.0244 -0.7933
  259MOL0     N34106   7.642   4.524   0.037 -0.2581 -0.4212  0.4323
  259MOL0     N34107   7.740   4.495  -0.044  0.7727 -0.7749 -0.3050
  259MOL0     C34108   8.794   5.091   0.506  0.0552  0.3720 -0.5010
  259MOL0     C34109   8.921   5.077   0.554 -0.1888 -0.3776 -0.4383
  259MOL0     C34110   9.377   4.969   0.527 -0.0402 -0.3122  0.2730
  259MOL0     C34111   9.466   4.867   0.488  0.3459  0.0498 -0.6402
  259MOL0     C34112   9.593   4.868   0.525  0.5778 -0.1718  0.4424
  259MOL0     C34113   9.638   4.973   0.599  0.1573  0.0673 -0.7589
  259MOL0     O34114   9.765   4.957   0.654 -0.4026 -0.2653  0.0405
  259MOL0     C34115   9.863   5.061   0.612  0.5416 -0.6508  0.0721
  259MOL0     C34116  10.002   5.000   0.596 -0.4229  0.1215  0.5638
  259MOL0     C34117  10.056   4.967   0.729  0.0902 -0.1198  0.5901
  259MOL0     C34118  10.202   4.912   0.731  0.4964 -0.2739 -0.2076
  259MOL0     C34119  10.295   5.006   0.678 -1.1305 -0.0681 -0.2906
  259MOL0     C34120  10.385   5.087   0.642  0.4638 -0.3452  0.1683
  259MOL0     C34121   9.558   5.077   0.636  0.5849 -0.7092 -0.2924
  259MOL0     C34122   9.424   5.076   0.612  0.0695 -0.3313  0.1040
  259MOL0     H34123   9.071   5.023   0.252  0.0812 -2.9696  1.8858
  259MOL0     H34124   8.850   5.077   0.174 -0.0904  0.0555 -0.5217
  259MOL0     H34125   8.565   4.897   0.377 -0.9988  0.7625  0.3336
  259MOL0     H34126   8.642   4.909   0.221 -1.3777 -0.5104 -0.8093
  259MOL0     H34127   8.455   5.084   0.164  1.3746  0.6161  2.0849
  259MOL0     H34128   8.372   5.021   0.309 -0.0371 -1.3638  0.7618
  259MOL0     H34129   8.385   4.786   0.203 -3.1114  0.5382  0.3990
  259MOL0     H34130   8.439   4.846   0.058 -1.0062  0.6518 -0.5315
  259MOL0     H34131   8.176   4.929   0.209 -2.9715  4.8239 -2.6633
  259MOL0     H34132   8.222   4.999   0.067 -0.5206  2.1617  3.8883
  259MOL0     H34133   8.171   4.702   0.142  2.0698  1.6068  1.9006
  259MOL0     H34134   8.242   4.747  -0.021 -1.4756  3.2244 -2.6695
  259MOL0     H34135   8.052   4.900  -0.058 -0.6168 -1.9124 -1.4873
  259MOL0     H34136   7.951   4.821   0.070 -0.5561  1.4759  0.3312
  259MOL0     H34137   7.917   4.743  -0.155 -1.6799  0.0550  1.1679
  259MOL0     H34138   8.086   4.713  -0.174 -0.4373 -0.3177  0.6493
  259MOL0     H34139   8.062   4.535   0.018  0.2756 -0.1539 -0.6332
  259MOL0     H34140   7.977   4.486  -0.136 -1.1745 -1.2765  0.2418
  259MOL0     H34141   7.901   4.639   0.205 -1.2250  1.6674  1.0035
  259MOL0     H34142   7.678   4.616   0.351 -0.1194  1.3230  0.5259
  259MOL0     H34143   7.530   4.566   0.287  1.2959 -0.2365 -0.5663
  259MOL0     H34144   7.667   4.845   0.273  0.5236 -0.0740  0.1996
  259MOL0     H34145   7.521   4.802   0.362  0.3486 -0.4860  0.6459
  259MOL0     H34146   7.476   4.941   0.166  1.9552  0.2670  0.9645
  259MOL0     H34147   7.573   4.850   0.070  0.6102  0.7663  1.4858
  259MOL0     H34148   7.413   4.639   0.087 -0.8471 -0.1185  1.2197
  259MOL0     H34149   7.316   4.788   0.050  0.2247  1.9713  1.2714
  259MOL0     H34150   7.161   4.716   0.447  1.4103 -1.2963  1.1192
  259MOL0     H34151   6.944   4.576   0.460 -0.8351  2.0110  0.4280
  259MOL0     H34152   6.847   4.114   0.253 -0.5222 -0.5395  0.8070
  259MOL0     H34153   6.668   3.931   0.280  1.8571  0.3715 -0.9489
  259MOL0     H34154   6.304   3.824   0.108  0.9354  0.4432 -1.0711
  259MOL0     H34155   6.362   3.965   0.030  0.3779  0.0279  0.6657
  259MOL0     H34156   6.180   4.085   0.091 -0.4303  0.0563  0.0627
  259MOL0     H34157   6.168   4.012   0.248 -2.2254 -1.5561  0.3928
  259MOL0     H34158   6.048   3.819   0.172  0.9962  1.9090  2.5153
  259MOL0     H34159   6.085   3.851  -0.002 -1.2566  2.6478 -1.3783
  259MOL0     H34160   5.928   4.040   0.175 -0.8919 -0.5946 -0.5107
  259MOL0     H34161   5.971   4.060  -0.004 -1.0618  0.6258 -0.2687
  259MOL0     H34162   5.863   3.850  -0.049 -0.5045 -0.8004  1.1666
  259MOL0     H34163   5.772   4.006  -0.023 -1.6486 -1.9477 -1.4575
  259MOL0     H34164   5.707   3.926   0.183 -2.1359 -1.3417 -0.4542
  259MOL0     H34165   5.817   3.786   0.191 -0.5319  1.2421  1.5787
  259MOL0     H34166   5.692   3.704  -0.032 -1.0213 -1.9582 -0.0599
  259MOL0     H34167   5.609   3.691   0.133 -0.3240  1.9142  0.8299
  259MOL0     H34168   5.555   3.910  -0.068 -0.2685 -0.3990 -0.1333
  259MOL0     H34169   5.461   3.858   0.068  1.4894 -0.4473  1.6695
  259MOL0     H34170   6.372   4.194   0.139 -1.8812 -2.6999  1.2736
  259MOL0     H34171   6.554   4.364   0.071  0.5742  0.5430 -0.3217
  259MOL0     H34172   6.986   4.471   0.053 -2.2499  2.8573 -2.1340
  259MOL0     H34173   7.181   4.592   0.031  1.2278 -1.4846 -0.5442
  259MOL0     H34174   8.718   5.095   0.583  1.7357 -2.4152  1.5332
  259MOL0     H34175   8.946   5.079   0.659 -1.2629  1.8223 -0.1645
  259MOL0     H34176   9.438   4.794   0.413  1.2565 -2.8577  1.6388
  259MOL0     H34177   9.665   4.798   0.483 -1.1508 -1.5471 -0.3327
  259MOL0     H34178   9.861   5.137   0.691  0.7985 -2.5269  1.9899
  259MOL0     H34179   9.829   5.115   0.524  0.1229  0.3911  0.8513
  259MOL0     H34180  10.003   4.909   0.537 -0.7408 -0.3926  1.3275
  259MOL0     H34181  10.061   5.076   0.544 -0.4536 -1.5380 -2.0748
  259MOL0     H34182  10.004   4.879   0.768 -0.5753 -1.2767 -2.6225
  259MOL0     H34183  10.051   5.054   0.794 -2.0010  1.8079 -1.9451
  259MOL0     H34184  10.227   4.892   0.835  1.2498 -0.0470 -0.3320
  259MOL0     H34185  10.215   4.820   0.674 -1.6712 -0.1349 -1.0058
  259MOL0     H34186  10.440   5.172   0.607 -1.1154 -0.1403 -2.0210
  259MOL0     H34187   9.600   5.153   0.703 -1.9055 -1.0983  1.8815
  259MOL0     H34188   9.357   5.153   0.648  1.0572 -0.7431  3.0582
  260MOL0     O34189  11.003   4.645   2.397  0.4339  0.0228 -0.2737
  260MOL0     C34190  11.063   4.542   2.412  0.3349  0.7286 -0.5588
  260MOL0     O34191  11.115   4.469   2.313 -0.0631  1.0119  0.5140
  260MOL0     C34192  11.096   4.508   2.185 -0.8738  0.8184  0.5073
  260MOL0     C34193  10.968   4.510   2.127 -0.9663  0.0743 -0.8192
  260MOL0     C34194  10.948   4.542   1.992 -0.7494 -0.9478 -0.4340
  260MOL0     C34195  11.054   4.581   1.912  0.5334 -0.3694  0.7982
  260MOL0     O34196  11.024   4.606   1.780  0.3643  0.0538 -0.5312
  260MOL0     C34197  11.079   4.728   1.734  1.2454 -0.7901  0.7378
  260MOL0     C34198  10.993   4.767   1.605  0.5218 -0.6480 -0.3360
  260MOL0     C34199  10.998   4.677   1.487 -0.7228  0.0857 -0.4165
  260MOL0     C34200  10.931   4.741   1.362 -0.2608 -0.5836 -0.7822
  260MOL0     C34201  10.958   4.667   1.234  0.2922  0.2872  0.0888
  260MOL0     C34202  10.915   4.515   1.235 -0.3810  0.1085 -0.2285
  260MOL0     C34203  10.781   4.483   1.284  0.2855 -0.4248  0.7104
  260MOL0     C34204  10.673   4.555   1.205  0.2979  0.0762 -0.6625
  260MOL0     N34205  10.545   4.477   1.188  0.2419 -1.0500  0.3798
  260MOL0     C34206  10.479   4.389   1.269  0.3261  0.1535  0.2947
  260MOL0     C34207  10.364   4.348   1.204 -0.4213 -0.3005 -0.0907
  260MOL0     C34208  10.271   4.229   1.240 -0.5689  0.0320  0.1161
  260MOL0     C34209  10.188   4.270   1.365 -0.4758 -0.7096 -0.4812
  260MOL0     C34210  10.086   4.362   1.339  0.7386  0.5949 -0.4079
  260MOL0     C34211   9.996   4.400   1.458  0.3786  0.3154 -0.9391
  260MOL0     O34212   9.893   4.492   1.417  0.2713 -0.2778 -0.1507
  260MOL0     C34213   9.805   4.548   1.506 -0.4044  1.2177 -0.2416
  260MOL0     C34214   9.757   4.495   1.630  0.4471  0.5707  0.4269
  260MOL0     C34215   9.674   4.568   1.711  0.0322  0.4944 -0.1810
  260MOL0     C34216   9.625   4.688   1.671  0.8636 -0.3682 -0.1782
  260MOL0     C34217   9.541   4.772   1.760  0.6235  0.5761  0.1397
  260MOL0     O34218   9.505   4.905   1.717  0.0908  0.2570 -0.0882
  260MOL0     C34219   9.407   4.961   1.790  0.0960 -0.3193 -0.2638
  260MOL0     C34220   9.277   4.912   1.801 -0.3220 -0.3303  0.7189
  260MOL0     C34221   9.186   4.972   1.888 -0.4389 -0.2546 -0.6500
  260MOL0     C34222   9.217   5.087   1.961  0.7289 -0.7117  1.2430
  260MOL0     O34223   9.122   5.142   2.054  0.5375  0.7207  0.6550
  260MOL0     C34224   9.153   5.266   2.118 -0.5045 -0.1943  0.2663
  260MOL0     C34225   9.062   5.287   2.235  0.3183 -0.5041 -0.5042
  260MOL0     C34226   8.920   5.253   2.203  0.2756 -0.7081  0.7293
  260MOL0     C34227   8.818   5.298   2.301  0.0299 -0.3043 -0.0651
  260MOL0     C34228   8.727   5.412   2.258 -0.0252  0.0892  0.1215
  260MOL0     C34229   8.619   5.438   2.360  0.4413  0.6607 -0.4502
  260MOL0     C34230   8.535   5.569   2.334  0.3965  0.4611 -0.4087
  260MOL0     C34231   8.416   5.576   2.425 -0.0326  0.4551  0.0760
  260MOL0    Cl34232   8.302   5.421   2.414  0.0086 -0.1136  0.0431
  260MOL0     C34233   9.332   5.154   1.921 -0.2330 -0.1224  0.5733
  260MOL0     C34234   9.433   5.086   1.842  0.2595  0.1624  0.8047
  260MOL0     O34235   9.497   4.719   1.859 -0.2046  0.5869  0.1888
  260MOL0     C34236   9.667   4.740   1.547 -0.3561  0.1114 -0.1203
  260MOL0     C34237   9.754   4.672   1.470 -0.2738 -0.2679  0.8131
  260MOL0     N34238  10.370   4.387   1.070 -0.1451  0.1820  0.3143
  260MOL0     N34239  10.480   4.461   1.065  0.5725 -0.8873 -0.0899
  260MOL0     C34240  11.183   4.596   1.964 -0.1740  0.0543 -0.8539
  260MOL0     C34241  11.201   4.563   2.104 -0.1792  0.4500 -0.2868
  260MOL0     C34242  11.101   4.502   2.549 -0.6415 -0.6734  0.1873
  260MOL0     C34243  11.076   4.587   2.660  0.7587 -0.2894  0.1954
  260MOL0     C34244  11.081   4.536   2.789 -0.7045 -0.7401  0.0487
  260MOL0     C34245  11.132   4.410   2.819 -0.2953 -0.6428  0.1002
  260MOL0     O34246  11.159   4.370   2.950 -0.4647 -0.2367 -0.1499
  260MOL0     C34247  11.095   4.443   3.057 -0.3411 -0.5480  0.9952
  260MOL0     C34248  11.150   4.404   3.188  0.2152 -0.1376  0.0088
  260MOL0     C34249  11.103   4.486   3.316  1.1954  0.0857 -0.1725
  260MOL0     C34250  10.959   4.456   3.356  0.0597 -0.9902  0.4784
  260MOL0     C34251  10.850   4.527   3.287 -0.7215 -0.0652  0.0487
  260MOL0     C34252  10.755   4.566   3.219 -0.4854 -1.0281  0.3231
  260MOL0     C34253  11.174   4.328   2.709  0.2241  0.5369  0.3437
  260MOL0     C34254  11.158   4.376   2.577  0.7520  0.6857  0.1170
  260MOL0     H34255  10.877   4.478   2.177 -1.3483  1.1719 -0.7857
  260MOL0     H34256  10.856   4.522   1.939 -1.4263 -0.4246  0.5168
  260MOL0     H34257  11.183   4.719   1.700  0.8546 -2.7168 -0.0544
  260MOL0     H34258  11.068   4.806   1.810 -0.2386  1.7260 -1.8979
  260MOL0     H34259  11.034   4.865   1.579 -1.0111 -0.4283 -2.1075
  260MOL0     H34260  10.887   4.783   1.629  0.2529  1.3664 -2.4861
  260MOL0     H34261  10.940   4.584   1.489 -1.6445  0.6279 -1.1856
  260MOL0     H34262  11.100   4.646   1.461 -1.5755 -1.5715 -1.9280
  260MOL0     H34263  10.822   4.744   1.373 -0.1912  0.8134 -0.2047
  260MOL0     H34264  10.971   4.842   1.349 -1.6737  0.2537  0.9400
  260MOL0     H34265  11.065   4.675   1.210  0.5398 -1.0627  0.6755
  260MOL0     H34266  10.912   4.706   1.144  0.0075 -2.7316 -1.1906
  260MOL0     H34267  10.981   4.454   1.299 -1.0462 -0.7676 -0.3643
  260MOL0     H34268  10.941   4.477   1.136  1.2422 -2.1489  0.9519
  260MOL0     H34269  10.768   4.375   1.291  0.7814 -0.7287 -2.0647
  260MOL0     H34270  10.783   4.529   1.384  3.0800  1.7921 -0.2505
  260MOL0     H34271  10.716   4.598   1.114  3.2138 -0.5752  0.2951
  260MOL0     H34272  10.647   4.642   1.265 -1.5458  0.0686 -1.4070
  260MOL0     H34273  10.522   4.364   1.365 -0.4933 -0.7379  0.4386
  260MOL0     H34274  10.339   4.150   1.273 -1.8938 -1.2122 -0.0554
  260MOL0     H34275  10.218   4.188   1.154  1.4139  0.5937 -1.4388
  260MOL0     H34276  10.260   4.305   1.439  1.2145 -1.9679 -1.4491
  260MOL0     H34277  10.139   4.183   1.410 -1.5820  0.8101  1.4194
  260MOL0     H34278  10.133   4.457   1.312  2.2924  0.0836  0.3699
  260MOL0     H34279  10.026   4.316   1.260  0.1676  0.0627  0.3233
  260MOL0     H34280  10.059   4.431   1.541  0.0037 -2.0723  0.3145
  260MOL0     H34281   9.952   4.312   1.506 -1.2210  2.5826  2.0550
  260MOL0     H34282   9.803   4.399   1.651  1.8233  1.3492  1.1271
  260MOL0     H34283   9.645   4.511   1.798  0.1632 -0.4499 -0.7419
  260MOL0     H34284   9.253   4.825   1.741 -1.1924  0.1449  0.3730
  260MOL0     H34285   9.087   4.929   1.901 -1.4890  2.0310 -0.5322
  260MOL0     H34286   9.146   5.345   2.043 -0.3359  0.1634  0.6249
  260MOL0     H34287   9.256   5.258   2.154 -0.5781 -1.9869  0.1575
  260MOL0     H34288   9.073   5.395   2.252 -3.3560  0.2666 -2.0788
  260MOL0     H34289   9.082   5.237   2.330 -1.2339 -1.3384 -0.5798
  260MOL0     H34290   8.908   5.145   2.202  0.3043 -0.7135 -0.5047
  260MOL0     H34291   8.908   5.286   2.100  2.8575 -2.9591 -0.3973
  260MOL0     H34292   8.750   5.215   2.323  1.2598 -0.9881  1.3120
  260MOL0     H34293   8.872   5.329   2.391  1.0879 -1.2799 -0.3392
  260MOL0     H34294   8.684   5.391   2.160 -0.5407  0.5613  0.2430
  260MOL0     H34295   8.787   5.503   2.255  0.2303 -0.0046  1.7345
  260MOL0     H34296   8.657   5.431   2.462  0.5718 -1.2050 -0.5864
  260MOL0     H34297   8.548   5.355   2.348  1.6010  0.0230 -3.9570
  260MOL0     H34298   8.579   5.664   2.366  0.2917  0.3130  0.2095
  260MOL0     H34299   8.503   5.579   2.230 -0.5247  1.2948 -0.0640
  260MOL0     H34300   8.359   5.660   2.384  2.1266  2.3682  0.7420
  260MOL0     H34301   8.446   5.578   2.531 -1.5081 -0.7078  0.5502
  260MOL0     H34302   9.363   5.244   1.974 -0.0545  0.4100 -0.4119
  260MOL0     H34303   9.529   5.133   1.825 -0.0468  1.2833  2.0261
  260MOL0     H34304   9.637   4.839   1.515 -1.6875  0.1584  1.1618
  260MOL0     H34305   9.776   4.712   1.371  2.3589  1.5579  2.0096
  260MOL0     H34306  11.258   4.638   1.898 -1.7479  2.3812 -1.2842
  260MOL0     H34307  11.307   4.576   2.122  0.0581  0.4658 -1.5712
  260MOL0     H34308  11.031   4.685   2.655  0.3461 -0.5208 -1.8837
  260MOL0     H34309  11.053   4.607   2.866  1.6896 -0.3062  0.6165
  260MOL0     H34310  10.988   4.421   3.060 -0.2762 -0.8733  1.0296
  260MOL0     H34311  11.117   4.548   3.036 -0.5432 -0.8891 -1.1524
  260MOL0     H34312  11.121   4.300   3.203  0.9197 -0.4496 -0.6785
  260MOL0     H34313  11.260   4.407   3.181  0.1714  2.7782 -0.9867
  260MOL0     H34314  11.100   4.592   3.292 -2.8307  0.2031  0.1686
  260MOL0     H34315  11.154   4.454   3.408  1.3379  0.3418 -0.1627
  260MOL0     H34316  10.936   4.349   3.354 -0.5184 -0.8657 -0.1012
  260MOL0     H34317  10.945   4.492   3.458  0.7904 -1.4931  0.7604
  260MOL0     H34318  10.675   4.606   3.159  1.1452 -0.4483 -1.5559
  260MOL0     H34319  11.235   4.239   2.723 -4.1637 -2.8872 -0.2658
  260MOL0     H34320  11.187   4.305   2.500 -1.8672 -2.4723  1.8204
  261MOL0     O34321   1.805   9.313  11.003 -0.6945  0.0071 -0.3807
  261MOL0     C34322   1.805   9.383  10.899  0.6152  0.1765  0.2131
  261MOL0     O34323   1.906   9.371  10.802 -0.0192 -0.0520  0.3159
  261MOL0     C34324   1.992   9.263  10.815  0.3573  0.3308 -0.3394
  261MOL0     C34325   1.960   9.130  10.847 -0.1750 -0.8489  0.3345
  261MOL0     C34326   2.051   9.021  10.845 -0.4065  0.6362 -0.0293
  261MOL0     C34327   2.189   9.063  10.846 -0.0730 -1.0388  0.1036
  261MOL0     O34328   2.298   8.986  10.868 -0.0213  0.4722  0.1154
  261MOL0     C34329   2.282   8.856  10.904  0.2664  0.4305  0.3173
  261MOL0     C34330   2.413   8.803  10.957 -0.2499 -0.4534  0.0334
  261MOL0     C34331   2.463   8.872  11.079  0.5702 -0.6063 -0.1421
  261MOL0     C34332   2.567   8.784  11.144  0.4267  0.5090  0.3170
  261MOL0     C34333   2.593   8.804  11.295  0.0256  0.5069  0.5378
  261MOL0     C34334   2.467   8.766  11.374 -0.7537  0.5628  0.1074
  261MOL0     C34335   2.509   8.747  11.525 -0.1555 -0.0774 -0.7292
  261MOL0     C34336   2.544   8.891  11.583  0.0957 -0.0983 -0.1182
  261MOL0     N34337   2.594   8.874  11.721 -1.1176 -0.3279  0.7195
  261MOL0     C34338   2.729   8.859  11.737 -0.0294  0.5814 -0.6717
  261MOL0     C34339   2.743   8.823  11.862  0.1611 -0.2172 -0.8159
  261MOL0     C34340   2.855   8.780  11.950  0.0866 -0.3158  0.0186
  261MOL0     C34341   2.965   8.894  11.947 -0.0079  0.8551  0.1796
  261MOL0     C34342   2.915   9.020  12.028 -0.4055 -0.0052 -0.6005
  261MOL0     C34343   2.934   9.153  11.956  0.1564 -0.1256 -0.0614
  261MOL0     O34344   2.857   9.267  12.013 -0.0774  0.3322 -0.6926
  261MOL0     C34345   2.719   9.288  12.006 -1.0420  0.3459 -0.8204
  261MOL0     C34346   2.651   9.377  12.087  0.7607  0.2837  0.5446
  261MOL0     C34347   2.509   9.388  12.082 -0.3831 -0.1469 -0.0160
  261MOL0     C34348   2.431   9.308  11.999  0.2806 -0.0522  0.1880
  261MOL0     C34349   2.282   9.316  12.003  0.4769 -1.4266 -0.9775
  261MOL0     O34350   2.230   9.433  12.044  0.1295  0.0030 -0.0140
  261MOL0     C34351   2.094   9.443  12.066  0.9391  0.4580  1.3832
  261MOL0     C34352   2.009   9.441  11.956  0.2000  0.0908 -0.4777
  261MOL0     C34353   1.876   9.454  11.970  0.6015  0.2436 -0.0602
  261MOL0     C34354   1.809   9.449  12.099  0.4468 -0.1509  0.4963
  261MOL0     O34355   1.667   9.448  12.118 -0.5865  0.6040  0.6391
  261MOL0     C34356   1.573   9.503  12.024 -0.8723  0.3240  0.6379
  261MOL0     C34357   1.436   9.504  12.081  0.3720  0.4731  0.1879
  261MOL0     C34358   1.333   9.576  11.990 -0.4461 -1.4758 -0.1613
  261MOL0     C34359   1.203   9.592  12.072  0.5498  0.3518 -0.1871
  261MOL0     C34360   1.110   9.679  11.988  0.2125  0.2072 -0.1482
  261MOL0     C34361   0.983   9.699  12.056 -0.1080  0.7946  0.1216
  261MOL0     C34362   0.884   9.763  11.949 -0.0683 -0.1952 -0.3807
  261MOL0     C34363   0.735   9.718  11.967 -0.2859 -0.6653 -0.4525
  261MOL0    Cl34364   0.647   9.843  11.871  0.2521 -0.2943  0.2421
  261MOL0     C34365   1.902   9.447  12.205 -0.2055  0.8837  0.5648
  261MOL0     C34366   2.037   9.458  12.190 -0.3996  0.6695  0.1033
  261MOL0     O34367   2.217   9.214  11.970 -0.2027 -0.5231 -0.2308
  261MOL0     C34368   2.500   9.207  11.925  0.2703  0.0674 -0.1244
  261MOL0     C34369   2.638   9.210  11.916  0.2127  0.1658  0.1413
  261MOL0     N34370   2.613   8.817  11.924 -0.1455  0.4126 -0.3632
  261MOL0     N34371   2.534   8.846  11.837  0.4785 -0.2954  0.3181
  261MOL0     C34372   2.225   9.193  10.807 -0.5354  0.8332 -0.2181
  261MOL0     C34373   2.127   9.292  10.803  0.5497  0.2876  0.4855
  261MOL0     C34374   1.675   9.450  10.872 -0.4387 -0.2562  0.5993
  261MOL0     C34375   1.555   9.418  10.937 -0.0869 -0.2809 -0.4513
  261MOL0     C34376   1.431   9.453  10.884 -0.1422 -0.9366  0.5135
  261MOL0     C34377   1.423   9.543  10.771 -0.7879  0.9638  0.2905
  261MOL0     O34378   1.307   9.575  10.712  0.1344  0.1699 -0.7168
  261MOL0     C34379   1.197   9.600  10.805 -0.1869 -0.4367 -0.0297
  261MOL0     C34380   1.202   9.735  10.871 -0.3453 -0.5514 -0.1702
  261MOL0     C34381   1.089   9.777  10.970 -0.4598 -0.4559 -0.0773
  261MOL0     C34382   0.952   9.793  10.894  0.6506  0.8391  0.7630
  261MOL0     C34383   0.868   9.892  10.961 -0.5769 -0.9538 -0.4359
  261MOL0     C34384   0.790   9.969  11.017  0.4405 -0.8373  0.6787
  261MOL0     C34385   1.544   9.564  10.703  0.4573 -0.6303  0.5676
  261MOL0     C34386   1.670   9.522  10.752  0.5289 -0.6452 -0.1901
  261MOL0     H34387   1.857   9.098  10.858 -0.9144 -0.0230 -2.9106
  261MOL0     H34388   2.020   8.919  10.865  0.4680  0.0313 -1.5767
  261MOL0     H34389   2.239   8.798  10.821  0.2873  0.0328  0.5817
  261MOL0     H34390   2.202   8.867  10.978 -0.2992  2.8896 -0.5495
  261MOL0     H34391   2.483   8.816  10.873  0.8977  1.8619  1.2455
  261MOL0     H34392   2.390   8.702  10.990 -3.2540  0.1407  0.0075
  261MOL0     H34393   2.389   8.881  11.160  1.1979  2.0208  0.2310
  261MOL0     H34394   2.514   8.965  11.053 -1.8065  1.4808  2.0367
  261MOL0     H34395   2.539   8.679  11.134 -1.5982  1.1865 -1.7885
  261MOL0     H34396   2.658   8.779  11.083 -1.6007 -2.6773 -2.8439
  261MOL0     H34397   2.621   8.909  11.311  0.2106  0.6359 -0.5916
  261MOL0     H34398   2.681   8.745  11.321 -0.2629  0.5169  1.6155
  261MOL0     H34399   2.439   8.666  11.338  1.6287 -1.7340  3.8369
  261MOL0     H34400   2.381   8.833  11.368 -0.6720  0.8598  1.8671
  261MOL0     H34401   2.428   8.708  11.587 -0.1611  1.6861  0.4576
  261MOL0     H34402   2.600   8.688  11.539 -0.3833 -0.2598  0.0412
  261MOL0     H34403   2.452   8.949  11.593  0.1068  0.1221 -1.1832
  261MOL0     H34404   2.618   8.949  11.527 -1.2693  1.7221 -0.1290
  261MOL0     H34405   2.810   8.875  11.667  0.7764 -1.9677 -0.4178
  261MOL0     H34406   2.898   8.690  11.905  2.2998  0.2913  0.7669
  261MOL0     H34407   2.822   8.772  12.054  3.4238  3.4010  1.6275
  261MOL0     H34408   2.978   8.927  11.844 -0.5951  0.8086  0.0831
  261MOL0     H34409   3.058   8.858  11.991 -0.2364 -0.5208 -0.4091
  261MOL0     H34410   2.807   9.006  12.043 -0.5284  0.1008 -1.3608
  261MOL0     H34411   2.964   9.021  12.126 -0.6597  0.4233 -0.4787
  261MOL0     H34412   2.915   9.143  11.849 -2.1058  1.2292  0.1670
  261MOL0     H34413   3.035   9.196  11.958  0.7972 -1.5399 -0.7925
  261MOL0     H34414   2.700   9.444  12.158  1.1670 -0.7904  1.2981
  261MOL0     H34415   2.461   9.450  12.157  1.4064 -0.9000  1.8634
  261MOL0     H34416   2.052   9.423  11.858 -0.3887  3.3771 -1.4846
  261MOL0     H34417   1.815   9.468  11.881  0.1090  1.0488  0.3968
  261MOL0     H34418   1.564   9.448  11.930  0.7067 -0.2590  0.7955
  261MOL0     H34419   1.607   9.603  11.996  0.3004 -0.0525  0.6375
  261MOL0     H34420   1.443   9.550  12.179 -0.6122  2.5913 -0.6789
  261MOL0     H34421   1.401   9.403  12.104 -1.4070  0.9432 -0.2844
  261MOL0     H34422   1.317   9.533  11.891 -2.8379 -0.3879 -0.2900
  261MOL0     H34423   1.357   9.681  11.971 -3.4664  0.2765  4.0605
  261MOL0     H34424   1.158   9.496  12.100  0.5245  0.9383  1.8883
  261MOL0     H34425   1.244   9.651  12.155  1.7452  0.1686 -0.6285
  261MOL0     H34426   1.091   9.621  11.897 -3.4995  2.2894 -0.9064
  261MOL0     H34427   1.166   9.766  11.956  3.7732 -1.4471  1.0563
  261MOL0     H34428   0.991   9.758  12.147  4.2490  2.5175 -1.1110
  261MOL0     H34429   0.951   9.601  12.094 -1.1055  2.2474  3.3481
  261MOL0     H34430   0.899   9.871  11.963  2.0451 -0.4429 -0.3838
  261MOL0     H34431   0.913   9.751  11.844 -0.8655  1.4312 -0.8205
  261MOL0     H34432   0.707   9.719  12.072  0.6467 -2.9375 -0.1150
  261MOL0     H34433   0.706   9.619  11.928 -1.6512 -0.2147 -0.6305
  261MOL0     H34434   1.859   9.442  12.305 -1.3737  2.0375  0.1483
  261MOL0     H34435   2.103   9.465  12.276  0.0428 -0.5209 -0.1280
  261MOL0     H34436   2.445   9.126  11.877  0.6605  0.5577 -1.4530
  261MOL0     H34437   2.690   9.132  11.862  1.1213  1.7762 -1.4397
  261MOL0     H34438   2.328   9.226  10.793 -0.1845 -0.4670 -0.8822
  261MOL0     H34439   2.160   9.396  10.800 -0.1533  0.5301  1.0441
  261MOL0     H34440   1.568   9.358  11.026  1.4611  1.3431  0.4813
  261MOL0     H34441   1.343   9.418  10.938 -1.9692  1.2767 -0.8554
  261MOL0     H34442   1.195   9.530  10.889  1.2879  0.1128  0.4897
  261MOL0     H34443   1.103   9.589  10.751  1.0008 -0.6519 -2.1660
  261MOL0     H34444   1.297   9.739  10.926 -1.3608 -1.1096  1.7387
  261MOL0     H34445   1.203   9.800  10.784 -2.0884  1.1509  1.0156
  261MOL0     H34446   1.122   9.871  11.015 -0.2466 -0.8054  0.5034
  261MOL0     H34447   1.085   9.699  11.046  2.3508  0.5002  1.1956
  261MOL0     H34448   0.964   9.821  10.789 -0.9963 -1.6705 -0.1797
  261MOL0     H34449   0.902   9.697  10.908 -1.2640  2.1271  3.6663
  261MOL0     H34450   0.713  10.021  11.070  0.7716 -0.6442  0.9813
  261MOL0     H34451   1.539   9.631  10.618  1.4244  1.3888  2.0199
  261MOL0     H34452   1.758   9.553  10.697  1.3219 -3.4846 -0.6818
  262MOL0     O34453   7.362   7.893   5.720  0.1166  0.4916  0.6141
  262MOL0     C34454   7.308   7.997   5.684 -0.8376  0.5538 -0.1597
  262MOL0     O34455   7.173   8.019   5.674 -0.4344  0.2854  0.5277
  262MOL0     C34456   7.089   7.906   5.677 -0.6205  0.2761 -0.0382
  262MOL0     C34457   7.014   7.880   5.562  0.2267 -0.2476  1.3554
  262MOL0     C34458   6.919   7.772   5.556  0.0192 -0.2949  0.5092
  262MOL0     C34459   6.897   7.696   5.665 -0.0649 -0.3324  0.4264
  262MOL0     O34460   6.799   7.604   5.661 -0.3599  0.4980  0.2802
  262MOL0     C34461   6.666   7.646   5.688 -0.5886 -0.0302  0.7696
  262MOL0     C34462   6.594   7.545   5.771  0.5700  1.0405 -0.2843
  262MOL0     C34463   6.535   7.429   5.668 -0.1672 -0.0774 -0.2218
  262MOL0     C34464   6.424   7.337   5.733 -0.9850  0.6512 -0.7551
  262MOL0     C34465   6.379   7.232   5.624  0.0014 -0.0704 -0.1883
  262MOL0     C34466   6.269   7.145   5.680 -0.0137  0.0669 -0.1563
  262MOL0     C34467   6.248   7.014   5.602  0.0003  0.1065  0.4010
  262MOL0     C34468   6.142   6.928   5.666 -0.6419 -0.0389 -0.8874
  262MOL0     N34469   6.009   6.993   5.660 -0.4948 -0.0225  0.3520
  262MOL0     C34470   5.952   7.056   5.552  1.0157 -0.4828  0.4120
  262MOL0     C34471   5.833   7.102   5.598 -0.7109  0.0231 -0.6201
  262MOL0     C34472   5.740   7.189   5.524  0.1467  0.6306  0.4794
  262MOL0     C34473   5.792   7.325   5.507  0.0355  0.0702  0.4714
  262MOL0     C34474   5.813   7.387   5.637  0.3372  1.2416 -1.0273
  262MOL0     C34475   5.875   7.521   5.609 -0.3239 -0.2996  0.4750
  262MOL0     O34476   6.003   7.493   5.561 -0.0653  0.3087  0.1525
  262MOL0     C34477   6.083   7.603   5.528 -0.7235 -0.1388  0.1481
  262MOL0     C34478   6.044   7.737   5.516 -0.1937  0.6081 -0.3259
  262MOL0     C34479   6.129   7.842   5.478 -1.3181 -0.0276  0.3932
  262MOL0     C34480   6.261   7.813   5.441  0.1079  0.1942 -0.3813
  262MOL0     C34481   6.356   7.921   5.391 -0.5268  0.6542  0.4735
  262MOL0     O34482   6.486   7.885   5.400 -0.5575  0.1044 -0.1740
  262MOL0     C34483   6.575   7.988   5.366 -0.2015  0.2827 -0.0869
  262MOL0     C34484   6.604   8.026   5.231  1.0271  0.2033  0.3605
  262MOL0     C34485   6.709   8.116   5.206 -0.7186 -0.5254  0.0478
  262MOL0     C34486   6.789   8.173   5.305 -0.8150  0.4401 -0.1616
  262MOL0     O34487   6.900   8.247   5.302 -1.0444  0.2458  0.5150
  262MOL0     C34488   6.990   8.219   5.190  0.1493  0.0241  0.1094
  262MOL0     C34489   7.129   8.233   5.253 -0.4647  0.3192 -0.0114
  262MOL0     C34490   7.229   8.250   5.147  0.5467  0.2208  0.2991
  262MOL0     C34491   7.380   8.265   5.197  1.0520 -1.1488  1.4579
  262MOL0     C34492   7.473   8.281   5.077 -0.1809  0.8967  0.1225
  262MOL0     C34493   7.611   8.293   5.138  0.3246  0.8455 -0.2606
  262MOL0     C34494   7.693   8.358   5.029 -1.3792  0.2666 -0.1332
  262MOL0     C34495   7.833   8.402   5.068  0.2630  0.2016  0.2997
  262MOL0    Cl34496   7.902   8.526   4.949 -0.1577  0.4870 -0.2510
  262MOL0     C34497   6.748   8.137   5.439  0.5420  0.0837  0.2516
  262MOL0     C34498   6.646   8.047   5.467  0.3547  0.6955  0.0946
  262MOL0     O34499   6.319   8.028   5.363  0.6646 -0.0736  0.6167
  262MOL0     C34500   6.300   7.680   5.440 -0.6786  0.3173 -0.3205
  262MOL0     C34501   6.208   7.574   5.480 -0.6283  0.8132  0.5560
  262MOL0     N34502   5.820   7.062   5.730 -0.0188 -0.8403  0.8126
  262MOL0     N34503   5.923   6.996   5.767  0.2306 -0.1010  0.8297
  262MOL0     C34504   6.967   7.718   5.779 -0.3305 -0.7285 -0.0516
  262MOL0     C34505   7.068   7.819   5.787  0.0687 -0.1421  0.1140
  262MOL0     C34506   7.392   8.117   5.648  0.2622 -0.3571  0.8937
  262MOL0     C34507   7.344   8.229   5.589  1.2184 -0.5484 -0.0762
  262MOL0     C34508   7.421   8.345   5.575  0.3399  0.3028  0.1619
  262MOL0     C34509   7.552   8.349   5.621 -0.2545 -0.7489  0.1394
  262MOL0     O34510   7.625   8.468   5.615 -0.0609  1.2133  0.3387
  262MOL0     C34511   7.739   8.460   5.513  0.2898 -0.3463 -0.5168
  262MOL0     C34512   7.872   8.405   5.564  0.1080  0.0766 -0.3329
  262MOL0     C34513   8.001   8.424   5.476  0.1490 -0.6606 -0.2695
  262MOL0     C34514   8.024   8.569   5.433 -0.8527  0.1927  0.1681
  262MOL0     C34515   8.103   8.635   5.533  0.4380 -0.0988 -0.3450
  262MOL0     C34516   8.172   8.687   5.618 -0.4175 -0.2570 -0.1430
  262MOL0     C34517   7.605   8.231   5.678 -0.1169  0.0615  0.7704
  262MOL0     C34518   7.530   8.116   5.670 -0.1522 -0.2587 -1.0502
  262MOL0     H34519   7.018   7.951   5.480  0.2702 -1.8230 -0.0632
  262MOL0     H34520   6.868   7.745   5.464  2.4156  0.3566 -1.0759
  262MOL0     H34521   6.619   7.669   5.593  1.1169 -0.2052 -0.1573
  262MOL0     H34522   6.684   7.739   5.744 -0.4758 -0.3943  1.3554
  262MOL0     H34523   6.509   7.594   5.819  1.4347 -0.3592  2.9598
  262MOL0     H34524   6.645   7.503   5.858  0.6038 -0.7391 -1.1068
  262MOL0     H34525   6.616   7.367   5.631  0.3981  1.5963 -1.9730
  262MOL0     H34526   6.491   7.481   5.582 -0.3408 -0.1232 -0.1609
  262MOL0     H34527   6.474   7.285   5.815 -0.8925  1.4758 -0.2840
  262MOL0     H34528   6.341   7.403   5.761  1.7625  4.0083  0.2258
  262MOL0     H34529   6.463   7.175   5.584 -1.6856 -1.0742 -2.5264
  262MOL0     H34530   6.330   7.289   5.544 -0.9630 -2.3662 -1.3255
  262MOL0     H34531   6.177   7.201   5.697  0.4270  0.4341  1.1214
  262MOL0     H34532   6.303   7.117   5.780 -2.8696 -0.1555  0.8477
  262MOL0     H34533   6.230   7.031   5.495  1.7315  0.2894  0.1034
  262MOL0     H34534   6.338   6.952   5.605 -0.8416 -1.3319 -1.6211
  262MOL0     H34535   6.162   6.898   5.769  3.1983 -1.4480 -1.8952
  262MOL0     H34536   6.139   6.845   5.596 -1.5369  1.2838 -2.5068
  262MOL0     H34537   5.989   7.075   5.452 -0.2527 -0.8154 -0.1456
  262MOL0     H34538   5.642   7.192   5.571 -0.4043  0.3464 -0.6030
  262MOL0     H34539   5.720   7.135   5.430 -1.2451  0.6614  0.7344
  262MOL0     H34540   5.715   7.381   5.453 -2.1825 -0.7572  2.5993
  262MOL0     H34541   5.881   7.321   5.444 -1.0300  0.7708 -1.1250
  262MOL0     H34542   5.721   7.403   5.694  0.6106 -0.4131 -0.0595
  262MOL0     H34543   5.880   7.328   5.700 -0.3115  0.4069 -1.0881
  262MOL0     H34544   5.884   7.573   5.705  0.2302 -1.1262  0.8861
  262MOL0     H34545   5.813   7.571   5.534  3.5216  0.0340 -2.8027
  262MOL0     H34546   5.941   7.767   5.528  0.5200  3.2705 -0.0717
  262MOL0     H34547   6.089   7.942   5.490  1.3106  1.0406  1.0733
  262MOL0     H34548   6.558   7.971   5.149  2.6174 -0.3528 -0.2128
  262MOL0     H34549   6.743   8.133   5.105  2.2464  1.7154  1.2800
  262MOL0     H34550   6.980   8.290   5.108 -1.6670 -0.2054  0.0996
  262MOL0     H34551   6.972   8.116   5.158 -3.6960  0.9041 -1.0943
  262MOL0     H34552   7.158   8.158   5.326  0.0450  2.4295  2.0983
  262MOL0     H34553   7.141   8.325   5.312 -0.2069 -0.5506  1.3149
  262MOL0     H34554   7.194   8.338   5.092 -2.4542 -1.4642 -0.6758
  262MOL0     H34555   7.216   8.166   5.078 -2.3734  0.7774  0.0418
  262MOL0     H34556   7.378   8.361   5.249  0.4836 -0.5943  0.4435
  262MOL0     H34557   7.413   8.187   5.266  0.6977 -1.7950  0.9075
  262MOL0     H34558   7.452   8.379   5.032 -0.1538 -0.4322 -3.0606
  262MOL0     H34559   7.462   8.204   4.999 -0.3443  1.8150 -0.7847
  262MOL0     H34560   7.642   8.201   5.187  0.1987  0.5609 -0.7083
  262MOL0     H34561   7.609   8.368   5.217  0.7850 -0.5010  1.0659
  262MOL0     H34562   7.714   8.284   4.951 -2.3575  0.3443 -0.4836
  262MOL0     H34563   7.635   8.441   4.986 -3.7331 -2.4539 -2.6696
  262MOL0     H34564   7.898   8.314   5.073 -1.8670 -1.4781 -0.0167
  262MOL0     H34565   7.836   8.439   5.171  3.2293 -1.5809  0.9804
  262MOL0     H34566   6.801   8.186   5.521 -1.6815  1.0450  1.2077
  262MOL0     H34567   6.622   8.019   5.570 -3.8012 -1.1722 -1.1575
  262MOL0     H34568   6.402   7.666   5.407 -0.1492 -3.4779  2.2985
  262MOL0     H34569   6.230   7.468   5.487 -0.7169  0.7096 -0.6541
  262MOL0     H34570   6.933   7.663   5.866 -2.0556 -0.3322 -0.4348
  262MOL0     H34571   7.114   7.836   5.883  1.2925 -0.5278 -0.3850
  262MOL0     H34572   7.245   8.231   5.544  1.5433  1.5465 -0.8391
  262MOL0     H34573   7.381   8.430   5.520  2.0863 -0.0518 -1.8013
  262MOL0     H34574   7.745   8.558   5.466 -3.4584  0.0796 -0.3773
  262MOL0     H34575   7.721   8.388   5.433 -1.0744 -3.3911  2.2739
  262MOL0     H34576   7.890   8.447   5.663  1.0335 -0.8576 -0.0804
  262MOL0     H34577   7.864   8.297   5.579  1.2190  0.1200  0.7115
  262MOL0     H34578   8.002   8.354   5.392  2.6795  0.6609 -1.4841
  262MOL0     H34579   8.088   8.396   5.536 -1.4774 -3.3539  0.9840
  262MOL0     H34580   8.074   8.562   5.336  1.0198 -4.1357  1.1988
  262MOL0     H34581   7.933   8.628   5.421 -0.9731  0.4698  2.1159
  262MOL0     H34582   8.229   8.730   5.697 -1.6079 -3.1584  2.5205
  262MOL0     H34583   7.703   8.233   5.724 -0.4848 -2.0780  1.7675
  262MOL0     H34584   7.569   8.030   5.724 -1.9963 -0.7249 -0.3737
  263MOL0     O34585   9.834   6.884  11.092  0.3793  0.2983 -0.9897
  263MOL0     C34586   9.872   6.959  11.011 -0.0025 -0.5030  1.0756
  263MOL0     O34587  10.001   6.993  10.981 -1.4128  0.1146 -0.2882
  263MOL0     C34588  10.113   6.962  11.054 -0.5447  1.2679 -0.3556
  263MOL0     C34589  10.211   7.057  11.061 -0.9036  0.3962  0.9359
  263MOL0     C34590  10.330   7.033  11.125 -0.2294 -0.3730 -0.1766
  263MOL0     C34591  10.356   6.905  11.173 -0.4143  0.1915 -1.1434
  263MOL0     O34592  10.470   6.867  11.227  0.0861 -0.8054 -0.1360
  263MOL0     C34593  10.591   6.937  11.187 -0.4131  0.0518  0.1915
  263MOL0     C34594  10.714   6.861  11.228 -0.6339  0.0178  0.5391
  263MOL0     C34595  10.846   6.937  11.207  0.6574  0.3623 -0.0740
  263MOL0     C34596  10.960   6.866  11.280 -0.1662  0.0462 -0.7342
  263MOL0     C34597  11.087   6.859  11.199  0.9256 -0.5210 -0.5244
  263MOL0     C34598  11.220   6.853  11.293  0.4524  0.0121  0.7720
  263MOL0     C34599  11.212   6.725  11.379  0.7091 -0.7019  0.1149
  263MOL0     C34600  11.343   6.675  11.431 -0.8008 -0.6304 -0.8385
  263MOL0     N34601  11.407   6.781  11.507  0.7225  0.2338 -0.7939
  263MOL0     C34602  11.364   6.811  11.631  0.9474 -0.4010 -0.3652
  263MOL0     C34603  11.436   6.916  11.664 -0.0089 -0.5363 -0.1304
  263MOL0     C34604  11.416   6.997  11.795  0.0520  0.5980  0.1939
  263MOL0     C34605  11.333   7.121  11.765  0.4566  0.3890 -0.2039
  263MOL0     C34606  11.297   7.209  11.893 -0.2345 -0.2568  0.2603
  263MOL0     C34607  11.177   7.301  11.874  0.3874 -0.7039 -0.1639
  263MOL0     O34608  11.055   7.222  11.868  0.5806  1.0349 -0.4031
  263MOL0     C34609  10.938   7.293  11.879  0.1622  0.0837  0.2171
  263MOL0     C34610  10.928   7.434  11.871  1.0110 -0.3780  0.4959
  263MOL0     C34611  10.802   7.496  11.884 -0.3024  0.5068 -0.4924
  263MOL0     C34612  10.686   7.409  11.888  0.3782 -0.2575  0.5749
  263MOL0     C34613  10.550   7.470  11.872  0.4159 -0.7446 -0.0195
  263MOL0     O34614  10.453   7.393  11.819 -0.2991 -0.3077  0.2521
  263MOL0     C34615  10.322   7.426  11.828  0.5271 -0.0752 -0.1659
  263MOL0     C34616  10.264   7.520  11.915  0.0149  0.4559 -0.1745
  263MOL0     C34617  10.124   7.544  11.908  0.6140 -0.1308 -0.0286
  263MOL0     C34618  10.034   7.479  11.814 -0.9520  0.6104  0.0516
  263MOL0     O34619   9.909   7.527  11.803 -0.2783  0.1492  0.4386
  263MOL0     C34620   9.823   7.472  11.699 -0.0722  0.0557 -1.1101
  263MOL0     C34621   9.699   7.560  11.705  0.1355 -0.0662 -0.1352
  263MOL0     C34622   9.605   7.508  11.601 -0.4151 -0.0912  1.5687
  263MOL0     C34623   9.473   7.596  11.591 -0.6834 -0.3085  0.5043
  263MOL0     C34624   9.400   7.564  11.457  1.1353 -0.0855 -0.2267
  263MOL0     C34625   9.267   7.642  11.435  0.3507  0.6973 -0.6965
  263MOL0     C34626   9.216   7.651  11.291 -0.6439 -0.0022  0.2703
  263MOL0     C34627   9.088   7.729  11.288  0.1491 -0.7665  0.3147
  263MOL0    Cl34628   9.028   7.701  11.119 -0.2496 -0.3319 -0.1892
  263MOL0     C34629  10.095   7.366  11.751 -0.2345  0.0021 -0.0349
  263MOL0     C34630  10.235   7.348  11.749 -0.1009  0.1410 -0.2298
  263MOL0     O34631  10.544   7.595  11.894 -0.1692  0.0349 -0.0427
  263MOL0     C34632  10.695   7.270  11.895  0.6443  0.2357  0.1489
  263MOL0     C34633  10.821   7.219  11.886 -0.7656  0.7640  0.8882
  263MOL0     N34634  11.537   6.933  11.575  0.6400 -0.1305 -1.1202
  263MOL0     N34635  11.514   6.857  11.475  0.0382 -0.0182 -0.2153
  263MOL0     C34636  10.254   6.813  11.170 -0.1891 -0.3184  0.3769
  263MOL0     C34637  10.128   6.836  11.114  0.0194 -0.4117 -0.5470
  263MOL0     C34638   9.755   7.025  10.933 -0.5668  0.5290 -0.2233
  263MOL0     C34639   9.779   7.146  10.860  0.9134 -0.5913  0.6739
  263MOL0     C34640   9.668   7.195  10.775  0.2791 -0.8523  1.3486
  263MOL0     C34641   9.546   7.133  10.784  0.0622 -0.7701 -0.1981
  263MOL0     O34642   9.435   7.172  10.706 -0.3533  0.6578 -0.4470
  263MOL0     C34643   9.438   7.294  10.624 -0.7399  0.0947  0.5720
  263MOL0     C34644   9.449   7.426  10.703 -0.0809  0.0461  0.4680
  263MOL0     C34645   9.302   7.441  10.775 -0.3683 -0.0768 -0.2453
  263MOL0     C34646   9.280   7.548  10.878 -0.5557  0.4049 -0.3914
  263MOL0     C34647   9.366   7.521  11.000  0.6159  0.9574  0.6697
  263MOL0     C34648   9.447   7.507  11.090  0.6835 -0.1815 -0.0175
  263MOL0     C34649   9.520   7.019  10.856 -0.2172  0.4904 -0.1830
  263MOL0     C34650   9.625   6.961  10.931  0.1467 -0.0468  0.3050
  263MOL0     H34651  10.193   7.146  11.002 -0.2004  0.1251  0.2941
  263MOL0     H34652  10.397   7.118  11.121  0.5007 -0.9416 -4.3771
  263MOL0     H34653  10.604   7.029  11.244  0.3382 -1.0396  1.8493
  263MOL0     H34654  10.585   6.958  11.080 -0.0466 -0.2537  0.1072
  263MOL0     H34655  10.721   6.771  11.167  1.0902  1.3862 -1.4442
  263MOL0     H34656  10.697   6.827  11.331 -2.6818  1.0738  0.6012
  263MOL0     H34657  10.825   7.039  11.239 -3.1140 -0.4687  0.5876
  263MOL0     H34658  10.861   6.939  11.098  0.4446 -0.1114 -0.1168
  263MOL0     H34659  10.979   6.929  11.367  0.9531 -0.9715 -0.2236
  263MOL0     H34660  10.927   6.767  11.312 -1.6401 -0.1472 -2.6268
  263MOL0     H34661  11.107   6.951  11.143  0.2935  0.2658  0.5154
  263MOL0     H34662  11.081   6.775  11.129 -0.4660  1.2070 -2.6047
  263MOL0     H34663  11.221   6.940  11.359 -0.9301 -0.2896  1.2385
  263MOL0     H34664  11.310   6.848  11.232  2.0817  0.7209  3.0235
  263MOL0     H34665  11.140   6.744  11.460 -1.0075  0.5456 -1.6207
  263MOL0     H34666  11.177   6.650  11.307 -0.4509  0.0106 -0.0931
  263MOL0     H34667  11.407   6.643  11.349 -0.8800 -1.9702 -0.3985
  263MOL0     H34668  11.309   6.585  11.483 -2.0598  0.8711  1.0854
  263MOL0     H34669  11.280   6.756  11.673 -1.1029  1.0612 -2.2733
  263MOL0     H34670  11.513   7.027  11.835 -1.6457  0.2131  5.4230
  263MOL0     H34671  11.367   6.927  11.863  3.0578 -0.3178  1.5835
  263MOL0     H34672  11.238   7.092  11.721  0.8326  1.2047 -1.6324
  263MOL0     H34673  11.386   7.193  11.702  1.2438  2.9544  3.0942
  263MOL0     H34674  11.275   7.140  11.976  0.4676  0.0527  0.7065
  263MOL0     H34675  11.384   7.270  11.919  0.2539 -1.6990  2.3260
  263MOL0     H34676  11.184   7.376  11.795 -1.1284  1.3432  1.5167
  263MOL0     H34677  11.183   7.359  11.967  0.9819 -1.2097  0.1245
  263MOL0     H34678  11.013   7.498  11.852  0.9252 -0.9024 -1.9148
  263MOL0     H34679  10.797   7.604  11.887  0.2065  0.6050 -2.3554
  263MOL0     H34680  10.322   7.560  11.997  0.7141 -2.9229  1.1399
  263MOL0     H34681  10.077   7.621  11.968 -1.6108 -1.5119  0.1274
  263MOL0     H34682   9.806   7.368  11.726  1.8846 -0.1462 -0.4633
  263MOL0     H34683   9.871   7.472  11.600 -2.0724  1.5034 -2.1500
  263MOL0     H34684   9.732   7.664  11.691  0.7376  0.0031  1.5597
  263MOL0     H34685   9.662   7.544  11.807  2.6814  0.0283  0.8932
  263MOL0     H34686   9.568   7.407  11.626  1.0649 -1.0098  0.2036
  263MOL0     H34687   9.662   7.500  11.508 -1.4435  1.3900  0.7659
  263MOL0     H34688   9.409   7.591  11.680 -1.6691  0.0230 -0.1569
  263MOL0     H34689   9.509   7.699  11.589 -0.7139 -0.3055 -0.3949
  263MOL0     H34690   9.391   7.455  11.449  0.4209 -0.0975  0.6111
  263MOL0     H34691   9.470   7.586  11.376  3.4509  0.2739  1.7607
  263MOL0     H34692   9.277   7.747  11.466 -0.4871  1.0274 -1.4773
  263MOL0     H34693   9.195   7.587  11.496  0.4965 -1.3305 -2.2515
  263MOL0     H34694   9.290   7.694  11.223 -0.2584 -2.0446 -0.6768
  263MOL0     H34695   9.197   7.553  11.246  0.8596  0.9452 -2.7033
  263MOL0     H34696   9.115   7.834  11.305  1.8191 -1.2781  0.9916
  263MOL0     H34697   9.013   7.694  11.360 -1.9639 -0.0108 -1.3942
  263MOL0     H34698  10.041   7.308  11.677  2.9878 -0.3027 -2.3452
  263MOL0     H34699  10.273   7.268  11.685 -0.3447 -3.3516  3.5175
  263MOL0     H34700  10.611   7.202  11.888  0.2379  0.5016  1.8826
  263MOL0     H34701  10.842   7.113  11.897 -0.4320  0.5797 -1.1361
  263MOL0     H34702  10.276   6.712  11.203  1.3985 -0.7073 -1.6645
  263MOL0     H34703  10.049   6.762  11.102 -0.4740  0.2395 -1.4169
  263MOL0     H34704   9.878   7.190  10.864  1.6955 -1.7335 -2.9276
  263MOL0     H34705   9.694   7.280  10.714 -1.7980 -0.2790  1.1811
  263MOL0     H34706   9.341   7.299  10.573  0.2219  0.7848 -1.3059
  263MOL0     H34707   9.519   7.293  10.550  0.9065  0.7256  2.2884
  263MOL0     H34708   9.524   7.425  10.782  0.9434  1.7504 -0.4284
  263MOL0     H34709   9.464   7.514  10.640 -0.3563  0.3458  0.8100
  263MOL0     H34710   9.283   7.345  10.824  0.5376 -0.5658 -0.8299
  263MOL0     H34711   9.223   7.449  10.699 -0.4251  0.6634 -0.1135
  263MOL0     H34712   9.292   7.652  10.844  0.7214  0.2664 -0.4002
  263MOL0     H34713   9.177   7.535  10.912 -0.8592  0.3130 -1.3209
  263MOL0     H34714   9.528   7.492  11.159  0.8838 -0.4339 -0.3066
  263MOL0     H34715   9.422   6.972  10.850  0.4818 -1.9754  3.7787
  263MOL0     H34716   9.612   6.870  10.988  1.4479 -0.3515  0.1349
  264MOL0     O34717   3.449   0.442   6.454  0.1543 -0.1342 -0.0889
  264MOL0     C34718   3.534   0.488   6.369 -0.3486 -0.2674 -0.2244
  264MOL0     O34719   3.527   0.611   6.315  0.0059  0.5474 -0.4831
  264MOL0     C34720   3.409   0.674   6.344 -0.4726 -0.3585  0.2015
  264MOL0     C34721   3.306   0.676   6.249  0.1682  0.1346 -0.0744
  264MOL0     C34722   3.181   0.738   6.285 -0.4697  0.1588 -0.2329
  264MOL0     C34723   3.159   0.780   6.421 -0.4080 -1.6787  1.1929
  264MOL0     O34724   3.035   0.827   6.449  0.0690  0.5009 -0.5683
  264MOL0     C34725   3.011   0.915   6.558  0.8435  0.6345  0.4077
  264MOL0     C34726   2.864   0.963   6.552  0.0898 -0.1897  0.3579
  264MOL0     C34727   2.761   0.858   6.593  0.5733 -0.2771  0.4433
  264MOL0     C34728   2.637   0.937   6.629 -0.2471 -0.0291  0.0494
  264MOL0     C34729   2.519   0.841   6.647  0.8049  0.2188 -0.6111
  264MOL0     C34730   2.397   0.915   6.688 -0.6774 -0.8433 -0.2110
  264MOL0     C34731   2.272   0.834   6.672  0.3620  0.6117 -0.1443
  264MOL0     C34732   2.145   0.900   6.740 -0.6246  0.2133  0.3181
  264MOL0     N34733   2.161   0.907   6.890 -0.9054 -0.3676 -0.7915
  264MOL0     C34734   2.135   0.802   6.979 -0.4300  0.3161  0.0963
  264MOL0     C34735   2.132   0.861   7.104  0.5415 -0.4341 -0.9412
  264MOL0     C34736   2.101   0.801   7.239  0.5244 -0.6904 -0.5842
  264MOL0     C34737   2.002   0.681   7.222 -0.6199  0.2832  0.7372
  264MOL0     C34738   1.867   0.716   7.152  0.0246 -0.0030 -0.0574
  264MOL0     C34739   1.779   0.591   7.138  0.3408 -0.4301 -0.3102
  264MOL0     O34740   1.649   0.627   7.086 -0.5606  0.0852 -0.3969
  264MOL0     C34741   1.551   0.530   7.087  0.3526  0.7311 -0.2018
  264MOL0     C34742   1.418   0.585   7.086 -0.6795  0.6214  0.4062
  264MOL0     C34743   1.306   0.505   7.087  0.4121 -0.0811 -0.2592
  264MOL0     C34744   1.328   0.363   7.092 -0.2712 -0.8891  0.3193
  264MOL0     C34745   1.218   0.268   7.075 -0.1953  0.1616 -0.2803
  264MOL0     O34746   1.119   0.293   6.983 -0.3560  0.0214 -0.3329
  264MOL0     C34747   1.002   0.224   7.000 -1.0951 -0.5117  0.3793
  264MOL0     C34748   0.960   0.166   6.881  0.1165  1.1038 -0.5946
  264MOL0     C34749   0.843   0.087   6.875 -0.6848  0.2015 -0.7434
  264MOL0     C34750   0.762   0.085   6.989  0.7992  0.3055  0.3616
  264MOL0     O34751   0.642   0.014   6.984 -0.6372 -0.1649  0.4463
  264MOL0     C34752   0.579  -0.027   6.860 -0.0750  0.4331 -0.3131
  264MOL0     C34753   0.443  -0.078   6.901 -0.4955  0.9557 -0.2532
  264MOL0     C34754   0.346  -0.129   6.787 -1.0671 -0.2031 -0.5257
  264MOL0     C34755   0.225  -0.198   6.849 -0.0720 -0.0081  0.2927
  264MOL0     C34756   0.116  -0.219   6.742 -0.4577  0.1465  0.4344
  264MOL0     C34757   0.149  -0.331   6.638 -0.3647  0.4638  0.0117
  264MOL0     C34758   0.112  -0.468   6.704 -0.7535  0.3574  0.0307
  264MOL0     C34759   0.114  -0.574   6.595  0.4695 -0.7184 -0.1317
  264MOL0    Cl34760  -0.033  -0.555   6.491 -0.1611 -0.0524  0.5032
  264MOL0     C34761   0.788   0.154   7.105 -1.0424  0.1261 -0.1832
  264MOL0     C34762   0.918   0.223   7.114  1.0672 -0.2319 -0.0291
  264MOL0     O34763   1.222   0.166   7.148  0.0046 -0.6040  0.5949
  264MOL0     C34764   1.457   0.307   7.091 -0.1627 -0.8912  0.1626
  264MOL0     C34765   1.568   0.389   7.102  1.0314 -0.6926 -0.3201
  264MOL0     N34766   2.158   0.995   7.083  0.7593 -0.5066 -0.2113
  264MOL0     N34767   2.189   1.025   6.957  0.1858  0.0996  0.0274
  264MOL0     C34768   3.266   0.786   6.512 -0.4533 -0.6532 -0.0130
  264MOL0     C34769   3.392   0.734   6.468  0.2305  0.4477 -0.7688
  264MOL0     C34770   3.659   0.421   6.355 -0.5560 -0.0089  0.5676
  264MOL0     C34771   3.757   0.484   6.276 -0.1894 -0.4738  0.7805
  264MOL0     C34772   3.879   0.415   6.281  0.3959  0.1202 -0.0494
  264MOL0     C34773   3.910   0.299   6.346 -0.0379  0.2785 -0.3486
  264MOL0     O34774   4.038   0.245   6.325  0.4685  0.2744  0.3111
  264MOL0     C34775   4.076   0.120   6.394  0.2599 -0.8719  0.5108
  264MOL0     C34776   4.231   0.101   6.377  0.4987 -0.3260 -0.3655
  264MOL0     C34777   4.281  -0.031   6.451  0.2472 -0.5205 -0.2360
  264MOL0     C34778   4.419  -0.068   6.416  0.2565  0.9906  0.4810
  264MOL0     C34779   4.415  -0.159   6.303  0.5663 -0.6049  1.5552
  264MOL0     C34780   4.403  -0.216   6.197 -0.3157  0.4290 -0.2805
  264MOL0     C34781   3.808   0.238   6.421 -0.1898 -0.0052 -0.4345
  264MOL0     C34782   3.677   0.297   6.419  0.2578 -0.1222 -0.3263
  264MOL0     H34783   3.324   0.641   6.148 -0.9006  0.4886 -0.4091
  264MOL0     H34784   3.109   0.756   6.206 -0.2098  2.0613 -0.0742
  264MOL0     H34785   3.090   0.990   6.548  0.3750  0.9776 -0.7836
  264MOL0     H34786   3.027   0.861   6.653 -0.3201  1.3560  1.0419
  264MOL0     H34787   2.843   0.992   6.449  0.2038  2.5422  1.0024
  264MOL0     H34788   2.855   1.055   6.612 -0.5758  2.5419 -3.5436
  264MOL0     H34789   2.799   0.807   6.681  2.4905 -0.9091 -0.6996
  264MOL0     H34790   2.745   0.782   6.516  0.9846  0.5101 -0.4422
  264MOL0     H34791   2.657   0.997   6.718  0.0092 -1.3559  0.9088
  264MOL0     H34792   2.612   1.014   6.555 -1.6503  1.1262  1.6524
  264MOL0     H34793   2.526   0.764   6.725 -2.7964  0.5468  0.2102
  264MOL0     H34794   2.503   0.784   6.555  3.3665  0.9986 -1.6066
  264MOL0     H34795   2.389   0.996   6.615  1.8063  1.4972  1.9322
  264MOL0     H34796   2.399   0.953   6.790  0.8293 -0.7440 -0.2618
  264MOL0     H34797   2.246   0.811   6.568 -0.8124 -0.8657  0.4344
  264MOL0     H34798   2.289   0.743   6.730  1.9561  1.1031  0.2281
  264MOL0     H34799   2.057   0.836   6.727  2.0196 -3.7823  0.4783
  264MOL0     H34800   2.123   1.001   6.702  0.2606  1.1480  2.1654
  264MOL0     H34801   2.129   0.695   6.963  3.1558 -0.4583  2.6504
  264MOL0     H34802   2.065   0.871   7.314 -0.7770  0.9315 -2.6146
  264MOL0     H34803   2.192   0.754   7.280 -1.8423 -1.7532  4.1041
  264MOL0     H34804   1.983   0.636   7.320  0.2637 -0.9828  0.3572
  264MOL0     H34805   2.054   0.601   7.170 -0.3917  1.3113 -0.6854
  264MOL0     H34806   1.810   0.789   7.211 -4.2691 -2.0921 -1.1602
  264MOL0     H34807   1.888   0.754   7.052 -1.8737 -2.1731 -1.3923
  264MOL0     H34808   1.781   0.533   7.230  0.8114  2.3898  1.6003
  264MOL0     H34809   1.818   0.528   7.057 -0.8057 -1.0325 -0.4072
  264MOL0     H34810   1.405   0.692   7.089 -2.5674  0.4395 -0.0386
  264MOL0     H34811   1.208   0.548   7.076  0.5439 -0.1414 -1.8587
  264MOL0     H34812   1.013   0.190   6.789 -0.4432  2.1519 -0.6507
  264MOL0     H34813   0.814   0.043   6.780  2.3408 -1.8664 -0.8673
  264MOL0     H34814   0.634  -0.110   6.814  0.0384 -0.2974  1.0752
  264MOL0     H34815   0.560   0.061   6.798 -1.5926  0.5597  0.2739
  264MOL0     H34816   0.385   0.003   6.946 -2.0873  1.1199 -2.4319
  264MOL0     H34817   0.462  -0.154   6.977  0.2238 -0.2822 -1.6203
  264MOL0     H34818   0.411  -0.201   6.737  1.2330  0.3981  1.4092
  264MOL0     H34819   0.337  -0.049   6.714  1.1907 -0.6002 -1.3148
  264MOL0     H34820   0.248  -0.289   6.905 -0.1757  0.7309  1.5880
  264MOL0     H34821   0.171  -0.133   6.919 -2.1591 -1.0777 -0.2274
  264MOL0     H34822   0.093  -0.130   6.682 -4.2241 -1.6233 -1.1137
  264MOL0     H34823   0.015  -0.239   6.781 -1.1615  0.7148 -1.0086
  264MOL0     H34824   0.257  -0.334   6.617 -0.5031 -3.9613 -1.0665
  264MOL0     H34825   0.105  -0.323   6.539  0.7054  1.9639 -0.3819
  264MOL0     H34826   0.181  -0.491   6.786 -1.8426 -2.6194  0.2054
  264MOL0     H34827   0.010  -0.460   6.742 -1.5084 -4.0270 -0.6266
  264MOL0     H34828   0.102  -0.666   6.653 -0.6510 -1.7417 -1.8885
  264MOL0     H34829   0.212  -0.564   6.546  1.8895  0.5508  2.7370
  264MOL0     H34830   0.725   0.161   7.194  1.2039  0.7653  1.4453
  264MOL0     H34831   0.947   0.264   7.210  0.0813  0.1048  0.1458
  264MOL0     H34832   1.456   0.199   7.084  0.7203 -0.7825 -3.4129
  264MOL0     H34833   1.668   0.347   7.106  0.6138 -1.6542  0.5799
  264MOL0     H34834   3.260   0.835   6.608  1.5016 -1.2143  0.4437
  264MOL0     H34835   3.480   0.733   6.531 -0.0035 -0.6722 -0.4394
  264MOL0     H34836   3.747   0.572   6.214 -0.0284 -0.9515  0.0690
  264MOL0     H34837   3.957   0.451   6.215 -0.1708  2.7535  0.6183
  264MOL0     H34838   4.019   0.037   6.351  0.7643 -1.8433  1.6596
  264MOL0     H34839   4.045   0.129   6.499 -2.0491 -0.8488 -0.1099
  264MOL0     H34840   4.257   0.085   6.272  2.5202 -2.4250  0.3776
  264MOL0     H34841   4.277   0.195   6.409 -0.0163 -0.7034  1.6005
  264MOL0     H34842   4.214  -0.118   6.444  1.6607 -2.1107  3.6182
  264MOL0     H34843   4.297  -0.001   6.554  0.8238  1.6690 -0.9044
  264MOL0     H34844   4.480   0.023   6.410 -0.7355  1.8379  2.4674
  264MOL0     H34845   4.465  -0.131   6.492 -2.2943 -2.4029 -0.5495
  264MOL0     H34846   4.388  -0.262   6.101  1.0920  2.5370 -1.5989
  264MOL0     H34847   3.819   0.147   6.479  1.3914  0.5305  0.1760
  264MOL0     H34848   3.599   0.241   6.471 -1.6966  1.0767 -1.8176
  265MOL0     O34849   1.926   4.123   1.027  0.2144 -0.7443  0.0755
  265MOL0     C34850   1.888   4.053   1.118 -0.6417 -0.3349 -0.6760
  265MOL0     O34851   1.757   4.020   1.145 -0.7946  0.6916  0.3876
  265MOL0     C34852   1.666   4.099   1.092 -0.3065  0.3087  0.3140
  265MOL0     C34853   1.648   4.222   1.147  0.5057  0.1544  0.2953
  265MOL0     C34854   1.548   4.310   1.099  0.3709  0.3614 -0.3803
  265MOL0     C34855   1.467   4.272   0.990 -0.2607  1.1210  0.0875
  265MOL0     O34856   1.374   4.354   0.942  0.2785  0.4426  0.9407
  265MOL0     C34857   1.247   4.338   1.002 -0.9939 -0.2580  0.0697
  265MOL0     C34858   1.155   4.443   0.968  0.5316 -0.8901  0.7353
  265MOL0     C34859   1.012   4.427   1.028  0.4242 -0.2675 -0.9471
  265MOL0     C34860   0.952   4.565   1.034  0.0099 -0.3036  0.5006
  265MOL0     C34861   0.801   4.574   1.000  0.2452 -0.6875 -0.5214
  265MOL0     C34862   0.737   4.705   1.058  0.2667 -0.5804 -0.6213
  265MOL0     C34863   0.591   4.731   1.023 -0.6579 -0.2815 -1.3694
  265MOL0     C34864   0.561   4.761   0.877  0.9851 -0.7366  0.4804
  265MOL0     N34865   0.417   4.769   0.840  0.5762  0.7499 -0.2428
  265MOL0     C34866   0.333   4.663   0.817  0.4694 -0.2551  0.7438
  265MOL0     C34867   0.209   4.719   0.842  0.2525  0.7298 -0.6199
  265MOL0     C34868   0.076   4.652   0.846 -0.5941  0.1341 -0.5845
  265MOL0     C34869   0.032   4.644   0.703 -0.5929  0.4540  0.5672
  265MOL0     C34870   0.005   4.498   0.657  0.3576  0.0969 -0.1124
  265MOL0     C34871  -0.037   4.500   0.513 -0.8841 -0.0379 -0.1900
  265MOL0     O34872  -0.067   4.367   0.474 -0.2364  0.4225  0.3723
  265MOL0     C34873  -0.192   4.321   0.513 -0.3229  0.9071  0.4091
  265MOL0     C34874  -0.200   4.210   0.597  0.9599 -0.1126 -1.1404
  265MOL0     C34875  -0.328   4.143   0.618  0.1474 -0.3677 -0.0343
  265MOL0     C34876  -0.442   4.211   0.570  0.2432 -0.6565 -0.0427
  265MOL0     C34877  -0.582   4.160   0.604 -0.1940 -0.1916 -0.1964
  265MOL0     O34878  -0.684   4.238   0.568  0.2433 -1.1672  0.2397
  265MOL0     C34879  -0.813   4.225   0.618  0.7197 -0.1159 -0.0681
  265MOL0     C34880  -0.854   4.269   0.752 -0.7073 -0.0822  0.0846
  265MOL0     C34881  -0.980   4.247   0.809 -0.4379 -0.1904  0.0942
  265MOL0     C34882  -1.064   4.160   0.741  0.1792  0.3430  0.3292
  265MOL0     O34883  -1.174   4.110   0.806  0.6620  0.0264  0.5591
  265MOL0     C34884  -1.296   4.177   0.761  0.4536 -0.5183  0.0087
  265MOL0     C34885  -1.432   4.154   0.834 -0.0531 -0.7961 -0.1890
  265MOL0     C34886  -1.508   4.041   0.764  0.2573 -0.3647  0.6557
  265MOL0     C34887  -1.662   4.045   0.782  0.3164  0.2650  0.9835
  265MOL0     C34888  -1.731   3.976   0.666  0.9019 -0.1149  0.7947
  265MOL0     C34889  -1.882   3.951   0.690 -0.2588  0.1381 -0.9372
  265MOL0     C34890  -1.945   3.844   0.591 -0.3397 -0.6752 -0.1020
  265MOL0     C34891  -2.096   3.844   0.600  0.1318  0.4558 -0.6599
  265MOL0    Cl34892  -2.168   3.791   0.751  0.1208 -0.3696  0.2405
  265MOL0     C34893  -1.033   4.118   0.616 -0.7324  0.6395  0.5504
  265MOL0     C34894  -0.911   4.148   0.555 -0.9778  0.4025  0.2749
  265MOL0     O34895  -0.596   4.058   0.670  0.0227  0.4795 -0.5421
  265MOL0     C34896  -0.429   4.335   0.490  0.1287  0.9654 -0.1978
  265MOL0     C34897  -0.303   4.392   0.466 -0.2321  0.3847  0.1315
  265MOL0     N34898   0.227   4.848   0.886  0.7632 -0.5989 -1.2001
  265MOL0     N34899   0.351   4.876   0.879  0.3945  0.1028 -0.7928
  265MOL0     C34900   1.487   4.144   0.933 -0.1303 -0.2840  0.9828
  265MOL0     C34901   1.587   4.061   0.988  0.7115 -0.4345 -0.1232
  265MOL0     C34902   1.985   3.986   1.197  0.2377  0.0264 -0.4039
  265MOL0     C34903   2.117   4.020   1.197  0.3061 -0.4244 -0.2856
  265MOL0     C34904   2.211   3.946   1.267  0.0321 -0.3265 -0.2377
  265MOL0     C34905   2.178   3.833   1.337  0.4730  0.0481  0.5671
  265MOL0     O34906   2.280   3.765   1.400 -0.6346 -0.1010  0.1563
  265MOL0     C34907   2.235   3.633   1.442  0.2145 -0.1824 -0.1636
  265MOL0     C34908   2.191   3.534   1.325 -0.1179  0.1425 -0.5660
  265MOL0     C34909   2.309   3.498   1.230 -0.5118 -0.0021  0.1108
  265MOL0     C34910   2.424   3.428   1.299 -0.8110  0.3548  0.1829
  265MOL0     C34911   2.538   3.396   1.210 -0.2397 -0.3785  0.7414
  265MOL0     C34912   2.620   3.370   1.120 -0.3940  0.3219 -0.6255
  265MOL0     C34913   2.043   3.823   1.364  0.3645 -0.4731 -0.2079
  265MOL0     C34914   1.950   3.891   1.290  0.5335 -0.4011 -0.0447
  265MOL0     H34915   1.719   4.262   1.219 -1.6104 -0.6852  3.0079
  265MOL0     H34916   1.550   4.410   1.141  0.0319  0.0181  0.4722
  265MOL0     H34917   1.253   4.328   1.111 -0.8130 -2.4310 -0.0965
  265MOL0     H34918   1.202   4.249   0.958  2.0478 -1.2379 -1.3074
  265MOL0     H34919   1.143   4.447   0.859 -0.0676  0.8124  0.8339
  265MOL0     H34920   1.191   4.542   0.999 -1.9526 -0.1291  1.3813
  265MOL0     H34921   1.016   4.382   1.128  1.8042 -0.0497 -0.8813
  265MOL0     H34922   0.949   4.367   0.962 -2.6266  1.6571  0.0286
  265MOL0     H34923   0.970   4.602   1.135 -1.4121  0.2022  0.5794
  265MOL0     H34924   1.000   4.635   0.965  2.0025 -1.7409  0.3241
  265MOL0     H34925   0.745   4.484   1.025  0.2376 -0.8057 -0.9565
  265MOL0     H34926   0.792   4.579   0.891 -3.1861  2.0185 -0.2950
  265MOL0     H34927   0.799   4.789   1.026  0.5640 -0.4295  0.3054
  265MOL0     H34928   0.733   4.697   1.168  0.5180 -1.0317 -0.6428
  265MOL0     H34929   0.550   4.642   1.071  1.3566  0.9797  3.3400
  265MOL0     H34930   0.550   4.811   1.087 -1.5559 -1.7730  0.0065
  265MOL0     H34931   0.629   4.707   0.810  1.0369  0.9890 -0.9230
  265MOL0     H34932   0.593   4.864   0.858  0.8942 -0.4574  1.7711
  265MOL0     H34933   0.355   4.565   0.776 -1.8192  0.0700 -1.5562
  265MOL0     H34934   0.016   4.713   0.913  0.6417  0.0546  0.6362
  265MOL0     H34935   0.087   4.550   0.884  0.1072  0.9769  1.6216
  265MOL0     H34936   0.103   4.692   0.635 -1.4658 -1.1559 -1.6060
  265MOL0     H34937  -0.063   4.697   0.688 -0.3672  0.8021  0.3630
  265MOL0     H34938   0.096   4.439   0.669 -1.0644 -1.8760  1.9335
  265MOL0     H34939  -0.063   4.447   0.727  0.4604  0.4612  0.2583
  265MOL0     H34940   0.041   4.536   0.445 -1.4885 -1.5270 -1.7603
  265MOL0     H34941  -0.121   4.568   0.499 -0.1593  1.4435  2.2137
  265MOL0     H34942  -0.108   4.166   0.632  0.0222  0.6315  2.7817
  265MOL0     H34943  -0.335   4.051   0.674 -3.2811  1.6788  3.4200
  265MOL0     H34944  -0.784   4.328   0.810  0.5480 -2.7452  1.4518
  265MOL0     H34945  -1.013   4.292   0.903  0.7370 -0.8456  0.8444
  265MOL0     H34946  -1.302   4.146   0.657  0.0458 -6.7985  1.4571
  265MOL0     H34947  -1.285   4.284   0.778  0.9681 -0.5434 -0.1494
  265MOL0     H34948  -1.488   4.248   0.832  0.3151 -0.3669  3.3140
  265MOL0     H34949  -1.425   4.136   0.941 -1.3511 -0.8933 -0.1147
  265MOL0     H34950  -1.481   3.941   0.798 -1.7850 -0.8158  1.0865
  265MOL0     H34951  -1.485   4.045   0.657  0.1009  3.4437  0.6104
  265MOL0     H34952  -1.690   3.988   0.871  1.4639 -2.9210 -0.5738
  265MOL0     H34953  -1.710   4.141   0.807 -1.3585 -0.2543 -0.0622
  265MOL0     H34954  -1.683   3.880   0.645 -4.7610 -2.8295 -2.2949
  265MOL0     H34955  -1.725   4.039   0.577 -0.6893  0.2780  0.9303
  265MOL0     H34956  -1.934   4.047   0.690  2.1263  1.6277  2.2658
  265MOL0     H34957  -1.889   3.908   0.790  1.4668 -2.2772 -1.7453
  265MOL0     H34958  -1.911   3.867   0.489 -0.0331 -1.4803 -0.1940
  265MOL0     H34959  -1.906   3.745   0.619 -0.1411 -0.9901 -1.4042
  265MOL0     H34960  -2.140   3.786   0.518  2.1883  1.7536 -2.8149
  265MOL0     H34961  -2.129   3.946   0.580 -0.7006  0.8270  2.1538
  265MOL0     H34962  -1.091   4.040   0.568  0.1429 -0.0026  0.5072
  265MOL0     H34963  -0.873   4.106   0.462  1.6711 -1.0980  1.8979
  265MOL0     H34964  -0.527   4.376   0.469 -0.2655  0.1072 -0.0658
  265MOL0     H34965  -0.293   4.492   0.425  1.0946  0.6913  1.1424
  265MOL0     H34966   1.417   4.127   0.852 -0.9069  3.9163  0.5631
  265MOL0     H34967   1.588   3.957   0.957 -0.7360 -0.3678 -0.4524
  265MOL0     H34968   2.159   4.103   1.142  0.5206  0.0585  0.5957
  265MOL0     H34969   2.314   3.981   1.260  0.1828 -0.6315  0.3528
  265MOL0     H34970   2.151   3.644   1.512 -0.9208  0.6716 -1.6160
  265MOL0     H34971   2.314   3.580   1.496  1.8971 -1.3822 -3.5721
  265MOL0     H34972   2.144   3.449   1.375 -2.9611  2.0808  0.3625
  265MOL0     H34973   2.108   3.574   1.265 -1.8742 -0.8971  1.0446
  265MOL0     H34974   2.342   3.589   1.181 -1.6606 -0.7931 -2.2721
  265MOL0     H34975   2.273   3.441   1.144  0.3246  0.2745 -0.4427
  265MOL0     H34976   2.470   3.494   1.374  0.3785  1.6869 -1.6346
  265MOL0     H34977   2.383   3.330   1.327 -1.4575 -0.1029 -2.1382
  265MOL0     H34978   2.684   3.338   1.041 -2.1009 -0.2024 -1.8566
  265MOL0     H34979   2.002   3.742   1.424  2.5458  0.6264  2.9730
  265MOL0     H34980   1.847   3.858   1.295 -0.6149  2.9943  1.3838
  266MOL0     O34981   9.486   0.983   6.502  0.1305  0.1421 -0.3790
  266MOL0     C34982   9.551   0.907   6.432 -1.2240 -0.2215  0.2598
  266MOL0     O34983   9.499   0.828   6.332  0.1813 -0.3077 -0.0688
  266MOL0     C34984   9.371   0.801   6.296  0.0850  0.7884  0.2961
  266MOL0     C34985   9.251   0.852   6.362  0.2045  0.1684 -0.2647
  266MOL0     C34986   9.125   0.825   6.310 -0.9931  0.5542 -0.3807
  266MOL0     C34987   9.114   0.726   6.200 -0.1895  0.0822  0.0384
  266MOL0     O34988   8.990   0.691   6.153  0.1484  0.1815  0.9218
  266MOL0     C34989   8.896   0.652   6.258  0.1115 -1.2083  0.3111
  266MOL0     C34990   8.789   0.763   6.264 -0.2172  0.5915 -0.2736
  266MOL0     C34991   8.662   0.727   6.346  0.8227 -0.1660  0.2071
  266MOL0     C34992   8.582   0.608   6.290 -0.1513  0.5642 -0.6046
  266MOL0     C34993   8.504   0.658   6.169 -0.2248  0.4035  0.4295
  266MOL0     C34994   8.372   0.585   6.150 -0.6547 -0.1817 -0.0533
  266MOL0     C34995   8.388   0.438   6.101 -0.2868 -0.0942 -0.3586
  266MOL0     C34996   8.255   0.372   6.104 -0.1145  0.2432  0.1501
  266MOL0     N34997   8.279   0.221   6.089 -0.2420  0.3249 -0.1711
  266MOL0     C34998   8.303   0.122   6.192  0.0480  0.5568  0.4273
  266MOL0     C34999   8.290   0.005   6.126 -0.2632 -0.5924 -0.1313
  266MOL0     C35000   8.303  -0.131   6.186 -0.0400 -0.8460  0.0929
  266MOL0     C35001   8.173  -0.181   6.247  0.7385  0.0066  0.1670
  266MOL0     C35002   8.053  -0.215   6.150  0.0492 -0.3408 -0.2081
  266MOL0     C35003   7.916  -0.144   6.187 -0.8460 -0.0849  0.4479
  266MOL0     O35004   7.934   0.000   6.186  0.4945  0.5939  0.5096
  266MOL0     C35005   7.829   0.071   6.215 -0.4250 -0.7609 -0.4003
  266MOL0     C35006   7.701   0.026   6.243  0.3885  0.1502 -0.0210
  266MOL0     C35007   7.596   0.118   6.243  0.1557  0.0798 -0.4000
  266MOL0     C35008   7.610   0.260   6.223 -0.0292  0.2139  0.0819
  266MOL0     C35009   7.488   0.349   6.221  0.9090  0.8103 -0.2665
  266MOL0     O35010   7.369   0.288   6.250  0.2416  0.5667  0.3399
  266MOL0     C35011   7.262   0.360   6.295  0.3038 -0.4005  0.1715
  266MOL0     C35012   7.265   0.447   6.398  0.6909  0.4232 -0.3795
  266MOL0     C35013   7.150   0.506   6.454 -0.0393  0.8670  0.5484
  266MOL0     C35014   7.027   0.482   6.386 -0.0955  0.1001 -0.3691
  266MOL0     O35015   6.912   0.527   6.446  0.5942 -0.0692 -1.0159
  266MOL0     C35016   6.786   0.480   6.407 -0.0816 -0.9598 -0.0597
  266MOL0     C35017   6.733   0.568   6.298 -0.1458  0.8655  0.3442
  266MOL0     C35018   6.601   0.634   6.323  0.0087 -0.4171  0.4054
  266MOL0     C35019   6.557   0.707   6.194  0.0938  0.4454  0.0338
  266MOL0     C35020   6.412   0.748   6.201  0.4043  0.6021  0.9262
  266MOL0     C35021   6.364   0.808   6.068  0.7539  0.0803 -0.7984
  266MOL0     C35022   6.209   0.800   6.045 -0.4429 -0.3113 -1.1529
  266MOL0     C35023   6.134   0.858   6.162 -0.1261 -0.6300  0.9743
  266MOL0    Cl35024   5.971   0.860   6.105  0.0724  0.1050  0.2734
  266MOL0     C35025   7.023   0.389   6.271 -0.5997 -0.1419 -0.3184
  266MOL0     C35026   7.146   0.340   6.226 -0.2691 -0.7596 -0.7044
  266MOL0     O35027   7.506   0.465   6.206 -0.5979 -0.4672 -0.4626
  266MOL0     C35028   7.739   0.303   6.198  1.1459  0.5945  0.3681
  266MOL0     C35029   7.838   0.208   6.193 -0.0569  0.2749  0.5875
  266MOL0     N35030   8.278   0.030   5.990  0.4641  0.4996 -0.3560
  266MOL0     N35031   8.263   0.156   5.974 -0.6434 -0.1149  0.6049
  266MOL0     C35032   9.228   0.672   6.148 -0.4174  0.0883 -0.8686
  266MOL0     C35033   9.353   0.703   6.197 -0.0726  0.4408  0.3219
  266MOL0     C35034   9.700   0.925   6.467  0.1076  0.3830  0.2491
  266MOL0     C35035   9.744   1.016   6.569 -0.4943 -0.3297 -0.2052
  266MOL0     C35036   9.883   1.028   6.594  0.0112 -0.1545 -0.1974
  266MOL0     C35037   9.977   0.962   6.522  0.0548  0.7905 -0.0685
  266MOL0     O35038  10.105   0.978   6.558  0.2476  0.0315  0.1616
  266MOL0     C35039  10.197   0.870   6.525 -1.5909  0.2805 -0.2937
  266MOL0     C35040  10.335   0.902   6.572 -0.5852 -1.0613 -0.1398
  266MOL0     C35041  10.424   0.982   6.471  0.2184  0.5830  0.0360
  266MOL0     C35042  10.467   0.890   6.358 -0.4608  0.3203  0.3642
  266MOL0     C35043  10.563   0.960   6.282 -0.2134 -0.1978  0.5548
  266MOL0     C35044  10.640   1.032   6.225  0.3722 -0.1311 -0.7841
  266MOL0     C35045   9.937   0.883   6.414  0.2763  0.1305 -0.0135
  266MOL0     C35046   9.800   0.851   6.398  0.1667 -0.3098 -0.1410
  266MOL0     H35047   9.269   0.929   6.437 -0.3879 -1.3170  1.4793
  266MOL0     H35048   9.042   0.878   6.357 -0.9430  0.4702 -0.1979
  266MOL0     H35049   8.940   0.633   6.357  1.3492 -5.0763 -0.7974
  266MOL0     H35050   8.841   0.561   6.232  0.0038 -1.4417  1.2996
  266MOL0     H35051   8.772   0.788   6.159  0.7266 -3.3810 -1.5475
  266MOL0     H35052   8.842   0.842   6.318  1.8511 -1.0308  0.1934
  266MOL0     H35053   8.602   0.814   6.370 -0.2515 -0.9323  0.3481
  266MOL0     H35054   8.694   0.683   6.441 -3.2661  1.5550  2.6039
  266MOL0     H35055   8.647   0.523   6.267 -0.6333  0.5897 -2.1832
  266MOL0     H35056   8.516   0.571   6.368  4.1103 -0.7781  2.7463
  266MOL0     H35057   8.560   0.618   6.084 -1.2922 -2.3009  0.8736
  266MOL0     H35058   8.491   0.766   6.162  0.3676  0.4350 -0.2990
  266MOL0     H35059   8.316   0.632   6.069  1.1937  1.3955 -0.4871
  266MOL0     H35060   8.297   0.590   6.231 -2.0230  0.1522 -1.3017
  266MOL0     H35061   8.415   0.448   5.995  1.8110  1.1804  0.2431
  266MOL0     H35062   8.465   0.375   6.147 -1.9358  0.5834  3.7788
  266MOL0     H35063   8.191   0.408   6.022  0.0169 -0.1883 -0.1425
  266MOL0     H35064   8.207   0.383   6.202 -0.3327 -0.1447  0.0898
  266MOL0     H35065   8.332   0.144   6.294 -0.6026  4.8885 -0.1280
  266MOL0     H35066   8.389  -0.128   6.253 -1.3505  1.0845  1.8135
  266MOL0     H35067   8.330  -0.198   6.103  0.6826  1.0827 -1.3213
  266MOL0     H35068   8.131  -0.106   6.315  0.1476 -0.1088 -0.0593
  266MOL0     H35069   8.211  -0.273   6.290  3.1178 -2.4142 -5.9646
  266MOL0     H35070   8.078  -0.182   6.048  0.5569 -1.5626 -0.5030
  266MOL0     H35071   8.025  -0.320   6.144 -3.1438  0.3624  0.4025
  266MOL0     H35072   7.881  -0.181   6.284 -1.8523  0.4121  0.2904
  266MOL0     H35073   7.837  -0.175   6.118 -0.9659  1.1872 -0.0036
  266MOL0     H35074   7.670  -0.077   6.261  0.9305  0.3207  2.0417
  266MOL0     H35075   7.497   0.080   6.266  0.6963  0.0174  2.1242
  266MOL0     H35076   7.353   0.445   6.461 -0.6026 -1.8219  1.4744
  266MOL0     H35077   7.163   0.572   6.539  1.5169  2.1561 -0.6165
  266MOL0     H35078   6.719   0.491   6.493  1.5267  1.9898  0.9421
  266MOL0     H35079   6.781   0.377   6.371 -0.0241 -0.5280 -1.3285
  266MOL0     H35080   6.721   0.507   6.208  2.7779  0.2052  0.3025
  266MOL0     H35081   6.803   0.649   6.274  2.2003 -0.9212  0.8598
  266MOL0     H35082   6.604   0.710   6.402 -1.9881  2.0460 -1.6756
  266MOL0     H35083   6.524   0.565   6.357 -1.3443  1.7403  1.9530
  266MOL0     H35084   6.622   0.793   6.177  1.5476 -0.4313  0.9300
  266MOL0     H35085   6.555   0.634   6.113 -0.8227  1.8016 -1.2244
  266MOL0     H35086   6.388   0.823   6.278 -1.4979  3.6848 -2.3339
  266MOL0     H35087   6.348   0.661   6.217  0.3917  0.2935 -0.6687
  266MOL0     H35088   6.414   0.759   5.984  1.7270  0.1693 -0.2816
  266MOL0     H35089   6.397   0.912   6.057  0.2108  0.1278 -2.1784
  266MOL0     H35090   6.184   0.858   5.956  2.1427  2.0374 -0.5032
  266MOL0     H35091   6.184   0.695   6.030 -2.8465 -0.0028  0.2302
  266MOL0     H35092   6.162   0.963   6.175 -0.7912 -0.6106  2.4508
  266MOL0     H35093   6.156   0.808   6.257 -3.0543  0.9991  2.6703
  266MOL0     H35094   6.938   0.357   6.212 -1.2590  1.3616 -0.2433
  266MOL0     H35095   7.148   0.281   6.135 -1.5947 -0.9087 -0.6576
  266MOL0     H35096   7.743   0.410   6.178  2.4458  0.6187  0.6722
  266MOL0     H35097   7.939   0.233   6.161 -1.4331  1.5130 -3.4230
  266MOL0     H35098   9.209   0.605   6.064 -0.9909 -0.6125 -0.1941
  266MOL0     H35099   9.443   0.667   6.147 -2.1241 -0.2559 -3.2149
  266MOL0     H35100   9.678   1.077   6.630 -1.0331 -0.9932 -0.1102
  266MOL0     H35101   9.922   1.092   6.673  3.7055  1.3318 -2.9673
  266MOL0     H35102  10.202   0.853   6.417 -0.5849 -1.5249  0.0040
  266MOL0     H35103  10.181   0.776   6.579  2.9748 -0.2167  0.6141
  266MOL0     H35104  10.332   0.957   6.666 -3.1960 -2.6963  0.8345
  266MOL0     H35105  10.397   0.815   6.598  0.8328 -0.6306 -1.8524
  266MOL0     H35106  10.511   1.031   6.515 -0.5626  1.2274  0.8893
  266MOL0     H35107  10.373   1.062   6.417  1.6842 -0.7604 -3.7268
  266MOL0     H35108  10.519   0.809   6.408  1.6270  2.6085  2.1769
  266MOL0     H35109  10.382   0.856   6.298 -1.5009  1.6063  1.0507
  266MOL0     H35110  10.709   1.092   6.168  2.3554  0.1101  1.7108
  266MOL0     H35111   9.998   0.826   6.344  0.8482 -0.2637  0.7854
  266MOL0     H35112   9.761   0.797   6.313  2.8517 -1.6716 -0.6163
  267MOL0     O35113   1.344   5.011   8.113  0.5589  0.5774 -0.1144
  267MOL0     C35114   1.328   4.918   8.199 -0.5478 -0.3494  0.0646
  267MOL0     O35115   1.212   4.849   8.222 -0.5194 -0.5736  0.0055
  267MOL0     C35116   1.100   4.882   8.151 -0.3633  0.1461  0.2034
  267MOL0     C35117   1.050   5.009   8.132  0.1302  0.1629  0.8787
  267MOL0     C35118   0.918   5.022   8.089  0.6033 -0.7775 -0.0338
  267MOL0     C35119   0.825   4.926   8.078 -0.3181 -0.4635 -0.8910
  267MOL0     O35120   0.695   4.959   8.054  0.9332  0.3310 -0.0412
  267MOL0     C35121   0.589   4.860   8.099 -0.6819 -0.4693  0.2924
  267MOL0     C35122   0.444   4.912   8.075 -0.2239  0.3021  0.3692
  267MOL0     C35123   0.416   5.054   8.122  0.3892 -1.0455 -0.5097
  267MOL0     C35124   0.286   5.112   8.066  0.6650 -0.1373 -0.3218
  267MOL0     C35125   0.282   5.130   7.915  0.8545 -0.2103  0.5042
  267MOL0     C35126   0.154   5.200   7.884 -0.2385  0.5839 -0.1971
  267MOL0     C35127   0.131   5.341   7.946 -0.1912  0.1801 -0.5402
  267MOL0     C35128   0.200   5.451   7.872 -0.0801 -0.5859 -0.5697
  267MOL0     N35129   0.098   5.557   7.855 -0.6823  0.3485  0.7374
  267MOL0     C35130  -0.004   5.552   7.764  0.0321  0.2071  0.3955
  267MOL0     C35131  -0.059   5.675   7.779  0.1650  0.2208  0.1966
  267MOL0     C35132  -0.173   5.748   7.699 -0.0676  0.0072  0.4256
  267MOL0     C35133  -0.109   5.787   7.561  0.3927 -0.3315 -0.3908
  267MOL0     C35134  -0.209   5.853   7.459  0.1875 -0.5033 -0.0436
  267MOL0     C35135  -0.310   5.743   7.413 -0.1005 -0.5719 -0.0705
  267MOL0     O35136  -0.391   5.787   7.311 -0.0709  0.0695  0.4403
  267MOL0     C35137  -0.498   5.873   7.333  0.3116  0.6519  0.5920
  267MOL0     C35138  -0.557   5.924   7.222  0.9102  0.7003 -0.4728
  267MOL0     C35139  -0.665   6.007   7.229  0.2519  0.2204  0.5086
  267MOL0     C35140  -0.725   6.040   7.354 -0.1601 -0.2538 -0.6269
  267MOL0     C35141  -0.842   6.138   7.357  0.2840  0.4428 -0.7749
  267MOL0     O35142  -0.881   6.184   7.242  0.7332 -0.2433 -0.3229
  267MOL0     C35143  -0.995   6.256   7.229  0.6172  0.3164 -0.3844
  267MOL0     C35144  -0.977   6.394   7.192 -0.4004 -0.7564 -0.3049
  267MOL0     C35145  -1.090   6.478   7.196  0.2533 -0.3926  0.1436
  267MOL0     C35146  -1.213   6.435   7.229  1.1493  0.4674  0.4325
  267MOL0     O35147  -1.325   6.515   7.229  0.7432 -0.7970 -0.3560
  267MOL0     C35148  -1.324   6.617   7.129  0.2472 -0.0747  0.0042
  267MOL0     C35149  -1.431   6.721   7.138  0.4367  0.1361 -0.9013
  267MOL0     C35150  -1.405   6.815   7.261  0.0828  0.3810 -0.2072
  267MOL0     C35151  -1.494   6.934   7.270 -0.8725 -0.8582  0.5911
  267MOL0     C35152  -1.646   6.901   7.286 -0.1872 -0.5756 -0.7836
  267MOL0     C35153  -1.722   7.031   7.295  0.5531 -0.3233  0.5607
  267MOL0     C35154  -1.870   6.990   7.299  0.5519  0.2000  0.3051
  267MOL0     C35155  -1.971   7.094   7.357 -0.2770  0.7284  0.0815
  267MOL0    Cl35156  -1.966   7.257   7.276 -0.0931 -0.0915  0.5842
  267MOL0     C35157  -1.230   6.306   7.271  0.5335 -0.2549 -0.5344
  267MOL0     C35158  -1.119   6.215   7.274 -0.2455 -1.1652  0.8722
  267MOL0     O35159  -0.891   6.166   7.465 -0.1095 -0.5847 -0.1746
  267MOL0     C35160  -0.655   5.998   7.471  0.8576 -0.5592 -0.6452
  267MOL0     C35161  -0.552   5.911   7.461 -0.2178 -0.1213 -1.0065
  267MOL0     N35162   0.011   5.742   7.883 -0.9208 -0.2463  0.1343
  267MOL0     N35163   0.100   5.661   7.932 -0.1972 -0.5292  0.5174
  267MOL0     C35164   0.880   4.795   8.091 -0.8206 -0.0996  0.0035
  267MOL0     C35165   1.011   4.774   8.129 -1.3533 -0.0862 -0.4925
  267MOL0     C35166   1.449   4.899   8.289  0.1757 -0.4111  0.4219
  267MOL0     C35167   1.532   5.006   8.320 -1.3744  0.9830  0.8369
  267MOL0     C35168   1.641   4.983   8.414  0.4562 -0.5196 -0.4646
  267MOL0     C35169   1.679   4.856   8.454 -0.0413  0.0907 -0.3000
  267MOL0     O35170   1.786   4.818   8.533 -0.5666  0.1231  0.4100
  267MOL0     C35171   1.882   4.914   8.557 -0.5759 -0.0916  0.7006
  267MOL0     C35172   1.993   4.847   8.641 -0.1041 -0.4974  0.6039
  267MOL0     C35173   2.124   4.925   8.642 -0.7344  0.1662 -0.5801
  267MOL0     C35174   2.233   4.864   8.737  0.8604 -0.2989  0.2050
  267MOL0     C35175   2.356   4.939   8.752  0.1149  0.1437 -0.7175
  267MOL0     C35176   2.453   5.012   8.773 -0.4870 -0.6961 -0.4689
  267MOL0     C35177   1.589   4.755   8.420 -0.0402 -0.8908 -0.1679
  267MOL0     C35178   1.481   4.776   8.337  0.2309 -0.2389 -0.7742
  267MOL0     H35179   1.105   5.097   8.165 -1.7919  1.4284  0.9394
  267MOL0     H35180   0.889   5.125   8.077  0.0888 -0.5742  2.5011
  267MOL0     H35181   0.601   4.850   8.207  0.1925 -1.5455  0.1091
  267MOL0     H35182   0.600   4.763   8.050 -3.9831 -0.5051 -0.6260
  267MOL0     H35183   0.375   4.845   8.128  0.1204 -0.9310 -0.6887
  267MOL0     H35184   0.424   4.904   7.968 -0.7410  0.7074  0.4319
  267MOL0     H35185   0.502   5.115   8.091 -0.7257  0.5519 -0.5486
  267MOL0     H35186   0.415   5.053   8.231 -2.0148 -1.9786 -0.4836
  267MOL0     H35187   0.209   5.041   8.100 -0.2286  0.5398 -0.9181
  267MOL0     H35188   0.266   5.201   8.126 -0.4067  0.9344 -2.1916
  267MOL0     H35189   0.293   5.040   7.854  2.9011 -0.0287  0.5383
  267MOL0     H35190   0.372   5.178   7.875  0.4778  0.4602  0.4520
  267MOL0     H35191   0.071   5.135   7.914 -0.8306  0.6575 -1.5941
  267MOL0     H35192   0.135   5.213   7.777 -2.3672  3.6026  0.4243
  267MOL0     H35193   0.025   5.363   7.965  0.3232  1.1022  1.6335
  267MOL0     H35194   0.170   5.349   8.048 -1.1807  1.7511 -0.2505
  267MOL0     H35195   0.241   5.401   7.784 -0.3759 -1.9310  0.0343
  267MOL0     H35196   0.278   5.497   7.935  0.0269  0.8197 -1.6809
  267MOL0     H35197  -0.033   5.469   7.699 -0.0491  2.2359 -2.3103
  267MOL0     H35198  -0.211   5.828   7.763  1.0940 -0.4985  1.8194
  267MOL0     H35199  -0.248   5.673   7.672  1.6220 -0.8194 -2.4300
  267MOL0     H35200  -0.066   5.701   7.509 -0.9742 -0.5217 -1.2592
  267MOL0     H35201  -0.030   5.861   7.577 -2.2588  3.2177 -2.1250
  267MOL0     H35202  -0.257   5.946   7.488  1.4258  0.2081 -0.2112
  267MOL0     H35203  -0.144   5.896   7.382 -0.6189  1.2699  0.2191
  267MOL0     H35204  -0.360   5.699   7.499  3.3058 -1.6646  1.5424
  267MOL0     H35205  -0.247   5.660   7.379  2.4291  0.2806  2.1398
  267MOL0     H35206  -0.511   5.895   7.128 -0.2150 -1.5355 -0.4064
  267MOL0     H35207  -0.701   6.037   7.130  0.5204 -0.4724  0.1938
  267MOL0     H35208  -0.882   6.438   7.164  0.2593 -2.2884 -0.5497
  267MOL0     H35209  -1.063   6.581   7.173 -0.2354 -0.1578  0.5885
  267MOL0     H35210  -1.334   6.558   7.037 -1.3483 -3.4867  2.1986
  267MOL0     H35211  -1.232   6.678   7.125  0.4875 -0.5050 -1.9910
  267MOL0     H35212  -1.532   6.680   7.145  0.3832  0.3252 -0.5001
  267MOL0     H35213  -1.426   6.784   7.048  2.3978  1.9880  0.3818
  267MOL0     H35214  -1.301   6.848   7.276  0.6823 -2.0760  1.6843
  267MOL0     H35215  -1.414   6.763   7.357  0.5885 -1.8133 -1.2796
  267MOL0     H35216  -1.462   6.990   7.358  2.2257  0.4262 -1.1836
  267MOL0     H35217  -1.458   6.987   7.181  2.5558 -1.3726  1.5117
  267MOL0     H35218  -1.659   6.841   7.377  1.9883 -0.7961 -0.5559
  267MOL0     H35219  -1.677   6.843   7.198 -0.8217  2.3859 -2.6699
  267MOL0     H35220  -1.691   7.094   7.211  1.1503 -1.4283 -0.0699
  267MOL0     H35221  -1.684   7.085   7.382  1.8645 -0.5782  0.1568
  267MOL0     H35222  -1.901   6.974   7.195 -0.7396  2.3391  0.3050
  267MOL0     H35223  -1.871   6.900   7.361  2.4940  0.4002  0.7068
  267MOL0     H35224  -1.937   7.111   7.460  0.0469 -0.7144  0.2285
  267MOL0     H35225  -2.071   7.055   7.336  1.2561 -2.1594 -2.8271
  267MOL0     H35226  -1.323   6.259   7.302  0.0309  1.0333 -0.0033
  267MOL0     H35227  -1.133   6.115   7.313  0.3243 -1.0702  1.3282
  267MOL0     H35228  -0.689   6.019   7.572 -0.6899  1.2953 -1.4865
  267MOL0     H35229  -0.513   5.888   7.560 -0.6968  1.7222 -0.3510
  267MOL0     H35230   0.807   4.715   8.089 -1.2640  0.2861  0.4160
  267MOL0     H35231   1.029   4.669   8.149 -2.6155 -0.7399 -2.4350
  267MOL0     H35232   1.512   5.101   8.271 -0.4471  1.2862  1.0374
  267MOL0     H35233   1.689   5.074   8.449 -0.3938 -0.2721  0.0856
  267MOL0     H35234   1.850   5.001   8.615  1.2568 -0.7532  2.8731
  267MOL0     H35235   1.937   4.942   8.466 -1.0417 -3.4893 -0.7688
  267MOL0     H35236   1.961   4.818   8.741  1.4094 -1.8412  0.7553
  267MOL0     H35237   2.018   4.745   8.607 -1.0311 -1.2281  2.0157
  267MOL0     H35238   2.104   5.026   8.676 -0.7377 -0.6687  2.1266
  267MOL0     H35239   2.157   4.926   8.537  0.1230  2.0011 -0.3220
  267MOL0     H35240   2.189   4.846   8.836 -0.8224 -2.3231 -0.8192
  267MOL0     H35241   2.260   4.764   8.699 -0.5351 -0.7262  0.2829
  267MOL0     H35242   2.543   5.064   8.796 -1.6277  0.8967  0.6243
  267MOL0     H35243   1.590   4.656   8.465  2.5449  0.0087  2.0575
  267MOL0     H35244   1.414   4.693   8.317 -2.6035  1.4199  1.0558
  268MOL0     O35245   4.981  10.854  10.884  0.4238  0.0871 -0.8056
  268MOL0     C35246   5.020  10.970  10.882  0.5540  0.5012 -0.2157
  268MOL0     O35247   4.933  11.075  10.890 -0.0308  0.7091  0.4534
  268MOL0     C35248   4.806  11.037  10.925 -0.0804  0.2324  0.8946
  268MOL0     C35249   4.762  10.962  11.032 -0.7261 -0.5780 -0.3171
  268MOL0     C35250   4.627  10.934  11.042  0.4104  0.1305  0.9162
  268MOL0     C35251   4.529  10.984  10.955 -0.5645  0.1211  0.0867
  268MOL0     O35252   4.405  10.935  10.966 -0.3723 -0.1939 -0.5552
  268MOL0     C35253   4.339  10.918  11.090  0.1372 -0.3810  0.2024
  268MOL0     C35254   4.218  10.828  11.060 -0.5296  0.1236 -0.5478
  268MOL0     C35255   4.172  10.776  11.194  0.5509  0.1093  0.3736
  268MOL0     C35256   4.042  10.709  11.169  0.0182  0.9080  0.4777
  268MOL0     C35257   3.993  10.623  11.280 -1.1927  0.3212 -0.2765
  268MOL0     C35258   3.852  10.565  11.268 -0.6771  0.8789  0.5611
  268MOL0     C35259   3.750  10.654  11.331  0.1468 -0.0682 -0.2110
  268MOL0     C35260   3.607  10.624  11.300 -0.0049  0.6700 -0.0574
  268MOL0     N35261   3.571  10.646  11.163 -0.7087 -0.0146 -0.3340
  268MOL0     C35262   3.576  10.544  11.064 -0.3774 -0.1371 -1.0793
  268MOL0     C35263   3.543  10.610  10.951 -0.6423 -0.5064 -0.1364
  268MOL0     C35264   3.532  10.559  10.812 -0.2306  0.4908  0.2984
  268MOL0     C35265   3.671  10.525  10.764  0.4310  0.8288 -0.4488
  268MOL0     C35266   3.676  10.483  10.622  0.3553 -0.0143  0.0279
  268MOL0     C35267   3.826  10.453  10.581  0.9023  0.3446  0.0969
  268MOL0     O35268   3.825  10.384  10.454 -0.1508  0.0526 -0.1196
  268MOL0     C35269   3.779  10.248  10.450 -0.8078 -0.0904 -0.8027
  268MOL0     C35270   3.776  10.169  10.575  0.2772  0.0212 -0.2194
  268MOL0     C35271   3.739  10.038  10.571 -0.0506 -0.0786  0.2448
  268MOL0     C35272   3.669   9.983  10.460 -0.0352  0.2865 -0.3247
  268MOL0     C35273   3.618   9.850  10.469 -0.1085  0.7095 -0.7072
  268MOL0     O35274   3.548   9.797  10.358 -0.0056 -0.2972 -0.1166
  268MOL0     C35275   3.471   9.685  10.362  0.4207 -0.5965  0.1516
  268MOL0     C35276   3.386   9.661  10.475  0.1271 -0.4207  0.0305
  268MOL0     C35277   3.287   9.569  10.470 -0.6838 -0.6940 -0.3232
  268MOL0     C35278   3.268   9.485  10.353 -0.3435  0.0538  0.3262
  268MOL0     O35279   3.167   9.388  10.334 -0.7657  0.2144  0.5383
  268MOL0     C35280   3.049   9.394  10.397  0.2640  0.4813  0.6298
  268MOL0     C35281   2.971   9.516  10.344 -0.4073 -0.2869  0.3181
  268MOL0     C35282   2.823   9.516  10.386  0.1296  0.2505  0.0182
  268MOL0     C35283   2.733   9.603  10.297  0.4734  0.6289 -0.0885
  268MOL0     C35284   2.583   9.599  10.341  0.6876 -0.1773  0.1934
  268MOL0     C35285   2.514   9.701  10.252  0.4603 -0.2865 -0.6704
  268MOL0     C35286   2.362   9.690  10.265  0.1149  0.4473 -0.4050
  268MOL0     C35287   2.288   9.761  10.148 -0.1488 -0.2633  1.0888
  268MOL0    Cl35288   2.118   9.744  10.198 -0.2572 -0.4680 -0.3028
  268MOL0     C35289   3.358   9.497  10.249  0.5298 -0.1046 -0.3815
  268MOL0     C35290   3.442   9.606  10.245 -0.3725  0.0290  0.3060
  268MOL0     O35291   3.627   9.793  10.581 -1.4075  0.1402  0.2203
  268MOL0     C35292   3.659  10.062  10.342  0.2188 -0.2952 -0.4951
  268MOL0     C35293   3.728  10.186  10.335 -0.4285 -0.0689 -0.1898
  268MOL0     N35294   3.527  10.746  10.983 -0.0198  1.0628 -0.0575
  268MOL0     N35295   3.551  10.760  11.105  0.2490  0.4813  0.1727
  268MOL0     C35296   4.573  11.076  10.856  0.7795  0.2539 -0.8965
  268MOL0     C35297   4.709  11.101  10.844  0.2719  0.0277 -0.7346
  268MOL0     C35298   5.160  11.003  10.845 -0.1639 -0.0841 -0.2163
  268MOL0     C35299   5.259  10.901  10.859 -0.1202  0.4360  0.5968
  268MOL0     C35300   5.393  10.920  10.841 -0.1868  0.4191  0.2689
  268MOL0     C35301   5.439  11.050  10.812 -0.0039 -0.5696  0.9533
  268MOL0     O35302   5.572  11.062  10.789  0.7100  0.1895 -0.1788
  268MOL0     C35303   5.627  11.176  10.711 -0.1372 -0.6350  0.3077
  268MOL0     C35304   5.607  11.144  10.559  0.0706  1.2729  0.3843
  268MOL0     C35305   5.599  10.987  10.521  0.2689 -0.7636 -0.1239
  268MOL0     C35306   5.730  10.893  10.544 -0.5099 -1.1399  0.5156
  268MOL0     C35307   5.853  10.951  10.479  0.0182 -0.2147 -0.3504
  268MOL0     C35308   5.951  10.996  10.424 -0.0206  0.7093  1.0317
  268MOL0     C35309   5.339  11.154  10.801 -0.8244 -0.1577  0.0097
  268MOL0     C35310   5.204  11.136  10.829  0.7439 -0.0584  0.3520
  268MOL0     H35311   4.840  10.931  11.100  1.0615  0.7424 -1.6404
  268MOL0     H35312   4.606  10.868  11.126  2.0528 -0.7486  0.6727
  268MOL0     H35313   4.300  11.011  11.131  0.8148 -0.4281  0.9790
  268MOL0     H35314   4.400  10.865  11.164  1.9948  0.5995 -0.5565
  268MOL0     H35315   4.241  10.752  10.985 -0.9249  1.8686 -2.5348
  268MOL0     H35316   4.142  10.897  11.021 -1.2635 -1.6102 -2.3173
  268MOL0     H35317   4.155  10.864  11.256 -2.4441  0.4858 -0.8227
  268MOL0     H35318   4.243  10.709  11.245 -0.6393 -0.6799  1.0466
  268MOL0     H35319   3.969  10.781  11.128  0.8635  2.7335  1.9954
  268MOL0     H35320   4.063  10.632  11.094 -1.8953 -2.5827  3.2228
  268MOL0     H35321   4.012  10.674  11.375  1.6856 -0.5303 -0.3070
  268MOL0     H35322   4.062  10.538  11.282  0.6010  1.4412 -4.1527
  268MOL0     H35323   3.847  10.475  11.330  2.1307  0.9530  1.0273
  268MOL0     H35324   3.827  10.537  11.165 -0.1424 -2.1884  1.1763
  268MOL0     H35325   3.752  10.644  11.440 -3.4426 -0.1372 -0.0111
  268MOL0     H35326   3.767  10.758  11.299  0.4634 -0.8892 -2.9817
  268MOL0     H35327   3.539  10.677  11.367  3.4288  2.9961  1.9230
  268MOL0     H35328   3.604  10.517  11.322  2.6613  0.5289 -0.0275
  268MOL0     H35329   3.595  10.438  11.080 -1.0749 -0.3203 -1.4612
  268MOL0     H35330   3.484  10.633  10.747 -3.6177 -1.4737  0.3061
  268MOL0     H35331   3.465  10.474  10.799  0.8932 -0.0979 -2.3212
  268MOL0     H35332   3.713  10.451  10.833  0.2874  1.7086  0.6067
  268MOL0     H35333   3.735  10.614  10.765  1.7193 -0.0549 -0.5506
  268MOL0     H35334   3.619  10.391  10.602  0.1220  0.0065  0.5734
  268MOL0     H35335   3.639  10.561  10.555  0.0664 -0.4210 -0.2971
  268MOL0     H35336   3.870  10.398  10.664  1.6825  2.1861  0.9570
  268MOL0     H35337   3.877  10.549  10.564  0.5837  0.4763 -0.1175
  268MOL0     H35338   3.812  10.210  10.669  1.9113 -1.5791 -0.0880
  268MOL0     H35339   3.745   9.991  10.669  1.1130 -2.3446 -0.8575
  268MOL0     H35340   3.390   9.724  10.564 -1.5885  1.3111 -1.0355
  268MOL0     H35341   3.218   9.567  10.554 -0.5727  2.3829 -0.0370
  268MOL0     H35342   3.056   9.396  10.506 -3.1361  1.4384  0.9448
  268MOL0     H35343   2.989   9.304  10.378 -0.4907  1.1966 -0.5087
  268MOL0     H35344   2.966   9.518  10.235 -1.8018 -0.8646  0.3387
  268MOL0     H35345   3.027   9.603  10.379  1.3127  0.0412 -2.9386
  268MOL0     H35346   2.817   9.547  10.490  1.3529 -0.3888  0.2982
  268MOL0     H35347   2.786   9.413  10.391  1.7370 -0.4694 -1.6546
  268MOL0     H35348   2.773   9.704  10.295  0.1117  0.8330  1.8352
  268MOL0     H35349   2.739   9.572  10.192 -0.6665  0.3761 -0.0873
  268MOL0     H35350   2.569   9.630  10.445  0.6131  2.1740 -0.4505
  268MOL0     H35351   2.537   9.501  10.329  0.6241 -0.3408  1.5810
  268MOL0     H35352   2.546   9.709  10.148 -2.9651  1.9633 -1.7031
  268MOL0     H35353   2.542   9.795  10.299 -1.0033  0.2696 -0.8518
  268MOL0     H35354   2.340   9.583  10.267  0.8606  0.2695 -1.1458
  268MOL0     H35355   2.331   9.735  10.360  0.3385  1.8860 -0.9817
  268MOL0     H35356   2.315   9.715  10.053  3.7361  3.2164  0.2168
  268MOL0     H35357   2.330   9.861  10.139  0.9574 -0.7896  0.1893
  268MOL0     H35358   3.335   9.443  10.158 -2.9961  0.5218  0.0061
  268MOL0     H35359   3.497   9.625  10.154  1.9413 -0.8858  1.4507
  268MOL0     H35360   3.622  10.034  10.244  2.9424 -1.8543 -1.1591
  268MOL0     H35361   3.715  10.246  10.245  0.9797  1.2093  0.3996
  268MOL0     H35362   4.501  11.110  10.783 -1.1699 -0.3200  0.6735
  268MOL0     H35363   4.732  11.160  10.756 -2.6139 -2.6633 -3.5898
  268MOL0     H35364   5.232  10.800  10.888 -2.5622  1.1290  0.9616
  268MOL0     H35365   5.463  10.839  10.826 -0.7918  0.0271 -0.5310
  268MOL0     H35366   5.733  11.184  10.734 -0.2157  0.4044  0.3266
  268MOL0     H35367   5.584  11.276  10.721  3.3165  1.2073 -1.4722
  268MOL0     H35368   5.511  11.191  10.534 -0.5051 -0.1501 -0.1897
  268MOL0     H35369   5.688  11.199  10.508 -1.2221 -0.8160 -4.4998
  268MOL0     H35370   5.589  10.993  10.412  0.8297 -0.5701 -0.1671
  268MOL0     H35371   5.509  10.952  10.572 -2.2448  3.4618 -1.1390
  268MOL0     H35372   5.730  10.865  10.650 -0.6445  0.9324  1.0965
  268MOL0     H35373   5.715  10.796  10.496  1.3008 -1.0122 -0.3839
  268MOL0     H35374   6.024  11.019  10.349  0.5621 -3.0826  0.2451
  268MOL0     H35375   5.366  11.257  10.782 -1.3045 -0.0717 -0.2154
  268MOL0     H35376   5.134  11.218  10.823 -1.9987 -1.9028  3.5993
  269MOL0     O35377   3.254   4.593  11.213  0.0879 -0.2368 -0.5849
  269MOL0     C35378   3.237   4.474  11.239  0.6368 -0.1056  0.2444
  269MOL0     O35379   3.123   4.415  11.276 -0.4359  0.1398  0.3584
  269MOL0     C35380   3.015   4.491  11.315 -0.0548  0.2554 -0.0180
  269MOL0     C35381   3.027   4.583  11.421  0.7630  0.5879  0.4811
  269MOL0     C35382   2.923   4.656  11.469 -0.5199 -0.1542  0.1644
  269MOL0     C35383   2.799   4.645  11.411  0.0989  0.1978  0.1510
  269MOL0     O35384   2.699   4.727  11.462  0.6220  0.2746  0.1839
  269MOL0     C35385   2.558   4.707  11.431 -0.3571  1.0544  0.0875
  269MOL0     C35386   2.470   4.797  11.511 -0.3957 -0.7585  0.1598
  269MOL0     C35387   2.314   4.801  11.487 -0.1857 -0.5962  0.4084
  269MOL0     C35388   2.225   4.853  11.602  0.8556  0.8216  0.4057
  269MOL0     C35389   2.078   4.819  11.585  0.0881  0.3133 -0.2439
  269MOL0     C35390   1.986   4.892  11.668 -0.9804 -0.7793 -0.9083
  269MOL0     C35391   1.842   4.849  11.643 -0.0130 -0.3921 -0.0332
  269MOL0     C35392   1.745   4.945  11.705 -0.2478 -0.2897  0.1259
  269MOL0     N35393   1.601   4.913  11.673  0.3075  0.2089 -0.0876
  269MOL0     C35394   1.528   4.924  11.553  0.6430  0.0382 -0.6842
  269MOL0     C35395   1.404   4.876  11.586 -0.4556  1.1153  0.3104
  269MOL0     C35396   1.297   4.843  11.492 -0.9094  0.0121  0.8399
  269MOL0     C35397   1.167   4.781  11.541 -0.4534 -0.2112  0.5529
  269MOL0     C35398   1.062   4.767  11.424  0.8949 -0.7439  0.1371
  269MOL0     C35399   0.909   4.749  11.470 -0.2918 -0.2773 -0.2489
  269MOL0     O35400   0.827   4.695  11.372 -0.8777  0.1021 -0.3230
  269MOL0     C35401   0.695   4.705  11.413 -0.4300 -0.0231 -0.6352
  269MOL0     C35402   0.649   4.611  11.501  0.4254  0.1232 -0.4238
  269MOL0     C35403   0.513   4.603  11.528  0.3337 -1.1499 -0.3188
  269MOL0     C35404   0.413   4.689  11.465  0.5968  0.7459 -0.6137
  269MOL0     C35405   0.272   4.665  11.493 -0.2530  0.1792 -0.9813
  269MOL0     O35406   0.191   4.745  11.424 -0.1126 -0.3767 -0.3433
  269MOL0     C35407   0.060   4.737  11.457  0.3738 -0.4271  0.4318
  269MOL0     C35408  -0.031   4.721  11.356  0.2128 -0.3917 -0.4104
  269MOL0     C35409  -0.167   4.727  11.382  0.3782 -0.7809  0.6167
  269MOL0     C35410  -0.210   4.736  11.513  1.0677 -0.5867  0.0459
  269MOL0     O35411  -0.340   4.728  11.566  0.0890 -0.2416  0.3505
  269MOL0     C35412  -0.452   4.735  11.481  0.3269  0.0101 -0.0693
  269MOL0     C35413  -0.582   4.698  11.567  0.2074 -1.0604  0.1482
  269MOL0     C35414  -0.609   4.818  11.662  0.0380  0.6405 -0.2653
  269MOL0     C35415  -0.699   4.789  11.785  0.2895  0.2896 -0.7712
  269MOL0     C35416  -0.678   4.673  11.879 -0.6876  0.4923  0.2213
  269MOL0     C35417  -0.535   4.663  11.917  1.0090  0.2908  0.3393
  269MOL0     C35418  -0.517   4.550  12.027  0.3742  0.1663 -0.7736
  269MOL0     C35419  -0.370   4.526  12.061 -0.1057 -0.1520 -0.5310
  269MOL0    Cl35420  -0.289   4.683  12.113 -0.3424  0.1234  0.4207
  269MOL0     C35421  -0.124   4.775  11.616  0.1680  0.2053  0.2484
  269MOL0     C35422   0.013   4.766  11.590 -0.1720 -0.0429 -0.7819
  269MOL0     O35423   0.239   4.586  11.587  0.2585  0.4876 -0.1959
  269MOL0     C35424   0.465   4.783  11.370  0.4996  0.1037 -0.0710
  269MOL0     C35425   0.605   4.791  11.343 -0.0495  0.5466 -0.7285
  269MOL0     N35426   1.399   4.862  11.724 -0.4810  1.2491  0.2049
  269MOL0     N35427   1.514   4.887  11.775 -0.5904 -0.4398  0.5234
  269MOL0     C35428   2.787   4.557  11.302  0.4057 -0.5142 -0.3552
  269MOL0     C35429   2.893   4.475  11.255 -0.5106 -0.2674 -0.0714
  269MOL0     C35430   3.358   4.394  11.253 -0.3172  0.4069  0.5091
  269MOL0     C35431   3.364   4.263  11.305 -0.0280 -0.1240  0.0890
  269MOL0     C35432   3.479   4.187  11.314  0.1942 -0.0317 -0.6925
  269MOL0     C35433   3.600   4.243  11.273 -0.0413  0.6902 -1.2476
  269MOL0     O35434   3.717   4.166  11.290  0.1823 -1.3257  0.2795
  269MOL0     C35435   3.838   4.241  11.322  0.6582  0.0941  0.9043
  269MOL0     C35436   3.934   4.236  11.197  0.2655  0.5012  0.4920
  269MOL0     C35437   4.062   4.324  11.230  0.0356  0.8150 -0.3197
  269MOL0     C35438   4.144   4.356  11.111 -1.1853  0.2327  0.7123
  269MOL0     C35439   4.285   4.369  11.149  0.0593 -0.5605 -0.4514
  269MOL0     C35440   4.400   4.378  11.178  0.8700  0.5202 -0.1528
  269MOL0     C35441   3.600   4.379  11.224  0.2510  0.0812  1.3649
  269MOL0     C35442   3.478   4.446  11.217 -1.0419  0.0340  0.0956
  269MOL0     H35443   3.122   4.594  11.473  1.2102 -1.3955  0.1625
  269MOL0     H35444   2.932   4.736  11.542 -0.5689  2.0644 -2.1258
  269MOL0     H35445   2.523   4.607  11.459 -0.1649  0.2140 -2.4241
  269MOL0     H35446   2.546   4.723  11.323  1.1364 -0.4437 -0.3425
  269MOL0     H35447   2.502   4.901  11.494 -3.1399  0.0095 -0.8336
  269MOL0     H35448   2.481   4.778  11.618 -3.2593 -1.9780  0.3338
  269MOL0     H35449   2.276   4.705  11.451 -2.7476  1.4481 -2.9967
  269MOL0     H35450   2.288   4.859  11.398  2.3527 -0.8720 -0.5928
  269MOL0     H35451   2.257   4.803  11.694 -0.4678 -0.9178 -0.0449
  269MOL0     H35452   2.229   4.962  11.617 -1.7408  0.8670  1.3429
  269MOL0     H35453   2.064   4.715  11.617  0.0272  0.3761 -0.0611
  269MOL0     H35454   2.054   4.838  11.480 -1.6583  0.5977  0.1651
  269MOL0     H35455   2.000   4.998  11.646  0.7069 -0.5868  0.8464
  269MOL0     H35456   2.021   4.878  11.771  0.8956 -1.1547 -1.5627
  269MOL0     H35457   1.810   4.867  11.540 -5.2883 -0.9964  1.2131
  269MOL0     H35458   1.831   4.743  11.668  2.6455 -0.4085  1.4704
  269MOL0     H35459   1.768   5.046  11.671 -0.6282 -0.3381 -0.2922
  269MOL0     H35460   1.755   4.953  11.813  0.7734 -0.5329  0.0536
  269MOL0     H35461   1.560   4.942  11.451  1.1442  0.8126 -0.3957
  269MOL0     H35462   1.348   4.776  11.423 -3.0305 -3.3130  2.2261
  269MOL0     H35463   1.280   4.931  11.429  1.3857  0.0243  0.1818
  269MOL0     H35464   1.126   4.855  11.611 -2.1456 -1.3964  0.8797
  269MOL0     H35465   1.174   4.686  11.594 -1.4741 -0.2196  0.6965
  269MOL0     H35466   1.069   4.857  11.362  1.2853 -0.7244  0.2051
  269MOL0     H35467   1.087   4.682  11.359  0.0266 -0.4479 -0.6064
  269MOL0     H35468   0.875   4.849  11.500  2.2486  1.1202 -1.6549
  269MOL0     H35469   0.912   4.686  11.559  1.7730  0.3898  0.2030
  269MOL0     H35470   0.720   4.540  11.541 -2.0912 -3.0332 -1.1998
  269MOL0     H35471   0.466   4.534  11.598  0.2970  0.8946  1.8073
  269MOL0     H35472   0.015   4.708  11.258  1.2916 -1.7950  0.2355
  269MOL0     H35473  -0.237   4.699  11.305 -2.7644  1.0198  2.6165
  269MOL0     H35474  -0.441   4.663  11.399  1.6553 -2.1425  1.8782
  269MOL0     H35475  -0.452   4.833  11.432  2.1691 -1.6020 -3.6398
  269MOL0     H35476  -0.562   4.610  11.630 -0.6720 -1.4032 -0.0356
  269MOL0     H35477  -0.672   4.679  11.508 -1.1546  0.9553  1.4649
  269MOL0     H35478  -0.642   4.907  11.607 -1.0438 -0.6711 -1.8407
  269MOL0     H35479  -0.507   4.832  11.698  1.2409 -2.3345 -2.1436
  269MOL0     H35480  -0.691   4.880  11.846 -0.0362  0.6002 -1.1830
  269MOL0     H35481  -0.802   4.789  11.748  0.7828 -1.1909 -2.2839
  269MOL0     H35482  -0.716   4.588  11.821  0.1405  1.0759 -1.2396
  269MOL0     H35483  -0.734   4.685  11.971 -0.5399 -0.8810  0.5183
  269MOL0     H35484  -0.501   4.751  11.971 -0.4552  1.5323 -0.6852
  269MOL0     H35485  -0.467   4.663  11.832  0.9838  1.4185  0.3055
  269MOL0     H35486  -0.565   4.590  12.117  1.9798  4.3188 -1.5435
  269MOL0     H35487  -0.562   4.460  11.985 -1.7596  1.1161 -0.6808
  269MOL0     H35488  -0.307   4.514  11.972  0.8455  1.3826 -0.1103
  269MOL0     H35489  -0.350   4.442  12.128  1.9939  1.1378  0.5835
  269MOL0     H35490  -0.160   4.791  11.717  0.5764  1.9387  0.1631
  269MOL0     H35491   0.072   4.774  11.681  0.7555 -1.0765 -1.2643
  269MOL0     H35492   0.402   4.859  11.325  1.1655  1.2901  0.9199
  269MOL0     H35493   0.643   4.857  11.265  2.5734 -0.1550 -0.1294
  269MOL0     H35494   2.700   4.554  11.237  1.8550  0.1577 -2.4571
  269MOL0     H35495   2.868   4.410  11.172 -0.8021  0.3853 -0.5106
  269MOL0     H35496   3.267   4.216  11.321 -0.4031  0.1286 -1.2725
  269MOL0     H35497   3.476   4.088  11.360  1.0369  0.8489  1.3778
  269MOL0     H35498   3.888   4.188  11.403  0.2209 -1.8547 -0.0344
  269MOL0     H35499   3.816   4.344  11.352  0.8958  0.6326 -0.6534
  269MOL0     H35500   3.957   4.132  11.172 -0.7119  0.3021  0.3816
  269MOL0     H35501   3.893   4.284  11.107  0.5623  0.4385  0.3225
  269MOL0     H35502   4.116   4.278  11.313 -1.2576 -1.6524 -0.7639
  269MOL0     H35503   4.036   4.417  11.282 -0.8772  0.9554 -0.9947
  269MOL0     H35504   4.138   4.275  11.037  2.1054 -0.1692  0.7334
  269MOL0     H35505   4.110   4.448  11.063 -0.2647  2.1812  3.5060
  269MOL0     H35506   4.506   4.377  11.194  0.7305  1.1531  0.9078
  269MOL0     H35507   3.682   4.433  11.179 -0.1071 -0.4461  0.0214
  269MOL0     H35508   3.480   4.544  11.170  0.5498 -0.6681 -1.3976
  270MOL0     O35509   9.673   0.602   3.229  0.0008  0.1807  0.2437
  270MOL0     C35510   9.728   0.575   3.128  0.8101 -0.3156  0.4334
  270MOL0     O35511   9.669   0.552   3.010  0.0196  0.8481  0.4923
  270MOL0     C35512   9.536   0.523   2.988  0.7820 -0.0371  0.0876
  270MOL0     C35513   9.509   0.479   2.858 -0.3853  0.7549  0.3579
  270MOL0     C35514   9.379   0.437   2.823 -0.7364  0.0073  0.0043
  270MOL0     C35515   9.281   0.420   2.912 -0.1295  0.1549 -0.5175
  270MOL0     O35516   9.161   0.373   2.871 -0.2447  0.2587 -0.1965
  270MOL0     C35517   9.053   0.383   2.969  0.7236 -0.2111  0.4085
  270MOL0     C35518   8.925   0.343   2.896 -0.0045  0.7933  0.7244
  270MOL0     C35519   8.791   0.344   2.984 -0.8519  0.2143 -0.5595
  270MOL0     C35520   8.677   0.280   2.906 -0.1244 -0.1735  0.4345
  270MOL0     C35521   8.548   0.319   2.973  0.7306 -0.4779  0.3360
  270MOL0     C35522   8.425   0.238   2.924 -0.1508  0.4277  0.0295
  270MOL0     C35523   8.302   0.298   2.987 -0.4021 -0.3069  1.1478
  270MOL0     C35524   8.170   0.250   2.937 -0.9617  0.5970 -0.4246
  270MOL0     N35525   8.066   0.345   2.993  0.3079 -0.3956  0.1755
  270MOL0     C35526   7.958   0.310   3.065  0.9430  0.8802  0.8672
  270MOL0     C35527   7.873   0.410   3.065 -0.5446 -0.6436  0.5205
  270MOL0     C35528   7.748   0.412   3.152 -0.2735 -0.7130 -0.7019
  270MOL0     C35529   7.645   0.512   3.117 -0.6894  0.0558  1.4998
  270MOL0     C35530   7.564   0.484   2.990 -0.3709 -0.0373 -0.2022
  270MOL0     C35531   7.448   0.589   2.982 -1.1781 -0.0161  0.1559
  270MOL0     O35532   7.356   0.572   3.098  0.4187  0.0948  0.7742
  270MOL0     C35533   7.240   0.652   3.086 -0.6311  0.6285  1.1931
  270MOL0     C35534   7.114   0.607   3.138 -0.4512  0.7893  0.0833
  270MOL0     C35535   6.995   0.685   3.123 -0.0921 -0.4194 -0.6783
  270MOL0     C35536   7.003   0.820   3.076  0.0298 -0.3912  0.6183
  270MOL0     C35537   6.879   0.910   3.068 -0.9970 -0.0738  0.0115
  270MOL0     O35538   6.758   0.853   3.105  0.3114 -0.1862  0.5694
  270MOL0     C35539   6.641   0.929   3.104 -0.4280  0.5753 -0.0196
  270MOL0     C35540   6.603   1.018   3.002  1.0399  0.5262  0.2496
  270MOL0     C35541   6.485   1.089   3.002 -0.0393 -1.0570 -0.4859
  270MOL0     C35542   6.401   1.074   3.109  0.0082 -0.5299 -0.0618
  270MOL0     O35543   6.286   1.152   3.099 -0.8866  0.1784 -0.1443
  270MOL0     C35544   6.205   1.152   3.213  0.2588  0.2778  0.5116
  270MOL0     C35545   6.078   1.231   3.176 -0.3600  0.1693 -1.1755
  270MOL0     C35546   5.982   1.226   3.297 -0.2116  0.2241  0.0402
  270MOL0     C35547   5.848   1.301   3.252 -0.3866  0.0810  0.3903
  270MOL0     C35548   5.762   1.338   3.383 -0.6391 -0.8787 -0.9373
  270MOL0     C35549   5.632   1.418   3.342  0.1081  0.0871 -0.0762
  270MOL0     C35550   5.531   1.440   3.452  0.9841 -0.6345  0.4892
  270MOL0     C35551   5.564   1.551   3.540 -0.0198 -0.3442  0.9040
  270MOL0    Cl35552   5.516   1.502   3.705 -0.0470 -0.0728 -0.1741
  270MOL0     C35553   6.435   0.988   3.223 -0.1855  0.1399 -0.1552
  270MOL0     C35554   6.558   0.911   3.211  0.1473  0.6166 -0.6830
  270MOL0     O35555   6.886   1.023   3.017 -0.7054  0.1932 -0.4967
  270MOL0     C35556   7.125   0.872   3.032 -0.6008  0.2191  0.6199
  270MOL0     C35557   7.241   0.783   3.030  0.3950  0.6285 -1.4292
  270MOL0     N35558   7.935   0.511   2.987  0.4259 -0.2601 -0.2864
  270MOL0     N35559   8.049   0.470   2.945 -0.3544  0.7308 -0.0482
  270MOL0     C35560   9.308   0.461   3.047  0.0008  0.2153  0.1221
  270MOL0     C35561   9.432   0.518   3.085 -0.3289  0.3882  0.1533
  270MOL0     C35562   9.875   0.560   3.139 -0.4748 -0.5211 -0.6464
  270MOL0     C35563   9.949   0.551   3.016  0.3642  0.7448  0.0888
  270MOL0     C35564  10.090   0.540   3.015 -0.5074  0.2891 -0.2442
  270MOL0     C35565  10.150   0.548   3.139  0.0646  0.4196  0.2665
  270MOL0     O35566  10.284   0.536   3.157  0.7082  0.4057  0.4116
  270MOL0     C35567  10.376   0.513   3.048  0.3024  0.3581 -0.1541
  270MOL0     C35568  10.522   0.512   3.099  0.2480  0.6028  0.4617
  270MOL0     C35569  10.562   0.626   3.187  0.4522  0.3766  0.6890
  270MOL0     C35570  10.699   0.590   3.248  0.6327  0.0760 -0.2180
  270MOL0     C35571  10.763   0.714   3.297 -1.3775  0.2962 -0.3284
  270MOL0     C35572  10.815   0.816   3.341  0.1132  0.3175 -0.6447
  270MOL0     C35573  10.088   0.564   3.255  0.2048 -0.5186 -0.1901
  270MOL0     C35574   9.950   0.567   3.259  0.1564  0.3404  1.0390
  270MOL0     H35575   9.584   0.483   2.780  0.2251 -2.4673  0.6393
  270MOL0     H35576   9.367   0.410   2.719 -1.4751 -2.6249  0.6946
  270MOL0     H35577   9.037   0.487   2.998 -2.1395 -0.6109  0.5775
  270MOL0     H35578   9.063   0.333   3.066  0.2614 -0.8493  0.1347
  270MOL0     H35579   8.937   0.240   2.861 -1.4780  0.7991  0.1218
  270MOL0     H35580   8.897   0.408   2.814  0.5412  2.1711  1.5929
  270MOL0     H35581   8.770   0.446   3.016  2.6449  0.4338  1.5712
  270MOL0     H35582   8.801   0.279   3.072 -1.0562 -0.4983 -1.0529
  270MOL0     H35583   8.669   0.319   2.804  1.2714  2.1791  1.1499
  270MOL0     H35584   8.692   0.172   2.892 -0.5797 -0.3052  0.9516
  270MOL0     H35585   8.526   0.426   2.980 -0.0611 -0.6968  1.7703
  270MOL0     H35586   8.560   0.287   3.077  1.0017  2.4272  1.2712
  270MOL0     H35587   8.438   0.133   2.952 -2.1387 -0.6987 -2.7813
  270MOL0     H35588   8.413   0.250   2.815  0.7206 -1.9867 -0.3961
  270MOL0     H35589   8.305   0.281   3.095  1.6231 -0.9881  1.0281
  270MOL0     H35590   8.311   0.404   2.964  1.7327 -0.0200  2.9382
  270MOL0     H35591   8.161   0.144   2.967  0.9295  0.9894  1.8419
  270MOL0     H35592   8.156   0.251   2.829 -1.3250 -2.3837 -0.5098
  270MOL0     H35593   7.939   0.216   3.114 -1.0370 -0.3796 -2.0325
  270MOL0     H35594   7.768   0.422   3.259 -2.1474  0.0958 -0.3975
  270MOL0     H35595   7.706   0.312   3.146 -1.0295 -0.3354 -2.0252
  270MOL0     H35596   7.700   0.606   3.104 -1.1430  0.0817 -0.6218
  270MOL0     H35597   7.573   0.516   3.200 -1.3725 -1.0750  0.9779
  270MOL0     H35598   7.614   0.503   2.895 -1.0809  0.8597 -0.4083
  270MOL0     H35599   7.521   0.383   2.982 -2.5843  0.8483 -0.1365
  270MOL0     H35600   7.394   0.593   2.887  0.8652 -0.4177 -1.0810
  270MOL0     H35601   7.494   0.689   2.976 -1.5491  0.1944  0.7001
  270MOL0     H35602   7.109   0.513   3.194  0.2096  0.3026 -0.6552
  270MOL0     H35603   6.903   0.651   3.169 -0.9743  1.0613 -1.3042
  270MOL0     H35604   6.662   1.032   2.912 -0.3087 -1.2646 -0.9831
  270MOL0     H35605   6.461   1.155   2.919 -0.0577 -0.6959 -0.1953
  270MOL0     H35606   6.261   1.197   3.296 -0.0233  0.5434  0.5594
  270MOL0     H35607   6.172   1.051   3.241 -0.3500  0.4278  0.3493
  270MOL0     H35608   6.018   1.197   3.091  0.7156 -0.6815 -1.6150
  270MOL0     H35609   6.097   1.339   3.167 -1.6339  1.0470  3.7599
  270MOL0     H35610   6.023   1.275   3.387 -0.5645  0.6995 -0.0565
  270MOL0     H35611   5.954   1.121   3.312 -3.0312  0.8211 -0.5813
  270MOL0     H35612   5.878   1.395   3.206 -1.4443  0.2028 -0.0719
  270MOL0     H35613   5.802   1.243   3.172 -0.8634 -1.6763  1.8528
  270MOL0     H35614   5.825   1.398   3.449  0.6047 -1.9958 -1.0451
  270MOL0     H35615   5.719   1.247   3.425 -2.0993  0.6679  1.0726
  270MOL0     H35616   5.590   1.355   3.263  0.0228  0.8479 -0.6487
  270MOL0     H35617   5.651   1.520   3.306 -2.5704  0.4194 -0.7782
  270MOL0     H35618   5.436   1.467   3.404  0.9268  0.6353  1.2536
  270MOL0     H35619   5.521   1.346   3.506 -1.3354 -0.1130  1.1069
  270MOL0     H35620   5.506   1.639   3.511 -1.1383 -1.6015 -0.9058
  270MOL0     H35621   5.670   1.577   3.534  0.2021 -1.2795  0.5317
  270MOL0     H35622   6.385   1.001   3.319  0.6762  2.1700  0.0710
  270MOL0     H35623   6.601   0.840   3.280 -0.3573 -1.6774 -2.5852
  270MOL0     H35624   7.138   0.973   2.994  2.1520 -0.7955 -1.4837
  270MOL0     H35625   7.342   0.801   2.998  1.3677 -0.8138  0.5600
  270MOL0     H35626   9.232   0.436   3.120 -0.0051 -2.5810 -0.7193
  270MOL0     H35627   9.440   0.544   3.190  4.3418 -2.1518  0.7064
  270MOL0     H35628   9.911   0.550   2.914  2.7135 -1.4081 -0.8557
  270MOL0     H35629  10.139   0.544   2.918  0.8400 -0.3114  0.3842
  270MOL0     H35630  10.354   0.600   2.986  2.1586 -0.3228 -1.8548
  270MOL0     H35631  10.366   0.419   2.994 -0.7615 -0.8543  2.0056
  270MOL0     H35632  10.544   0.414   3.144  2.4318  1.0366  0.4542
  270MOL0     H35633  10.585   0.511   3.010  0.0087 -2.0078  0.2173
  270MOL0     H35634  10.489   0.655   3.263  1.4870  2.4353  0.9549
  270MOL0     H35635  10.586   0.710   3.122 -1.5164 -0.5539 -1.3499
  270MOL0     H35636  10.702   0.533   3.342  1.3743  1.5575  0.6979
  270MOL0     H35637  10.765   0.533   3.182  3.5895  1.2508  1.5413
  270MOL0     H35638  10.837   0.904   3.399 -3.7507  0.4413  1.0026
  270MOL0     H35639  10.148   0.584   3.343  1.5967 -1.4610 -0.8962
  270MOL0     H35640   9.899   0.587   3.352 -1.7933  0.6525 -0.0313
  271MOL0     O35641   6.138  10.057   0.114 -0.0706  0.1612 -0.3510
  271MOL0     C35642   6.182  10.103   0.010 -1.0957 -0.3334  0.6516
  271MOL0     O35643   6.110  10.143  -0.093  0.0350 -0.0273 -0.4246
  271MOL0     C35644   5.978  10.106  -0.075 -0.1126  0.2997  0.5659
  271MOL0     C35645   5.874  10.188  -0.040 -0.5857  0.5156  0.6731
  271MOL0     C35646   5.735  10.159  -0.052  0.1931 -0.3451  0.3318
  271MOL0     C35647   5.696  10.026  -0.076 -0.4378 -0.1096 -0.4861
  271MOL0     O35648   5.563   9.972  -0.089 -1.0207 -0.1952  0.2095
  271MOL0     C35649   5.460  10.046  -0.032  0.3638 -0.2540  0.6787
  271MOL0     C35650   5.326   9.980  -0.056  0.5894  0.6648 -0.2379
  271MOL0     C35651   5.202  10.036   0.025 -0.2076  0.0145  0.1788
  271MOL0     C35652   5.066   9.992  -0.029 -0.8148  0.0051 -1.3802
  271MOL0     C35653   4.954  10.072   0.036 -0.5628 -0.1924 -0.3315
  271MOL0     C35654   4.817  10.018  -0.004  0.1431 -0.7471  0.4240
  271MOL0     C35655   4.791   9.885   0.055 -0.5472 -0.5104  0.3935
  271MOL0     C35656   4.645   9.834   0.023 -0.5663  0.3866  0.0313
  271MOL0     N35657   4.552   9.884   0.123  0.6871  0.2587 -0.6018
  271MOL0     C35658   4.541   9.838   0.253 -0.4634  0.0203  0.5377
  271MOL0     C35659   4.451   9.919   0.314  0.2237  0.4679 -0.9523
  271MOL0     C35660   4.426   9.943   0.461 -0.4347 -0.1998 -0.0063
  271MOL0     C35661   4.286   9.988   0.488 -0.7820 -0.6014  0.1977
  271MOL0     C35662   4.249   9.978   0.639 -0.6722 -0.1164 -0.1260
  271MOL0     C35663   4.100  10.000   0.674  0.3013  0.4144  0.5332
  271MOL0     O35664   4.042  10.124   0.639 -0.3923 -0.3354  0.3243
  271MOL0     C35665   3.909  10.149   0.673 -0.1796  0.5425  0.2120
  271MOL0     C35666   3.878  10.283   0.698  0.0044 -0.4121 -0.0654
  271MOL0     C35667   3.752  10.322   0.742  0.0434  0.4471 -0.6984
  271MOL0     C35668   3.648  10.229   0.767  0.0740 -0.0227 -1.0097
  271MOL0     C35669   3.518  10.262   0.816  0.5474 -0.5447 -0.0010
  271MOL0     O35670   3.421  10.169   0.817 -0.2995 -0.1317  0.5651
  271MOL0     C35671   3.314  10.197   0.898 -0.1310  0.2773 -0.0617
  271MOL0     C35672   3.193  10.244   0.848 -0.6662  0.4364  0.4645
  271MOL0     C35673   3.083  10.266   0.925  0.3027 -0.0078  0.4446
  271MOL0     C35674   3.091  10.236   1.065 -0.3970 -0.3031  0.8208
  271MOL0     O35675   2.980  10.235   1.139  1.0143 -0.3320 -0.0612
  271MOL0     C35676   2.846  10.269   1.089 -0.6556 -0.9937 -0.2452
  271MOL0     C35677   2.771  10.339   1.204 -0.2237  0.2571  0.0717
  271MOL0     C35678   2.777  10.491   1.186 -0.0369  0.2389 -0.8034
  271MOL0     C35679   2.721  10.566   1.311 -0.7393  0.2089  0.3970
  271MOL0     C35680   2.744  10.716   1.304 -0.6295  0.4825  0.3628
  271MOL0     C35681   2.726  10.785   1.441  0.4180  0.6984  0.5941
  271MOL0     C35682   2.743  10.932   1.417  0.3223  0.4042 -0.3324
  271MOL0     C35683   2.697  11.007   1.549  0.2893  0.6473 -0.1573
  271MOL0    Cl35684   2.816  10.961   1.679 -0.4987 -0.1186  0.1838
  271MOL0     C35685   3.206  10.188   1.115 -0.5088  0.8096 -0.1717
  271MOL0     C35686   3.323  10.174   1.033  1.0969  0.1335  0.6115
  271MOL0     O35687   3.506  10.380   0.852  0.2209  0.0394 -1.0568
  271MOL0     C35688   3.688  10.088   0.763  0.3231  0.4084  0.1619
  271MOL0     C35689   3.814  10.044   0.704  0.1379 -0.3372  0.1335
  271MOL0     N35690   4.402  10.008   0.218 -0.3045  0.0795  0.2333
  271MOL0     N35691   4.470   9.990   0.109 -0.4153  0.1943  0.3788
  271MOL0     C35692   5.801   9.937  -0.112 -0.6198 -0.0462  0.6837
  271MOL0     C35693   5.936   9.978  -0.115  0.2752  0.1949  0.7163
  271MOL0     C35694   6.330  10.120  -0.007 -0.2757  0.8712  0.7548
  271MOL0     C35695   6.387  10.170  -0.126 -0.8284 -0.0719 -0.3205
  271MOL0     C35696   6.530  10.183  -0.141 -0.0966  0.0573 -0.3048
  271MOL0     C35697   6.617  10.141  -0.035  0.6760  0.5959 -0.0891
  271MOL0     O35698   6.755  10.161  -0.055 -0.3351 -0.5879  0.2228
  271MOL0     C35699   6.849  10.168   0.051 -0.3834  0.2234  0.3302
  271MOL0     C35700   6.872  10.310   0.080  0.5014  0.6065  0.1034
  271MOL0     C35701   6.956  10.332   0.202 -0.1050 -0.1020 -0.7359
  271MOL0     C35702   6.991  10.475   0.229 -0.0248  1.2251  0.2910
  271MOL0     C35703   7.119  10.509   0.168  0.0069 -0.4908  0.5554
  271MOL0     C35704   7.224  10.538   0.112 -0.4047  0.4465  0.2244
  271MOL0     C35705   6.554  10.079   0.083  0.0477 -0.6905  0.4296
  271MOL0     C35706   6.413  10.069   0.086  0.2804 -0.5787  0.0768
  271MOL0     H35707   5.903  10.289  -0.013  4.3577 -0.7284  1.0755
  271MOL0     H35708   5.657  10.228  -0.021 -0.8835 -1.7058  0.7359
  271MOL0     H35709   5.453  10.143  -0.082  0.0845 -1.4148 -1.6800
  271MOL0     H35710   5.466  10.062   0.076 -0.5670 -1.2663  0.8916
  271MOL0     H35711   5.336   9.871  -0.053  0.5340  0.6649 -0.0251
  271MOL0     H35712   5.308   9.999  -0.162  0.0066  0.4454 -0.1776
  271MOL0     H35713   5.203  10.146   0.021 -1.3769  0.0755  1.1092
  271MOL0     H35714   5.219  10.007   0.129  3.0405  1.5891  0.2150
  271MOL0     H35715   5.055   9.989  -0.138 -1.7832  0.3804 -1.3014
  271MOL0     H35716   5.063   9.887   0.001  3.1741 -0.9996 -3.7111
  271MOL0     H35717   4.964  10.179   0.012 -1.4372  0.4725  2.0348
  271MOL0     H35718   4.957  10.066   0.145 -0.0136 -2.9362 -0.4290
  271MOL0     H35719   4.812  10.017  -0.113  0.5007  1.9510  0.3158
  271MOL0     H35720   4.745  10.097   0.022 -1.8726 -1.9211 -1.2677
  271MOL0     H35721   4.857   9.803   0.023 -1.7340 -0.4345 -2.5061
  271MOL0     H35722   4.803   9.899   0.163 -0.0456  1.6950  0.0893
  271MOL0     H35723   4.649   9.725   0.014  3.0525  0.3434  0.5241
  271MOL0     H35724   4.614   9.870  -0.076 -0.6036  1.1692  0.3165
  271MOL0     H35725   4.595   9.760   0.305  1.8843  1.4062  0.2899
  271MOL0     H35726   4.489  10.021   0.505  0.0950 -0.3975 -0.4024
  271MOL0     H35727   4.449   9.852   0.518 -4.0944 -2.6357 -2.0519
  271MOL0     H35728   4.216   9.921   0.438 -0.6139 -1.8472  1.5484
  271MOL0     H35729   4.262  10.086   0.444  1.1239 -0.8638 -1.5144
  271MOL0     H35730   4.277   9.878   0.675  0.6879 -0.1662 -1.2444
  271MOL0     H35731   4.308  10.046   0.701 -2.8285 -0.0508  2.0167
  271MOL0     H35732   4.095   9.978   0.781 -1.6978  0.8659  0.5744
  271MOL0     H35733   4.035   9.926   0.624 -0.1260 -0.9895  3.0142
  271MOL0     H35734   3.958  10.343   0.655  1.0280 -1.6147  0.1010
  271MOL0     H35735   3.736  10.429   0.748  1.4876  0.6768 -0.6070
  271MOL0     H35736   3.181  10.258   0.741 -2.1162 -2.6893  0.1081
  271MOL0     H35737   3.004  10.305   0.862  1.2888  0.4576 -0.5291
  271MOL0     H35738   2.795  10.177   1.061  0.3631 -1.4012 -0.7983
  271MOL0     H35739   2.846  10.331   0.999  1.9606 -1.1927 -0.4651
  271MOL0     H35740   2.797  10.305   1.304 -0.1135 -2.3037 -0.7559
  271MOL0     H35741   2.665  10.323   1.183 -0.9505  3.3289  0.9847
  271MOL0     H35742   2.719  10.523   1.099  2.5545 -0.7752 -3.0702
  271MOL0     H35743   2.881  10.523   1.173  0.0471  2.6817  3.7951
  271MOL0     H35744   2.614  10.549   1.329 -0.4231  0.1271  2.4382
  271MOL0     H35745   2.769  10.541   1.406 -0.7208  2.1040  0.9276
  271MOL0     H35746   2.667  10.760   1.239  1.3371  0.3989 -2.1965
  271MOL0     H35747   2.842  10.742   1.261 -0.4313 -0.2363  0.3687
  271MOL0     H35748   2.808  10.751   1.504  0.6628  0.5282  0.1879
  271MOL0     H35749   2.631  10.761   1.490 -0.0399 -1.0736 -1.0255
  271MOL0     H35750   2.845  10.958   1.388  0.6033 -2.3423 -2.2027
  271MOL0     H35751   2.681  10.959   1.331 -0.9002 -2.7794 -0.5624
  271MOL0     H35752   2.601  10.964   1.581 -0.2568  3.1747  1.9568
  271MOL0     H35753   2.694  11.114   1.530 -2.8525  0.4690 -1.2434
  271MOL0     H35754   3.215  10.167   1.221  2.3547  0.7956 -0.3465
  271MOL0     H35755   3.421  10.144   1.067  0.7632 -3.9106 -1.4381
  271MOL0     H35756   3.631  10.007   0.808  2.0047 -2.8268 -3.0253
  271MOL0     H35757   3.833   9.939   0.684  3.7010  0.7096 -3.2120
  271MOL0     H35758   5.777   9.840  -0.155 -2.7737  0.2741  1.0543
  271MOL0     H35759   6.004   9.910  -0.165  1.4711 -0.0466  2.5871
  271MOL0     H35760   6.326  10.204  -0.209 -2.1720 -0.2619  0.5740
  271MOL0     H35761   6.585  10.217  -0.228 -1.3164  1.9714 -0.3612
  271MOL0     H35762   6.948  10.131   0.023  1.4995  2.4250  3.4201
  271MOL0     H35763   6.822  10.116   0.143  1.3383 -1.4856 -0.0539
  271MOL0     H35764   6.904  10.371  -0.005 -0.1400 -2.4395 -2.5117
  271MOL0     H35765   6.774  10.351   0.107  0.2808  0.2730 -0.1931
  271MOL0     H35766   7.049  10.274   0.204 -0.7106 -1.1388  2.4808
  271MOL0     H35767   6.903  10.298   0.291  0.1806  0.4737 -0.3336
  271MOL0     H35768   6.912  10.540   0.191 -0.2795  0.6293 -0.2213
  271MOL0     H35769   6.993  10.475   0.338  1.9603 -1.3388  0.3294
  271MOL0     H35770   7.322  10.552   0.072 -0.7055  0.7886 -0.4078
  271MOL0     H35771   6.612  10.038   0.165  2.5598 -0.6431 -1.2258
  271MOL0     H35772   6.375  10.014   0.171 -0.2241  0.2214  0.3747
  272MOL0     O35773   1.612  10.153   1.409 -0.4018  0.6057  0.1745
  272MOL0     C35774   1.633  10.245   1.484  0.0091 -0.2686 -0.0377
  272MOL0     O35775   1.560  10.279   1.587  0.5840 -0.3974 -0.4057
  272MOL0     C35776   1.440  10.231   1.624  0.7124  0.0096 -0.1089
  272MOL0     C35777   1.405  10.234   1.758  0.1238  0.2579 -0.1482
  272MOL0     C35778   1.286  10.183   1.802  0.2390 -0.1653  0.8766
  272MOL0     C35779   1.189  10.135   1.706  0.7495  0.0128  0.2324
  272MOL0     O35780   1.071  10.078   1.742 -0.9968 -0.6480  0.2961
  272MOL0     C35781   0.998  10.127   1.862 -0.2733 -0.0170  0.5144
  272MOL0     C35782   0.902  10.019   1.886  0.8217 -0.0464 -0.1798
  272MOL0     C35783   0.806  10.064   2.001 -1.1869 -0.2830 -0.0455
  272MOL0     C35784   0.684   9.976   2.004 -0.6164  0.3037  0.0364
  272MOL0     C35785   0.619  10.004   2.141  0.4059 -0.2918 -0.7618
  272MOL0     C35786   0.513   9.901   2.173  0.0906 -0.1566 -0.5524
  272MOL0     C35787   0.396   9.917   2.075  0.6188  1.1241  0.6419
  272MOL0     C35788   0.291   9.818   2.111 -0.7723 -0.0027 -0.4012
  272MOL0     N35789   0.188   9.879   2.191  0.9150  0.1362 -0.0183
  272MOL0     C35790   0.197   9.951   2.304  0.6211  0.1558 -0.7619
  272MOL0     C35791   0.078  10.015   2.323 -0.2735  0.6760  0.1206
  272MOL0     C35792   0.023  10.092   2.444  0.2633  0.0045 -0.4430
  272MOL0     C35793   0.028  10.247   2.405  0.0259  1.4476 -0.1692
  272MOL0     C35794   0.172  10.282   2.462  0.5578  0.7882 -0.1099
  272MOL0     C35795   0.195  10.425   2.435 -0.4130 -0.1115 -0.6740
  272MOL0     O35796   0.321  10.443   2.503  0.0458  0.1295 -0.0991
  272MOL0     C35797   0.415  10.545   2.471  0.4840 -0.1111  0.9120
  272MOL0     C35798   0.540  10.521   2.508 -0.4762 -0.7418 -0.7634
  272MOL0     C35799   0.638  10.612   2.496  0.3621 -0.3161  0.5761
  272MOL0     C35800   0.614  10.733   2.428  0.4395  0.3781  0.5745
  272MOL0     C35801   0.725  10.822   2.384 -0.6366 -0.6691  0.7520
  272MOL0     O35802   0.688  10.927   2.303 -0.9826  0.0971 -1.0880
  272MOL0     C35803   0.778  11.037   2.288  1.1437  0.3008  0.2186
  272MOL0     C35804   0.901  11.027   2.224 -0.2069 -1.1182 -0.2055
  272MOL0     C35805   0.982  11.136   2.212  0.2016 -0.0698  0.1938
  272MOL0     C35806   0.940  11.261   2.255 -0.4596 -1.0137 -0.4980
  272MOL0     O35807   1.006  11.377   2.274  0.5467 -0.0870  0.5547
  272MOL0     C35808   1.148  11.387   2.250 -0.1939 -0.2824  0.1043
  272MOL0     C35809   1.175  11.538   2.242  0.0377  0.4362 -0.4138
  272MOL0     C35810   1.321  11.587   2.222 -0.2425 -0.1846 -0.4906
  272MOL0     C35811   1.396  11.523   2.107 -0.5987  0.2414  0.0326
  272MOL0     C35812   1.548  11.569   2.103 -0.2530  0.3216 -0.5462
  272MOL0     C35813   1.572  11.721   2.079  0.1882  0.9861  0.1067
  272MOL0     C35814   1.716  11.752   2.131  0.5276  0.3952 -0.4964
  272MOL0     C35815   1.763  11.882   2.067  0.8423  0.3685  0.7821
  272MOL0    Cl35816   1.933  11.880   2.089  0.0810 -0.2536  0.2346
  272MOL0     C35817   0.813  11.275   2.304 -0.5705 -0.0382 -0.5700
  272MOL0     C35818   0.724  11.166   2.325  0.7807  0.1368 -0.4302
  272MOL0     O35819   0.838  10.799   2.412 -0.6535 -0.4241  0.4807
  272MOL0     C35820   0.479  10.767   2.390 -0.0113 -0.6027 -0.4401
  272MOL0     C35821   0.384  10.673   2.408  0.1190  0.7448  0.2229
  272MOL0     N35822  -0.002   9.986   2.214  0.2467 -0.5263  0.0956
  272MOL0     N35823   0.060   9.897   2.140  0.0519 -0.0954  0.6275
  272MOL0     C35824   1.219  10.137   1.576  0.6003  1.2218  0.1605
  272MOL0     C35825   1.339  10.194   1.531 -0.0083  0.6342  0.3455
  272MOL0     C35826   1.760  10.311   1.476  0.9136 -0.1746 -0.3202
  272MOL0     C35827   1.852  10.291   1.372 -0.0624  0.4335  0.5716
  272MOL0     C35828   1.979  10.344   1.375  0.3490  0.9293  0.3839
  272MOL0     C35829   2.012  10.425   1.485 -0.6966  0.3989  0.0931
  272MOL0     O35830   2.140  10.466   1.521 -0.7483  0.5750 -0.2246
  272MOL0     C35831   2.259  10.419   1.444 -0.2313  0.1527 -0.0579
  272MOL0     C35832   2.280  10.498   1.319 -0.2365  0.4036  0.6137
  272MOL0     C35833   2.291  10.648   1.336 -0.1337 -0.2157 -0.2523
  272MOL0     C35834   2.298  10.726   1.207  0.1246  0.6232 -0.6098
  272MOL0     C35835   2.335  10.867   1.231  0.4087  0.0425  0.8663
  272MOL0     C35836   2.349  10.988   1.236  0.2044 -0.4131 -0.1239
  272MOL0     C35837   1.915  10.469   1.579 -0.0548  0.1045 -0.0502
  272MOL0     C35838   1.783  10.409   1.571  0.2882 -0.2125  0.5707
  272MOL0     H35839   1.487  10.250   1.828  1.2085 -0.0059 -1.3152
  272MOL0     H35840   1.257  10.173   1.907 -1.2087 -4.0110  0.2868
  272MOL0     H35841   0.948  10.221   1.835 -1.5521 -0.7905  0.0980
  272MOL0     H35842   1.057  10.139   1.954 -0.3783 -0.9046  0.7034
  272MOL0     H35843   0.954   9.929   1.922  0.8612 -0.0896 -0.3470
  272MOL0     H35844   0.843   9.997   1.797 -2.2837  0.1151  1.7019
  272MOL0     H35845   0.783  10.168   1.975  0.3605 -0.1515 -1.0315
  272MOL0     H35846   0.855  10.070   2.098  5.6805  2.4861 -3.0292
  272MOL0     H35847   0.624  10.008   1.919  3.0975  2.8491 -1.8950
  272MOL0     H35848   0.714   9.871   2.009 -0.1066  0.4027 -0.8380
  272MOL0     H35849   0.574  10.103   2.131 -1.3092 -1.1045 -1.3888
  272MOL0     H35850   0.687  10.013   2.226 -0.5996  0.7341 -0.0288
  272MOL0     H35851   0.480   9.912   2.277  0.4008  1.2465 -0.5855
  272MOL0     H35852   0.556   9.802   2.158 -0.0562  0.2438 -4.7558
  272MOL0     H35853   0.363  10.021   2.083  1.1828  1.3539  0.0168
  272MOL0     H35854   0.418   9.902   1.969 -2.0238 -0.3377  0.2263
  272MOL0     H35855   0.326   9.733   2.170 -1.8307 -0.2969 -0.1751
  272MOL0     H35856   0.235   9.781   2.024  0.8650  1.1552 -2.0094
  272MOL0     H35857   0.280   9.951   2.375 -0.3897 -3.2025  0.6378
  272MOL0     H35858   0.071  10.061   2.537 -1.3440 -1.8801 -0.1453
  272MOL0     H35859  -0.083  10.074   2.465  0.0695 -1.0616 -2.0676
  272MOL0     H35860  -0.039  10.309   2.466  2.6612  4.4340 -0.0682
  272MOL0     H35861   0.022  10.267   2.297 -0.2644 -1.1635 -0.6917
  272MOL0     H35862   0.168  10.266   2.570  0.1131  0.2567 -0.1996
  272MOL0     H35863   0.248  10.218   2.417 -1.3114 -1.4310 -0.3151
  272MOL0     H35864   0.120  10.489   2.483  1.3622  0.1469  1.9384
  272MOL0     H35865   0.212  10.461   2.333  0.3350 -0.5392 -0.7083
  272MOL0     H35866   0.557  10.422   2.549 -0.0960 -0.3607  0.0280
  272MOL0     H35867   0.738  10.590   2.532  0.4844  3.4071  3.1632
  272MOL0     H35868   0.930  10.924   2.204 -2.5440 -1.8701 -0.0675
  272MOL0     H35869   1.074  11.120   2.157  1.3399  0.7283  1.7851
  272MOL0     H35870   1.167  11.341   2.152  1.6797 -0.9017  0.7005
  272MOL0     H35871   1.217  11.344   2.323 -1.7345 -1.4479  0.9397
  272MOL0     H35872   1.128  11.598   2.321 -0.8701  0.1136 -0.6953
  272MOL0     H35873   1.119  11.577   2.156  0.0156 -1.0665 -1.0986
  272MOL0     H35874   1.379  11.568   2.313  1.3735  1.5848 -1.1048
  272MOL0     H35875   1.319  11.695   2.210  0.3526  0.1453  1.8719
  272MOL0     H35876   1.394  11.414   2.120  0.2518  0.5379  3.7592
  272MOL0     H35877   1.346  11.544   2.012 -1.2929  2.9699  0.9186
  272MOL0     H35878   1.598  11.518   2.020  1.4854  3.2594 -1.4663
  272MOL0     H35879   1.603  11.542   2.194 -0.4215  0.1726 -0.4869
  272MOL0     H35880   1.504  11.791   2.129 -0.5031 -0.7344  1.6444
  272MOL0     H35881   1.562  11.732   1.970  0.0909 -1.3604 -0.1573
  272MOL0     H35882   1.707  11.772   2.238 -1.4303 -1.4145 -0.2540
  272MOL0     H35883   1.786  11.670   2.110  0.4155  0.1378  0.1113
  272MOL0     H35884   1.730  11.977   2.111  1.0675  0.1348  1.4668
  272MOL0     H35885   1.748  11.888   1.958  0.4988  2.0408  0.8996
  272MOL0     H35886   0.798  11.377   2.338  0.2149 -0.5543  1.5169
  272MOL0     H35887   0.624  11.182   2.365  1.0929  1.8392 -0.2414
  272MOL0     H35888   0.456  10.860   2.340 -1.9028 -1.2017 -0.7778
  272MOL0     H35889   0.284  10.693   2.370 -0.1499 -0.5894  0.1677
  272MOL0     H35890   1.149  10.095   1.504 -0.5371 -2.0058  2.8786
  272MOL0     H35891   1.362  10.203   1.425  0.8264  1.4188  0.5863
  272MOL0     H35892   1.837  10.218   1.293  3.4745 -1.0649  1.0984
  272MOL0     H35893   2.038  10.305   1.293 -2.3725  0.1725 -1.3553
  272MOL0     H35894   2.245  10.317   1.407 -2.1771  0.6831 -0.9039
  272MOL0     H35895   2.349  10.430   1.506  0.5420 -1.2080 -0.8935
  272MOL0     H35896   2.371  10.465   1.269 -2.3687 -1.5638 -2.2566
  272MOL0     H35897   2.194  10.476   1.255  0.5919 -0.3133 -0.2759
  272MOL0     H35898   2.375  10.671   1.403  0.0550  3.5017 -1.5030
  272MOL0     H35899   2.197  10.672   1.386 -0.8310 -1.3338 -0.9829
  272MOL0     H35900   2.382  10.685   1.150 -0.5685 -3.4126  0.9422
  272MOL0     H35901   2.207  10.723   1.146 -0.8520 -2.5451  0.7910
  272MOL0     H35902   2.359  11.094   1.223  2.7728 -0.5967 -0.1672
  272MOL0     H35903   1.938  10.535   1.662 -0.6505  0.3479 -0.0766
  272MOL0     H35904   1.716  10.437   1.651  1.0684  1.9300  0.5219
  273MOL0     O35905   2.166   4.838  10.575 -0.1815 -0.5254  0.5991
  273MOL0     C35906   2.235   4.919  10.508 -0.0428 -0.2257 -0.4173
  273MOL0     O35907   2.183   5.008  10.422 -0.1593  0.9678  0.2166
  273MOL0     C35908   2.060   5.000  10.378 -0.6738  0.2809 -0.5751
  273MOL0     C35909   1.955   4.994  10.459  0.2154 -0.1844 -0.1820
  273MOL0     C35910   1.820   4.987  10.402  0.0376 -0.2545 -0.4719
  273MOL0     C35911   1.803   4.975  10.269  0.3028 -0.2951 -0.1580
  273MOL0     O35912   1.677   4.967  10.223 -0.1658  0.2316  0.0151
  273MOL0     C35913   1.661   4.888  10.102 -0.7125  0.3144  0.1460
  273MOL0     C35914   1.526   4.819  10.129  0.4660  0.5377  0.5701
  273MOL0     C35915   1.466   4.735  10.006  0.2755 -1.0390 -0.7989
  273MOL0     C35916   1.398   4.819   9.892 -0.4563 -0.1516  0.3891
  273MOL0     C35917   1.287   4.757   9.809 -0.0422 -0.0898 -0.4837
  273MOL0     C35918   1.325   4.620   9.747 -0.0089 -0.1325 -0.5211
  273MOL0     C35919   1.232   4.578   9.636  0.0520 -0.4779  0.4451
  273MOL0     C35920   1.087   4.544   9.677 -0.1911  0.0277 -0.3391
  273MOL0     N35921   1.018   4.487   9.561 -0.7356 -0.0490  0.5633
  273MOL0     C35922   0.901   4.424   9.565  0.6657  0.4948  0.6407
  273MOL0     C35923   0.840   4.447   9.451 -0.6937  0.2593  0.1523
  273MOL0     C35924   0.709   4.381   9.403 -0.5051  0.5569 -0.8563
  273MOL0     C35925   0.672   4.403   9.258  0.0667 -0.3998  0.2468
  273MOL0     C35926   0.540   4.316   9.226 -0.0829 -0.1804 -0.5474
  273MOL0     C35927   0.412   4.379   9.277  0.0207 -0.1527 -0.3799
  273MOL0     O35928   0.409   4.348   9.414  1.0551 -0.8261 -0.3057
  273MOL0     C35929   0.278   4.314   9.451 -0.5019  0.6697 -0.7581
  273MOL0     C35930   0.238   4.190   9.406  0.0463  0.5105  1.0383
  273MOL0     C35931   0.113   4.142   9.437  1.2446 -0.7576 -1.0479
  273MOL0     C35932   0.021   4.229   9.512 -1.5723  1.0751 -0.5097
  273MOL0     C35933  -0.123   4.194   9.530 -0.0584  0.5546 -0.1473
  273MOL0     O35934  -0.208   4.298   9.544 -0.2366 -0.7473 -0.3149
  273MOL0     C35935  -0.337   4.268   9.562  0.2344  0.6752  0.1399
  273MOL0     C35936  -0.413   4.230   9.450 -0.2767 -0.3858 -0.0505
  273MOL0     C35937  -0.552   4.200   9.458 -0.3533  0.5149  0.1046
  273MOL0     C35938  -0.620   4.232   9.581  0.5168  0.8682  0.4607
  273MOL0     O35939  -0.756   4.229   9.602  0.2138 -0.0279  0.1602
  273MOL0     C35940  -0.845   4.197   9.484  0.0687  0.1707 -0.3275
  273MOL0     C35941  -0.986   4.185   9.526  0.2099  0.0541  0.9078
  273MOL0     C35942  -1.049   4.108   9.417 -0.4650 -0.3002 -0.4780
  273MOL0     C35943  -1.201   4.111   9.441  0.1627 -0.0809  0.1425
  273MOL0     C35944  -1.280   4.021   9.352  0.3645  0.9147  0.2497
  273MOL0     C35945  -1.433   4.017   9.383  0.4617  0.5103  0.4541
  273MOL0     C35946  -1.527   4.128   9.307  0.1979  0.8693 -0.3567
  273MOL0     C35947  -1.679   4.103   9.335 -1.1756  0.8625  0.0868
  273MOL0    Cl35948  -1.770   4.157   9.198 -0.0032 -0.6103 -0.1969
  273MOL0     C35949  -0.549   4.280   9.691  0.2324  0.9395 -0.0157
  273MOL0     C35950  -0.407   4.279   9.680  0.9881 -0.6302  0.4380
  273MOL0     O35951  -0.148   4.075   9.526  0.0336  0.2831  0.3625
  273MOL0     C35952   0.071   4.347   9.574  0.1009 -0.5861  0.1312
  273MOL0     C35953   0.205   4.387   9.541 -0.4958  0.4543  0.3321
  273MOL0     N35954   0.922   4.522   9.370  0.8770 -0.4700 -0.0154
  273MOL0     N35955   1.029   4.538   9.437  0.4274 -0.4764 -1.1201
  273MOL0     C35956   1.915   4.978  10.183 -0.0808 -0.0777 -0.4516
  273MOL0     C35957   2.043   4.999  10.236  0.1635  0.3317  0.3149
  273MOL0     C35958   2.385   4.916  10.520  0.0948 -0.0024 -0.0466
  273MOL0     C35959   2.458   5.009  10.445  0.4604 -0.8393  0.0651
  273MOL0     C35960   2.598   5.004  10.453  0.0707 -0.2556  0.0639
  273MOL0     C35961   2.669   4.902  10.521 -0.3015 -0.7310 -0.2106
  273MOL0     O35962   2.808   4.909  10.539  0.0043  0.7102  0.5500
  273MOL0     C35963   2.872   4.940  10.411 -0.2734 -0.4348  0.2178
  273MOL0     C35964   3.020   4.899  10.407 -0.3036  0.2016  0.1040
  273MOL0     C35965   3.083   4.942  10.287 -0.0482 -0.4332  0.9048
  273MOL0     C35966   3.220   4.876  10.259 -0.5258 -1.1254  0.2427
  273MOL0     C35967   3.317   4.957  10.182  0.1995 -0.0924 -0.0292
  273MOL0     C35968   3.380   5.036  10.120 -0.0657  0.0706 -0.9290
  273MOL0     C35969   2.590   4.826  10.609 -0.3509 -0.6314 -0.1933
  273MOL0     C35970   2.454   4.842  10.613  1.2918 -0.5813  0.2816
  273MOL0     H35971   1.952   5.001  10.568 -0.1321 -1.3309 -0.1026
  273MOL0     H35972   1.727   4.986  10.458 -0.3156  2.4407 -0.8800
  273MOL0     H35973   1.738   4.813  10.086 -1.8833 -1.0392  0.7064
  273MOL0     H35974   1.642   4.950  10.014 -0.6419 -1.7696 -1.3958
  273MOL0     H35975   1.446   4.892  10.142  1.8526  3.1442 -3.4973
  273MOL0     H35976   1.539   4.755  10.216 -3.3116 -1.7885 -0.3350
  273MOL0     H35977   1.389   4.666  10.041  0.3257 -0.0238  1.4972
  273MOL0     H35978   1.553   4.677   9.973  3.1137  1.1878  2.0662
  273MOL0     H35979   1.356   4.908   9.941  0.2328  0.5749 -0.3043
  273MOL0     H35980   1.467   4.853   9.815 -3.4077  3.8028 -0.8604
  273MOL0     H35981   1.265   4.834   9.734 -2.8254  2.1621  2.3579
  273MOL0     H35982   1.200   4.750   9.875  0.7492  5.0197  1.5477
  273MOL0     H35983   1.327   4.536   9.817 -0.2927 -2.1690 -2.8055
  273MOL0     H35984   1.427   4.627   9.707  0.2946 -2.2851 -0.2319
  273MOL0     H35985   1.229   4.660   9.565 -0.1244  0.1058  1.1162
  273MOL0     H35986   1.280   4.491   9.590  1.0180  0.9055 -1.2520
  273MOL0     H35987   1.042   4.639   9.706  1.7932  0.8560  0.1684
  273MOL0     H35988   1.081   4.465   9.753 -1.1706  1.1087  0.7355
  273MOL0     H35989   0.856   4.378   9.652 -1.5949  2.9718  0.8814
  273MOL0     H35990   0.625   4.429   9.455 -1.3966 -1.2955 -0.5105
  273MOL0     H35991   0.710   4.275   9.430  1.7166  0.5198 -0.9269
  273MOL0     H35992   0.757   4.376   9.194 -0.0991  0.6672 -0.4569
  273MOL0     H35993   0.653   4.507   9.229  1.5191 -0.3058 -0.4729
  273MOL0     H35994   0.528   4.299   9.119 -1.2904 -0.6844 -0.3479
  273MOL0     H35995   0.557   4.216   9.267 -1.7458 -0.3715 -0.2795
  273MOL0     H35996   0.326   4.334   9.225  0.4805 -0.1275 -1.1693
  273MOL0     H35997   0.405   4.488   9.273 -2.3037 -0.2271  0.0977
  273MOL0     H35998   0.314   4.141   9.345  1.3240  5.0032 -1.3737
  273MOL0     H35999   0.080   4.043   9.408 -1.2498  0.5209 -3.0321
  273MOL0     H36000  -0.367   4.219   9.353 -1.3018  1.7098 -0.8255
  273MOL0     H36001  -0.596   4.165   9.366  1.0269  1.0500 -0.7991
  273MOL0     H36002  -0.813   4.100   9.445  0.9473  0.0826  0.5443
  273MOL0     H36003  -0.847   4.264   9.398  0.2438 -0.2445 -0.6579
  273MOL0     H36004  -1.030   4.284   9.540  0.2158 -0.0713  1.8644
  273MOL0     H36005  -0.989   4.136   9.624  1.6441  0.6464  1.2753
  273MOL0     H36006  -1.009   4.006   9.416  1.9798  0.5918 -0.9616
  273MOL0     H36007  -1.028   4.147   9.317  1.2819 -2.4373 -1.0167
  273MOL0     H36008  -1.222   4.090   9.546  3.0523 -0.2304  0.7844
  273MOL0     H36009  -1.229   4.216   9.437 -1.1606 -0.4330 -0.9011
  273MOL0     H36010  -1.246   3.920   9.379  0.1873  0.7808 -0.0223
  273MOL0     H36011  -1.262   4.024   9.244 -2.0441 -0.0767 -0.2482
  273MOL0     H36012  -1.435   4.031   9.491 -0.1237  1.7365  0.2998
  273MOL0     H36013  -1.477   3.917   9.374  2.6473 -0.7539  2.6670
  273MOL0     H36014  -1.505   4.228   9.346 -0.2573  1.1285 -0.7612
  273MOL0     H36015  -1.501   4.129   9.201  0.0905  0.1649 -0.3944
  273MOL0     H36016  -1.702   4.159   9.427  0.5538  1.8602 -0.0326
  273MOL0     H36017  -1.703   4.000   9.363  2.4970 -0.1364  0.1264
  273MOL0     H36018  -0.594   4.298   9.787 -0.7627  1.4398 -0.5671
  273MOL0     H36019  -0.348   4.308   9.766  0.6776  0.0061  0.4438
  273MOL0     H36020   0.013   4.412   9.639 -2.0015  0.3073 -2.4555
  273MOL0     H36021   0.248   4.476   9.584 -1.5004  0.4577  1.3968
  273MOL0     H36022   1.916   4.972  10.075  1.7304 -3.8834 -0.3769
  273MOL0     H36023   2.132   5.001  10.174  0.5372 -3.6543  0.4677
  273MOL0     H36024   2.409   5.088  10.388 -1.9427 -1.6485  0.8750
  273MOL0     H36025   2.657   5.073  10.395  0.4678 -0.4749  0.2011
  273MOL0     H36026   2.855   5.047  10.393 -0.2648 -0.6852 -1.4290
  273MOL0     H36027   2.823   4.884  10.331 -1.9030 -1.5823  1.9391
  273MOL0     H36028   3.070   4.950  10.490  1.1442  0.6753 -1.0165
  273MOL0     H36029   3.035   4.794  10.435 -0.0691  1.1499  4.0905
  273MOL0     H36030   3.096   5.048  10.306 -0.9550 -0.8143  4.2869
  273MOL0     H36031   3.016   4.923  10.202 -0.8623 -2.3829  1.8995
  273MOL0     H36032   3.267   4.847  10.354 -0.8193  1.0522  1.1076
  273MOL0     H36033   3.205   4.784  10.201  0.5009 -1.0114 -0.2312
  273MOL0     H36034   3.424   5.103  10.049 -0.0373 -2.1353 -3.1699
  273MOL0     H36035   2.627   4.746  10.672 -1.9263 -2.4381 -1.4526
  273MOL0     H36036   2.396   4.801  10.696 -4.5631  3.4444 -1.2320
  274MOL0     O36037   2.009  10.067   2.322  0.7873 -0.3438  0.7871
  274MOL0     C36038   2.051  10.120   2.415  0.9157  0.1985  0.5826
  274MOL0     O36039   1.991  10.119   2.543 -0.9369  0.2225 -0.1742
  274MOL0     C36040   1.866  10.067   2.547  0.0316 -0.2068  0.0627
  274MOL0     C36041   1.758  10.158   2.567  0.7906 -0.1604 -0.6688
  274MOL0     C36042   1.629  10.096   2.586  0.4400 -0.7920  0.8075
  274MOL0     C36043   1.607   9.957   2.598 -0.5898 -0.2316  0.1703
  274MOL0     O36044   1.489   9.888   2.605  0.7166  0.6205  0.2788
  274MOL0     C36045   1.358   9.955   2.605 -0.6455  0.2097 -0.1484
  274MOL0     C36046   1.243   9.845   2.585 -1.4274  0.4794  0.3434
  274MOL0     C36047   1.246   9.744   2.698  0.0976  0.1021 -0.3588
  274MOL0     C36048   1.151   9.629   2.674  0.2284 -0.0723 -0.6890
  274MOL0     C36049   1.133   9.542   2.793  0.6365 -0.1171 -0.4418
  274MOL0     C36050   1.013   9.574   2.887 -0.1499 -0.1914 -0.1722
  274MOL0     C36051   1.020   9.480   3.008 -0.8075  0.2462 -0.1730
  274MOL0     C36052   0.940   9.523   3.131 -0.4793  0.5788  0.4760
  274MOL0     N36053   0.791   9.511   3.127  0.1315  0.7292  0.1398
  274MOL0     C36054   0.694   9.611   3.117  0.1144  0.7734 -0.5776
  274MOL0     C36055   0.589   9.557   3.057 -0.1493 -0.3046 -0.4135
  274MOL0     C36056   0.459   9.608   2.997  0.0034  0.1478 -0.0041
  274MOL0     C36057   0.340   9.624   3.094 -0.7089 -0.7080 -0.3165
  274MOL0     C36058   0.322   9.500   3.180 -0.5397 -0.4549  0.1600
  274MOL0     C36059   0.202   9.505   3.263  0.2229  0.3782 -0.8367
  274MOL0     O36060   0.209   9.613   3.362 -0.1988  0.9831 -0.1176
  274MOL0     C36061   0.086   9.676   3.362 -0.6536  0.0326  0.7687
  274MOL0     C36062  -0.014   9.616   3.432 -0.2832  0.5957  0.3553
  274MOL0     C36063  -0.145   9.674   3.426  0.2103 -0.2314 -0.2543
  274MOL0     C36064  -0.172   9.804   3.362  0.5975 -0.1053 -0.6391
  274MOL0     C36065  -0.310   9.861   3.358  0.9071 -0.1398  0.0857
  274MOL0     O36066  -0.412   9.783   3.384 -0.4988 -0.6741  0.1811
  274MOL0     C36067  -0.533   9.835   3.395  0.6268  0.1862  0.2318
  274MOL0     C36068  -0.625   9.754   3.333  0.2312  0.1170  0.3947
  274MOL0     C36069  -0.758   9.790   3.328 -0.2963  1.4593 -0.0475
  274MOL0     C36070  -0.798   9.907   3.392  0.3970  0.9795  0.0058
  274MOL0     O36071  -0.930   9.948   3.387 -0.2927  0.7279 -0.6510
  274MOL0     C36072  -1.034   9.878   3.309  0.6005 -0.3913  0.2246
  274MOL0     C36073  -1.165   9.957   3.281 -0.0917 -0.4511 -0.7626
  274MOL0     C36074  -1.237  10.027   3.404 -0.6989 -0.1056  0.1958
  274MOL0     C36075  -1.357  10.114   3.360  0.0202 -0.3322 -0.1485
  274MOL0     C36076  -1.444  10.170   3.475 -0.5092 -0.4656 -0.5044
  274MOL0     C36077  -1.550  10.059   3.516  0.0668 -0.3146 -0.4789
  274MOL0     C36078  -1.664  10.130   3.580 -0.0561  0.3641 -0.0144
  274MOL0     C36079  -1.655  10.142   3.733  0.2895 -0.1806  0.2655
  274MOL0    Cl36080  -1.773  10.247   3.806  0.3962 -0.2369  0.2697
  274MOL0     C36081  -0.715   9.989   3.462 -0.4875 -0.4508  0.8184
  274MOL0     C36082  -0.577   9.951   3.464 -0.3745  0.5674 -1.0589
  274MOL0     O36083  -0.318   9.979   3.338  0.4357  0.2012 -0.1299
  274MOL0     C36084  -0.060   9.855   3.291  0.2840  0.2699  0.5877
  274MOL0     C36085   0.061   9.788   3.284  0.1813  0.9175  0.2799
  274MOL0     N36086   0.626   9.427   3.029 -0.4526 -0.8433  0.0914
  274MOL0     N36087   0.739   9.396   3.070  0.0342 -0.1790  0.8121
  274MOL0     C36088   1.721   9.873   2.569 -0.2458 -0.2655 -1.3789
  274MOL0     C36089   1.852   9.929   2.552  0.6183 -0.3646 -1.0468
  274MOL0     C36090   2.175  10.186   2.399 -0.1394 -0.1242 -0.7057
  274MOL0     C36091   2.231  10.255   2.506  1.5283  0.0354  0.7128
  274MOL0     C36092   2.361  10.313   2.493 -0.5857  0.7624  0.0737
  274MOL0     C36093   2.427  10.301   2.365  0.3155  1.1103  0.3478
  274MOL0     O36094   2.553  10.350   2.331 -0.0434  0.3732 -0.7181
  274MOL0     C36095   2.637  10.387   2.443 -0.4902 -1.0505  0.5529
  274MOL0     C36096   2.771  10.447   2.394  0.0650 -0.3131  1.0066
  274MOL0     C36097   2.849  10.501   2.508 -1.1445  0.1535 -0.0092
  274MOL0     C36098   2.982  10.554   2.466  0.4907  0.5315 -0.1896
  274MOL0     C36099   3.077  10.577   2.569 -0.8616 -0.7473  0.5664
  274MOL0     C36100   3.139  10.602   2.667 -0.1347 -0.4067 -0.5575
  274MOL0     C36101   2.360  10.239   2.260  0.7325 -0.4738  0.7439
  274MOL0     C36102   2.243  10.176   2.276 -0.8353 -0.4119  0.5062
  274MOL0     H36103   1.759  10.266   2.557 -0.5952  0.1045  1.4248
  274MOL0     H36104   1.538  10.154   2.576  1.6556  0.7305 -4.0428
  274MOL0     H36105   1.360  10.026   2.522 -1.0002  0.8805  0.4042
  274MOL0     H36106   1.344  10.006   2.701  1.6002 -2.7639  1.9563
  274MOL0     H36107   1.268   9.791   2.494  0.6827 -0.7584  1.5686
  274MOL0     H36108   1.147   9.895   2.569 -0.1383  2.4335 -1.7924
  274MOL0     H36109   1.218   9.788   2.794 -4.2184  0.2645 -1.4749
  274MOL0     H36110   1.348   9.705   2.698 -0.7016 -2.1544 -0.8932
  274MOL0     H36111   1.057   9.676   2.644  0.0832 -0.6023 -1.0830
  274MOL0     H36112   1.198   9.570   2.594  1.6060 -0.6471  0.4879
  274MOL0     H36113   1.231   9.527   2.839 -0.3778 -0.9446  1.5481
  274MOL0     H36114   1.108   9.442   2.757  1.9938 -0.8096  0.4470
  274MOL0     H36115   0.913   9.566   2.843 -1.3436  0.1650  2.3197
  274MOL0     H36116   1.030   9.675   2.926  1.7557 -0.7173  0.4887
  274MOL0     H36117   0.995   9.379   2.975 -0.2161  0.1063 -0.2113
  274MOL0     H36118   1.126   9.476   3.035 -0.1091 -1.0671 -2.8328
  274MOL0     H36119   0.970   9.623   3.164 -1.0194  0.8970  0.0104
  274MOL0     H36120   0.963   9.459   3.217 -0.9154 -0.8526 -0.4399
  274MOL0     H36121   0.708   9.717   3.135 -2.0271  1.8204 -4.1036
  274MOL0     H36122   0.427   9.538   2.920  2.2708  0.3971 -1.2584
  274MOL0     H36123   0.480   9.705   2.952  1.3103  0.2395  0.7383
  274MOL0     H36124   0.246   9.647   3.044 -2.0873 -1.5155  1.7960
  274MOL0     H36125   0.377   9.710   3.150 -1.3599  1.0402 -2.4587
  274MOL0     H36126   0.317   9.415   3.112 -2.0443 -0.4104  0.1907
  274MOL0     H36127   0.414   9.496   3.239  0.0738  2.2293 -0.4705
  274MOL0     H36128   0.215   9.414   3.323 -2.0607  0.9027  0.5990
  274MOL0     H36129   0.103   9.496   3.215 -0.8740 -1.5896  1.5276
  274MOL0     H36130   0.023   9.530   3.488  1.7424  0.4252 -1.1546
  274MOL0     H36131  -0.227   9.624   3.477  0.9565  0.1892  1.4215
  274MOL0     H36132  -0.593   9.658   3.294 -1.6904 -1.3393  2.1708
  274MOL0     H36133  -0.827   9.723   3.279 -2.3260  1.5576  2.4597
  274MOL0     H36134  -1.060   9.785   3.359  0.4445 -0.9031 -0.7940
  274MOL0     H36135  -0.998   9.855   3.208 -1.8662 -0.4408 -0.7153
  274MOL0     H36136  -1.231   9.892   3.222 -0.5920  0.6285 -1.4332
  274MOL0     H36137  -1.141  10.038   3.211 -1.6781 -3.3466 -5.0738
  274MOL0     H36138  -1.163  10.093   3.450 -0.2003 -0.9451  0.6243
  274MOL0     H36139  -1.270   9.964   3.487 -4.4624  0.5007 -0.6765
  274MOL0     H36140  -1.332  10.198   3.295 -0.8901  0.3781  0.3891
  274MOL0     H36141  -1.425  10.048   3.304 -1.5468  1.0161  0.0805
  274MOL0     H36142  -1.479  10.263   3.429  0.9238 -0.7069 -2.1815
  274MOL0     H36143  -1.379  10.200   3.558 -3.3108  4.2884  0.3560
  274MOL0     H36144  -1.509   9.986   3.586  0.9746  0.9418  0.3126
  274MOL0     H36145  -1.595   9.999   3.435 -0.9654 -2.2026  1.3860
  274MOL0     H36146  -1.679  10.233   3.547 -1.8567  0.4882  1.0340
  274MOL0     H36147  -1.759  10.078   3.561 -0.1712 -0.6328  2.7039
  274MOL0     H36148  -1.563  10.188   3.770 -1.2510  1.6417  2.0257
  274MOL0     H36149  -1.641  10.043   3.779  3.0929 -0.1018 -0.2381
  274MOL0     H36150  -0.753  10.085   3.494  1.9103  1.2132 -1.0111
  274MOL0     H36151  -0.509  10.027   3.502 -1.9066  1.7978 -0.6448
  274MOL0     H36152  -0.068   9.949   3.237  0.9115  0.7476  1.3018
  274MOL0     H36153   0.138   9.822   3.215  0.8562 -2.5077 -0.8379
  274MOL0     H36154   1.704   9.766   2.569  0.9541 -0.4795 -0.7071
  274MOL0     H36155   1.943   9.875   2.531  1.0109  0.1527 -0.6939
  274MOL0     H36156   2.206  10.262   2.611  0.1255  0.7995  0.3504
  274MOL0     H36157   2.420  10.359   2.571 -1.3087  2.3873 -0.3020
  274MOL0     H36158   2.661  10.288   2.482 -2.1890 -3.0941 -3.0501
  274MOL0     H36159   2.601  10.453   2.521  1.3992 -0.9981  1.4395
  274MOL0     H36160   2.831  10.366   2.349 -1.7335 -0.6418 -0.9465
  274MOL0     H36161   2.760  10.531   2.325  0.8374 -0.1198  1.1083
  274MOL0     H36162   2.858  10.421   2.582 -1.0326  0.2268  0.0579
  274MOL0     H36163   2.799  10.589   2.548  0.5426  1.6059 -0.9115
  274MOL0     H36164   3.035  10.488   2.397 -0.1472 -0.0917 -0.0921
  274MOL0     H36165   2.959  10.648   2.414  0.6209  1.3867  1.2369
  274MOL0     H36166   3.200  10.641   2.746 -0.1291  1.8755 -1.6025
  274MOL0     H36167   2.407  10.247   2.162 -2.1278  0.6901 -0.6527
  274MOL0     H36168   2.199  10.119   2.194 -0.5428  0.8304 -0.5447
  275MOL0     O36169   1.874   5.106   5.163  0.2452 -0.4098 -0.2975
  275MOL0     C36170   1.856   5.230   5.146 -0.1067  0.3782  0.5392
  275MOL0     O36171   1.755   5.278   5.084 -0.2113 -0.1934 -1.5766
  275MOL0     C36172   1.656   5.200   5.035  0.1631 -0.1705  0.8252
  275MOL0     C36173   1.580   5.118   5.118 -0.0918 -0.1375  0.6663
  275MOL0     C36174   1.470   5.045   5.073  0.1632 -0.8192  0.5270
  275MOL0     C36175   1.434   5.049   4.940 -0.6792 -0.8902  0.0368
  275MOL0     O36176   1.330   4.972   4.905 -0.7186 -0.5109  0.4446
  275MOL0     C36177   1.317   4.842   4.964 -0.5469  0.5117 -0.7435
  275MOL0     C36178   1.171   4.841   5.009  0.1699 -0.9683  0.0388
  275MOL0     C36179   1.120   4.695   4.981 -0.6096 -0.8847  0.2469
  275MOL0     C36180   0.970   4.702   5.008  1.1858 -0.5065  0.4490
  275MOL0     C36181   0.902   4.564   4.959 -0.1447 -0.0158 -0.5125
  275MOL0     C36182   0.748   4.556   4.970 -0.1365  0.0213 -0.5812
  275MOL0     C36183   0.665   4.641   4.870  0.0890 -0.3784  0.0619
  275MOL0     C36184   0.514   4.663   4.887  0.2873 -0.9204  0.0319
  275MOL0     N36185   0.454   4.573   4.983 -0.5938 -0.6044 -0.2306
  275MOL0     C36186   0.411   4.450   4.960  0.4259  0.3156  0.1024
  275MOL0     C36187   0.339   4.413   5.072  0.0399 -0.2017 -0.2907
  275MOL0     C36188   0.260   4.297   5.099 -0.1286  0.5605 -0.6791
  275MOL0     C36189   0.116   4.337   5.097 -0.2739 -0.4638 -0.1398
  275MOL0     C36190   0.039   4.210   5.127  0.6612 -0.3808  0.1678
  275MOL0     C36191  -0.117   4.220   5.115 -1.0600  0.6159  0.5678
  275MOL0     O36192  -0.159   4.203   4.979 -0.3727 -0.4910  0.0174
  275MOL0     C36193  -0.294   4.188   4.940 -0.8161 -0.5096 -0.1640
  275MOL0     C36194  -0.399   4.207   5.028 -0.1093 -0.5614 -0.7836
  275MOL0     C36195  -0.531   4.178   4.997  0.1135 -0.4501  0.7130
  275MOL0     C36196  -0.565   4.147   4.865 -0.3519 -0.7834 -0.2486
  275MOL0     C36197  -0.712   4.120   4.821  0.3889  0.1028  0.2839
  275MOL0     O36198  -0.752   4.120   4.688  0.0625  0.5082  0.3740
  275MOL0     C36199  -0.884   4.085   4.665 -0.3990  0.7780 -0.0413
  275MOL0     C36200  -0.972   4.168   4.606 -0.6517 -0.7220  0.0722
  275MOL0     C36201  -1.097   4.127   4.566  0.3862 -0.0698  0.1130
  275MOL0     C36202  -1.138   3.995   4.583  0.1750  0.5199  0.1181
  275MOL0     O36203  -1.267   3.950   4.558  0.0634  0.2251 -0.4154
  275MOL0     C36204  -1.370   4.042   4.553  0.0302 -0.4940 -0.3919
  275MOL0     C36205  -1.501   3.965   4.549 -0.3632  0.1723  0.3326
  275MOL0     C36206  -1.615   4.063   4.572 -0.0865 -0.1888 -0.5922
  275MOL0     C36207  -1.749   3.994   4.580  1.1434  0.4549 -0.0982
  275MOL0     C36208  -1.777   3.913   4.704 -0.1247  0.6754 -0.7892
  275MOL0     C36209  -1.923   3.867   4.709 -0.7914  0.8676 -1.0538
  275MOL0     C36210  -1.937   3.757   4.812  0.1265  0.3658  0.5427
  275MOL0     C36211  -2.074   3.687   4.798  0.0627  0.5278  0.1292
  275MOL0    Cl36212  -2.080   3.593   4.652  0.3379  0.0099  0.1226
  275MOL0     C36213  -1.046   3.906   4.640  0.0426 -0.0725  0.8291
  275MOL0     C36214  -0.922   3.948   4.685  0.1552  0.3857  0.6141
  275MOL0     O36215  -0.787   4.106   4.917 -0.5541 -0.2451  0.6530
  275MOL0     C36216  -0.461   4.137   4.774 -0.4309  0.3609 -0.1804
  275MOL0     C36217  -0.329   4.159   4.806 -0.4889 -0.6488  0.5579
  275MOL0     N36218   0.331   4.523   5.152 -0.5718  0.6097 -0.3487
  275MOL0     N36219   0.416   4.613   5.107 -0.5109 -0.3667 -0.4588
  275MOL0     C36220   1.517   5.131   4.850 -0.0370 -0.0063  0.1797
  275MOL0     C36221   1.620   5.211   4.892 -0.3226 -0.3068  1.2299
  275MOL0     C36222   1.948   5.322   5.207 -0.3112 -0.2928 -0.1744
  275MOL0     C36223   1.922   5.463   5.228  0.5079 -0.3504 -0.0508
  275MOL0     C36224   2.011   5.549   5.292  0.8811 -0.2808  0.9748
  275MOL0     C36225   2.132   5.495   5.331 -0.1661  0.1713  0.6473
  275MOL0     O36226   2.241   5.560   5.388 -0.0277  0.2310 -0.0735
  275MOL0     C36227   2.237   5.704   5.425  0.4507  0.9605 -0.3524
  275MOL0     C36228   2.169   5.739   5.556  0.4845  0.3767 -0.6402
  275MOL0     C36229   2.267   5.701   5.669  0.0241 -0.7999 -0.1284
  275MOL0     C36230   2.214   5.581   5.742  0.9753 -0.1414  0.5479
  275MOL0     C36231   2.280   5.564   5.868 -0.5551  0.2627  0.4093
  275MOL0     C36232   2.357   5.553   5.965 -0.0538 -0.0206  0.2260
  275MOL0     C36233   2.164   5.358   5.306  0.1266 -0.0055  0.1000
  275MOL0     C36234   2.070   5.279   5.241 -0.7473 -0.1665 -0.7935
  275MOL0     H36235   1.592   5.108   5.225  0.5348  0.1635  0.6301
  275MOL0     H36236   1.420   4.997   5.157  2.1120 -0.6544  1.8472
  275MOL0     H36237   1.383   4.829   5.050 -0.6613 -0.8977 -0.8574
  275MOL0     H36238   1.332   4.767   4.886 -0.8802  0.2792 -0.5865
  275MOL0     H36239   1.112   4.910   4.949  1.2866  3.6594  3.6404
  275MOL0     H36240   1.145   4.880   5.108  0.1772  0.0347 -0.3451
  275MOL0     H36241   1.180   4.618   5.032  0.0951 -0.1153  0.6105
  275MOL0     H36242   1.124   4.679   4.873 -1.5389 -1.6649  0.3188
  275MOL0     H36243   0.947   4.717   5.113 -3.1050 -3.0885  0.1367
  275MOL0     H36244   0.932   4.782   4.943  0.3686 -1.2721 -0.0448
  275MOL0     H36245   0.948   4.486   5.020 -1.6707 -0.5466  0.0159
  275MOL0     H36246   0.946   4.537   4.863  3.1389  0.7197  0.6598
  275MOL0     H36247   0.719   4.592   5.069 -0.9344 -0.6144 -0.5724
  275MOL0     H36248   0.722   4.450   4.972  2.6045 -0.7437  2.4296
  275MOL0     H36249   0.721   4.732   4.849  1.2603 -1.3742 -1.3137
  275MOL0     H36250   0.675   4.582   4.779 -0.4999  1.5639 -1.3138
  275MOL0     H36251   0.459   4.642   4.795 -1.3717  3.6128 -0.2741
  275MOL0     H36252   0.481   4.761   4.923  0.1448 -1.2720  0.8985
  275MOL0     H36253   0.439   4.396   4.870  0.3204  1.4378 -0.6273
  275MOL0     H36254   0.278   4.256   5.198 -1.6990 -2.6411 -1.5742
  275MOL0     H36255   0.281   4.210   5.035  0.3685 -1.2114  1.7606
  275MOL0     H36256   0.083   4.367   4.998 -2.1036 -1.5607  0.0853
  275MOL0     H36257   0.098   4.417   5.169  2.8500  1.6178 -1.5087
  275MOL0     H36258   0.077   4.127   5.066 -1.8052 -0.6346 -1.1385
  275MOL0     H36259   0.062   4.189   5.232  0.5504  0.7536  0.4239
  275MOL0     H36260  -0.161   4.313   5.153 -2.8718 -0.2991  0.8312
  275MOL0     H36261  -0.159   4.134   5.169 -1.0122 -0.0676 -0.4596
  275MOL0     H36262  -0.380   4.206   5.135 -1.1483  0.7734 -0.5546
  275MOL0     H36263  -0.600   4.169   5.081 -0.5838 -1.7600  0.0435
  275MOL0     H36264  -0.945   4.268   4.575  1.2788 -1.0971  0.4081
  275MOL0     H36265  -1.171   4.190   4.518  1.3364 -0.1192 -1.5030
  275MOL0     H36266  -1.364   4.104   4.462  0.2488 -0.7970 -0.5830
  275MOL0     H36267  -1.361   4.118   4.632  2.7482  3.9552 -4.4211
  275MOL0     H36268  -1.508   3.884   4.622 -2.6246  1.0266  1.1511
  275MOL0     H36269  -1.502   3.919   4.450  0.3444  2.4069 -0.7755
  275MOL0     H36270  -1.613   4.136   4.491 -0.0898  1.5570  0.9208
  275MOL0     H36271  -1.601   4.124   4.661  3.8614 -0.4290 -0.8633
  275MOL0     H36272  -1.832   4.063   4.561  0.3235 -0.8424 -1.3582
  275MOL0     H36273  -1.757   3.927   4.495 -0.2899 -0.7680  0.9501
  275MOL0     H36274  -1.753   3.972   4.793  0.0497 -1.2565  0.4999
  275MOL0     H36275  -1.703   3.832   4.707 -0.3693  0.4840  1.9519
  275MOL0     H36276  -1.964   3.833   4.613 -1.1342 -2.2437  0.0543
  275MOL0     H36277  -1.982   3.950   4.748 -1.5446 -0.6933  1.3887
  275MOL0     H36278  -1.856   3.685   4.795  1.2317  1.6203  0.3107
  275MOL0     H36279  -1.923   3.810   4.907  1.3723  1.4405 -0.1938
  275MOL0     H36280  -2.157   3.758   4.796 -2.7839 -2.5564  0.6799
  275MOL0     H36281  -2.103   3.604   4.863  1.9437 -2.4367 -2.4583
  275MOL0     H36282  -1.077   3.803   4.649  3.9839 -1.4283  1.0621
  275MOL0     H36283  -0.863   3.868   4.728  0.1561 -0.5840 -1.0970
  275MOL0     H36284  -0.485   4.096   4.677 -2.9903 -0.0347  0.5454
  275MOL0     H36285  -0.250   4.125   4.739 -0.5806 -1.1306  0.6882
  275MOL0     H36286   1.476   5.128   4.750 -2.4705  2.3907  0.9918
  275MOL0     H36287   1.676   5.277   4.826 -0.3272 -1.0785  0.4229
  275MOL0     H36288   1.833   5.516   5.197 -0.5740 -1.5232  0.9038
  275MOL0     H36289   1.980   5.650   5.317  1.1949 -0.8426  4.0970
  275MOL0     H36290   2.165   5.736   5.349 -1.0397 -1.4804 -0.0778
  275MOL0     H36291   2.340   5.740   5.418  1.3421 -1.6394 -1.8477
  275MOL0     H36292   2.143   5.845   5.567 -1.6215 -0.0013 -1.4561
  275MOL0     H36293   2.073   5.687   5.565  0.6085 -0.2931 -2.7585
  275MOL0     H36294   2.281   5.783   5.740  2.5468 -0.7669 -0.5877
  275MOL0     H36295   2.372   5.688   5.641  0.0108  0.7665 -1.0299
  275MOL0     H36296   2.106   5.590   5.755  0.8317 -0.1465 -0.5612
  275MOL0     H36297   2.222   5.496   5.674 -1.4269  0.0484 -0.0334
  275MOL0     H36298   2.433   5.570   6.039 -1.4680  1.0968  1.4879
  275MOL0     H36299   2.250   5.307   5.347 -1.4742 -1.8321  1.3362
  275MOL0     H36300   2.085   5.173   5.227  1.2597 -0.3975  2.3337
  276MOL0     O36301   3.801   2.925   6.634 -0.1691  0.7069  0.2137
  276MOL0     C36302   3.877   2.849   6.700 -0.0798  0.2380  0.5204
  276MOL0     O36303   3.908   2.869   6.829 -0.2537  0.0581  0.1514
  276MOL0     C36304   3.849   2.940   6.919 -0.2523 -0.8548 -0.1236
  276MOL0     C36305   3.926   2.972   7.027  0.7605 -0.0442 -0.1844
  276MOL0     C36306   3.876   3.060   7.122  0.0169 -0.1357 -0.4653
  276MOL0     C36307   3.737   3.090   7.124  0.1755  0.1332 -0.5765
  276MOL0     O36308   3.674   3.173   7.214  0.3604 -0.2605  0.7817
  276MOL0     C36309   3.580   3.103   7.306  0.1460 -0.5486  0.1575
  276MOL0     C36310   3.440   3.120   7.273  0.0002  0.0468  0.0154
  276MOL0     C36311   3.354   3.058   7.376 -0.0243  0.0616  0.0380
  276MOL0     C36312   3.204   3.091   7.347  0.6252  0.1207 -0.7205
  276MOL0     C36313   3.120   3.031   7.463  0.0416 -0.1453  0.2982
  276MOL0     C36314   2.978   3.083   7.473 -0.3248 -0.1364  0.6019
  276MOL0     C36315   2.907   3.026   7.589 -0.2203  0.5970 -0.0667
  276MOL0     C36316   2.770   3.097   7.592 -0.2470 -0.5040 -0.3783
  276MOL0     N36317   2.679   3.048   7.701 -0.5656 -0.0760  0.4120
  276MOL0     C36318   2.706   3.033   7.835 -0.3654 -0.2534 -0.4653
  276MOL0     C36319   2.593   2.973   7.887 -0.5589  0.0872 -1.3696
  276MOL0     C36320   2.537   2.968   8.029  0.0787  0.3122  0.1890
  276MOL0     C36321   2.487   2.829   8.059  0.0054 -0.3333 -0.0430
  276MOL0     C36322   2.354   2.845   8.134 -0.0747 -0.2541 -0.0474
  276MOL0     C36323   2.307   2.706   8.179 -0.4166 -0.1200 -0.2925
  276MOL0     O36324   2.215   2.732   8.280  0.4063 -0.3026 -0.4568
  276MOL0     C36325   2.086   2.779   8.257  0.3786  0.5793  0.2698
  276MOL0     C36326   2.024   2.767   8.135  1.1899 -0.4966 -0.3969
  276MOL0     C36327   1.890   2.810   8.127  0.8435 -0.0047 -0.2980
  276MOL0     C36328   1.832   2.885   8.224  0.5778  0.0164 -0.9905
  276MOL0     C36329   1.699   2.935   8.217  0.0698  0.1873  1.1304
  276MOL0     O36330   1.634   2.934   8.086 -0.0168  0.6168  0.2448
  276MOL0     C36331   1.507   2.994   8.096 -1.0514 -0.0999 -0.0391
  276MOL0     C36332   1.485   3.125   8.075  2.2117 -0.9675 -1.2109
  276MOL0     C36333   1.358   3.167   8.100 -0.8863 -0.4396 -0.2049
  276MOL0     C36334   1.253   3.090   8.151  1.1074 -0.1811  0.7846
  276MOL0     O36335   1.125   3.139   8.173 -0.0666 -0.4188 -0.0507
  276MOL0     C36336   1.073   3.270   8.118 -0.3477 -0.0525 -0.6159
  276MOL0     C36337   0.998   3.239   7.992  0.5526  0.6060 -1.4036
  276MOL0     C36338   0.904   3.345   7.944  0.0142 -0.6343 -0.1269
  276MOL0     C36339   0.795   3.403   8.037 -0.4276  0.1974 -0.8759
  276MOL0     C36340   0.693   3.485   7.963 -0.9231 -0.3511  0.0335
  276MOL0     C36341   0.594   3.565   8.045 -0.9540 -0.5189 -0.0370
  276MOL0     C36342   0.478   3.476   8.089  0.2220  0.1015 -0.3924
  276MOL0     C36343   0.397   3.540   8.204 -0.5596  0.0541 -0.7842
  276MOL0    Cl36344   0.335   3.690   8.137  0.2740  0.6188  0.0608
  276MOL0     C36345   1.274   2.953   8.177  0.3513  0.1151  0.4911
  276MOL0     C36346   1.401   2.907   8.148 -1.0964  0.1917  0.0269
  276MOL0     O36347   1.658   2.977   8.324  0.6252 -0.5830 -0.6958
  276MOL0     C36348   1.905   2.912   8.347  0.1306  0.5176 -0.4163
  276MOL0     C36349   2.032   2.858   8.360 -0.1430  0.2335  0.7916
  276MOL0     N36350   2.515   2.946   7.775  0.7001  0.3748  0.0838
  276MOL0     N36351   2.558   3.003   7.674  0.3950  0.2080  0.5099
  276MOL0     C36352   3.659   3.042   7.018  0.4945  1.0182  0.1559
  276MOL0     C36353   3.713   2.962   6.913 -0.6214 -0.3389 -0.9916
  276MOL0     C36354   3.951   2.746   6.617  0.0497 -0.2122 -0.2235
  276MOL0     C36355   3.960   2.765   6.474  0.5140  0.1241 -0.8597
  276MOL0     C36356   4.018   2.668   6.392 -0.4084 -0.1794  0.3860
  276MOL0     C36357   4.089   2.562   6.449 -0.5535 -0.6522  0.2514
  276MOL0     O36358   4.156   2.481   6.358 -0.1348 -0.4741 -0.4364
  276MOL0     C36359   4.226   2.366   6.410  0.0861  0.1289 -0.0215
  276MOL0     C36360   4.306   2.298   6.305  0.3044  0.5024  0.6992
  276MOL0     C36361   4.346   2.152   6.337  0.4851  0.0346  0.0418
  276MOL0     C36362   4.453   2.077   6.250  0.0836 -0.2309 -0.6647
  276MOL0     C36363   4.435   2.094   6.103 -0.9472  0.4952  0.1286
  276MOL0     C36364   4.420   2.106   5.981  0.1370 -0.2812  0.3339
  276MOL0     C36365   4.087   2.547   6.586 -0.3580 -0.1356  0.1629
  276MOL0     C36366   4.025   2.635   6.666  0.1374 -0.1050  0.1099
  276MOL0     H36367   4.028   2.936   7.023 -0.0704 -2.5093 -0.5674
  276MOL0     H36368   3.944   3.105   7.193  0.1268 -0.5676 -0.2956
  276MOL0     H36369   3.598   3.145   7.405  2.3611 -0.7714 -0.0953
  276MOL0     H36370   3.608   2.998   7.315 -0.1105 -0.5040  1.5994
  276MOL0     H36371   3.422   3.053   7.189 -1.8290 -0.9012  1.0889
  276MOL0     H36372   3.418   3.224   7.246  0.3185 -0.6756 -3.5002
  276MOL0     H36373   3.387   3.091   7.475  4.0127  1.4610 -1.5495
  276MOL0     H36374   3.372   2.950   7.380  0.3343  0.1543  1.4570
  276MOL0     H36375   3.193   3.200   7.345 -0.2956  0.0437 -2.8780
  276MOL0     H36376   3.168   3.050   7.252  0.6029  1.7169 -1.4434
  276MOL0     H36377   3.166   3.061   7.558  0.8672  0.3807 -0.2582
  276MOL0     H36378   3.119   2.922   7.471  3.8020 -0.1914  2.5597
  276MOL0     H36379   2.930   3.062   7.378 -1.3442 -0.4737  1.1785
  276MOL0     H36380   2.986   3.192   7.479 -0.5460 -0.0526 -0.4472
  276MOL0     H36381   2.882   2.921   7.567 -3.6131  1.0419  1.0237
  276MOL0     H36382   2.969   3.043   7.677 -0.9925 -1.6843  1.0123
  276MOL0     H36383   2.720   3.081   7.496 -2.0568 -2.1920  0.7846
  276MOL0     H36384   2.780   3.205   7.603 -1.0214 -0.5619  1.1933
  276MOL0     H36385   2.778   3.091   7.892 -1.6741 -1.8061  3.0156
  276MOL0     H36386   2.467   3.052   8.027  2.8122  2.7352 -0.4379
  276MOL0     H36387   2.616   2.995   8.099 -1.9246 -0.4308  2.9413
  276MOL0     H36388   2.554   2.777   8.128 -1.9855  0.1587  2.4064
  276MOL0     H36389   2.476   2.757   7.977 -1.3722 -0.1143 -0.0735
  276MOL0     H36390   2.380   2.893   8.229 -1.6957  2.5123 -0.8925
  276MOL0     H36391   2.277   2.904   8.084  0.7924  0.8554 -0.0978
  276MOL0     H36392   2.387   2.644   8.220  1.0865  0.8837 -1.5435
  276MOL0     H36393   2.262   2.650   8.097 -4.9284  1.6119  0.6908
  276MOL0     H36394   2.064   2.713   8.049  1.1773  0.3793 -0.9628
  276MOL0     H36395   1.843   2.793   8.031 -2.4082  0.8576  1.0032
  276MOL0     H36396   1.568   3.187   8.044  2.7146 -1.3237 -0.5915
  276MOL0     H36397   1.350   3.270   8.068  2.5155 -0.2021 -0.6257
  276MOL0     H36398   1.154   3.337   8.086 -0.1518 -0.2301 -0.4892
  276MOL0     H36399   1.005   3.302   8.197  1.0921 -0.5596  0.8841
  276MOL0     H36400   0.940   3.147   8.006  2.8515 -0.7695 -0.2172
  276MOL0     H36401   1.070   3.211   7.914  0.1651 -1.5093 -1.0785
  276MOL0     H36402   0.840   3.305   7.864 -2.8020  1.3495  0.9579
  276MOL0     H36403   0.973   3.419   7.903  1.9388 -3.1489 -1.7252
  276MOL0     H36404   0.738   3.328   8.092 -0.0967  1.2017  0.9007
  276MOL0     H36405   0.859   3.458   8.106  0.8602 -1.7847 -0.3943
  276MOL0     H36406   0.640   3.410   7.903 -0.1604 -0.0311 -1.0819
  276MOL0     H36407   0.735   3.550   7.885 -0.4705 -1.2620 -0.5101
  276MOL0     H36408   0.564   3.640   7.972 -0.3413 -0.4118 -0.1781
  276MOL0     H36409   0.642   3.619   8.127 -1.5621  0.5523 -0.3605
  276MOL0     H36410   0.407   3.453   8.009 -1.4904 -2.3839  1.6664
  276MOL0     H36411   0.508   3.383   8.140 -2.1199 -0.7350 -0.4269
  276MOL0     H36412   0.461   3.549   8.292 -3.2887  1.0135  1.2488
  276MOL0     H36413   0.324   3.472   8.248  1.4197 -0.5653  1.7211
  276MOL0     H36414   1.199   2.891   8.225 -2.1495  1.3267 -1.6078
  276MOL0     H36415   1.423   2.804   8.175 -3.4547 -0.1890  0.6798
  276MOL0     H36416   1.870   2.968   8.433 -1.0757 -0.9481  0.0842
  276MOL0     H36417   2.083   2.870   8.455 -2.8204 -0.4347  2.4114
  276MOL0     H36418   3.554   3.069   7.004  0.7309  3.9269  2.8423
  276MOL0     H36419   3.652   2.938   6.827  0.9643 -0.0009 -2.2498
  276MOL0     H36420   3.912   2.856   6.438 -5.4808 -3.0176 -2.2345
  276MOL0     H36421   4.030   2.701   6.289 -3.2982  2.7757  0.8184
  276MOL0     H36422   4.156   2.293   6.451 -0.1349 -1.1712 -2.5328
  276MOL0     H36423   4.299   2.388   6.488 -1.1458 -2.2362  1.9305
  276MOL0     H36424   4.236   2.286   6.222 -0.9427 -1.0656  1.9055
  276MOL0     H36425   4.391   2.361   6.278  0.1726 -1.1627 -4.9448
  276MOL0     H36426   4.251   2.099   6.323  0.0438  1.5710 -3.8009
  276MOL0     H36427   4.385   2.134   6.438  3.1950 -4.7661 -1.5477
  276MOL0     H36428   4.556   2.109   6.270 -0.7010  2.0565  0.0784
  276MOL0     H36429   4.465   1.977   6.291 -1.6425  0.9844  3.3004
  276MOL0     H36430   4.421   2.110   5.874  1.0861  0.9466  0.3672
  276MOL0     H36431   4.140   2.468   6.637 -0.0627  0.2056  0.3875
  276MOL0     H36432   4.034   2.640   6.774 -1.9663  2.1237  0.2750
  277MOL0     O36433   8.010   8.072   6.269  0.2462  0.3961  0.0975
  277MOL0     C36434   8.074   8.176   6.238 -0.2764 -0.3940  0.2492
  277MOL0     O36435   8.020   8.286   6.175  0.0459  0.1413  0.2763
  277MOL0     C36436   7.885   8.293   6.146 -0.1797  0.0210  0.5798
  277MOL0     C36437   7.857   8.427   6.107  0.4946 -0.0749 -0.3593
  277MOL0     C36438   7.732   8.460   6.053 -1.0756  0.3186 -0.3538
  277MOL0     C36439   7.631   8.365   6.042  0.4958 -0.0188 -0.2734
  277MOL0     O36440   7.498   8.402   5.998 -0.0159 -0.0868  0.1822
  277MOL0     C36441   7.384   8.313   5.981 -0.1496  0.1387 -0.3550
  277MOL0     C36442   7.276   8.405   5.919 -0.1627 -0.7231 -0.5686
  277MOL0     C36443   7.154   8.323   5.896 -0.2650 -0.4184 -0.5459
  277MOL0     C36444   7.058   8.375   5.789 -1.2234  0.1854 -0.2112
  277MOL0     C36445   6.961   8.263   5.736 -0.8834  0.4165  0.3197
  277MOL0     C36446   6.859   8.199   5.827 -0.2571  0.7864 -0.1120
  277MOL0     C36447   6.769   8.300   5.908 -0.1095 -0.0505  0.0299
  277MOL0     C36448   6.631   8.256   5.972  0.0590 -0.0934  0.0476
  277MOL0     N36449   6.558   8.137   5.922  0.4767  0.2134 -0.1652
  277MOL0     C36450   6.426   8.130   5.879  0.0091  0.5061 -0.2374
  277MOL0     C36451   6.406   7.999   5.854 -0.9714  0.5011  1.6050
  277MOL0     C36452   6.281   7.934   5.805  0.3980 -0.0918 -0.2772
  277MOL0     C36453   6.196   7.854   5.911  0.5859 -0.1267  0.0861
  277MOL0     C36454   6.053   7.805   5.863  0.3204 -0.7456  0.5177
  277MOL0     C36455   5.962   7.925   5.814  0.4622  0.6167 -0.4515
  277MOL0     O36456   5.837   7.869   5.764  0.4458 -0.2341 -0.7241
  277MOL0     C36457   5.721   7.937   5.794 -0.8098  0.4642  0.8346
  277MOL0     C36458   5.706   8.074   5.817  0.1168  0.2755  0.7357
  277MOL0     C36459   5.572   8.122   5.822 -0.1137  0.8977  0.3234
  277MOL0     C36460   5.457   8.036   5.831  0.3861 -0.2941  0.3387
  277MOL0     C36461   5.318   8.084   5.859 -0.4144 -0.0811  0.1432
  277MOL0     O36462   5.229   7.985   5.896  0.3937 -0.2483 -0.4001
  277MOL0     C36463   5.109   8.016   5.954 -0.4873  0.0179  0.5330
  277MOL0     C36464   5.100   8.094   6.068 -0.3938 -0.4924  0.3305
  277MOL0     C36465   4.975   8.105   6.130 -0.0827 -0.2403 -0.1166
  277MOL0     C36466   4.853   8.038   6.079  0.5587  0.1666 -0.4400
  277MOL0     O36467   4.726   8.074   6.115  0.0910 -0.4932 -0.8802
  277MOL0     C36468   4.718   8.166   6.224 -0.0141 -0.6203  0.1698
  277MOL0     C36469   4.572   8.201   6.244 -0.0842 -0.2601 -0.6691
  277MOL0     C36470   4.473   8.083   6.235  0.5392  0.0653  0.4648
  277MOL0     C36471   4.325   8.121   6.248  0.4429  0.6936  0.2683
  277MOL0     C36472   4.277   8.164   6.392  0.6014  0.4258  0.1093
  277MOL0     C36473   4.171   8.284   6.384 -0.3305  0.6609 -0.6152
  277MOL0     C36474   4.171   8.373   6.509  0.7283  0.0658  0.4021
  277MOL0     C36475   4.295   8.459   6.518  0.3521  0.0120 -0.1068
  277MOL0    Cl36476   4.256   8.609   6.612 -0.5286 -0.0010  0.1482
  277MOL0     C36477   4.870   7.956   5.970  0.7233 -0.2878  0.0220
  277MOL0     C36478   4.997   7.943   5.913 -0.3228 -0.1550 -0.2139
  277MOL0     O36479   5.286   8.206   5.845 -0.3751 -0.1381  0.0876
  277MOL0     C36480   5.478   7.900   5.819 -0.9322 -0.8049  0.5719
  277MOL0     C36481   5.608   7.853   5.793 -0.5476  1.3503 -0.7724
  277MOL0     N36482   6.526   7.923   5.873  0.2408  0.8257  0.6510
  277MOL0     N36483   6.610   8.006   5.928 -0.0750 -0.0335 -0.3363
  277MOL0     C36484   7.656   8.233   6.085 -0.5540 -0.9480 -0.0656
  277MOL0     C36485   7.778   8.198   6.138 -0.4967 -0.0323 -0.2669
  277MOL0     C36486   8.223   8.179   6.247 -0.3134  0.5250  0.3642
  277MOL0     C36487   8.295   8.292   6.213  0.5671 -0.4186  0.2187
  277MOL0     C36488   8.432   8.277   6.190 -0.5966 -0.6103 -0.3870
  277MOL0     C36489   8.496   8.161   6.220  0.5951  0.1461  0.3431
  277MOL0     O36490   8.634   8.143   6.216  1.0758 -0.9731 -0.4785
  277MOL0     C36491   8.714   8.251   6.170 -0.6112  0.1300 -0.0302
  277MOL0     C36492   8.862   8.221   6.206  0.1112  0.5089  0.3611
  277MOL0     C36493   8.950   8.349   6.182  0.0773  0.1801 -0.2595
  277MOL0     C36494   8.978   8.370   6.038 -0.8248 -0.3438  0.3136
  277MOL0     C36495   9.050   8.498   6.006  0.3443  0.0482  0.0422
  277MOL0     C36496   9.100   8.606   6.000  0.7232 -0.4001 -0.5675
  277MOL0     C36497   8.429   8.065   6.289 -0.1336  0.2615 -0.4204
  277MOL0     C36498   8.292   8.063   6.300  0.3141 -0.3694  0.1266
  277MOL0     H36499   7.937   8.501   6.107 -0.2188  0.7909  2.0884
  277MOL0     H36500   7.720   8.561   6.016  2.7659  0.4714 -1.7112
  277MOL0     H36501   7.344   8.279   6.077  1.1515  2.1740  1.0156
  277MOL0     H36502   7.409   8.233   5.911  3.5017  1.2528 -0.5332
  277MOL0     H36503   7.323   8.437   5.825 -0.7862  1.1334 -0.3041
  277MOL0     H36504   7.257   8.494   5.981 -1.2295 -0.5674 -1.1010
  277MOL0     H36505   7.105   8.339   5.992 -0.6330 -0.6282 -0.6930
  277MOL0     H36506   7.195   8.224   5.870 -2.2714 -1.2032 -0.9278
  277MOL0     H36507   7.002   8.449   5.847  0.4247  0.7517  0.7519
  277MOL0     H36508   7.113   8.423   5.707  0.8284 -0.2589  0.8350
  277MOL0     H36509   7.017   8.179   5.693 -0.8079  0.3735  0.5045
  277MOL0     H36510   6.898   8.300   5.654 -1.2963 -2.0512 -0.5747
  277MOL0     H36511   6.915   8.146   5.905 -0.3527 -0.0517 -0.6017
  277MOL0     H36512   6.797   8.123   5.777  1.4466 -0.3386 -0.6186
  277MOL0     H36513   6.832   8.353   5.980 -0.4305 -0.7980  0.8823
  277MOL0     H36514   6.737   8.370   5.829  4.2855  3.1996  0.7310
  277MOL0     H36515   6.567   8.344   5.978  0.0413 -0.1597  0.9033
  277MOL0     H36516   6.655   8.229   6.075 -2.0576 -0.3098  0.5213
  277MOL0     H36517   6.347   8.202   5.865  0.0606  0.4748 -0.6927
  277MOL0     H36518   6.298   7.874   5.714  0.6356  1.3346 -1.2107
  277MOL0     H36519   6.222   8.017   5.766  0.3956 -0.4684 -1.1026
  277MOL0     H36520   6.183   7.916   6.000 -0.7930  0.9690 -0.8310
  277MOL0     H36521   6.250   7.759   5.922  0.6410  0.0296  1.2523
  277MOL0     H36522   6.076   7.726   5.791 -1.6204  0.2458 -1.2975
  277MOL0     H36523   5.995   7.765   5.947 -0.7635  0.9218  0.6202
  277MOL0     H36524   6.015   7.974   5.732  0.2534 -0.1789 -1.0731
  277MOL0     H36525   5.953   7.983   5.907  0.3038 -2.4075  1.5762
  277MOL0     H36526   5.787   8.146   5.809  0.3185 -0.1575 -2.0318
  277MOL0     H36527   5.564   8.227   5.849 -0.1661  0.1079  3.8987
  277MOL0     H36528   5.184   8.154   6.103  0.5337 -2.6418  1.9968
  277MOL0     H36529   4.990   8.176   6.211 -0.2375  1.3475 -1.4413
  277MOL0     H36530   4.781   8.254   6.209  2.6338 -2.3003  0.7321
  277MOL0     H36531   4.758   8.111   6.310  2.8854 -4.7251 -3.3627
  277MOL0     H36532   4.539   8.285   6.183  3.9232  2.2626  0.2805
  277MOL0     H36533   4.578   8.238   6.346 -0.5232 -2.3191  0.1617
  277MOL0     H36534   4.502   7.994   6.292  0.2167 -0.3849 -0.0620
  277MOL0     H36535   4.474   8.042   6.134 -0.6665 -2.5301  1.4218
  277MOL0     H36536   4.322   8.207   6.180 -2.3548  1.2408  0.9507
  277MOL0     H36537   4.267   8.039   6.207 -0.3364  0.6257  1.4787
  277MOL0     H36538   4.368   8.184   6.450  2.3255 -2.5425 -1.3144
  277MOL0     H36539   4.246   8.068   6.435 -0.8931 -1.6090 -4.7613
  277MOL0     H36540   4.075   8.233   6.383  0.8381 -1.7066 -2.6522
  277MOL0     H36541   4.188   8.342   6.293 -2.8924  1.9433 -0.3498
  277MOL0     H36542   4.084   8.440   6.515 -0.5159 -1.5971  2.9423
  277MOL0     H36543   4.154   8.311   6.598 -4.2966  0.2171 -0.1397
  277MOL0     H36544   4.339   8.491   6.422  2.4969  0.7944  1.0621
  277MOL0     H36545   4.371   8.413   6.581 -1.6035 -0.6495  1.8807
  277MOL0     H36546   4.794   7.895   5.922  1.3163 -0.4300 -0.7535
  277MOL0     H36547   4.998   7.878   5.825 -1.6193 -1.0126  0.3712
  277MOL0     H36548   5.395   7.831   5.834 -0.1710 -1.5472  1.4809
  277MOL0     H36549   5.627   7.748   5.778  1.9544  1.8312 -1.3002
  277MOL0     H36550   7.581   8.154   6.094 -0.4260 -0.8206  3.2544
  277MOL0     H36551   7.795   8.102   6.184  0.4829  1.9399  4.0223
  277MOL0     H36552   8.254   8.388   6.183  0.4966 -0.2922  0.7201
  277MOL0     H36553   8.489   8.355   6.140 -1.9411 -0.2222 -1.4136
  277MOL0     H36554   8.690   8.345   6.220 -0.8911  0.9293 -1.6186
  277MOL0     H36555   8.702   8.274   6.064  2.6838  1.4303 -0.2463
  277MOL0     H36556   8.858   8.190   6.311 -0.0376  1.8522  0.7669
  277MOL0     H36557   8.901   8.134   6.154  0.1781  0.0649  1.1327
  277MOL0     H36558   9.039   8.340   6.246 -0.4423 -0.2251  0.4223
  277MOL0     H36559   8.890   8.430   6.224 -1.0140 -2.0399  2.8125
  277MOL0     H36560   9.044   8.288   6.011 -1.6994 -1.8045  2.3584
  277MOL0     H36561   8.886   8.360   5.980 -2.1407  1.3798  1.9866
  277MOL0     H36562   9.141   8.704   6.004  1.5961 -0.7727  2.6779
  277MOL0     H36563   8.482   7.973   6.315 -0.3484  0.2906  0.1421
  277MOL0     H36564   8.250   7.971   6.339 -0.8063 -0.0982 -0.3987
  278MOL0     O36565  10.686   0.616   2.336 -0.3949 -0.2145 -0.4041
  278MOL0     C36566  10.650   0.499   2.328  0.6371  0.7517 -0.9079
  278MOL0     O36567  10.519   0.458   2.312 -0.2152 -0.5940  0.8104
  278MOL0     C36568  10.412   0.538   2.267  0.2253  0.3046 -0.0100
  278MOL0     C36569  10.290   0.479   2.277  0.1415  1.1403  0.2450
  278MOL0     C36570  10.178   0.540   2.229  0.3291  0.3226  0.3226
  278MOL0     C36571  10.182   0.667   2.179 -0.0209  0.6297 -0.3010
  278MOL0     O36572  10.067   0.734   2.132 -0.2282 -0.2795  0.0097
  278MOL0     C36573   9.935   0.703   2.183 -0.8056  0.6013  0.8247
  278MOL0     C36574   9.827   0.781   2.103 -0.2241  1.1900  0.1924
  278MOL0     C36575   9.700   0.782   2.181  0.4462 -0.7382 -0.4778
  278MOL0     C36576   9.598   0.871   2.111  0.2671  0.2237 -0.5906
  278MOL0     C36577   9.468   0.855   2.188 -0.2896 -0.1855  0.0905
  278MOL0     C36578   9.355   0.935   2.117 -0.7600  0.4487 -0.0563
  278MOL0     C36579   9.230   0.926   2.194  0.6209 -0.6551 -0.1528
  278MOL0     C36580   9.229   1.019   2.320 -0.1535  0.5801 -0.2643
  278MOL0     N36581   9.092   1.057   2.348 -0.4915 -0.1123  0.1139
  278MOL0     C36582   9.012   1.006   2.452  0.1283 -0.6206  0.4819
  278MOL0     C36583   8.895   1.060   2.434  0.5531 -0.1025 -0.8262
  278MOL0     C36584   8.767   1.017   2.498 -0.8785 -0.7340  0.2229
  278MOL0     C36585   8.736   0.863   2.486  0.1826  0.7224  0.6894
  278MOL0     C36586   8.736   0.810   2.340  0.2773  1.1832 -0.0278
  278MOL0     C36587   8.597   0.837   2.286  0.2858 -0.1281  0.3614
  278MOL0     O36588   8.500   0.739   2.316 -0.0427  0.5963  0.2735
  278MOL0     C36589   8.375   0.757   2.249  0.8007  1.0581 -0.9597
  278MOL0     C36590   8.335   0.876   2.171  0.1968 -0.2700 -0.3145
  278MOL0     C36591   8.202   0.879   2.131  0.8481 -0.6076 -0.2752
  278MOL0     C36592   8.107   0.775   2.155 -0.9747 -0.4918 -0.3459
  278MOL0     C36593   7.967   0.792   2.105 -0.5101  0.4760  0.3221
  278MOL0     O36594   7.940   0.895   2.020  0.4170 -0.5044  0.4130
  278MOL0     C36595   7.840   0.880   1.922  0.0267  0.4550 -0.1893
  278MOL0     C36596   7.733   0.966   1.920  0.2833 -0.2537 -0.0539
  278MOL0     C36597   7.634   0.964   1.817  0.0913  0.1421 -0.2314
  278MOL0     C36598   7.638   0.859   1.727  0.1720 -0.3977 -0.6265
  278MOL0     O36599   7.535   0.844   1.631 -0.7333  0.4205 -0.1688
  278MOL0     C36600   7.406   0.804   1.681  1.3032  0.1495  0.3197
  278MOL0     C36601   7.409   0.656   1.703 -0.8123 -0.4341  0.2426
  278MOL0     C36602   7.263   0.594   1.706 -0.5772  0.6265 -0.9876
  278MOL0     C36603   7.267   0.441   1.732  0.3329 -0.4670 -0.2091
  278MOL0     C36604   7.129   0.380   1.714  0.4155  0.0784  0.4958
  278MOL0     C36605   7.078   0.361   1.568 -0.2169 -0.1417  0.2741
  278MOL0     C36606   6.932   0.335   1.564 -0.0638  0.2045 -0.2972
  278MOL0     C36607   6.888   0.295   1.417  0.4127 -0.9126  0.0448
  278MOL0    Cl36608   6.706   0.274   1.424 -0.6677 -0.1438 -0.0800
  278MOL0     C36609   7.737   0.761   1.740  0.2525  0.5398 -0.0630
  278MOL0     C36610   7.841   0.770   1.833  0.5611 -0.3081 -0.8059
  278MOL0     O36611   7.882   0.717   2.152  0.0374 -0.6045  0.4521
  278MOL0     C36612   8.155   0.659   2.209 -0.5402 -0.2173  0.0540
  278MOL0     C36613   8.288   0.652   2.259  0.1059 -0.0254 -0.5161
  278MOL0     N36614   8.894   1.126   2.312  0.7708 -0.2633 -0.8846
  278MOL0     N36615   9.014   1.139   2.267  0.2713 -0.4231  0.5014
  278MOL0     C36616  10.301   0.728   2.158 -0.3322 -1.3857  0.0973
  278MOL0     C36617  10.416   0.663   2.203 -0.1147 -0.7266 -0.4299
  278MOL0     C36618  10.744   0.388   2.313 -0.4275 -0.5081  0.0946
  278MOL0     C36619  10.705   0.258   2.284  0.4250 -0.5776 -0.2609
  278MOL0     C36620  10.793   0.159   2.279  0.2399 -0.2747  0.9275
  278MOL0     C36621  10.930   0.178   2.293 -0.3345  0.2107 -0.4071
  278MOL0     O36622  11.023   0.076   2.295 -0.0028  0.1451  0.0735
  278MOL0     C36623  10.986  -0.064   2.297  0.6704 -0.3020  0.1043
  278MOL0     C36624  11.108  -0.151   2.286  0.1673  0.7433 -0.2523
  278MOL0     C36625  11.220  -0.117   2.388 -0.1437  0.1339 -0.2344
  278MOL0     C36626  11.310  -0.225   2.432 -0.4505 -0.4242  0.6108
  278MOL0     C36627  11.437  -0.159   2.472 -0.9823  0.2807 -0.6597
  278MOL0     C36628  11.541  -0.111   2.493  0.1511  0.1102 -0.5631
  278MOL0     C36629  10.975   0.308   2.301 -0.3179 -0.1183 -0.2426
  278MOL0     C36630  10.883   0.409   2.316 -0.4007 -0.0347  0.2198
  278MOL0     H36631  10.283   0.378   2.316 -0.4421  0.3773 -1.7310
  278MOL0     H36632  10.085   0.483   2.231 -0.0831  0.9286 -0.6227
  278MOL0     H36633   9.948   0.727   2.289 -0.5315 -0.0042  0.9312
  278MOL0     H36634   9.914   0.597   2.169  0.4136  0.3366  0.9017
  278MOL0     H36635   9.811   0.734   2.006 -0.1466 -3.9615  2.3066
  278MOL0     H36636   9.864   0.883   2.098  2.8108  0.3452  2.3603
  278MOL0     H36637   9.708   0.824   2.283 -1.6752 -0.9670 -0.1743
  278MOL0     H36638   9.654   0.683   2.188  0.5879 -0.7561  0.3112
  278MOL0     H36639   9.633   0.974   2.114 -1.4759  0.8359  0.5733
  278MOL0     H36640   9.583   0.827   2.012 -0.6747  0.9943 -0.8063
  278MOL0     H36641   9.480   0.890   2.291  1.5753 -2.2511  0.6448
  278MOL0     H36642   9.435   0.751   2.187  4.4431 -1.9420  1.2697
  278MOL0     H36643   9.334   0.899   2.016 -2.7016  2.5395 -0.4823
  278MOL0     H36644   9.376   1.042   2.105 -0.5844  0.4183 -0.0357
  278MOL0     H36645   9.160   0.965   2.119 -0.8890 -1.8089  0.6393
  278MOL0     H36646   9.216   0.824   2.229  0.0657 -0.9490 -1.1876
  278MOL0     H36647   9.290   1.108   2.305  1.2894 -0.1758  0.8179
  278MOL0     H36648   9.275   0.965   2.403 -0.5626  0.7905  0.1037
  278MOL0     H36649   9.049   0.930   2.519  0.3139 -2.0471 -1.1480
  278MOL0     H36650   8.673   1.068   2.476 -0.4672 -0.0022  0.1123
  278MOL0     H36651   8.804   1.033   2.599 -1.4317 -1.0026  0.4698
  278MOL0     H36652   8.643   0.829   2.531  0.9975 -3.1195 -0.1492
  278MOL0     H36653   8.809   0.804   2.542  0.4915 -1.8915 -2.1944
  278MOL0     H36654   8.807   0.851   2.268  1.3542 -1.0291 -0.3028
  278MOL0     H36655   8.755   0.702   2.334 -0.5125  0.9782  0.8681
  278MOL0     H36656   8.593   0.849   2.177 -0.4050 -0.4237  0.3489
  278MOL0     H36657   8.566   0.929   2.336  1.9557 -0.0755  1.3870
  278MOL0     H36658   8.411   0.951   2.151  1.7306 -1.5174  0.6357
  278MOL0     H36659   8.170   0.960   2.067 -1.7834 -0.5311  1.0036
  278MOL0     H36660   7.728   1.049   1.990  1.9244  1.6231 -1.9887
  278MOL0     H36661   7.574   1.052   1.795 -0.3453 -0.5720 -2.0752
  278MOL0     H36662   7.339   0.820   1.596  1.6328  1.0414  0.2192
  278MOL0     H36663   7.364   0.856   1.768 -1.5167 -0.0047 -0.8175
  278MOL0     H36664   7.462   0.635   1.797 -1.5229  3.2278  1.6446
  278MOL0     H36665   7.469   0.607   1.626 -3.3909 -4.5117  0.5205
  278MOL0     H36666   7.224   0.610   1.606 -0.6826 -0.4937 -1.1422
  278MOL0     H36667   7.206   0.645   1.784  1.7901 -0.7909  1.9055
  278MOL0     H36668   7.337   0.403   1.656  1.1125  1.0107 -0.2593
  278MOL0     H36669   7.313   0.417   1.828  1.2760 -3.4030 -1.2695
  278MOL0     H36670   7.053   0.441   1.765 -1.6843 -0.7165 -1.4864
  278MOL0     H36671   7.128   0.283   1.764  0.2878  0.7466  1.8197
  278MOL0     H36672   7.141   0.286   1.520  0.0768  0.4269 -0.2414
  278MOL0     H36673   7.090   0.456   1.515  1.1135  0.5762  1.7699
  278MOL0     H36674   6.919   0.250   1.632  1.8424 -0.1342 -0.2927
  278MOL0     H36675   6.878   0.426   1.590 -2.8216 -0.9142 -1.6739
  278MOL0     H36676   6.938   0.205   1.382  0.6787 -1.1306  0.9592
  278MOL0     H36677   6.918   0.357   1.331 -1.5063 -2.8492 -2.1369
  278MOL0     H36678   7.741   0.677   1.670 -0.6643  0.5320 -0.1178
  278MOL0     H36679   7.918   0.694   1.844  1.2156  0.6770  3.4861
  278MOL0     H36680   8.081   0.580   2.221 -1.6836  0.5561 -1.5769
  278MOL0     H36681   8.325   0.562   2.307  3.0648  2.3665  2.1638
  278MOL0     H36682  10.304   0.822   2.103 -1.6297 -0.3977  1.6249
  278MOL0     H36683  10.511   0.715   2.197 -1.1629  1.7810  2.4965
  278MOL0     H36684  10.600   0.235   2.267  0.0533  0.7091  0.1118
  278MOL0     H36685  10.745   0.064   2.255  0.2302 -0.0930  0.1887
  278MOL0     H36686  10.913  -0.070   2.216 -2.0457  0.4921  2.3350
  278MOL0     H36687  10.925  -0.093   2.383  0.3176 -1.4546 -0.5047
  278MOL0     H36688  11.084  -0.256   2.302  1.9814  0.5869  1.9142
  278MOL0     H36689  11.146  -0.150   2.184  1.5313 -1.7333  0.1647
  278MOL0     H36690  11.160  -0.069   2.466  2.5616  1.6367  1.0451
  278MOL0     H36691  11.289  -0.040   2.353  2.1516 -0.6019  2.3241
  278MOL0     H36692  11.261  -0.288   2.507 -2.8605  0.4960 -0.1010
  278MOL0     H36693  11.328  -0.282   2.341 -0.4313  1.2842 -0.5103
  278MOL0     H36694  11.639  -0.071   2.503  0.9916 -1.7273 -0.9492
  278MOL0     H36695  11.079   0.340   2.301 -0.2417 -0.2820  1.5511
  278MOL0     H36696  10.928   0.507   2.328  0.5810 -0.2209 -1.5141
  279MOL0     O36697  10.993   5.597   1.285  0.0531 -0.9954 -0.2645
  279MOL0     C36698  11.084   5.552   1.214 -0.0633  0.2949  0.1753
  279MOL0     O36699  11.109   5.581   1.080 -0.4322 -0.3647 -0.6112
  279MOL0     C36700  11.035   5.659   1.001  0.0169  0.8651  0.1312
  279MOL0     C36701  10.911   5.730   1.025  0.2006  0.2326 -1.4120
  279MOL0     C36702  10.853   5.807   0.920  0.1477  0.2565  0.9936
  279MOL0     C36703  10.907   5.818   0.792  0.3118  0.2745 -0.1938
  279MOL0     O36704  10.856   5.897   0.691 -0.2304 -0.2095  0.5064
  279MOL0     C36705  10.716   5.922   0.685 -0.6993  0.5957  0.1021
  279MOL0     C36706  10.683   5.946   0.544  0.3567  0.2623  0.1096
  279MOL0     C36707  10.540   5.991   0.521 -0.2862 -0.7137  0.1366
  279MOL0     C36708  10.486   6.105   0.612 -0.1379  0.2019  0.8115
  279MOL0     C36709  10.332   6.113   0.590 -1.2333 -0.8907 -0.4984
  279MOL0     C36710  10.261   5.997   0.655 -0.6623  0.4165  0.2854
  279MOL0     C36711  10.112   6.005   0.638  0.7217  0.2637  0.5290
  279MOL0     C36712  10.062   6.017   0.489  0.3300  0.7968 -0.6252
  279MOL0     N36713  10.106   5.902   0.408 -0.0889  0.4451  0.5861
  279MOL0     C36714  10.045   5.775   0.389 -0.1945 -1.0262 -1.6085
  279MOL0     C36715  10.131   5.715   0.298  0.5952  0.0595 -0.0365
  279MOL0     C36716  10.110   5.579   0.229  0.3212 -1.2754 -0.3354
  279MOL0     C36717  10.173   5.458   0.299  0.7671  0.2016  1.4305
  279MOL0     C36718  10.324   5.480   0.322  0.5286 -0.6056 -0.5083
  279MOL0     C36719  10.386   5.347   0.375  0.7987  1.1739  0.3622
  279MOL0     O36720  10.472   5.374   0.483  0.1912  0.2821  0.4056
  279MOL0     C36721  10.604   5.386   0.452 -0.5629  0.9451  0.6769
  279MOL0     C36722  10.662   5.479   0.362 -0.3998 -0.2300 -0.9372
  279MOL0     C36723  10.800   5.499   0.342  0.1650  0.1540 -0.1092
  279MOL0     C36724  10.888   5.410   0.404 -0.2152 -0.3772  0.4302
  279MOL0     C36725  11.036   5.433   0.383  0.1498  0.2021 -1.4424
  279MOL0     O36726  11.075   5.513   0.279  0.2745 -1.0786 -0.2944
  279MOL0     C36727  11.202   5.565   0.281 -0.0733  0.3607  0.6054
  279MOL0     C36728  11.219   5.699   0.240 -1.4997 -0.6884  0.7524
  279MOL0     C36729  11.355   5.753   0.224  0.2350  0.4920 -0.0690
  279MOL0     C36730  11.462   5.666   0.240 -0.0613  0.7685 -0.4755
  279MOL0     O36731  11.580   5.737   0.231  0.1619 -0.1571 -0.2326
  279MOL0     C36732  11.674   5.697   0.336  0.3529 -0.4310  0.4303
  279MOL0     C36733  11.793   5.796   0.322 -0.9126  0.0942  0.0979
  279MOL0     C36734  11.891   5.779   0.431 -0.7073  0.3145 -0.8990
  279MOL0     C36735  12.019   5.850   0.386  0.1087 -0.7437 -0.1868
  279MOL0     C36736  12.114   5.854   0.511  0.3118  0.2701 -0.4944
  279MOL0     C36737  12.178   5.720   0.534  0.0121 -0.3854  0.3848
  279MOL0     C36738  12.272   5.734   0.654  0.2064  0.0138 -0.2358
  279MOL0     C36739  12.330   5.598   0.678  0.2214  0.2259 -0.3838
  279MOL0    Cl36740  12.407   5.595   0.843 -0.0265  0.2741 -0.2316
  279MOL0     C36741  11.438   5.528   0.275  0.3221  0.2150 -0.1794
  279MOL0     C36742  11.310   5.477   0.292 -0.0471  0.0029 -0.2739
  279MOL0     O36743  11.103   5.404   0.477  0.1876 -0.3108  1.0874
  279MOL0     C36744  10.841   5.315   0.490  0.3963  0.5816  0.1270
  279MOL0     C36745  10.704   5.311   0.522 -0.4149  0.8643  0.6586
  279MOL0     N36746  10.235   5.797   0.263  0.0231 -0.5534 -0.5857
  279MOL0     N36747  10.209   5.916   0.318 -0.4920  0.2980 -0.0800
  279MOL0     C36748  11.018   5.735   0.771  0.1028 -0.3048 -0.7956
  279MOL0     C36749  11.084   5.657   0.870 -0.0543  0.6755 -0.2923
  279MOL0     C36750  11.183   5.464   1.282 -0.6831 -0.0003  0.4750
  279MOL0     C36751  11.315   5.454   1.234  0.4460  0.6672 -0.0619
  279MOL0     C36752  11.400   5.367   1.296  0.5811  0.4462 -0.0938
  279MOL0     C36753  11.373   5.290   1.416 -0.1463  0.0543  0.7799
  279MOL0     O36754  11.453   5.201   1.484 -0.3787 -0.3208  0.0289
  279MOL0     C36755  11.589   5.180   1.429  0.7344 -0.8158 -0.1764
  279MOL0     C36756  11.667   5.109   1.526  0.4368  0.0078  0.7324
  279MOL0     C36757  11.798   5.059   1.469  0.2670 -0.4923  0.0630
  279MOL0     C36758  11.888   4.985   1.578  0.3574 -0.0524  0.1160
  279MOL0     C36759  11.999   4.910   1.509 -0.0385  0.9065 -0.0942
  279MOL0     C36760  12.101   4.847   1.470  0.2430 -1.5126 -0.1093
  279MOL0     C36761  11.242   5.304   1.464 -0.5404 -0.9665 -0.4871
  279MOL0     C36762  11.146   5.384   1.395 -0.4699  0.3041  0.2754
  279MOL0     H36763  10.863   5.725   1.122 -0.4239  0.9212 -1.6752
  279MOL0     H36764  10.764   5.864   0.947  0.9240  1.3406  1.3126
  279MOL0     H36765  10.701   6.009   0.750 -1.5473  2.3473 -2.2627
  279MOL0     H36766  10.651   5.844   0.725  1.0393 -2.0090 -1.8749
  279MOL0     H36767  10.692   5.854   0.485 -0.9361 -0.1942  0.5875
  279MOL0     H36768  10.760   6.012   0.504  0.8918 -0.6509 -0.4090
  279MOL0     H36769  10.477   5.902   0.531 -1.1961  0.0498  1.4943
  279MOL0     H36770  10.527   6.027   0.419 -0.2955  1.1156  0.7462
  279MOL0     H36771  10.499   6.076   0.717 -1.2582 -2.3959  0.3042
  279MOL0     H36772  10.533   6.202   0.593 -2.3748  1.1815 -0.0667
  279MOL0     H36773  10.313   6.116   0.482  0.5817  2.4749 -0.8576
  279MOL0     H36774  10.301   6.209   0.634  1.2601 -0.4853  0.5491
  279MOL0     H36775  10.274   6.015   0.762  0.0338  2.1678 -0.0661
  279MOL0     H36776  10.307   5.902   0.625 -0.0519  0.7198  0.2579
  279MOL0     H36777  10.066   5.919   0.686  2.7155 -2.4972 -2.0877
  279MOL0     H36778  10.084   6.089   0.702  1.4105  0.9567 -0.0529
  279MOL0     H36779  10.093   6.112   0.445 -2.7948  1.7798 -0.9095
  279MOL0     H36780   9.953   6.008   0.485  0.4735 -0.8903 -1.5279
  279MOL0     H36781   9.956   5.744   0.442  0.4668  2.4026  2.0370
  279MOL0     H36782  10.139   5.574   0.123  0.0053 -3.6449 -0.3671
  279MOL0     H36783  10.002   5.561   0.231  0.1429 -0.2882 -0.6020
  279MOL0     H36784  10.159   5.376   0.228 -2.7090  2.7773 -1.2193
  279MOL0     H36785  10.115   5.429   0.387 -1.5478 -2.5341 -0.8024
  279MOL0     H36786  10.371   5.502   0.226  1.3666  0.2690  0.0834
  279MOL0     H36787  10.329   5.561   0.396 -1.5523 -2.1258  1.4275
  279MOL0     H36788  10.443   5.307   0.290  2.8292  1.7612  1.3798
  279MOL0     H36789  10.308   5.281   0.414 -0.1271  2.6774  1.1359
  279MOL0     H36790  10.596   5.532   0.295  0.5514  0.4591 -1.3440
  279MOL0     H36791  10.841   5.570   0.271  1.7728  0.7654  1.3560
  279MOL0     H36792  11.131   5.756   0.213 -1.0569  0.0882  0.9223
  279MOL0     H36793  11.368   5.858   0.201  3.2643  0.3758  0.6493
  279MOL0     H36794  11.717   5.598   0.319  2.9347  0.4114  1.6108
  279MOL0     H36795  11.627   5.714   0.433 -1.4457  2.0256 -0.7551
  279MOL0     H36796  11.751   5.897   0.322 -1.9777 -0.2344  3.1407
  279MOL0     H36797  11.849   5.778   0.230  0.3505 -1.2443  1.0957
  279MOL0     H36798  11.897   5.673   0.459 -1.2986  0.6542  0.6204
  279MOL0     H36799  11.858   5.831   0.522  0.6420 -1.0272  0.4222
  279MOL0     H36800  12.072   5.798   0.306  2.5119  1.3157 -0.0669
  279MOL0     H36801  11.994   5.948   0.346 -0.5233  0.4335  2.8307
  279MOL0     H36802  12.059   5.885   0.601 -0.4340 -2.2565 -0.0080
  279MOL0     H36803  12.203   5.918   0.509  1.1553 -0.5908  2.8572
  279MOL0     H36804  12.236   5.696   0.444 -0.4427 -1.5365  0.3813
  279MOL0     H36805  12.097   5.649   0.554 -1.7534  1.1830 -0.8289
  279MOL0     H36806  12.350   5.810   0.646 -1.0354  1.0995 -3.7053
  279MOL0     H36807  12.223   5.768   0.746 -4.2948 -0.1007 -2.3361
  279MOL0     H36808  12.411   5.584   0.606  0.1164  0.3862 -0.5321
  279MOL0     H36809  12.247   5.527   0.665  1.1660 -1.7568  3.1861
  279MOL0     H36810  11.529   5.471   0.287  1.5545  1.5661 -2.5257
  279MOL0     H36811  11.300   5.371   0.314 -1.8642  0.0522 -0.7394
  279MOL0     H36812  10.906   5.233   0.519 -1.7775 -1.9317 -1.6326
  279MOL0     H36813  10.675   5.247   0.605  0.1933 -0.6486 -0.2569
  279MOL0     H36814  11.058   5.738   0.671 -0.0464 -1.1899 -0.8960
  279MOL0     H36815  11.177   5.606   0.847 -0.6435 -0.3587 -0.4096
  279MOL0     H36816  11.349   5.518   1.154  0.9837  3.8366  2.4823
  279MOL0     H36817  11.502   5.361   1.258  1.2498  4.4328  0.6580
  279MOL0     H36818  11.641   5.273   1.403 -1.3358  1.3062  2.5298
  279MOL0     H36819  11.571   5.119   1.340 -2.6769 -0.6988  0.2815
  279MOL0     H36820  11.685   5.183   1.606 -1.9608  2.7123 -1.0377
  279MOL0     H36821  11.620   5.019   1.565 -0.1995  0.7845  1.8103
  279MOL0     H36822  11.851   5.143   1.424 -0.8788  0.0214 -0.3724
  279MOL0     H36823  11.786   4.986   1.388  0.1433  0.6556 -0.9857
  279MOL0     H36824  11.926   5.059   1.650  2.6731 -1.1587  0.1392
  279MOL0     H36825  11.828   4.915   1.636 -0.0884  0.0261 -0.2392
  279MOL0     H36826  12.183   4.794   1.425  2.5864 -0.7774  2.9810
  279MOL0     H36827  11.214   5.246   1.551 -3.0653 -0.5061 -0.9156
  279MOL0     H36828  11.051   5.385   1.448  0.2136  1.9477  1.5258
  280MOL0     O36829   5.103   4.689   2.201 -0.7460  0.0025  0.5583
  280MOL0     C36830   5.096   4.633   2.095  0.0851  0.5192  0.2889
  280MOL0     O36831   4.974   4.586   2.041 -0.4625  0.2394 -0.2658
  280MOL0     C36832   4.847   4.611   2.087  0.7164  0.6384  0.1510
  280MOL0     C36833   4.808   4.653   2.218 -0.5357  0.5687 -0.1315
  280MOL0     C36834   4.672   4.679   2.241 -0.5577  0.1735  0.6240
  280MOL0     C36835   4.574   4.646   2.149 -0.3304 -0.0527  1.0525
  280MOL0     O36836   4.452   4.686   2.191  0.7459  0.0325 -0.2178
  280MOL0     C36837   4.333   4.637   2.117 -1.3108 -0.3984 -0.7238
  280MOL0     C36838   4.200   4.678   2.172  0.0834  0.0807  0.1979
  280MOL0     C36839   4.082   4.609   2.097  0.4709  0.1075 -0.0948
  280MOL0     C36840   3.948   4.679   2.106  0.2673 -0.1290 -0.3913
  280MOL0     C36841   3.843   4.619   2.019 -0.5272 -0.0204  1.6865
  280MOL0     C36842   3.708   4.654   2.062 -0.0469 -0.1719  0.5856
  280MOL0     C36843   3.601   4.611   1.960  0.4980 -0.5000 -0.0634
  280MOL0     C36844   3.459   4.646   2.001  1.0537 -0.6590 -0.3001
  280MOL0     N36845   3.386   4.540   2.064 -0.1460 -0.7095 -0.0780
  280MOL0     C36846   3.440   4.475   2.178  0.3093 -0.6962  0.0352
  280MOL0     C36847   3.346   4.386   2.214  0.5211  0.1602  0.2858
  280MOL0     C36848   3.353   4.302   2.337 -0.7796  0.4094  0.4927
  280MOL0     C36849   3.215   4.275   2.396 -0.0826  0.6396  0.1830
  280MOL0     C36850   3.215   4.193   2.522 -0.8952 -0.7342  1.1102
  280MOL0     C36851   3.100   4.108   2.559  0.4438 -1.0379  0.9298
  280MOL0     O36852   3.132   4.009   2.661 -0.4163  0.3526  0.0266
  280MOL0     C36853   3.029   3.957   2.736 -0.1248 -0.7351 -0.1885
  280MOL0     C36854   3.062   3.859   2.830 -0.6142  0.1396 -0.5058
  280MOL0     C36855   2.964   3.812   2.915 -0.0248  0.4852  0.5862
  280MOL0     C36856   2.829   3.842   2.888  0.1266  0.8221 -1.0602
  280MOL0     C36857   2.720   3.780   2.969 -1.5318 -0.5603  0.3159
  280MOL0     O36858   2.593   3.829   2.974  0.3059 -0.5256 -0.4403
  280MOL0     C36859   2.485   3.766   3.026  0.4644 -0.3186  0.5499
  280MOL0     C36860   2.364   3.783   2.955  0.2324  0.2052  0.5792
  280MOL0     C36861   2.242   3.718   2.998 -0.5367  0.1504  0.0044
  280MOL0     C36862   2.249   3.634   3.111 -0.0595  0.3850 -0.0632
  280MOL0     O36863   2.145   3.558   3.150  0.4540 -0.4937 -0.3988
  280MOL0     C36864   2.015   3.558   3.097 -0.1164 -0.2707  0.1490
  280MOL0     C36865   2.000   3.458   2.975  0.1658 -0.3163  0.2156
  280MOL0     C36866   1.975   3.314   3.016 -1.1811  0.0278 -0.1428
  280MOL0     C36867   2.083   3.271   3.116 -0.3220  0.2786  0.5765
  280MOL0     C36868   2.085   3.112   3.107 -0.3261  0.0612 -0.4049
  280MOL0     C36869   2.162   3.050   2.989 -0.0294  0.0182  0.4643
  280MOL0     C36870   2.161   2.893   2.997  0.2722 -0.7942  0.2636
  280MOL0     C36871   2.280   2.834   2.924  0.1249 -0.6453  0.3355
  280MOL0    Cl36872   2.420   2.851   3.032 -0.0372 -0.0970 -0.0878
  280MOL0     C36873   2.361   3.625   3.182  0.0869  0.6906  0.1655
  280MOL0     C36874   2.484   3.677   3.142 -0.6309  0.2492  0.1273
  280MOL0     O36875   2.759   3.673   3.015 -0.2764 -0.0127 -0.9607
  280MOL0     C36876   2.798   3.937   2.792 -0.4740  0.1107 -1.5452
  280MOL0     C36877   2.891   3.989   2.707 -1.2963  0.4214  0.3229
  280MOL0     N36878   3.232   4.405   2.132  0.4211  1.1875 -0.0553
  280MOL0     N36879   3.255   4.501   2.047 -0.0080  0.9594 -0.0441
  280MOL0     C36880   4.613   4.596   2.022  0.2644  0.1766  0.1542
  280MOL0     C36881   4.747   4.585   1.999 -0.2368  0.2406 -0.7718
  280MOL0     C36882   5.223   4.599   2.032 -0.1281 -0.1584  1.1345
  280MOL0     C36883   5.349   4.635   2.085  1.3297  0.8417 -0.0639
  280MOL0     C36884   5.463   4.622   2.008 -0.0988 -0.7341 -0.2281
  280MOL0     C36885   5.458   4.572   1.875 -0.9081 -1.0915 -0.0748
  280MOL0     O36886   5.580   4.553   1.814 -0.5190  0.0194 -0.2182
  280MOL0     C36887   5.591   4.509   1.674 -0.4904 -0.2119  0.1943
  280MOL0     C36888   5.575   4.355   1.656 -0.5865 -0.4581 -0.6850
  280MOL0     C36889   5.691   4.274   1.711 -0.0900 -0.1588  0.4067
  280MOL0     C36890   5.674   4.123   1.706 -0.1130 -0.3272  0.4085
  280MOL0     C36891   5.666   4.076   1.567  0.3849 -0.0445  0.4188
  280MOL0     C36892   5.651   4.026   1.456  0.2256 -0.0331  0.0021
  280MOL0     C36893   5.336   4.549   1.819  0.0285  0.5960 -0.4670
  280MOL0     C36894   5.218   4.558   1.901  0.1231 -0.1700  0.4490
  280MOL0     H36895   4.873   4.673   2.302 -0.1156 -1.6824  0.1364
  280MOL0     H36896   4.645   4.712   2.341 -1.5851 -0.6603  0.6344
  280MOL0     H36897   4.336   4.527   2.116 -0.5293 -0.3875 -0.8212
  280MOL0     H36898   4.336   4.668   2.012 -2.1194  0.5448 -0.4856
  280MOL0     H36899   4.188   4.787   2.171 -1.4770 -0.0642 -1.9298
  280MOL0     H36900   4.203   4.655   2.279 -3.5953 -3.1497 -0.1830
  280MOL0     H36901   4.085   4.505   2.129  0.5537  0.1847  0.1543
  280MOL0     H36902   4.114   4.597   1.994  0.6386 -2.3438  0.2003
  280MOL0     H36903   3.908   4.663   2.207 -3.1238 -2.8258 -1.9596
  280MOL0     H36904   3.968   4.786   2.096  1.0972 -0.1390  0.7979
  280MOL0     H36905   3.852   4.511   2.025  2.8882  0.1709  2.0647
  280MOL0     H36906   3.862   4.656   1.918 -0.4702 -1.1184  1.2860
  280MOL0     H36907   3.712   4.763   2.061  2.2059 -0.0026 -4.4584
  280MOL0     H36908   3.687   4.607   2.158  1.5916 -0.9649  0.5999
  280MOL0     H36909   3.618   4.659   1.863  0.4007 -1.3673 -0.5149
  280MOL0     H36910   3.613   4.503   1.948  0.9053 -0.2961 -1.6221
  280MOL0     H36911   3.398   4.672   1.913 -0.2918  0.1066  0.8191
  280MOL0     H36912   3.458   4.737   2.061  0.8134 -0.0655 -1.1745
  280MOL0     H36913   3.537   4.485   2.225  1.1321  0.2031 -1.7458
  280MOL0     H36914   3.405   4.357   2.416  0.6342  0.8725 -0.7318
  280MOL0     H36915   3.401   4.206   2.317  1.2048  1.2574  0.9375
  280MOL0     H36916   3.147   4.227   2.325  0.0257 -0.8319  1.0256
  280MOL0     H36917   3.184   4.379   2.413 -0.8832  0.9011 -2.4970
  280MOL0     H36918   3.288   4.114   2.502 -3.1621 -2.5965 -0.2426
  280MOL0     H36919   3.258   4.251   2.604  1.0659 -0.0003 -0.3502
  280MOL0     H36920   3.078   4.037   2.478  1.1752 -1.1473  0.8273
  280MOL0     H36921   3.013   4.166   2.591 -0.8760 -1.8211 -1.0297
  280MOL0     H36922   3.163   3.826   2.852 -1.1731 -0.5851  1.2107
  280MOL0     H36923   2.998   3.742   2.991  1.6680  1.3083  0.6446
  280MOL0     H36924   2.353   3.841   2.864 -1.7187 -0.3938  0.3777
  280MOL0     H36925   2.151   3.714   2.939 -0.1377 -0.0283 -0.6170
  280MOL0     H36926   1.970   3.655   3.073 -4.6406 -2.9980 -4.2599
  280MOL0     H36927   1.954   3.514   3.177  0.3865 -2.3284 -0.5402
  280MOL0     H36928   2.095   3.456   2.921  1.5125  4.6250  1.8218
  280MOL0     H36929   1.917   3.498   2.915 -0.5317  1.1683  2.0730
  280MOL0     H36930   1.972   3.260   2.921  2.1753 -0.8306  0.1251
  280MOL0     H36931   1.879   3.304   3.067 -0.9779  0.6992  0.3759
  280MOL0     H36932   2.175   3.328   3.099 -0.8223  0.6864 -0.8604
  280MOL0     H36933   2.047   3.286   3.218 -1.1496 -0.4599  0.4068
  280MOL0     H36934   1.987   3.066   3.116  0.6537 -1.6435  3.4822
  280MOL0     H36935   2.123   3.081   3.205  0.1844 -0.6731 -0.8205
  280MOL0     H36936   2.263   3.088   3.005 -0.0200  1.0226 -1.6493
  280MOL0     H36937   2.118   3.073   2.891 -1.2548 -0.4161  0.8984
  280MOL0     H36938   2.162   2.851   3.098 -2.0058 -1.5022  0.0283
  280MOL0     H36939   2.077   2.851   2.942  0.1928 -4.5353  2.8436
  280MOL0     H36940   2.289   2.887   2.828  1.5262  0.1423  0.8689
  280MOL0     H36941   2.274   2.728   2.899  2.5308 -1.5996  3.2382
  280MOL0     H36942   2.366   3.575   3.278  0.3003 -0.4659 -0.4300
  280MOL0     H36943   2.571   3.649   3.200 -1.9609 -1.4398  1.4339
  280MOL0     H36944   2.694   3.969   2.790 -0.8661 -0.4686  2.1795
  280MOL0     H36945   2.857   4.066   2.638  1.3708  1.2184 -0.2252
  280MOL0     H36946   4.538   4.566   1.949  2.3537 -0.0059 -2.0140
  280MOL0     H36947   4.773   4.562   1.897  0.4169  2.0082 -1.0368
  280MOL0     H36948   5.342   4.644   2.193 -1.4680 -2.6998  0.2505
  280MOL0     H36949   5.565   4.629   2.046  0.3651 -1.2918 -1.3188
  280MOL0     H36950   5.678   4.550   1.621 -1.9823 -0.0148 -2.2661
  280MOL0     H36951   5.511   4.562   1.620  0.0771 -0.1207 -0.5687
  280MOL0     H36952   5.485   4.318   1.705 -0.1300 -0.3231  0.2812
  280MOL0     H36953   5.573   4.319   1.553  0.0978 -3.3021  0.2142
  280MOL0     H36954   5.726   4.304   1.810  1.0633 -0.3325  0.0630
  280MOL0     H36955   5.778   4.288   1.646  0.5332 -0.2435  1.2210
  280MOL0     H36956   5.759   4.081   1.761  0.2094  2.1167  1.9040
  280MOL0     H36957   5.577   4.101   1.751 -2.1681  2.0541 -2.4958
  280MOL0     H36958   5.642   3.987   1.356 -0.4505  1.3321 -0.4989
  280MOL0     H36959   5.331   4.517   1.715 -0.5357 -4.5313  0.8753
  280MOL0     H36960   5.125   4.528   1.854 -0.0808  0.0274  0.7262
  281MOL0     O36961  10.048   2.487   7.428 -0.8041  0.2333 -0.1540
  281MOL0     C36962  10.160   2.450   7.467  0.3726 -0.0263  0.4914
  281MOL0     O36963  10.197   2.328   7.509  0.6673 -0.6618 -0.0656
  281MOL0     C36964  10.100   2.227   7.517 -0.4076 -0.8923 -0.2088
  281MOL0     C36965   9.984   2.244   7.598  0.1068 -0.9526  0.1407
  281MOL0     C36966   9.898   2.132   7.621  0.9901  0.0414 -0.4301
  281MOL0     C36967   9.906   2.003   7.549 -0.7132  0.0350 -0.3889
  281MOL0     O36968   9.802   1.904   7.571 -0.6632 -0.0645  0.0722
  281MOL0     C36969   9.844   1.773   7.528 -0.4973  0.4055  0.0397
  281MOL0     C36970   9.735   1.670   7.565  0.5497 -0.4537 -0.4446
  281MOL0     C36971   9.593   1.706   7.532  0.2328  0.1407 -0.3216
  281MOL0     C36972   9.490   1.595   7.564  0.3855  0.3709  0.0050
  281MOL0     C36973   9.344   1.640   7.573 -0.0462 -0.8559  0.3997
  281MOL0     C36974   9.248   1.523   7.543  0.3718  0.2573  0.0548
  281MOL0     C36975   9.094   1.570   7.567  0.5481  0.6018 -0.4526
  281MOL0     C36976   8.978   1.463   7.554 -0.2104  0.4042 -0.1357
  281MOL0     N36977   8.991   1.347   7.654  0.0762 -0.1849  0.2241
  281MOL0     C36978   9.025   1.219   7.620 -0.1843  1.1998  0.2237
  281MOL0     C36979   9.002   1.142   7.736  0.0287  0.0858  1.0073
  281MOL0     C36980   9.032   1.000   7.760 -0.0726  0.6571 -0.5238
  281MOL0     C36981   9.159   0.968   7.846 -0.3433 -0.0512  0.1283
  281MOL0     C36982   9.287   1.015   7.773  0.2162  1.2691  0.3765
  281MOL0     C36983   9.415   1.009   7.859  0.0379  0.4514 -0.5380
  281MOL0     O36984   9.525   1.021   7.767  0.4703  0.6242 -0.1273
  281MOL0     C36985   9.647   1.059   7.819  0.0858 -0.3210  0.6458
  281MOL0     C36986   9.749   1.077   7.729 -0.0430  0.5872 -0.3977
  281MOL0     C36987   9.878   1.109   7.782  0.3589 -0.4598 -0.3714
  281MOL0     C36988   9.907   1.115   7.919 -0.8492  0.0052 -0.3454
  281MOL0     C36989  10.037   1.168   7.968  0.4922 -0.3824  0.3707
  281MOL0     O36990  10.072   1.166   8.104 -0.8589 -0.6668 -0.5841
  281MOL0     C36991  10.199   1.201   8.145  0.4022  0.2289  0.3264
  281MOL0     C36992  10.244   1.328   8.137  0.1026  0.4462 -0.9792
  281MOL0     C36993  10.371   1.348   8.182  0.2404 -0.4713 -0.9196
  281MOL0     C36994  10.454   1.245   8.238  0.8871  0.6018  0.5780
  281MOL0     O36995  10.581   1.287   8.273  0.1783  0.1880 -0.5358
  281MOL0     C36996  10.641   1.234   8.391  0.6008 -0.5522  0.3703
  281MOL0     C36997  10.765   1.311   8.399  0.0082 -1.3083  0.0652
  281MOL0     C36998  10.820   1.304   8.546  0.5184 -0.5524 -0.1634
  281MOL0     C36999  10.845   1.156   8.584 -0.1491  0.4100  0.3883
  281MOL0     C37000  10.916   1.150   8.722  0.5569 -0.0077 -0.5085
  281MOL0     C37001  10.836   1.216   8.836  0.1743  0.2470  0.7887
  281MOL0     C37002  10.884   1.191   8.979 -0.1297 -0.3327  0.2993
  281MOL0     C37003  11.029   1.237   8.985 -0.1612  0.0742  0.2899
  281MOL0    Cl37004  11.103   1.268   9.145 -0.3297 -0.4554 -0.0602
  281MOL0     C37005  10.405   1.118   8.249  0.3101  1.1532  0.6845
  281MOL0     C37006  10.272   1.099   8.197  0.0554 -0.8603  0.0222
  281MOL0     O37007  10.111   1.224   7.886 -0.3262  0.6856 -0.3480
  281MOL0     C37008   9.805   1.083   8.011 -0.2074  0.0805  0.8469
  281MOL0     C37009   9.679   1.070   7.954  0.1276  0.2075  0.2370
  281MOL0     N37010   8.957   1.226   7.829  1.1292 -0.4300 -0.3639
  281MOL0     N37011   8.955   1.352   7.779  0.4087 -0.2088 -0.3151
  281MOL0     C37012  10.020   1.991   7.464 -0.1165  0.0075  0.1719
  281MOL0     C37013  10.112   2.105   7.453 -0.4108  0.5264 -0.0406
  281MOL0     C37014  10.261   2.558   7.461 -1.0256  0.1296  0.4446
  281MOL0     C37015  10.229   2.694   7.452  0.3136  0.4785  0.2318
  281MOL0     C37016  10.335   2.791   7.452  0.8153  0.1600  0.8117
  281MOL0     C37017  10.469   2.751   7.453  1.1649  0.5410  0.1858
  281MOL0     O37018  10.569   2.846   7.451  0.1412  0.3020  0.4861
  281MOL0     C37019  10.534   2.972   7.516  0.2449 -0.1196  0.4097
  281MOL0     C37020  10.666   3.048   7.519  0.4124 -0.0001 -0.5191
  281MOL0     C37021  10.647   3.177   7.605 -1.7763  0.3932  0.0316
  281MOL0     C37022  10.776   3.261   7.623  1.5890 -0.4009  0.7317
  281MOL0     C37023  10.802   3.361   7.521 -0.1805 -0.4350 -0.1115
  281MOL0     C37024  10.826   3.446   7.436  0.5890  0.8414 -0.1757
  281MOL0     C37025  10.494   2.617   7.464  0.1057 -0.7009 -0.7850
  281MOL0     C37026  10.395   2.521   7.458  0.2512 -0.4364 -0.6498
  281MOL0     H37027   9.970   2.340   7.646 -1.1452 -1.0141 -0.0706
  281MOL0     H37028   9.809   2.142   7.682  2.0349 -3.0328  1.8820
  281MOL0     H37029   9.939   1.753   7.577  0.4138  1.1732 -1.3526
  281MOL0     H37030   9.857   1.765   7.420  1.2575  1.2698  0.1553
  281MOL0     H37031   9.748   1.650   7.672  2.4435 -1.1922 -0.7709
  281MOL0     H37032   9.767   1.571   7.530 -0.2899 -0.2791 -1.7796
  281MOL0     H37033   9.588   1.724   7.425 -0.1472 -0.2062 -0.3691
  281MOL0     H37034   9.568   1.805   7.571  1.3537 -0.8215  3.2943
  281MOL0     H37035   9.488   1.526   7.479 -1.9140  1.4303 -0.8981
  281MOL0     H37036   9.517   1.531   7.648  0.0454  0.2939  0.0593
  281MOL0     H37037   9.322   1.718   7.500 -0.7524 -0.3758  1.1001
  281MOL0     H37038   9.325   1.684   7.672 -1.5906  3.5978 -1.6362
  281MOL0     H37039   9.274   1.442   7.611  0.1286  0.0062 -0.1508
  281MOL0     H37040   9.263   1.489   7.440  1.9625  1.6018 -0.2041
  281MOL0     H37041   9.083   1.621   7.663  0.5233  2.3876 -1.3500
  281MOL0     H37042   9.067   1.650   7.498  0.6134  0.0843 -1.0888
  281MOL0     H37043   8.986   1.419   7.454  0.1049 -1.0418  0.4927
  281MOL0     H37044   8.884   1.509   7.587 -1.3286 -0.6913 -1.6766
  281MOL0     H37045   9.051   1.186   7.520  0.2836  0.7545  0.4923
  281MOL0     H37046   9.041   0.959   7.659  0.5971  1.5017 -0.8282
  281MOL0     H37047   8.950   0.943   7.803 -0.0764  0.3744 -0.8991
  281MOL0     H37048   9.166   0.862   7.873 -0.1485 -0.2788 -0.8099
  281MOL0     H37049   9.157   1.028   7.938 -1.7179  0.0178  0.0634
  281MOL0     H37050   9.303   0.942   7.693  1.8515  1.8414  0.1265
  281MOL0     H37051   9.272   1.113   7.726  0.0776  1.7300  1.3651
  281MOL0     H37052   9.417   0.911   7.909  0.4308 -0.8996 -3.0651
  281MOL0     H37053   9.410   1.091   7.931 -3.2359  0.0821 -0.2133
  281MOL0     H37054   9.724   1.065   7.624 -0.3302 -4.2584  0.0081
  281MOL0     H37055   9.955   1.151   7.718  0.3399 -0.7064 -0.5577
  281MOL0     H37056  10.179   1.413   8.120 -2.1686 -0.2472  2.9101
  281MOL0     H37057  10.403   1.451   8.193 -1.7806  0.1749 -0.8136
  281MOL0     H37058  10.658   1.126   8.379 -0.6747 -0.7339  0.0085
  281MOL0     H37059  10.580   1.241   8.481 -0.7661  0.2817 -0.5946
  281MOL0     H37060  10.746   1.415   8.370 -0.9271 -1.9895 -1.9333
  281MOL0     H37061  10.840   1.277   8.328 -1.1931 -2.3879 -0.7319
  281MOL0     H37062  10.744   1.345   8.613 -0.1690 -2.2899  0.1631
  281MOL0     H37063  10.916   1.356   8.555  0.1494  0.2730 -0.8513
  281MOL0     H37064  10.755   1.095   8.587  0.5875 -0.7154  0.0613
  281MOL0     H37065  10.911   1.116   8.506 -0.2195  2.6957 -0.9490
  281MOL0     H37066  11.015   1.197   8.715  0.1765  0.5969 -2.3595
  281MOL0     H37067  10.925   1.043   8.741  0.7326  0.0450 -0.2807
  281MOL0     H37068  10.731   1.185   8.833 -0.9974  3.8643 -0.5617
  281MOL0     H37069  10.842   1.324   8.824  1.0105  0.3100  1.6361
  281MOL0     H37070  10.822   1.253   9.044 -4.3864  0.1311 -3.7133
  281MOL0     H37071  10.874   1.083   8.994 -1.7557  0.0879  3.0992
  281MOL0     H37072  11.037   1.337   8.939 -0.8407  0.0086  0.0246
  281MOL0     H37073  11.102   1.171   8.937 -0.6547 -1.1280  1.1401
  281MOL0     H37074  10.474   1.042   8.285  0.0504  0.2389 -0.6671
  281MOL0     H37075  10.223   1.003   8.198  0.8904 -1.3587  2.8680
  281MOL0     H37076   9.811   1.083   8.120 -1.8247  0.2091  0.9593
  281MOL0     H37077   9.602   1.058   8.029  1.8257 -1.0354  1.8706
  281MOL0     H37078  10.038   1.894   7.417 -2.8515 -1.2158  1.4302
  281MOL0     H37079  10.203   2.076   7.401  0.2002 -2.8858  2.5781
  281MOL0     H37080  10.126   2.730   7.454  1.2234  3.4153 -0.7818
  281MOL0     H37081  10.311   2.896   7.444  1.3772  0.1389 -2.2767
  281MOL0     H37082  10.486   2.961   7.613 -2.4230 -0.5923 -0.8639
  281MOL0     H37083  10.463   3.026   7.453 -0.8435 -1.7143  0.2096
  281MOL0     H37084  10.727   2.984   7.584 -0.5823  1.9308  2.5477
  281MOL0     H37085  10.711   3.068   7.422  1.7286  0.5346  0.1760
  281MOL0     H37086  10.617   3.129   7.699 -3.3182  0.5270 -0.3704
  281MOL0     H37087  10.556   3.230   7.575 -1.3516  0.7834 -0.5850
  281MOL0     H37088  10.758   3.315   7.716  0.1683  1.3997 -0.5356
  281MOL0     H37089  10.862   3.194   7.634  1.7856 -0.4599 -0.8700
  281MOL0     H37090  10.856   3.520   7.365 -3.6300  2.7667 -0.2602
  281MOL0     H37091  10.600   2.593   7.459  0.6402  1.5788 -1.5457
  281MOL0     H37092  10.423   2.417   7.469 -1.4215 -0.9414 -0.8805
  282MOL0     O37093   0.657   9.729   8.373 -0.2998  0.4226 -0.0712
  282MOL0     C37094   0.665   9.781   8.253 -0.1439 -0.3721 -0.0759
  282MOL0     O37095   0.558   9.798   8.170  0.2434 -0.1520  0.7142
  282MOL0     C37096   0.461   9.712   8.179 -0.7204  0.0961  0.8323
  282MOL0     C37097   0.332   9.751   8.174  0.3494 -0.5172  0.4945
  282MOL0     C37098   0.231   9.654   8.185  0.2463 -1.1643 -0.5294
  282MOL0     C37099   0.261   9.522   8.197  0.3706 -0.4653 -0.5789
  282MOL0     O37100   0.150   9.438   8.205  0.4048  0.2155 -0.0332
  282MOL0     C37101   0.117   9.386   8.082  0.7523  0.0972 -0.1315
  282MOL0     C37102  -0.026   9.417   8.041 -0.3762 -0.4403  0.6615
  282MOL0     C37103  -0.049   9.354   7.904 -0.0600  0.4814  0.7561
  282MOL0     C37104  -0.015   9.449   7.785  0.9429  0.5263 -0.0970
  282MOL0     C37105  -0.029   9.376   7.652  0.5044 -0.0308  1.2847
  282MOL0     C37106  -0.001   9.480   7.530 -0.5013  0.6758  0.2433
  282MOL0     C37107   0.142   9.524   7.515  0.0851 -0.1742  0.2960
  282MOL0     C37108   0.243   9.405   7.478  0.5218  0.6067 -0.1240
  282MOL0     N37109   0.218   9.310   7.368  0.1381  0.1795  0.0614
  282MOL0     C37110   0.163   9.346   7.247 -0.4139  0.2966  0.1094
  282MOL0     C37111   0.168   9.235   7.170  0.3413 -0.7441 -0.7504
  282MOL0     C37112   0.111   9.230   7.032 -0.5310 -0.6902 -0.3366
  282MOL0     C37113  -0.036   9.186   7.032  0.9531 -0.4134 -0.3965
  282MOL0     C37114  -0.080   9.155   6.888  0.1991  0.6015 -0.8768
  282MOL0     C37115  -0.227   9.121   6.897 -0.2334 -0.3548 -1.1847
  282MOL0     O37116  -0.302   9.236   6.934 -0.4101  0.2544  0.3990
  282MOL0     C37117  -0.439   9.234   6.936  0.1928  0.3866 -0.0748
  282MOL0     C37118  -0.507   9.346   6.903  0.5244 -1.1269 -0.1201
  282MOL0     C37119  -0.647   9.351   6.906  0.3756 -0.6978 -0.0061
  282MOL0     C37120  -0.724   9.240   6.923  0.1425 -0.0486 -0.6837
  282MOL0     C37121  -0.876   9.248   6.917 -0.7666  0.3564  0.7657
  282MOL0     O37122  -0.936   9.371   6.881 -0.0339  0.4070 -0.4072
  282MOL0     C37123  -1.067   9.360   6.848 -0.8135 -0.2360  1.1303
  282MOL0     C37124  -1.152   9.464   6.885 -0.8261  0.4965  0.6164
  282MOL0     C37125  -1.286   9.452   6.853 -0.1736  0.6602 -0.0717
  282MOL0     C37126  -1.337   9.351   6.767  0.4922 -0.6409  0.6910
  282MOL0     O37127  -1.470   9.341   6.725  0.4723  1.1223 -0.8777
  282MOL0     C37128  -1.553   9.458   6.699 -0.3200  0.2115  0.3285
  282MOL0     C37129  -1.663   9.411   6.607  0.3735  0.5872 -0.0917
  282MOL0     C37130  -1.793   9.371   6.691  0.0823 -0.1465  1.2552
  282MOL0     C37131  -1.763   9.283   6.812 -0.7413  0.4937 -0.4357
  282MOL0     C37132  -1.880   9.255   6.903 -0.1226 -0.2856  0.3120
  282MOL0     C37133  -1.997   9.177   6.832 -0.6160  0.0644  0.1527
  282MOL0     C37134  -2.138   9.178   6.892  0.0483  0.2067  0.7992
  282MOL0     C37135  -2.144   9.129   7.036  0.1376  0.6805  0.0843
  282MOL0    Cl37136  -2.303   9.141   7.115 -0.1287  0.2518 -0.3670
  282MOL0     C37137  -1.250   9.252   6.732  0.4330  0.9815  0.5153
  282MOL0     C37138  -1.117   9.256   6.759 -0.7975  0.3465  0.3615
  282MOL0     O37139  -0.938   9.145   6.950  0.0312  0.7400  0.3706
  282MOL0     C37140  -0.651   9.119   6.931  0.0435 -0.0240  0.3274
  282MOL0     C37141  -0.513   9.115   6.952 -0.1946  0.1068  0.6124
  282MOL0     N37142   0.231   9.133   7.242  0.7261 -0.1068 -0.3578
  282MOL0     N37143   0.262   9.184   7.356  0.3223 -0.3327  0.3044
  282MOL0     C37144   0.388   9.484   8.178 -0.5900 -0.5997  0.4333
  282MOL0     C37145   0.490   9.578   8.170 -0.8110  0.4562  0.3320
  282MOL0     C37146   0.786   9.862   8.219  0.2651 -0.3860  0.3045
  282MOL0     C37147   0.894   9.874   8.309  0.0033  0.0987  0.0641
  282MOL0     C37148   0.988   9.976   8.287 -0.0201 -0.7151 -0.2841
  282MOL0     C37149   0.976  10.065   8.181  0.0826 -0.3432  0.2056
  282MOL0     O37150   1.072  10.160   8.163  0.0292  0.2903 -0.3056
  282MOL0     C37151   1.073  10.267   8.260  0.3762  0.0016 -0.3006
  282MOL0     C37152   1.185  10.243   8.361  0.2289  0.0836  0.4919
  282MOL0     C37153   1.322  10.230   8.284 -0.4309 -0.7243 -0.1919
  282MOL0     C37154   1.411  10.135   8.368 -0.1062 -0.6607 -0.1352
  282MOL0     C37155   1.477  10.204   8.480 -0.1636  0.2734 -0.4862
  282MOL0     C37156   1.524  10.258   8.576 -1.0869 -0.2348  0.4064
  282MOL0     C37157   0.880  10.046   8.089  0.1163  0.7410  0.1868
  282MOL0     C37158   0.788   9.941   8.101 -0.7513 -1.0715 -1.2061
  282MOL0     H37159   0.321   9.859   8.174  1.7273 -0.2962 -1.9485
  282MOL0     H37160   0.130   9.693   8.180 -0.5525 -2.7275  1.6758
  282MOL0     H37161   0.142   9.280   8.077 -1.7745 -0.5202 -0.7044
  282MOL0     H37162   0.187   9.420   8.005  0.1610  0.3425 -0.5699
  282MOL0     H37163  -0.040   9.525   8.036  1.7337 -0.0857  1.2370
  282MOL0     H37164  -0.093   9.383   8.120 -0.4023 -0.4636  0.6288
  282MOL0     H37165  -0.158   9.343   7.903 -0.2226  1.7927  1.5446
  282MOL0     H37166  -0.011   9.252   7.893  0.1852  0.5678  0.7971
  282MOL0     H37167  -0.081   9.537   7.793  0.3398  0.1482 -0.8073
  282MOL0     H37168   0.084   9.493   7.799  1.7681  0.0359 -3.6115
  282MOL0     H37169  -0.134   9.346   7.650  0.2100  0.9788 -0.4880
  282MOL0     H37170   0.040   9.291   7.644  0.5399  0.1924 -2.0666
  282MOL0     H37171  -0.052   9.572   7.563 -3.4262 -1.4695  2.2633
  282MOL0     H37172  -0.048   9.447   7.437 -0.1345 -3.1093  1.2621
  282MOL0     H37173   0.158   9.598   7.435  1.3535 -0.9899 -0.2448
  282MOL0     H37174   0.182   9.569   7.606  1.5659 -1.7461  0.4887
  282MOL0     H37175   0.252   9.359   7.577 -1.2984  0.6276  0.0958
  282MOL0     H37176   0.341   9.448   7.458  0.2721  1.4962  0.5082
  282MOL0     H37177   0.102   9.431   7.220  1.8205  1.7739 -0.5999
  282MOL0     H37178   0.162   9.144   6.987 -0.4082 -1.1870  0.7299
  282MOL0     H37179   0.129   9.324   6.978 -0.7151 -0.8267 -0.6419
  282MOL0     H37180  -0.098   9.266   7.073 -1.0694 -0.4439 -3.1065
  282MOL0     H37181  -0.044   9.091   7.085  0.0967 -0.6712 -0.9766
  282MOL0     H37182  -0.079   9.238   6.815 -3.3171  0.4672 -1.2498
  282MOL0     H37183  -0.023   9.072   6.847  0.5641  0.3235  0.1879
  282MOL0     H37184  -0.241   9.049   6.978 -3.4265  1.5950  0.1896
  282MOL0     H37185  -0.266   9.069   6.809 -1.8022 -0.9068 -0.2036
  282MOL0     H37186  -0.447   9.434   6.883 -0.3372 -0.4904  0.0414
  282MOL0     H37187  -0.702   9.438   6.871  0.3732 -1.4858 -2.0723
  282MOL0     H37188  -1.116   9.542   6.952  1.6706 -1.3865  1.6469
  282MOL0     H37189  -1.349   9.535   6.885 -1.8606 -0.5842 -0.0198
  282MOL0     H37190  -1.489   9.534   6.653  0.9196 -0.8485  0.2471
  282MOL0     H37191  -1.580   9.502   6.796  2.1460  1.3026  0.5866
  282MOL0     H37192  -1.638   9.328   6.540 -0.7897 -0.9508  1.2832
  282MOL0     H37193  -1.688   9.501   6.550  1.2399  1.4700  0.8944
  282MOL0     H37194  -1.869   9.329   6.626  0.6393 -0.0082  0.5045
  282MOL0     H37195  -1.842   9.464   6.721  0.3620  2.1594 -4.3534
  282MOL0     H37196  -1.713   9.192   6.776  0.5927  1.3281 -0.7496
  282MOL0     H37197  -1.696   9.337   6.878 -1.0254  3.2254 -2.2100
  282MOL0     H37198  -1.919   9.351   6.939  0.1002 -0.6937  1.6862
  282MOL0     H37199  -1.857   9.192   6.989 -0.0445 -0.7637 -0.0507
  282MOL0     H37200  -1.962   9.074   6.831 -0.5472  0.0836 -0.9430
  282MOL0     H37201  -2.004   9.204   6.726 -1.6213  2.3097  0.7263
  282MOL0     H37202  -2.185   9.277   6.887 -0.0512  0.1217 -0.2236
  282MOL0     H37203  -2.207   9.121   6.829  0.5848  1.3212 -0.8893
  282MOL0     H37204  -2.063   9.180   7.090  2.2489 -3.0477  0.7819
  282MOL0     H37205  -2.105   9.027   7.044  1.7985  1.3479  1.0387
  282MOL0     H37206  -1.286   9.169   6.672 -1.9760  1.3314  1.3493
  282MOL0     H37207  -1.051   9.175   6.728 -2.2688 -0.2749 -1.3391
  282MOL0     H37208  -0.702   9.024   6.944  0.2616 -0.5239 -1.9725
  282MOL0     H37209  -0.469   9.018   6.970  0.7106  0.3089 -0.3873
  282MOL0     H37210   0.390   9.375   8.173 -2.7993 -0.6292 -0.8326
  282MOL0     H37211   0.596   9.555   8.160 -1.2501 -1.8704  0.4823
  282MOL0     H37212   0.888   9.820   8.402 -3.6399  0.4533  0.1448
  282MOL0     H37213   1.068   9.995   8.359  1.5210 -2.7341 -1.3432
  282MOL0     H37214   0.982  10.276   8.320  1.6694 -1.2643  1.9919
  282MOL0     H37215   1.090  10.364   8.212 -1.0806  1.4983  2.0088
  282MOL0     H37216   1.184  10.334   8.422  0.5287  1.4472 -1.4604
  282MOL0     H37217   1.159  10.163   8.432 -1.3278  0.7016  0.6571
  282MOL0     H37218   1.361  10.331   8.268 -2.1963 -0.4131 -3.4707
  282MOL0     H37219   1.307  10.191   8.183  1.6004  0.2183 -0.9031
  282MOL0     H37220   1.360  10.043   8.398 -1.2176  0.4685  1.6502
  282MOL0     H37221   1.493  10.100   8.304  0.4171  0.3857 -0.0760
  282MOL0     H37222   1.560  10.318   8.657  0.6441 -2.9570  1.7980
  282MOL0     H37223   0.883  10.108   8.000 -2.3785  0.7419  0.0352
  282MOL0     H37224   0.716   9.930   8.020 -0.1601  0.8312 -2.0457
  283MOL0     O37225  10.338   1.681   2.377 -1.0289  0.1846 -0.3304
  283MOL0     C37226  10.405   1.649   2.281 -0.3266  0.2671  0.0124
  283MOL0     O37227  10.359   1.653   2.153 -0.8970 -0.2543 -0.3864
  283MOL0     C37228  10.220   1.674   2.123 -0.1320  0.2713  0.5383
  283MOL0     C37229  10.168   1.606   2.010 -0.1140  1.0233 -0.3728
  283MOL0     C37230  10.026   1.620   1.989 -0.3210  0.1272  0.1522
  283MOL0     C37231   9.942   1.701   2.062  0.4951  0.4193  1.0650
  283MOL0     O37232   9.813   1.704   2.029  0.6447  0.5482 -0.2589
  283MOL0     C37233   9.717   1.779   2.102  0.6681 -0.0205 -0.0521
  283MOL0     C37234   9.570   1.761   2.069  0.0033 -0.0234 -0.3850
  283MOL0     C37235   9.477   1.816   2.170 -0.5631  0.0374 -0.3220
  283MOL0     C37236   9.331   1.810   2.108  0.3194 -0.6710 -0.0697
  283MOL0     C37237   9.233   1.881   2.209 -0.3869  0.5728 -0.7904
  283MOL0     C37238   9.087   1.858   2.171  1.6204  0.1938 -0.9406
  283MOL0     C37239   9.042   1.966   2.062 -0.3528  0.2039  0.5480
  283MOL0     C37240   9.041   1.894   1.927  0.0415 -0.5501  0.5195
  283MOL0     N37241   8.943   1.783   1.918  0.3196 -0.0687  0.2890
  283MOL0     C37242   8.811   1.798   1.909  0.2151  0.2203  0.4707
  283MOL0     C37243   8.765   1.665   1.906 -0.8542  0.1272  0.5574
  283MOL0     C37244   8.630   1.602   1.870 -0.6808  0.0873  0.3451
  283MOL0     C37245   8.627   1.523   1.740 -0.3127  0.8446  0.2050
  283MOL0     C37246   8.619   1.597   1.602  0.9717  0.5484 -0.1236
  283MOL0     C37247   8.509   1.700   1.596 -0.6194 -0.9387  0.1878
  283MOL0     O37248   8.544   1.822   1.666 -0.0737  0.2367 -0.0609
  283MOL0     C37249   8.446   1.918   1.690  0.2243 -0.7949  0.0567
  283MOL0     C37250   8.331   1.934   1.603 -0.1184 -0.6086 -0.6544
  283MOL0     C37251   8.239   2.027   1.636  0.2080  0.5605  0.1940
  283MOL0     C37252   8.250   2.108   1.751  0.2650 -0.8412 -0.3487
  283MOL0     C37253   8.132   2.192   1.786  0.7233 -0.7057 -0.8501
  283MOL0     O37254   8.050   2.232   1.689 -0.6369 -0.0693 -0.1846
  283MOL0     C37255   7.935   2.306   1.717 -0.6553 -0.9093 -1.1599
  283MOL0     C37256   7.808   2.262   1.686  0.4406  0.1926  0.3043
  283MOL0     C37257   7.689   2.341   1.724 -0.1030  0.9570  0.4560
  283MOL0     C37258   7.709   2.477   1.765 -0.1988 -0.1088  0.3932
  283MOL0     O37259   7.604   2.560   1.810  0.1366 -0.2437  0.9341
  283MOL0     C37260   7.463   2.523   1.784 -0.1529 -0.5480 -0.9718
  283MOL0     C37261   7.362   2.622   1.847  0.3096  0.7556 -0.5697
  283MOL0     C37262   7.326   2.579   1.997  0.0810  0.4792 -0.7552
  283MOL0     C37263   7.213   2.666   2.054 -0.0857 -1.4187  0.5483
  283MOL0     C37264   7.158   2.594   2.177 -0.4435 -0.2905 -0.4328
  283MOL0     C37265   7.039   2.672   2.252 -0.0158 -0.3290  0.0392
  283MOL0     C37266   6.990   2.611   2.380  0.4485  0.3907  0.5002
  283MOL0     C37267   6.994   2.710   2.492 -0.3033  0.1144 -1.1862
  283MOL0    Cl37268   6.839   2.795   2.519  0.1752 -0.2824 -0.1753
  283MOL0     C37269   7.829   2.525   1.793 -0.0432 -0.1125 -0.1261
  283MOL0     C37270   7.945   2.442   1.775  1.3505  0.3555 -0.7223
  283MOL0     O37271   8.111   2.237   1.900 -1.0378  0.3355 -0.4678
  283MOL0     C37272   8.375   2.119   1.819 -0.4849 -0.0511 -0.1674
  283MOL0     C37273   8.465   2.022   1.788 -0.2891 -0.0953  0.4742
  283MOL0     N37274   8.873   1.576   1.926 -0.2291 -0.7322 -0.3589
  283MOL0     N37275   8.976   1.651   1.927 -0.5265  0.4810 -0.0564
  283MOL0     C37276  10.004   1.777   2.161  0.5715 -0.2073  0.9963
  283MOL0     C37277  10.141   1.768   2.192 -0.1248 -0.4739 -0.5994
  283MOL0     C37278  10.548   1.614   2.312 -0.7380  0.7591 -0.0826
  283MOL0     C37279  10.632   1.540   2.226  0.9038  0.2716 -0.7037
  283MOL0     C37280  10.764   1.498   2.262  0.3471 -0.9770 -0.5966
  283MOL0     C37281  10.821   1.554   2.384  0.4042  0.4219 -0.5228
  283MOL0     O37282  10.930   1.502   2.449 -0.8932  0.2737 -0.1656
  283MOL0     C37283  11.056   1.508   2.392 -0.3806  0.3672 -0.6053
  283MOL0     C37284  11.161   1.555   2.495 -0.1078  0.3726 -0.0947
  283MOL0     C37285  11.293   1.567   2.424  0.2503 -0.1387 -0.4203
  283MOL0     C37286  11.393   1.665   2.488  0.3769  0.6692 -0.8905
  283MOL0     C37287  11.385   1.665   2.636  0.1069 -0.4377  0.7114
  283MOL0     C37288  11.388   1.678   2.758 -1.0589 -0.3561  0.2238
  283MOL0     C37289  10.744   1.631   2.469 -1.5473 -0.1858 -0.1754
  283MOL0     C37290  10.607   1.663   2.437 -0.7931  0.7052 -0.3035
  283MOL0     H37291  10.226   1.536   1.951 -1.1635  1.6754 -2.2765
  283MOL0     H37292   9.987   1.555   1.912  1.1944  0.3360 -0.8514
  283MOL0     H37293   9.734   1.886   2.088 -0.2045 -0.1934 -3.4441
  283MOL0     H37294   9.738   1.758   2.207 -0.1761 -0.0691  0.1168
  283MOL0     H37295   9.546   1.654   2.069 -1.9186  0.3690 -0.9207
  283MOL0     H37296   9.545   1.793   1.967 -0.7082 -1.4721 -0.7049
  283MOL0     H37297   9.507   1.919   2.193  0.7109 -0.4166  0.1259
  283MOL0     H37298   9.477   1.764   2.266 -1.9277 -3.1026 -1.8995
  283MOL0     H37299   9.332   1.861   2.012  1.0735 -0.2136  0.1668
  283MOL0     H37300   9.291   1.709   2.102 -0.4485 -0.3676 -0.1709
  283MOL0     H37301   9.259   1.987   2.210  5.1234 -0.3982  2.0620
  283MOL0     H37302   9.250   1.840   2.309  1.3635  2.0867 -0.4027
  283MOL0     H37303   9.035   1.892   2.261  1.4353 -3.2184  0.3798
  283MOL0     H37304   9.042   1.759   2.160 -0.1977  0.9153 -0.3629
  283MOL0     H37305   8.950   2.018   2.091 -0.7918 -1.7750  3.0285
  283MOL0     H37306   9.118   2.044   2.047 -0.1880  0.1405  1.0411
  283MOL0     H37307   9.142   1.852   1.919 -0.3455 -1.2700 -0.7087
  283MOL0     H37308   9.025   1.957   1.840  1.2154 -1.0511 -0.0808
  283MOL0     H37309   8.759   1.892   1.892 -0.5476 -0.4335 -0.9561
  283MOL0     H37310   8.556   1.682   1.857  2.0842  3.0660  1.6631
  283MOL0     H37311   8.604   1.543   1.958  0.7772 -2.2680 -0.7003
  283MOL0     H37312   8.558   1.438   1.743  1.7398 -1.0146 -1.6324
  283MOL0     H37313   8.726   1.477   1.730 -0.0602  0.7033  2.8329
  283MOL0     H37314   8.713   1.648   1.577  2.2771 -1.0130  1.4058
  283MOL0     H37315   8.599   1.517   1.530 -0.4284 -1.2534  2.1213
  283MOL0     H37316   8.424   1.651   1.646 -0.9924 -0.4798  0.0180
  283MOL0     H37317   8.491   1.730   1.493  2.2080  1.2416  0.2033
  283MOL0     H37318   8.321   1.875   1.512  1.8963 -1.9094 -0.0891
  283MOL0     H37319   8.140   2.029   1.591 -0.4260  3.8085  1.4477
  283MOL0     H37320   7.803   2.165   1.638  1.4914 -1.2401  2.9105
  283MOL0     H37321   7.586   2.308   1.715 -0.0856  0.5829  1.4601
  283MOL0     H37322   7.444   2.423   1.825 -3.3244  0.5311  0.4837
  283MOL0     H37323   7.449   2.524   1.676  0.2921  0.7849 -1.0281
  283MOL0     H37324   7.266   2.624   1.796 -2.1299 -0.6040  3.4811
  283MOL0     H37325   7.396   2.726   1.842  0.8150  0.5249 -3.2045
  283MOL0     H37326   7.411   2.575   2.065 -0.6106 -1.0766  0.0746
  283MOL0     H37327   7.286   2.477   1.989 -0.9344  0.8809 -0.8806
  283MOL0     H37328   7.250   2.765   2.082 -0.1202 -1.0371 -0.6619
  283MOL0     H37329   7.131   2.675   1.982 -1.0142  1.7326  1.8171
  283MOL0     H37330   7.239   2.585   2.251 -0.5686  2.9075  0.2092
  283MOL0     H37331   7.116   2.495   2.155 -3.8436  0.8421  0.2590
  283MOL0     H37332   6.954   2.685   2.183  0.5584  0.3770 -0.5547
  283MOL0     H37333   7.076   2.772   2.276  1.7336 -1.6339  3.2109
  283MOL0     H37334   6.890   2.566   2.369 -0.3597  2.7001 -4.0727
  283MOL0     H37335   7.058   2.526   2.394 -0.3802 -0.2173  0.9403
  283MOL0     H37336   7.084   2.772   2.501  0.1832 -0.8673  1.9952
  283MOL0     H37337   7.004   2.645   2.579  0.4033 -0.4195 -1.6441
  283MOL0     H37338   7.840   2.628   1.822 -0.5661  0.5776 -2.1630
  283MOL0     H37339   8.045   2.475   1.800  1.4238 -1.0187  0.9033
  283MOL0     H37340   8.392   2.194   1.895 -0.9653  0.6086 -0.6973
  283MOL0     H37341   8.565   2.007   1.830  1.3007 -0.4605 -3.0717
  283MOL0     H37342   9.939   1.849   2.211  2.0550  0.2033  2.4460
  283MOL0     H37343  10.182   1.838   2.264  1.9650 -0.1757 -1.9982
  283MOL0     H37344  10.583   1.505   2.136 -2.7583  0.0074  1.1774
  283MOL0     H37345  10.827   1.432   2.203  0.2598  0.4101 -2.3338
  283MOL0     H37346  11.048   1.574   2.306  0.9046  0.6467 -0.5220
  283MOL0     H37347  11.083   1.411   2.348  2.2508  0.6049  0.2919
  283MOL0     H37348  11.132   1.652   2.536  0.5212  1.0838 -1.2796
  283MOL0     H37349  11.159   1.476   2.571 -0.1484  1.4686  1.0704
  283MOL0     H37350  11.279   1.614   2.326  1.6276  0.0348 -0.5545
  283MOL0     H37351  11.344   1.470   2.421 -2.2149 -1.7593  3.1396
  283MOL0     H37352  11.494   1.645   2.449 -0.0946 -1.1427 -1.2952
  283MOL0     H37353  11.367   1.766   2.454  0.8956  1.2816  0.4559
  283MOL0     H37354  11.375   1.699   2.862 -0.7177  0.4621  0.1118
  283MOL0     H37355  10.773   1.668   2.567 -0.3369 -1.3278 -0.0818
  283MOL0     H37356  10.558   1.725   2.511 -0.3934 -0.1809  0.7214
  284MOL0     O37357   5.471   2.153   8.752 -0.1787 -0.0515  0.1283
  284MOL0     C37358   5.458   2.115   8.636  0.8752 -0.6266  0.0075
  284MOL0     O37359   5.555   2.051   8.560 -0.4007 -0.9067  0.3347
  284MOL0     C37360   5.687   2.053   8.598  0.2895 -0.4903  0.6074
  284MOL0     C37361   5.733   1.997   8.713  1.2058 -0.2961  0.4854
  284MOL0     C37362   5.870   1.996   8.747  0.2942  0.7055  0.3530
  284MOL0     C37363   5.965   2.039   8.646  0.4683 -0.1351 -0.2583
  284MOL0     O37364   6.101   2.043   8.656  0.0863  0.4831  0.1025
  284MOL0     C37365   6.158   1.980   8.769  0.2587 -0.3674 -0.7568
  284MOL0     C37366   6.316   1.972   8.748  0.4057 -0.2016 -0.1375
  284MOL0     C37367   6.393   1.915   8.866  0.0567 -0.9042 -0.2993
  284MOL0     C37368   6.413   2.027   8.978  0.3552 -0.1029  0.2735
  284MOL0     C37369   6.538   2.001   9.059 -0.1107  0.1393 -1.1304
  284MOL0     C37370   6.569   1.854   9.101 -0.1226  0.7631 -0.1574
  284MOL0     C37371   6.445   1.799   9.172  0.2221 -0.6471 -0.6501
  284MOL0     C37372   6.474   1.656   9.224  0.2423 -0.0484  0.6543
  284MOL0     N37373   6.361   1.572   9.279  0.6172 -0.4862 -0.0086
  284MOL0     C37374   6.326   1.579   9.409  0.4903 -0.4577  0.1290
  284MOL0     C37375   6.221   1.487   9.412  0.0756  0.3375  0.2683
  284MOL0     C37376   6.140   1.461   9.539 -0.3531  0.3064  0.0489
  284MOL0     C37377   6.001   1.530   9.551 -0.3635  0.2950 -0.5529
  284MOL0     C37378   5.914   1.461   9.445 -0.4275 -0.2632  0.1199
  284MOL0     C37379   5.768   1.495   9.441  0.3866  0.4305 -0.6709
  284MOL0     O37380   5.745   1.640   9.438  0.2150 -0.7915  0.3377
  284MOL0     C37381   5.605   1.674   9.410 -0.5257 -1.0872 -0.5792
  284MOL0     C37382   5.577   1.807   9.404 -0.0367  0.0430  0.3287
  284MOL0     C37383   5.448   1.856   9.375 -0.3106 -0.2454  0.2102
  284MOL0     C37384   5.345   1.771   9.344 -0.3412 -0.2988  0.2209
  284MOL0     C37385   5.204   1.802   9.332 -0.2767  0.3256 -0.0222
  284MOL0     O37386   5.127   1.707   9.270 -0.2224  0.0097  0.3329
  284MOL0     C37387   4.985   1.713   9.254  0.2445 -0.8292 -0.5000
  284MOL0     C37388   4.915   1.839   9.222 -0.3256  0.4431  0.0442
  284MOL0     C37389   4.776   1.837   9.197  0.1797  0.5081 -0.0948
  284MOL0     C37390   4.708   1.711   9.195 -0.2444 -0.6787 -0.0206
  284MOL0     O37391   4.573   1.697   9.172  0.1032  0.4705 -0.6252
  284MOL0     C37392   4.483   1.811   9.182  0.3692 -1.2813 -0.4698
  284MOL0     C37393   4.340   1.773   9.170  0.0427 -0.2468 -0.9165
  284MOL0     C37394   4.298   1.697   9.300 -0.4197  0.1877  0.1260
  284MOL0     C37395   4.148   1.664   9.291 -0.0195 -0.7998 -0.3722
  284MOL0     C37396   4.129   1.555   9.403  0.4310 -0.5809  0.1265
  284MOL0     C37397   3.985   1.502   9.415 -0.4023 -0.3939  0.5331
  284MOL0     C37398   3.983   1.404   9.535  0.3389  0.0195  0.9606
  284MOL0     C37399   3.847   1.341   9.540  0.1255 -0.2310 -0.0388
  284MOL0    Cl37400   3.830   1.275   9.707 -0.1060  0.0810 -0.4340
  284MOL0     C37401   4.772   1.588   9.216  0.3348 -0.4353 -0.3200
  284MOL0     C37402   4.906   1.589   9.251 -0.3647 -0.1639  0.2521
  284MOL0     O37403   5.162   1.911   9.371  0.7990  0.1843 -0.1895
  284MOL0     C37404   5.373   1.634   9.346  0.0778 -0.2273 -0.3045
  284MOL0     C37405   5.504   1.587   9.385 -0.4343  0.3719  0.0474
  284MOL0     N37406   6.204   1.426   9.289 -0.6392  0.0440 -0.4977
  284MOL0     N37407   6.286   1.485   9.208  0.3516 -0.0060  0.3521
  284MOL0     C37408   5.916   2.082   8.528 -0.3340 -0.2859  0.1921
  284MOL0     C37409   5.775   2.102   8.506  0.2155  0.7906 -0.7777
  284MOL0     C37410   5.322   2.142   8.570  0.7028  0.2941  1.1246
  284MOL0     C37411   5.226   2.226   8.635 -0.4164  0.1676 -0.7833
  284MOL0     C37412   5.101   2.263   8.578 -0.8363  0.0628  0.3283
  284MOL0     C37413   5.071   2.208   8.454  0.7724  0.4657  0.5212
  284MOL0     O37414   4.946   2.232   8.389 -1.0327 -0.2403  0.9315
  284MOL0     C37415   4.864   2.345   8.433  0.0449  0.3255  0.1195
  284MOL0     C37416   4.726   2.290   8.415  0.2736  0.2321  0.4343
  284MOL0     C37417   4.621   2.383   8.485 -0.1124 -0.0740 -0.7318
  284MOL0     C37418   4.476   2.356   8.423 -0.2779 -0.0121 -0.5046
  284MOL0     C37419   4.414   2.232   8.470  0.3421  0.6478 -0.5766
  284MOL0     C37420   4.349   2.137   8.509 -0.1094  0.2610  0.5866
  284MOL0     C37421   5.163   2.131   8.381  0.1425  0.9643 -1.1807
  284MOL0     C37422   5.283   2.089   8.441 -1.2203 -0.0833  0.2090
  284MOL0     H37423   5.656   1.951   8.774 -0.4691 -1.4415 -2.3193
  284MOL0     H37424   5.909   1.940   8.832 -0.2183 -1.5304 -0.7817
  284MOL0     H37425   6.111   1.882   8.780  0.1100 -0.2161  0.0067
  284MOL0     H37426   6.133   2.025   8.865 -2.9339 -1.5720 -0.9089
  284MOL0     H37427   6.359   2.067   8.716  0.1775  0.1541  0.6096
  284MOL0     H37428   6.327   1.902   8.664 -0.0293 -1.6330  0.9524
  284MOL0     H37429   6.488   1.878   8.828 -0.3352 -3.3651  0.9197
  284MOL0     H37430   6.344   1.824   8.903  0.7285 -1.4933 -0.8502
  284MOL0     H37431   6.433   2.125   8.933  0.3644  0.7285  2.0079
  284MOL0     H37432   6.319   2.032   9.033 -0.8134 -0.9730 -1.5462
  284MOL0     H37433   6.529   2.050   9.156 -1.1510  1.3476 -1.8083
  284MOL0     H37434   6.625   2.044   9.008  0.3191 -0.4776 -0.9338
  284MOL0     H37435   6.649   1.864   9.175 -0.2811 -1.6868  0.4350
  284MOL0     H37436   6.613   1.795   9.020  1.2129  2.3391 -0.6492
  284MOL0     H37437   6.423   1.867   9.255 -0.1882 -1.0694 -0.4095
  284MOL0     H37438   6.355   1.797   9.111  0.6355 -3.9639 -1.3124
  284MOL0     H37439   6.551   1.660   9.302  0.0973 -1.1255  0.8610
  284MOL0     H37440   6.510   1.594   9.142 -1.6969 -2.6888  1.6441
  284MOL0     H37441   6.383   1.636   9.481  1.7993 -1.5306 -0.0040
  284MOL0     H37442   6.199   1.497   9.624  0.1595  2.6935 -1.2462
  284MOL0     H37443   6.112   1.355   9.547 -4.2462  1.3141  1.8249
  284MOL0     H37444   6.017   1.637   9.537 -1.4731  1.0596  2.9676
  284MOL0     H37445   5.963   1.525   9.654 -2.0880  2.1833 -1.0269
  284MOL0     H37446   5.948   1.481   9.343  0.7178  0.0074  0.5459
  284MOL0     H37447   5.914   1.351   9.451 -1.5181 -0.4469 -2.1361
  284MOL0     H37448   5.732   1.456   9.536  1.2472  1.8313  0.2691
  284MOL0     H37449   5.716   1.437   9.365  1.2602 -3.7556  1.6324
  284MOL0     H37450   5.664   1.863   9.436  0.1151  0.2550 -0.4462
  284MOL0     H37451   5.432   1.963   9.374  2.1714  0.2056  0.1849
  284MOL0     H37452   4.963   1.936   9.227  0.8446 -0.1717  2.4578
  284MOL0     H37453   4.725   1.930   9.176 -0.2771  0.6970  1.7302
  284MOL0     H37454   4.495   1.880   9.098  0.4032  1.1559  1.4359
  284MOL0     H37455   4.497   1.865   9.276 -2.8828 -1.3780  0.1818
  284MOL0     H37456   4.321   1.719   9.077 -3.8162 -1.3436  0.3373
  284MOL0     H37457   4.277   1.861   9.155 -0.2439 -0.6159 -1.9756
  284MOL0     H37458   4.307   1.763   9.386 -0.2906 -1.8198  1.7414
  284MOL0     H37459   4.353   1.602   9.298 -1.0488 -0.1767 -0.4678
  284MOL0     H37460   4.086   1.748   9.324 -1.7170 -2.5167  1.0322
  284MOL0     H37461   4.118   1.638   9.189 -1.4721 -0.5010 -0.0398
  284MOL0     H37462   4.154   1.604   9.497  0.0470  2.0147 -1.0389
  284MOL0     H37463   4.194   1.468   9.391  3.6582  1.4424  1.4516
  284MOL0     H37464   3.965   1.442   9.326  2.0120 -0.2515 -0.1690
  284MOL0     H37465   3.918   1.588   9.427  0.9862  0.3299  4.9075
  284MOL0     H37466   4.059   1.326   9.526  0.1070 -0.0950 -0.1138
  284MOL0     H37467   3.995   1.456   9.630  0.3200  0.5140  0.6942
  284MOL0     H37468   3.867   1.263   9.465  3.4971  0.8587 -0.4105
  284MOL0     H37469   3.769   1.412   9.512 -0.0768 -0.2215  0.5347
  284MOL0     H37470   4.703   1.505   9.208 -3.0173  2.1073 -0.3772
  284MOL0     H37471   4.963   1.498   9.264 -3.4342 -2.7227 -2.2784
  284MOL0     H37472   5.289   1.568   9.324 -0.1881  0.3227 -0.9792
  284MOL0     H37473   5.517   1.479   9.379 -1.5770  0.2722 -1.5962
  284MOL0     H37474   5.987   2.101   8.448 -0.6481 -0.6625 -0.1801
  284MOL0     H37475   5.748   2.136   8.407  4.3095  4.2937 -0.9475
  284MOL0     H37476   5.244   2.267   8.734 -1.4243  0.9598 -0.9124
  284MOL0     H37477   5.032   2.323   8.636 -0.1325 -0.5595  1.8809
  284MOL0     H37478   4.880   2.429   8.365  1.1739  0.1068  0.0937
  284MOL0     H37479   4.868   2.379   8.537 -1.8500 -4.7508  2.1990
  284MOL0     H37480   4.705   2.287   8.308 -0.6471 -0.2677  0.6210
  284MOL0     H37481   4.726   2.190   8.459 -0.4885 -0.2482 -0.6178
  284MOL0     H37482   4.644   2.490   8.474 -1.3534  0.4328  1.0684
  284MOL0     H37483   4.627   2.364   8.592 -0.0802  0.7103 -0.5890
  284MOL0     H37484   4.408   2.438   8.446  0.2283  0.1511  0.4594
  284MOL0     H37485   4.476   2.358   8.314  0.1388 -1.0613 -0.5372
  284MOL0     H37486   4.299   2.050   8.548 -1.6420  1.5509  1.6502
  284MOL0     H37487   5.127   2.093   8.286  0.9857  0.8888 -1.4728
  284MOL0     H37488   5.353   2.020   8.394  0.9414  1.9553  0.2670
  285MOL0     O37489  11.103   3.856   4.301  0.6470  0.2184 -0.2638
  285MOL0     C37490  11.163   3.956   4.303 -0.0829  0.0164  0.3318
  285MOL0     O37491  11.113   4.080   4.316 -0.4300  0.2225 -0.0879
  285MOL0     C37492  10.980   4.115   4.308  0.4163 -0.9912  0.4683
  285MOL0     C37493  10.944   4.210   4.207  0.0851  0.0485  0.1794
  285MOL0     C37494  10.810   4.250   4.189  0.6449  0.7378  0.0296
  285MOL0     C37495  10.708   4.209   4.270 -0.7458  0.5294 -0.6658
  285MOL0     O37496  10.587   4.270   4.252  0.3167 -0.3796  0.3784
  285MOL0     C37497  10.474   4.192   4.281  0.3713 -0.6876 -0.3131
  285MOL0     C37498  10.347   4.252   4.236 -0.4689 -0.9981  1.1371
  285MOL0     C37499  10.358   4.266   4.079 -0.1175 -0.1851 -0.2557
  285MOL0     C37500  10.252   4.367   4.037 -0.2682 -0.1018 -0.5790
  285MOL0     C37501  10.226   4.388   3.888  0.3856  0.0993 -0.1957
  285MOL0     C37502  10.242   4.268   3.792 -0.1652  0.1713  0.2068
  285MOL0     C37503  10.166   4.301   3.663  0.5490 -0.8443  0.1357
  285MOL0     C37504  10.141   4.188   3.560  0.4350  0.1598 -0.3233
  285MOL0     N37505  10.268   4.132   3.499  0.7865 -0.9623 -0.3101
  285MOL0     C37506  10.321   4.198   3.388 -0.0886  0.0435 -0.4940
  285MOL0     C37507  10.428   4.123   3.357  0.0082 -0.1926  0.4906
  285MOL0     C37508  10.515   4.168   3.238  0.0074 -0.6475  0.7651
  285MOL0     C37509  10.466   4.191   3.093 -0.8418  0.3545  0.0862
  285MOL0     C37510  10.587   4.191   2.991 -0.4995  0.5411 -0.0416
  285MOL0     C37511  10.697   4.280   3.033  0.3753 -0.4155 -0.2199
  285MOL0     O37512  10.791   4.298   2.926  0.1609  0.1527 -1.5239
  285MOL0     C37513  10.741   4.342   2.804 -0.6159  0.3563 -0.9008
  285MOL0     C37514  10.716   4.475   2.798 -0.4297 -0.0822  0.5495
  285MOL0     C37515  10.672   4.539   2.687 -0.2967 -0.2600 -0.1035
  285MOL0     C37516  10.675   4.468   2.567 -0.5495  0.2771 -0.1382
  285MOL0     C37517  10.649   4.531   2.442 -0.1847  0.0887 -0.1054
  285MOL0     O37518  10.592   4.446   2.351 -0.3372 -0.1741  0.1730
  285MOL0     C37519  10.514   4.500   2.256 -0.6076 -0.5202 -0.9191
  285MOL0     C37520  10.379   4.480   2.261  0.0499 -1.1436  0.1360
  285MOL0     C37521  10.294   4.535   2.161 -0.5853 -0.0384 -0.8062
  285MOL0     C37522  10.345   4.608   2.053  0.1105 -0.3635  0.9440
  285MOL0     O37523  10.258   4.650   1.951  0.4999  0.0514 -0.3159
  285MOL0     C37524  10.272   4.782   1.902 -0.0546 -0.9799 -0.0683
  285MOL0     C37525  10.150   4.834   1.822  0.1533  0.6240  0.3040
  285MOL0     C37526  10.035   4.880   1.911 -0.6953 -0.0626  0.2125
  285MOL0     C37527   9.920   4.938   1.842 -0.3185 -0.2846 -0.3035
  285MOL0     C37528   9.823   5.015   1.922 -0.2071 -0.0242  0.3191
  285MOL0     C37529   9.747   4.945   2.022  0.1929 -0.2770 -0.1510
  285MOL0     C37530   9.672   5.046   2.118 -0.6154 -0.5403 -0.1055
  285MOL0     C37531   9.580   4.979   2.216  0.1142 -0.0168  0.3490
  285MOL0    Cl37532   9.429   5.072   2.238 -0.0757 -0.3120  0.1581
  285MOL0     C37533  10.489   4.627   2.044 -0.0059  0.3925  0.6910
  285MOL0     C37534  10.568   4.567   2.139 -0.0096  1.0086  0.2881
  285MOL0     O37535  10.642   4.656   2.439 -0.2864  0.3485 -0.5388
  285MOL0     C37536  10.711   4.335   2.569 -0.2934  0.3951 -0.4441
  285MOL0     C37537  10.732   4.268   2.685  0.2187 -0.6185  0.1447
  285MOL0     N37538  10.442   4.018   3.444  0.0245  0.0999  0.7305
  285MOL0     N37539  10.340   4.028   3.531 -0.8215 -0.7195 -0.5232
  285MOL0     C37540  10.747   4.127   4.377 -1.0688 -0.0349 -0.0853
  285MOL0     C37541  10.877   4.079   4.396  0.0382  0.2049  0.3310
  285MOL0     C37542  11.307   3.928   4.314 -0.8825 -0.2807  0.9102
  285MOL0     C37543  11.391   4.029   4.357  1.0116 -0.3695 -0.0310
  285MOL0     C37544  11.528   4.011   4.365  1.0809  0.0996 -1.1486
  285MOL0     C37545  11.587   3.884   4.342 -0.6082  0.3487 -0.1275
  285MOL0     O37546  11.722   3.860   4.375 -0.1957  0.1357  0.1630
  285MOL0     C37547  11.785   3.725   4.355  0.6023 -0.1789 -0.6269
  285MOL0     C37548  11.928   3.736   4.407  0.4192 -0.6975  0.1611
  285MOL0     C37549  12.004   3.849   4.341 -0.1294  1.2129 -0.6617
  285MOL0     C37550  12.151   3.857   4.381  0.3176  0.2838  0.2005
  285MOL0     C37551  12.209   3.994   4.379  0.1729 -0.3984  0.3365
  285MOL0     C37552  12.265   4.102   4.382 -0.1080 -0.3899  0.2700
  285MOL0     C37553  11.505   3.787   4.281 -0.7362 -0.7476  0.4167
  285MOL0     C37554  11.370   3.812   4.260  0.6973  0.3019 -0.0991
  285MOL0     H37555  11.023   4.245   4.141 -1.0548  0.2696 -1.0924
  285MOL0     H37556  10.772   4.310   4.107  2.0945 -1.8398 -2.7379
  285MOL0     H37557  10.464   4.153   4.382 -0.4440  0.7199  0.1756
  285MOL0     H37558  10.483   4.100   4.222 -0.1249 -2.0863  1.6871
  285MOL0     H37559  10.343   4.353   4.279  1.3882  0.1573 -1.1930
  285MOL0     H37560  10.262   4.190   4.267 -0.1619 -2.1922 -0.3127
  285MOL0     H37561  10.344   4.169   4.030  0.1381  0.0382 -0.7753
  285MOL0     H37562  10.457   4.305   4.054 -0.6342  1.0402 -0.4813
  285MOL0     H37563  10.160   4.327   4.081  1.3496 -3.1871  0.2806
  285MOL0     H37564  10.279   4.463   4.082  1.3383 -2.0413  2.9529
  285MOL0     H37565  10.295   4.464   3.849  0.5658 -1.3231 -2.9277
  285MOL0     H37566  10.130   4.435   3.864  1.9566  2.6735 -1.9818
  285MOL0     H37567  10.206   4.177   3.840  1.0310  0.2037  1.2283
  285MOL0     H37568  10.343   4.250   3.755 -1.4396 -1.5670 -2.7999
  285MOL0     H37569  10.069   4.345   3.689  0.3900 -1.6732  1.0048
  285MOL0     H37570  10.220   4.383   3.615 -0.3276  1.6097  3.0300
  285MOL0     H37571  10.070   4.203   3.478  2.7174 -0.0364 -2.4371
  285MOL0     H37572  10.106   4.109   3.627 -1.3919  0.2609 -1.0955
  285MOL0     H37573  10.289   4.288   3.337  0.7326  1.5456  1.5104
  285MOL0     H37574  10.591   4.089   3.234 -0.2109 -0.9889  2.5181
  285MOL0     H37575  10.570   4.259   3.262  0.5473 -0.0606 -2.3013
  285MOL0     H37576  10.406   4.283   3.095 -4.0570 -1.5421 -1.0225
  285MOL0     H37577  10.394   4.115   3.063  2.0051 -2.5757  0.1291
  285MOL0     H37578  10.622   4.089   2.974  0.9791  1.1494 -0.7892
  285MOL0     H37579  10.550   4.224   2.894 -0.5197  0.0166 -0.2130
  285MOL0     H37580  10.745   4.250   3.127 -1.2882 -0.7948  0.5377
  285MOL0     H37581  10.654   4.380   3.043 -3.4822 -1.6733 -2.3346
  285MOL0     H37582  10.704   4.536   2.887 -1.4667 -0.3079  0.5765
  285MOL0     H37583  10.653   4.645   2.697  0.9963 -0.0966  0.8877
  285MOL0     H37584  10.332   4.420   2.338  1.5181  0.0075  2.0100
  285MOL0     H37585  10.188   4.518   2.172 -1.0299  1.3723 -2.4905
  285MOL0     H37586  10.360   4.781   1.837  0.8789  0.0346  1.1081
  285MOL0     H37587  10.294   4.844   1.989 -0.9179 -2.4739  1.2637
  285MOL0     H37588  10.125   4.760   1.746 -1.8581  0.6524  0.8754
  285MOL0     H37589  10.194   4.916   1.766  2.1452 -1.7161 -1.7998
  285MOL0     H37590  10.080   4.957   1.974  0.1851  1.5541 -2.2201
  285MOL0     H37591  10.007   4.806   1.987 -0.4083  1.1241  1.5065
  285MOL0     H37592   9.963   5.013   1.775  2.0363 -0.3984  0.9708
  285MOL0     H37593   9.874   4.856   1.785  1.4026 -0.4360 -1.5804
  285MOL0     H37594   9.748   5.054   1.853  3.1663  2.0651 -2.4619
  285MOL0     H37595   9.861   5.102   1.976 -2.6704 -0.6247  3.3510
  285MOL0     H37596   9.813   4.877   2.076  0.7804  1.2722  1.1633
  285MOL0     H37597   9.675   4.880   1.971  1.2555  0.2091 -2.3846
  285MOL0     H37598   9.740   5.114   2.169 -0.6394 -1.4423  1.2033
  285MOL0     H37599   9.623   5.121   2.056 -1.5399 -1.0818 -0.0570
  285MOL0     H37600   9.614   4.947   2.315 -1.3506  0.3609  1.0107
  285MOL0     H37601   9.551   4.892   2.157  3.0727  1.0828 -3.0646
  285MOL0     H37602  10.537   4.672   1.957 -1.1963  0.7849  0.2096
  285MOL0     H37603  10.674   4.589   2.133 -0.1263  1.1688 -2.4564
  285MOL0     H37604  10.731   4.278   2.479  0.8427  3.4410 -2.2501
  285MOL0     H37605  10.750   4.161   2.677  1.8826 -0.3722  0.1771
  285MOL0     H37606  10.669   4.104   4.448  0.3393 -0.4338  1.3725
  285MOL0     H37607  10.896   4.011   4.478 -2.0386 -1.1149 -0.1995
  285MOL0     H37608  11.341   4.123   4.378 -0.4262 -1.3493  1.1997
  285MOL0     H37609  11.585   4.095   4.402  0.7212  2.0218 -4.5151
  285MOL0     H37610  11.778   3.679   4.256 -1.2629 -0.7227 -0.2763
  285MOL0     H37611  11.738   3.653   4.422  0.2259 -0.1283 -0.8297
  285MOL0     H37612  11.918   3.751   4.515 -0.8311 -1.1784  0.1338
  285MOL0     H37613  11.978   3.640   4.392  0.9756 -0.1437 -1.7692
  285MOL0     H37614  11.970   3.947   4.375 -2.4495 -0.0589  0.9120
  285MOL0     H37615  11.993   3.842   4.232  2.9192  0.0905 -1.0161
  285MOL0     H37616  12.165   3.817   4.482 -0.9598  1.8018  1.0068
  285MOL0     H37617  12.193   3.784   4.310 -0.4280  0.8048 -0.7939
  285MOL0     H37618  12.315   4.197   4.382  1.0844 -0.9955 -0.5103
  285MOL0     H37619  11.552   3.692   4.257  1.3088  0.4266 -0.4520
  285MOL0     H37620  11.303   3.746   4.206 -1.5907  1.6216  1.0024
  286MOL0     O37621   7.398   5.451  10.908  0.2834  0.6079  0.3152
  286MOL0     C37622   7.478   5.531  10.860 -0.1092 -0.0055  0.3051
  286MOL0     O37623   7.462   5.600  10.741  0.5655 -0.3708  0.1237
  286MOL0     C37624   7.401   5.530  10.638  0.2247 -0.1331  0.0591
  286MOL0     C37625   7.474   5.478  10.528  0.2459 -0.1930  0.0651
  286MOL0     C37626   7.414   5.395  10.431 -1.2082  0.0584 -0.5169
  286MOL0     C37627   7.283   5.357  10.452  0.4289  0.1172  0.2692
  286MOL0     O37628   7.234   5.278  10.357  0.3989  0.2471 -0.5181
  286MOL0     C37629   7.094   5.246  10.368 -0.6082  0.0480 -0.2841
  286MOL0     C37630   7.066   5.149  10.251  0.3709 -1.3447  0.4286
  286MOL0     C37631   6.918   5.100  10.254 -0.0048 -0.1568 -0.6037
  286MOL0     C37632   6.866   5.091  10.116 -0.2026 -0.9494  0.1237
  286MOL0     C37633   6.717   5.069  10.125 -0.1506 -0.3348  0.2659
  286MOL0     C37634   6.680   4.931  10.177  0.0003 -0.4992  0.3333
  286MOL0     C37635   6.532   4.913  10.180 -0.0811 -0.1015 -0.6883
  286MOL0     C37636   6.470   4.978  10.302  0.5379 -0.5509  0.8045
  286MOL0     N37637   6.332   4.931  10.310  0.2842  0.0530  0.4674
  286MOL0     C37638   6.241   4.889  10.211  0.1319 -0.3145  0.6375
  286MOL0     C37639   6.138   4.831  10.285  0.6965 -0.1003  0.8506
  286MOL0     C37640   6.004   4.779  10.234  0.2680 -0.0948  0.0270
  286MOL0     C37641   5.882   4.862  10.282 -0.6107 -0.0637  0.1260
  286MOL0     C37642   5.740   4.802  10.230  1.0822  0.9671 -0.4795
  286MOL0     C37643   5.618   4.869  10.311  0.1425 -0.3858  0.4064
  286MOL0     O37644   5.578   4.998  10.249  0.2228 -0.7646 -0.2433
  286MOL0     C37645   5.454   5.051  10.299  0.0969  0.0546  0.3312
  286MOL0     C37646   5.384   5.148  10.220  0.2321 -0.0399 -0.2583
  286MOL0     C37647   5.260   5.209  10.247 -0.5094  0.1840 -1.1522
  286MOL0     C37648   5.190   5.159  10.356 -0.5197  0.3458  0.0519
  286MOL0     C37649   5.063   5.211  10.388 -1.2409  1.0552 -0.3935
  286MOL0     O37650   5.019   5.331  10.339  0.1428  0.2478 -0.0422
  286MOL0     C37651   4.903   5.384  10.400  0.4687  0.1865  0.0952
  286MOL0     C37652   4.774   5.331  10.373 -0.5880 -0.1720  0.3176
  286MOL0     C37653   4.666   5.375  10.447 -1.0137 -0.3315  0.7116
  286MOL0     C37654   4.679   5.466  10.551  0.2652 -0.0683  0.1493
  286MOL0     O37655   4.576   5.515  10.623  0.2720  0.6716  0.5194
  286MOL0     C37656   4.466   5.551  10.543  0.1772  0.4890  0.5594
  286MOL0     C37657   4.366   5.626  10.630  0.0569  0.8716 -0.8809
  286MOL0     C37658   4.263   5.711  10.556 -0.2761  0.3015 -0.6016
  286MOL0     C37659   4.170   5.614  10.479 -0.3284 -0.0719 -0.5984
  286MOL0     C37660   4.055   5.683  10.416  0.3361  0.2043 -0.2335
  286MOL0     C37661   4.092   5.769  10.296  0.7225 -1.2485 -0.0714
  286MOL0     C37662   3.968   5.827  10.220  0.5728  0.2886 -0.4037
  286MOL0     C37663   3.861   5.736  10.149 -0.5708 -0.5035 -0.0642
  286MOL0    Cl37664   3.710   5.824  10.099 -0.2589  0.2650 -0.0052
  286MOL0     C37665   4.804   5.522  10.568 -0.8707  0.6125 -0.3415
  286MOL0     C37666   4.911   5.492  10.488  0.1186 -0.0852  0.5802
  286MOL0     O37667   4.997   5.130  10.455  0.0021  0.0726 -0.0406
  286MOL0     C37668   5.260   5.068  10.442  0.2317  0.6758  0.4184
  286MOL0     C37669   5.377   5.005  10.411 -0.0706 -0.5751  0.6217
  286MOL0     N37670   6.157   4.852  10.423  0.0830  0.5903  0.3700
  286MOL0     N37671   6.280   4.905  10.432 -0.1423 -0.0719 -0.1209
  286MOL0     C37672   7.206   5.408  10.561  0.0546 -0.0316 -0.4801
  286MOL0     C37673   7.260   5.494  10.655 -0.8154  0.0239  0.1130
  286MOL0     C37674   7.609   5.561  10.937 -0.1933 -0.6843  0.2810
  286MOL0     C37675   7.708   5.636  10.875 -0.0518  0.9276 -0.4276
  286MOL0     C37676   7.835   5.664  10.939 -0.3304  0.2780  0.9062
  286MOL0     C37677   7.866   5.594  11.061 -0.8445  0.7123 -0.1502
  286MOL0     O37678   7.987   5.595  11.131  0.8109  0.0480  0.0474
  286MOL0     C37679   8.078   5.701  11.095 -0.0248 -1.0342  0.7091
  286MOL0     C37680   8.180   5.733  11.211 -0.0535  0.2951 -0.2097
  286MOL0     C37681   8.260   5.602  11.249 -0.7805 -0.0789 -0.2285
  286MOL0     C37682   8.358   5.561  11.140 -0.4431  0.6636  0.1158
  286MOL0     C37683   8.407   5.424  11.159  0.4571  0.3505 -0.6033
  286MOL0     C37684   8.423   5.314  11.199  1.3040  0.1941 -1.4031
  286MOL0     C37685   7.767   5.518  11.126  0.4634 -0.1096  0.3799
  286MOL0     C37686   7.634   5.505  11.070  0.2605 -0.5265 -0.5767
  286MOL0     H37687   7.582   5.490  10.525  0.4068 -1.3542  0.4219
  286MOL0     H37688   7.465   5.352  10.345  1.8629 -0.6714  1.5010
  286MOL0     H37689   7.033   5.335  10.350  1.2017  1.5248  0.5504
  286MOL0     H37690   7.076   5.205  10.468  2.7087  3.4026  1.9526
  286MOL0     H37691   7.135   5.065  10.261  0.6485 -0.9087  2.5620
  286MOL0     H37692   7.078   5.205  10.158  2.1065 -0.5867  1.0765
  286MOL0     H37693   6.852   5.166  10.313 -1.2059 -0.0635 -1.9965
  286MOL0     H37694   6.917   5.005  10.307 -1.6187 -0.4818 -1.1704
  286MOL0     H37695   6.887   5.186  10.065 -0.9237  0.5141  2.4348
  286MOL0     H37696   6.914   5.012  10.057 -1.1670 -0.7515 -0.9755
  286MOL0     H37697   6.674   5.089  10.027  2.9034  1.5325 -0.8515
  286MOL0     H37698   6.678   5.148  10.189  2.7109  1.1353  0.3870
  286MOL0     H37699   6.709   4.922  10.282 -1.1214  2.7577  1.0367
  286MOL0     H37700   6.726   4.848  10.123 -0.4179 -0.8184  0.4573
  286MOL0     H37701   6.488   4.940  10.084  0.8417 -2.0091 -1.7107
  286MOL0     H37702   6.511   4.807  10.196 -1.1902  0.5629  3.3742
  286MOL0     H37703   6.465   5.087  10.289  0.3616 -0.8096 -1.6862
  286MOL0     H37704   6.520   4.952  10.396 -0.1291 -0.4947  1.1885
  286MOL0     H37705   6.245   4.897  10.103 -0.2567  4.2916  0.7919
  286MOL0     H37706   5.992   4.674  10.264  3.8861 -0.9757 -1.0846
  286MOL0     H37707   6.004   4.785  10.125  1.2093  2.2675  0.0992
  286MOL0     H37708   5.887   4.967  10.251  1.6272 -0.0210  0.4591
  286MOL0     H37709   5.890   4.866  10.392  0.4295  0.2537  0.0490
  286MOL0     H37710   5.720   4.805  10.123  1.2432  0.0828 -0.5434
  286MOL0     H37711   5.740   4.695  10.252  1.6404  0.9817 -0.3914
  286MOL0     H37712   5.659   4.886  10.411  2.6887  1.1443 -0.7643
  286MOL0     H37713   5.533   4.801  10.318  0.8836 -1.1762  2.4101
  286MOL0     H37714   5.438   5.191  10.136  2.7100 -2.7981 -0.2280
  286MOL0     H37715   5.211   5.275  10.176  1.0445  1.0999 -1.4141
  286MOL0     H37716   4.764   5.245  10.307  2.0329 -0.2062 -0.1639
  286MOL0     H37717   4.568   5.332  10.427  0.1026 -1.1206 -4.7601
  286MOL0     H37718   4.419   5.468  10.489  0.9546  2.0076 -2.6747
  286MOL0     H37719   4.491   5.616  10.459 -0.4136 -0.8693 -0.7148
  286MOL0     H37720   4.417   5.705  10.685 -1.0895  2.9554 -2.6675
  286MOL0     H37721   4.323   5.547  10.692  1.9378  1.1319  0.8690
  286MOL0     H37722   4.317   5.785  10.496 -0.2556  1.4416  0.7589
  286MOL0     H37723   4.201   5.764  10.629 -0.4670 -0.6996 -0.0083
  286MOL0     H37724   4.228   5.559  10.404 -2.5664 -2.4313 -0.7675
  286MOL0     H37725   4.144   5.535  10.550 -0.0204  1.4005  1.2146
  286MOL0     H37726   4.007   5.748  10.489  1.9900  0.2572  0.8498
  286MOL0     H37727   3.989   5.600  10.387  1.2021 -0.7292  0.4032
  286MOL0     H37728   4.161   5.718  10.228  1.2555 -3.8379  2.2381
  286MOL0     H37729   4.134   5.856  10.347  2.3593 -1.4535 -1.0211
  286MOL0     H37730   3.914   5.893  10.289 -0.9173 -2.1636  0.9276
  286MOL0     H37731   3.996   5.887  10.133  0.0061  0.0097 -0.7911
  286MOL0     H37732   3.831   5.652  10.212  1.6893 -2.5516 -1.5255
  286MOL0     H37733   3.912   5.694  10.062 -1.8951  2.5061 -2.4933
  286MOL0     H37734   4.836   5.592  10.645  1.3265  1.0899 -1.6200
  286MOL0     H37735   5.006   5.541  10.507 -1.9018  4.0063  1.1091
  286MOL0     H37736   5.206   5.025  10.526 -0.0483  0.1660 -0.0138
  286MOL0     H37737   5.406   4.918  10.469 -1.6350 -1.0433  0.7277
  286MOL0     H37738   7.102   5.377  10.569 -0.2704  0.8318 -1.2299
  286MOL0     H37739   7.217   5.518  10.752  1.1561  0.4133  0.9489
  286MOL0     H37740   7.697   5.659  10.769 -0.8622 -2.6697 -1.2477
  286MOL0     H37741   7.912   5.723  10.891  0.1986 -0.9660  0.1590
  286MOL0     H37742   8.025   5.795  11.080  0.7356 -0.5199  1.1960
  286MOL0     H37743   8.119   5.688  10.995  2.0417  0.9027  1.2380
  286MOL0     H37744   8.248   5.814  11.182 -0.3948  1.0630  1.0583
  286MOL0     H37745   8.124   5.765  11.299  0.4995  2.6560 -0.6304
  286MOL0     H37746   8.186   5.524  11.271 -0.9325  0.7425  2.6015
  286MOL0     H37747   8.316   5.613  11.343 -0.7073  0.5498 -0.3390
  286MOL0     H37748   8.307   5.575  11.044 -1.5977  0.6464  0.7157
  286MOL0     H37749   8.439   5.634  11.137  0.0372  0.2618  2.1315
  286MOL0     H37750   8.439   5.219  11.248 -1.3091  1.7171  3.0084
  286MOL0     H37751   7.790   5.479  11.224 -1.6328 -0.7938  0.6520
  286MOL0     H37752   7.562   5.461  11.138  0.0225 -0.5231 -0.8249
  287MOL0     O37753   1.817   7.913  10.223 -0.1684 -0.1506 -0.3880
  287MOL0     C37754   1.891   7.928  10.321 -0.0387 -0.1596  0.5729
  287MOL0     O37755   1.868   8.010  10.433 -0.2674 -0.5103  0.0509
  287MOL0     C37756   1.752   8.083  10.452 -0.6284  0.4972  1.3968
  287MOL0     C37757   1.698   8.086  10.576  0.0412  0.4778 -0.0539
  287MOL0     C37758   1.578   8.153  10.603  0.0735  0.7808  0.3344
  287MOL0     C37759   1.509   8.218  10.496  0.1308 -0.9424 -0.3102
  287MOL0     O37760   1.390   8.290  10.512  0.9648  0.0070 -0.2537
  287MOL0     C37761   1.279   8.229  10.584  0.2400  0.4769 -0.6677
  287MOL0     C37762   1.260   8.082  10.522  0.1388  0.7611  0.4359
  287MOL0     C37763   1.224   8.115  10.375 -0.2609  1.0200  0.4172
  287MOL0     C37764   1.172   7.993  10.300 -0.2152  0.8204  0.3350
  287MOL0     C37765   1.118   8.012  10.157  0.2651 -0.4868 -0.0771
  287MOL0     C37766   1.231   8.048  10.063  0.3327 -0.4452  0.3613
  287MOL0     C37767   1.184   8.098   9.923 -0.1219  0.0949  0.6092
  287MOL0     C37768   1.105   8.229   9.906  0.1742  0.4503  0.2006
  287MOL0     N37769   1.170   8.347   9.967 -0.7076  0.3045 -0.1579
  287MOL0     C37770   1.168   8.373  10.101 -0.1146 -1.0788  1.0353
  287MOL0     C37771   1.215   8.502  10.114 -0.6431  0.2467  0.4787
  287MOL0     C37772   1.225   8.581  10.241 -0.2148 -0.9464  0.1719
  287MOL0     C37773   1.344   8.679  10.240 -0.7894 -0.2881  0.0774
  287MOL0     C37774   1.367   8.744  10.382  0.7942  0.9541  0.2342
  287MOL0     C37775   1.467   8.642  10.449 -0.3236  0.6856  0.3790
  287MOL0     O37776   1.532   8.724  10.548 -1.2861  0.0649  0.1446
  287MOL0     C37777   1.656   8.690  10.605 -0.0150 -0.6358  0.2180
  287MOL0     C37778   1.735   8.585  10.575  0.0982 -0.3803 -0.2530
  287MOL0     C37779   1.855   8.557  10.654  0.2574 -0.3675  0.4306
  287MOL0     C37780   1.881   8.643  10.756 -0.0037 -0.6136  0.6895
  287MOL0     C37781   1.996   8.602  10.838  0.1335 -0.0602  0.7580
  287MOL0     O37782   2.084   8.502  10.785  0.5291  0.5555  0.6654
  287MOL0     C37783   2.206   8.486  10.848  0.0130 -0.1055  0.3091
  287MOL0     C37784   2.222   8.432  10.976 -0.3666 -1.0146 -0.4033
  287MOL0     C37785   2.349   8.403  11.025  0.1623  0.6948 -0.0256
  287MOL0     C37786   2.465   8.438  10.948  0.0093  0.1166  0.0775
  287MOL0     O37787   2.587   8.422  11.006  0.0643  0.3835 -0.5144
  287MOL0     C37788   2.695   8.476  10.927  0.7074 -0.0835 -0.0375
  287MOL0     C37789   2.825   8.457  11.013 -0.0408  0.4412 -0.5853
  287MOL0     C37790   2.828   8.541  11.139  0.6827  1.1018 -1.1025
  287MOL0     C37791   2.951   8.498  11.222  0.1855  0.0192 -0.6321
  287MOL0     C37792   3.000   8.600  11.323  0.0274 -0.3436 -0.9272
  287MOL0     C37793   3.008   8.733  11.269  0.0700 -0.2743  0.8470
  287MOL0     C37794   3.108   8.814  11.352 -0.5709  0.2687 -0.0294
  287MOL0     C37795   3.062   8.848  11.499 -0.3618  0.1161 -0.1755
  287MOL0    Cl37796   3.183   8.942  11.572  0.0269 -0.5015  0.2336
  287MOL0     C37797   2.446   8.498  10.825  0.0916  0.7514 -0.5506
  287MOL0     C37798   2.319   8.517  10.772  0.1933  0.0610  0.0678
  287MOL0     O37799   2.010   8.671  10.939 -0.0819 -0.0769 -0.0674
  287MOL0     C37800   1.799   8.750  10.783  0.2949  0.5586  0.2268
  287MOL0     C37801   1.687   8.780  10.708  0.0078 -0.0473 -0.6645
  287MOL0     N37802   1.229   8.554   9.984 -0.4058 -0.4688 -1.4419
  287MOL0     N37803   1.221   8.450   9.900 -0.3466  0.1672 -0.0162
  287MOL0     C37804   1.575   8.222  10.369 -0.2499 -0.6039 -0.0385
  287MOL0     C37805   1.696   8.155  10.351  0.3774  0.2863  0.2820
  287MOL0     C37806   2.024   7.851  10.309 -0.0490  0.2250 -0.7974
  287MOL0     C37807   2.124   7.846  10.413 -0.3752  0.2783 -0.2154
  287MOL0     C37808   2.250   7.788  10.402  0.6272  0.1187  0.0075
  287MOL0     C37809   2.282   7.733  10.274 -0.3971  0.5971  0.2509
  287MOL0     O37810   2.408   7.694  10.239 -0.4804 -1.3288 -0.2520
  287MOL0     C37811   2.509   7.682  10.341  0.3528 -1.1252  0.1124
  287MOL0     C37812   2.632   7.613  10.276 -0.5787  0.0648  0.6698
  287MOL0     C37813   2.588   7.486  10.195  0.8922 -0.5604  0.2591
  287MOL0     C37814   2.702   7.422  10.117 -0.0775 -0.1016  0.1413
  287MOL0     C37815   2.833   7.409  10.197 -0.2152 -0.3872  0.2830
  287MOL0     C37816   2.940   7.396  10.258 -0.1968  0.1351 -0.1348
  287MOL0     C37817   2.194   7.734  10.173  0.5267 -0.3632 -0.2991
  287MOL0     C37818   2.065   7.789  10.184  0.1211 -0.2954 -1.6656
  287MOL0     H37819   1.755   8.044  10.659  0.3774 -0.3837 -0.7088
  287MOL0     H37820   1.533   8.146  10.701 -0.7231 -0.6873 -0.0993
  287MOL0     H37821   1.188   8.285  10.561 -1.6092 -3.5351 -4.7571
  287MOL0     H37822   1.297   8.224  10.692 -1.3838  1.5499 -0.3023
  287MOL0     H37823   1.179   8.030  10.574  1.6642 -2.1562  0.1089
  287MOL0     H37824   1.351   8.021  10.530 -0.9766 -1.0335 -0.1768
  287MOL0     H37825   1.314   8.158  10.330 -1.3061  3.9229  0.8528
  287MOL0     H37826   1.142   8.187  10.367 -1.8421 -0.8280 -1.1323
  287MOL0     H37827   1.252   7.919  10.307 -0.3543  0.6254 -0.1319
  287MOL0     H37828   1.086   7.969  10.364 -1.2437  3.1593 -0.0879
  287MOL0     H37829   1.042   8.091  10.157 -0.6219 -1.3138  0.0275
  287MOL0     H37830   1.061   7.927  10.118 -1.9209  1.0818 -0.4722
  287MOL0     H37831   1.296   7.961  10.053  2.5085  1.1370 -0.2998
  287MOL0     H37832   1.299   8.126  10.100 -0.1769  0.0716  0.2227
  287MOL0     H37833   1.267   8.117   9.855 -0.3802 -0.1148  0.2346
  287MOL0     H37834   1.112   8.027   9.880 -2.9227  1.6848  2.3505
  287MOL0     H37835   1.005   8.208   9.944 -1.3662  1.7784 -2.7705
  287MOL0     H37836   1.094   8.250   9.799  2.7437  1.8984  0.1382
  287MOL0     H37837   1.120   8.322  10.184 -2.0684 -1.7072 -0.4039
  287MOL0     H37838   1.226   8.506  10.320 -2.2402 -1.6664 -0.4249
  287MOL0     H37839   1.134   8.634  10.270 -0.1313 -1.5309  1.5860
  287MOL0     H37840   1.316   8.765  10.179 -1.2550  0.1441  0.8824
  287MOL0     H37841   1.436   8.646  10.190 -0.0392  0.7859  0.6886
  287MOL0     H37842   1.419   8.839  10.369  4.3952 -0.8921 -0.0382
  287MOL0     H37843   1.275   8.755  10.440  0.4584 -0.3356 -0.0271
  287MOL0     H37844   1.537   8.614  10.370  0.6625  7.0262 -1.4940
  287MOL0     H37845   1.404   8.565  10.497 -2.7607  2.5710  0.4081
  287MOL0     H37846   1.707   8.523  10.490  0.5130 -1.6296  0.4940
  287MOL0     H37847   1.905   8.464  10.629  1.1379 -0.8686  3.6013
  287MOL0     H37848   2.128   8.403  11.022 -0.2222  0.1855  0.7096
  287MOL0     H37849   2.357   8.357  11.123  2.7416 -0.1223 -0.5503
  287MOL0     H37850   2.679   8.581  10.900 -0.8292 -0.7246 -1.8694
  287MOL0     H37851   2.706   8.422  10.833  1.5719  0.7412 -0.4209
  287MOL0     H37852   2.917   8.487  10.961  1.8424 -1.0135  1.6997
  287MOL0     H37853   2.839   8.350  11.032 -2.0759 -0.2692 -2.7321
  287MOL0     H37854   2.740   8.529  11.203  2.2366 -2.2799  0.6651
  287MOL0     H37855   2.832   8.647  11.112  4.7117  1.8858  1.6021
  287MOL0     H37856   2.918   8.406  11.270  0.4887  0.7468  1.0167
  287MOL0     H37857   3.043   8.481  11.165  1.5542  1.7669  0.9320
  287MOL0     H37858   3.097   8.575  11.368  0.1246  1.2497 -0.1474
  287MOL0     H37859   2.928   8.611  11.406 -0.1178  0.0598 -1.1020
  287MOL0     H37860   2.908   8.776  11.272 -0.5227 -1.1112 -2.5586
  287MOL0     H37861   3.048   8.732  11.167 -0.7708 -1.1277  0.5110
  287MOL0     H37862   3.199   8.755  11.369  0.0851  1.7859  2.1542
  287MOL0     H37863   3.137   8.907  11.301 -1.2892 -0.9892 -2.9712
  287MOL0     H37864   3.028   8.761  11.556 -2.0720  0.6475 -0.3308
  287MOL0     H37865   2.973   8.910  11.485  1.4199  2.6366 -1.1120
  287MOL0     H37866   2.531   8.519  10.762  0.8857  0.8852  0.5268
  287MOL0     H37867   2.301   8.554  10.672 -1.7722 -0.9914 -0.0156
  287MOL0     H37868   1.805   8.812  10.871 -0.3668 -1.3780  1.7032
  287MOL0     H37869   1.623   8.866  10.724  1.2045  0.6861  0.3154
  287MOL0     H37870   1.534   8.269  10.280  1.5189  1.3079  0.0887
  287MOL0     H37871   1.750   8.161  10.257 -0.9534  3.0970 -0.4182
  287MOL0     H37872   2.112   7.881  10.515  1.8331 -0.2018  0.2576
  287MOL0     H37873   2.317   7.792  10.487  0.2837 -0.2337  0.2986
  287MOL0     H37874   2.480   7.633  10.434  0.8591  0.4816  1.1712
  287MOL0     H37875   2.547   7.779  10.376  2.2081 -1.1300 -1.6499
  287MOL0     H37876   2.681   7.680  10.205 -1.3423  1.8602  1.7719
  287MOL0     H37877   2.711   7.585  10.347  0.5003  2.3419  0.4626
  287MOL0     H37878   2.512   7.519  10.124  2.7539 -0.1771 -1.6256
  287MOL0     H37879   2.551   7.411  10.266  3.8761  0.9316  3.7326
  287MOL0     H37880   2.669   7.322  10.085 -1.1279  0.0154  0.7897
  287MOL0     H37881   2.737   7.482  10.033 -1.0463 -0.4237 -0.5207
  287MOL0     H37882   3.030   7.372  10.310  0.6751  3.6875  0.2691
  287MOL0     H37883   2.232   7.689  10.082  2.7725  1.9994 -0.6549
  287MOL0     H37884   1.994   7.790  10.101 -0.1948 -1.8052 -1.4534
  288MOL0     O37885   7.815   0.279   2.303  0.6197 -0.2066  0.6994
  288MOL0     C37886   7.857   0.333   2.198  0.4530 -0.3275 -0.5519
  288MOL0     O37887   7.774   0.373   2.093  0.4396 -0.1322  0.1787
  288MOL0     C37888   7.640   0.378   2.106 -0.3218 -0.6686 -0.5833
  288MOL0     C37889   7.577   0.484   2.041  0.0120 -0.1446  0.1624
  288MOL0     C37890   7.442   0.517   2.056 -0.3746  0.1471 -0.1282
  288MOL0     C37891   7.360   0.441   2.133  0.3246 -1.1380 -0.4739
  288MOL0     O37892   7.227   0.477   2.165 -0.5326  0.7777 -0.6774
  288MOL0     C37893   7.163   0.589   2.110  0.3794  0.1799 -0.3110
  288MOL0     C37894   7.024   0.594   2.182  0.5826 -0.4155 -0.3777
  288MOL0     C37895   6.916   0.497   2.122 -0.0719  0.6956  0.6020
  288MOL0     C37896   6.854   0.544   1.982  0.3192 -0.1422 -0.7376
  288MOL0     C37897   6.773   0.439   1.913  0.7726  0.7745  1.0721
  288MOL0     C37898   6.642   0.405   1.987  0.7030  0.2224  0.4743
  288MOL0     C37899   6.540   0.334   1.894 -0.0981  0.0970  0.1236
  288MOL0     C37900   6.505   0.197   1.943 -0.5136 -0.2749  0.0132
  288MOL0     N37901   6.610   0.098   1.912 -0.3573  0.4143  0.0158
  288MOL0     C37902   6.730   0.083   1.977  0.2965  0.5602  0.2640
  288MOL0     C37903   6.802   0.021   1.879 -0.2625 -0.3400  0.1597
  288MOL0     C37904   6.957   0.022   1.882  0.1311 -0.0260  0.0162
  288MOL0     C37905   7.024  -0.112   1.835 -0.0681 -0.4433 -0.1202
  288MOL0     C37906   7.054  -0.123   1.685  0.6280  0.6253 -0.3054
  288MOL0     C37907   7.155  -0.231   1.669 -0.2092  0.0391 -1.1416
  288MOL0     O37908   7.284  -0.188   1.712 -0.0964 -0.8822 -0.5896
  288MOL0     C37909   7.347  -0.071   1.675  0.3269 -1.0500  0.0614
  288MOL0     C37910   7.353   0.044   1.756 -0.0265 -0.3180  0.1479
  288MOL0     C37911   7.425   0.160   1.719  0.2876  0.6697 -0.1993
  288MOL0     C37912   7.501   0.156   1.601 -0.2860  0.3378  0.0480
  288MOL0     C37913   7.611   0.255   1.589 -0.2982 -0.3626 -0.7681
  288MOL0     O37914   7.723   0.206   1.519  0.2893  0.3084 -0.0428
  288MOL0     C37915   7.850   0.250   1.551 -0.4654 -0.8198  0.4641
  288MOL0     C37916   7.943   0.204   1.456 -0.5386  0.3951  0.0181
  288MOL0     C37917   8.072   0.250   1.463  0.4067 -0.1006  0.0783
  288MOL0     C37918   8.114   0.336   1.565  0.4774  0.1115 -0.2967
  288MOL0     O37919   8.246   0.371   1.582  0.6603  0.4514  0.1622
  288MOL0     C37920   8.348   0.280   1.532  0.1921 -1.3249 -0.3556
  288MOL0     C37921   8.477   0.331   1.574 -0.8455 -0.4320 -0.6007
  288MOL0     C37922   8.575   0.228   1.618 -0.9218 -0.1901  0.0973
  288MOL0     C37923   8.710   0.296   1.657 -0.4045 -1.0088  0.2979
  288MOL0     C37924   8.811   0.193   1.708 -0.2018  0.2548 -0.3211
  288MOL0     C37925   8.948   0.248   1.751  0.0756  0.9065  1.2702
  288MOL0     C37926   9.041   0.122   1.777  0.5921  0.2087  0.2187
  288MOL0     C37927   9.184   0.178   1.798  0.2203  0.2187  0.0358
  288MOL0    Cl37928   9.293   0.045   1.802  0.0637  0.0252  0.3210
  288MOL0     C37929   8.021   0.377   1.668 -0.6759 -0.5552  0.0693
  288MOL0     C37930   7.889   0.336   1.658  0.3243  0.0998 -0.1772
  288MOL0     O37931   7.600   0.371   1.625 -0.7850 -0.5856  0.1877
  288MOL0     C37932   7.493   0.046   1.516 -0.3749  1.1797 -0.6093
  288MOL0     C37933   7.413  -0.061   1.550 -0.8583  0.5617  0.0554
  288MOL0     N37934   6.728  -0.010   1.770 -0.8160  0.3538  0.0971
  288MOL0     N37935   6.611   0.037   1.792 -0.2206  0.4541 -0.8105
  288MOL0     C37936   7.416   0.338   2.206  0.0148 -0.7459  0.5016
  288MOL0     C37937   7.551   0.297   2.183  0.0332 -0.5319  0.0042
  288MOL0     C37938   7.996   0.328   2.175  0.1162  0.7742  0.1319
  288MOL0     C37939   8.039   0.378   2.053 -0.1969 -1.3416 -0.1550
  288MOL0     C37940   8.168   0.373   2.019  0.8539  0.5374 -1.1271
  288MOL0     C37941   8.262   0.320   2.099 -0.0876  0.2484 -0.4999
  288MOL0     O37942   8.395   0.318   2.052  0.3014  0.2018  0.5577
  288MOL0     C37943   8.500   0.241   2.116 -0.2595  0.2645 -0.3439
  288MOL0     C37944   8.640   0.286   2.077 -0.3601  0.1775 -0.1574
  288MOL0     C37945   8.757   0.242   2.165 -0.1322  0.0521 -0.3477
  288MOL0     C37946   8.796   0.090   2.156 -0.2167 -1.2825  0.0583
  288MOL0     C37947   8.927   0.060   2.213  0.1636  0.3071 -0.6863
  288MOL0     C37948   9.032   0.022   2.254  0.6511  0.0922 -0.0452
  288MOL0     C37949   8.225   0.282   2.233 -0.3135  0.0539 -0.5808
  288MOL0     C37950   8.090   0.268   2.264  0.0936 -0.4513 -0.3910
  288MOL0     H37951   7.643   0.550   1.986  1.6831 -1.1045  0.9402
  288MOL0     H37952   7.405   0.604   2.003 -1.6304 -0.3027 -0.0249
  288MOL0     H37953   7.147   0.584   2.002  1.8978 -2.2804 -0.5074
  288MOL0     H37954   7.220   0.680   2.126 -1.9164  1.6676 -0.1629
  288MOL0     H37955   6.983   0.695   2.179  0.2054 -0.5467  0.1756
  288MOL0     H37956   7.036   0.571   2.288 -3.4859 -0.4962  0.2020
  288MOL0     H37957   6.834   0.486   2.194 -2.5741  1.3638 -1.9345
  288MOL0     H37958   6.957   0.398   2.104 -1.1307  0.2101  0.8199
  288MOL0     H37959   6.795   0.633   2.008  0.3295 -0.2334 -0.3977
  288MOL0     H37960   6.934   0.587   1.920  0.5600  0.1654 -0.2201
  288MOL0     H37961   6.842   0.355   1.913 -1.2082 -0.9425  1.6673
  288MOL0     H37962   6.747   0.463   1.809 -0.1913  0.1672  1.1611
  288MOL0     H37963   6.606   0.499   2.032 -1.0762  0.9364 -2.1911
  288MOL0     H37964   6.682   0.343   2.067  0.4450 -1.2724 -0.5232
  288MOL0     H37965   6.458   0.407   1.905  1.2493  1.4488  1.8521
  288MOL0     H37966   6.574   0.327   1.790 -1.1754  0.9580 -0.3044
  288MOL0     H37967   6.407   0.168   1.904 -1.9851  0.9835  2.4886
  288MOL0     H37968   6.489   0.207   2.051  1.0873  1.4325  0.1447
  288MOL0     H37969   6.766   0.125   2.071 -1.1879  0.5009  0.8987
  288MOL0     H37970   6.976   0.032   1.989 -2.0851  2.6353  0.2750
  288MOL0     H37971   7.002   0.105   1.827  1.7041 -2.1417 -2.1336
  288MOL0     H37972   6.962  -0.193   1.874 -0.4285  0.3145  0.9217
  288MOL0     H37973   7.126  -0.126   1.872  1.7774 -2.0819 -5.0535
  288MOL0     H37974   6.968  -0.152   1.625  0.7335  0.6313 -0.4604
  288MOL0     H37975   7.092  -0.030   1.641  1.5824  0.5587  0.3438
  288MOL0     H37976   7.159  -0.266   1.565 -1.5448  0.2759 -1.2847
  288MOL0     H37977   7.120  -0.321   1.719 -0.1339 -0.9149 -2.7414
  288MOL0     H37978   7.320   0.040   1.860  1.5479 -2.1693  0.6297
  288MOL0     H37979   7.441   0.245   1.784 -0.8602  0.7342  0.0185
  288MOL0     H37980   7.928   0.142   1.368 -1.0367  1.5620 -0.7487
  288MOL0     H37981   8.140   0.221   1.384  1.9511 -1.8862  1.9281
  288MOL0     H37982   8.351   0.258   1.425 -3.3953 -2.2841 -0.3820
  288MOL0     H37983   8.338   0.181   1.579  0.4094 -0.5667  1.3804
  288MOL0     H37984   8.454   0.400   1.656 -1.6247 -3.7507  2.1645
  288MOL0     H37985   8.519   0.386   1.489  0.1687 -1.1805 -0.5939
  288MOL0     H37986   8.596   0.156   1.539 -0.1346  0.4585 -0.2994
  288MOL0     H37987   8.531   0.185   1.709 -1.9865  1.4028  0.3769
  288MOL0     H37988   8.745   0.361   1.576  3.6097 -2.4391  0.6751
  288MOL0     H37989   8.692   0.363   1.741  0.6688 -0.3578  0.0322
  288MOL0     H37990   8.830   0.131   1.619  0.7948  2.0374 -1.4200
  288MOL0     H37991   8.766   0.123   1.778  1.0097 -2.8443 -2.3833
  288MOL0     H37992   8.940   0.313   1.839 -2.5432  3.2430 -0.5133
  288MOL0     H37993   8.988   0.301   1.665  1.8479 -1.4417  0.5548
  288MOL0     H37994   8.997   0.085   1.871  1.0574  1.5467  0.9861
  288MOL0     H37995   9.043   0.051   1.694 -0.8091  0.1327  0.2212
  288MOL0     H37996   9.188   0.236   1.890 -1.5575  0.9356 -0.3126
  288MOL0     H37997   9.207   0.239   1.710  2.5714 -1.8827 -0.9434
  288MOL0     H37998   8.050   0.437   1.753  3.0293 -3.1418  0.8893
  288MOL0     H37999   7.828   0.382   1.735  1.5951 -0.3786  1.1669
  288MOL0     H38000   7.547   0.051   1.422  1.5088  1.0265  0.4206
  288MOL0     H38001   7.400  -0.137   1.473 -0.3457  2.0133 -1.5126
  288MOL0     H38002   7.347   0.292   2.278  1.8401 -2.2172  1.3967
  288MOL0     H38003   7.568   0.202   2.232 -4.3689 -0.7537  1.5814
  288MOL0     H38004   7.968   0.425   1.986  0.5556 -0.2373 -0.1991
  288MOL0     H38005   8.209   0.414   1.927  2.9064 -1.3983 -1.1770
  288MOL0     H38006   8.484   0.135   2.096  0.5033 -0.3746  2.0652
  288MOL0     H38007   8.494   0.251   2.225 -1.3769 -1.2675 -0.2253
  288MOL0     H38008   8.659   0.265   1.971 -3.4783  0.5504 -0.9012
  288MOL0     H38009   8.638   0.396   2.082 -3.0895  0.2361 -0.7352
  288MOL0     H38010   8.731   0.256   2.270  0.7541 -2.2222  0.2243
  288MOL0     H38011   8.846   0.301   2.139  0.1710 -1.1032 -2.1017
  288MOL0     H38012   8.720   0.030   2.206 -0.8759 -0.5084  0.0052
  288MOL0     H38013   8.800   0.068   2.049  0.4528 -0.9052 -0.0051
  288MOL0     H38014   9.121  -0.024   2.294 -1.3790 -1.1527  3.5633
  288MOL0     H38015   8.308   0.252   2.296 -1.0195  3.4312  2.2218
  288MOL0     H38016   8.045   0.212   2.345 -0.1252 -1.8007 -1.4043
  289MOL0     O38017  10.858   9.710   8.885  0.4432  0.6493 -0.2820
  289MOL0     C38018  10.865   9.833   8.899 -0.4945 -0.3677  0.4638
  289MOL0     O38019  10.970   9.911   8.872 -0.3908  0.1280 -0.0553
  289MOL0     C38020  11.081   9.845   8.842 -0.9161  0.0861  0.5074
  289MOL0     C38021  11.149   9.764   8.931  0.6388 -0.3798 -0.2718
  289MOL0     C38022  11.272   9.703   8.895 -0.1761  0.8880  0.1341
  289MOL0     C38023  11.324   9.722   8.769 -0.2703 -0.7415  0.0062
  289MOL0     O38024  11.453   9.672   8.753 -0.3669 -0.3358 -0.4557
  289MOL0     C38025  11.531   9.704   8.639 -0.4560 -1.3771  0.8839
  289MOL0     C38026  11.667   9.633   8.644 -0.0736 -0.3617  0.3037
  289MOL0     C38027  11.681   9.505   8.576 -0.5888  0.0628  0.8750
  289MOL0     C38028  11.611   9.388   8.647  0.0738  0.3796 -0.1330
  289MOL0     C38029  11.650   9.255   8.595 -0.0070 -0.8072 -0.4658
  289MOL0     C38030  11.672   9.241   8.446 -0.1823 -1.2857 -0.4679
  289MOL0     C38031  11.660   9.092   8.392 -0.0518  0.0287  0.7698
  289MOL0     C38032  11.728   9.080   8.252 -0.3144  0.3635  0.4150
  289MOL0     N38033  11.656   9.117   8.125 -0.7374  0.2703 -0.2034
  289MOL0     C38034  11.546   9.049   8.073 -0.8269 -0.4893 -0.9282
  289MOL0     C38035  11.549   9.069   7.944  0.5120  0.4486 -0.2802
  289MOL0     C38036  11.456   9.008   7.845  0.1676  0.7129  0.0035
  289MOL0     C38037  11.500   8.859   7.807 -0.5623 -1.3292 -0.2824
  289MOL0     C38038  11.399   8.784   7.726  0.7853  0.0969  1.3917
  289MOL0     C38039  11.445   8.644   7.690 -0.3428 -1.1294 -0.4218
  289MOL0     O38040  11.445   8.570   7.811 -0.5399 -0.1694  0.0417
  289MOL0     C38041  11.388   8.447   7.799 -0.6628  0.4596 -0.8192
  289MOL0     C38042  11.475   8.340   7.761  0.0925 -0.6359 -0.3308
  289MOL0     C38043  11.432   8.209   7.756  0.6902 -0.0082 -0.4168
  289MOL0     C38044  11.295   8.182   7.783  0.0369  0.2512 -0.0232
  289MOL0     C38045  11.252   8.038   7.783 -1.0153 -0.4024  0.7019
  289MOL0     O38046  11.121   8.013   7.817 -1.0327 -0.0752  1.1826
  289MOL0     C38047  11.081   7.886   7.846  0.1704 -0.3178  0.4879
  289MOL0     C38048  11.021   7.860   7.965  0.2491  0.2988  0.0218
  289MOL0     C38049  10.971   7.731   7.992  0.1678  0.3725 -0.5668
  289MOL0     C38050  11.000   7.624   7.911  0.9902 -0.8928  0.3186
  289MOL0     O38051  10.962   7.498   7.950 -0.4935  0.1556 -0.1234
  289MOL0     C38052  10.930   7.400   7.853  0.1161  0.4160 -1.0606
  289MOL0     C38053  10.794   7.419   7.794  0.5843  0.6333  0.4877
  289MOL0     C38054  10.679   7.442   7.896 -0.2848 -0.4409  0.5875
  289MOL0     C38055  10.548   7.432   7.826 -0.4662  0.1356 -0.1745
  289MOL0     C38056  10.429   7.425   7.928 -0.2879  0.2307  0.4691
  289MOL0     C38057  10.303   7.441   7.841 -0.6674 -0.7862  0.3844
  289MOL0     C38058  10.164   7.417   7.915 -0.3215 -0.2151  0.1076
  289MOL0     C38059  10.097   7.531   7.976 -0.3057  0.3811  0.2362
  289MOL0    Cl38060  10.044   7.635   7.844 -0.0750 -0.2508 -0.4458
  289MOL0     C38061  11.056   7.657   7.787 -0.2084  0.4443  0.4121
  289MOL0     C38062  11.093   7.783   7.755 -0.2232 -0.0270  0.2417
  289MOL0     O38063  11.332   7.949   7.746  0.2504  0.2163 -0.8152
  289MOL0     C38064  11.217   8.291   7.826  0.4512 -0.2815 -0.8459
  289MOL0     C38065  11.259   8.425   7.842 -0.2185 -0.3912  0.7032
  289MOL0     N38066  11.659   9.147   7.918 -0.3540 -0.9648  0.5246
  289MOL0     N38067  11.728   9.173   8.022 -0.2726  0.8907 -0.1603
  289MOL0     C38068  11.263   9.813   8.682 -0.6417  0.2443 -0.4575
  289MOL0     C38069  11.147   9.873   8.716 -0.4085  0.1525  0.1292
  289MOL0     C38070  10.740   9.899   8.942 -0.1408 -0.3052 -0.1576
  289MOL0     C38071  10.654   9.829   9.020 -0.5545  0.9226 -0.3097
  289MOL0     C38072  10.531   9.891   9.057  0.2310 -0.5160  0.8991
  289MOL0     C38073  10.499  10.022   9.012 -1.0793  0.6440  0.2351
  289MOL0     O38074  10.385  10.095   9.035  0.0129 -0.2930  0.6015
  289MOL0     C38075  10.268  10.045   9.103 -0.0954 -0.4683  1.0574
  289MOL0     C38076  10.139  10.123   9.067 -0.3932  0.4130  1.4026
  289MOL0     C38077  10.034  10.113   9.174 -0.5205  0.4823 -0.0208
  289MOL0     C38078   9.894  10.177   9.122  0.5062  0.0365 -0.2280
  289MOL0     C38079   9.860  10.314   9.170 -0.1154 -0.0645 -0.3981
  289MOL0     C38080   9.797  10.412   9.206 -0.1420  0.7427 -0.3205
  289MOL0     C38081  10.597  10.090   8.939 -0.0074  0.6185  0.6219
  289MOL0     C38082  10.715  10.032   8.904 -1.0808 -0.2501 -0.4250
  289MOL0     H38083  11.116   9.744   9.032 -0.8147  0.4710 -0.5435
  289MOL0     H38084  11.323   9.644   8.971 -0.9804 -0.1380 -0.0860
  289MOL0     H38085  11.553   9.811   8.639 -1.0850 -1.1530 -2.5957
  289MOL0     H38086  11.481   9.688   8.544  0.7640  0.5896 -0.1537
  289MOL0     H38087  11.705   9.636   8.747  0.9399  2.5324 -0.0671
  289MOL0     H38088  11.734   9.700   8.589 -1.4489  0.1810 -0.7633
  289MOL0     H38089  11.788   9.483   8.572 -0.7011 -1.2323 -5.4948
  289MOL0     H38090  11.648   9.519   8.473 -1.0389 -1.6031  0.7667
  289MOL0     H38091  11.635   9.390   8.754 -0.1318  0.8326 -0.0952
  289MOL0     H38092  11.502   9.399   8.645 -0.0026 -0.3739 -0.7632
  289MOL0     H38093  11.571   9.184   8.623  0.8344 -1.4765  0.2877
  289MOL0     H38094  11.741   9.224   8.647 -0.1982 -0.4419  0.0925
  289MOL0     H38095  11.772   9.279   8.422 -0.0114 -2.6857 -2.1754
  289MOL0     H38096  11.599   9.293   8.384 -0.8386 -0.5581  0.8559
  289MOL0     H38097  11.719   9.027   8.458 -0.7420 -1.0309  0.3668
  289MOL0     H38098  11.557   9.055   8.393  0.4879 -1.5422  0.9291
  289MOL0     H38099  11.752   8.973   8.248 -1.7964  0.0600 -1.7089
  289MOL0     H38100  11.831   9.117   8.252 -1.3245  3.6426 -2.5788
  289MOL0     H38101  11.479   8.991   8.136  1.2385 -3.9262 -1.6037
  289MOL0     H38102  11.453   9.072   7.756 -0.2846  0.1033 -0.4285
  289MOL0     H38103  11.359   9.018   7.896 -0.4649 -0.0233 -1.0086
  289MOL0     H38104  11.510   8.802   7.900 -0.3870  0.3409  0.7790
  289MOL0     H38105  11.597   8.860   7.757  0.3259 -2.8415  1.3039
  289MOL0     H38106  11.300   8.775   7.773 -0.1066 -2.1814 -0.7341
  289MOL0     H38107  11.378   8.838   7.634  2.7269  0.6504  1.2375
  289MOL0     H38108  11.552   8.652   7.665 -1.2010 -1.5748 -5.2793
  289MOL0     H38109  11.384   8.593   7.615 -0.9024 -1.1804  0.0628
  289MOL0     H38110  11.577   8.377   7.758 -1.0940  3.0853 -3.5303
  289MOL0     H38111  11.506   8.130   7.753 -0.3701 -1.0120 -1.3088
  289MOL0     H38112  10.997   7.938   8.036 -1.7677  1.5675 -1.9171
  289MOL0     H38113  10.915   7.715   8.084  0.2477  1.1813 -0.3671
  289MOL0     H38114  10.924   7.307   7.909  0.6202 -0.5501 -2.5572
  289MOL0     H38115  11.012   7.380   7.784  0.1213 -2.5672 -0.2969
  289MOL0     H38116  10.759   7.329   7.743 -0.1837  0.9850  0.3687
  289MOL0     H38117  10.783   7.494   7.715 -2.3867 -2.0970 -1.9596
  289MOL0     H38118  10.680   7.536   7.951 -2.6219 -0.1754  0.2796
  289MOL0     H38119  10.688   7.363   7.971 -0.9896 -1.3400 -0.2401
  289MOL0     H38120  10.542   7.530   7.778  1.1357 -0.4904 -1.7342
  289MOL0     H38121  10.547   7.351   7.754  2.0566  0.2410 -0.4092
  289MOL0     H38122  10.448   7.501   8.005  1.8148  0.1960  0.0311
  289MOL0     H38123  10.428   7.337   7.993  1.8027  0.7326  1.2563
  289MOL0     H38124  10.315   7.363   7.765  0.7995  1.8696 -2.3306
  289MOL0     H38125  10.304   7.533   7.780 -0.1998  0.3220  2.0007
  289MOL0     H38126  10.098   7.361   7.848 -0.3807 -0.2498  0.1946
  289MOL0     H38127  10.196   7.351   7.996  2.6708  0.2869 -0.5343
  289MOL0     H38128  10.171   7.589   8.032 -0.1253  2.1626 -1.7113
  289MOL0     H38129  10.006   7.495   8.026 -0.8002  0.2483 -0.7333
  289MOL0     H38130  11.063   7.583   7.708 -0.8069  1.3262 -0.4938
  289MOL0     H38131  11.136   7.811   7.660  4.6589 -0.7525  1.9779
  289MOL0     H38132  11.116   8.255   7.844  0.9075 -0.2165  2.3608
  289MOL0     H38133  11.199   8.509   7.874 -0.4801 -0.5665  0.6726
  289MOL0     H38134  11.306   9.848   8.589 -0.9137 -1.1241 -1.1245
  289MOL0     H38135  11.100   9.949   8.654 -1.8985  0.7930  1.9404
  289MOL0     H38136  10.682   9.726   9.043  1.1109  1.5016  0.3760
  289MOL0     H38137  10.458   9.841   9.120 -1.0851  1.3045  0.9288
  289MOL0     H38138  10.286  10.053   9.211 -0.5741  0.6037  1.0722
  289MOL0     H38139  10.242   9.942   9.076 -3.5508  0.4072  0.5044
  289MOL0     H38140  10.172  10.225   9.044 -0.0055 -0.1604 -0.7249
  289MOL0     H38141  10.109  10.077   8.973  2.2632 -2.3792  1.7699
  289MOL0     H38142  10.060  10.166   9.267  0.0623  1.4165 -0.6987
  289MOL0     H38143  10.009  10.010   9.204 -4.4180  0.9045 -1.1985
  289MOL0     H38144   9.885  10.186   9.014 -2.9111 -0.4579 -0.0926
  289MOL0     H38145   9.812  10.108   9.144  0.0471 -1.2022 -4.8558
  289MOL0     H38146   9.734  10.484   9.254 -0.6315 -0.2998  0.6688
  289MOL0     H38147  10.580  10.190   8.901 -0.5187  0.4807  0.4859
  289MOL0     H38148  10.780  10.087   8.838 -2.3145  2.9029  0.8076
  290MOL0     O38149   1.632   9.469   3.150 -0.3038  0.1414  0.6049
  290MOL0     C38150   1.645   9.512   3.035 -1.2395  0.2931 -0.5150
  290MOL0     O38151   1.576   9.472   2.929  0.0133 -0.0066 -0.2767
  290MOL0     C38152   1.483   9.376   2.919  1.2388  0.7527  0.1807
  290MOL0     C38153   1.418   9.298   3.014  0.0487 -0.7778 -0.3736
  290MOL0     C38154   1.332   9.191   2.986  0.4475 -0.6539 -0.2764
  290MOL0     C38155   1.294   9.160   2.861 -0.3473  0.5343 -0.0056
  290MOL0     O38156   1.217   9.058   2.826  0.0648 -0.6668 -0.0577
  290MOL0     C38157   1.094   9.040   2.893 -0.2266  0.3242 -0.0965
  290MOL0     C38158   0.992   8.974   2.802 -0.6700  0.2976 -0.0949
  290MOL0     C38159   0.969   9.053   2.671 -0.7600 -0.3607 -0.2806
  290MOL0     C38160   0.932   9.195   2.679 -0.0464 -0.1876 -0.4375
  290MOL0     C38161   0.810   9.230   2.774 -0.0508  0.3892  0.5462
  290MOL0     C38162   0.676   9.148   2.757 -0.6180 -0.3339 -0.1166
  290MOL0     C38163   0.622   9.173   2.624 -0.1641 -0.3374 -0.0446
  290MOL0     C38164   0.488   9.102   2.605  0.2244  0.2610 -0.5395
  290MOL0     N38165   0.389   9.137   2.707  0.0489  0.0768 -0.4320
  290MOL0     C38166   0.348   9.263   2.733  0.3843  0.2671 -0.0739
  290MOL0     C38167   0.232   9.248   2.799  0.0473 -0.0703 -0.6289
  290MOL0     C38168   0.155   9.358   2.862 -0.7746  0.2463 -0.6231
  290MOL0     C38169  -0.001   9.348   2.828  0.0514 -0.5644 -0.7288
  290MOL0     C38170  -0.081   9.448   2.918  0.6764  0.2399  0.0882
  290MOL0     C38171  -0.232   9.421   2.901 -0.3307  0.5366 -0.2590
  290MOL0     O38172  -0.307   9.501   2.994  0.2748  0.5993 -0.7981
  290MOL0     C38173  -0.434   9.538   2.957  0.2293  0.5355 -0.0449
  290MOL0     C38174  -0.485   9.657   3.010  0.0722 -0.1692 -0.5077
  290MOL0     C38175  -0.618   9.700   2.984 -0.3775 -0.4414  0.6011
  290MOL0     C38176  -0.700   9.610   2.906  0.2362  0.2411 -0.1388
  290MOL0     C38177  -0.835   9.645   2.883 -0.3261  0.1690  0.6404
  290MOL0     O38178  -0.889   9.744   2.966 -0.3604 -0.1400  0.0904
  290MOL0     C38179  -1.002   9.811   2.928  1.0419 -0.1845  0.3337
  290MOL0     C38180  -1.129   9.783   2.978  0.1920 -0.5373 -0.3975
  290MOL0     C38181  -1.237   9.863   2.937  0.5864 -0.1759  0.3099
  290MOL0     C38182  -1.222   9.971   2.846 -0.0298 -0.4795 -0.5927
  290MOL0     O38183  -1.312  10.066   2.807  0.3090  0.0922  0.6445
  290MOL0     C38184  -1.452  10.056   2.848 -0.6055  0.0933  0.1969
  290MOL0     C38185  -1.459  10.106   2.992  0.3679 -0.1276  0.4695
  290MOL0     C38186  -1.609  10.111   3.038  0.5646  0.6217 -0.1672
  290MOL0     C38187  -1.702  10.230   2.995  0.1937  0.3083 -0.3111
  290MOL0     C38188  -1.817  10.176   2.915 -0.4261 -0.8625  0.6861
  290MOL0     C38189  -1.907  10.291   2.857 -1.1125 -0.8267 -0.7003
  290MOL0     C38190  -2.038  10.239   2.787  0.3828 -0.3128 -1.4095
  290MOL0     C38191  -2.154  10.340   2.805  0.1939 -0.2602 -0.0539
  290MOL0    Cl38192  -2.100  10.511   2.753 -0.0426  0.3141 -0.3154
  290MOL0     C38193  -1.096   9.989   2.799  0.1533  0.3040  0.8339
  290MOL0     C38194  -0.991   9.911   2.829 -0.7447 -0.5857  0.1314
  290MOL0     O38195  -0.893   9.609   2.780  0.1606  0.6622 -0.8264
  290MOL0     C38196  -0.651   9.490   2.861 -0.0189 -0.1028  0.3229
  290MOL0     C38197  -0.517   9.456   2.882  0.3437  0.0126 -0.3593
  290MOL0     N38198   0.201   9.113   2.811  0.1086 -0.0533  0.1786
  290MOL0     N38199   0.300   9.050   2.761  0.3705  0.1866  0.2855
  290MOL0     C38200   1.352   9.243   2.758  0.0725  0.4162 -0.1236
  290MOL0     C38201   1.445   9.347   2.789  0.0815  0.0205 -0.2118
  290MOL0     C38202   1.749   9.615   3.015 -0.0444 -0.7265 -0.1243
  290MOL0     C38203   1.798   9.632   2.884 -0.1591 -0.1827 -0.0894
  290MOL0     C38204   1.894   9.731   2.859 -0.1550  0.5248  0.3261
  290MOL0     C38205   1.961   9.792   2.970 -0.5641 -0.3727  0.3333
  290MOL0     O38206   2.068   9.878   2.954  0.5826 -0.0744  0.9824
  290MOL0     C38207   2.113   9.941   2.827 -0.8737  0.0088  0.5613
  290MOL0     C38208   2.198  10.050   2.883  0.5054 -1.0948 -0.2256
  290MOL0     C38209   2.307  10.005   2.979 -0.4519  0.2805 -0.7757
  290MOL0     C38210   2.418  10.106   2.997 -0.3004 -0.1958  0.1401
  290MOL0     C38211   2.500  10.134   2.874  0.8104  0.5686 -0.6385
  290MOL0     C38212   2.562  10.140   2.773  1.0240 -0.3473  0.3404
  290MOL0     C38213   1.912   9.777   3.098  0.0353 -1.3382 -0.5520
  290MOL0     C38214   1.806   9.691   3.120  0.2144  0.5608 -0.4569
  290MOL0     H38215   1.429   9.320   3.120 -0.7678 -0.1349 -0.4054
  290MOL0     H38216   1.290   9.144   3.075  0.7698 -0.1783  0.1317
  290MOL0     H38217   1.055   9.135   2.931 -2.1386 -0.4382 -0.0223
  290MOL0     H38218   1.114   8.965   2.970  2.2084  1.3809  0.3698
  290MOL0     H38219   0.897   8.981   2.855  0.8379  2.0236  2.6377
  290MOL0     H38220   1.018   8.869   2.785  1.3870  0.7611 -0.1818
  290MOL0     H38221   0.896   8.987   2.623  0.1520 -1.9702  0.4547
  290MOL0     H38222   1.065   9.056   2.619 -0.3733 -1.0381  0.3735
  290MOL0     H38223   1.024   9.250   2.700  0.4552 -1.1973  0.0440
  290MOL0     H38224   0.898   9.213   2.577 -0.8535  0.5727 -0.0595
  290MOL0     H38225   0.790   9.337   2.758  0.0395  0.4356  0.7390
  290MOL0     H38226   0.841   9.214   2.878  0.4723 -0.1329  0.3149
  290MOL0     H38227   0.615   9.187   2.839  0.4280 -0.2934  0.6611
  290MOL0     H38228   0.695   9.042   2.779  1.0676  0.2204  1.3096
  290MOL0     H38229   0.605   9.280   2.609 -0.9760 -0.0181  2.6138
  290MOL0     H38230   0.700   9.143   2.554  1.4903  3.2975  0.0395
  290MOL0     H38231   0.505   8.994   2.604 -1.8279 -0.1082 -0.3031
  290MOL0     H38232   0.443   9.117   2.506 -0.5696 -2.4078 -0.6603
  290MOL0     H38233   0.399   9.349   2.693  0.9468 -0.6057 -1.2807
  290MOL0     H38234   0.192   9.454   2.825 -0.7192 -0.6188 -2.9937
  290MOL0     H38235   0.179   9.350   2.968  3.1882  0.7639 -1.3121
  290MOL0     H38236  -0.040   9.249   2.855 -2.1654  0.9486  2.2527
  290MOL0     H38237  -0.029   9.365   2.724 -1.3955 -1.9942 -0.6196
  290MOL0     H38238  -0.059   9.426   3.023 -0.3167 -3.4647 -0.3459
  290MOL0     H38239  -0.061   9.554   2.897 -0.2955  0.3214 -0.4590
  290MOL0     H38240  -0.253   9.315   2.915 -1.0362  0.3957 -2.0708
  290MOL0     H38241  -0.264   9.455   2.802 -0.3234  1.2604 -0.0218
  290MOL0     H38242  -0.419   9.732   3.052 -1.4210  1.9748 -1.8117
  290MOL0     H38243  -0.649   9.793   3.030 -2.1777 -0.4717 -0.4732
  290MOL0     H38244  -1.135   9.710   3.058  0.9986  1.6640  1.8129
  290MOL0     H38245  -1.334   9.848   2.983  0.7364 -0.8619  0.4224
  290MOL0     H38246  -1.488   9.953   2.847 -2.7181  0.7807  0.2955
  290MOL0     H38247  -1.526  10.114   2.791 -0.1563  2.6177  1.9990
  290MOL0     H38248  -1.432  10.213   2.994 -1.4723  0.5067 -2.2657
  290MOL0     H38249  -1.406  10.052   3.070 -0.4551 -4.2828 -1.6011
  290MOL0     H38250  -1.605  10.112   3.147  2.7386  2.0118 -0.1979
  290MOL0     H38251  -1.666  10.023   3.006 -1.3956  1.6623  0.2414
  290MOL0     H38252  -1.741  10.282   3.082  2.5633  2.4088 -0.3872
  290MOL0     H38253  -1.651  10.300   2.928  1.8795 -0.6895 -0.1436
  290MOL0     H38254  -1.882  10.108   2.971 -2.2669 -2.2804 -2.8636
  290MOL0     H38255  -1.795  10.111   2.830 -0.5002 -2.2110  1.6707
  290MOL0     H38256  -1.838  10.341   2.789  1.2383 -1.6133  0.9550
  290MOL0     H38257  -1.920  10.361   2.940  2.9749 -0.9599  0.2788
  290MOL0     H38258  -2.011  10.221   2.682  0.6646 -0.1675 -1.3631
  290MOL0     H38259  -2.071  10.143   2.826 -0.6129 -0.0917 -1.6594
  290MOL0     H38260  -2.197  10.342   2.906  0.7712 -0.6708  0.2077
  290MOL0     H38261  -2.234  10.309   2.737  0.6333 -1.7953  0.0899
  290MOL0     H38262  -1.084  10.080   2.742  0.8736 -0.0978  0.3352
  290MOL0     H38263  -0.901   9.931   2.772 -1.8089  0.3522 -1.2909
  290MOL0     H38264  -0.720   9.432   2.801 -2.7743  1.4918  1.7520
  290MOL0     H38265  -0.492   9.354   2.853  0.8988 -0.1909  0.7786
  290MOL0     H38266   1.317   9.230   2.656 -1.8140  0.6551  0.4411
  290MOL0     H38267   1.488   9.406   2.709  1.4118 -2.3881 -1.3979
  290MOL0     H38268   1.750   9.582   2.800 -3.8031  3.7890 -0.7502
  290MOL0     H38269   1.929   9.755   2.759 -3.6449 -0.9904 -1.4119
  290MOL0     H38270   2.035   9.969   2.756 -0.1371 -1.8510 -1.0795
  290MOL0     H38271   2.170   9.866   2.772 -1.8362 -1.3979  1.4182
  290MOL0     H38272   2.234  10.116   2.804 -0.1411  0.0403  0.3993
  290MOL0     H38273   2.135  10.127   2.929  2.7044 -0.4410  1.9001
  290MOL0     H38274   2.350   9.917   2.930  1.3444  0.0247  1.1071
  290MOL0     H38275   2.266   9.981   3.077 -0.7066 -0.1061 -0.9740
  290MOL0     H38276   2.367  10.196   3.033  0.8969  0.0169  1.3887
  290MOL0     H38277   2.480  10.078   3.083 -0.7872  1.0250  0.9272
  290MOL0     H38278   2.634  10.157   2.695  1.3233  0.4667  0.7807
  290MOL0     H38279   1.964   9.832   3.176 -1.3980  2.3905 -1.9890
  290MOL0     H38280   1.761   9.693   3.219  0.1272  0.3553 -0.4919
  291MOL0     O38281   0.494   2.380   4.574 -0.5881 -0.2173  0.3420
  291MOL0     C38282   0.527   2.417   4.688  0.4961 -0.3526 -0.9895
  291MOL0     O38283   0.441   2.429   4.793  0.0984 -0.5489  0.1123
  291MOL0     C38284   0.313   2.372   4.801 -0.5839  0.4665  0.6667
  291MOL0     C38285   0.199   2.398   4.704 -0.7208  0.2376 -0.5075
  291MOL0     C38286   0.085   2.331   4.725 -0.5502  0.4317 -0.0648
  291MOL0     C38287   0.071   2.236   4.827  1.8329  0.5766  0.6223
  291MOL0     O38288  -0.050   2.175   4.836  0.7831  0.9023  0.0556
  291MOL0     C38289  -0.056   2.046   4.908 -0.9321  0.3581 -0.2281
  291MOL0     C38290  -0.192   1.984   4.881 -0.6407  0.8790 -0.5097
  291MOL0     C38291  -0.289   2.023   4.985  0.2373  0.1118 -0.4944
  291MOL0     C38292  -0.320   2.176   4.980  0.2726 -0.1001 -0.2132
  291MOL0     C38293  -0.422   2.213   5.092 -0.9641 -0.0794 -0.8468
  291MOL0     C38294  -0.546   2.122   5.095  0.0354 -0.2786  0.3612
  291MOL0     C38295  -0.645   2.163   5.209 -0.5258  0.1353  0.5236
  291MOL0     C38296  -0.785   2.110   5.184  0.1580 -0.3840 -0.1909
  291MOL0     N38297  -0.883   2.204   5.248  0.4065 -0.2524  0.7389
  291MOL0     C38298  -0.897   2.204   5.385  0.2925  0.3864  0.6443
  291MOL0     C38299  -0.969   2.309   5.426  0.7941  0.2839 -1.2178
  291MOL0     C38300  -1.005   2.349   5.559  0.9370 -0.0413 -0.6895
  291MOL0     C38301  -1.123   2.277   5.627  0.5902 -0.1212  0.4246
  291MOL0     C38302  -1.250   2.337   5.564  0.6478  0.5324 -0.5526
  291MOL0     C38303  -1.381   2.275   5.624  0.3432  0.8500  0.0507
  291MOL0     O38304  -1.395   2.304   5.761  0.1190 -0.0190 -0.2111
  291MOL0     C38305  -1.523   2.326   5.808  0.3554 -0.4753  0.3392
  291MOL0     C38306  -1.577   2.450   5.822 -0.5461 -0.1043  0.1439
  291MOL0     C38307  -1.710   2.475   5.858 -0.0111  0.2914 -0.2002
  291MOL0     C38308  -1.791   2.358   5.884 -0.6192 -0.3759  0.3290
  291MOL0     C38309  -1.935   2.372   5.914  0.5376 -0.0784 -0.0619
  291MOL0     O38310  -1.994   2.501   5.887 -0.0582  0.2929  0.0628
  291MOL0     C38311  -2.128   2.518   5.905 -0.6932  0.0012  0.2202
  291MOL0     C38312  -2.190   2.596   5.816  0.2418 -0.4193 -0.0898
  291MOL0     C38313  -2.327   2.635   5.842  0.7478  0.2517  0.3560
  291MOL0     C38314  -2.403   2.589   5.954  0.2900  0.7149 -0.1610
  291MOL0     O38315  -2.537   2.618   5.952  0.9023  1.0741 -0.6410
  291MOL0     C38316  -2.611   2.535   6.044 -0.2731  0.0851  0.1804
  291MOL0     C38317  -2.757   2.586   6.060  0.1088 -0.1821 -0.0191
  291MOL0     C38318  -2.846   2.473   6.120  0.3432 -0.0755  0.6308
  291MOL0     C38319  -2.911   2.369   6.009  0.8848  0.0148  0.5455
  291MOL0     C38320  -3.033   2.288   6.059  0.0476  1.2776  0.0371
  291MOL0     C38321  -3.106   2.180   5.971 -1.0360 -0.5172  1.1482
  291MOL0     C38322  -3.182   2.234   5.849  0.1824  0.3396  0.0404
  291MOL0     C38323  -3.223   2.122   5.758  1.0062  0.0269  1.1057
  291MOL0    Cl38324  -3.350   2.191   5.662  0.4501  0.4159  0.1985
  291MOL0     C38325  -2.331   2.512   6.047 -0.8634  0.2189 -0.5020
  291MOL0     C38326  -2.199   2.474   6.019  0.2296  0.6311  1.5079
  291MOL0     O38327  -1.999   2.276   5.964 -0.5127  1.1500 -0.0228
  291MOL0     C38328  -1.735   2.227   5.873  0.5468  0.2620  0.6838
  291MOL0     C38329  -1.600   2.211   5.839  0.6063  0.3932 -0.4689
  291MOL0     N38330  -1.003   2.373   5.305  0.0860  1.3629  0.0678
  291MOL0     N38331  -0.930   2.319   5.201  0.0910 -0.7992  0.4472
  291MOL0     C38332   0.173   2.222   4.930 -0.4044  0.0235  0.3373
  291MOL0     C38333   0.297   2.280   4.909  0.7749 -0.4084 -0.7091
  291MOL0     C38334   0.662   2.469   4.710 -0.1501 -0.2260  1.1959
  291MOL0     C38335   0.760   2.443   4.604 -0.4344 -0.0307 -0.2776
  291MOL0     C38336   0.886   2.504   4.614 -0.1024  0.9292 -0.4540
  291MOL0     C38337   0.916   2.578   4.719  0.4552 -0.4273 -0.4468
  291MOL0     O38338   1.037   2.651   4.715 -0.2481  0.0066 -0.2645
  291MOL0     C38339   1.153   2.591   4.767 -0.1825 -0.4676 -0.2862
  291MOL0     C38340   1.278   2.666   4.754  0.3401 -0.3467 -0.2728
  291MOL0     C38341   1.304   2.681   4.598 -0.7795 -0.9194  0.1721
  291MOL0     C38342   1.451   2.730   4.578 -0.0249  0.8748  0.1803
  291MOL0     C38343   1.492   2.739   4.437  0.1486  0.7470 -0.7297
  291MOL0     C38344   1.540   2.747   4.329  0.4967 -0.9794  0.0965
  291MOL0     C38345   0.833   2.594   4.830 -0.5669  0.0004 -0.0898
  291MOL0     C38346   0.703   2.539   4.822 -1.3259 -0.6162  0.6872
  291MOL0     H38347   0.211   2.468   4.622 -1.6547  0.8323 -0.1560
  291MOL0     H38348   0.012   2.336   4.645  0.4603 -4.3737 -1.6578
  291MOL0     H38349  -0.040   2.047   5.016  3.3781  0.6016 -0.6842
  291MOL0     H38350   0.018   1.976   4.868 -2.1668  0.1656 -2.3380
  291MOL0     H38351  -0.179   1.876   4.892 -0.7367  1.0943  2.7213
  291MOL0     H38352  -0.234   2.014   4.785 -0.7177 -1.2662 -1.1913
  291MOL0     H38353  -0.252   1.999   5.085  0.8033 -1.3754 -1.0282
  291MOL0     H38354  -0.387   1.974   4.977 -1.1298  2.8891 -2.6513
  291MOL0     H38355  -0.236   2.247   4.988 -1.6432  2.5654 -1.8657
  291MOL0     H38356  -0.371   2.206   4.887  0.7928 -0.5372 -0.6496
  291MOL0     H38357  -0.440   2.321   5.093  0.5902  0.2519  2.2219
  291MOL0     H38358  -0.377   2.196   5.190 -1.3840  0.4443 -0.5573
  291MOL0     H38359  -0.528   2.018   5.125 -2.9037 -0.7219  0.8508
  291MOL0     H38360  -0.594   2.129   4.998  1.0051  1.3764 -0.0317
  291MOL0     H38361  -0.603   2.119   5.300 -1.2365 -1.8053 -0.0244
  291MOL0     H38362  -0.656   2.270   5.227 -1.4152 -0.0769  1.3788
  291MOL0     H38363  -0.809   2.004   5.197  1.8094 -0.7482  0.0200
  291MOL0     H38364  -0.811   2.115   5.078 -2.9414 -1.6109  0.3770
  291MOL0     H38365  -0.845   2.134   5.450  0.1455 -1.1274 -0.8154
  291MOL0     H38366  -1.027   2.456   5.560  2.8659  0.3703 -0.0380
  291MOL0     H38367  -0.924   2.331   5.630 -1.6843 -2.6844  1.9325
  291MOL0     H38368  -1.132   2.279   5.736  0.2343 -1.0583  0.4216
  291MOL0     H38369  -1.112   2.169   5.610 -0.8624 -0.4001  1.1536
  291MOL0     H38370  -1.258   2.445   5.582  0.5460  0.0293  3.4613
  291MOL0     H38371  -1.244   2.295   5.464  0.6351  2.7107 -1.5112
  291MOL0     H38372  -1.389   2.167   5.607 -1.3368  0.8377  0.7684
  291MOL0     H38373  -1.460   2.324   5.566  0.1248 -0.5561 -0.8856
  291MOL0     H38374  -1.509   2.533   5.802 -0.3477 -0.5072 -0.9063
  291MOL0     H38375  -1.744   2.578   5.867 -3.9428 -0.8440 -0.1314
  291MOL0     H38376  -2.135   2.631   5.730 -0.9740 -1.0585 -1.1803
  291MOL0     H38377  -2.380   2.690   5.764  3.0831  1.2767 -0.5989
  291MOL0     H38378  -2.568   2.535   6.145  2.8454  0.9721 -1.0317
  291MOL0     H38379  -2.619   2.432   6.009 -3.4331  0.5468 -0.7463
  291MOL0     H38380  -2.790   2.634   5.968  1.8531  0.4718 -0.3525
  291MOL0     H38381  -2.761   2.667   6.134 -0.8874  0.8736 -1.1808
  291MOL0     H38382  -2.932   2.526   6.161  0.3187 -0.2042  0.7487
  291MOL0     H38383  -2.803   2.422   6.207 -0.4427 -2.3416 -0.2313
  291MOL0     H38384  -2.947   2.419   5.918  0.2534  0.1150  0.8524
  291MOL0     H38385  -2.826   2.304   5.984  0.2795 -0.2115 -1.0581
  291MOL0     H38386  -3.111   2.362   6.079  0.1916  2.1835 -2.4321
  291MOL0     H38387  -3.010   2.239   6.154  1.9486  2.4402  0.2308
  291MOL0     H38388  -3.181   2.134   6.037 -2.8419 -0.7936 -0.9861
  291MOL0     H38389  -3.038   2.095   5.956  1.3442  1.5869 -0.8841
  291MOL0     H38390  -3.270   2.285   5.890  0.1914  1.7037 -1.5310
  291MOL0     H38391  -3.126   2.314   5.800 -0.6003  1.4310  0.8726
  291MOL0     H38392  -3.258   2.040   5.822  0.3062 -1.5850 -1.2099
  291MOL0     H38393  -3.142   2.077   5.700  0.0457 -0.8082  0.3642
  291MOL0     H38394  -2.369   2.473   6.141  3.1945  0.7707  1.5911
  291MOL0     H38395  -2.143   2.414   6.089  2.3404 -0.1590 -0.7164
  291MOL0     H38396  -1.809   2.149   5.886 -0.1783  0.6884 -0.7468
  291MOL0     H38397  -1.556   2.114   5.820 -0.2177 -0.3822  1.3037
  291MOL0     H38398   0.150   2.162   5.018  0.3522  0.8804  1.1344
  291MOL0     H38399   0.381   2.272   4.976 -0.4976 -0.9132  0.8895
  291MOL0     H38400   0.746   2.371   4.524  0.0593 -1.4014  0.8045
  291MOL0     H38401   0.958   2.493   4.534  1.0459 -0.0789  0.6837
  291MOL0     H38402   1.161   2.499   4.709  1.2562 -0.9061  0.5510
  291MOL0     H38403   1.138   2.571   4.874  0.2154 -0.8922 -0.3041
  291MOL0     H38404   1.268   2.764   4.802 -1.2405 -0.4172 -0.3807
  291MOL0     H38405   1.355   2.602   4.797 -2.3016 -3.2945  0.4121
  291MOL0     H38406   1.238   2.761   4.562 -0.5567 -0.5411  0.5950
  291MOL0     H38407   1.300   2.586   4.544  5.7858 -0.5598 -1.7776
  291MOL0     H38408   1.467   2.823   4.632 -2.4512  0.4538  1.8000
  291MOL0     H38409   1.518   2.660   4.629 -0.1230  1.6814  1.4684
  291MOL0     H38410   1.600   2.745   4.240 -0.1888  1.5642 -0.4980
  291MOL0     H38411   0.865   2.653   4.916  0.7638 -0.2751 -0.3852
  291MOL0     H38412   0.655   2.553   4.918  0.6383 -3.2428  2.1923
  292MOL0     O38413   5.909   1.521   8.428  0.3708  0.3357  0.1115
  292MOL0     C38414   5.908   1.539   8.549 -0.8815 -0.7139  0.1473
  292MOL0     O38415   5.799   1.561   8.625 -0.3085  0.5927 -0.1146
  292MOL0     C38416   5.684   1.588   8.554  0.2262  0.0956 -0.1257
  292MOL0     C38417   5.601   1.480   8.524 -0.2630 -0.0760 -0.5128
  292MOL0     C38418   5.482   1.494   8.451  0.3635  0.0171 -0.1740
  292MOL0     C38419   5.444   1.619   8.402 -0.3106 -0.1503  1.8512
  292MOL0     O38420   5.315   1.629   8.347  0.0925  0.3668  0.9437
  292MOL0     C38421   5.222   1.731   8.396 -1.0942  0.3906  0.5296
  292MOL0     C38422   5.071   1.692   8.365 -0.6370 -0.3905 -0.0463
  292MOL0     C38423   4.966   1.791   8.407  0.6632  0.3423  0.0255
  292MOL0     C38424   4.834   1.721   8.387 -0.0033  0.3807  0.7280
  292MOL0     C38425   4.722   1.808   8.432  0.7103  0.4417 -0.7343
  292MOL0     C38426   4.590   1.732   8.406  0.2539  0.3350  0.5980
  292MOL0     C38427   4.461   1.811   8.416  0.1183 -0.1892  0.2375
  292MOL0     C38428   4.334   1.734   8.467  0.1055 -0.0155 -0.4071
  292MOL0     N38429   4.210   1.799   8.431 -0.7748 -0.4399 -0.5254
  292MOL0     C38430   4.174   1.859   8.312 -1.1413 -0.0831 -0.0042
  292MOL0     C38431   4.057   1.930   8.348  0.2648 -0.2270  0.4961
  292MOL0     C38432   3.971   2.003   8.254  0.2278 -0.4931  0.3863
  292MOL0     C38433   4.028   2.104   8.154  0.0251  0.5939  0.2975
  292MOL0     C38434   4.114   2.223   8.227 -0.4856  0.1996 -0.0218
  292MOL0     C38435   4.142   2.336   8.134 -0.5772  0.3536  0.4915
  292MOL0     O38436   4.159   2.461   8.199 -0.0889  0.5002 -0.8198
  292MOL0     C38437   4.188   2.579   8.127  0.8824 -0.0408  0.4828
  292MOL0     C38438   4.202   2.695   8.204  0.1019  0.4419 -0.9896
  292MOL0     C38439   4.229   2.820   8.149  0.1006  0.0306  0.6514
  292MOL0     C38440   4.255   2.822   8.005  0.9875  0.2810 -0.3755
  292MOL0     C38441   4.291   2.951   7.940 -0.7901 -0.2782  1.1927
  292MOL0     O38442   4.309   3.058   8.022  0.6124 -0.3158  0.2142
  292MOL0     C38443   4.342   3.183   7.964  0.8776  0.9238 -0.8801
  292MOL0     C38444   4.460   3.243   8.001 -0.6904 -0.1816  0.2682
  292MOL0     C38445   4.494   3.379   7.954 -0.2958  0.1127  0.0518
  292MOL0     C38446   4.406   3.439   7.863 -0.8862  0.1973 -0.7912
  292MOL0     O38447   4.450   3.559   7.805 -0.0482  0.8924  1.0878
  292MOL0     C38448   4.357   3.654   7.756  0.1348  0.2603 -0.6098
  292MOL0     C38449   4.345   3.640   7.601 -0.7057 -0.5291 -0.3442
  292MOL0     C38450   4.485   3.660   7.542  0.8022 -0.4122  0.5003
  292MOL0     C38451   4.477   3.707   7.393 -0.3270  0.2826 -0.1956
  292MOL0     C38452   4.506   3.860   7.387  0.1098 -0.7289 -0.6236
  292MOL0     C38453   4.509   3.921   7.242 -0.5188 -0.2793  0.2712
  292MOL0     C38454   4.369   3.966   7.206  0.0975  0.7780  0.2469
  292MOL0     C38455   4.346   3.973   7.054 -0.1097  0.1208 -0.1462
  292MOL0    Cl38456   4.287   3.815   6.986 -0.2997  0.4106 -0.0205
  292MOL0     C38457   4.293   3.374   7.819 -0.1817  0.6862  0.8075
  292MOL0     C38458   4.254   3.249   7.878 -0.3607 -0.0455 -0.0341
  292MOL0     O38459   4.311   2.958   7.818 -0.1448 -0.0954 -0.1993
  292MOL0     C38460   4.240   2.708   7.922  0.0877  0.1280  0.3814
  292MOL0     C38461   4.210   2.585   7.987  0.2164 -0.4476 -0.4024
  292MOL0     N38462   4.029   1.909   8.480 -0.2297 -0.2794  0.2843
  292MOL0     N38463   4.120   1.827   8.525  0.4846 -0.2991 -0.4910
  292MOL0     C38464   5.531   1.729   8.427  0.6664 -0.3669 -0.6327
  292MOL0     C38465   5.649   1.713   8.501 -0.4112 -0.4340 -0.8052
  292MOL0     C38466   6.047   1.533   8.606  0.1411 -0.3762  0.0819
  292MOL0     C38467   6.167   1.559   8.534  0.2707  0.3843  0.1101
  292MOL0     C38468   6.292   1.545   8.603  0.3664  0.1080 -0.1355
  292MOL0     C38469   6.301   1.498   8.735 -0.5218 -0.1900  0.3125
  292MOL0     O38470   6.422   1.458   8.794  0.6124 -0.2643 -0.0251
  292MOL0     C38471   6.518   1.382   8.716  0.7708  0.3046 -0.7074
  292MOL0     C38472   6.462   1.237   8.690  0.5742  0.3196 -0.1447
  292MOL0     C38473   6.559   1.146   8.599  0.1766 -0.4321 -0.4921
  292MOL0     C38474   6.506   0.999   8.590 -0.1150  0.7020 -0.9953
  292MOL0     C38475   6.544   0.940   8.716  0.6626  1.3580 -0.3545
  292MOL0     C38476   6.572   0.886   8.824 -0.3052 -0.7828 -0.2967
  292MOL0     C38477   6.175   1.480   8.797  0.3178 -0.4726 -0.4125
  292MOL0     C38478   6.051   1.509   8.746 -0.0427  0.5233  0.1200
  292MOL0     H38479   5.632   1.391   8.578 -0.5436  1.0993  1.6984
  292MOL0     H38480   5.424   1.405   8.431  0.0540  0.1670  0.0387
  292MOL0     H38481   5.245   1.827   8.349 -1.1907  0.2256  0.1440
  292MOL0     H38482   5.238   1.741   8.504  2.5428 -1.5228  0.3519
  292MOL0     H38483   5.046   1.590   8.396 -4.9931 -0.3295 -2.5417
  292MOL0     H38484   5.055   1.692   8.256  1.4719 -2.1061 -0.4240
  292MOL0     H38485   4.977   1.880   8.346 -1.5666  0.8563  0.3043
  292MOL0     H38486   4.975   1.818   8.513 -0.6402 -0.2654  0.3140
  292MOL0     H38487   4.820   1.708   8.280  0.8095  3.4226  0.1390
  292MOL0     H38488   4.833   1.627   8.442  0.6969  0.3491  0.7021
  292MOL0     H38489   4.721   1.911   8.396  1.2206  0.7422  0.0741
  292MOL0     H38490   4.737   1.818   8.540 -0.1340  2.0726 -0.7438
  292MOL0     H38491   4.597   1.656   8.485 -0.5215  1.1532  1.4820
  292MOL0     H38492   4.587   1.684   8.307 -1.6964 -1.4816  1.4382
  292MOL0     H38493   4.472   1.893   8.488  1.3388  1.0178 -1.2685
  292MOL0     H38494   4.446   1.864   8.322 -0.1967  1.2554  1.0715
  292MOL0     H38495   4.350   1.719   8.574 -1.4987  1.1510  0.0399
  292MOL0     H38496   4.339   1.640   8.412 -0.2472  0.8880 -2.0200
  292MOL0     H38497   4.223   1.870   8.215 -1.0466  1.9010  0.2253
  292MOL0     H38498   3.906   2.071   8.310 -0.7250  0.7150 -2.0369
  292MOL0     H38499   3.911   1.929   8.200  0.9845  0.4908 -1.9163
  292MOL0     H38500   3.945   2.154   8.103 -0.8907  1.9515  2.9144
  292MOL0     H38501   4.092   2.061   8.076  1.0960 -0.0625  1.5073
  292MOL0     H38502   4.063   2.265   8.314  0.9832  1.7885  0.1276
  292MOL0     H38503   4.206   2.184   8.271  0.0685  0.9162 -0.5186
  292MOL0     H38504   4.054   2.345   8.070 -2.0854 -1.3976  2.1480
  292MOL0     H38505   4.229   2.310   8.074 -0.8770 -0.6292  0.4481
  292MOL0     H38506   4.170   2.682   8.307 -2.9319  2.0840 -1.6175
  292MOL0     H38507   4.235   2.907   8.214  0.1024  0.1581  0.4800
  292MOL0     H38508   4.525   3.193   8.072  0.4021 -0.7868 -1.1041
  292MOL0     H38509   4.590   3.425   7.972  0.2461 -0.5128 -1.1026
  292MOL0     H38510   4.404   3.749   7.785 -1.8080  0.3135  2.8590
  292MOL0     H38511   4.259   3.659   7.804 -0.3114  0.3928 -1.4998
  292MOL0     H38512   4.272   3.706   7.553 -1.7540 -1.6147 -0.3208
  292MOL0     H38513   4.305   3.542   7.571  0.0091 -1.0853  0.4898
  292MOL0     H38514   4.533   3.562   7.540  0.8450 -0.3951  0.6770
  292MOL0     H38515   4.553   3.729   7.593  2.3135  0.2064 -2.1486
  292MOL0     H38516   4.550   3.657   7.329  3.5944  2.5908  2.0262
  292MOL0     H38517   4.378   3.683   7.354 -0.4266 -2.4443  1.4978
  292MOL0     H38518   4.611   3.856   7.419 -0.8263 -0.8270  2.8002
  292MOL0     H38519   4.461   3.917   7.469  2.4237 -0.7893  0.7652
  292MOL0     H38520   4.542   3.847   7.168  1.3843  1.6472 -0.9194
  292MOL0     H38521   4.575   4.008   7.242  1.7720 -1.8807 -1.8216
  292MOL0     H38522   4.298   3.895   7.250  0.1983 -1.2285 -2.5509
  292MOL0     H38523   4.350   4.067   7.245 -0.7671  1.4235 -1.7037
  292MOL0     H38524   4.442   4.005   7.015  0.3662  0.0580  0.9360
  292MOL0     H38525   4.272   4.050   7.030 -0.9543 -0.7076 -0.3153
  292MOL0     H38526   4.231   3.410   7.737  2.8078  2.2107 -0.9605
  292MOL0     H38527   4.156   3.206   7.866  0.1170 -1.0434 -0.4753
  292MOL0     H38528   4.250   2.715   7.814 -1.7184  1.2655  0.2505
  292MOL0     H38529   4.196   2.493   7.930  0.3572 -0.5880 -0.2098
  292MOL0     H38530   5.496   1.828   8.399 -2.1841 -1.0749  0.0814
  292MOL0     H38531   5.715   1.799   8.502 -1.3739  0.3161  0.6630
  292MOL0     H38532   6.166   1.590   8.430  3.7075  2.4251  0.4993
  292MOL0     H38533   6.384   1.558   8.547  0.6930 -0.5624  0.2322
  292MOL0     H38534   6.608   1.365   8.775 -2.2645 -2.0268  3.8619
  292MOL0     H38535   6.538   1.425   8.617 -1.2842 -1.6388 -2.0726
  292MOL0     H38536   6.462   1.192   8.790  2.0715  1.5754  0.4590
  292MOL0     H38537   6.359   1.231   8.652  0.0833 -1.3570  1.3111
  292MOL0     H38538   6.661   1.157   8.635 -0.0445 -1.4392  0.5030
  292MOL0     H38539   6.541   1.193   8.501 -1.8649  0.4572  0.2536
  292MOL0     H38540   6.398   1.010   8.574 -0.5545 -0.1505  1.0426
  292MOL0     H38541   6.554   0.956   8.502 -0.4552 -0.5479 -0.5828
  292MOL0     H38542   6.597   0.835   8.915 -0.9909 -1.7568 -0.6373
  292MOL0     H38543   6.195   1.466   8.903  1.3770  1.3429 -0.3239
  292MOL0     H38544   5.968   1.498   8.816  1.5651 -0.5375  1.9433
  293MOL0     O38545   3.392   6.090   8.377 -0.0652 -0.4951 -0.9499
  293MOL0     C38546   3.439   6.174   8.448  0.2949 -0.1097 -0.8852
  293MOL0     O38547   3.377   6.284   8.502  0.8514 -0.3762 -0.4818
  293MOL0     C38548   3.239   6.293   8.515 -0.7904 -1.1794 -0.4083
  293MOL0     C38549   3.188   6.421   8.566  0.5660  1.0419  0.3526
  293MOL0     C38550   3.049   6.452   8.576  0.1424  0.8603 -0.0276
  293MOL0     C38551   2.953   6.348   8.553  0.3277 -0.1091 -0.1062
  293MOL0     O38552   2.816   6.364   8.557 -0.1044  0.1446  0.0147
  293MOL0     C38553   2.757   6.492   8.598 -0.0765 -0.4711 -0.1592
  293MOL0     C38554   2.608   6.486   8.567  0.4039 -0.3447  0.2619
  293MOL0     C38555   2.532   6.595   8.641  0.0580 -0.5418 -0.5498
  293MOL0     C38556   2.377   6.588   8.593 -0.5101 -0.7778 -0.5654
  293MOL0     C38557   2.287   6.690   8.664  0.5066 -0.4062  0.7317
  293MOL0     C38558   2.150   6.703   8.587  0.1366 -0.2194 -1.0861
  293MOL0     C38559   2.039   6.608   8.638  0.2338 -0.3124  0.0752
  293MOL0     C38560   2.022   6.601   8.787  0.5191 -0.1744 -0.1239
  293MOL0     N38561   1.893   6.538   8.818  0.2767 -0.4478  0.1577
  293MOL0     C38562   1.875   6.415   8.862  0.4173 -0.0480 -1.0139
  293MOL0     C38563   1.736   6.409   8.872  0.4743 -0.6349 -1.3825
  293MOL0     C38564   1.658   6.280   8.904 -0.1136 -0.1315 -0.3480
  293MOL0     C38565   1.665   6.198   8.777  1.1001  0.5596 -0.3228
  293MOL0     C38566   1.606   6.258   8.648 -0.2767 -0.9859 -0.1762
  293MOL0     C38567   1.459   6.298   8.664 -0.4976  1.4986  0.0900
  293MOL0     O38568   1.446   6.425   8.602 -0.1295 -0.1234  0.7214
  293MOL0     C38569   1.321   6.484   8.597  0.1077  0.0686  0.3280
  293MOL0     C38570   1.305   6.609   8.532 -0.1859 -0.3113 -0.2607
  293MOL0     C38571   1.177   6.671   8.520 -0.0542  0.1822  0.7094
  293MOL0     C38572   1.070   6.604   8.567 -0.1274  0.9255 -0.2967
  293MOL0     C38573   0.937   6.653   8.528  0.3675  0.3132  0.1479
  293MOL0     O38574   0.932   6.767   8.444 -0.1590 -0.2546 -0.1069
  293MOL0     C38575   0.820   6.809   8.380  0.2327 -0.6258 -0.3698
  293MOL0     C38576   0.747   6.912   8.431 -0.6129  1.2053  0.6419
  293MOL0     C38577   0.635   6.961   8.351 -0.7592 -0.0566 -0.6438
  293MOL0     C38578   0.610   6.908   8.222  0.2592 -0.6031 -0.4815
  293MOL0     O38579   0.505   6.957   8.141  0.0955 -0.2825  0.4496
  293MOL0     C38580   0.370   6.957   8.201 -0.9818 -0.4581  0.7371
  293MOL0     C38581   0.263   6.967   8.091 -0.0136  0.0566  0.1039
  293MOL0     C38582   0.249   7.108   8.049  0.0951  0.1135 -0.8965
  293MOL0     C38583   0.146   7.122   7.937 -0.3413 -0.9106  0.3601
  293MOL0     C38584   0.069   7.255   7.938  0.5999 -0.5145  0.0096
  293MOL0     C38585   0.149   7.388   7.930  0.3856  0.8492  0.3011
  293MOL0     C38586   0.072   7.496   8.013 -0.4545  0.7688 -0.4748
  293MOL0     C38587   0.106   7.642   7.977  0.4086 -0.7402  0.5252
  293MOL0    Cl38588   0.283   7.668   7.995  0.4353  0.4635 -0.6707
  293MOL0     C38589   0.689   6.804   8.173  0.2783  0.3633  0.0133
  293MOL0     C38590   0.791   6.763   8.253  0.2240 -0.9869 -0.0279
  293MOL0     O38591   0.840   6.589   8.557  0.3757 -0.6474  0.4853
  293MOL0     C38592   1.083   6.486   8.641  0.1516 -0.0744  0.0465
  293MOL0     C38593   1.210   6.433   8.662 -0.3114  0.3389  0.0303
  293MOL0     N38594   1.683   6.531   8.828  1.2921 -0.3524 -0.2364
  293MOL0     N38595   1.775   6.606   8.796 -0.4789 -0.3092  0.4602
  293MOL0     C38596   3.001   6.227   8.513  0.2530 -0.7518  0.4495
  293MOL0     C38597   3.137   6.206   8.492 -0.2396  0.5111 -0.2456
  293MOL0     C38598   3.566   6.149   8.487 -0.2677  0.3651 -0.3080
  293MOL0     C38599   3.633   6.235   8.578 -0.7052  0.6919  0.6552
  293MOL0     C38600   3.766   6.202   8.618  0.2253  0.0509  0.0512
  293MOL0     C38601   3.834   6.094   8.573 -0.3229 -0.6922 -0.2746
  293MOL0     O38602   3.969   6.085   8.625  0.3449  0.1201  0.1792
  293MOL0     C38603   4.041   5.952   8.620  0.4572 -1.0388 -0.2590
  293MOL0     C38604   4.164   5.980   8.703  0.2034 -0.2691 -0.3274
  293MOL0     C38605   4.167   6.108   8.799  0.8774 -0.2312  0.2649
  293MOL0     C38606   4.293   6.114   8.885  0.1222 -0.9481  0.0560
  293MOL0     C38607   4.416   6.105   8.805  0.4268  0.0212 -0.9169
  293MOL0     C38608   4.522   6.086   8.748 -0.0046  1.0199 -0.0142
  293MOL0     C38609   3.779   6.008   8.477 -0.1551  0.2245  0.0623
  293MOL0     C38610   3.647   6.029   8.443  0.2813  0.6877 -0.1508
  293MOL0     H38611   3.262   6.497   8.589  1.5477 -0.4844  2.5522
  293MOL0     H38612   3.013   6.548   8.611 -0.9472  0.6205 -0.4403
  293MOL0     H38613   2.800   6.572   8.537 -1.9400 -0.4496 -1.5287
  293MOL0     H38614   2.786   6.513   8.701  3.2897 -0.2234 -1.0302
  293MOL0     H38615   2.570   6.388   8.599  0.0353  0.1648  1.4821
  293MOL0     H38616   2.592   6.502   8.460 -1.7515  2.0006  0.8295
  293MOL0     H38617   2.588   6.688   8.625  3.5532 -2.4310 -0.3846
  293MOL0     H38618   2.535   6.578   8.749  2.1545 -0.3461 -0.5400
  293MOL0     H38619   2.379   6.596   8.484 -1.2479 -1.9272 -0.6846
  293MOL0     H38620   2.341   6.490   8.627  1.0545 -1.3119 -0.3204
  293MOL0     H38621   2.331   6.790   8.658 -0.1425 -0.1821 -1.1322
  293MOL0     H38622   2.276   6.667   8.770  2.5439 -3.1492  0.4604
  293MOL0     H38623   2.178   6.697   8.481  0.9318  2.0775 -1.0483
  293MOL0     H38624   2.110   6.803   8.607  4.2028  1.7536 -1.9026
  293MOL0     H38625   1.947   6.652   8.601 -0.2446  0.4855  2.0724
  293MOL0     H38626   2.056   6.509   8.595 -0.9130 -0.0125 -1.1099
  293MOL0     H38627   2.016   6.703   8.826  0.5343 -0.8049  1.6564
  293MOL0     H38628   2.106   6.552   8.838 -0.4330 -1.0896  0.6090
  293MOL0     H38629   1.940   6.328   8.861  0.4782 -0.0204  0.0107
  293MOL0     H38630   1.557   6.303   8.941  1.0026  2.2928  1.4684
  293MOL0     H38631   1.713   6.220   8.977  1.3008 -2.2544 -2.9790
  293MOL0     H38632   1.630   6.098   8.802  3.9324 -0.2318  0.8654
  293MOL0     H38633   1.770   6.175   8.754  0.7875 -2.5317  0.9201
  293MOL0     H38634   1.661   6.350   8.625 -1.1092 -0.7899 -1.4980
  293MOL0     H38635   1.611   6.191   8.562 -1.0608  1.2475 -2.0672
  293MOL0     H38636   1.434   6.296   8.770  2.2428  0.6275  0.7950
  293MOL0     H38637   1.391   6.233   8.608 -1.7762 -0.0948  3.2674
  293MOL0     H38638   1.391   6.668   8.501  0.2937 -0.1467  1.2765
  293MOL0     H38639   1.179   6.758   8.456  4.2993  0.3798  0.8156
  293MOL0     H38640   0.779   6.962   8.522 -0.6403  1.9848  0.2389
  293MOL0     H38641   0.573   7.043   8.385 -0.6750 -0.4031  0.3873
  293MOL0     H38642   0.348   7.040   8.270 -2.9072 -0.6308  0.3720
  293MOL0     H38643   0.355   6.867   8.260 -0.8810  0.7309  2.6691
  293MOL0     H38644   0.168   6.919   8.115 -1.6242  2.9571 -0.0836
  293MOL0     H38645   0.305   6.918   8.003  3.8351  0.9151  1.2676
  293MOL0     H38646   0.346   7.152   8.024  0.7227 -0.0818  1.0791
  293MOL0     H38647   0.210   7.152   8.141 -3.0334 -5.3464  0.8548
  293MOL0     H38648   0.206   7.121   7.846  1.8265  1.7647  1.6137
  293MOL0     H38649   0.073   7.040   7.933  1.4421 -2.7324  2.5014
  293MOL0     H38650   0.017   7.263   8.034  4.3053  1.5478  2.0568
  293MOL0     H38651  -0.005   7.250   7.858 -0.6470  1.6968  0.9400
  293MOL0     H38652   0.139   7.406   7.823 -1.6283 -2.1713 -0.1296
  293MOL0     H38653   0.254   7.372   7.957 -0.0099 -1.6349  0.6168
  293MOL0     H38654  -0.035   7.485   7.991 -0.6807  1.6327  0.1336
  293MOL0     H38655   0.080   7.476   8.121 -4.0859 -2.0932 -0.5316
  293MOL0     H38656   0.053   7.705   8.049 -0.5960 -0.0175 -0.8043
  293MOL0     H38657   0.077   7.662   7.874 -2.3489  0.1379  1.3648
  293MOL0     H38658   0.688   6.760   8.074  0.1598  2.5123 -0.9973
  293MOL0     H38659   0.851   6.679   8.219  1.4761  0.4565 -1.5877
  293MOL0     H38660   0.996   6.444   8.692 -0.6779  2.6426  1.0733
  293MOL0     H38661   1.213   6.336   8.710  2.3621  0.7571  0.8300
  293MOL0     H38662   2.926   6.151   8.493 -0.0379 -0.3583  0.0154
  293MOL0     H38663   3.171   6.114   8.445  0.1473  1.2493 -1.4560
  293MOL0     H38664   3.577   6.308   8.635 -1.1670 -0.2727  1.4594
  293MOL0     H38665   3.821   6.248   8.699  0.0600 -0.0120  0.1984
  293MOL0     H38666   4.067   5.915   8.521  0.2999  0.9781 -1.1047
  293MOL0     H38667   3.974   5.876   8.660 -0.4569 -0.8539 -1.3866
  293MOL0     H38668   4.173   5.891   8.765  1.1148  0.3151  0.4023
  293MOL0     H38669   4.243   6.001   8.629 -0.3784  3.1763 -0.1493
  293MOL0     H38670   4.077   6.106   8.861 -0.0142 -2.9632 -0.9694
  293MOL0     H38671   4.162   6.195   8.733 -0.1211  0.1796  0.8623
  293MOL0     H38672   4.306   6.199   8.953  0.0441 -1.5314  0.8103
  293MOL0     H38673   4.281   6.027   8.951 -2.4612  1.4890  3.1132
  293MOL0     H38674   4.616   6.088   8.697  0.2425  2.3452  0.4591
  293MOL0     H38675   3.834   5.921   8.442 -0.1004  1.0427 -1.9737
  293MOL0     H38676   3.582   5.956   8.396  0.4157 -1.3855  2.5875
  294MOL0     O38677   4.502   7.795   8.607 -0.5851  0.0762  0.8577
  294MOL0     C38678   4.583   7.787   8.512 -0.5613 -0.6476  0.2994
  294MOL0     O38679   4.642   7.670   8.470  0.0742 -0.2619  0.0424
  294MOL0     C38680   4.584   7.549   8.514  0.4508 -0.2028  0.4831
  294MOL0     C38681   4.668   7.465   8.592  0.2052 -0.3131 -0.4423
  294MOL0     C38682   4.633   7.339   8.625 -0.4156  0.4057 -1.1233
  294MOL0     C38683   4.510   7.286   8.587 -0.3188  0.5651  0.8594
  294MOL0     O38684   4.463   7.159   8.613  0.8032  0.2414 -0.5978
  294MOL0     C38685   4.462   7.123   8.755  0.5541  0.2143  0.6914
  294MOL0     C38686   4.395   6.986   8.768 -0.9203 -0.0052 -0.1781
  294MOL0     C38687   4.250   6.999   8.817 -0.7084  0.1017 -0.6916
  294MOL0     C38688   4.157   7.081   8.723  0.6469 -0.7878 -0.7554
  294MOL0     C38689   4.013   7.079   8.790  0.6587  0.6542  0.3527
  294MOL0     C38690   4.022   7.159   8.920 -0.2835  0.4249  0.4630
  294MOL0     C38691   3.891   7.189   8.990 -0.1906  0.2035  1.1544
  294MOL0     C38692   3.825   7.293   8.894  0.5002 -0.0174 -0.2541
  294MOL0     N38693   3.678   7.310   8.908  0.4072 -0.4401  0.0189
  294MOL0     C38694   3.612   7.427   8.941  0.1757  0.2585 -0.1347
  294MOL0     C38695   3.482   7.390   8.966 -0.7316 -0.6919 -0.3200
  294MOL0     C38696   3.378   7.483   9.010  0.8521 -0.2569 -0.5835
  294MOL0     C38697   3.267   7.495   8.904 -0.1933 -0.3961 -0.2910
  294MOL0     C38698   3.149   7.573   8.964 -0.6059  0.3358 -0.3743
  294MOL0     C38699   3.027   7.549   8.885 -0.4405 -0.7627  0.2304
  294MOL0     O38700   2.940   7.655   8.939 -0.6525 -0.6825  0.0880
  294MOL0     C38701   2.827   7.676   8.874  0.1279 -0.5499 -0.1495
  294MOL0     C38702   2.766   7.579   8.788 -0.2505  0.4802 -0.2443
  294MOL0     C38703   2.642   7.617   8.730 -0.5014  0.8903  0.0344
  294MOL0     C38704   2.588   7.744   8.741 -0.4464  0.2091 -0.2681
  294MOL0     C38705   2.486   7.803   8.650  0.2609 -0.6104  0.5135
  294MOL0     O38706   2.422   7.723   8.564  0.3465 -0.4101  0.2405
  294MOL0     C38707   2.291   7.754   8.531 -0.2170 -0.0694 -0.3333
  294MOL0     C38708   2.195   7.771   8.633 -1.0724 -0.1320 -0.6545
  294MOL0     C38709   2.056   7.787   8.602  0.3414  0.0310 -0.9212
  294MOL0     C38710   2.010   7.792   8.468 -0.0978  0.2863  0.3476
  294MOL0     O38711   1.879   7.785   8.436  0.0081 -0.0015  0.2601
  294MOL0     C38712   1.829   7.802   8.302 -0.6431 -0.8478 -0.0125
  294MOL0     C38713   1.679   7.796   8.300  0.2831  0.6316 -1.1041
  294MOL0     C38714   1.630   7.649   8.281  0.1981 -1.0513 -0.4915
  294MOL0     C38715   1.614   7.618   8.127  0.4139 -0.5654  0.0122
  294MOL0     C38716   1.522   7.493   8.095 -0.0200  0.3783  0.0545
  294MOL0     C38717   1.556   7.379   8.192  0.2104 -0.9668 -0.6366
  294MOL0     C38718   1.509   7.238   8.151  0.2829 -0.4026 -1.0632
  294MOL0     C38719   1.584   7.129   8.231 -0.0163  0.0024  0.4197
  294MOL0    Cl38720   1.533   7.104   8.403 -0.3878 -0.0898 -0.5285
  294MOL0     C38721   2.114   7.763   8.374  0.8597  0.1552  0.7503
  294MOL0     C38722   2.251   7.753   8.396  1.0248 -0.8895 -0.1596
  294MOL0     O38723   2.467   7.921   8.653  0.2451 -1.1170  0.7630
  294MOL0     C38724   2.633   7.823   8.845  0.7900  0.6504  0.7789
  294MOL0     C38725   2.751   7.794   8.918  0.1349 -0.7226  0.1756
  294MOL0     N38726   3.473   7.258   8.948 -0.2505  0.6729  0.1077
  294MOL0     N38727   3.594   7.206   8.938 -0.4181  0.7960  0.1628
  294MOL0     C38728   4.427   7.364   8.510  0.7179 -0.6382  0.2123
  294MOL0     C38729   4.458   7.494   8.473  0.4129 -0.0510 -0.2202
  294MOL0     C38730   4.614   7.906   8.443 -0.1202 -0.3343 -0.8767
  294MOL0     C38731   4.561   8.028   8.487 -0.3024  0.3550 -0.0283
  294MOL0     C38732   4.587   8.137   8.409 -0.2764 -0.3392 -0.2178
  294MOL0     C38733   4.674   8.135   8.293  0.4217  0.1468 -0.8393
  294MOL0     O38734   4.709   8.243   8.212 -0.1040  0.0931  0.1154
  294MOL0     C38735   4.612   8.354   8.215 -0.0073  0.3292 -0.3443
  294MOL0     C38736   4.494   8.320   8.126  0.5290 -0.6111  0.2072
  294MOL0     C38737   4.389   8.232   8.186  0.6290 -0.2692  0.0201
  294MOL0     C38738   4.263   8.226   8.107 -0.0669 -0.5056 -0.7305
  294MOL0     C38739   4.285   8.180   7.965 -0.4191  0.4706  1.4222
  294MOL0     C38740   4.302   8.155   7.852  0.2375  0.8502 -1.2108
  294MOL0     C38741   4.733   8.017   8.268 -0.6224  0.5901  0.0324
  294MOL0     C38742   4.703   7.899   8.331  0.1252 -0.3389 -0.1061
  294MOL0     H38743   4.765   7.504   8.618  0.2881 -0.8114  0.0270
  294MOL0     H38744   4.700   7.281   8.689 -1.7996 -2.5426 -2.1487
  294MOL0     H38745   4.414   7.193   8.823 -1.4944  0.6324 -1.0705
  294MOL0     H38746   4.566   7.109   8.786  0.4978 -1.1980  0.3193
  294MOL0     H38747   4.447   6.927   8.844  0.2100  2.0658  0.7330
  294MOL0     H38748   4.390   6.937   8.670 -0.4221 -1.3968  0.4716
  294MOL0     H38749   4.279   7.057   8.904  0.8951 -0.2839 -0.9374
  294MOL0     H38750   4.204   6.902   8.836  0.1443 -0.0295  0.9170
  294MOL0     H38751   4.185   7.186   8.709 -2.8326  0.8022  2.3979
  294MOL0     H38752   4.161   7.036   8.623  0.4216  1.7358 -1.9977
  294MOL0     H38753   3.970   6.979   8.796 -0.6903  1.2311  0.7234
  294MOL0     H38754   3.956   7.137   8.716  0.8479  1.7954  1.0680
  294MOL0     H38755   4.069   7.257   8.908  0.7794 -0.0472  0.6687
  294MOL0     H38756   4.078   7.097   8.991  1.1475  0.2217 -0.7885
  294MOL0     H38757   3.824   7.103   8.990  1.0380 -0.8020 -0.4378
  294MOL0     H38758   3.901   7.221   9.095  2.2671 -0.7080  1.2728
  294MOL0     H38759   3.849   7.275   8.789  0.6979 -0.1980 -0.1775
  294MOL0     H38760   3.863   7.389   8.931 -0.4988  0.0206  0.7385
  294MOL0     H38761   3.633   7.534   8.937 -2.0261  0.8739  2.3864
  294MOL0     H38762   3.421   7.582   9.023 -0.1230  0.0990  0.0858
  294MOL0     H38763   3.334   7.444   9.102 -2.4956 -0.1685 -1.9805
  294MOL0     H38764   3.229   7.398   8.871  0.8058 -0.7871 -0.3458
  294MOL0     H38765   3.304   7.557   8.821  3.0966  1.1974  2.1162
  294MOL0     H38766   3.136   7.548   9.070 -0.9388  1.1116 -0.2301
  294MOL0     H38767   3.183   7.676   8.962  2.2790 -0.5451 -1.4388
  294MOL0     H38768   2.976   7.453   8.893 -1.0694 -0.3396  1.6214
  294MOL0     H38769   3.047   7.564   8.779  0.5912  1.3941  0.6722
  294MOL0     H38770   2.803   7.478   8.773 -1.8363 -0.2393  0.4543
  294MOL0     H38771   2.604   7.550   8.654 -1.0214 -0.0305  1.0687
  294MOL0     H38772   2.233   7.764   8.735 -1.1599 -0.7925 -0.6641
  294MOL0     H38773   1.977   7.797   8.676 -0.9996 -2.2228 -1.9596
  294MOL0     H38774   1.864   7.722   8.236 -0.2966  0.6087 -1.6834
  294MOL0     H38775   1.868   7.895   8.260 -1.8210 -1.3574 -2.3981
  294MOL0     H38776   1.639   7.863   8.224 -0.6567  1.2638 -0.0751
  294MOL0     H38777   1.650   7.844   8.394  3.0335  3.2092 -1.4098
  294MOL0     H38778   1.532   7.665   8.326  0.8913  1.1495  0.3751
  294MOL0     H38779   1.689   7.573   8.334 -1.5764 -1.6175  0.7596
  294MOL0     H38780   1.565   7.698   8.071  0.8914 -1.2386 -1.4386
  294MOL0     H38781   1.712   7.604   8.081  1.5413  0.6604  1.9292
  294MOL0     H38782   1.545   7.455   7.995 -1.8275 -0.1163 -0.2089
  294MOL0     H38783   1.418   7.523   8.112 -0.4222 -0.3786 -0.9796
  294MOL0     H38784   1.512   7.413   8.286 -1.0288  2.4450 -2.2934
  294MOL0     H38785   1.664   7.369   8.202  0.3808  0.7991 -0.4458
  294MOL0     H38786   1.401   7.223   8.167  0.1189  0.1918 -1.5781
  294MOL0     H38787   1.530   7.229   8.044  1.9134  1.8170 -0.9917
  294MOL0     H38788   1.692   7.144   8.233 -0.3014  2.5026  2.9649
  294MOL0     H38789   1.564   7.038   8.173 -1.8410 -0.1901  1.2502
  294MOL0     H38790   2.084   7.769   8.270  0.8398 -0.4736  0.7156
  294MOL0     H38791   2.326   7.744   8.318  0.5944  2.3122 -1.0896
  294MOL0     H38792   2.590   7.920   8.868  2.3004  1.6100 -0.1910
  294MOL0     H38793   2.785   7.857   9.000  1.4772 -0.9011 -0.2192
  294MOL0     H38794   4.331   7.325   8.478 -0.2489 -0.8429  3.1192
  294MOL0     H38795   4.389   7.562   8.425  2.0937  0.7885 -1.5513
  294MOL0     H38796   4.499   8.039   8.575 -0.4084  0.8071 -0.1577
  294MOL0     H38797   4.543   8.231   8.441  0.3895  0.1259 -0.6361
  294MOL0     H38798   4.654   8.445   8.171  0.0801 -0.2535 -1.4956
  294MOL0     H38799   4.589   8.386   8.317  1.5929 -0.4340  0.2901
  294MOL0     H38800   4.443   8.412   8.097  0.9396 -0.6288 -0.5805
  294MOL0     H38801   4.526   8.263   8.039  2.1317 -1.7834  1.5013
  294MOL0     H38802   4.359   8.274   8.283 -2.2563  1.1551 -1.3674
  294MOL0     H38803   4.408   8.125   8.200 -2.5630 -0.6448  2.8452
  294MOL0     H38804   4.205   8.152   8.163  1.6200 -0.9105  0.5432
  294MOL0     H38805   4.206   8.320   8.104  1.9297  0.8778  1.3752
  294MOL0     H38806   4.324   8.132   7.750 -0.6164 -0.4106 -1.1310
  294MOL0     H38807   4.808   8.014   8.190  1.3872 -0.8681  1.8910
  294MOL0     H38808   4.751   7.810   8.293 -0.9087 -0.9661  0.0195
  295MOL0     O38809   6.362  11.195   4.685  0.0450 -0.8620  0.2041
  295MOL0     C38810   6.282  11.120   4.742  0.2319 -0.1464  0.5267
  295MOL0     O38811   6.308  11.047   4.855  0.6612  0.1611  0.1801
  295MOL0     C38812   6.424  11.051   4.922  0.1380  0.4231  0.9426
  295MOL0     C38813   6.435  11.056   5.065  0.0024  0.1118 -0.1790
  295MOL0     C38814   6.561  11.065   5.124  0.2776 -0.0967  0.2654
  295MOL0     C38815   6.678  11.051   5.052 -0.0712  0.0893  0.0319
  295MOL0     O38816   6.795  11.040   5.122 -0.0174 -0.9719  0.4370
  295MOL0     C38817   6.916  11.032   5.043 -0.0808  0.5065  0.5540
  295MOL0     C38818   7.041  11.017   5.125 -0.2284 -0.3121 -0.7496
  295MOL0     C38819   7.154  10.981   5.029  0.1988  0.9918 -0.0841
  295MOL0     C38820   7.202  11.088   4.943  0.7949  0.6374  0.3645
  295MOL0     C38821   7.256  11.213   5.014  1.1751 -0.0301 -0.6285
  295MOL0     C38822   7.339  11.180   5.137 -0.6019 -0.4425  0.1437
  295MOL0     C38823   7.398  11.311   5.183  0.0355 -0.7184  0.1191
  295MOL0     C38824   7.444  11.280   5.329 -0.6167  0.7244  0.0573
  295MOL0     N38825   7.538  11.161   5.336  0.0320 -0.5123  0.1601
  295MOL0     C38826   7.659  11.161   5.290 -1.4115 -0.5595  0.4368
  295MOL0     C38827   7.717  11.039   5.326 -0.4385 -0.2193  0.8853
  295MOL0     C38828   7.856  10.999   5.291 -0.2755 -0.3953  0.0563
  295MOL0     C38829   7.958  11.110   5.334 -0.0059  0.4811 -0.5191
  295MOL0     C38830   7.972  11.116   5.489  0.4784  0.0755  0.0938
  295MOL0     C38831   8.056  11.246   5.532  0.2082  0.0043 -0.0157
  295MOL0     O38832   7.977  11.366   5.537 -0.6954 -0.5134  0.3920
  295MOL0     C38833   7.868  11.357   5.620  0.3508  0.0463  0.9729
  295MOL0     C38834   7.887  11.343   5.761  0.1373 -0.5260  0.6853
  295MOL0     C38835   7.778  11.338   5.850  0.5017 -0.6542  1.1278
  295MOL0     C38836   7.642  11.334   5.793  0.0352  0.4942 -0.5428
  295MOL0     C38837   7.523  11.292   5.873  0.1955 -0.2561 -0.3907
  295MOL0     O38838   7.409  11.333   5.813 -0.2688  0.0519  0.0518
  295MOL0     C38839   7.280  11.309   5.868 -0.7763  0.0766 -0.1987
  295MOL0     C38840   7.257  11.297   6.007 -0.0979  0.7316  0.3880
  295MOL0     C38841   7.125  11.283   6.054 -0.7416  0.1835 -0.7236
  295MOL0     C38842   7.024  11.273   5.970  0.1591 -0.9686 -0.1963
  295MOL0     O38843   6.897  11.264   6.036 -0.4879 -0.2659 -0.4224
  295MOL0     C38844   6.785  11.326   5.963 -0.0844 -0.2423 -0.9052
  295MOL0     C38845   6.665  11.338   6.052  0.5228  0.2016  0.0229
  295MOL0     C38846   6.675  11.456   6.158  0.2284 -0.4480  0.5139
  295MOL0     C38847   6.543  11.479   6.226 -0.1218  0.0141 -0.1465
  295MOL0     C38848   6.422  11.548   6.143 -0.4921 -0.7176  0.0607
  295MOL0     C38849   6.318  11.607   6.244 -0.0582  0.1134 -0.5142
  295MOL0     C38850   6.177  11.636   6.171  0.2390 -0.1463  0.4010
  295MOL0     C38851   6.075  11.694   6.266 -0.8746  0.1566 -0.0077
  295MOL0    Cl38852   6.036  11.559   6.388  0.4043  0.0705 -0.1006
  295MOL0     C38853   7.046  11.267   5.831  0.6981  0.4474 -0.4684
  295MOL0     C38854   7.175  11.289   5.786 -0.2465 -0.2460 -0.1557
  295MOL0     O38855   7.533  11.226   5.977 -0.2037  0.1158  0.7994
  295MOL0     C38856   7.630  11.345   5.657 -0.4372 -0.2132 -0.5092
  295MOL0     C38857   7.742  11.365   5.576  0.0222 -1.0335 -0.4024
  295MOL0     N38858   7.618  10.963   5.383  0.3221  0.6538  0.3369
  295MOL0     N38859   7.504  11.037   5.383  1.2007  0.3627 -0.2346
  295MOL0     C38860   6.667  11.050   4.914 -0.3894 -0.4928 -0.4440
  295MOL0     C38861   6.547  11.050   4.848  0.4912  0.5393 -0.5691
  295MOL0     C38862   6.167  11.085   4.660 -0.0777 -0.1867 -0.2806
  295MOL0     C38863   6.138  11.152   4.536 -0.4259  0.3057  0.4326
  295MOL0     C38864   6.030  11.112   4.468  0.3831 -0.0957  0.6153
  295MOL0     C38865   5.945  11.007   4.516 -0.1455  0.2889 -0.1762
  295MOL0     O38866   5.850  10.959   4.435  0.4367  0.4093 -0.0341
  295MOL0     C38867   5.733  10.891   4.490 -0.0932 -0.4742 -0.3220
  295MOL0     C38868   5.657  10.973   4.595  0.1043 -0.0470 -0.4168
  295MOL0     C38869   5.503  10.967   4.567 -0.4141  0.7290  0.4619
  295MOL0     C38870   5.449  10.829   4.583 -0.7149  0.0981 -0.3982
  295MOL0     C38871   5.304  10.832   4.593 -0.6120 -0.1294 -0.2899
  295MOL0     C38872   5.187  10.845   4.614  0.2548 -0.1105  0.6101
  295MOL0     C38873   5.971  10.947   4.642  0.7564 -0.4531  0.0603
  295MOL0     C38874   6.073  10.999   4.717  0.2929 -0.0111  0.2512
  295MOL0     H38875   6.349  11.047   5.130  0.2789 -2.1012 -0.0435
  295MOL0     H38876   6.572  11.061   5.232  1.2231  0.7588  0.2140
  295MOL0     H38877   6.933  11.115   4.973  1.9553 -1.2662 -1.2047
  295MOL0     H38878   6.906  10.948   4.974  0.7300 -0.7221  1.8796
  295MOL0     H38879   7.041  10.934   5.196 -2.2857  2.1354  2.3576
  295MOL0     H38880   7.064  11.102   5.189 -1.0010  0.3213 -1.2949
  295MOL0     H38881   7.121  10.892   4.975 -0.6812  0.3308  1.4524
  295MOL0     H38882   7.236  10.939   5.088 -0.2643 -0.0888 -0.1864
  295MOL0     H38883   7.277  11.045   4.876 -0.8703  0.0357 -1.2232
  295MOL0     H38884   7.115  11.113   4.881  1.1487 -1.8703 -1.2737
  295MOL0     H38885   7.176  11.281   5.044 -0.7109 -2.3194 -0.2603
  295MOL0     H38886   7.318  11.267   4.942  1.8148  2.0174  1.3096
  295MOL0     H38887   7.416  11.112   5.099 -1.9501 -1.4825 -0.8181
  295MOL0     H38888   7.278  11.134   5.214  0.0331 -0.7408  0.4721
  295MOL0     H38889   7.483  11.338   5.120 -0.0521 -0.9449 -0.1040
  295MOL0     H38890   7.325  11.392   5.182  0.1251 -0.6387 -0.5763
  295MOL0     H38891   7.350  11.271   5.384 -1.5792  1.6042 -1.3755
  295MOL0     H38892   7.503  11.362   5.371 -0.1674  0.6297 -0.3834
  295MOL0     H38893   7.707  11.242   5.236 -0.0247 -2.2017 -0.9418
  295MOL0     H38894   7.853  10.993   5.182  0.9899  1.7767 -0.1550
  295MOL0     H38895   7.883  10.901   5.333 -0.2421 -0.0901  0.7708
  295MOL0     H38896   7.925  11.203   5.286  0.3466  0.4739 -0.7769
  295MOL0     H38897   8.059  11.078   5.308 -1.0578 -1.9933 -1.9772
  295MOL0     H38898   7.870  11.108   5.528 -0.5746 -0.9117 -2.6131
  295MOL0     H38899   8.030  11.031   5.526  1.6143 -0.0770 -1.9010
  295MOL0     H38900   8.136  11.254   5.458  0.2304 -0.0620  0.0020
  295MOL0     H38901   8.104  11.224   5.627  0.0140  1.2972  0.4068
  295MOL0     H38902   7.991  11.341   5.792  0.4951  0.6275 -0.3787
  295MOL0     H38903   7.791  11.341   5.958 -0.6443 -1.3827  1.3115
  295MOL0     H38904   7.335  11.318   6.080  0.3737 -2.0284  0.7762
  295MOL0     H38905   7.103  11.287   6.160 -0.0784  1.5184 -0.6149
  295MOL0     H38906   6.761  11.269   5.873 -1.7285 -2.6533  0.9134
  295MOL0     H38907   6.806  11.429   5.933  0.1107 -0.1916 -0.5942
  295MOL0     H38908   6.655  11.247   6.112  3.2613 -0.9749 -1.1475
  295MOL0     H38909   6.575  11.354   5.990  0.1030  2.3545  1.0849
  295MOL0     H38910   6.695  11.553   6.113 -0.6579 -0.6836 -0.4136
  295MOL0     H38911   6.744  11.411   6.230 -0.5175 -3.3447 -0.4326
  295MOL0     H38912   6.507  11.378   6.249 -1.2338  0.6434  1.0147
  295MOL0     H38913   6.566  11.548   6.308 -0.1058  1.4357 -1.3150
  295MOL0     H38914   6.363  11.475   6.086 -0.4551  1.0170 -2.3425
  295MOL0     H38915   6.459  11.632   6.083 -0.3201 -0.5209  0.4395
  295MOL0     H38916   6.349  11.703   6.287 -2.6165  0.0828  1.6340
  295MOL0     H38917   6.291  11.540   6.326 -0.7501  0.8808 -0.0988
  295MOL0     H38918   6.190  11.701   6.083 -0.3679  1.2292  1.2852
  295MOL0     H38919   6.135  11.542   6.136 -0.9119  0.3405  0.4310
  295MOL0     H38920   5.988  11.719   6.205 -0.3330 -1.0977 -1.3743
  295MOL0     H38921   6.128  11.779   6.308  0.4401 -0.4501 -0.3756
  295MOL0     H38922   6.966  11.262   5.758  0.8790 -2.5500 -0.5945
  295MOL0     H38923   7.189  11.304   5.679  0.8322  1.2896  0.1615
  295MOL0     H38924   7.532  11.349   5.609 -0.8896  3.7737  0.3888
  295MOL0     H38925   7.728  11.394   5.472 -0.6522 -0.8453 -0.2691
  295MOL0     H38926   6.759  11.056   4.858  0.2846  1.7598  0.7917
  295MOL0     H38927   6.549  11.052   4.739  0.8167  1.4176 -0.5541
  295MOL0     H38928   6.201  11.235   4.505  1.6643 -1.2049  0.4030
  295MOL0     H38929   6.001  11.165   4.378 -0.2668 -2.1797 -0.4752
  295MOL0     H38930   5.764  10.794   4.529 -0.0850  0.2112  1.4414
  295MOL0     H38931   5.664  10.880   4.405 -0.8520  0.1531  0.1998
  295MOL0     H38932   5.680  10.936   4.695 -1.0377  2.1555  0.7445
  295MOL0     H38933   5.677  11.080   4.595 -0.8271  0.1985  1.8312
  295MOL0     H38934   5.487  10.999   4.464 -2.2079  0.1080  0.5180
  295MOL0     H38935   5.456  11.043   4.631  1.4120  1.2943  1.2182
  295MOL0     H38936   5.480  10.762   4.503 -0.4048  1.7725 -1.7362
  295MOL0     H38937   5.484  10.791   4.680 -1.5390 -1.7286 -0.7685
  295MOL0     H38938   5.082  10.854   4.634  0.0667 -1.7726  0.4639
  295MOL0     H38939   5.901  10.875   4.683 -1.9993  0.1829 -3.1627
  295MOL0     H38940   6.097  10.967   4.819 -0.2799 -0.9807  0.0974
  296MOL0     O38941   6.114   7.961   9.098 -0.3453 -0.5926  0.4093
  296MOL0     C38942   6.122   7.938   9.218 -0.1790  0.2360 -0.4933
  296MOL0     O38943   6.013   7.928   9.313 -0.3025 -0.0609  0.3327
  296MOL0     C38944   5.888   7.954   9.267 -0.1589  0.1629 -0.1102
  296MOL0     C38945   5.835   8.070   9.217  0.1990 -0.1634  0.2732
  296MOL0     C38946   5.703   8.075   9.173  1.8672  0.8591  0.9256
  296MOL0     C38947   5.614   7.967   9.176 -0.3771  0.2563  0.1579
  296MOL0     O38948   5.487   7.981   9.119 -0.1405  0.3773  0.3342
  296MOL0     C38949   5.380   7.892   9.152  0.6438  0.2233  0.1403
  296MOL0     C38950   5.267   7.920   9.056  0.3318 -0.4313 -0.3238
  296MOL0     C38951   5.156   7.831   9.093  0.4192 -1.0029 -0.1391
  296MOL0     C38952   5.021   7.892   9.052 -0.0232 -0.9908  1.0779
  296MOL0     C38953   4.893   7.815   9.079 -0.7554 -0.2583  0.3786
  296MOL0     C38954   4.770   7.871   9.009  0.5131  0.4201  0.3048
  296MOL0     C38955   4.653   7.785   9.023 -0.2169  1.2113 -0.7548
  296MOL0     C38956   4.532   7.837   8.960  0.3535 -0.6990  0.3747
  296MOL0     N38957   4.455   7.930   9.047  0.5274 -0.0611 -0.0214
  296MOL0     C38958   4.477   8.058   9.050 -0.5789 -0.0016 -0.1743
  296MOL0     C38959   4.369   8.115   9.109 -0.6023 -0.2930 -0.1695
  296MOL0     C38960   4.346   8.258   9.133 -0.8053  0.5346 -0.1558
  296MOL0     C38961   4.429   8.300   9.257 -1.0789  0.3037 -0.7608
  296MOL0     C38962   4.421   8.458   9.260 -0.0650 -0.1047 -1.5738
  296MOL0     C38963   4.283   8.519   9.312 -0.1605 -0.3542  0.5355
  296MOL0     O38964   4.239   8.463   9.432 -0.1184  0.6732 -0.1267
  296MOL0     C38965   4.111   8.484   9.475  0.6156  0.7985  0.5468
  296MOL0     C38966   4.086   8.434   9.603  0.6980 -0.4152  0.8575
  296MOL0     C38967   3.959   8.460   9.667 -0.0461 -0.5527  0.4075
  296MOL0     C38968   3.863   8.541   9.593 -0.9076  0.5428 -0.6867
  296MOL0     C38969   3.732   8.565   9.667  0.0542 -0.6284 -0.2067
  296MOL0     O38970   3.661   8.682   9.626 -0.1038 -0.2877  0.2520
  296MOL0     C38971   3.539   8.701   9.686 -0.7476 -0.4206 -0.1779
  296MOL0     C38972   3.426   8.628   9.650  0.6969  0.3455 -0.0973
  296MOL0     C38973   3.305   8.666   9.695  0.0170 -0.7137  0.4020
  296MOL0     C38974   3.280   8.781   9.781  0.7416  0.6283  0.0451
  296MOL0     O38975   3.160   8.821   9.833 -0.7075 -0.7543 -0.0339
  296MOL0     C38976   3.042   8.761   9.782  0.1050  0.2315 -0.2153
  296MOL0     C38977   2.920   8.798   9.870 -0.3380 -0.0337 -0.2887
  296MOL0     C38978   2.786   8.761   9.817 -0.5265 -0.2715 -0.5369
  296MOL0     C38979   2.680   8.778   9.937 -0.2585 -0.0066  0.6658
  296MOL0     C38980   2.534   8.748   9.891  0.5287 -0.3630  0.3065
  296MOL0     C38981   2.445   8.740  10.014 -0.3056  0.3996 -0.4626
  296MOL0     C38982   2.307   8.680  10.003 -0.3073 -0.2587  0.1508
  296MOL0     C38983   2.210   8.748   9.909 -0.7568 -0.4232 -1.0303
  296MOL0    Cl38984   2.078   8.632   9.873 -0.3054 -0.2874  0.3199
  296MOL0     C38985   3.397   8.860   9.809 -0.1774  0.4242  0.3911
  296MOL0     C38986   3.521   8.821   9.759 -0.5219  0.2179 -0.1574
  296MOL0     O38987   3.690   8.483   9.749  0.1140  0.0511  0.1424
  296MOL0     C38988   3.892   8.588   9.469 -1.0152 -0.5555 -0.4286
  296MOL0     C38989   4.012   8.551   9.403  0.7064 -0.2098 -0.3504
  296MOL0     N38990   4.275   8.015   9.127 -0.1082  0.1572 -0.2289
  296MOL0     N38991   4.330   7.904   9.093 -0.2051 -0.2900 -0.2197
  296MOL0     C38992   5.663   7.849   9.236 -0.1775 -0.5265 -0.3505
  296MOL0     C38993   5.792   7.847   9.274 -0.5663 -0.2289  0.0966
  296MOL0     C38994   6.255   7.907   9.281 -0.4948 -1.4730 -0.8820
  296MOL0     C38995   6.262   7.868   9.414 -0.0942  0.3869  0.1929
  296MOL0     C38996   6.387   7.872   9.480  0.6497 -0.1341  0.3076
  296MOL0     C38997   6.513   7.896   9.416 -0.8015 -0.1460  0.3804
  296MOL0     O38998   6.636   7.906   9.474  0.1648 -0.0742  0.5163
  296MOL0     C38999   6.645   7.850   9.609 -0.0681  0.0652 -1.0612
  296MOL0     C39000   6.753   7.944   9.674  0.0549 -0.1408 -0.2785
  296MOL0     C39001   6.806   7.897   9.814  0.6950 -0.1170 -0.2825
  296MOL0     C39002   6.857   7.756   9.833  0.2659  0.3983 -0.0907
  296MOL0     C39003   6.966   7.726   9.737  0.4471 -0.0457 -0.3247
  296MOL0     C39004   7.065   7.687   9.682  0.5491 -0.6465 -0.0664
  296MOL0     C39005   6.498   7.908   9.275  0.4987 -0.2957  0.3632
  296MOL0     C39006   6.375   7.923   9.209 -0.6950  0.1537 -0.0409
  296MOL0     H39007   5.898   8.158   9.211 -2.3779  1.7038 -4.2375
  296MOL0     H39008   5.654   8.167   9.143 -0.9243 -0.3504  1.5012
  296MOL0     H39009   5.352   7.928   9.251 -0.3534  2.6733 -0.9517
  296MOL0     H39010   5.403   7.787   9.136 -3.6691 -1.0995  1.2331
  296MOL0     H39011   5.284   7.896   8.951 -1.6751  0.2150 -0.8576
  296MOL0     H39012   5.241   8.027   9.058  1.0054 -0.2718  0.6948
  296MOL0     H39013   5.145   7.819   9.201 -2.6327 -1.3693 -0.3986
  296MOL0     H39014   5.179   7.733   9.050  0.8648  0.2435 -2.9795
  296MOL0     H39015   5.020   7.994   9.091 -0.4741 -0.1121 -1.0689
  296MOL0     H39016   5.027   7.896   8.943 -1.5918 -0.6611  0.9744
  296MOL0     H39017   4.877   7.821   9.187 -0.2469  1.5117  0.3888
  296MOL0     H39018   4.910   7.713   9.042 -2.1519 -0.2455 -0.3841
  296MOL0     H39019   4.796   7.889   8.905 -0.9571 -0.0012 -0.1527
  296MOL0     H39020   4.745   7.965   9.061  0.5700  0.8749 -0.4787
  296MOL0     H39021   4.674   7.686   8.981  0.6760  1.0165  0.1155
  296MOL0     H39022   4.616   7.765   9.124 -0.8225 -0.8435 -1.3249
  296MOL0     H39023   4.458   7.758   8.945  0.8667 -1.0516 -0.3378
  296MOL0     H39024   4.572   7.884   8.870  2.3045 -0.4145  1.3384
  296MOL0     H39025   4.562   8.110   9.008  0.3876 -1.5058 -0.1551
  296MOL0     H39026   4.239   8.260   9.152 -0.6752  2.3384  0.5357
  296MOL0     H39027   4.368   8.323   9.047 -0.2391  0.6539  0.0701
  296MOL0     H39028   4.533   8.271   9.240 -1.2748 -0.1909 -1.1614
  296MOL0     H39029   4.389   8.252   9.347 -0.2086 -0.0119 -0.5322
  296MOL0     H39030   4.511   8.486   9.315  1.1114 -3.0765 -1.7518
  296MOL0     H39031   4.440   8.506   9.164 -1.2739 -0.3289 -1.9423
  296MOL0     H39032   4.213   8.505   9.230  0.0196  0.6628  0.2048
  296MOL0     H39033   4.290   8.627   9.322  0.8592 -0.5025  1.6997
  296MOL0     H39034   4.161   8.362   9.633 -0.9822 -2.7081 -0.1569
  296MOL0     H39035   3.943   8.413   9.763 -1.1431  0.5737  0.7935
  296MOL0     H39036   3.441   8.544   9.583 -1.1556 -0.4511  0.4201
  296MOL0     H39037   3.226   8.605   9.652 -0.0911 -0.2885 -0.0142
  296MOL0     H39038   3.048   8.653   9.799  3.9530  0.4953  1.2434
  296MOL0     H39039   3.025   8.798   9.681  0.7166  1.4073  0.0874
  296MOL0     H39040   2.925   8.906   9.889  0.0666 -0.1254  0.1391
  296MOL0     H39041   2.935   8.754   9.968  1.4793  1.4232  0.1545
  296MOL0     H39042   2.777   8.663   9.768 -2.3632 -0.6290  0.4444
  296MOL0     H39043   2.755   8.823   9.732  0.3673 -0.6061 -1.1270
  296MOL0     H39044   2.694   8.705  10.017 -2.4146  0.7549  1.8278
  296MOL0     H39045   2.688   8.877   9.983  0.9603  0.1689  0.1042
  296MOL0     H39046   2.531   8.651   9.842  2.2350 -0.6646  0.7339
  296MOL0     H39047   2.499   8.825   9.821  0.0027 -0.5173  0.3923
  296MOL0     H39048   2.437   8.839  10.061 -0.6710  0.9828 -1.7060
  296MOL0     H39049   2.503   8.683  10.087  1.4456  2.3123 -0.2720
  296MOL0     H39050   2.319   8.576   9.972  0.5703  0.3296 -1.6121
  296MOL0     H39051   2.266   8.689  10.104 -0.8848 -0.5799 -0.0548
  296MOL0     H39052   2.262   8.767   9.814 -1.4272  1.8548 -1.0100
  296MOL0     H39053   2.183   8.839   9.963  0.9865  1.3920 -3.0143
  296MOL0     H39054   3.382   8.945   9.873 -0.8139  0.5648  0.0559
  296MOL0     H39055   3.611   8.874   9.787  1.1305 -2.7131  0.4520
  296MOL0     H39056   3.827   8.646   9.404 -1.1375  1.5163  1.4264
  296MOL0     H39057   4.021   8.598   9.306 -2.6087  2.3725  0.3892
  296MOL0     H39058   5.608   7.758   9.256 -0.3299 -0.4893 -0.5986
  296MOL0     H39059   5.829   7.756   9.320 -1.1459 -0.0066  1.0235
  296MOL0     H39060   6.172   7.853   9.472 -2.6292  0.9794 -3.2571
  296MOL0     H39061   6.364   7.869   9.586 -0.0001  3.6134  0.3878
  296MOL0     H39062   6.686   7.749   9.608  0.4116  0.2559 -0.9253
  296MOL0     H39063   6.553   7.838   9.666  0.1176  0.0405 -0.7682
  296MOL0     H39064   6.837   7.955   9.604 -1.5434  0.1773 -2.2080
  296MOL0     H39065   6.707   8.043   9.679  0.4632  0.0566 -0.3047
  296MOL0     H39066   6.731   7.907   9.892 -1.4298  0.6893 -2.3140
  296MOL0     H39067   6.892   7.961   9.838  0.2826 -0.4365  2.3216
  296MOL0     H39068   6.892   7.737   9.935 -0.2315  3.2898  0.6949
  296MOL0     H39069   6.772   7.696   9.799 -0.7488  2.0535 -0.5389
  296MOL0     H39070   7.155   7.652   9.635  0.9363  1.4981 -1.0193
  296MOL0     H39071   6.588   7.899   9.216  1.6782 -1.2362  2.2074
  296MOL0     H39072   6.361   7.932   9.101  0.8897 -0.3582 -0.3147
  297MOL0     O39073   1.357   0.885   8.535 -0.0789 -0.6611  0.0233
  297MOL0     C39074   1.344   0.778   8.476  0.1126  0.1139  0.8880
  297MOL0     O39075   1.246   0.754   8.391  0.2437  0.2492  0.2803
  297MOL0     C39076   1.133   0.831   8.377 -0.5423 -0.2329  0.5379
  297MOL0     C39077   1.072   0.912   8.476  0.0915  0.4002 -0.1810
  297MOL0     C39078   0.969   1.008   8.442 -0.6024  1.0671 -0.2537
  297MOL0     C39079   0.921   1.008   8.309 -0.2381 -0.1222  0.0701
  297MOL0     O39080   0.817   1.092   8.270  0.2504 -0.8938 -0.4170
  297MOL0     C39081   0.755   1.175   8.375  0.9899 -0.9701 -0.2196
  297MOL0     C39082   0.651   1.269   8.316 -0.5021  0.4966 -0.3731
  297MOL0     C39083   0.519   1.196   8.280 -0.4921 -0.3410  0.1529
  297MOL0     C39084   0.411   1.290   8.241 -0.5618 -0.6319 -0.6525
  297MOL0     C39085   0.288   1.209   8.211  0.1954 -0.7778  0.3238
  297MOL0     C39086   0.207   1.285   8.110  0.1021  0.6361 -0.2305
  297MOL0     C39087   0.070   1.199   8.074 -0.7069 -0.3151 -0.4528
  297MOL0     C39088   0.005   1.278   7.961 -0.0570  1.4627 -0.9139
  297MOL0     N39089  -0.134   1.225   7.944 -0.1640 -0.3076 -0.7435
  297MOL0     C39090  -0.247   1.304   7.964  0.1152  0.5890  0.7280
  297MOL0     C39091  -0.348   1.222   7.966  0.4118 -0.4776 -1.0597
  297MOL0     C39092  -0.492   1.257   8.007 -0.4340  0.3263  0.1556
  297MOL0     C39093  -0.582   1.267   7.891  0.3552  0.3279 -0.1183
  297MOL0     C39094  -0.561   1.384   7.809 -0.1861  0.6576  0.2445
  297MOL0     C39095  -0.672   1.406   7.704  0.6102 -0.8154 -1.0874
  297MOL0     O39096  -0.683   1.317   7.591  0.3173 -0.2795 -0.5631
  297MOL0     C39097  -0.810   1.326   7.529 -0.4419 -0.6767 -0.0229
  297MOL0     C39098  -0.806   1.362   7.394 -0.2423  0.4935  0.3770
  297MOL0     C39099  -0.923   1.362   7.314 -0.0224  0.2093 -0.4704
  297MOL0     C39100  -1.045   1.343   7.370  1.3259  0.7813 -0.2095
  297MOL0     C39101  -1.155   1.342   7.269  0.5320 -0.6875 -0.3794
  297MOL0     O39102  -1.282   1.304   7.316 -0.2968 -0.5235 -0.4184
  297MOL0     C39103  -1.394   1.304   7.228 -0.3087 -0.3769  0.4662
  297MOL0     C39104  -1.399   1.274   7.089  0.0000  0.2638  0.2877
  297MOL0     C39105  -1.525   1.266   7.029 -0.1435 -0.1111  0.5202
  297MOL0     C39106  -1.638   1.290   7.103  0.1299  0.2384 -0.4445
  297MOL0     O39107  -1.758   1.288   7.044  0.4318  0.0124  0.5957
  297MOL0     C39108  -1.779   1.262   6.904  0.1143  0.2840  0.9313
  297MOL0     C39109  -1.930   1.259   6.883 -0.0982  0.5070 -0.2638
  297MOL0     C39110  -2.006   1.386   6.906  0.1262 -0.2870 -0.3156
  297MOL0     C39111  -2.148   1.346   6.859  0.1071 -0.1236 -0.6599
  297MOL0     C39112  -2.248   1.465   6.869 -0.0068  0.3320  0.8248
  297MOL0     C39113  -2.278   1.515   7.016 -0.1537  0.4766  0.4555
  297MOL0     C39114  -2.401   1.599   7.020 -0.7878 -0.5639  0.1942
  297MOL0     C39115  -2.476   1.592   7.147 -0.5140 -0.6917  0.4051
  297MOL0    Cl39116  -2.372   1.607   7.298 -0.4910  0.0951 -0.0809
  297MOL0     C39117  -1.636   1.331   7.234  0.2317  0.0111 -0.4341
  297MOL0     C39118  -1.515   1.344   7.296 -0.0773  1.1966  0.0276
  297MOL0     O39119  -1.135   1.362   7.153  0.4074  0.4188 -0.1750
  297MOL0     C39120  -1.049   1.297   7.509  0.2832 -0.1487  0.6898
  297MOL0     C39121  -0.932   1.285   7.588  0.7180  0.0664 -0.1365
  297MOL0     N39122  -0.293   1.092   7.959  0.5803  0.6016 -0.8336
  297MOL0     N39123  -0.167   1.095   7.947  0.0125 -0.3196  0.6399
  297MOL0     C39124   0.983   0.928   8.215 -0.1375 -1.1629  0.5951
  297MOL0     C39125   1.082   0.843   8.253  0.6917  0.2162 -0.2464
  297MOL0     C39126   1.439   0.670   8.511 -0.1133 -0.4937  0.2232
  297MOL0     C39127   1.550   0.694   8.592 -0.0543 -0.2974 -0.0991
  297MOL0     C39128   1.657   0.609   8.610 -0.6829  0.3227 -0.2020
  297MOL0     C39129   1.665   0.488   8.538 -0.5130 -0.2980  1.1896
  297MOL0     O39130   1.788   0.423   8.545  0.3741  0.0349  0.6764
  297MOL0     C39131   1.819   0.314   8.463  0.7515 -0.5801 -0.6211
  297MOL0     C39132   1.908   0.231   8.547  0.8641 -0.5933  0.4771
  297MOL0     C39133   1.832   0.165   8.661 -0.4936  0.4080 -0.4135
  297MOL0     C39134   1.932   0.110   8.771 -0.0740 -0.3825  0.2325
  297MOL0     C39135   2.013  -0.004   8.732 -0.5550  0.7009  0.4008
  297MOL0     C39136   2.075  -0.104   8.692  0.6662 -0.8810 -0.2524
  297MOL0     C39137   1.550   0.462   8.458 -1.1331  0.7760 -0.2128
  297MOL0     C39138   1.436   0.546   8.442  0.0994 -0.2275  0.7642
  297MOL0     H39139   1.100   0.906   8.581 -2.6029  1.1806  0.6763
  297MOL0     H39140   0.935   1.075   8.520 -1.5629  1.7275 -1.1987
  297MOL0     H39141   0.830   1.244   8.415 -0.1970  0.2027  0.0548
  297MOL0     H39142   0.719   1.130   8.468 -0.2168  1.3274  0.5172
  297MOL0     H39143   0.693   1.321   8.229 -0.1115  0.2696 -0.3221
  297MOL0     H39144   0.622   1.345   8.389 -1.0546 -0.6694  0.6574
  297MOL0     H39145   0.490   1.141   8.370  0.1160 -1.0731 -0.0921
  297MOL0     H39146   0.541   1.131   8.195 -0.0411  2.1807 -1.7644
  297MOL0     H39147   0.398   1.364   8.320  3.4138  0.9401 -1.2181
  297MOL0     H39148   0.445   1.341   8.150  1.4623 -1.8143 -0.6430
  297MOL0     H39149   0.227   1.217   8.301 -1.6514 -2.5750 -0.6934
  297MOL0     H39150   0.286   1.106   8.175 -0.4503 -0.3457 -0.9282
  297MOL0     H39151   0.274   1.281   8.024  2.5580 -0.8487  1.6252
  297MOL0     H39152   0.199   1.393   8.126 -0.5499  1.0339 -2.8151
  297MOL0     H39153   0.096   1.096   8.047 -0.0896 -0.2613 -0.0851
  297MOL0     H39154   0.011   1.193   8.166  1.3756  0.8298  1.0275
  297MOL0     H39155   0.053   1.244   7.868  2.0967 -2.7632  1.4360
  297MOL0     H39156  -0.000   1.386   7.980 -0.2109  1.5474 -1.4147
  297MOL0     H39157  -0.257   1.409   7.990 -0.2550  1.2839 -1.9830
  297MOL0     H39158  -0.505   1.353   8.057  0.7132  0.1208  0.9085
  297MOL0     H39159  -0.525   1.175   8.072  0.6316 -3.2423 -3.4142
  297MOL0     H39160  -0.681   1.282   7.934  0.2641  3.0519 -1.0680
  297MOL0     H39161  -0.582   1.174   7.834  0.9772  0.5901 -0.5602
  297MOL0     H39162  -0.543   1.479   7.861  2.0212  1.3844 -1.6608
  297MOL0     H39163  -0.471   1.365   7.749 -1.0661  0.9691 -1.2081
  297MOL0     H39164  -0.663   1.503   7.655  0.5466  0.4629  1.3090
  297MOL0     H39165  -0.766   1.421   7.757  2.1036  1.1156  1.1931
  297MOL0     H39166  -0.708   1.383   7.353 -0.8025 -1.8840 -2.4584
  297MOL0     H39167  -0.910   1.385   7.208  3.8616 -0.5100 -0.3231
  297MOL0     H39168  -1.312   1.259   7.025  0.8248  1.2832  1.1352
  297MOL0     H39169  -1.530   1.248   6.922 -1.4239 -0.5102  0.6269
  297MOL0     H39170  -1.739   1.163   6.881  0.4264  0.0095  2.5455
  297MOL0     H39171  -1.724   1.332   6.842 -0.2093 -0.8628 -0.7237
  297MOL0     H39172  -1.957   1.172   6.944  0.3942  2.8479  3.6119
  297MOL0     H39173  -1.943   1.214   6.784  1.8868  0.8865 -0.7419
  297MOL0     H39174  -1.974   1.468   6.841 -0.6436 -0.6192 -1.1367
  297MOL0     H39175  -2.007   1.411   7.012 -2.1864  0.8894 -0.5513
  297MOL0     H39176  -2.144   1.310   6.756 -1.5364  0.2474 -0.8886
  297MOL0     H39177  -2.183   1.259   6.916 -3.2462  0.2792 -1.8952
  297MOL0     H39178  -2.345   1.437   6.827  0.0845  3.3819 -1.8243
  297MOL0     H39179  -2.213   1.550   6.809  0.1013 -1.3331 -1.6289
  297MOL0     H39180  -2.192   1.564   7.062  4.5590 -5.2923 -0.9730
  297MOL0     H39181  -2.307   1.428   7.075  0.6738 -1.0137 -1.2434
  297MOL0     H39182  -2.373   1.704   7.012 -1.1481 -0.3572  1.4456
  297MOL0     H39183  -2.468   1.567   6.939 -0.1560 -1.5623  0.0489
  297MOL0     H39184  -2.532   1.498   7.148 -2.1267  0.1984  2.3963
  297MOL0     H39185  -2.557   1.666   7.140 -0.8511 -1.1625 -0.9211
  297MOL0     H39186  -1.729   1.367   7.276 -1.5789 -1.5320 -2.8450
  297MOL0     H39187  -1.506   1.376   7.399 -2.3292 -0.6770  0.8898
  297MOL0     H39188  -1.149   1.276   7.546 -0.5005  3.1955  0.7919
  297MOL0     H39189  -0.948   1.245   7.687  2.1981  2.1594  1.0277
  297MOL0     H39190   0.937   0.935   8.117 -2.7320  1.3786  1.8360
  297MOL0     H39191   1.118   0.791   8.165 -1.9284  0.2663 -1.4422
  297MOL0     H39192   1.561   0.789   8.643 -0.1190 -0.2333 -0.2040
  297MOL0     H39193   1.734   0.628   8.683 -0.7144 -0.1712 -0.0405
  297MOL0     H39194   1.856   0.359   8.371 -0.8328  1.7880 -0.1987
  297MOL0     H39195   1.732   0.251   8.441 -0.4261  0.0278  1.9496
  297MOL0     H39196   1.957   0.151   8.490  1.8888  0.0729  0.4044
  297MOL0     H39197   1.985   0.299   8.585  1.6446 -2.2969  2.1411
  297MOL0     H39198   1.765   0.087   8.625  0.7990 -1.5408  1.2105
  297MOL0     H39199   1.766   0.238   8.708 -0.2105  1.2064 -1.2086
  297MOL0     H39200   2.008   0.187   8.791 -0.6952  0.5420 -0.8091
  297MOL0     H39201   1.883   0.087   8.866  0.6503 -2.3549  0.1736
  297MOL0     H39202   2.133  -0.188   8.659 -0.2029 -1.8633  0.6093
  297MOL0     H39203   1.555   0.373   8.397  0.1255  0.9371 -0.3683
  297MOL0     H39204   1.359   0.520   8.370  0.0856  1.2743  0.2034
  298MOL0     O39205   2.066   7.641   1.671  0.4275  0.5942  0.4835
  298MOL0     C39206   2.050   7.673   1.793  0.2011  0.4111  0.3120
  298MOL0     O39207   1.933   7.679   1.860  0.8839  0.8007 -0.4343
  298MOL0     C39208   1.815   7.663   1.786  0.7028 -0.5637 -0.0333
  298MOL0     C39209   1.762   7.768   1.709 -0.4342  0.2719 -0.2589
  298MOL0     C39210   1.641   7.750   1.637  0.1419  0.1494  0.6066
  298MOL0     C39211   1.573   7.635   1.636 -0.0057 -0.5869 -0.1527
  298MOL0     O39212   1.460   7.629   1.559  0.2338 -0.2003 -0.6354
  298MOL0     C39213   1.357   7.544   1.607  0.8163 -0.0510 -0.1304
  298MOL0     C39214   1.247   7.616   1.694 -0.3721 -0.6283 -0.5512
  298MOL0     C39215   1.114   7.533   1.728  0.1730  0.1233  0.6592
  298MOL0     C39216   1.154   7.408   1.794 -0.5002 -0.0576 -0.2424
  298MOL0     C39217   1.023   7.324   1.806  0.0359  0.0348  0.5457
  298MOL0     C39218   0.912   7.378   1.897 -0.0088 -0.3104 -0.3233
  298MOL0     C39219   0.779   7.302   1.861 -0.3314  0.1201  0.1855
  298MOL0     C39220   0.701   7.274   1.988  0.4609  1.4572  0.4297
  298MOL0     N39221   0.647   7.392   2.046 -0.1894  0.0434 -0.4063
  298MOL0     C39222   0.527   7.445   2.010  0.0680  0.4380 -0.5859
  298MOL0     C39223   0.501   7.546   2.103 -0.0762  0.3193  0.7998
  298MOL0     C39224   0.385   7.630   2.112 -0.6818 -0.5615 -0.4727
  298MOL0     C39225   0.313   7.616   2.250 -0.9756 -0.1791  0.0636
  298MOL0     C39226   0.194   7.710   2.260  0.8082 -0.1381 -0.8879
  298MOL0     C39227   0.125   7.699   2.404  0.7254 -0.1051  0.3509
  298MOL0     O39228   0.044   7.817   2.411  0.1795  0.0195  0.2503
  298MOL0     C39229  -0.053   7.806   2.501 -0.1624  0.6067 -0.1682
  298MOL0     C39230  -0.186   7.803   2.447  0.2049  0.1572 -0.5485
  298MOL0     C39231  -0.301   7.791   2.523  0.4112 -0.1644 -0.5561
  298MOL0     C39232  -0.286   7.766   2.664  0.9502 -0.1400 -0.8400
  298MOL0     C39233  -0.402   7.751   2.742  0.7654 -0.1210 -0.3684
  298MOL0     O39234  -0.524   7.763   2.686 -0.2800  0.3229  0.7387
  298MOL0     C39235  -0.644   7.741   2.750 -0.7800  0.2216  0.2082
  298MOL0     C39236  -0.742   7.803   2.685 -0.0094  0.1701 -0.7455
  298MOL0     C39237  -0.877   7.802   2.720  0.8734  0.3237  0.0498
  298MOL0     C39238  -0.911   7.714   2.823  0.3783  0.3622  0.1109
  298MOL0     O39239  -1.037   7.687   2.871  0.2958  0.1110  0.0168
  298MOL0     C39240  -1.144   7.769   2.821 -0.6397 -0.1639  0.2247
  298MOL0     C39241  -1.269   7.762   2.902 -0.1370  0.1741 -0.6314
  298MOL0     C39242  -1.299   7.615   2.926  0.2422  0.7218  0.1661
  298MOL0     C39243  -1.413   7.606   3.024  0.1747 -0.5900  0.1240
  298MOL0     C39244  -1.490   7.468   3.025  0.4696 -0.1330  0.2276
  298MOL0     C39245  -1.618   7.505   3.096 -0.9287 -0.3473 -0.0822
  298MOL0     C39246  -1.699   7.385   3.142 -0.4921 -0.5543 -0.9732
  298MOL0     C39247  -1.823   7.446   3.212  0.0487  0.0165 -0.3955
  298MOL0    Cl39248  -1.806   7.513   3.383  0.4006  0.2747 -0.1142
  298MOL0     C39249  -0.812   7.629   2.882 -0.1871 -0.4385 -0.0909
  298MOL0     C39250  -0.676   7.649   2.845 -0.7709  0.1524 -0.7819
  298MOL0     O39251  -0.383   7.715   2.858  0.3376  0.7602 -0.6407
  298MOL0     C39252  -0.153   7.756   2.714 -0.0285  0.3310 -0.0586
  298MOL0     C39253  -0.036   7.777   2.637  0.0205  0.3271  0.1827
  298MOL0     N39254   0.609   7.547   2.193 -0.0985  0.2063  0.6047
  298MOL0     N39255   0.685   7.446   2.163  0.6956 -0.2990  0.5232
  298MOL0     C39256   1.634   7.526   1.701  0.2422  0.4642 -0.7790
  298MOL0     C39257   1.755   7.537   1.781  0.1508  0.3086 -0.5449
  298MOL0     C39258   2.168   7.728   1.870  0.1099  0.1844 -0.1833
  298MOL0     C39259   2.289   7.746   1.805 -0.9273  1.1841  0.1271
  298MOL0     C39260   2.405   7.776   1.873  0.2027  0.0485  0.2415
  298MOL0     C39261   2.402   7.794   2.014 -0.6064 -0.8201  0.6026
  298MOL0     O39262   2.520   7.832   2.071  0.2498  0.0479  0.1614
  298MOL0     C39263   2.571   7.731   2.159  0.1559  0.2434  0.0275
  298MOL0     C39264   2.705   7.775   2.215  0.4348 -0.3721  0.8260
  298MOL0     C39265   2.827   7.770   2.115 -0.1366 -0.5272 -0.5170
  298MOL0     C39266   2.957   7.805   2.184  0.0968  0.1020  0.1283
  298MOL0     C39267   3.066   7.785   2.095  0.7353  1.1717  0.6864
  298MOL0     C39268   3.156   7.765   2.020  0.1743 -0.0480  0.2737
  298MOL0     C39269   2.282   7.779   2.085 -0.8742  0.4050  0.0926
  298MOL0     C39270   2.172   7.738   2.011  0.5031 -0.0690  0.7703
  298MOL0     H39271   1.817   7.861   1.694  0.3881  0.0531  1.2393
  298MOL0     H39272   1.596   7.840   1.599  1.9541  0.4442 -0.9891
  298MOL0     H39273   1.384   7.452   1.660 -0.3383 -2.4710 -3.4005
  298MOL0     H39274   1.307   7.512   1.515  1.0421  2.0421 -1.0344
  298MOL0     H39275   1.221   7.698   1.626  0.6042 -1.8069 -2.4131
  298MOL0     H39276   1.282   7.642   1.795 -1.5685  0.8929 -0.4741
  298MOL0     H39277   1.053   7.504   1.642  1.9199 -2.2888  0.1300
  298MOL0     H39278   1.050   7.602   1.784 -0.3792  0.7346 -0.6672
  298MOL0     H39279   1.224   7.346   1.737  1.5627  0.1132  1.9226
  298MOL0     H39280   1.203   7.430   1.890 -0.5759 -3.8110  0.7917
  298MOL0     H39281   1.059   7.228   1.845  1.0477 -1.0349 -2.7496
  298MOL0     H39282   0.977   7.312   1.708 -0.0023 -0.7720  0.6565
  298MOL0     H39283   0.901   7.486   1.887  1.4574  0.0493  1.3183
  298MOL0     H39284   0.936   7.361   2.003 -0.5296 -2.1145 -0.4574
  298MOL0     H39285   0.718   7.349   1.784  1.5479 -0.3553 -1.6795
  298MOL0     H39286   0.803   7.206   1.814 -1.6744 -1.1253  1.8693
  298MOL0     H39287   0.760   7.214   2.059  0.0194 -0.2541 -0.5866
  298MOL0     H39288   0.617   7.215   1.951 -0.0446  1.2718  1.8011
  298MOL0     H39289   0.465   7.414   1.926 -2.6766 -2.2182  2.1676
  298MOL0     H39290   0.322   7.612   2.024  1.8063 -2.4115 -2.0257
  298MOL0     H39291   0.419   7.733   2.104  0.0522 -0.5513  1.9215
  298MOL0     H39292   0.377   7.624   2.338 -0.9031 -2.5339  0.2783
  298MOL0     H39293   0.281   7.512   2.250 -1.3714 -0.1043 -1.8806
  298MOL0     H39294   0.220   7.815   2.249 -2.9800  1.0051 -0.5630
  298MOL0     H39295   0.115   7.700   2.184  0.2215  1.0670 -0.4538
  298MOL0     H39296   0.201   7.696   2.483  0.1874 -0.2133  0.8716
  298MOL0     H39297   0.069   7.606   2.410  1.6230 -0.7974 -1.3198
  298MOL0     H39298  -0.184   7.824   2.341  0.7121  2.0743 -0.2009
  298MOL0     H39299  -0.402   7.807   2.487 -0.3768  0.9001  1.9005
  298MOL0     H39300  -0.713   7.864   2.601 -2.8760  2.0864 -0.5042
  298MOL0     H39301  -0.944   7.873   2.673  1.2350  1.1140  0.6872
  298MOL0     H39302  -1.159   7.743   2.716 -1.3848  0.6851  0.1214
  298MOL0     H39303  -1.107   7.871   2.832  2.0699 -1.2234  2.1020
  298MOL0     H39304  -1.359   7.809   2.862 -0.5173  0.2715  0.3154
  298MOL0     H39305  -1.249   7.810   2.998 -1.4410 -1.4912  0.5295
  298MOL0     H39306  -1.210   7.563   2.961  0.9485  1.0195 -1.1459
  298MOL0     H39307  -1.317   7.558   2.835 -2.0148 -0.2689  1.1705
  298MOL0     H39308  -1.363   7.618   3.121  2.0557 -4.4584 -0.1682
  298MOL0     H39309  -1.476   7.692   3.000  3.4275  1.7219 -0.9709
  298MOL0     H39310  -1.443   7.381   3.072 -0.8567  0.3737  2.6338
  298MOL0     H39311  -1.528   7.435   2.927  0.2194  1.9458 -0.4117
  298MOL0     H39312  -1.673   7.575   3.033 -1.1643 -0.9558 -0.5653
  298MOL0     H39313  -1.595   7.572   3.179 -2.0701  1.7602 -1.3989
  298MOL0     H39314  -1.739   7.319   3.063 -1.9301  0.5491 -1.2088
  298MOL0     H39315  -1.655   7.324   3.221 -4.2989  0.7675  2.4824
  298MOL0     H39316  -1.891   7.360   3.220 -0.2280  0.1122 -1.5136
  298MOL0     H39317  -1.858   7.524   3.143  2.0774 -1.3605 -3.1613
  298MOL0     H39318  -0.837   7.554   2.957 -1.2481  0.0267  0.0416
  298MOL0     H39319  -0.600   7.589   2.893 -0.4650  1.5230  0.5089
  298MOL0     H39320  -0.134   7.746   2.820 -0.8596 -1.3702 -0.0365
  298MOL0     H39321   0.059   7.791   2.688 -1.3775 -2.1357  3.9507
  298MOL0     H39322   1.583   7.434   1.729 -0.3969  0.9509 -0.3085
  298MOL0     H39323   1.817   7.466   1.836 -0.7827  1.6894  2.4957
  298MOL0     H39324   2.297   7.735   1.698  1.8940  1.3153  0.2577
  298MOL0     H39325   2.496   7.801   1.819  0.9824  0.5029  1.7184
  298MOL0     H39326   2.574   7.643   2.093  0.1149  2.1196 -2.6025
  298MOL0     H39327   2.507   7.707   2.244  0.4981 -1.0728 -0.0569
  298MOL0     H39328   2.702   7.878   2.250  1.8006  1.0515 -2.7899
  298MOL0     H39329   2.735   7.698   2.288  0.2574 -2.2842 -1.0117
  298MOL0     H39330   2.821   7.833   2.026  1.4530 -1.9124 -1.6525
  298MOL0     H39331   2.828   7.666   2.082 -1.1273 -0.8869  0.4983
  298MOL0     H39332   2.947   7.907   2.220 -0.5079  0.8795 -2.0731
  298MOL0     H39333   2.966   7.739   2.271  2.3776  1.1812  0.7929
  298MOL0     H39334   3.241   7.758   1.954 -1.3229 -1.5142 -1.6073
  298MOL0     H39335   2.275   7.789   2.193  1.9203 -1.8772  0.6055
  298MOL0     H39336   2.081   7.728   2.069  0.6525 -0.3198  0.9610
  299MOL0     O39337   2.582   4.624   6.255  0.0551 -0.0431 -0.0550
  299MOL0     C39338   2.645   4.682   6.165 -0.1118  0.8051  0.1290
  299MOL0     O39339   2.600   4.771   6.077  0.2776 -0.0994  0.6555
  299MOL0     C39340   2.463   4.802   6.063 -0.5400  0.4777 -0.5519
  299MOL0     C39341   2.379   4.828   6.171 -0.0489  0.0171  0.4162
  299MOL0     C39342   2.248   4.841   6.148 -0.3087  0.0255  0.0207
  299MOL0     C39343   2.175   4.822   6.032  0.3788 -0.8435  0.8284
  299MOL0     O39344   2.030   4.826   6.028 -0.6647 -0.0503 -0.2174
  299MOL0     C39345   1.975   4.810   5.895  0.4859  0.1547 -0.0849
  299MOL0     C39346   1.826   4.793   5.901  1.2370  0.2477 -0.2034
  299MOL0     C39347   1.771   4.691   6.006 -0.3793 -0.0557 -0.2868
  299MOL0     C39348   1.624   4.673   6.013  0.5732 -0.3152 -0.2524
  299MOL0     C39349   1.578   4.574   6.127  0.2451  0.2482 -0.1091
  299MOL0     C39350   1.429   4.554   6.136  0.1870  0.4118  0.7208
  299MOL0     C39351   1.375   4.461   6.248  0.2303 -0.2959  0.0523
  299MOL0     C39352   1.219   4.457   6.240  0.7704  1.2944 -0.1673
  299MOL0     N39353   1.182   4.365   6.348 -0.0730 -0.6512  0.0184
  299MOL0     C39354   1.113   4.247   6.346  0.4024 -0.2746 -0.3036
  299MOL0     C39355   1.090   4.215   6.474  0.8016  0.4595 -0.1948
  299MOL0     C39356   1.009   4.098   6.521  0.1897  0.5018 -0.1317
  299MOL0     C39357   0.858   4.119   6.541  0.6549  0.5791  0.3609
  299MOL0     C39358   0.777   4.161   6.417 -0.0864  0.0094 -0.3936
  299MOL0     C39359   0.781   4.069   6.303  0.4955  0.5376 -0.2430
  299MOL0     O39360   0.670   4.103   6.221  0.2284 -0.3783 -0.3394
  299MOL0     C39361   0.567   4.018   6.208 -0.7267 -0.8897 -0.2025
  299MOL0     C39362   0.509   4.012   6.077  0.1661  0.3579  0.0236
  299MOL0     C39363   0.385   3.943   6.053  0.2067 -0.3399 -0.2179
  299MOL0     C39364   0.322   3.870   6.158 -0.4796 -0.0457 -0.4300
  299MOL0     C39365   0.185   3.805   6.136 -0.1273  0.1724  0.3420
  299MOL0     O39366   0.123   3.748   6.250  0.9505  0.1875 -0.3413
  299MOL0     C39367  -0.009   3.699   6.241 -0.9096 -0.2329  0.5013
  299MOL0     C39368  -0.104   3.725   6.137 -0.8655  0.4494 -0.4916
  299MOL0     C39369  -0.233   3.661   6.127  0.1346 -0.3864 -0.3559
  299MOL0     C39370  -0.270   3.574   6.232 -0.0632  0.0622 -0.0675
  299MOL0     O39371  -0.393   3.502   6.243 -0.4317 -0.0913 -0.2007
  299MOL0     C39372  -0.472   3.489   6.124 -0.4775 -0.3151  0.4384
  299MOL0     C39373  -0.601   3.411   6.143 -0.0446  0.4575  0.2007
  299MOL0     C39374  -0.680   3.406   6.015  1.5088  0.1515 -0.6773
  299MOL0     C39375  -0.716   3.260   5.990 -0.5687 -0.2506 -0.1515
  299MOL0     C39376  -0.804   3.192   6.093  0.4565  0.2687  0.2214
  299MOL0     C39377  -0.945   3.260   6.119  0.8590 -0.4926  0.1162
  299MOL0     C39378  -1.022   3.180   6.219  0.2221 -0.4386 -0.0867
  299MOL0     C39379  -1.178   3.215   6.217  0.6774  0.7672 -0.4976
  299MOL0    Cl39380  -1.256   3.150   6.374  0.4652 -0.4290  0.1519
  299MOL0     C39381  -0.179   3.550   6.328  0.0511 -0.3336 -0.5808
  299MOL0     C39382  -0.048   3.605   6.331  0.1642 -0.1313 -1.2882
  299MOL0     O39383   0.128   3.836   6.027 -0.9151  0.6206  0.4304
  299MOL0     C39384   0.389   3.860   6.283 -0.8657  0.0561  0.4658
  299MOL0     C39385   0.511   3.930   6.302  0.0659  0.6152 -1.0588
  299MOL0     N39386   1.150   4.304   6.556  0.0697  0.0825  0.4081
  299MOL0     N39387   1.194   4.405   6.479 -0.1961  0.5092 -0.2526
  299MOL0     C39388   2.260   4.809   5.919  0.0786 -0.1370  0.5773
  299MOL0     C39389   2.397   4.783   5.940 -0.2099  0.4970  0.1558
  299MOL0     C39390   2.788   4.650   6.160  0.1581 -0.1508  0.2666
  299MOL0     C39391   2.836   4.536   6.229 -0.1270 -0.3590  0.4754
  299MOL0     C39392   2.973   4.498   6.219  0.8948  0.4256 -0.0155
  299MOL0     C39393   3.064   4.572   6.140 -0.4992 -0.0344  0.6663
  299MOL0     O39394   3.192   4.524   6.123  0.1432  0.2470 -0.5733
  299MOL0     C39395   3.278   4.582   6.033  0.4612 -1.0991  0.3041
  299MOL0     C39396   3.415   4.506   6.032 -0.3901  0.0742  0.2404
  299MOL0     C39397   3.506   4.562   5.924  0.2014 -0.5758  0.4936
  299MOL0     C39398   3.645   4.509   5.934 -1.1973  0.3470 -0.5559
  299MOL0     C39399   3.708   4.523   5.797  0.0587  0.4485 -0.0373
  299MOL0     C39400   3.753   4.540   5.693 -0.3833  0.5054  0.1018
  299MOL0     C39401   3.017   4.689   6.080 -0.6298 -0.1690 -0.6842
  299MOL0     C39402   2.879   4.729   6.087  0.0067  0.6037 -0.4896
  299MOL0     H39403   2.416   4.836   6.273  0.2950  0.3520  0.2681
  299MOL0     H39404   2.187   4.860   6.236 -0.2972  1.4191 -0.2519
  299MOL0     H39405   2.018   4.721   5.848  2.3499  3.1125 -4.6206
  299MOL0     H39406   2.009   4.893   5.832  2.4586  0.1043  0.8401
  299MOL0     H39407   1.797   4.763   5.800  0.5824  0.5017 -0.0909
  299MOL0     H39408   1.762   4.880   5.916  0.1341 -0.3672 -1.1600
  299MOL0     H39409   1.806   4.726   6.104 -2.0758 -1.3754  0.8408
  299MOL0     H39410   1.812   4.592   5.987 -0.4773  0.2115 -2.0468
  299MOL0     H39411   1.576   4.768   6.039  3.8793  1.1748  0.9905
  299MOL0     H39412   1.589   4.635   5.917  0.9461 -0.8447 -0.1813
  299MOL0     H39413   1.622   4.601   6.224  0.1885 -2.8998  0.9210
  299MOL0     H39414   1.621   4.477   6.102 -2.3913 -1.1338  0.4091
  299MOL0     H39415   1.387   4.520   6.041 -0.1536  1.4626  0.4737
  299MOL0     H39416   1.391   4.656   6.148  3.3596  1.9239 -1.0688
  299MOL0     H39417   1.408   4.357   6.242 -0.9856 -0.8441  2.1055
  299MOL0     H39418   1.422   4.497   6.339 -0.1582 -0.1455  0.1941
  299MOL0     H39419   1.187   4.417   6.144 -2.8995 -1.3074  1.9162
  299MOL0     H39420   1.170   4.553   6.259  0.3770  1.2823 -1.1087
  299MOL0     H39421   1.088   4.195   6.254  2.2736 -0.4939 -0.7257
  299MOL0     H39422   1.053   4.085   6.620  1.6398  3.8186 -0.1984
  299MOL0     H39423   1.030   4.012   6.457 -1.9527  0.4126 -0.7990
  299MOL0     H39424   0.843   4.198   6.616 -1.7769 -0.5629  1.1890
  299MOL0     H39425   0.807   4.031   6.580  0.0647 -0.1814 -2.0175
  299MOL0     H39426   0.674   4.151   6.453 -0.3205 -2.2115 -1.5007
  299MOL0     H39427   0.796   4.263   6.383  0.3016 -0.0258 -0.2834
  299MOL0     H39428   0.769   3.970   6.348 -1.6174 -0.6600 -3.1615
  299MOL0     H39429   0.869   4.089   6.242 -0.0196  2.1778 -0.5150
  299MOL0     H39430   0.542   4.081   6.001 -1.2702  2.1836  0.9585
  299MOL0     H39431   0.339   3.951   5.956 -1.9221 -0.4767  0.7312
  299MOL0     H39432  -0.087   3.800   6.061  0.6538 -0.9556 -1.6131
  299MOL0     H39433  -0.289   3.682   6.036  1.1162 -0.8024 -1.0841
  299MOL0     H39434  -0.406   3.438   6.053  0.8491  3.7159 -1.5386
  299MOL0     H39435  -0.489   3.589   6.082 -1.4078 -0.4166  0.5548
  299MOL0     H39436  -0.664   3.453   6.222 -1.0304 -1.0773  0.2696
  299MOL0     H39437  -0.578   3.306   6.165  1.3734  0.5164 -0.8481
  299MOL0     H39438  -0.619   3.440   5.930 -0.5175 -0.0267 -2.2677
  299MOL0     H39439  -0.765   3.473   6.030  2.1060  1.5918 -3.1857
  299MOL0     H39440  -0.755   3.260   5.887 -0.6822 -1.4146 -0.1258
  299MOL0     H39441  -0.624   3.201   5.996 -0.3646  0.0901  0.1704
  299MOL0     H39442  -0.763   3.197   6.194 -0.8034  5.5196  0.7403
  299MOL0     H39443  -0.818   3.086   6.068 -0.0051 -0.1284  2.0633
  299MOL0     H39444  -1.001   3.265   6.025  0.5985  2.0448  0.3310
  299MOL0     H39445  -0.938   3.363   6.157  1.5752 -0.4225 -0.1843
  299MOL0     H39446  -1.006   3.074   6.199 -1.5357 -1.4956  3.2910
  299MOL0     H39447  -0.991   3.217   6.317 -1.4917  0.9586 -0.0204
  299MOL0     H39448  -1.223   3.167   6.129  1.4573  1.4129 -1.2755
  299MOL0     H39449  -1.187   3.324   6.207  1.8145  0.9095 -0.2049
  299MOL0     H39450  -0.207   3.478   6.405  0.6126 -1.7586 -1.6669
  299MOL0     H39451   0.023   3.597   6.413  0.0520  1.6887 -0.9515
  299MOL0     H39452   0.347   3.811   6.369 -0.9170  1.2324  1.1337
  299MOL0     H39453   0.558   3.907   6.397 -0.3952  1.1921 -0.6791
  299MOL0     H39454   2.223   4.815   5.818 -0.5143  1.2066  0.8576
  299MOL0     H39455   2.466   4.773   5.857  1.3574  1.5467  1.2691
  299MOL0     H39456   2.765   4.491   6.298  0.3831  0.8880  1.8769
  299MOL0     H39457   3.023   4.422   6.278  0.7440 -0.2253 -0.7062
  299MOL0     H39458   3.299   4.686   6.059 -0.4757 -1.1375  1.2778
  299MOL0     H39459   3.226   4.575   5.937  1.8226  2.8249 -0.9502
  299MOL0     H39460   3.476   4.513   6.122  0.1105 -2.0590  0.1262
  299MOL0     H39461   3.399   4.400   6.007  0.2028  0.1977 -0.7107
  299MOL0     H39462   3.512   4.671   5.925 -0.9056 -0.4653 -1.1601
  299MOL0     H39463   3.465   4.538   5.826 -2.0782  1.7901  0.7520
  299MOL0     H39464   3.702   4.551   6.018 -0.8768 -1.6475  0.2669
  299MOL0     H39465   3.630   4.402   5.951 -0.1869  0.3177  0.2454
  299MOL0     H39466   3.797   4.533   5.595 -1.6320 -2.0508 -0.3526
  299MOL0     H39467   3.085   4.755   6.029 -0.4141 -0.4672 -0.7833
  299MOL0     H39468   2.841   4.806   6.021 -2.4001 -0.6432 -0.6466
  300MOL0     O39469   1.591   6.623   0.524  0.4214  0.5715  0.0507
  300MOL0     C39470   1.653   6.586   0.425 -0.9080  0.0288  0.4583
  300MOL0     O39471   1.631   6.628   0.294 -0.1548 -0.0296  0.7855
  300MOL0     C39472   1.538   6.733   0.287  0.1295  0.2131  0.0146
  300MOL0     C39473   1.410   6.707   0.242  0.4566 -1.0582  0.5792
  300MOL0     C39474   1.321   6.814   0.228 -0.0478 -0.1846 -0.0470
  300MOL0     C39475   1.371   6.945   0.224 -0.3600  0.1230  1.3469
  300MOL0     O39476   1.312   7.063   0.185 -0.7294  0.3204  0.6711
  300MOL0     C39477   1.174   7.064   0.215  0.0645 -0.4220  0.6292
  300MOL0     C39478   1.118   7.205   0.190 -0.2822  0.1606 -0.9018
  300MOL0     C39479   0.978   7.208   0.130 -0.3223 -0.4773  0.0253
  300MOL0     C39480   0.904   7.343   0.125  0.1768 -0.3926  0.3862
  300MOL0     C39481   0.763   7.334   0.075  0.1840 -0.9535  0.4480
  300MOL0     C39482   0.656   7.267   0.171 -0.7168 -0.7469  0.5226
  300MOL0     C39483   0.513   7.294   0.127  0.3474  0.1268 -1.2296
  300MOL0     C39484   0.410   7.249   0.234 -0.3620  0.5410 -0.0136
  300MOL0     N39485   0.273   7.277   0.197 -0.6847  0.2773 -0.0785
  300MOL0     C39486   0.178   7.187   0.165 -0.7805 -0.3878 -0.0457
  300MOL0     C39487   0.060   7.248   0.193  0.2757  1.3910  0.8036
  300MOL0     C39488  -0.088   7.190   0.175  0.0988 -0.2843  0.0878
  300MOL0     C39489  -0.204   7.288   0.200 -0.2392 -0.0322 -0.7128
  300MOL0     C39490  -0.335   7.221   0.210  1.2933 -0.2909 -0.3233
  300MOL0     C39491  -0.450   7.292   0.272 -0.0542  0.4948  0.6141
  300MOL0     O39492  -0.556   7.193   0.287 -1.0837  0.4267  0.2080
  300MOL0     C39493  -0.688   7.233   0.260 -0.4091  0.8997  0.0500
  300MOL0     C39494  -0.780   7.135   0.230  0.2241  0.3839  0.4191
  300MOL0     C39495  -0.905   7.157   0.179  0.1611 -0.0060 -0.2393
  300MOL0     C39496  -0.949   7.293   0.156 -0.3309  0.8658 -0.0744
  300MOL0     C39497  -1.089   7.313   0.126 -0.8475 -0.0503  0.4627
  300MOL0     O39498  -1.166   7.197   0.141  0.0013 -1.2311 -0.1933
  300MOL0     C39499  -1.297   7.208   0.114  1.0237  0.1510 -0.5126
  300MOL0     C39500  -1.386   7.178   0.214  0.3436 -0.4306 -0.2849
  300MOL0     C39501  -1.525   7.196   0.206 -0.3126 -0.1850 -0.0602
  300MOL0     C39502  -1.580   7.231   0.088  0.2287 -0.1056  0.2526
  300MOL0     O39503  -1.716   7.226   0.090  0.3740  0.9072  0.4276
  300MOL0     C39504  -1.774   7.191  -0.040  0.2115 -0.0421 -0.3545
  300MOL0     C39505  -1.921   7.166  -0.033  0.6129  0.5475 -0.3190
  300MOL0     C39506  -1.985   7.170  -0.166 -0.4055 -0.3202 -0.1672
  300MOL0     C39507  -2.113   7.082  -0.161  0.7238 -0.1112  0.1190
  300MOL0     C39508  -2.188   7.068  -0.296 -0.0009  0.9247 -0.0118
  300MOL0     C39509  -2.266   7.190  -0.355 -0.8857 -0.2991 -0.3056
  300MOL0     C39510  -2.400   7.199  -0.281 -0.7871 -0.0702  0.8352
  300MOL0     C39511  -2.453   7.342  -0.323  0.9886 -0.1184 -0.8852
  300MOL0    Cl39512  -2.629   7.345  -0.267  0.3487 -0.4461 -0.0383
  300MOL0     C39513  -1.496   7.250  -0.024 -1.2445 -0.5882 -0.2549
  300MOL0     C39514  -1.351   7.250  -0.012  0.3585 -1.1989 -0.2364
  300MOL0     O39515  -1.120   7.422   0.080  0.2516  0.1607 -0.2365
  300MOL0     C39516  -0.859   7.398   0.188  0.4449  0.3399 -0.0027
  300MOL0     C39517  -0.729   7.366   0.229 -0.5962 -0.3404  0.6928
  300MOL0     N39518   0.081   7.376   0.232  0.2719  0.3333  0.4824
  300MOL0     N39519   0.209   7.397   0.228  0.3674  0.2381  0.0612
  300MOL0     C39520   1.506   6.971   0.261  0.0010 -0.2762  0.6658
  300MOL0     C39521   1.582   6.866   0.312  0.2301  1.0774  0.2929
  300MOL0     C39522   1.759   6.494   0.451 -0.3860 -0.4556  0.1898
  300MOL0     C39523   1.852   6.455   0.359  0.9789  0.1584  0.7619
  300MOL0     C39524   1.963   6.371   0.382  0.6480  0.0270  1.0565
  300MOL0     C39525   1.973   6.316   0.508 -0.3467  0.6233 -0.1053
  300MOL0     O39526   2.091   6.253   0.532 -0.0430  0.6152 -1.0486
  300MOL0     C39527   2.147   6.282   0.666 -0.7821 -0.2062  0.2807
  300MOL0     C39528   2.285   6.241   0.661  0.0960  0.5320  0.3834
  300MOL0     C39529   2.307   6.093   0.628 -0.8919  0.5997 -0.3571
  300MOL0     C39530   2.447   6.040   0.648 -0.5584  0.5916 -0.8876
  300MOL0     C39531   2.490   6.038   0.788 -0.3696 -0.6507  0.5920
  300MOL0     C39532   2.536   6.040   0.900 -0.9072  1.1183  0.0550
  300MOL0     C39533   1.873   6.333   0.608  0.2936  0.2187 -0.1043
  300MOL0     C39534   1.772   6.428   0.581 -0.2866 -0.7977  0.2291
  300MOL0     H39535   1.374   6.605   0.235 -0.0867 -1.0570  2.6169
  300MOL0     H39536   1.225   6.776   0.195  0.8658 -0.5477 -2.5303
  300MOL0     H39537   1.159   7.025   0.316 -0.5180 -0.2333  0.6161
  300MOL0     H39538   1.124   7.001   0.141  0.1072 -2.0930  1.9618
  300MOL0     H39539   1.180   7.258   0.117 -0.5255 -1.5271 -2.4172
  300MOL0     H39540   1.108   7.256   0.286 -2.2842 -1.9228  0.0946
  300MOL0     H39541   0.916   7.142   0.191  0.6658  0.1060  1.7423
  300MOL0     H39542   0.982   7.159   0.033 -3.4673 -0.0756 -0.4091
  300MOL0     H39543   0.898   7.385   0.226  1.6675 -0.7281  0.6381
  300MOL0     H39544   0.963   7.420   0.076  0.1462 -0.5114  0.1611
  300MOL0     H39545   0.760   7.278  -0.019 -1.7657 -1.5219  0.8096
  300MOL0     H39546   0.727   7.436   0.057  0.4405 -0.8955  0.2560
  300MOL0     H39547   0.659   7.319   0.267 -1.3917  1.3119 -0.4953
  300MOL0     H39548   0.689   7.164   0.186  3.1488 -0.0154 -1.4135
  300MOL0     H39549   0.492   7.401   0.113 -0.0490 -0.0371 -1.9096
  300MOL0     H39550   0.494   7.243   0.032 -1.3337  0.3455 -1.0449
  300MOL0     H39551   0.429   7.311   0.322 -2.1325  2.2086 -0.7228
  300MOL0     H39552   0.431   7.145   0.258 -1.6657  0.0588 -0.8631
  300MOL0     H39553   0.198   7.084   0.137  1.9180 -0.3380  1.3559
  300MOL0     H39554  -0.101   7.106   0.243  3.7255 -1.1645 -0.0766
  300MOL0     H39555  -0.108   7.156   0.073 -0.2327  2.1133 -0.7010
  300MOL0     H39556  -0.194   7.362   0.120  1.2143 -2.0425 -2.5106
  300MOL0     H39557  -0.188   7.337   0.296  2.4216  2.5643 -2.3185
  300MOL0     H39558  -0.367   7.215   0.105  3.0048  0.0958 -0.9081
  300MOL0     H39559  -0.332   7.121   0.254  0.3677  0.2022  0.9081
  300MOL0     H39560  -0.477   7.379   0.210  0.8344  0.6141  0.3921
  300MOL0     H39561  -0.428   7.334   0.371  0.6775  0.3773  0.5030
  300MOL0     H39562  -0.759   7.031   0.254 -1.7478  0.1431  1.3000
  300MOL0     H39563  -0.970   7.076   0.151  0.6385  0.6904 -3.8935
  300MOL0     H39564  -1.336   7.156   0.308  1.9709  1.7807 -0.5588
  300MOL0     H39565  -1.600   7.182   0.283  0.1998 -3.3311 -0.0211
  300MOL0     H39566  -1.724   7.104  -0.084  0.1243 -0.6304  0.6665
  300MOL0     H39567  -1.749   7.282  -0.095  3.3813 -0.3118  0.4399
  300MOL0     H39568  -1.976   7.227   0.040  0.5601  0.7247 -0.5062
  300MOL0     H39569  -1.929   7.061  -0.005 -2.7585  1.0943  1.4415
  300MOL0     H39570  -1.918   7.120  -0.236 -0.5203  1.6199 -1.7385
  300MOL0     H39571  -2.008   7.269  -0.204 -1.3900 -0.3961  0.1986
  300MOL0     H39572  -2.088   6.981  -0.127 -0.5567 -0.0401  1.3831
  300MOL0     H39573  -2.178   7.114  -0.080  1.6599 -0.4346  1.0286
  300MOL0     H39574  -2.260   6.987  -0.281  0.4659  0.3594 -0.7792
  300MOL0     H39575  -2.110   7.040  -0.366  0.8406  0.9796  0.8876
  300MOL0     H39576  -2.289   7.176  -0.461 -0.0735  0.4155 -0.5882
  300MOL0     H39577  -2.209   7.283  -0.344 -2.2145  0.5691 -0.4802
  300MOL0     H39578  -2.451   7.115  -0.328  0.9497  0.0058 -1.3234
  300MOL0     H39579  -2.403   7.195  -0.172  4.1735 -1.0452  1.1481
  300MOL0     H39580  -2.428   7.365  -0.427  2.7586 -2.2375 -0.9996
  300MOL0     H39581  -2.390   7.418  -0.276  0.6160  1.1515 -2.3744
  300MOL0     H39582  -1.542   7.264  -0.121  0.1748 -1.2245 -1.0458
  300MOL0     H39583  -1.290   7.285  -0.094 -0.7490 -0.0670 -0.6112
  300MOL0     H39584  -0.895   7.500   0.191  0.1409  0.2565  3.5599
  300MOL0     H39585  -0.666   7.451   0.252 -0.1331 -1.3823  3.8109
  300MOL0     H39586   1.540   7.072   0.281 -0.5116 -0.0261  0.2857
  300MOL0     H39587   1.682   6.881   0.351  0.9252 -1.9765  0.0062
  300MOL0     H39588   1.836   6.490   0.258  1.4607 -0.5442  0.4348
  300MOL0     H39589   2.030   6.344   0.301 -3.9077 -1.3466 -2.7199
  300MOL0     H39590   2.101   6.231   0.750 -0.2240 -1.7441 -0.3093
  300MOL0     H39591   2.165   6.389   0.681  0.2750 -0.1641 -1.0218
  300MOL0     H39592   2.340   6.318   0.607  0.7731  0.1505  0.5247
  300MOL0     H39593   2.311   6.247   0.767 -2.5310 -0.4792  1.1667
  300MOL0     H39594   2.286   6.076   0.522 -1.2578 -1.1579 -0.0293
  300MOL0     H39595   2.239   6.034   0.689 -0.9654 -2.5283 -3.2059
  300MOL0     H39596   2.450   5.938   0.609 -0.5117  1.0621 -2.1911
  300MOL0     H39597   2.513   6.101   0.585  0.4803  1.1925  0.7267
  300MOL0     H39598   2.579   6.018   0.995 -0.5786  1.2956 -0.0494
  300MOL0     H39599   1.889   6.292   0.707 -0.7499 -1.4442 -0.5881
  300MOL0     H39600   1.706   6.449   0.664  0.6692 -0.6608  0.9794
  301MOL0     O39601   9.591   9.265   4.542  0.8866 -0.4754  0.0308
  301MOL0     C39602   9.578   9.322   4.650 -1.1408 -0.2359 -0.0708
  301MOL0     O39603   9.462   9.382   4.689  0.2876  0.0634 -0.4349
  301MOL0     C39604   9.344   9.366   4.615  0.6236  0.7404  0.2982
  301MOL0     C39605   9.299   9.248   4.553 -0.0802 -0.8893  0.4679
  301MOL0     C39606   9.185   9.235   4.471  0.3542  0.5853 -0.7895
  301MOL0     C39607   9.095   9.344   4.465 -0.0854  0.7105 -0.6760
  301MOL0     O39608   8.977   9.343   4.408  0.5508  0.6333  0.3343
  301MOL0     C39609   8.948   9.298   4.272 -0.0153  0.0851  0.1404
  301MOL0     C39610   8.801   9.335   4.238 -0.7944 -0.1787 -0.3789
  301MOL0     C39611   8.778   9.305   4.096 -0.4852 -0.2339  0.1571
  301MOL0     C39612   8.627   9.307   4.060  0.1827  0.1941 -0.3030
  301MOL0     C39613   8.595   9.251   3.917 -0.6778 -0.1613 -0.8205
  301MOL0     C39614   8.452   9.239   3.889  0.1841 -0.7798 -0.1122
  301MOL0     C39615   8.423   9.167   3.756 -0.0906 -0.4439  0.5485
  301MOL0     C39616   8.462   9.017   3.722 -0.1612 -0.0585 -0.4057
  301MOL0     N39617   8.397   8.976   3.595 -0.0531  0.3018 -0.2620
  301MOL0     C39618   8.288   8.893   3.595 -0.2257 -0.0415 -0.2669
  301MOL0     C39619   8.244   8.890   3.463 -0.4224  0.1387 -0.8403
  301MOL0     C39620   8.130   8.819   3.414  0.1530  0.0508  0.5797
  301MOL0     C39621   8.020   8.925   3.414 -0.1649  0.1929  0.2571
  301MOL0     C39622   7.900   8.860   3.353  0.2305 -0.2097  0.3685
  301MOL0     C39623   7.787   8.968   3.309  0.8957 -0.1621  0.2830
  301MOL0     O39624   7.726   9.032   3.428 -0.4479  0.2791  0.4752
  301MOL0     C39625   7.616   9.107   3.407 -0.3598  0.4720 -0.7147
  301MOL0     C39626   7.528   9.110   3.518 -0.0666 -0.1225  0.1486
  301MOL0     C39627   7.406   9.182   3.515 -0.0581 -0.3387  0.4716
  301MOL0     C39628   7.370   9.261   3.403  0.6878  0.1990 -0.0767
  301MOL0     C39629   7.236   9.339   3.402  0.1100  0.5429 -0.4646
  301MOL0     O39630   7.205   9.427   3.309  1.1051 -0.5297 -0.5539
  301MOL0     C39631   7.088   9.495   3.297  0.0202  0.3123  0.2061
  301MOL0     C39632   6.953   9.440   3.319 -0.2892  0.4091  0.0542
  301MOL0     C39633   6.842   9.526   3.312  0.8459  0.4779  0.1740
  301MOL0     C39634   6.849   9.659   3.269 -0.3936  0.4342  0.2768
  301MOL0     O39635   6.730   9.722   3.256  0.0776  0.9894 -0.1632
  301MOL0     C39636   6.748   9.860   3.242 -0.2944 -0.5948  0.6628
  301MOL0     C39637   6.623   9.948   3.254  0.7357  0.0455  0.0198
  301MOL0     C39638   6.516   9.936   3.144 -0.4179  0.2977  0.1842
  301MOL0     C39639   6.379   9.997   3.173  0.5499 -0.0611 -0.4892
  301MOL0     C39640   6.391  10.147   3.215 -0.2842 -0.3155  0.1336
  301MOL0     C39641   6.247  10.194   3.233  0.0082  0.7900 -1.1516
  301MOL0     C39642   6.249  10.318   3.322  1.0224 -0.3505  0.0335
  301MOL0     C39643   6.118  10.395   3.323  0.1095  0.5279 -0.1252
  301MOL0    Cl39644   5.980  10.283   3.361 -0.0860  0.3198 -0.1998
  301MOL0     C39645   6.977   9.705   3.251 -0.7087  0.3056  0.1168
  301MOL0     C39646   7.094   9.628   3.279  0.1690  0.2507 -0.5192
  301MOL0     O39647   7.163   9.315   3.499  0.6605 -1.0813  0.1462
  301MOL0     C39648   7.448   9.258   3.288 -0.1233 -0.1859  0.2518
  301MOL0     C39649   7.572   9.178   3.288  0.2853  0.1867  0.3242
  301MOL0     N39650   8.330   8.965   3.388  0.3991  0.6298 -0.7610
  301MOL0     N39651   8.415   9.018   3.466 -0.3666  0.1423 -0.6869
  301MOL0     C39652   9.140   9.469   4.524  0.3429 -0.5150  0.7610
  301MOL0     C39653   9.266   9.477   4.595  0.1891  0.4778  0.1412
  301MOL0     C39654   9.702   9.347   4.723  0.7200  0.1645  0.4237
  301MOL0     C39655   9.707   9.424   4.840 -0.2900 -0.0354 -0.4906
  301MOL0     C39656   9.831   9.453   4.892  0.3146  0.1033 -0.3408
  301MOL0     C39657   9.951   9.401   4.844 -0.1213  0.2938 -0.0038
  301MOL0     O39658  10.072   9.420   4.906  0.5251 -0.3282  0.0753
  301MOL0     C39659  10.089   9.516   5.011 -0.0960 -0.8673 -1.3060
  301MOL0     C39660  10.230   9.546   5.044 -0.4990  0.4159 -1.0626
  301MOL0     C39661  10.246   9.694   5.090 -0.2488  0.3313  0.2828
  301MOL0     C39662  10.392   9.736   5.130 -0.0005 -0.5651 -0.1595
  301MOL0     C39663  10.428   9.645   5.247  0.6086 -0.1167  0.1166
  301MOL0     C39664  10.437   9.576   5.349 -0.2686  0.3225  0.4849
  301MOL0     C39665   9.940   9.320   4.731  0.0817  1.1080  0.8355
  301MOL0     C39666   9.821   9.303   4.659  0.3906  0.5598 -1.2931
  301MOL0     H39667   9.356   9.156   4.565  0.7763 -0.5751 -0.8563
  301MOL0     H39668   9.165   9.132   4.442  1.9762  0.4633 -1.5661
  301MOL0     H39669   8.946   9.191   4.248 -0.6107  0.2489 -0.5749
  301MOL0     H39670   9.011   9.340   4.194 -3.4539  0.0633 -2.9275
  301MOL0     H39671   8.775   9.439   4.260 -0.4101 -0.2506  0.4365
  301MOL0     H39672   8.737   9.280   4.308 -0.3887  1.2207  1.1410
  301MOL0     H39673   8.817   9.208   4.065  0.7597 -0.8231  3.1795
  301MOL0     H39674   8.842   9.364   4.030  0.1073 -0.4735  0.5061
  301MOL0     H39675   8.572   9.248   4.134  0.5089  0.3493  0.0730
  301MOL0     H39676   8.599   9.413   4.057 -0.6245 -0.0353 -1.7328
  301MOL0     H39677   8.633   9.148   3.916 -0.1774 -0.0424  1.1326
  301MOL0     H39678   8.649   9.310   3.843 -1.2043  0.9928 -0.3092
  301MOL0     H39679   8.409   9.339   3.879  0.5319 -0.6580 -0.4189
  301MOL0     H39680   8.404   9.187   3.973  0.0561  0.8893  0.8840
  301MOL0     H39681   8.316   9.178   3.737 -0.0370  0.4472  0.7141
  301MOL0     H39682   8.478   9.224   3.680 -2.4211 -0.1344 -1.0142
  301MOL0     H39683   8.432   8.954   3.806  1.5256 -0.6504 -0.2074
  301MOL0     H39684   8.571   9.002   3.718 -0.1565 -0.5024  0.9253
  301MOL0     H39685   8.255   8.846   3.687 -2.1233  1.5348 -0.1030
  301MOL0     H39686   8.109   8.745   3.492 -0.1062  0.1585  0.6135
  301MOL0     H39687   8.155   8.775   3.317 -0.1189  1.0924  0.0258
  301MOL0     H39688   8.046   9.000   3.339 -0.8301  1.7860  1.5659
  301MOL0     H39689   8.005   8.983   3.505 -0.1750  0.7089 -0.0644
  301MOL0     H39690   7.937   8.810   3.262 -1.9666 -2.4797  0.6080
  301MOL0     H39691   7.876   8.791   3.435  4.9877 -1.1758  1.2595
  301MOL0     H39692   7.699   8.914   3.273  0.6130  0.9372 -0.7310
  301MOL0     H39693   7.817   9.049   3.242  0.1803 -2.7971 -3.5444
  301MOL0     H39694   7.558   9.044   3.599 -0.9055 -0.0103  0.5640
  301MOL0     H39695   7.337   9.175   3.598  0.0530  1.0137  0.6916
  301MOL0     H39696   6.939   9.339   3.357  0.4479  0.4281  0.4085
  301MOL0     H39697   6.747   9.479   3.335  1.5972 -1.2206 -0.0317
  301MOL0     H39698   6.796   9.881   3.146 -0.9779  1.1479  0.6586
  301MOL0     H39699   6.812   9.893   3.324  1.1555 -4.7236  1.4023
  301MOL0     H39700   6.651  10.053   3.262  0.2182  0.3475 -1.8239
  301MOL0     H39701   6.567   9.907   3.340 -3.1851 -0.9755 -2.7308
  301MOL0     H39702   6.507   9.828   3.128  0.3223  0.1027  1.0294
  301MOL0     H39703   6.563   9.980   3.055 -0.3591  0.9725  0.5407
  301MOL0     H39704   6.317   9.986   3.084 -0.0891 -1.7035  0.1163
  301MOL0     H39705   6.333   9.938   3.253  3.1669 -0.8627  0.5415
  301MOL0     H39706   6.423  10.204   3.127 -3.3354  0.7373 -0.4147
  301MOL0     H39707   6.450  10.173   3.303 -1.2832  3.8220 -0.2249
  301MOL0     H39708   6.184  10.120   3.283  1.4528 -0.9881 -1.8646
  301MOL0     H39709   6.207  10.223   3.136 -1.8844  1.6703 -0.1621
  301MOL0     H39710   6.258  10.285   3.426 -0.1241  1.3306  0.7017
  301MOL0     H39711   6.331  10.387   3.300  2.3269 -1.2390  1.8491
  301MOL0     H39712   6.096  10.424   3.220 -0.0611 -0.1669 -0.2868
  301MOL0     H39713   6.121  10.486   3.384 -1.2234  0.5814 -0.1307
  301MOL0     H39714   7.001   9.807   3.225 -0.1226  0.5148  1.4075
  301MOL0     H39715   7.188   9.681   3.274  0.4777 -0.2035  0.2318
  301MOL0     H39716   7.414   9.301   3.194 -0.8825 -3.1498 -0.9205
  301MOL0     H39717   7.619   9.157   3.193 -1.3525 -4.5421  0.2712
  301MOL0     H39718   9.082   9.560   4.532  0.7081 -0.3022  0.9922
  301MOL0     H39719   9.311   9.570   4.626 -0.0513 -0.1403  2.5739
  301MOL0     H39720   9.611   9.457   4.877 -1.2261  0.0974 -2.8619
  301MOL0     H39721   9.828   9.502   4.989 -3.5589 -3.3427  1.6001
  301MOL0     H39722  10.037   9.480   5.099  0.0053  2.1386  0.1241
  301MOL0     H39723  10.042   9.609   4.975 -0.5656 -0.4726  0.2661
  301MOL0     H39724  10.269   9.479   5.121 -0.6498  1.7408  0.1923
  301MOL0     H39725  10.294   9.523   4.958 -0.8488  1.1958 -1.5417
  301MOL0     H39726  10.168   9.735   5.154 -3.0567  0.0497 -2.6722
  301MOL0     H39727  10.228   9.749   4.997 -2.2479 -2.6761 -1.3010
  301MOL0     H39728  10.463   9.721   5.048 -0.7427  0.2076 -0.9694
  301MOL0     H39729  10.382   9.838   5.168 -0.9968 -1.2068  1.4324
  301MOL0     H39730  10.434   9.520   5.440 -0.3008 -0.1439  0.1999
  301MOL0     H39731  10.026   9.267   4.690  1.3149  2.8909  1.0067
  301MOL0     H39732   9.830   9.260   4.559 -0.1408  1.0381 -1.5554
  302MOL0     O39733  10.197   6.405   9.992 -0.7253  0.6196 -0.0544
  302MOL0     C39734  10.251   6.488  10.065  0.3260  0.4502 -0.0621
  302MOL0     O39735  10.198   6.605  10.105  0.1425  0.5764  0.0436
  302MOL0     C39736  10.070   6.638  10.075 -0.0139 -0.5055 -0.1699
  302MOL0     C39737   9.980   6.653  10.182 -0.3020  0.1006 -0.4552
  302MOL0     C39738   9.845   6.698  10.148 -0.2811  0.7635 -0.1602
  302MOL0     C39739   9.795   6.706  10.023  0.2322  0.3697 -0.1872
  302MOL0     O39740   9.671   6.741   9.986 -0.4749 -0.2221  0.6391
  302MOL0     C39741   9.570   6.738  10.084 -0.0960 -1.1190 -0.2977
  302MOL0     C39742   9.433   6.746  10.020 -0.1876  0.0427 -0.2526
  302MOL0     C39743   9.336   6.759  10.136 -0.0751 -0.4753 -0.4498
  302MOL0     C39744   9.190   6.785  10.092  0.7551 -0.1000 -0.2996
  302MOL0     C39745   9.137   6.702   9.971 -0.0301  0.0226 -0.8649
  302MOL0     C39746   8.999   6.749   9.918 -0.3946 -0.4385  0.4485
  302MOL0     C39747   8.889   6.743  10.021  0.2621 -0.6829 -0.5943
  302MOL0     C39748   8.750   6.757   9.958  0.7217  0.0290 -0.0128
  302MOL0     N39749   8.643   6.747  10.063 -0.2087 -0.8810  0.0256
  302MOL0     C39750   8.625   6.641  10.152 -0.6843  0.3371 -0.4248
  302MOL0     C39751   8.537   6.693  10.243 -0.2250  0.8997  0.0503
  302MOL0     C39752   8.484   6.619  10.354  0.0599 -0.1683 -0.3774
  302MOL0     C39753   8.336   6.626  10.358  0.0059  0.0530  0.9521
  302MOL0     C39754   8.290   6.523  10.459  0.2478 -0.3545 -0.5873
  302MOL0     C39755   8.137   6.553  10.470  0.8790 -0.5672 -0.0392
  302MOL0     O39756   8.098   6.505  10.599  0.6067 -0.2314 -0.4019
  302MOL0     C39757   7.959   6.474  10.613 -0.3281 -0.0074 -0.7753
  302MOL0     C39758   7.855   6.532  10.541 -0.9917 -1.6854 -0.3159
  302MOL0     C39759   7.717   6.503  10.558 -0.2495  0.0528 -0.1628
  302MOL0     C39760   7.688   6.419  10.670 -0.5124  0.1428 -0.0932
  302MOL0     C39761   7.546   6.389  10.695 -0.8268  0.4907 -0.7893
  302MOL0     O39762   7.522   6.316  10.805  0.0442  0.3623 -0.0925
  302MOL0     C39763   7.392   6.292  10.852  0.1386 -0.6649  0.8713
  302MOL0     C39764   7.396   6.185  10.939 -0.0796 -0.4663 -0.1955
  302MOL0     C39765   7.280   6.154  11.016 -0.9648 -0.1498  0.6954
  302MOL0     C39766   7.158   6.214  10.997  0.0811  0.3304  0.5129
  302MOL0     O39767   7.041   6.177  11.055 -0.6428 -0.4277  0.0711
  302MOL0     C39768   7.032   6.055  11.123  0.2724  0.3441  0.3200
  302MOL0     C39769   6.902   6.052  11.200 -0.0146 -0.1082 -0.3090
  302MOL0     C39770   6.895   5.928  11.288 -0.2353 -0.0426  0.8053
  302MOL0     C39771   6.764   5.927  11.378 -0.0458  0.7774 -0.6890
  302MOL0     C39772   6.766   5.786  11.448 -0.5456  0.5350  0.2239
  302MOL0     C39773   6.622   5.726  11.492 -0.9326  0.5527  0.3377
  302MOL0     C39774   6.571   5.801  11.607  0.1383  0.0920 -0.5848
  302MOL0     C39775   6.424   5.763  11.637  0.2347 -0.7661  0.4145
  302MOL0    Cl39776   6.388   5.596  11.675  0.0730  0.0987 -0.4023
  302MOL0     C39777   7.147   6.324  10.905 -0.1548  0.6296  0.0201
  302MOL0     C39778   7.267   6.362  10.829 -0.7759 -0.6983  0.3118
  302MOL0     O39779   7.466   6.437  10.618 -0.2819 -0.4969  0.0539
  302MOL0     C39780   7.790   6.377  10.753 -0.4590  0.5995 -0.6349
  302MOL0     C39781   7.921   6.394  10.725 -0.2801 -0.4788  0.8245
  302MOL0     N39782   8.504   6.821  10.210  0.1251  0.6423  0.0393
  302MOL0     N39783   8.565   6.855  10.098  0.1976 -0.0671 -0.0074
  302MOL0     C39784   9.892   6.696   9.924 -0.1789  0.0011 -0.2595
  302MOL0     C39785  10.031   6.662   9.946 -0.1573  0.1890 -0.6398
  302MOL0     C39786  10.384   6.467  10.101  0.2677 -0.1120  0.2132
  302MOL0     C39787  10.448   6.354  10.053  0.0349 -0.0957 -0.3577
  302MOL0     C39788  10.577   6.318  10.092  0.8881 -0.1166 -0.1161
  302MOL0     C39789  10.654   6.401  10.183  0.0126 -0.0533 -0.6845
  302MOL0     O39790  10.773   6.361  10.235  0.9173  0.5267 -0.1669
  302MOL0     C39791  10.873   6.303  10.154  0.1124  0.5246  0.5354
  302MOL0     C39792  11.007   6.323  10.224  0.2126 -0.3031  0.2086
  302MOL0     C39793  11.047   6.473  10.211 -0.4962 -0.2883  1.1032
  302MOL0     C39794  11.146   6.503  10.089  0.1625 -0.3089 -0.3708
  302MOL0     C39795  11.198   6.640  10.087 -0.0784 -0.5524  0.5987
  302MOL0     C39796  11.234   6.758  10.076  0.0538  0.5117 -0.2515
  302MOL0     C39797  10.597   6.521  10.226  0.7178  0.4873 -0.7143
  302MOL0     C39798  10.461   6.547  10.187 -0.1183  1.0977  0.3096
  302MOL0     H39799  10.016   6.655  10.285 -0.9313  1.2585 -0.2517
  302MOL0     H39800   9.784   6.726  10.233  2.5920  0.0258  2.3516
  302MOL0     H39801   9.567   6.831  10.141  0.0949 -2.2555  1.6557
  302MOL0     H39802   9.569   6.649  10.147 -3.7853 -0.1774  1.1958
  302MOL0     H39803   9.421   6.650   9.969  0.8609 -1.7926  2.6784
  302MOL0     H39804   9.409   6.817   9.941 -1.1818 -0.5914 -0.5424
  302MOL0     H39805   9.371   6.844  10.195  0.1399 -1.0043  0.1925
  302MOL0     H39806   9.342   6.679  10.210  0.7140  1.4918  1.7464
  302MOL0     H39807   9.120   6.744  10.166 -0.0926 -0.9983 -1.5705
  302MOL0     H39808   9.174   6.893  10.082 -0.9708  0.1520  3.4263
  302MOL0     H39809   9.135   6.600  10.011 -1.0280  1.4334  3.1649
  302MOL0     H39810   9.219   6.706   9.899  0.5658  0.3839 -0.1780
  302MOL0     H39811   8.970   6.677   9.841 -1.3930 -3.0815  3.0869
  302MOL0     H39812   9.005   6.842   9.862 -0.0701 -0.7528 -0.0488
  302MOL0     H39813   8.890   6.648  10.076  0.2357 -1.5360 -2.0129
  302MOL0     H39814   8.903   6.827  10.089 -0.3734  0.1081 -1.4294
  302MOL0     H39815   8.737   6.686   9.876 -0.7796  1.2959 -0.9357
  302MOL0     H39816   8.740   6.846   9.894  2.7807 -0.5587 -1.2626
  302MOL0     H39817   8.671   6.543  10.153 -0.4573  0.4331 -1.2262
  302MOL0     H39818   8.533   6.674  10.434 -0.2992 -2.4190  1.4933
  302MOL0     H39819   8.523   6.516  10.349 -2.5442 -1.2277 -0.3838
  302MOL0     H39820   8.291   6.609  10.260 -0.6775  0.5320  1.1769
  302MOL0     H39821   8.302   6.726  10.384 -2.6672 -0.3962 -0.4535
  302MOL0     H39822   8.320   6.428  10.415  3.3993 -1.6195  3.6651
  302MOL0     H39823   8.342   6.544  10.553  1.3827 -0.8012 -1.0982
  302MOL0     H39824   8.090   6.511  10.380  0.9807  1.2816 -1.0037
  302MOL0     H39825   8.120   6.660  10.462 -0.0949 -0.7222 -0.2428
  302MOL0     H39826   7.887   6.600  10.463  1.5074 -1.5759  0.6882
  302MOL0     H39827   7.645   6.559  10.501 -1.5468  1.3781  2.5649
  302MOL0     H39828   7.492   6.136  10.956 -1.4605 -2.5257  2.3404
  302MOL0     H39829   7.300   6.067  11.078 -0.6067 -0.5627  0.0020
  302MOL0     H39830   7.115   6.042  11.193 -1.0833 -0.5328  1.8340
  302MOL0     H39831   7.028   5.971  11.052 -2.7566  1.0754 -0.5214
  302MOL0     H39832   6.816   6.051  11.134  1.1216 -3.1185 -1.9215
  302MOL0     H39833   6.888   6.140  11.264 -1.6105  0.2061 -1.0572
  302MOL0     H39834   6.979   5.924  11.358 -3.0727 -0.1277  4.5141
  302MOL0     H39835   6.902   5.838  11.226  0.1865 -0.2107  1.0883
  302MOL0     H39836   6.765   6.006  11.454 -1.1041 -0.8327  1.0600
  302MOL0     H39837   6.677   5.944  11.314  0.8214  0.3204 -2.0304
  302MOL0     H39838   6.837   5.790  11.532 -1.0439  0.2011  0.6674
  302MOL0     H39839   6.812   5.715  11.379  0.1002  0.0417  1.1413
  302MOL0     H39840   6.630   5.620  11.519  0.5826  0.6797  0.4646
  302MOL0     H39841   6.549   5.726  11.410 -1.0744  2.3000  0.4374
  302MOL0     H39842   6.635   5.785  11.695 -2.2367 -1.1863  1.0437
  302MOL0     H39843   6.561   5.908  11.586 -1.1499  0.0529 -0.2560
  302MOL0     H39844   6.366   5.780  11.546  1.0205  2.4772  0.3950
  302MOL0     H39845   6.390   5.831  11.716 -0.1182 -0.7650  0.2611
  302MOL0     H39846   7.044   6.357  10.891 -0.3982 -0.6643 -1.6291
  302MOL0     H39847   7.256   6.444  10.758  0.7610 -1.0534 -0.3877
  302MOL0     H39848   7.774   6.316  10.841 -1.5431 -0.1989 -1.3550
  302MOL0     H39849   8.000   6.351  10.786 -0.4793 -2.3911 -0.1927
  302MOL0     H39850   9.868   6.704   9.818  0.7475  1.5870 -0.3839
  302MOL0     H39851  10.092   6.628   9.864  0.4981 -2.4939  0.8513
  302MOL0     H39852  10.409   6.291   9.974 -0.3814 -1.5091  0.9345
  302MOL0     H39853  10.619   6.228  10.048  0.6443 -1.6370  2.5671
  302MOL0     H39854  10.874   6.350  10.056  1.3482  1.1478  0.8311
  302MOL0     H39855  10.848   6.197  10.153 -0.6780  0.6661  1.9067
  302MOL0     H39856  10.997   6.301  10.331  1.4119  1.9332  0.8563
  302MOL0     H39857  11.090   6.265  10.184  1.1341  4.0027 -5.4224
  302MOL0     H39858  11.106   6.507  10.297  1.3506 -1.3397  0.3076
  302MOL0     H39859  10.959   6.536  10.193  1.4118  1.6921 -2.3253
  302MOL0     H39860  11.242   6.451  10.092  0.5317  0.4265  1.4125
  302MOL0     H39861  11.092   6.478   9.997  0.6930  1.0255 -1.0613
  302MOL0     H39862  11.264   6.859  10.056 -2.0115  1.6516  1.7702
  302MOL0     H39863  10.653   6.589  10.290 -0.7386 -0.4759  1.7084
  302MOL0     H39864  10.427   6.638  10.236 -0.5510  0.3604  1.4210
  303MOL0     O39865   8.324   5.827   5.345 -0.1293  0.1961  0.9900
  303MOL0     C39866   8.408   5.772   5.282  0.5759  0.4077  0.8982
  303MOL0     O39867   8.388   5.671   5.195  0.8848  0.0228 -0.4270
  303MOL0     C39868   8.263   5.610   5.184  1.4225 -0.3406 -0.2350
  303MOL0     C39869   8.151   5.679   5.130 -0.4420  1.1550  0.4101
  303MOL0     C39870   8.043   5.608   5.084  0.3208 -0.2146 -0.5241
  303MOL0     C39871   8.032   5.472   5.108  0.1324  0.6892 -0.2849
  303MOL0     O39872   7.920   5.405   5.078 -0.3111 -0.4245 -0.2701
  303MOL0     C39873   7.836   5.448   4.971 -0.3465  0.6747  0.3079
  303MOL0     C39874   7.719   5.340   4.957  1.3489  0.0968  0.1029
  303MOL0     C39875   7.612   5.374   4.851 -0.2205 -0.0380 -0.2962
  303MOL0     C39876   7.501   5.276   4.853 -0.6454  0.5752 -0.0054
  303MOL0     C39877   7.386   5.333   4.763  0.9125 -0.2753  0.5571
  303MOL0     C39878   7.264   5.243   4.775 -0.0874 -0.1411  0.1502
  303MOL0     C39879   7.150   5.268   4.669 -0.3844  0.2534 -0.1556
  303MOL0     C39880   7.197   5.210   4.532  0.5791  0.1968  0.2411
  303MOL0     N39881   7.094   5.231   4.424 -0.4467 -0.3219 -0.2201
  303MOL0     C39882   6.962   5.195   4.421 -0.2861 -0.8270 -0.8160
  303MOL0     C39883   6.907   5.244   4.304  0.1836  0.5217  0.2809
  303MOL0     C39884   6.774   5.225   4.247  0.2007 -0.0248  0.3568
  303MOL0     C39885   6.665   5.301   4.336  0.4020 -0.0246  1.5450
  303MOL0     C39886   6.523   5.267   4.280 -0.2430  0.2329  0.3117
  303MOL0     C39887   6.422   5.357   4.348  0.0525 -0.4695 -0.7399
  303MOL0     O39888   6.425   5.336   4.488  0.0075  0.1913 -0.0743
  303MOL0     C39889   6.300   5.321   4.539 -0.4610 -0.4715 -0.0472
  303MOL0     C39890   6.193   5.403   4.499  0.6854  0.8723  0.7318
  303MOL0     C39891   6.065   5.387   4.556  0.3832 -0.8523  0.4032
  303MOL0     C39892   6.036   5.289   4.649  0.2319 -0.4994  0.5812
  303MOL0     C39893   5.898   5.257   4.692 -0.2761 -0.2547  0.2540
  303MOL0     O39894   5.799   5.348   4.652 -0.0877  0.3132  0.0538
  303MOL0     C39895   5.667   5.318   4.661 -0.2597 -0.8578  0.1233
  303MOL0     C39896   5.605   5.280   4.780  0.3429  0.8359  0.5926
  303MOL0     C39897   5.465   5.258   4.794 -0.6316  0.9607  1.1107
  303MOL0     C39898   5.385   5.268   4.676  0.3588  0.2884  0.2728
  303MOL0     O39899   5.250   5.254   4.692  0.1343  0.6099 -0.5376
  303MOL0     C39900   5.173   5.374   4.657  0.1702  0.3092 -0.3316
  303MOL0     C39901   5.029   5.365   4.713  0.0455 -0.1584 -0.4178
  303MOL0     C39902   4.948   5.272   4.627  0.1139 -0.7322 -0.6152
  303MOL0     C39903   4.818   5.257   4.699 -0.5523  0.5395  0.4767
  303MOL0     C39904   4.722   5.196   4.595 -0.7127 -0.0895  0.3125
  303MOL0     C39905   4.598   5.132   4.658  0.3996 -0.3320  0.5056
  303MOL0     C39906   4.487   5.090   4.560  0.1568 -0.0927  0.3811
  303MOL0     C39907   4.360   5.035   4.626 -0.2204 -0.3610 -1.1160
  303MOL0    Cl39908   4.252   4.963   4.506  0.3300  0.8069  0.4728
  303MOL0     C39909   5.446   5.307   4.552  0.8834  0.0743  0.0901
  303MOL0     C39910   5.585   5.324   4.549 -0.3977 -0.2959  1.1548
  303MOL0     O39911   5.879   5.143   4.740 -0.3377  0.1931  0.8193
  303MOL0     C39912   6.143   5.218   4.706 -0.5077 -0.2881 -0.1479
  303MOL0     C39913   6.269   5.233   4.653 -0.0746  0.9129  0.5936
  303MOL0     N39914   7.002   5.324   4.248 -0.4990 -0.3825  0.1949
  303MOL0     N39915   7.112   5.323   4.323 -0.4765  0.1917  0.3448
  303MOL0     C39916   8.129   5.410   5.183  0.2694 -0.2614  0.9571
  303MOL0     C39917   8.254   5.470   5.216 -0.5012  0.3523  0.4916
  303MOL0     C39918   8.548   5.818   5.310 -0.7834  0.4403  0.1481
  303MOL0     C39919   8.577   5.933   5.388  0.0001  0.4551  0.0323
  303MOL0     C39920   8.716   5.961   5.423  0.6825 -0.0053 -0.2657
  303MOL0     C39921   8.820   5.899   5.362  0.4340  0.1183 -0.7493
  303MOL0     O39922   8.950   5.917   5.385 -0.9509  0.4295  0.1567
  303MOL0     C39923   8.993   5.996   5.499 -0.5568  0.2251  0.0280
  303MOL0     C39924   9.144   6.014   5.485 -0.7317 -0.4362  0.0463
  303MOL0     C39925   9.209   6.059   5.618 -0.3718  0.1510  0.1626
  303MOL0     C39926   9.342   6.130   5.592  0.2668  0.0502  0.6690
  303MOL0     C39927   9.422   6.152   5.714  0.3869  0.2530 -0.7234
  303MOL0     C39928   9.475   6.186   5.816 -0.7396 -0.7003 -0.0168
  303MOL0     C39929   8.790   5.791   5.286 -0.1694 -0.0960 -0.8082
  303MOL0     C39930   8.660   5.751   5.261 -0.3219 -0.2248 -0.5085
  303MOL0     H39931   8.161   5.783   5.098 -3.7122  0.5116 -3.6979
  303MOL0     H39932   7.969   5.673   5.039  0.5279  0.9774  0.7863
  303MOL0     H39933   7.901   5.451   4.883 -0.0393  2.4982  0.5716
  303MOL0     H39934   7.798   5.549   4.984  1.5031  1.3754  0.5903
  303MOL0     H39935   7.679   5.343   5.058  0.8672  0.9535 -0.1032
  303MOL0     H39936   7.773   5.246   4.939  1.2694  0.1873 -0.6440
  303MOL0     H39937   7.655   5.385   4.751 -0.8414 -2.3964 -0.8799
  303MOL0     H39938   7.577   5.475   4.873  0.2388 -0.4823  3.0079
  303MOL0     H39939   7.545   5.179   4.827 -0.8004  0.2130  1.0261
  303MOL0     H39940   7.482   5.269   4.960  1.6535  1.3414  0.4910
  303MOL0     H39941   7.421   5.343   4.660 -0.2885  1.0806  0.2389
  303MOL0     H39942   7.355   5.433   4.796 -0.6810  0.2387 -2.2038
  303MOL0     H39943   7.222   5.260   4.874  0.2617 -1.2915  0.5119
  303MOL0     H39944   7.297   5.139   4.765  0.4407 -0.1256  1.5920
  303MOL0     H39945   7.067   5.204   4.701  0.4860 -0.0946  1.4970
  303MOL0     H39946   7.110   5.370   4.675 -0.4647  0.2074  0.1041
  303MOL0     H39947   7.225   5.105   4.532  1.9753  0.5483 -0.8218
  303MOL0     H39948   7.286   5.267   4.505 -0.3491  1.4548 -0.2509
  303MOL0     H39949   6.907   5.126   4.485 -0.6743 -0.6371 -0.9390
  303MOL0     H39950   6.751   5.118   4.242  0.9079 -0.1338 -1.2539
  303MOL0     H39951   6.779   5.261   4.144  0.2139  2.8668  1.2798
  303MOL0     H39952   6.678   5.410   4.335 -1.4859  0.2793 -1.6264
  303MOL0     H39953   6.678   5.261   4.437  3.8785 -0.4820  1.0206
  303MOL0     H39954   6.515   5.282   4.172  1.1856  2.2915  0.4429
  303MOL0     H39955   6.497   5.165   4.309 -0.1735 -0.1643 -0.9912
  303MOL0     H39956   6.327   5.338   4.297 -1.4141 -0.7288  1.8978
  303MOL0     H39957   6.444   5.464   4.342  1.2280 -0.6528 -0.1212
  303MOL0     H39958   6.207   5.477   4.421  1.5379 -1.7690 -1.8301
  303MOL0     H39959   5.993   5.455   4.513  2.0339  0.2087 -0.7745
  303MOL0     H39960   5.664   5.286   4.871  0.1321 -1.7944  1.0026
  303MOL0     H39961   5.423   5.225   4.889 -1.3489 -0.2065  0.4075
  303MOL0     H39962   5.179   5.384   4.548  0.8864 -0.0447 -0.3301
  303MOL0     H39963   5.219   5.464   4.697  4.8816 -0.9639 -2.2022
  303MOL0     H39964   4.971   5.457   4.707 -3.1585 -2.0248 -0.3815
  303MOL0     H39965   5.026   5.332   4.817 -0.5462 -2.1108 -1.0087
  303MOL0     H39966   4.999   5.176   4.617  2.1484  0.3544 -1.3144
  303MOL0     H39967   4.933   5.324   4.532 -0.7792  1.2634  0.5521
  303MOL0     H39968   4.831   5.175   4.770 -1.6173 -0.0635  0.0120
  303MOL0     H39969   4.781   5.351   4.742 -0.0163  1.0713 -0.1955
  303MOL0     H39970   4.770   5.115   4.539 -2.7642 -0.2693 -1.2820
  303MOL0     H39971   4.699   5.273   4.521  0.9119 -0.2573 -0.4120
  303MOL0     H39972   4.554   5.209   4.721 -0.7304 -2.1718  2.0781
  303MOL0     H39973   4.622   5.047   4.723  0.6182 -1.3442 -0.8514
  303MOL0     H39974   4.471   5.180   4.500 -1.1458  1.4460  2.8787
  303MOL0     H39975   4.532   5.003   4.511 -1.5185 -1.5987  1.4257
  303MOL0     H39976   4.304   5.110   4.682  0.3253  2.0507 -3.6149
  303MOL0     H39977   4.397   4.960   4.697  1.1492  1.6996  0.4452
  303MOL0     H39978   5.394   5.318   4.457  0.6890 -0.2393  0.1567
  303MOL0     H39979   5.632   5.363   4.459 -0.6422 -3.4834 -0.5041
  303MOL0     H39980   6.128   5.138   4.777 -0.7749 -0.6506 -0.6026
  303MOL0     H39981   6.341   5.175   4.709 -0.8988 -0.4515  0.2627
  303MOL0     H39982   8.108   5.306   5.204  0.6968 -0.4104  0.6705
  303MOL0     H39983   8.326   5.410   5.270 -0.2262  1.6496  1.6259
  303MOL0     H39984   8.492   5.995   5.414 -1.1704 -1.3961  0.8135
  303MOL0     H39985   8.735   6.056   5.471  1.7857  0.1792 -1.0527
  303MOL0     H39986   8.952   5.946   5.587 -4.8741  0.2311 -1.7027
  303MOL0     H39987   8.942   6.093   5.505  0.4554  0.6979  1.2671
  303MOL0     H39988   9.187   5.919   5.451 -0.3862 -0.6754  1.1107
  303MOL0     H39989   9.147   6.081   5.399  0.6250  0.5075  0.7998
  303MOL0     H39990   9.222   5.965   5.674  2.4112 -1.3526 -2.6981
  303MOL0     H39991   9.135   6.124   5.665  1.1142  1.6389  0.5242
  303MOL0     H39992   9.404   6.082   5.516  1.3671  3.4030 -0.6870
  303MOL0     H39993   9.316   6.231   5.561  0.7871  0.7572  2.3959
  303MOL0     H39994   9.507   6.193   5.918 -0.0441  3.8638 -0.3468
  303MOL0     H39995   8.872   5.733   5.245 -0.6712 -0.1153 -1.8202
  303MOL0     H39996   8.646   5.655   5.212  3.0195  0.5505 -3.2791
  304MOL0     O39997   7.335   4.003   3.063 -0.2141  0.4706  0.0742
  304MOL0     C39998   7.397   4.019   2.959 -0.4559  0.7023 -0.4756
  304MOL0     O39999   7.344   4.020   2.833 -0.4470  0.1717 -0.2106
  304MOL0     C40000   7.214   3.969   2.820 -0.2919  0.7655  1.5474
  304MOL0     C40001   7.105   4.028   2.872  1.0927  0.0241 -0.2083
  304MOL0     C40002   6.978   3.973   2.845 -0.3026  0.0896 -0.0822
  304MOL0     C40003   6.958   3.856   2.770  0.7295 -0.4184 -0.0268
  304MOL0     O40004   6.829   3.818   2.741 -0.2657 -0.2670 -0.8551
  304MOL0     C40005   6.802   3.739   2.625  0.3106 -0.3573  0.0797
  304MOL0     C40006   6.667   3.773   2.579  0.2858 -0.5808 -0.1392
  304MOL0     C40007   6.540   3.719   2.648  0.7459 -0.2720 -0.0309
  304MOL0     C40008   6.415   3.798   2.610  0.3236 -0.4990  0.2728
  304MOL0     C40009   6.311   3.780   2.725 -0.1400 -0.2693 -0.1710
  304MOL0     C40010   6.251   3.637   2.740 -0.1497  0.3985  0.3628
  304MOL0     C40011   6.125   3.633   2.824 -0.3539  0.5121 -0.3261
  304MOL0     C40012   6.073   3.495   2.851 -0.2080 -0.0972 -0.9256
  304MOL0     N40013   5.947   3.496   2.921 -0.1951  0.0600  0.3097
  304MOL0     C40014   5.919   3.555   3.045  0.2551 -0.4482 -0.0820
  304MOL0     C40015   5.781   3.559   3.048 -0.4462 -0.2257 -0.9686
  304MOL0     C40016   5.702   3.607   3.171 -0.2734  0.5992  0.4059
  304MOL0     C40017   5.648   3.497   3.262  0.2567 -0.0546 -0.0347
  304MOL0     C40018   5.561   3.552   3.372 -0.4467  0.6008 -0.4123
  304MOL0     C40019   5.422   3.585   3.321  0.2239  0.4473 -0.4436
  304MOL0     O40020   5.356   3.663   3.423  0.6349  0.3851  0.7777
  304MOL0     C40021   5.215   3.667   3.417 -0.1311  0.2658 -0.4157
  304MOL0     C40022   5.163   3.751   3.517  0.4189 -0.4290 -0.6562
  304MOL0     C40023   5.026   3.775   3.506 -0.0456 -0.1218 -0.9776
  304MOL0     C40024   4.948   3.741   3.393 -0.1126  0.1178 -0.5163
  304MOL0     C40025   4.796   3.763   3.394 -0.9664  0.4544 -0.1926
  304MOL0     O40026   4.750   3.832   3.506 -0.2436  0.0585 -0.6116
  304MOL0     C40027   4.615   3.854   3.517 -0.6039  0.9369  0.0236
  304MOL0     C40028   4.565   3.984   3.500 -0.0876  0.4666 -0.9639
  304MOL0     C40029   4.429   4.004   3.520  0.6657 -0.0475 -0.6574
  304MOL0     C40030   4.337   3.902   3.536  0.2417  0.8424  0.6058
  304MOL0     O40031   4.203   3.914   3.574 -0.0757  1.7356  0.0259
  304MOL0     C40032   4.170   4.026   3.651  0.7078 -0.4399  0.0214
  304MOL0     C40033   4.021   4.035   3.675  0.5460  0.5070  0.1809
  304MOL0     C40034   3.977   3.922   3.776  0.8556  0.4023  0.8409
  304MOL0     C40035   3.818   3.925   3.799  0.0681  0.7513 -0.9172
  304MOL0     C40036   3.768   3.892   3.940 -0.3487 -0.0639  0.5672
  304MOL0     C40037   3.639   3.964   3.952 -0.0313  0.5662 -1.1222
  304MOL0     C40038   3.558   3.906   4.070 -0.4477 -0.7808 -0.1436
  304MOL0     C40039   3.438   3.996   4.092 -0.2602 -0.9612  0.4981
  304MOL0    Cl40040   3.485   4.130   4.192  0.0687 -0.0463 -0.2317
  304MOL0     C40041   4.388   3.772   3.536  0.1175 -0.9592 -0.2013
  304MOL0     C40042   4.528   3.752   3.539 -1.1615  0.8356  0.3393
  304MOL0     O40043   4.725   3.729   3.297  0.4520  0.0711 -0.3464
  304MOL0     C40044   5.007   3.658   3.294 -0.5293 -0.1981 -0.2699
  304MOL0     C40045   5.141   3.621   3.309 -0.5308  0.3434 -1.0200
  304MOL0     N40046   5.738   3.500   2.929  0.5858 -0.3856  0.1235
  304MOL0     N40047   5.835   3.463   2.852 -0.4180 -0.5933 -0.5618
  304MOL0     C40048   7.074   3.801   2.717 -0.5738  0.4755  0.3898
  304MOL0     C40049   7.201   3.854   2.743  0.2229  0.6327  0.2823
  304MOL0     C40050   7.539   4.050   2.958 -0.0667 -0.2777  0.5776
  304MOL0     C40051   7.609   4.081   3.074  0.3854  0.3462 -0.7391
  304MOL0     C40052   7.748   4.105   3.078  0.5382 -0.3845  0.5273
  304MOL0     C40053   7.819   4.110   2.958  0.3007 -0.0953  0.0660
  304MOL0     O40054   7.953   4.120   2.961 -0.4863 -0.3433  0.3219
  304MOL0     C40055   8.033   4.172   3.076  0.7275 -0.2524  0.0632
  304MOL0     C40056   8.011   4.323   3.086  0.2117  0.2026  0.1120
  304MOL0     C40057   8.045   4.401   2.955 -0.7066  0.7651  0.1908
  304MOL0     C40058   8.180   4.364   2.890 -0.0009 -0.2329  0.0019
  304MOL0     C40059   8.292   4.416   2.976  0.3972  0.6063 -0.7517
  304MOL0     C40060   8.383   4.441   3.052 -0.4785  0.5125 -0.5169
  304MOL0     C40061   7.744   4.081   2.844 -1.0736  0.9142 -0.1121
  304MOL0     C40062   7.614   4.044   2.841 -0.2514 -0.2094 -0.1793
  304MOL0     H40063   7.110   4.114   2.939 -0.2186  0.2781 -0.3977
  304MOL0     H40064   6.887   4.017   2.884 -2.2903  1.7616 -5.6715
  304MOL0     H40065   6.815   3.632   2.645 -0.0275 -0.1264  1.6591
  304MOL0     H40066   6.871   3.767   2.546 -2.1346  0.0450 -2.0424
  304MOL0     H40067   6.656   3.741   2.475  1.6640 -1.0881 -0.1383
  304MOL0     H40068   6.661   3.883   2.581 -2.6747 -0.5972 -1.7647
  304MOL0     H40069   6.543   3.728   2.757 -1.7010  1.6030 -0.0411
  304MOL0     H40070   6.515   3.616   2.621 -1.4810  0.4516 -0.9255
  304MOL0     H40071   6.433   3.906   2.608  0.0513 -0.4523 -1.6901
  304MOL0     H40072   6.373   3.772   2.513 -0.4208  2.9421 -0.4820
  304MOL0     H40073   6.231   3.851   2.701  0.3841  0.4269  0.1181
  304MOL0     H40074   6.355   3.812   2.819  2.9217 -0.2196 -1.5175
  304MOL0     H40075   6.324   3.563   2.774  0.1301 -0.8420 -2.6528
  304MOL0     H40076   6.216   3.603   2.642 -0.8173  0.7371  0.4823
  304MOL0     H40077   6.144   3.674   2.923  1.5423  2.5544 -1.4342
  304MOL0     H40078   6.044   3.693   2.783  0.3025 -0.3256 -3.1265
  304MOL0     H40079   6.149   3.449   2.914 -0.3691 -1.1880 -1.5070
  304MOL0     H40080   6.054   3.432   2.764  0.3619 -2.3582  0.5075
  304MOL0     H40081   5.985   3.583   3.126  0.5218 -0.1547 -0.3975
  304MOL0     H40082   5.616   3.656   3.125 -0.3884 -3.0315 -3.9396
  304MOL0     H40083   5.755   3.671   3.242 -2.6743  0.9088  2.0389
  304MOL0     H40084   5.731   3.441   3.306  1.5064  0.1432 -2.0013
  304MOL0     H40085   5.585   3.436   3.197 -0.6985  0.4955  0.3354
  304MOL0     H40086   5.543   3.476   3.448  0.6309  2.2826  1.6570
  304MOL0     H40087   5.599   3.642   3.423 -2.0510  0.4117  1.2231
  304MOL0     H40088   5.380   3.489   3.290  2.5246  0.5679 -4.8698
  304MOL0     H40089   5.432   3.644   3.229 -0.4463  1.3793  0.0676
  304MOL0     H40090   5.230   3.799   3.588 -0.0911  1.2638 -1.2637
  304MOL0     H40091   4.984   3.826   3.592  0.7975 -1.2704  0.1661
  304MOL0     H40092   4.633   4.067   3.483  0.5787  0.0011 -0.6522
  304MOL0     H40093   4.395   4.107   3.527  4.8680  1.4657  0.3768
  304MOL0     H40094   4.195   4.119   3.599 -2.8605 -0.5268 -2.2333
  304MOL0     H40095   4.219   4.009   3.747  0.7538  1.7292  0.4196
  304MOL0     H40096   3.960   4.018   3.586  1.3681 -1.2954 -0.0784
  304MOL0     H40097   4.001   4.126   3.734 -2.4751 -0.0645  0.2168
  304MOL0     H40098   4.016   3.941   3.876  0.5420 -0.0892  1.0586
  304MOL0     H40099   4.008   3.823   3.743  1.8980  1.1810 -0.6647
  304MOL0     H40100   3.766   4.019   3.775  0.0764  0.8444 -0.5699
  304MOL0     H40101   3.769   3.855   3.731  1.9447 -0.3164 -1.2415
  304MOL0     H40102   3.841   3.930   4.012 -0.0122 -0.8190  0.6279
  304MOL0     H40103   3.768   3.783   3.947 -0.1062 -0.1587 -0.6759
  304MOL0     H40104   3.569   3.951   3.870 -3.2652 -1.9160  1.6945
  304MOL0     H40105   3.669   4.068   3.964 -0.3581  0.5323  0.1104
  304MOL0     H40106   3.526   3.807   4.036 -4.1646  0.8202 -1.8369
  304MOL0     H40107   3.620   3.892   4.160 -0.6190  1.8070  0.4494
  304MOL0     H40108   3.374   3.926   4.148 -2.0571 -1.4238 -1.9625
  304MOL0     H40109   3.383   4.030   4.004  0.4725  0.0329  0.4037
  304MOL0     H40110   4.317   3.693   3.559  0.0141 -0.2553  2.1373
  304MOL0     H40111   4.569   3.651   3.536  0.9745  1.6101 -3.5525
  304MOL0     H40112   4.935   3.619   3.221  0.9207 -0.8083 -1.4277
  304MOL0     H40113   5.191   3.558   3.236  1.1431  0.4872 -0.0708
  304MOL0     H40114   7.065   3.709   2.660  3.6559 -1.6844  2.6297
  304MOL0     H40115   7.292   3.816   2.696  0.6841  1.9039  0.1022
  304MOL0     H40116   7.553   4.088   3.167  1.0152 -1.1347 -0.2125
  304MOL0     H40117   7.796   4.121   3.174 -3.0008 -0.5633  2.5019
  304MOL0     H40118   8.137   4.142   3.064  0.9825  1.5265 -3.8813
  304MOL0     H40119   7.988   4.140   3.170 -3.1362 -0.1289 -1.5459
  304MOL0     H40120   7.905   4.336   3.113  0.9438 -0.9108  4.3627
  304MOL0     H40121   8.077   4.348   3.170 -0.0313 -0.3838  0.4853
  304MOL0     H40122   8.040   4.510   2.966 -4.3863  0.8814 -1.2358
  304MOL0     H40123   7.977   4.377   2.873  0.5927  0.6595 -0.8975
  304MOL0     H40124   8.197   4.260   2.860 -0.1456  0.0329 -1.0203
  304MOL0     H40125   8.184   4.414   2.793  2.5485 -2.1122 -0.9753
  304MOL0     H40126   8.468   4.461   3.114 -0.8255  1.7112 -0.3823
  304MOL0     H40127   7.806   4.092   2.756 -4.2950  0.2418 -2.6687
  304MOL0     H40128   7.566   4.021   2.746  0.7648 -1.0432 -0.5185
  305MOL0     O40129   0.989   8.437  10.451  0.2885  0.0784 -0.0906
  305MOL0     C40130   0.909   8.471  10.537 -0.2506 -0.5330  0.5013
  305MOL0     O40131   0.925   8.480  10.669 -1.3434  0.4120 -0.8148
  305MOL0     C40132   1.054   8.463  10.727  0.6322 -0.3804 -0.2228
  305MOL0     C40133   1.056   8.412  10.857 -0.6113  0.0366 -0.4213
  305MOL0     C40134   1.175   8.408  10.935 -0.3953  0.0967  1.0022
  305MOL0     C40135   1.287   8.468  10.879 -0.6780  0.2753 -0.5352
  305MOL0     O40136   1.402   8.466  10.966  0.2286 -0.2460 -0.0340
  305MOL0     C40137   1.507   8.556  10.938  0.5819 -0.0644  0.1896
  305MOL0     C40138   1.604   8.586  11.056 -0.4340 -1.0172 -0.3680
  305MOL0     C40139   1.721   8.476  11.069 -0.2056 -0.6665  0.1413
  305MOL0     C40140   1.737   8.438  11.215 -0.0788  1.0570 -0.2000
  305MOL0     C40141   1.868   8.354  11.235  0.7547  0.0242  0.6057
  305MOL0     C40142   1.875   8.286  11.367 -0.2665  0.1355 -0.6535
  305MOL0     C40143   1.995   8.185  11.391 -0.0268 -0.6466  0.5442
  305MOL0     C40144   2.004   8.122  11.531 -0.2689  0.8717  0.1365
  305MOL0     N40145   1.998   8.235  11.625  0.1819 -0.0961 -0.1217
  305MOL0     C40146   2.108   8.317  11.653  0.0475 -0.0871 -0.0628
  305MOL0     C40147   2.068   8.383  11.767 -0.1864  0.7778 -0.0232
  305MOL0     C40148   2.154   8.476  11.847 -0.5950 -0.0295  0.0946
  305MOL0     C40149   2.194   8.600  11.775 -0.2065 -0.3270  0.8651
  305MOL0     C40150   2.085   8.699  11.768  0.4723 -0.4111  0.2437
  305MOL0     C40151   2.097   8.781  11.639 -0.2873  0.1687  0.1760
  305MOL0     O40152   2.075   8.714  11.519  0.4811 -0.4683 -0.3310
  305MOL0     C40153   1.971   8.768  11.451  0.2325  0.5824  0.5705
  305MOL0     C40154   1.844   8.780  11.510 -0.6730  0.3172 -0.0304
  305MOL0     C40155   1.730   8.830  11.436  0.3004  0.4275 -0.0798
  305MOL0     C40156   1.745   8.867  11.302  0.0075 -0.6941  0.1673
  305MOL0     C40157   1.627   8.914  11.228 -0.5863 -0.3671 -0.0866
  305MOL0     O40158   1.641   8.933  11.089  0.0438 -0.1471 -0.5569
  305MOL0     C40159   1.520   8.960  11.027 -0.3745  0.4428  0.5969
  305MOL0     C40160   1.523   9.053  10.914  0.5361  0.3748 -0.0019
  305MOL0     C40161   1.418   9.059  10.824  0.0984 -0.5331  0.5628
  305MOL0     C40162   1.308   8.979  10.838 -0.0959  0.4029  0.6834
  305MOL0     O40163   1.208   8.965  10.744  0.0477  0.2718 -0.0687
  305MOL0     C40164   1.213   9.033  10.621  0.8978 -0.4394  0.6857
  305MOL0     C40165   1.095   8.974  10.540  0.4921 -0.5104  0.5599
  305MOL0     C40166   1.094   9.019  10.394 -0.2286  0.0142  0.5494
  305MOL0     C40167   1.012   8.926  10.310  0.5663  0.1060 -0.4625
  305MOL0     C40168   1.043   8.949  10.159 -0.1391 -0.3344 -0.0520
  305MOL0     C40169   0.960   8.871  10.064  0.0676 -0.5354 -0.7189
  305MOL0     C40170   0.829   8.943  10.020  0.6148  0.5109  0.4027
  305MOL0     C40171   0.768   8.896   9.889  0.0298  0.2211  0.4365
  305MOL0    Cl40172   0.605   8.985   9.876 -0.4760  0.0912  0.0358
  305MOL0     C40173   1.298   8.892  10.950 -1.0946  0.5963  0.4916
  305MOL0     C40174   1.406   8.882  11.039  0.5953  0.1914 -0.3121
  305MOL0     O40175   1.520   8.926  11.297  0.0697  0.3546  0.2357
  305MOL0     C40176   1.881   8.861  11.253  0.0959  0.1316  0.0233
  305MOL0     C40177   1.991   8.800  11.317 -0.5987  0.4371  0.0715
  305MOL0     N40178   1.936   8.340  11.803  0.0780  0.4836  0.6748
  305MOL0     N40179   1.901   8.254  11.718 -0.1480  0.5379  0.3026
  305MOL0     C40180   1.295   8.526  10.750  0.7637  0.4877  0.0842
  305MOL0     C40181   1.179   8.516  10.672 -0.3445 -0.7516  0.0534
  305MOL0     C40182   0.772   8.511  10.487  0.6389 -0.2957  0.5185
  305MOL0     C40183   0.740   8.507  10.344  0.0233  0.6491  0.9633
  305MOL0     C40184   0.606   8.532  10.301  0.2687  0.2497 -0.3788
  305MOL0     C40185   0.501   8.573  10.393 -1.1051  0.3600  0.2578
  305MOL0     O40186   0.372   8.600  10.343 -0.8277  0.1951  0.6899
  305MOL0     C40187   0.291   8.679  10.432  0.1680  0.0325  0.2611
  305MOL0     C40188   0.154   8.717  10.369  0.7132 -0.0211  0.2232
  305MOL0     C40189   0.160   8.798  10.238 -0.3661  0.6187  0.4871
  305MOL0     C40190   0.010   8.816  10.199 -0.1835  0.6283  0.4266
  305MOL0     C40191   0.008   8.887  10.071 -0.6344  0.2823  0.3629
  305MOL0     C40192  -0.015   8.956   9.969  1.0029 -0.0217 -0.4584
  305MOL0     C40193   0.549   8.586  10.529 -0.5969  1.0453  0.4162
  305MOL0     C40194   0.676   8.560  10.576 -0.7171  0.0010  0.0569
  305MOL0     H40195   0.968   8.364  10.899 -0.8533 -0.3348 -1.3340
  305MOL0     H40196   1.183   8.384  11.040 -0.8400  1.0134  1.2498
  305MOL0     H40197   1.461   8.650  10.904 -0.8356 -1.1828 -1.1026
  305MOL0     H40198   1.564   8.521  10.852 -0.9366 -0.0770 -0.8516
  305MOL0     H40199   1.543   8.588  11.147 -3.8530  1.9732 -2.4226
  305MOL0     H40200   1.652   8.684  11.050  0.2849 -1.2195  1.5140
  305MOL0     H40201   1.818   8.516  11.036 -0.2115  0.6514  1.6032
  305MOL0     H40202   1.690   8.383  11.022 -0.7802 -0.9312  1.0191
  305MOL0     H40203   1.757   8.525  11.278  0.8188  0.5611  0.2165
  305MOL0     H40204   1.644   8.390  11.246  1.2996 -3.4823 -2.1622
  305MOL0     H40205   1.962   8.402  11.208  0.5702  0.6147  1.0088
  305MOL0     H40206   1.871   8.262  11.176  0.6140 -0.0043  0.6422
  305MOL0     H40207   1.778   8.236  11.375 -0.9429  1.4511 -0.3818
  305MOL0     H40208   1.878   8.370  11.436 -1.8745 -1.2808  1.2841
  305MOL0     H40209   1.978   8.102  11.322 -0.0833  1.4834 -2.1705
  305MOL0     H40210   2.087   8.234  11.360  0.5282 -2.0805 -0.1909
  305MOL0     H40211   2.099   8.069  11.545 -0.2318  0.6676 -0.8072
  305MOL0     H40212   1.918   8.056  11.550 -0.4122  1.3560  1.2636
  305MOL0     H40213   2.210   8.311  11.615  0.4022  3.3089  0.0861
  305MOL0     H40214   2.250   8.428  11.870  0.1983  0.2255 -2.4126
  305MOL0     H40215   2.110   8.511  11.941  0.3365 -3.3657  1.9485
  305MOL0     H40216   2.242   8.572  11.682 -4.2632  2.0783 -2.3111
  305MOL0     H40217   2.266   8.642  11.845 -0.3383 -1.6567  1.8491
  305MOL0     H40218   1.985   8.656  11.783  1.2763 -2.3000  0.5080
  305MOL0     H40219   2.094   8.769  11.851 -0.3346 -0.4835  0.3993
  305MOL0     H40220   2.198   8.823  11.645 -0.3815  0.2133  1.9048
  305MOL0     H40221   2.048   8.879  11.642  0.6735  0.6495  3.4157
  305MOL0     H40222   1.821   8.744  11.610 -2.1380 -1.9559 -1.0795
  305MOL0     H40223   1.636   8.828  11.488  0.1220 -3.4563 -0.2249
  305MOL0     H40224   1.614   9.108  10.895  2.2566 -2.2438  0.0546
  305MOL0     H40225   1.426   9.130  10.742  0.9431 -1.8911 -0.5735
  305MOL0     H40226   1.308   9.010  10.572 -1.0411  0.3244 -3.9168
  305MOL0     H40227   1.197   9.141  10.631 -2.1852 -0.7119 -0.2573
  305MOL0     H40228   0.999   9.003  10.584  0.8323 -1.4476  2.0017
  305MOL0     H40229   1.087   8.866  10.551 -2.0106 -0.2696  1.9892
  305MOL0     H40230   1.194   8.991  10.359 -1.2233 -2.7732 -0.3903
  305MOL0     H40231   1.082   9.126  10.379 -0.3440 -0.1970 -1.0921
  305MOL0     H40232   1.040   8.821  10.322 -1.6094 -0.6603 -1.5023
  305MOL0     H40233   0.904   8.938  10.327  0.3889 -1.6452 -0.0928
  305MOL0     H40234   1.150   8.931  10.143  0.4767  2.1958  0.6544
  305MOL0     H40235   1.024   9.054  10.132 -2.1059 -0.6870 -0.2034
  305MOL0     H40236   0.931   8.774  10.107  0.8197 -1.3523 -1.9776
  305MOL0     H40237   1.013   8.852   9.970  1.9147  1.3220 -0.1227
  305MOL0     H40238   0.763   8.911  10.101  0.2723  0.8538  0.2620
  305MOL0     H40239   0.839   9.052  10.012  0.4596  0.6110  1.4030
  305MOL0     H40240   0.755   8.788   9.885  1.2964  0.0644  0.0545
  305MOL0     H40241   0.838   8.922   9.810 -0.3618 -0.2468 -0.0656
  305MOL0     H40242   1.216   8.825  10.973  0.6566 -1.0772  2.2065
  305MOL0     H40243   1.404   8.807  11.117 -0.4268  0.2679 -0.2585
  305MOL0     H40244   1.906   8.901  11.156  0.3363 -0.0255  0.0194
  305MOL0     H40245   2.090   8.789  11.274 -1.0864  0.0799 -0.9829
  305MOL0     H40246   1.377   8.576  10.699 -1.4324  1.0461 -3.2198
  305MOL0     H40247   1.180   8.536  10.565 -4.2151  2.3336  0.3648
  305MOL0     H40248   0.805   8.483  10.260  0.2129 -0.7222  1.4675
  305MOL0     H40249   0.568   8.544  10.200  1.3873  2.5569 -0.5843
  305MOL0     H40250   0.343   8.769  10.465 -0.1877  0.1026  0.6356
  305MOL0     H40251   0.272   8.616  10.519  3.0979 -0.4901  0.6141
  305MOL0     H40252   0.093   8.627  10.372 -0.2231  0.6190  1.6834
  305MOL0     H40253   0.115   8.792  10.439  0.1510  1.9505 -2.0719
  305MOL0     H40254   0.216   8.743  10.161  0.1511  1.8669 -0.0628
  305MOL0     H40255   0.205   8.896  10.257 -2.2724  2.0835 -1.8974
  305MOL0     H40256  -0.028   8.714  10.191  1.5544  0.0561 -1.8606
  305MOL0     H40257  -0.050   8.874  10.269  0.6541  1.4348  0.5013
  305MOL0     H40258  -0.048   9.019   9.889 -1.3949  0.2106  0.6428
  305MOL0     H40259   0.477   8.614  10.604 -2.1259  2.5700 -1.5071
  305MOL0     H40260   0.702   8.574  10.680  2.1480 -1.8061 -0.3104
  306MOL0     O40261   2.930   8.971   1.458 -0.0078  0.1610 -0.0479
  306MOL0     C40262   2.959   8.943   1.567  0.4087 -0.1312 -0.0847
  306MOL0     O40263   2.867   8.917   1.660 -0.3328  0.0229 -0.9793
  306MOL0     C40264   2.734   8.881   1.629 -0.2711 -0.3161 -0.6200
  306MOL0     C40265   2.708   8.793   1.523 -0.9315  0.2056 -0.4427
  306MOL0     C40266   2.577   8.756   1.496  0.3128  1.0165  0.6234
  306MOL0     C40267   2.464   8.800   1.577 -0.6849  0.1556 -0.4232
  306MOL0     O40268   2.328   8.791   1.554 -0.6587 -0.0747 -0.3749
  306MOL0     C40269   2.285   8.742   1.428 -0.5801  0.2793  0.1220
  306MOL0     C40270   2.134   8.753   1.444  0.5621  0.6032  0.0675
  306MOL0     C40271   2.046   8.664   1.367 -0.1967  0.6219  0.2693
  306MOL0     C40272   1.905   8.715   1.354  0.3659 -0.3695  0.6344
  306MOL0     C40273   1.808   8.620   1.292 -0.3080 -0.2109 -0.3765
  306MOL0     C40274   1.665   8.680   1.307  0.4648 -0.1096  0.1436
  306MOL0     C40275   1.568   8.572   1.261 -0.6558 -0.0434 -0.1889
  306MOL0     C40276   1.425   8.636   1.262 -0.1467 -0.9339 -0.5938
  306MOL0     N40277   1.317   8.537   1.254  0.6432  0.4666 -0.8151
  306MOL0     C40278   1.296   8.483   1.130  0.0535  0.7298  0.0634
  306MOL0     C40279   1.182   8.409   1.151  0.6228  0.4792  0.7922
  306MOL0     C40280   1.103   8.351   1.037 -0.4333  0.7027  0.1605
  306MOL0     C40281   0.949   8.368   1.049  0.2769 -0.4121  0.6506
  306MOL0     C40282   0.896   8.510   1.004 -0.3060  0.4366 -0.4152
  306MOL0     C40283   0.970   8.616   1.079  0.1734  1.1309  0.2442
  306MOL0     O40284   0.901   8.740   1.080 -0.1337  0.0178  0.2051
  306MOL0     C40285   0.769   8.746   1.132 -0.0174 -0.4430  0.5571
  306MOL0     C40286   0.681   8.837   1.072  0.2129  1.1243 -0.0646
  306MOL0     C40287   0.549   8.850   1.120  0.0516 -0.9502 -0.0288
  306MOL0     C40288   0.497   8.785   1.236  0.8381 -0.9283 -0.7321
  306MOL0     C40289   0.360   8.823   1.290 -0.0989  0.1106  0.1720
  306MOL0     O40290   0.298   8.935   1.249  0.4797 -0.3189 -0.3499
  306MOL0     C40291   0.164   8.943   1.290 -0.7265 -0.5346 -0.4138
  306MOL0     C40292   0.132   9.030   1.398  0.3907 -0.0847  0.8480
  306MOL0     C40293   0.002   9.052   1.437 -0.8313 -0.3106 -0.3161
  306MOL0     C40294  -0.107   8.990   1.363  0.1293  0.2651  0.1520
  306MOL0     O40295  -0.235   9.010   1.397  0.6963 -0.0395  0.9746
  306MOL0     C40296  -0.270   9.005   1.536 -0.0736  0.0292 -0.1568
  306MOL0     C40297  -0.382   8.910   1.562 -0.1661  0.3017 -0.3023
  306MOL0     C40298  -0.343   8.760   1.561  0.6471  0.5267  0.5848
  306MOL0     C40299  -0.457   8.659   1.591  0.1024 -0.8370 -0.5527
  306MOL0     C40300  -0.572   8.686   1.490  0.1732  0.0628 -0.4055
  306MOL0     C40301  -0.664   8.564   1.468 -0.0776 -0.1242 -0.3157
  306MOL0     C40302  -0.788   8.601   1.387 -0.9311  0.5100 -0.3116
  306MOL0     C40303  -0.892   8.490   1.399  0.2792  0.2214 -0.4004
  306MOL0    Cl40304  -0.977   8.491   1.561  0.0795  0.4550  0.0926
  306MOL0     C40305  -0.067   8.911   1.251 -1.1263  0.0447  0.1947
  306MOL0     C40306   0.063   8.881   1.221 -0.7183  0.1046  0.1061
  306MOL0     O40307   0.315   8.735   1.367 -0.1703  0.5666  0.2650
  306MOL0     C40308   0.587   8.704   1.299 -0.3710  0.2966  0.6020
  306MOL0     C40309   0.720   8.678   1.246 -0.1484  0.3963 -0.2274
  306MOL0     N40310   1.150   8.408   1.287 -0.3486 -0.9633  0.2264
  306MOL0     N40311   1.223   8.491   1.350 -1.1798 -0.7767  0.2701
  306MOL0     C40312   2.496   8.886   1.680 -0.2287  0.4584  1.0247
  306MOL0     C40313   2.629   8.934   1.704  0.1245  0.4171  0.2027
  306MOL0     C40314   3.099   8.970   1.601 -0.1126  0.8311  0.1003
  306MOL0     C40315   3.147   8.907   1.718 -0.2812 -0.4780  0.8098
  306MOL0     C40316   3.276   8.931   1.769 -0.5930  0.2671  0.5155
  306MOL0     C40317   3.359   9.028   1.696  0.8020 -0.5310 -0.1367
  306MOL0     O40318   3.489   9.066   1.738 -0.3357  0.2559  0.0856
  306MOL0     C40319   3.559   8.990   1.841  0.2904  0.0755 -0.1206
  306MOL0     C40320   3.650   9.077   1.921 -0.3475 -0.1904 -0.6327
  306MOL0     C40321   3.735   9.171   1.830  0.0533 -0.3285 -0.3841
  306MOL0     C40322   3.821   9.085   1.730  0.6449 -0.1484 -0.7177
  306MOL0     C40323   3.951   9.162   1.705 -0.3654 -0.0213 -0.9740
  306MOL0     C40324   4.055   9.217   1.677  0.4348 -0.5255 -0.5674
  306MOL0     C40325   3.311   9.084   1.582 -0.2056 -0.4389 -0.7670
  306MOL0     C40326   3.180   9.066   1.540 -0.4254 -0.3495 -0.1308
  306MOL0     H40327   2.789   8.742   1.473  0.1269  1.3117  0.1130
  306MOL0     H40328   2.565   8.682   1.417 -1.4937 -0.2844  2.0155
  306MOL0     H40329   2.315   8.638   1.411 -1.2703 -0.1336  1.2852
  306MOL0     H40330   2.322   8.804   1.346 -0.4073 -0.4415 -0.3545
  306MOL0     H40331   2.100   8.857   1.441  0.2685  0.4912 -1.3074
  306MOL0     H40332   2.116   8.725   1.548  1.5619  0.4053  0.2046
  306MOL0     H40333   2.035   8.564   1.409  1.7919 -0.7191 -2.1442
  306MOL0     H40334   2.084   8.651   1.265  0.5221  0.5604  0.5398
  306MOL0     H40335   1.856   8.745   1.447 -2.7887  1.1683 -1.3592
  306MOL0     H40336   1.900   8.812   1.304 -2.5030  0.9713  3.2291
  306MOL0     H40337   1.808   8.524   1.345 -1.5552 -0.0137  0.0226
  306MOL0     H40338   1.831   8.604   1.187 -1.5517 -1.0267 -0.5392
  306MOL0     H40339   1.656   8.768   1.242  2.0588  0.2744  0.3991
  306MOL0     H40340   1.651   8.696   1.414  0.1843 -0.2604  0.1301
  306MOL0     H40341   1.597   8.547   1.159 -0.2141 -0.1422 -0.0401
  306MOL0     H40342   1.589   8.482   1.318  0.5136  1.2626  1.5354
  306MOL0     H40343   1.421   8.715   1.187  0.9591  1.7199  1.9469
  306MOL0     H40344   1.410   8.686   1.358 -1.6020 -0.6729 -0.9276
  306MOL0     H40345   1.346   8.518   1.040 -2.0706  3.1767 -0.2970
  306MOL0     H40346   1.118   8.242   1.034  0.0252  0.6569  2.3784
  306MOL0     H40347   1.135   8.397   0.943 -2.7460  1.2469 -0.4040
  306MOL0     H40348   0.920   8.351   1.153  0.7637  1.3101  1.0986
  306MOL0     H40349   0.906   8.298   0.977 -0.4949  1.8624 -1.2320
  306MOL0     H40350   0.907   8.518   0.895  0.8699 -1.7892 -0.5136
  306MOL0     H40351   0.789   8.513   1.024 -0.4900  0.5366 -1.3387
  306MOL0     H40352   1.053   8.654   1.019 -0.7115  1.4568 -0.8289
  306MOL0     H40353   0.991   8.592   1.183  0.4237 -0.9644 -0.2427
  306MOL0     H40354   0.711   8.889   0.982  1.1733  1.0726  0.2155
  306MOL0     H40355   0.496   8.927   1.063  3.6636  0.8727 -1.2399
  306MOL0     H40356   0.216   9.090   1.433  0.7941 -0.4279  0.4788
  306MOL0     H40357  -0.008   9.134   1.508 -0.5785 -2.5417  2.4656
  306MOL0     H40358  -0.298   9.101   1.580  0.5321  0.6080 -1.0112
  306MOL0     H40359  -0.185   8.969   1.594 -0.5409 -1.6717 -0.4708
  306MOL0     H40360  -0.460   8.924   1.487 -1.7135  1.8006  1.4811
  306MOL0     H40361  -0.424   8.939   1.659  1.3928  1.4863  0.0650
  306MOL0     H40362  -0.267   8.740   1.637  0.7106  0.5198  0.5207
  306MOL0     H40363  -0.288   8.738   1.468 -1.8337 -3.0105 -0.2360
  306MOL0     H40364  -0.421   8.556   1.581 -1.8410 -1.3757 -2.6364
  306MOL0     H40365  -0.483   8.667   1.697  2.3582 -0.8699  0.0611
  306MOL0     H40366  -0.542   8.722   1.392  1.2646 -2.2778 -1.0111
  306MOL0     H40367  -0.631   8.767   1.534 -3.0940 -0.9083 -2.5960
  306MOL0     H40368  -0.686   8.536   1.571  1.7287 -1.0514 -0.1275
  306MOL0     H40369  -0.613   8.481   1.418 -0.5638  1.3840 -3.6003
  306MOL0     H40370  -0.839   8.682   1.440  1.0146  0.7674  1.2666
  306MOL0     H40371  -0.767   8.619   1.281 -1.7637  1.9775 -0.2596
  306MOL0     H40372  -0.839   8.396   1.380 -1.0733 -0.0055 -3.7815
  306MOL0     H40373  -0.972   8.510   1.327  0.1428 -1.8814 -0.8912
  306MOL0     H40374  -0.141   8.849   1.200  1.3625 -3.2309  0.2722
  306MOL0     H40375   0.094   8.803   1.151 -1.8846  0.0778 -0.4116
  306MOL0     H40376   0.549   8.654   1.388 -4.1352 -0.2614 -1.1511
  306MOL0     H40377   0.780   8.615   1.311 -0.2876  1.0028  0.5005
  306MOL0     H40378   2.406   8.926   1.725 -0.0772  1.9747  0.0470
  306MOL0     H40379   2.639   9.016   1.776  0.3402 -0.2545  0.9524
  306MOL0     H40380   3.086   8.836   1.772 -0.7443 -1.5610 -1.0295
  306MOL0     H40381   3.299   8.882   1.863  2.4441 -0.3212 -0.4202
  306MOL0     H40382   3.615   8.912   1.789 -0.2349  0.5888 -1.5088
  306MOL0     H40383   3.493   8.936   1.909 -0.7870 -0.2488 -1.3691
  306MOL0     H40384   3.600   9.141   1.993 -0.6515 -2.5850  1.4391
  306MOL0     H40385   3.722   9.011   1.971  0.3698  0.5058 -0.7446
  306MOL0     H40386   3.809   9.234   1.882 -0.5595  1.4088 -1.5543
  306MOL0     H40387   3.668   9.238   1.776 -3.1159 -0.8620  2.5016
  306MOL0     H40388   3.844   8.992   1.785 -0.9395  0.7063  1.5503
  306MOL0     H40389   3.772   9.059   1.636  0.0483  1.5066 -0.8910
  306MOL0     H40390   4.150   9.257   1.647  2.3693 -2.2067  2.7749
  306MOL0     H40391   3.386   9.144   1.531  0.8771  0.5974  1.9051
  306MOL0     H40392   3.142   9.128   1.460 -3.6071  1.9164  2.8479
  307MOL0     O40393   5.218   2.872   3.817  0.5576  0.6527  0.1915
  307MOL0     C40394   5.197   2.939   3.718  0.4137 -0.0691 -0.0738
  307MOL0     O40395   5.073   2.972   3.677 -0.2589  0.6125  0.4809
  307MOL0     C40396   4.973   2.916   3.749  0.3576  0.0794  0.3515
  307MOL0     C40397   4.905   2.998   3.829  0.0476  0.0116  0.5060
  307MOL0     C40398   4.799   2.951   3.909  0.7408 -1.2401  0.1754
  307MOL0     C40399   4.773   2.817   3.915 -1.0849 -0.3303 -0.5092
  307MOL0     O40400   4.678   2.782   4.003  0.0873  0.5815 -0.1589
  307MOL0     C40401   4.594   2.679   3.956 -0.3502 -0.0977  0.2203
  307MOL0     C40402   4.523   2.622   4.082  0.8433  0.1476 -0.0130
  307MOL0     C40403   4.394   2.533   4.068 -0.1565 -0.0667  0.7377
  307MOL0     C40404   4.352   2.441   4.185  0.0425 -0.3812  0.8907
  307MOL0     C40405   4.215   2.370   4.152 -0.0540 -0.7509 -1.0131
  307MOL0     C40406   4.155   2.277   4.256 -0.4779 -0.8103 -0.0225
  307MOL0     C40407   4.240   2.164   4.309  0.1145  0.6284 -0.0715
  307MOL0     C40408   4.247   2.050   4.202 -0.7377 -0.1617 -0.2257
  307MOL0     N40409   4.123   1.973   4.183 -0.5831 -0.3344  0.2173
  307MOL0     C40410   4.092   1.856   4.244  0.7946  0.8295 -1.1907
  307MOL0     C40411   3.962   1.821   4.215  0.5396 -0.1730  0.0597
  307MOL0     C40412   3.885   1.698   4.259 -0.3511 -0.5399  0.2669
  307MOL0     C40413   3.741   1.691   4.207 -0.0966  0.0772  0.7015
  307MOL0     C40414   3.676   1.564   4.264  0.1746  0.0064 -0.0224
  307MOL0     C40415   3.607   1.581   4.400  0.3448  1.0168  0.3483
  307MOL0     O40416   3.525   1.466   4.426 -0.2269  0.2549  0.3885
  307MOL0     C40417   3.394   1.455   4.377 -1.4094 -0.1289  0.3742
  307MOL0     C40418   3.320   1.345   4.418 -0.1440 -0.3150 -0.3987
  307MOL0     C40419   3.190   1.326   4.383  0.5065  1.0888  0.6776
  307MOL0     C40420   3.117   1.423   4.305 -0.0782  0.3505  0.0226
  307MOL0     C40421   2.970   1.420   4.280 -0.4163 -0.3928 -0.8404
  307MOL0     O40422   2.904   1.331   4.360  0.0333 -0.1948 -0.8750
  307MOL0     C40423   2.767   1.327   4.385 -0.2287  0.1748  0.0984
  307MOL0     C40424   2.661   1.343   4.293  0.3377  0.4898  1.1728
  307MOL0     C40425   2.526   1.333   4.333  0.1979  0.3790 -0.2049
  307MOL0     C40426   2.490   1.287   4.467  0.1843  0.1139 -0.5034
  307MOL0     O40427   2.366   1.272   4.525  0.0553  0.0354 -0.1574
  307MOL0     C40428   2.253   1.280   4.435 -0.2822 -0.2663 -0.5469
  307MOL0     C40429   2.125   1.257   4.508 -0.4064 -0.0658 -0.1669
  307MOL0     C40430   2.008   1.250   4.417  0.6110  0.0123  0.3142
  307MOL0     C40431   1.871   1.246   4.485  0.0182  0.0677 -0.0572
  307MOL0     C40432   1.751   1.199   4.395  0.0660 -0.6573 -0.2537
  307MOL0     C40433   1.622   1.171   4.476 -0.8257  0.2224  0.5372
  307MOL0     C40434   1.487   1.161   4.389 -0.3473  0.0647 -0.6741
  307MOL0     C40435   1.455   1.302   4.328 -0.3693  0.1544  0.9474
  307MOL0    Cl40436   1.290   1.298   4.261 -0.0467  0.0728 -0.2095
  307MOL0     C40437   2.601   1.267   4.554  0.7195 -0.3460  0.7372
  307MOL0     C40438   2.733   1.271   4.510 -0.4375  0.1305 -0.0772
  307MOL0     O40439   2.922   1.499   4.199  0.3510 -0.1845 -0.4994
  307MOL0     C40440   3.202   1.515   4.245  0.2414  0.1379  0.6015
  307MOL0     C40441   3.336   1.539   4.285  0.7238 -0.0029  0.2843
  307MOL0     N40442   3.914   1.936   4.143  0.3830 -0.5116 -0.3338
  307MOL0     N40443   4.011   2.016   4.121 -0.7480 -0.0343  0.3182
  307MOL0     C40444   4.848   2.724   3.836  0.1554 -0.3366 -0.6032
  307MOL0     C40445   4.944   2.777   3.750 -0.1118 -1.2644  0.0770
  307MOL0     C40446   5.314   2.974   3.640 -0.3031 -0.2342  0.3793
  307MOL0     C40447   5.447   2.937   3.673 -0.4949 -0.1037  0.9062
  307MOL0     C40448   5.550   2.967   3.582  0.0810 -0.2548 -0.0287
  307MOL0     C40449   5.530   3.043   3.470 -0.2335  0.2912 -0.0872
  307MOL0     O40450   5.624   3.098   3.387  0.3300  0.0771 -0.1545
  307MOL0     C40451   5.761   3.068   3.411 -0.2705  0.0046 -0.3012
  307MOL0     C40452   5.827   3.118   3.281 -0.6666  0.9184 -0.3056
  307MOL0     C40453   5.971   3.170   3.313 -0.0235  1.1847 -0.2554
  307MOL0     C40454   6.046   3.197   3.182 -0.8260  0.2112  0.3985
  307MOL0     C40455   6.188   3.230   3.230  0.8963  0.0967 -0.3825
  307MOL0     C40456   6.299   3.262   3.251  0.8264 -0.2412 -0.4022
  307MOL0     C40457   5.407   3.086   3.445 -0.1609  0.1897 -0.2007
  307MOL0     C40458   5.299   3.056   3.529  0.5113  0.5592 -0.4307
  307MOL0     H40459   4.925   3.105   3.831 -1.7631  0.3775  1.6367
  307MOL0     H40460   4.731   3.019   3.959 -1.2434 -3.0596  0.0553
  307MOL0     H40461   4.644   2.596   3.905 -1.5806  0.7258 -2.4600
  307MOL0     H40462   4.519   2.721   3.889 -0.3572 -3.7363 -2.3950
  307MOL0     H40463   4.507   2.703   4.154  2.6897  1.3062 -0.8216
  307MOL0     H40464   4.593   2.556   4.134  1.4029  0.0248 -0.9077
  307MOL0     H40465   4.414   2.465   3.985  0.6459  0.5481  0.4123
  307MOL0     H40466   4.313   2.603   4.046  0.9737  0.6665 -1.3704
  307MOL0     H40467   4.439   2.375   4.192  1.9287  1.0929 -4.2820
  307MOL0     H40468   4.337   2.501   4.275 -0.0580  1.1787 -0.1427
  307MOL0     H40469   4.224   2.318   4.056  0.0331 -0.7331 -1.0153
  307MOL0     H40470   4.154   2.460   4.139  2.3401  1.3326  1.1130
  307MOL0     H40471   4.055   2.258   4.215 -1.7524  2.1367  1.4578
  307MOL0     H40472   4.134   2.335   4.346 -1.3759  1.5172 -1.6319
  307MOL0     H40473   4.343   2.196   4.322  0.2667  0.7273 -1.3250
  307MOL0     H40474   4.208   2.124   4.405  0.5959 -2.6608 -1.1382
  307MOL0     H40475   4.338   1.992   4.218  1.5537  2.1350 -3.5137
  307MOL0     H40476   4.278   2.104   4.113  1.4158  4.0478  2.7838
  307MOL0     H40477   4.166   1.810   4.309 -0.4171  2.3824  1.4334
  307MOL0     H40478   3.884   1.695   4.368  1.8955  0.9785  0.3938
  307MOL0     H40479   3.940   1.610   4.224  0.7864  0.3795 -0.3243
  307MOL0     H40480   3.735   1.695   4.098  2.6686  0.5922  0.4859
  307MOL0     H40481   3.694   1.779   4.250  2.6612  2.0151  0.0343
  307MOL0     H40482   3.599   1.526   4.196  1.1239  0.6537 -1.5077
  307MOL0     H40483   3.754   1.487   4.273  1.4614  1.0782 -1.4902
  307MOL0     H40484   3.552   1.675   4.406 -0.3794  0.6638 -0.5739
  307MOL0     H40485   3.692   1.588   4.468  1.2816 -0.7045 -0.5676
  307MOL0     H40486   3.376   1.280   4.485  0.6163 -1.9553 -2.5452
  307MOL0     H40487   3.144   1.239   4.428  2.4786  1.1405  2.9875
  307MOL0     H40488   2.686   1.372   4.192 -0.8737  0.5259  0.8639
  307MOL0     H40489   2.442   1.334   4.264 -1.1839 -0.0060  1.3981
  307MOL0     H40490   2.258   1.220   4.344  2.3112  0.4921 -0.9890
  307MOL0     H40491   2.243   1.381   4.396 -2.3699  0.0997  0.7478
  307MOL0     H40492   2.120   1.329   4.590  3.1594  0.5482 -0.3228
  307MOL0     H40493   2.135   1.162   4.561 -0.5301  0.8209  1.5092
  307MOL0     H40494   2.021   1.172   4.341  0.3841 -0.3974  0.6872
  307MOL0     H40495   2.011   1.342   4.358 -0.2365  0.0737  0.3575
  307MOL0     H40496   1.871   1.163   4.556  0.5818 -0.0428 -0.1805
  307MOL0     H40497   1.847   1.346   4.523 -0.1963  0.7070 -1.7526
  307MOL0     H40498   1.767   1.112   4.332 -0.1394 -0.3599 -0.7241
  307MOL0     H40499   1.715   1.282   4.333 -3.8269 -0.5725  1.7535
  307MOL0     H40500   1.622   1.242   4.560 -1.0817  0.0566  0.6801
  307MOL0     H40501   1.640   1.076   4.527 -2.2026  1.2732  3.2120
  307MOL0     H40502   1.501   1.085   4.312 -1.5062  0.2362 -1.0584
  307MOL0     H40503   1.400   1.135   4.450 -2.4613  2.2999 -2.5196
  307MOL0     H40504   1.527   1.336   4.254  1.8817 -2.3169  1.8637
  307MOL0     H40505   1.459   1.377   4.407  2.9175 -0.9502  1.9952
  307MOL0     H40506   2.587   1.241   4.659  1.3114  1.7676  1.3916
  307MOL0     H40507   2.801   1.228   4.583 -0.1218  1.1297  0.2499
  307MOL0     H40508   3.162   1.580   4.168  0.3991 -2.5771 -1.9568
  307MOL0     H40509   3.397   1.609   4.228  0.3103  0.7212  0.7167
  307MOL0     H40510   4.839   2.616   3.836 -0.9583 -0.2870  1.1533
  307MOL0     H40511   4.993   2.712   3.678  0.0667 -0.9677 -0.0740
  307MOL0     H40512   5.468   2.875   3.760  1.1955 -4.0289 -1.9779
  307MOL0     H40513   5.652   2.943   3.611  1.0519  3.8895  0.7180
  307MOL0     H40514   5.775   2.961   3.431 -2.6292  0.3489  4.3515
  307MOL0     H40515   5.792   3.118   3.503 -0.7615 -0.9549  0.4017
  307MOL0     H40516   5.822   3.043   3.202  2.4111  0.8942 -0.6175
  307MOL0     H40517   5.770   3.199   3.236 -0.4677 -0.0242 -2.3954
  307MOL0     H40518   6.031   3.088   3.354  0.1211  1.8887  0.9965
  307MOL0     H40519   5.975   3.259   3.376  1.8013  2.7098 -2.4083
  307MOL0     H40520   6.047   3.108   3.118 -2.3002  1.1161 -0.9695
  307MOL0     H40521   5.999   3.272   3.117  1.8211  0.9173 -0.8285
  307MOL0     H40522   6.400   3.298   3.260  1.4045 -1.3010 -2.2432
  307MOL0     H40523   5.391   3.133   3.348 -1.9798 -0.4875 -0.2796
  307MOL0     H40524   5.197   3.073   3.497  0.4799  1.2024 -0.0103
  308MOL0     O40525   6.809   5.473  10.288  0.0941  0.5562  0.0226
  308MOL0     C40526   6.845   5.540  10.188  0.4729 -0.0180  0.3474
  308MOL0     O40527   6.766   5.550  10.076  0.0749 -0.7540 -0.1030
  308MOL0     C40528   6.630   5.525  10.095 -0.1693 -0.0392 -0.6164
  308MOL0     C40529   6.580   5.387  10.086 -0.3260  0.7529 -0.4712
  308MOL0     C40530   6.455   5.352  10.115  0.6989 -0.2741 -0.7173
  308MOL0     C40531   6.354   5.455  10.140  0.2913 -0.0471  0.2410
  308MOL0     O40532   6.224   5.425  10.169  0.8724  0.1279 -0.5929
  308MOL0     C40533   6.149   5.387  10.057  0.1063  0.0425 -0.6841
  308MOL0     C40534   6.015   5.334  10.106 -0.3433 -0.9863 -0.2903
  308MOL0     C40535   5.930   5.429  10.194  0.2909 -0.3270  0.2662
  308MOL0     C40536   5.802   5.359  10.247 -0.3758  0.1860 -0.5167
  308MOL0     C40537   5.710   5.438  10.332 -0.2239 -1.3044 -0.5052
  308MOL0     C40538   5.571   5.388  10.338  0.3618  0.0734  0.4486
  308MOL0     C40539   5.473   5.466  10.441 -0.2261  0.1079 -0.2599
  308MOL0     C40540   5.512   5.457  10.587  0.1430  0.5915 -0.1977
  308MOL0     N40541   5.389   5.501  10.669 -0.3474 -0.6880  0.4700
  308MOL0     C40542   5.287   5.428  10.719  0.2979 -0.0398 -0.2836
  308MOL0     C40543   5.200   5.517  10.771 -0.7721 -0.5764 -0.9594
  308MOL0     C40544   5.085   5.481  10.843  0.3351  0.1994  0.1050
  308MOL0     C40545   5.101   5.520  10.988  0.3772 -0.0608  0.4096
  308MOL0     C40546   4.982   5.608  11.044 -0.4623  0.1052 -0.9041
  308MOL0     C40547   4.838   5.573  11.022 -0.2015 -0.5310  0.4443
  308MOL0     O40548   4.819   5.435  11.055 -0.4349 -0.2648 -0.0759
  308MOL0     C40549   4.689   5.401  11.100 -0.9220 -0.5166  1.2764
  308MOL0     C40550   4.576   5.446  11.039  0.2741 -1.1601  0.8431
  308MOL0     C40551   4.452   5.386  11.076 -0.9600 -0.3961  0.3691
  308MOL0     C40552   4.445   5.284  11.176  0.4779  0.0145 -0.0785
  308MOL0     C40553   4.313   5.237  11.233 -0.0671  0.4049 -0.4084
  308MOL0     O40554   4.195   5.308  11.223 -0.1068  0.1030  0.3596
  308MOL0     C40555   4.079   5.286  11.288  0.6193  0.0838 -0.4193
  308MOL0     C40556   3.972   5.374  11.248 -0.4345  0.7439  0.4408
  308MOL0     C40557   3.841   5.367  11.302 -0.4055  1.5770  0.5170
  308MOL0     C40558   3.809   5.277  11.401  0.5793  0.5015  0.4225
  308MOL0     O40559   3.676   5.272  11.442  0.2312  0.6252 -0.1296
  308MOL0     C40560   3.640   5.221  11.574 -0.3538  0.1263  0.5714
  308MOL0     C40561   3.489   5.238  11.599 -0.5062  0.9196  0.0048
  308MOL0     C40562   3.465   5.203  11.756 -0.5754 -0.3890  0.5471
  308MOL0     C40563   3.316   5.183  11.784  0.1616  1.2128 -0.1582
  308MOL0     C40564   3.252   5.323  11.789  1.4146 -0.5283  0.0918
  308MOL0     C40565   3.102   5.312  11.788  0.3855  0.2949  0.0700
  308MOL0     C40566   3.035   5.449  11.794 -0.3362  0.6553 -0.0423
  308MOL0     C40567   2.878   5.428  11.808 -0.2742 -0.4613 -0.3304
  308MOL0    Cl40568   2.838   5.360  11.977 -0.1502  0.0007 -0.1081
  308MOL0     C40569   3.915   5.190  11.440  0.2442 -0.2928 -0.7006
  308MOL0     C40570   4.042   5.195  11.387 -1.1687 -0.1870 -0.6772
  308MOL0     O40571   4.321   5.126  11.286 -0.2182  0.3102  0.3313
  308MOL0     C40572   4.564   5.239  11.236  0.8753  0.9013 -0.1849
  308MOL0     C40573   4.678   5.298  11.194 -0.2861  0.7625  0.5039
  308MOL0     N40574   5.252   5.643  10.733  0.4538 -0.1805  0.1866
  308MOL0     N40575   5.368   5.633  10.675 -0.3756 -0.0764 -0.2151
  308MOL0     C40576   6.392   5.588  10.157  0.5487  0.6734  0.0392
  308MOL0     C40577   6.530   5.617  10.126 -0.4082  0.0345  0.2225
  308MOL0     C40578   6.978   5.611  10.196  0.1224  0.0875  0.6902
  308MOL0     C40579   7.027   5.677  10.078 -0.9258  0.1738 -0.5400
  308MOL0     C40580   7.153   5.743  10.085  0.1818 -0.4496 -0.5303
  308MOL0     C40581   7.224   5.748  10.205 -0.4822 -0.0515 -0.4043
  308MOL0     O40582   7.342   5.823  10.229  1.3195  0.3352 -0.1311
  308MOL0     C40583   7.399   5.894  10.116 -0.3246 -0.2046 -0.9470
  308MOL0     C40584   7.486   5.800  10.034 -0.3187  0.4762  0.7382
  308MOL0     C40585   7.623   5.760  10.109  0.5675  0.6028  0.2153
  308MOL0     C40586   7.594   5.675  10.242  0.2582  0.9235  0.3501
  308MOL0     C40587   7.715   5.602  10.267  0.2136  0.6758 -0.4609
  308MOL0     C40588   7.826   5.564  10.305  0.5218  0.6415  0.2734
  308MOL0     C40589   7.166   5.692  10.328 -0.0322  0.5936  0.2384
  308MOL0     C40590   7.047   5.630  10.319  0.4393 -0.0617 -0.3249
  308MOL0     H40591   6.652   5.310  10.064 -0.3098  1.0619 -1.5413
  308MOL0     H40592   6.410   5.253  10.109  0.1201 -0.2888  2.2378
  308MOL0     H40593   6.190   5.308   9.993  0.6729 -0.7139  0.5801
  308MOL0     H40594   6.131   5.473   9.991  2.5393 -0.0857 -1.6277
  308MOL0     H40595   6.038   5.246  10.166 -2.9410 -1.2575  0.4367
  308MOL0     H40596   5.949   5.304  10.025 -1.0912  0.4514 -0.2473
  308MOL0     H40597   5.901   5.521  10.142  1.5256  0.5717  1.1246
  308MOL0     H40598   5.991   5.474  10.272  0.0360  4.0195 -1.7171
  308MOL0     H40599   5.746   5.310  10.167  0.7189  1.3726 -2.0732
  308MOL0     H40600   5.835   5.272  10.305  1.3264  1.6007  0.7561
  308MOL0     H40601   5.710   5.545  10.313  0.6097 -0.6601  2.5607
  308MOL0     H40602   5.754   5.449  10.432 -1.0611 -0.1735 -0.2348
  308MOL0     H40603   5.567   5.285  10.377 -1.7693  0.6577  1.9744
  308MOL0     H40604   5.523   5.384  10.240  1.3651 -0.0241 -0.0507
  308MOL0     H40605   5.462   5.570  10.412  0.5928  0.7556  1.6278
  308MOL0     H40606   5.372   5.424  10.429 -1.2871  2.2548  0.6744
  308MOL0     H40607   5.596   5.527  10.598 -0.8236  1.4910  2.0903
  308MOL0     H40608   5.524   5.354  10.621 -0.1846 -0.2709 -2.5228
  308MOL0     H40609   5.283   5.321  10.735  2.2492 -0.2410 -0.8891
  308MOL0     H40610   5.057   5.376  10.829  1.9906 -0.1575 -0.6912
  308MOL0     H40611   5.000   5.537  10.802 -2.0024 -3.1426 -0.0480
  308MOL0     H40612   5.191   5.581  10.992  0.5624 -0.1877 -1.1562
  308MOL0     H40613   5.108   5.439  11.061  0.9870 -0.6761 -0.3169
  308MOL0     H40614   4.991   5.613  11.153  0.0336  0.9556 -0.9664
  308MOL0     H40615   5.004   5.708  11.004 -0.7862  0.7852  0.5363
  308MOL0     H40616   4.797   5.600  10.924  0.0840 -1.8989 -0.0784
  308MOL0     H40617   4.776   5.633  11.090 -1.0231  0.5417 -1.1909
  308MOL0     H40618   4.585   5.519  10.959  0.8459 -1.3995  0.6868
  308MOL0     H40619   4.359   5.419  11.032 -1.0918  0.8793  1.5478
  308MOL0     H40620   4.002   5.430  11.160 -1.9546 -0.5367 -0.9436
  308MOL0     H40621   3.758   5.412  11.249 -0.3612 -1.3968 -2.3555
  308MOL0     H40622   3.705   5.268  11.648  1.9404  0.9430 -1.8141
  308MOL0     H40623   3.658   5.113  11.577  0.9705  0.3289  0.2016
  308MOL0     H40624   3.443   5.168  11.528  2.3719 -2.3360  1.0804
  308MOL0     H40625   3.454   5.340  11.583  2.5505  1.6263 -3.3594
  308MOL0     H40626   3.492   5.294  11.809 -0.7763  0.6019 -0.9726
  308MOL0     H40627   3.529   5.118  11.782 -0.8020  0.1514  3.1006
  308MOL0     H40628   3.276   5.116  11.707 -1.5456 -0.4873  2.0700
  308MOL0     H40629   3.314   5.135  11.882  1.2788  3.0977  0.8545
  308MOL0     H40630   3.284   5.382  11.703 -0.6904  0.4069 -0.1141
  308MOL0     H40631   3.285   5.382  11.875  1.2252  1.4605 -1.1575
  308MOL0     H40632   3.085   5.260  11.882 -1.8373  1.3472  0.2981
  308MOL0     H40633   3.057   5.265  11.701 -2.4190  2.9992 -0.1236
  308MOL0     H40634   3.077   5.510  11.874  2.0919 -0.1827 -0.5723
  308MOL0     H40635   3.064   5.496  11.699  4.4624  1.9143  1.7538
  308MOL0     H40636   2.834   5.366  11.729  1.3972 -1.1600 -0.7477
  308MOL0     H40637   2.825   5.524  11.810 -0.9932 -0.8523  0.5064
  308MOL0     H40638   3.894   5.113  11.513  5.9670 -1.5294  0.1191
  308MOL0     H40639   4.118   5.123  11.414 -0.1729  0.7300 -0.9843
  308MOL0     H40640   4.553   5.162  11.312  0.4537 -0.2156 -1.3348
  308MOL0     H40641   4.771   5.269  11.243  1.6771  3.0027 -1.6319
  308MOL0     H40642   6.309   5.658  10.167 -0.5751 -0.3070 -1.7947
  308MOL0     H40643   6.567   5.719  10.129 -0.2204  0.0108 -0.8227
  308MOL0     H40644   6.959   5.679   9.994 -1.1353  1.2687 -0.3516
  308MOL0     H40645   7.192   5.784   9.992  0.8905  3.4057  1.2583
  308MOL0     H40646   7.474   5.963  10.156  1.2192 -3.1791  1.8306
  308MOL0     H40647   7.331   5.947  10.050  0.2509 -0.5953 -1.8659
  308MOL0     H40648   7.427   5.713  10.006 -2.3080  1.4488  1.6909
  308MOL0     H40649   7.512   5.856   9.944  1.5346 -2.9227 -1.0173
  308MOL0     H40650   7.672   5.854  10.138 -0.9788  2.4644 -2.6920
  308MOL0     H40651   7.680   5.702  10.036 -0.7555  0.2840 -0.5888
  308MOL0     H40652   7.577   5.739  10.329  1.2814 -1.1363  2.1383
  308MOL0     H40653   7.521   5.595  10.225 -0.3406  1.8238 -1.7277
  308MOL0     H40654   7.922   5.557  10.351 -1.4032 -0.2882  4.6822
  308MOL0     H40655   7.210   5.711  10.425  0.5035  2.4545 -0.3163
  308MOL0     H40656   7.005   5.597  10.413  0.8779 -0.3357 -0.2235
  309MOL0     O40657   4.708   1.197   7.410 -0.2402  0.1149  0.2983
  309MOL0     C40658   4.701   1.188   7.530  0.0776 -0.2921  0.2541
  309MOL0     O40659   4.794   1.231   7.621  0.7060  0.5064  0.6913
  309MOL0     C40660   4.909   1.282   7.573 -0.3409  0.1165 -0.2854
  309MOL0     C40661   4.934   1.421   7.584  0.1281  0.2816 -0.5920
  309MOL0     C40662   5.036   1.487   7.515  0.7006  0.0867 -1.1399
  309MOL0     C40663   5.135   1.411   7.456  0.2101 -0.0531 -0.8713
  309MOL0     O40664   5.255   1.452   7.395 -0.1690 -0.2044  0.5502
  309MOL0     C40665   5.280   1.591   7.405  0.0041 -0.9617 -0.1827
  309MOL0     C40666   5.406   1.601   7.321 -0.7289  0.5066 -0.1077
  309MOL0     C40667   5.455   1.746   7.326 -0.0189  0.4954  0.7599
  309MOL0     C40668   5.560   1.780   7.217 -0.2210 -0.3424 -0.2490
  309MOL0     C40669   5.585   1.932   7.207  0.4737  0.1642 -0.7901
  309MOL0     C40670   5.656   1.969   7.080  0.3466 -0.1302 -0.2315
  309MOL0     C40671   5.694   2.120   7.067 -1.4519  0.8985 -0.5782
  309MOL0     C40672   5.763   2.159   6.944 -0.8781 -0.1535 -0.5140
  309MOL0     N40673   5.660   2.173   6.843  0.4028 -0.4560  0.3963
  309MOL0     C40674   5.670   2.131   6.713 -0.6546 -0.4395  0.0758
  309MOL0     C40675   5.583   2.195   6.643 -0.1194  0.1514  0.0981
  309MOL0     C40676   5.546   2.180   6.492 -0.3959  0.5365 -0.6992
  309MOL0     C40677   5.631   2.263   6.398 -0.4743 -0.7517  0.4863
  309MOL0     C40678   5.782   2.238   6.414  0.4424  0.0732  0.4769
  309MOL0     C40679   5.811   2.099   6.371  0.1645  0.5065  0.9166
  309MOL0     O40680   5.952   2.079   6.361 -0.1386  0.1528 -0.3452
  309MOL0     C40681   6.010   2.109   6.238  0.8384  0.3122  0.3808
  309MOL0     C40682   6.151   2.105   6.224  0.5045  0.0925 -0.2234
  309MOL0     C40683   6.215   2.136   6.107  0.1719 -0.0410  0.7442
  309MOL0     C40684   6.146   2.181   5.991 -0.1531 -0.4027  0.1153
  309MOL0     C40685   6.216   2.205   5.864  0.0471  0.3025 -0.1719
  309MOL0     O40686   6.347   2.167   5.869  0.0171  0.1824 -0.6616
  309MOL0     C40687   6.396   2.144   5.751 -0.0312 -0.3963 -0.0963
  309MOL0     C40688   6.400   2.016   5.691  0.1533 -0.1748 -0.0383
  309MOL0     C40689   6.467   1.994   5.574 -0.0152  0.0375 -0.6061
  309MOL0     C40690   6.550   2.097   5.522 -1.0870 -0.0031  0.3711
  309MOL0     O40691   6.631   2.086   5.414  0.6449 -0.2603 -0.3315
  309MOL0     C40692   6.662   1.953   5.364  0.3667 -0.9287  1.3064
  309MOL0     C40693   6.770   1.985   5.252  0.2145 -0.4053 -0.7756
  309MOL0     C40694   6.796   1.856   5.168  0.0201 -0.3058  0.1624
  309MOL0     C40695   6.919   1.881   5.079 -0.3321 -0.6628 -0.1007
  309MOL0     C40696   6.949   1.760   4.997 -0.5566 -0.2197 -0.0776
  309MOL0     C40697   7.075   1.774   4.912  0.0946 -0.2354 -0.2455
  309MOL0     C40698   7.088   1.654   4.813  0.1018  0.9395  0.6205
  309MOL0     C40699   7.224   1.664   4.741 -1.0594 -0.2536 -0.0691
  309MOL0    Cl40700   7.365   1.653   4.852 -0.3114  0.1582  0.1178
  309MOL0     C40701   6.551   2.221   5.581  0.3298 -0.7062 -0.3836
  309MOL0     C40702   6.477   2.249   5.695  0.4012  0.3965  0.4327
  309MOL0     O40703   6.148   2.253   5.775  0.4189 -0.2564  0.1904
  309MOL0     C40704   6.005   2.188   6.009  0.2863  0.6658  0.6302
  309MOL0     C40705   5.944   2.165   6.130  0.0227 -0.2332  0.0694
  309MOL0     N40706   5.525   2.289   6.727 -0.2461  0.5820  0.2364
  309MOL0     N40707   5.564   2.266   6.847 -0.2811  0.0279 -0.5041
  309MOL0     C40708   5.123   1.265   7.455  0.5854 -0.1014 -0.9104
  309MOL0     C40709   5.010   1.208   7.508 -0.2011  0.3694  0.9995
  309MOL0     C40710   4.569   1.163   7.576  0.4468 -0.3047  0.2277
  309MOL0     C40711   4.485   1.079   7.505  0.9523  0.6105  0.2869
  309MOL0     C40712   4.344   1.076   7.540 -0.1410  0.2451  0.1828
  309MOL0     C40713   4.296   1.134   7.651  0.3156 -0.1485  0.6567
  309MOL0     O40714   4.165   1.138   7.681 -0.5970  0.6893  0.3656
  309MOL0     C40715   4.076   1.046   7.614 -0.0002 -0.5585 -0.6436
  309MOL0     C40716   3.938   1.064   7.674 -0.4139  0.5835  0.1909
  309MOL0     C40717   3.865   0.931   7.677 -0.1676  0.1923 -0.1653
  309MOL0     C40718   3.747   0.932   7.583 -0.3539 -0.2095 -0.5935
  309MOL0     C40719   3.700   0.795   7.574  0.3844  0.4651  0.0289
  309MOL0     C40720   3.637   0.689   7.576  0.4060  0.0733 -0.1458
  309MOL0     C40721   4.389   1.203   7.731 -0.2740 -0.1911  0.3842
  309MOL0     C40722   4.520   1.227   7.693  0.8543  0.1103 -0.2290
  309MOL0     H40723   4.861   1.481   7.638  1.6411  3.5104 -1.8496
  309MOL0     H40724   5.042   1.595   7.499 -1.3697  0.3560 -0.3745
  309MOL0     H40725   5.300   1.620   7.509 -0.1616  3.2863 -1.1495
  309MOL0     H40726   5.198   1.653   7.368  0.1007  0.4371  1.7374
  309MOL0     H40727   5.376   1.576   7.219  0.5047  0.7560 -0.5450
  309MOL0     H40728   5.483   1.528   7.348 -0.4040 -0.8550 -4.0972
  309MOL0     H40729   5.504   1.765   7.422  0.0200  1.3566  0.5840
  309MOL0     H40730   5.375   1.821   7.322 -0.8577 -0.3664  0.9203
  309MOL0     H40731   5.650   1.724   7.243 -0.0542 -0.4481 -1.0221
  309MOL0     H40732   5.525   1.743   7.120  0.0710  0.2560 -0.5937
  309MOL0     H40733   5.628   1.974   7.298  0.2784 -3.6095  1.2728
  309MOL0     H40734   5.483   1.972   7.204  0.2830 -0.3345 -1.1632
  309MOL0     H40735   5.590   1.948   6.995 -3.6059  2.2676  1.8823
  309MOL0     H40736   5.746   1.908   7.072  1.1019  0.3985  2.8402
  309MOL0     H40737   5.603   2.177   7.086 -1.8846  1.8276 -4.5365
  309MOL0     H40738   5.762   2.142   7.149 -1.0750  0.2422 -0.7002
  309MOL0     H40739   5.831   2.079   6.913 -1.6518 -0.6524 -0.9702
  309MOL0     H40740   5.819   2.252   6.958 -2.5157  0.4185  3.6600
  309MOL0     H40741   5.735   2.052   6.677  1.7098  2.3824 -2.3602
  309MOL0     H40742   5.442   2.207   6.477 -0.6318 -1.2450 -2.8094
  309MOL0     H40743   5.560   2.075   6.463 -1.8350  0.2572 -0.4171
  309MOL0     H40744   5.607   2.368   6.415  4.3514  0.4951  1.2394
  309MOL0     H40745   5.603   2.244   6.294 -1.0855  0.5793  0.3966
  309MOL0     H40746   5.826   2.315   6.350 -3.2310  1.7912 -0.2538
  309MOL0     H40747   5.826   2.260   6.511  3.2379  0.0871 -0.6945
  309MOL0     H40748   5.772   2.066   6.274  0.2378  0.0812  1.0281
  309MOL0     H40749   5.762   2.028   6.438 -0.5454 -0.1000 -0.2114
  309MOL0     H40750   6.216   2.073   6.305 -1.8802 -3.1310  0.6191
  309MOL0     H40751   6.322   2.117   6.105 -0.1813 -2.3235  0.6799
  309MOL0     H40752   6.343   1.941   5.746 -1.1465 -1.3839 -2.8547
  309MOL0     H40753   6.460   1.892   5.536 -2.6759 -0.8470  1.9619
  309MOL0     H40754   6.569   1.920   5.317  0.1380 -0.6096  1.5313
  309MOL0     H40755   6.698   1.880   5.437  1.6847  0.7721  2.4559
  309MOL0     H40756   6.868   2.007   5.295  0.1544 -1.1643 -0.2239
  309MOL0     H40757   6.744   2.072   5.191  3.4104  1.1110 -0.1618
  309MOL0     H40758   6.710   1.833   5.105 -1.1573  1.3132  1.1097
  309MOL0     H40759   6.812   1.771   5.235 -1.0329 -1.7930 -1.3962
  309MOL0     H40760   6.888   1.964   5.016 -0.3292 -0.7611 -0.2306
  309MOL0     H40761   6.999   1.914   5.147  0.8513  2.0398 -2.6175
  309MOL0     H40762   6.857   1.733   4.945 -0.3642 -0.9989 -0.0327
  309MOL0     H40763   6.968   1.670   5.056  1.4484 -0.7908 -1.5040
  309MOL0     H40764   7.164   1.784   4.975 -1.1858 -1.2380  1.8309
  309MOL0     H40765   7.066   1.871   4.862 -0.5412 -0.6687 -0.9850
  309MOL0     H40766   7.088   1.567   4.880 -0.4585  0.4251 -0.0330
  309MOL0     H40767   7.003   1.643   4.746  0.6641 -0.5764  0.0996
  309MOL0     H40768   7.217   1.753   4.678 -0.1684 -1.2597 -1.6685
  309MOL0     H40769   7.236   1.578   4.674  0.4350 -0.0667 -0.0691
  309MOL0     H40770   6.626   2.286   5.538  0.5134 -0.4200  0.3485
  309MOL0     H40771   6.485   2.349   5.738  2.2415 -0.0118  1.1305
  309MOL0     H40772   5.938   2.209   5.926 -2.8505 -0.7834  2.5979
  309MOL0     H40773   5.840   2.197   6.133 -0.6230 -2.1015 -0.5803
  309MOL0     H40774   5.191   1.203   7.396 -1.5373 -2.0076 -1.5055
  309MOL0     H40775   4.986   1.103   7.497 -2.2773  0.9716 -0.7121
  309MOL0     H40776   4.512   1.027   7.414  4.0661  3.9727 -0.9938
  309MOL0     H40777   4.279   1.026   7.469 -1.8705  2.2793  0.2311
  309MOL0     H40778   4.119   0.946   7.621 -0.3410 -0.7196 -0.8306
  309MOL0     H40779   4.083   1.075   7.509 -1.9010  0.8304 -0.4386
  309MOL0     H40780   3.955   1.104   7.775  1.7790 -0.9277  0.4672
  309MOL0     H40781   3.880   1.141   7.622 -2.2032 -0.7900  0.0680
  309MOL0     H40782   3.827   0.897   7.774  0.5684 -2.3374 -0.6893
  309MOL0     H40783   3.933   0.853   7.642  1.2201  2.6675 -3.5538
  309MOL0     H40784   3.664   0.998   7.611  3.0198  4.3968 -0.3327
  309MOL0     H40785   3.781   0.963   7.483 -1.7289 -0.0542 -1.0397
  309MOL0     H40786   3.588   0.593   7.577  4.0991 -1.9820  0.9167
  309MOL0     H40787   4.353   1.243   7.825 -0.3918 -0.7951  0.6000
  309MOL0     H40788   4.598   1.283   7.743  3.0517 -0.1648 -3.0489
  310MOL0     O40789   2.792   8.765   6.289 -0.1340  0.6657  0.3790
  310MOL0     C40790   2.788   8.709   6.396  0.2222  0.5533  0.2101
  310MOL0     O40791   2.674   8.662   6.454 -0.6440  0.7191  0.2778
  310MOL0     C40792   2.548   8.673   6.397  0.4167  0.4510 -0.5769
  310MOL0     C40793   2.509   8.726   6.278  0.0560 -0.9037 -0.0374
  310MOL0     C40794   2.369   8.724   6.241 -0.1435  0.8360 -0.5098
  310MOL0     C40795   2.277   8.667   6.326  0.2625 -0.7995 -0.0817
  310MOL0     O40796   2.137   8.666   6.304 -0.2683 -0.5037 -0.0513
  310MOL0     C40797   2.093   8.734   6.185 -0.2882  0.2551  0.1371
  310MOL0     C40798   1.946   8.762   6.202 -0.3815  0.8770 -0.1100
  310MOL0     C40799   1.862   8.628   6.207 -0.4154  0.1146 -0.6530
  310MOL0     C40800   1.705   8.652   6.183 -0.9960  0.1816 -0.0421
  310MOL0     C40801   1.642   8.764   6.266 -0.3886 -0.2516 -0.7025
  310MOL0     C40802   1.495   8.787   6.248 -0.9766  0.2385 -0.3871
  310MOL0     C40803   1.403   8.666   6.254  0.3388  0.0879  0.5262
  310MOL0     C40804   1.259   8.722   6.270 -1.2925  0.8752 -0.2147
  310MOL0     N40805   1.211   8.774   6.137  0.4343 -0.2827 -0.0037
  310MOL0     C40806   1.123   8.705   6.057 -0.2342  0.8368  0.2831
  310MOL0     C40807   1.075   8.793   5.972  0.9976  0.3696 -0.3502
  310MOL0     C40808   0.968   8.765   5.870  0.4181 -0.2399 -0.5867
  310MOL0     C40809   0.878   8.886   5.821  0.5364 -0.4612  0.9583
  310MOL0     C40810   0.813   8.852   5.689  0.0680 -0.3934  0.1548
  310MOL0     C40811   0.739   8.967   5.635  0.4306 -0.2957 -0.3840
  310MOL0     O40812   0.641   9.002   5.721  0.2259 -0.2362 -0.2723
  310MOL0     C40813   0.523   8.943   5.713  1.0029  0.0881  0.0984
  310MOL0     C40814   0.424   8.988   5.796 -0.0770  0.5442 -0.4970
  310MOL0     C40815   0.291   8.934   5.808  0.3683  0.6601  0.5235
  310MOL0     C40816   0.254   8.833   5.715  0.5927  0.2078  0.2639
  310MOL0     C40817   0.114   8.782   5.706 -0.2428 -0.1749 -1.5660
  310MOL0     O40818   0.083   8.726   5.589  0.5235 -0.3574  0.0669
  310MOL0     C40819  -0.055   8.716   5.566  0.6224  0.9248 -0.2727
  310MOL0     C40820  -0.121   8.603   5.607 -0.5272 -0.7814 -0.3589
  310MOL0     C40821  -0.263   8.586   5.586  0.1498 -0.6858 -0.2255
  310MOL0     C40822  -0.338   8.690   5.522  0.9082 -0.6068 -0.5294
  310MOL0     O40823  -0.471   8.696   5.497 -0.5195 -0.0978  0.0422
  310MOL0     C40824  -0.554   8.601   5.569  0.2490 -1.1752 -0.2365
  310MOL0     C40825  -0.692   8.663   5.573  0.1645 -0.2418 -0.3343
  310MOL0     C40826  -0.799   8.568   5.618  0.0985  0.5349  0.7240
  310MOL0     C40827  -0.938   8.629   5.609 -0.0271 -0.0019 -0.5218
  310MOL0     C40828  -1.036   8.515   5.615  0.4155  0.2182 -0.0577
  310MOL0     C40829  -1.178   8.562   5.648 -0.2818 -0.6518 -0.8390
  310MOL0     C40830  -1.286   8.454   5.641  1.1902 -0.1210  0.0557
  310MOL0     C40831  -1.412   8.523   5.696  0.1063 -0.3980  0.5365
  310MOL0    Cl40832  -1.543   8.411   5.664 -0.0907  0.0454 -0.2186
  310MOL0     C40833  -0.263   8.802   5.486  0.8597  0.8053 -0.3162
  310MOL0     C40834  -0.124   8.814   5.497  0.3794 -1.2360  0.3955
  310MOL0     O40835   0.036   8.817   5.800  0.2907  0.2406 -0.2049
  310MOL0     C40836   0.356   8.792   5.628  0.3020  0.2544  0.2763
  310MOL0     C40837   0.487   8.835   5.629  0.3580 -0.0993  0.3860
  310MOL0     N40838   1.128   8.916   6.013  0.3908 -0.0152  0.0505
  310MOL0     N40839   1.197   8.905   6.116 -0.8143 -0.0672 -0.3057
  310MOL0     C40840   2.317   8.624   6.452 -0.1489  0.5092 -0.2638
  310MOL0     C40841   2.452   8.621   6.487  0.3099 -0.5080 -0.2207
  310MOL0     C40842   2.913   8.703   6.473 -0.3042 -0.0217  0.1296
  310MOL0     C40843   3.036   8.750   6.420  0.2532  0.5504 -0.4816
  310MOL0     C40844   3.153   8.735   6.501  0.4339  0.0650  0.8224
  310MOL0     C40845   3.153   8.698   6.634 -0.1385 -0.1496  0.0902
  310MOL0     O40846   3.269   8.711   6.706  0.4379  0.0657  0.2537
  310MOL0     C40847   3.278   8.654   6.842 -0.9139 -0.4077  0.6435
  310MOL0     C40848   3.425   8.669   6.879 -0.3288  0.4642  0.4102
  310MOL0     C40849   3.525   8.603   6.778 -0.5103 -0.0727 -0.0808
  310MOL0     C40850   3.497   8.458   6.743 -0.3500  0.9206  0.0140
  310MOL0     C40851   3.490   8.362   6.853 -1.0630 -0.0439  0.1946
  310MOL0     C40852   3.483   8.295   6.949 -0.6748 -1.1381 -0.3294
  310MOL0     C40853   3.026   8.681   6.691 -0.0922  0.1510 -0.8223
  310MOL0     C40854   2.916   8.673   6.617 -1.2503 -0.2059 -0.1907
  310MOL0     H40855   2.583   8.758   6.206 -0.6776  0.9783 -0.0313
  310MOL0     H40856   2.346   8.766   6.143 -0.6970  0.4269 -0.5595
  310MOL0     H40857   2.106   8.668   6.098 -2.9848  0.5853 -0.6049
  310MOL0     H40858   2.150   8.826   6.171  0.4766 -0.4852 -2.0255
  310MOL0     H40859   1.916   8.812   6.110 -1.5553  1.5615  0.6294
  310MOL0     H40860   1.930   8.829   6.286  0.3666  0.4472  0.3890
  310MOL0     H40861   1.880   8.599   6.311 -1.3651  3.0515  0.4136
  310MOL0     H40862   1.901   8.561   6.129  0.5048  0.3103 -0.3706
  310MOL0     H40863   1.695   8.671   6.076 -0.8848 -4.9083 -1.2359
  310MOL0     H40864   1.653   8.557   6.198  1.2620 -1.2836 -0.9499
  310MOL0     H40865   1.687   8.855   6.225 -1.2252  0.5575  0.1237
  310MOL0     H40866   1.674   8.752   6.370 -2.6281  1.4880  0.2787
  310MOL0     H40867   1.487   8.840   6.152 -0.8071 -1.0218 -1.1094
  310MOL0     H40868   1.470   8.852   6.332 -0.2385 -1.1784  0.9602
  310MOL0     H40869   1.397   8.616   6.157 -2.3872  2.8895 -0.9248
  310MOL0     H40870   1.417   8.590   6.331  0.7464 -1.6241 -1.1661
  310MOL0     H40871   1.258   8.803   6.344  0.6410  1.7902 -1.1503
  310MOL0     H40872   1.195   8.637   6.298  0.8219 -1.1292 -1.1185
  310MOL0     H40873   1.078   8.606   6.060 -0.3635  0.6970 -3.2169
  310MOL0     H40874   0.904   8.680   5.893  0.3193  0.2531  1.0319
  310MOL0     H40875   1.030   8.727   5.787  0.1415  0.0291 -0.9166
  310MOL0     H40876   0.931   8.979   5.800 -1.7591  0.9616  1.2387
  310MOL0     H40877   0.796   8.894   5.893 -0.0683  1.0640  0.1328
  310MOL0     H40878   0.879   8.814   5.610  0.4147  2.1158 -0.8909
  310MOL0     H40879   0.740   8.776   5.714 -1.8181  1.3439  0.2000
  310MOL0     H40880   0.693   8.942   5.539  2.5340  0.0622 -1.5619
  310MOL0     H40881   0.798   9.057   5.614 -1.8473  0.8745 -2.2365
  310MOL0     H40882   0.431   9.076   5.859  0.9145  0.3388 -0.3058
  310MOL0     H40883   0.219   8.972   5.880  1.7761  0.4437  2.1217
  310MOL0     H40884  -0.060   8.525   5.652  0.0311 -0.0650  0.1522
  310MOL0     H40885  -0.313   8.495   5.616 -0.2205 -0.3166  0.2808
  310MOL0     H40886  -0.517   8.589   5.671  0.0908  1.2387  0.1535
  310MOL0     H40887  -0.563   8.505   5.517  3.2899 -1.4926 -0.3557
  310MOL0     H40888  -0.709   8.698   5.471  1.4760  0.2279 -0.4104
  310MOL0     H40889  -0.690   8.750   5.639  0.3763  1.0484 -1.9943
  310MOL0     H40890  -0.779   8.521   5.715  2.5937 -0.2814 -0.1082
  310MOL0     H40891  -0.794   8.486   5.546 -3.3232  0.8324 -0.0389
  310MOL0     H40892  -0.953   8.701   5.690  3.5750  1.6677 -1.1610
  310MOL0     H40893  -0.941   8.684   5.514 -0.1924  2.1079  0.6469
  310MOL0     H40894  -1.001   8.456   5.701 -0.7986 -1.4215 -0.6318
  310MOL0     H40895  -1.037   8.453   5.525  0.9097 -0.8505  0.6417
  310MOL0     H40896  -1.207   8.639   5.576  1.4494  1.3453  0.4909
  310MOL0     H40897  -1.180   8.598   5.751  2.2463 -2.3308 -0.1177
  310MOL0     H40898  -1.304   8.412   5.542 -1.7089 -2.3959  1.3992
  310MOL0     H40899  -1.264   8.373   5.711  0.1299 -0.5941 -0.1503
  310MOL0     H40900  -1.431   8.612   5.636 -1.3580 -3.5402 -4.2088
  310MOL0     H40901  -1.397   8.542   5.802  1.9404  0.4243  0.1627
  310MOL0     H40902  -0.311   8.883   5.434  1.9930  2.6121  1.3159
  310MOL0     H40903  -0.075   8.900   5.452 -2.5403 -0.4298 -1.5099
  310MOL0     H40904   0.330   8.717   5.554  0.5056  2.7559 -2.5268
  310MOL0     H40905   0.552   8.782   5.560 -0.2823  0.4187 -0.6410
  310MOL0     H40906   2.248   8.591   6.529  1.9018  0.0390  1.4665
  310MOL0     H40907   2.484   8.571   6.578 -0.3938 -0.5748 -0.0090
  310MOL0     H40908   3.048   8.774   6.315 -0.3841  2.2458 -0.2000
  310MOL0     H40909   3.253   8.744   6.460  1.2280 -0.2275  2.6006
  310MOL0     H40910   3.238   8.552   6.841  1.4906 -1.4651  2.3997
  310MOL0     H40911   3.223   8.713   6.916  0.3295  1.0380  0.4697
  310MOL0     H40912   3.446   8.776   6.877  1.6597  0.1290 -2.7596
  310MOL0     H40913   3.442   8.641   6.984 -3.3540  2.2373  1.5063
  310MOL0     H40914   3.630   8.602   6.808  0.5891  1.0065 -3.4773
  310MOL0     H40915   3.531   8.661   6.686  0.0143  2.0963  1.2562
  310MOL0     H40916   3.402   8.464   6.690  0.3370  0.6536 -1.3131
  310MOL0     H40917   3.571   8.424   6.669  0.1361  2.1741 -0.1063
  310MOL0     H40918   3.493   8.220   7.025 -2.3264 -0.9317  0.1209
  310MOL0     H40919   3.006   8.666   6.797 -0.4162 -1.3050 -1.0584
  310MOL0     H40920   2.827   8.657   6.677  0.3568 -2.2660  1.8153
  311MOL0     O40921   3.638   2.554   0.712  0.1689  0.0252  0.6096
  311MOL0     C40922   3.714   2.478   0.651  0.3957  0.7776 -0.3547
  311MOL0     O40923   3.672   2.372   0.571  0.2742  0.1767 -0.2158
  311MOL0     C40924   3.537   2.344   0.567 -0.0703 -0.2486  0.5316
  311MOL0     C40925   3.458   2.420   0.488  0.4799  1.0704  0.6191
  311MOL0     C40926   3.322   2.399   0.480 -0.1741  0.8459  0.5267
  311MOL0     C40927   3.267   2.282   0.555  0.1141 -0.2933 -0.2051
  311MOL0     O40928   3.141   2.237   0.530  0.3097 -0.3120  0.1721
  311MOL0     C40929   3.055   2.229   0.647 -0.8727 -0.7213  0.5325
  311MOL0     C40930   2.922   2.178   0.607 -0.1285  1.4074  0.0425
  311MOL0     C40931   2.915   2.031   0.570 -0.4108 -0.1751 -0.0339
  311MOL0     C40932   2.770   1.977   0.542 -0.2643 -0.3395 -1.4185
  311MOL0     C40933   2.681   1.982   0.676  0.8103  0.4987  0.1636
  311MOL0     C40934   2.567   1.883   0.656  0.5860 -0.2729  0.1415
  311MOL0     C40935   2.472   1.884   0.785 -0.0369 -0.4341 -0.5333
  311MOL0     C40936   2.400   2.022   0.805  0.2192  0.2302  0.6206
  311MOL0     N40937   2.275   2.014   0.888  0.7157 -0.5423 -0.1709
  311MOL0     C40938   2.152   1.960   0.838 -0.0079 -0.1734 -0.9459
  311MOL0     C40939   2.078   1.961   0.950  0.5049 -0.0902 -0.6449
  311MOL0     C40940   1.935   1.937   0.963  0.5297 -0.2398 -0.4776
  311MOL0     C40941   1.859   2.039   0.883  0.3720  0.0835  0.1292
  311MOL0     C40942   1.719   2.058   0.950  0.8836  0.3490  0.3350
  311MOL0     C40943   1.634   2.158   0.867  0.3390  1.1709  0.3245
  311MOL0     O40944   1.566   2.087   0.755 -0.4906  0.7341 -0.7795
  311MOL0     C40945   1.441   2.032   0.775 -0.5778 -1.1228  0.3785
  311MOL0     C40946   1.373   2.015   0.653  0.2792  0.3320  0.3716
  311MOL0     C40947   1.242   1.972   0.656 -0.2446 -0.4931  0.7057
  311MOL0     C40948   1.185   1.924   0.774  0.7188  0.0744  0.2103
  311MOL0     C40949   1.044   1.867   0.772 -0.2916  0.1821  0.2068
  311MOL0     O40950   0.985   1.863   0.653  0.2656  0.0999 -0.2503
  311MOL0     C40951   0.869   1.788   0.631 -0.2208 -0.1661 -0.8030
  311MOL0     C40952   0.790   1.714   0.712 -0.0606  0.6468  0.2089
  311MOL0     C40953   0.666   1.661   0.679  0.7930 -0.4443 -0.1291
  311MOL0     C40954   0.618   1.683   0.544 -0.3861 -0.5548 -0.7097
  311MOL0     O40955   0.505   1.635   0.494 -0.7637  0.4468  0.3062
  311MOL0     C40956   0.458   1.511   0.552  0.8261 -0.6360  0.0560
  311MOL0     C40957   0.353   1.446   0.456  1.1231  0.5097 -0.1497
  311MOL0     C40958   0.353   1.298   0.471  0.4406  0.2577 -0.4255
  311MOL0     C40959   0.269   1.234   0.587  0.2782  0.0110  0.4354
  311MOL0     C40960   0.276   1.084   0.587 -0.3781  0.1299  0.1688
  311MOL0     C40961   0.170   1.030   0.696 -1.3655 -0.2161  0.5400
  311MOL0     C40962   0.140   0.879   0.688  0.5352  0.7043 -0.1279
  311MOL0     C40963   0.056   0.833   0.807  0.4172  1.3458  0.7795
  311MOL0    Cl40964  -0.094   0.943   0.820 -0.0672 -0.0453  0.0767
  311MOL0     C40965   0.697   1.761   0.460  0.3386 -0.4283  0.2531
  311MOL0     C40966   0.818   1.811   0.510 -0.1105 -0.3423  0.4807
  311MOL0     O40967   0.993   1.823   0.879 -0.7603 -0.5418  0.1043
  311MOL0     C40968   1.260   1.943   0.894  0.0677 -0.1612 -0.6156
  311MOL0     C40969   1.390   1.987   0.894  1.0288 -0.0043 -0.6300
  311MOL0     N40970   2.152   2.005   1.060  0.1845 -0.0421 -0.2937
  311MOL0     N40971   2.265   2.035   1.021  0.4244 -0.5322 -0.3053
  311MOL0     C40972   3.351   2.205   0.636  0.3392  1.7773  0.1771
  311MOL0     C40973   3.485   2.228   0.634 -0.9985 -0.4155  0.4909
  311MOL0     C40974   3.861   2.495   0.653  0.6475  1.1944 -0.1537
  311MOL0     C40975   3.947   2.395   0.599 -0.8491  0.6672 -0.0663
  311MOL0     C40976   4.087   2.410   0.599  0.6439 -0.3199 -0.5293
  311MOL0     C40977   4.130   2.536   0.637  0.5893  0.1679  0.4198
  311MOL0     O40978   4.263   2.568   0.629  0.4810  0.1370  0.4029
  311MOL0     C40979   4.371   2.473   0.611  1.2325 -0.4331  0.0293
  311MOL0     C40980   4.495   2.509   0.696 -0.2918 -0.4819  0.1023
  311MOL0     C40981   4.616   2.409   0.675  0.9311  0.0658  0.8263
  311MOL0     C40982   4.735   2.464   0.741  0.0499  0.4064  0.3309
  311MOL0     C40983   4.856   2.410   0.683  0.1449 -0.3953  0.7506
  311MOL0     C40984   4.960   2.372   0.640  1.1466 -0.1284  0.3393
  311MOL0     C40985   4.050   2.635   0.685 -0.0333 -0.3571  0.3757
  311MOL0     C40986   3.914   2.619   0.688 -1.0591 -0.8019  0.4112
  311MOL0     H40987   3.496   2.505   0.433 -0.3723  0.4031 -1.0774
  311MOL0     H40988   3.258   2.455   0.413 -0.0040 -0.8635 -1.1254
  311MOL0     H40989   3.055   2.328   0.694 -1.0425 -0.0082 -0.9353
  311MOL0     H40990   3.101   2.155   0.714  2.2899 -1.3161 -2.0393
  311MOL0     H40991   2.883   2.236   0.523  0.3615  0.5223 -0.8122
  311MOL0     H40992   2.860   2.191   0.697  0.8964  0.2343  0.9457
  311MOL0     H40993   2.976   1.974   0.640 -0.1422  0.1755  0.0190
  311MOL0     H40994   2.976   2.021   0.480 -0.4396  0.0862 -0.0819
  311MOL0     H40995   2.723   2.035   0.462  2.7917  1.5379 -2.0046
  311MOL0     H40996   2.789   1.872   0.518 -0.1964 -0.4742 -0.7869
  311MOL0     H40997   2.641   2.078   0.710  1.2079  0.9692 -0.6383
  311MOL0     H40998   2.743   1.946   0.758 -1.4148  0.1320  1.7676
  311MOL0     H40999   2.613   1.785   0.640  0.4770 -0.4663  0.9747
  311MOL0     H41000   2.506   1.916   0.571  0.5628  3.5179  1.4494
  311MOL0     H41001   2.410   1.794   0.783  1.7060 -1.7064  0.0580
  311MOL0     H41002   2.537   1.875   0.872 -0.9905 -1.5559  0.0893
  311MOL0     H41003   2.363   2.052   0.707 -1.7264 -2.3079  0.4850
  311MOL0     H41004   2.472   2.096   0.843  1.0372 -0.4037  0.3159
  311MOL0     H41005   2.137   1.922   0.737 -2.1033 -0.4387 -0.5781
  311MOL0     H41006   1.909   1.937   1.069 -0.6495 -3.5699 -0.6533
  311MOL0     H41007   1.914   1.832   0.941  3.3489 -1.3652  1.5252
  311MOL0     H41008   1.841   2.014   0.778 -2.4811  0.8507  0.3547
  311MOL0     H41009   1.903   2.138   0.897  1.0960 -0.1470 -0.4405
  311MOL0     H41010   1.658   1.969   0.971  1.4970 -0.8274 -2.4143
  311MOL0     H41011   1.735   2.114   1.043 -2.3968 -0.2062  1.3697
  311MOL0     H41012   1.698   2.243   0.842  0.2150  0.7233 -1.6643
  311MOL0     H41013   1.553   2.195   0.931 -0.0862 -0.5998  0.8462
  311MOL0     H41014   1.434   2.045   0.569  2.0873 -4.4916 -0.3835
  311MOL0     H41015   1.196   1.970   0.557  2.1643 -1.5862 -0.4596
  311MOL0     H41016   0.813   1.696   0.816  1.7846  2.0138  0.0875
  311MOL0     H41017   0.613   1.601   0.753  0.6164 -1.5644 -1.1207
  311MOL0     H41018   0.410   1.534   0.648 -1.1527  0.1642 -1.0749
  311MOL0     H41019   0.547   1.448   0.567  0.0719 -1.6989  0.1852
  311MOL0     H41020   0.367   1.484   0.355  0.9546 -0.3740 -0.5150
  311MOL0     H41021   0.253   1.484   0.481  1.2349  2.0984 -1.8787
  311MOL0     H41022   0.456   1.262   0.481  0.4342  0.2839 -0.2707
  311MOL0     H41023   0.313   1.259   0.377 -2.4129 -0.8221  1.1162
  311MOL0     H41024   0.292   1.281   0.684  0.9593 -1.0702  0.8164
  311MOL0     H41025   0.167   1.261   0.558  1.0630 -0.6305 -3.3587
  311MOL0     H41026   0.376   1.050   0.614  0.1167 -0.3919 -2.1364
  311MOL0     H41027   0.260   1.047   0.486 -0.2997 -0.4723  0.3728
  311MOL0     H41028   0.091   1.106   0.703 -0.3931  0.7458  1.2949
  311MOL0     H41029   0.229   1.043   0.787  3.4350 -1.8187 -1.9773
  311MOL0     H41030   0.095   0.843   0.595  1.3034  0.3373 -0.3603
  311MOL0     H41031   0.228   0.816   0.700 -0.4382 -0.5379  0.8040
  311MOL0     H41032   0.118   0.838   0.897  0.6390  0.1523  0.7069
  311MOL0     H41033   0.031   0.727   0.802  0.5775  1.3031  0.8705
  311MOL0     H41034   0.664   1.770   0.357  1.5854 -0.7233 -0.1937
  311MOL0     H41035   0.878   1.865   0.437 -1.0666 -0.1269 -0.1622
  311MOL0     H41036   1.216   1.898   0.983 -0.5403  0.0237 -0.8122
  311MOL0     H41037   1.450   1.994   0.984  1.9314  0.6127 -1.2565
  311MOL0     H41038   3.318   2.115   0.686 -1.7214  2.0591 -0.5725
  311MOL0     H41039   3.549   2.169   0.698  1.0698  1.0142 -0.1669
  311MOL0     H41040   3.895   2.308   0.560 -1.8523  2.0058 -1.8660
  311MOL0     H41041   4.156   2.331   0.572  2.7289  1.0766  0.4685
  311MOL0     H41042   4.414   2.468   0.511  1.2767 -2.1575  0.1099
  311MOL0     H41043   4.348   2.368   0.634  2.5729 -0.7558 -0.0106
  311MOL0     H41044   4.531   2.608   0.666 -1.1069 -0.5781 -1.2919
  311MOL0     H41045   4.469   2.532   0.799 -1.8680  3.2826 -0.9505
  311MOL0     H41046   4.641   2.401   0.568  1.2408 -4.7822  1.0334
  311MOL0     H41047   4.590   2.309   0.711  0.8344 -1.3668 -2.7939
  311MOL0     H41048   4.735   2.573   0.740 -0.3699  0.4201 -0.8230
  311MOL0     H41049   4.730   2.429   0.844 -0.8028 -0.9638 -0.1392
  311MOL0     H41050   5.045   2.338   0.585  0.3261  0.5322 -1.4205
  311MOL0     H41051   4.102   2.727   0.710 -0.7855  0.2768 -0.3118
  311MOL0     H41052   3.863   2.707   0.727 -1.0454  0.1231 -1.5548
  312MOL0     O41053   4.214   2.314   2.253  0.0753  0.8147  0.1177
  312MOL0     C41054   4.300   2.238   2.295 -0.9167 -0.2398 -0.4647
  312MOL0     O41055   4.285   2.106   2.334 -0.9221  0.2061  0.1822
  312MOL0     C41056   4.171   2.048   2.377  0.0273 -0.3037 -0.1601
  312MOL0     C41057   4.054   2.120   2.408  0.8262  0.1345 -0.6598
  312MOL0     C41058   3.944   2.058   2.465 -0.3030 -0.1334  0.7617
  312MOL0     C41059   3.943   1.915   2.485 -0.4771  0.8258 -0.0009
  312MOL0     O41060   3.823   1.859   2.538 -0.7077  0.6623  0.3223
  312MOL0     C41061   3.795   1.722   2.497 -0.7967 -0.2518  0.6131
  312MOL0     C41062   3.658   1.678   2.549 -0.7079 -0.5747 -0.1015
  312MOL0     C41063   3.606   1.546   2.492  1.0267 -0.6352  0.2145
  312MOL0     C41064   3.465   1.506   2.537 -0.5993 -0.1077  0.1860
  312MOL0     C41065   3.489   1.370   2.614  0.0410 -0.0407 -0.3571
  312MOL0     C41066   3.363   1.297   2.649 -0.7655  0.1411  0.7389
  312MOL0     C41067   3.244   1.373   2.714 -0.5954 -0.0290  0.8488
  312MOL0     C41068   3.151   1.271   2.763  0.4151  0.7888 -0.6944
  312MOL0     N41069   3.036   1.354   2.819 -0.0765  0.1376 -1.2406
  312MOL0     C41070   3.018   1.394   2.952 -0.6315  0.1405  0.2629
  312MOL0     C41071   2.884   1.409   2.967  0.8848  0.1487 -1.1245
  312MOL0     C41072   2.814   1.449   3.096  0.0070  0.1715  0.3798
  312MOL0     C41073   2.671   1.384   3.093  0.2221 -0.2139 -0.0306
  312MOL0     C41074   2.575   1.475   3.029  0.0658  0.0501  0.1272
  312MOL0     C41075   2.457   1.399   2.967 -0.0593 -0.2822  0.0455
  312MOL0     O41076   2.384   1.341   3.081  0.1310 -0.4629 -0.0012
  312MOL0     C41077   2.256   1.294   3.062  0.1670  0.1357  0.0108
  312MOL0     C41078   2.167   1.292   3.176 -0.4754  0.1512 -0.0273
  312MOL0     C41079   2.031   1.241   3.163  0.3323 -0.5234  0.7160
  312MOL0     C41080   1.983   1.205   3.042  0.6787  0.1699  0.6374
  312MOL0     C41081   1.847   1.145   3.031  0.0708 -0.6308 -0.4461
  312MOL0     O41082   1.795   1.080   3.137  0.3310 -0.1401 -0.2130
  312MOL0     C41083   1.673   1.031   3.125 -0.2678 -0.0027 -0.7250
  312MOL0     C41084   1.569   1.093   3.200  0.1682  0.0594 -0.1133
  312MOL0     C41085   1.440   1.030   3.200  1.0439  0.5391  0.0317
  312MOL0     C41086   1.418   0.905   3.134 -0.2173 -0.0123 -0.7891
  312MOL0     O41087   1.301   0.835   3.126 -0.2831  0.0628 -0.3327
  312MOL0     C41088   1.184   0.894   3.185  0.5565  0.2112 -0.5275
  312MOL0     C41089   1.062   0.818   3.113 -0.8955 -0.4865 -0.2733
  312MOL0     C41090   0.926   0.875   3.150 -1.0932  0.1468  0.4412
  312MOL0     C41091   0.843   0.834   3.033 -1.2434 -0.3298  0.2937
  312MOL0     C41092   0.695   0.846   3.071 -0.4680 -0.0176  0.3617
  312MOL0     C41093   0.606   0.863   2.943  0.4112 -0.0048 -0.0301
  312MOL0     C41094   0.607   1.002   2.892 -0.0929 -0.9535  0.0509
  312MOL0     C41095   0.486   1.046   2.820 -0.3655 -0.1550 -0.0195
  312MOL0    Cl41096   0.338   1.046   2.923  0.4238 -0.0075  0.0172
  312MOL0     C41097   1.524   0.850   3.072 -0.0456 -0.5313  0.1064
  312MOL0     C41098   1.645   0.912   3.061 -0.5077  0.9542  0.0100
  312MOL0     O41099   1.791   1.158   2.923  0.2954 -0.1081 -0.0254
  312MOL0     C41100   2.071   1.214   2.932  0.4281  0.9465 -0.0686
  312MOL0     C41101   2.207   1.248   2.946 -0.3124  1.7748 -0.3369
  312MOL0     N41102   2.825   1.375   2.845 -0.5217 -0.2412  0.0260
  312MOL0     N41103   2.919   1.340   2.759  0.0604  0.8539  0.9877
  312MOL0     C41104   4.057   1.845   2.455 -0.4920  0.0798  0.2277
  312MOL0     C41105   4.171   1.910   2.401  0.2880 -0.1917  0.3854
  312MOL0     C41106   4.433   2.287   2.329 -0.7989  0.7559 -0.1745
  312MOL0     C41107   4.549   2.213   2.313 -0.1978  0.1792 -0.8626
  312MOL0     C41108   4.675   2.269   2.330 -0.7644  0.2826 -0.1616
  312MOL0     C41109   4.687   2.392   2.393 -0.2740 -0.4076  0.9737
  312MOL0     O41110   4.811   2.449   2.394  0.0013  0.2997 -1.0244
  312MOL0     C41111   4.871   2.461   2.529 -0.0866 -0.6565  0.2689
  312MOL0     C41112   5.022   2.500   2.528  0.1602 -0.7032 -0.2153
  312MOL0     C41113   5.093   2.452   2.400  0.8267  0.0741 -0.8455
  312MOL0     C41114   5.241   2.456   2.411  0.1173  0.1052  0.6419
  312MOL0     C41115   5.296   2.578   2.461 -1.0683 -0.7423 -0.7911
  312MOL0     C41116   5.356   2.673   2.509  0.2644 -0.2580 -0.6993
  312MOL0     C41117   4.575   2.465   2.420  0.1206 -0.0996 -0.3027
  312MOL0     C41118   4.450   2.418   2.382 -0.3399  0.0198 -0.6234
  312MOL0     H41119   4.038   2.226   2.394  0.6598  0.5345  2.0829
  312MOL0     H41120   3.857   2.121   2.475 -1.3497 -0.9817 -2.0509
  312MOL0     H41121   3.872   1.657   2.539  2.3633  0.7332 -3.1133
  312MOL0     H41122   3.788   1.716   2.388 -3.5120  2.0669  0.5386
  312MOL0     H41123   3.586   1.757   2.527  1.6840  2.0476  0.8666
  312MOL0     H41124   3.671   1.680   2.657 -0.0833 -4.1622  0.0059
  312MOL0     H41125   3.683   1.471   2.511  0.9465 -0.2254  2.5669
  312MOL0     H41126   3.595   1.563   2.385 -1.7430 -0.3516  0.4599
  312MOL0     H41127   3.434   1.576   2.614  4.6735  0.8617  1.8683
  312MOL0     H41128   3.410   1.484   2.445  0.2734 -1.7365  0.0169
  312MOL0     H41129   3.550   1.388   2.704  0.5389  3.0138 -1.1748
  312MOL0     H41130   3.540   1.301   2.547 -1.5818 -0.4727 -1.1849
  312MOL0     H41131   3.393   1.216   2.716 -1.0808  0.8671  1.7869
  312MOL0     H41132   3.331   1.258   2.551 -1.6174  3.5667 -0.4785
  312MOL0     H41133   3.279   1.438   2.794 -1.1855 -1.0861  1.9922
  312MOL0     H41134   3.198   1.451   2.652  1.5055  0.8929  0.3643
  312MOL0     H41135   3.178   1.205   2.846 -1.8070 -0.6713 -1.0237
  312MOL0     H41136   3.121   1.206   2.680  0.7586 -2.1908  1.3443
  312MOL0     H41137   3.099   1.405   3.025  1.3480  1.3845 -1.9747
  312MOL0     H41138   2.816   1.557   3.112  0.4949 -0.2188  3.6760
  312MOL0     H41139   2.869   1.398   3.176  0.0357 -0.8779 -0.2862
  312MOL0     H41140   2.635   1.354   3.192 -1.0896 -2.7025 -1.1635
  312MOL0     H41141   2.680   1.283   3.052  1.3520 -0.8703  1.6997
  312MOL0     H41142   2.539   1.538   3.111  0.2980 -0.4067  0.5900
  312MOL0     H41143   2.624   1.541   2.957 -0.8157  3.8810  2.7364
  312MOL0     H41144   2.485   1.316   2.902 -0.8740  0.7812 -1.7481
  312MOL0     H41145   2.407   1.470   2.901  2.3980  0.0884 -1.5556
  312MOL0     H41146   2.206   1.306   3.277 -0.3992  2.0410 -0.2756
  312MOL0     H41147   1.973   1.233   3.254 -0.4471 -0.3012  0.2498
  312MOL0     H41148   1.587   1.181   3.261  0.5846 -0.9683  1.3064
  312MOL0     H41149   1.352   1.068   3.250 -0.7720 -2.9008 -0.2110
  312MOL0     H41150   1.180   1.002   3.170 -1.8453  0.3485  0.6650
  312MOL0     H41151   1.189   0.872   3.292 -1.3810 -0.2845 -0.5142
  312MOL0     H41152   1.069   0.711   3.131 -1.8380 -0.5840 -0.4365
  312MOL0     H41153   1.079   0.829   3.005  0.1367  0.0492 -0.0654
  312MOL0     H41154   0.939   0.983   3.155 -0.1299 -0.0084  1.6977
  312MOL0     H41155   0.886   0.843   3.247 -2.9128  2.3119  0.5049
  312MOL0     H41156   0.880   0.906   2.959  1.1593 -0.3396  1.4057
  312MOL0     H41157   0.857   0.737   2.985  3.1062  1.3596 -2.5134
  312MOL0     H41158   0.686   0.933   3.138  3.7045  2.1262 -1.4484
  312MOL0     H41159   0.668   0.760   3.133 -1.5249  1.1598  1.6043
  312MOL0     H41160   0.502   0.843   2.970  0.5585  0.5186  0.9860
  312MOL0     H41161   0.635   0.790   2.867  1.2220 -0.8018  0.9963
  312MOL0     H41162   0.604   1.062   2.983 -0.3395 -3.5247  1.8296
  312MOL0     H41163   0.699   1.015   2.834 -0.1041  2.0381  0.5173
  312MOL0     H41164   0.466   0.966   2.748 -0.6254  1.6684 -2.0974
  312MOL0     H41165   0.505   1.146   2.780 -0.9752  0.2183  0.6159
  312MOL0     H41166   1.506   0.749   3.037 -0.2980 -0.8720  1.1965
  312MOL0     H41167   1.716   0.851   3.005 -1.5028 -1.7085  1.4326
  312MOL0     H41168   2.031   1.171   2.841 -1.0638 -2.8592  2.1458
  312MOL0     H41169   2.278   1.236   2.865  0.2119  0.3695  0.2943
  312MOL0     H41170   4.059   1.739   2.481 -1.5351  0.7729  3.6634
  312MOL0     H41171   4.259   1.848   2.384  1.2568  0.9174  1.2356
  312MOL0     H41172   4.555   2.114   2.270  2.0948 -0.1820  0.1194
  312MOL0     H41173   4.760   2.204   2.312 -0.9246  0.2259 -0.7132
  312MOL0     H41174   4.866   2.367   2.586  4.9620  0.4741  3.2180
  312MOL0     H41175   4.814   2.541   2.577 -2.0653 -0.1360 -2.6815
  312MOL0     H41176   5.030   2.609   2.534  4.5569 -0.9382  3.7593
  312MOL0     H41177   5.079   2.467   2.615 -0.1314  2.2262  1.2307
  312MOL0     H41178   5.055   2.512   2.316  3.0081 -0.5090 -2.3472
  312MOL0     H41179   5.049   2.353   2.382 -1.6421  0.7471  0.8984
  312MOL0     H41180   5.274   2.368   2.467 -1.4392 -0.7946  0.2243
  312MOL0     H41181   5.285   2.434   2.313 -1.6746 -0.0492 -0.1700
  312MOL0     H41182   5.389   2.750   2.576 -0.8134  0.6883 -1.2236
  312MOL0     H41183   4.592   2.563   2.462  4.9385 -1.4750  1.6733
  312MOL0     H41184   4.370   2.492   2.384 -0.0788  0.2986  1.0300
  313MOL0     O41185   4.764   5.262   8.910  0.2592  0.3270 -0.2776
  313MOL0     C41186   4.791   5.255   8.796  0.3600  0.2551  0.5547
  313MOL0     O41187   4.705   5.288   8.694 -0.8918 -0.4326 -0.2965
  313MOL0     C41188   4.586   5.339   8.726  0.2420 -0.0446  0.2684
  313MOL0     C41189   4.477   5.257   8.713 -0.0135 -0.3696  0.3064
  313MOL0     C41190   4.343   5.303   8.732 -0.3040 -0.3822  0.8576
  313MOL0     C41191   4.325   5.429   8.780  0.3695 -0.6229  0.2367
  313MOL0     O41192   4.195   5.461   8.812 -0.3945 -0.1261  0.0636
  313MOL0     C41193   4.168   5.588   8.878  0.2524  0.1808 -0.0965
  313MOL0     C41194   4.031   5.581   8.945  0.7662  0.2325  0.2721
  313MOL0     C41195   3.920   5.590   8.835 -0.1135  0.0238  0.3346
  313MOL0     C41196   3.786   5.611   8.917  0.4414  0.2138  0.4929
  313MOL0     C41197   3.667   5.599   8.818 -0.3700  0.1914  0.0797
  313MOL0     C41198   3.643   5.736   8.747 -0.7496  0.7364  0.3590
  313MOL0     C41199   3.505   5.738   8.673 -0.4974  0.7980  0.2003
  313MOL0     C41200   3.492   5.661   8.544 -0.2130  0.3755 -0.4724
  313MOL0     N41201   3.353   5.651   8.489  0.4956  0.3636 -0.2817
  313MOL0     C41202   3.282   5.758   8.449  0.2537  0.1382  0.1562
  313MOL0     C41203   3.146   5.716   8.456 -0.0289 -0.8239 -0.5720
  313MOL0     C41204   3.020   5.793   8.407 -0.2576  0.5474  0.0403
  313MOL0     C41205   2.901   5.775   8.514  0.9794  0.4561  0.0887
  313MOL0     C41206   2.829   5.645   8.485 -0.2189  0.2585 -0.6256
  313MOL0     C41207   2.692   5.652   8.540 -0.0898 -0.0227 -0.2662
  313MOL0     O41208   2.642   5.518   8.525 -0.7449 -0.0369  0.8579
  313MOL0     C41209   2.503   5.491   8.507  0.0280 -0.9706  0.2567
  313MOL0     C41210   2.467   5.353   8.528  0.1484  0.2908  0.0188
  313MOL0     C41211   2.329   5.311   8.501  0.0227 -0.1467  0.1373
  313MOL0     C41212   2.225   5.403   8.464  0.2215 -0.2164 -0.3928
  313MOL0     C41213   2.077   5.360   8.455  1.2556 -0.5622 -0.7122
  313MOL0     O41214   1.992   5.462   8.435  0.1366 -0.3919  0.5771
  313MOL0     C41215   1.858   5.427   8.410  0.1686 -0.4488  0.2960
  313MOL0     C41216   1.774   5.385   8.512 -0.5550  0.2681  0.6043
  313MOL0     C41217   1.633   5.358   8.490 -0.7754  0.2381  0.1408
  313MOL0     C41218   1.581   5.372   8.356  0.4894  0.1773 -0.5034
  313MOL0     O41219   1.457   5.336   8.331  0.1673  0.5900  0.2596
  313MOL0     C41220   1.359   5.293   8.427 -0.0652 -0.0911  0.6004
  313MOL0     C41221   1.226   5.297   8.347 -0.5668  1.0536 -0.7373
  313MOL0     C41222   1.204   5.415   8.253  0.7762 -0.1794 -0.6769
  313MOL0     C41223   1.058   5.401   8.204  0.5660 -0.3369  0.2709
  313MOL0     C41224   1.031   5.486   8.075 -1.1441 -0.1018  0.5957
  313MOL0     C41225   0.892   5.484   8.022 -0.6761 -1.6073  0.3477
  313MOL0     C41226   0.800   5.570   8.107  0.0183  0.1057 -0.3048
  313MOL0     C41227   0.656   5.549   8.059 -0.1305  0.0435 -0.3356
  313MOL0    Cl41228   0.598   5.387   8.090  0.4796  0.7776 -0.4302
  313MOL0     C41229   1.669   5.421   8.258  1.0725 -0.0258  0.6966
  313MOL0     C41230   1.806   5.448   8.290  0.6802  0.0493  0.6075
  313MOL0     O41231   2.040   5.243   8.481 -0.4478  0.4172 -0.0275
  313MOL0     C41232   2.261   5.539   8.439 -0.5549  0.5416 -1.2650
  313MOL0     C41233   2.394   5.581   8.471 -0.0931 -0.0997  0.3276
  313MOL0     N41234   3.142   5.587   8.492  0.9121 -0.2888 -0.3108
  313MOL0     N41235   3.265   5.551   8.516 -0.2286 -0.4896  0.0996
  313MOL0     C41236   4.442   5.519   8.795 -0.2857 -0.5636  0.6110
  313MOL0     C41237   4.571   5.468   8.770 -0.3089  0.0865  0.1004
  313MOL0     C41238   4.931   5.223   8.774  0.5864 -0.3973 -0.0129
  313MOL0     C41239   5.011   5.160   8.871 -0.2565 -0.6723 -0.0719
  313MOL0     C41240   5.145   5.148   8.860 -0.7977  0.0142 -0.5515
  313MOL0     C41241   5.211   5.186   8.745 -0.0510  1.1667 -0.2003
  313MOL0     O41242   5.350   5.178   8.751 -0.1075  0.0317 -0.0864
  313MOL0     C41243   5.432   5.257   8.669 -0.2984  0.3007  0.5210
  313MOL0     C41244   5.561   5.187   8.632 -0.0551  0.3028  0.3286
  313MOL0     C41245   5.672   5.212   8.739  0.7547 -0.0876  0.2993
  313MOL0     C41246   5.802   5.154   8.696  0.3464  0.5700 -0.3216
  313MOL0     C41247   5.809   5.018   8.651 -0.7462 -0.2559  0.4432
  313MOL0     C41248   5.837   4.909   8.598  0.0858 -0.0562  0.1435
  313MOL0     C41249   5.136   5.234   8.640 -0.0717 -0.6626  0.0368
  313MOL0     C41250   4.999   5.263   8.661  0.6231  0.0808 -0.3548
  313MOL0     H41251   4.479   5.151   8.688 -1.9911 -0.6614  1.1280
  313MOL0     H41252   4.254   5.244   8.710  0.5081 -0.2889 -3.5829
  313MOL0     H41253   4.186   5.664   8.801  1.5768 -0.8451 -0.8490
  313MOL0     H41254   4.243   5.610   8.955  3.0500 -1.9716 -1.9893
  313MOL0     H41255   4.012   5.652   9.026 -5.7028  0.1870 -0.6288
  313MOL0     H41256   4.020   5.487   9.000 -1.5178  1.5974  2.3696
  313MOL0     H41257   3.916   5.492   8.788  2.1680 -0.1031  0.3141
  313MOL0     H41258   3.944   5.679   8.777  2.5116  0.7706  2.3512
  313MOL0     H41259   3.782   5.530   8.990 -2.5009 -2.3834 -2.2290
  313MOL0     H41260   3.778   5.708   8.967 -2.1833 -0.1232  0.8884
  313MOL0     H41261   3.577   5.562   8.868 -0.6071 -1.7604 -1.6578
  313MOL0     H41262   3.683   5.512   8.754  0.1799 -0.9945  1.7465
  313MOL0     H41263   3.726   5.754   8.678  0.7287  1.2109  2.1795
  313MOL0     H41264   3.647   5.812   8.825 -1.7314  3.1426 -1.7650
  313MOL0     H41265   3.415   5.714   8.730 -0.9867  0.0133 -0.8853
  313MOL0     H41266   3.498   5.846   8.653  0.7489  1.1870  1.6298
  313MOL0     H41267   3.518   5.558   8.570 -1.9021 -0.5715 -2.2699
  313MOL0     H41268   3.563   5.698   8.469  1.2051 -0.0091  0.6565
  313MOL0     H41269   3.304   5.854   8.403 -0.8273  0.2660 -0.1082
  313MOL0     H41270   2.996   5.764   8.304  0.5408 -1.1605  0.3125
  313MOL0     H41271   3.034   5.901   8.396 -1.1105  0.7446  0.7078
  313MOL0     H41272   2.833   5.860   8.504 -1.8073 -1.4157  1.8348
  313MOL0     H41273   2.923   5.781   8.621 -1.5182  2.3935  0.6084
  313MOL0     H41274   2.829   5.635   8.376 -1.0662  2.0496 -0.8199
  313MOL0     H41275   2.870   5.557   8.535 -2.9534 -1.9360 -2.0035
  313MOL0     H41276   2.624   5.725   8.495 -1.2325 -1.2149 -0.5718
  313MOL0     H41277   2.701   5.680   8.645  4.1520  2.1353 -0.9914
  313MOL0     H41278   2.535   5.275   8.558 -0.1145 -0.5868 -1.5425
  313MOL0     H41279   2.323   5.204   8.516  1.5675 -0.4725 -1.2077
  313MOL0     H41280   1.815   5.366   8.610  2.1551 -2.2752 -0.8592
  313MOL0     H41281   1.564   5.337   8.570 -1.2161 -0.3016 -0.3701
  313MOL0     H41282   1.349   5.362   8.511  2.5262 -1.7367  2.4069
  313MOL0     H41283   1.381   5.189   8.455 -1.3458 -0.5337  0.0407
  313MOL0     H41284   1.147   5.304   8.422 -0.1590  2.8209 -0.4152
  313MOL0     H41285   1.218   5.198   8.301 -1.4405 -0.1542  1.8234
  313MOL0     H41286   1.276   5.413   8.170  0.7818 -0.2558 -0.6696
  313MOL0     H41287   1.208   5.512   8.303  0.3258 -1.4149  1.8910
  313MOL0     H41288   1.027   5.299   8.178  3.2636 -0.7654 -1.6973
  313MOL0     H41289   0.986   5.431   8.281 -0.1099  2.2487 -1.2447
  313MOL0     H41290   1.104   5.464   7.997  0.6628 -1.0672  2.4563
  313MOL0     H41291   1.048   5.589   8.107  0.1963  0.2343 -1.0974
  313MOL0     H41292   0.852   5.382   8.016 -0.5710 -1.5737 -2.0164
  313MOL0     H41293   0.892   5.524   7.920 -0.2470 -1.1508  0.5251
  313MOL0     H41294   0.802   5.541   8.212  0.9990 -0.0516 -0.3571
  313MOL0     H41295   0.816   5.678   8.101 -2.1781  0.5095  0.3192
  313MOL0     H41296   0.645   5.579   7.954 -2.2314  0.1634 -0.1234
  313MOL0     H41297   0.588   5.609   8.121 -3.7849 -0.6182 -3.2916
  313MOL0     H41298   1.628   5.440   8.160  3.4913  2.2599  0.0187
  313MOL0     H41299   1.865   5.485   8.206  0.9805 -3.1442 -0.7521
  313MOL0     H41300   2.197   5.618   8.399 -1.5907 -0.1668 -1.0626
  313MOL0     H41301   2.412   5.685   8.445  0.1041 -0.5277 -1.3512
  313MOL0     H41302   4.433   5.624   8.820  1.5557 -0.4115  0.7157
  313MOL0     H41303   4.670   5.513   8.773  1.2092 -3.0210  1.0704
  313MOL0     H41304   4.970   5.132   8.968  0.2290 -3.3946 -0.5695
  313MOL0     H41305   5.205   5.114   8.944  0.1926  0.6773 -0.9753
  313MOL0     H41306   5.458   5.354   8.712  1.7145  0.2450 -0.4241
  313MOL0     H41307   5.384   5.271   8.572  0.2327  2.0173  0.4745
  313MOL0     H41308   5.540   5.082   8.610  0.3606  0.4534 -0.9136
  313MOL0     H41309   5.602   5.236   8.543  3.7082 -2.6294  0.1853
  313MOL0     H41310   5.632   5.159   8.826  0.9025  0.1530  0.5163
  313MOL0     H41311   5.690   5.318   8.760  1.2270  0.1319 -1.1381
  313MOL0     H41312   5.833   5.215   8.610 -1.0382 -1.0591 -2.0802
  313MOL0     H41313   5.885   5.164   8.766 -1.2117  1.3816  1.4862
  313MOL0     H41314   5.870   4.815   8.558  1.3271  0.1196  0.6962
  313MOL0     H41315   5.190   5.265   8.551  0.9102  0.6465  1.0402
  313MOL0     H41316   4.940   5.329   8.598 -1.3435  1.6640  2.8442
  314MOL0     O41317  11.108   3.007   7.651 -0.0922  0.1671 -0.3857
  314MOL0     C41318  11.145   2.996   7.767  0.5136  0.2644  0.3137
  314MOL0     O41319  11.065   2.948   7.869 -0.0282 -0.2979  0.2172
  314MOL0     C41320  10.943   2.901   7.833 -0.3283  0.2969  0.6847
  314MOL0     C41321  10.838   2.931   7.925  0.1775 -0.4534 -0.2217
  314MOL0     C41322  10.704   2.889   7.911  0.4102 -0.1759 -0.5862
  314MOL0     C41323  10.668   2.801   7.804 -0.4922  0.1855  0.1442
  314MOL0     O41324  10.545   2.755   7.781  0.4322 -0.1226 -0.2149
  314MOL0     C41325  10.440   2.820   7.854 -0.3778 -0.1181  0.2478
  314MOL0     C41326  10.308   2.770   7.810 -0.7194 -0.5347  0.1630
  314MOL0     C41327  10.186   2.819   7.892 -0.2246  0.6845  0.4604
  314MOL0     C41328  10.051   2.791   7.825  0.2747  0.2008  0.4177
  314MOL0     C41329   9.929   2.798   7.916 -0.3646  0.9637 -0.7481
  314MOL0     C41330   9.889   2.944   7.942 -0.4668 -0.4999 -0.3117
  314MOL0     C41331   9.773   2.962   8.038  0.2404  0.5652  0.6178
  314MOL0     C41332   9.820   2.968   8.189  0.3243  1.0424 -0.2115
  314MOL0     N41333   9.698   2.924   8.267  0.4573  0.1757  0.3304
  314MOL0     C41334   9.653   2.795   8.283 -0.5867 -0.0484 -0.6004
  314MOL0     C41335   9.530   2.798   8.342 -0.1269  1.1337 -0.3591
  314MOL0     C41336   9.432   2.682   8.372  0.3602 -0.8453  0.6019
  314MOL0     C41337   9.297   2.709   8.294 -0.0995 -0.4254 -0.2842
  314MOL0     C41338   9.317   2.726   8.141 -0.3067  0.0852  0.4400
  314MOL0     C41339   9.211   2.651   8.058 -0.4163 -0.8533 -0.1643
  314MOL0     O41340   9.087   2.720   8.035  0.2691 -0.3089 -0.6680
  314MOL0     C41341   8.978   2.642   8.010 -0.7005 -0.2229 -0.5163
  314MOL0     C41342   8.977   2.533   7.924  0.3926  0.7772  0.1191
  314MOL0     C41343   8.864   2.454   7.913  0.2746 -0.4477 -0.9449
  314MOL0     C41344   8.752   2.489   7.984 -0.1603 -0.4722  0.5560
  314MOL0     C41345   8.629   2.404   7.988  0.3094 -0.9982 -0.3322
  314MOL0     O41346   8.616   2.295   7.904 -0.7614 -0.0686 -0.6121
  314MOL0     C41347   8.508   2.215   7.890  0.0701 -0.4595 -0.7823
  314MOL0     C41348   8.371   2.256   7.882 -0.9285 -0.1543 -0.4077
  314MOL0     C41349   8.270   2.166   7.887 -0.1114 -0.0627 -0.2985
  314MOL0     C41350   8.297   2.028   7.907 -0.1448  0.8700 -1.0296
  314MOL0     O41351   8.196   1.932   7.927  0.7070 -0.5891  0.2203
  314MOL0     C41352   8.058   1.975   7.912  0.5086  0.1470 -0.2569
  314MOL0     C41353   7.952   1.872   7.930  0.3406 -0.5598  0.2465
  314MOL0     C41354   7.828   1.917   7.853 -0.0652  0.3378 -0.2229
  314MOL0     C41355   7.697   1.841   7.875 -0.3029  0.4828 -0.8048
  314MOL0     C41356   7.580   1.906   7.811  0.7775 -0.0291 -0.6048
  314MOL0     C41357   7.456   1.829   7.868 -0.2095 -0.6515  0.0964
  314MOL0     C41358   7.434   1.855   8.017  0.3293  0.3897  0.7256
  314MOL0     C41359   7.292   1.814   8.057 -1.2422  0.1160 -0.2673
  314MOL0    Cl41360   7.270   1.843   8.237  0.0329  0.4019 -0.0037
  314MOL0     C41361   8.431   1.987   7.901  0.2648  0.1860  0.5365
  314MOL0     C41362   8.530   2.083   7.895  0.5883  0.2719 -0.8309
  314MOL0     O41363   8.532   2.450   8.055 -0.1405  0.1918 -0.5610
  314MOL0     C41364   8.756   2.604   8.062 -0.5096  0.5331  0.1690
  314MOL0     C41365   8.865   2.682   8.084  0.9972  0.2824  0.8948
  314MOL0     N41366   9.502   2.933   8.372  0.1705 -0.1568  0.1795
  314MOL0     N41367   9.604   3.004   8.323 -0.1964  0.4802 -0.4721
  314MOL0     C41368  10.775   2.758   7.722 -1.0040 -0.2470 -0.5216
  314MOL0     C41369  10.905   2.808   7.725  0.4970 -0.2425 -0.7432
  314MOL0     C41370  11.275   3.055   7.806  0.4704  0.3571 -1.1604
  314MOL0     C41371  11.375   3.086   7.709 -0.4247 -0.5994  1.2323
  314MOL0     C41372  11.507   3.108   7.741 -0.3115 -0.1405 -0.3453
  314MOL0     C41373  11.548   3.100   7.868  0.4209 -0.5384 -0.4998
  314MOL0     O41374  11.679   3.129   7.883 -0.5103  0.3038 -0.3676
  314MOL0     C41375  11.744   3.125   8.010  0.2539 -0.3793  0.1614
  314MOL0     C41376  11.808   2.994   8.037  0.7844 -0.4408  0.8188
  314MOL0     C41377  11.942   2.969   7.959 -0.4129 -1.2124 -0.7493
  314MOL0     C41378  12.023   2.857   8.032  0.3006 -0.2471  0.3475
  314MOL0     C41379  12.141   2.843   7.948  0.1809 -0.6430 -0.4932
  314MOL0     C41380  12.244   2.810   7.892  0.5939 -0.5056 -0.1901
  314MOL0     C41381  11.449   3.070   7.972 -0.7352 -0.1431  0.5901
  314MOL0     C41382  11.314   3.049   7.941  0.3978  0.0941 -0.8370
  314MOL0     H41383  10.878   2.997   8.002 -0.3621 -1.9190  1.3684
  314MOL0     H41384  10.626   2.926   7.976  1.4524 -1.8727  1.7690
  314MOL0     H41385  10.440   2.929   7.850  0.7491 -0.1404 -1.4843
  314MOL0     H41386  10.449   2.790   7.959  3.0891 -2.2798 -0.4733
  314MOL0     H41387  10.321   2.664   7.833  0.2337 -0.2458  1.0382
  314MOL0     H41388  10.291   2.781   7.703  0.1397 -0.8647 -0.0132
  314MOL0     H41389  10.188   2.927   7.907 -0.5854  0.6024  1.1262
  314MOL0     H41390  10.196   2.770   7.989 -1.4156  0.8689  0.6862
  314MOL0     H41391  10.036   2.870   7.751  3.7512 -1.2071 -2.0707
  314MOL0     H41392  10.053   2.693   7.777  2.1027  0.3360  0.1243
  314MOL0     H41393   9.949   2.744   8.010 -1.1807 -2.5656 -2.4105
  314MOL0     H41394   9.847   2.751   7.861  1.4648  0.0871 -2.8550
  314MOL0     H41395   9.873   3.001   7.850  0.0393 -0.4444 -0.3708
  314MOL0     H41396   9.981   2.993   7.977 -0.9821 -0.1107  0.5572
  314MOL0     H41397   9.738   3.063   8.016 -0.9660  0.3010  1.2643
  314MOL0     H41398   9.699   2.884   8.020  2.1016 -1.2284  0.3012
  314MOL0     H41399   9.856   3.067   8.217 -0.7249  1.4003 -0.0862
  314MOL0     H41400   9.901   2.895   8.201  1.0876  0.9524 -4.3749
  314MOL0     H41401   9.700   2.708   8.239  2.1029  1.1882 -0.3540
  314MOL0     H41402   9.405   2.680   8.478  1.0887  2.0884  0.9443
  314MOL0     H41403   9.482   2.589   8.345 -0.7403 -0.7501 -2.1361
  314MOL0     H41404   9.248   2.803   8.323 -1.6796 -1.7001  1.4194
  314MOL0     H41405   9.228   2.638   8.340  1.9056 -0.3263  3.2461
  314MOL0     H41406   9.320   2.831   8.111 -0.6566 -0.2193 -0.6968
  314MOL0     H41407   9.415   2.687   8.110  1.2884  1.5543  3.2049
  314MOL0     H41408   9.196   2.560   8.117 -1.1718 -0.9452 -0.4871
  314MOL0     H41409   9.252   2.623   7.961 -0.9394  0.3586 -0.7523
  314MOL0     H41410   9.070   2.511   7.872  0.5498 -2.6656  1.5783
  314MOL0     H41411   8.874   2.371   7.845 -1.6197 -1.2831 -0.2616
  314MOL0     H41412   8.343   2.361   7.885  0.0753  0.1348 -0.8074
  314MOL0     H41413   8.169   2.204   7.892  0.8620  2.6682  0.7166
  314MOL0     H41414   8.058   2.016   7.810  4.2566 -0.8671 -0.7919
  314MOL0     H41415   8.030   2.060   7.975  0.9808  0.9948 -1.1532
  314MOL0     H41416   7.931   1.863   8.037  0.7186 -0.7828  0.3054
  314MOL0     H41417   7.987   1.772   7.901 -0.0477  0.0165 -2.4029
  314MOL0     H41418   7.852   1.900   7.748  0.0419 -0.2079 -0.1133
  314MOL0     H41419   7.808   2.024   7.868  1.9321  0.9792 -1.7491
  314MOL0     H41420   7.698   1.740   7.834  0.2453 -0.3279  1.1130
  314MOL0     H41421   7.694   1.848   7.984  1.9587  2.8735 -0.7992
  314MOL0     H41422   7.610   1.890   7.707  3.0233 -0.8794  0.1088
  314MOL0     H41423   7.585   2.014   7.831  0.6907 -0.0225 -0.6175
  314MOL0     H41424   7.462   1.720   7.859 -2.3462 -0.8753  0.8027
  314MOL0     H41425   7.363   1.857   7.818 -1.3566 -1.6357  1.5737
  314MOL0     H41426   7.489   1.789   8.084 -2.8656 -2.0278  1.2230
  314MOL0     H41427   7.455   1.960   8.039 -2.5903  0.9933  0.9931
  314MOL0     H41428   7.271   1.710   8.034 -4.0786 -0.9159  5.2065
  314MOL0     H41429   7.226   1.885   8.005  0.1376  0.3023 -1.8637
  314MOL0     H41430   8.456   1.883   7.919 -0.7033  0.2260  2.3807
  314MOL0     H41431   8.634   2.051   7.892  0.0923 -1.3835 -1.5510
  314MOL0     H41432   8.663   2.635   8.110 -1.9655  1.8486 -3.1972
  314MOL0     H41433   8.860   2.767   8.152 -2.8479  0.1207  1.0317
  314MOL0     H41434  10.754   2.683   7.647  1.6413 -3.1702  1.3892
  314MOL0     H41435  10.979   2.774   7.653 -1.6390 -0.5288 -2.9448
  314MOL0     H41436  11.334   3.089   7.609 -0.0682  0.6373  1.1107
  314MOL0     H41437  11.578   3.118   7.659  2.0922 -0.4941  1.5826
  314MOL0     H41438  11.675   3.160   8.087  1.1879  0.4901  0.6221
  314MOL0     H41439  11.824   3.199   8.018 -1.2324  1.2242  0.8856
  314MOL0     H41440  11.825   2.984   8.144  1.5492 -0.9074  0.6600
  314MOL0     H41441  11.735   2.918   8.007 -0.1913  0.5182  0.6924
  314MOL0     H41442  12.010   3.054   7.958  0.2710 -1.7150  0.6409
  314MOL0     H41443  11.914   2.938   7.857 -1.7372  1.7309 -1.3786
  314MOL0     H41444  12.058   2.870   8.135  2.5417 -3.6688  0.1803
  314MOL0     H41445  11.968   2.763   8.020 -0.4267  0.5088 -3.9461
  314MOL0     H41446  12.337   2.769   7.856 -0.2873 -1.1730 -1.8411
  314MOL0     H41447  11.480   3.063   8.076  4.0129 -2.6561 -0.7250
  314MOL0     H41448  11.246   3.017   8.020  3.9210 -0.2188  2.3435
  315MOL0     O41449   2.091   1.409   1.986  0.2673  0.3106  0.8832
  315MOL0     C41450   2.097   1.482   1.892  0.2030 -0.5522 -0.3061
  315MOL0     O41451   2.008   1.491   1.781  0.6517 -0.0201  0.0071
  315MOL0     C41452   1.882   1.431   1.780 -0.2951  0.0564  0.6245
  315MOL0     C41453   1.827   1.395   1.657 -0.0951  0.8593  0.2587
  315MOL0     C41454   1.709   1.329   1.650 -0.1458 -0.0685 -0.5186
  315MOL0     C41455   1.637   1.278   1.764 -1.4380 -0.2013  0.0265
  315MOL0     O41456   1.523   1.198   1.749  0.0861 -0.1050 -0.6359
  315MOL0     C41457   1.421   1.220   1.844 -0.7949 -0.5557  0.7706
  315MOL0     C41458   1.293   1.134   1.822  0.2290  0.8629 -0.8292
  315MOL0     C41459   1.166   1.195   1.899 -0.8568 -0.6057 -0.1365
  315MOL0     C41460   1.044   1.116   1.843  0.7241  0.9859 -0.9291
  315MOL0     C41461   0.907   1.186   1.872 -0.2949  0.2450  0.1410
  315MOL0     C41462   0.882   1.199   2.027 -0.1167  0.2964 -0.2299
  315MOL0     C41463   0.837   1.066   2.079 -1.3360  0.0506 -1.2876
  315MOL0     C41464   0.787   1.089   2.231 -0.8953  1.1172  0.1050
  315MOL0     N41465   0.882   1.158   2.313 -0.0932  0.6503  0.5363
  315MOL0     C41466   0.995   1.092   2.358  0.7220 -1.2574  0.2296
  315MOL0     C41467   1.039   1.168   2.456 -0.2717  0.3376 -0.1513
  315MOL0     C41468   1.153   1.129   2.542  0.6777  1.0088 -0.9875
  315MOL0     C41469   1.137   0.995   2.613 -0.2098  0.1368  0.1720
  315MOL0     C41470   1.214   0.990   2.748  0.4174  0.7739  0.1641
  315MOL0     C41471   1.365   1.001   2.731 -0.1077  0.0976 -0.3363
  315MOL0     O41472   1.402   0.897   2.647 -0.5725 -0.6685  0.7987
  315MOL0     C41473   1.536   0.885   2.622 -0.1696 -0.7415  0.3400
  315MOL0     C41474   1.638   0.956   2.695  0.4014 -0.4547 -0.4933
  315MOL0     C41475   1.776   0.929   2.682 -0.2924 -0.5480  0.3821
  315MOL0     C41476   1.822   0.832   2.594 -1.2805 -0.7665 -0.3356
  315MOL0     C41477   1.968   0.791   2.597 -0.5550 -0.5922  0.1772
  315MOL0     O41478   2.063   0.875   2.664  0.9451  0.7064  0.0696
  315MOL0     C41479   2.200   0.857   2.655 -0.0512  0.5435  0.1365
  315MOL0     C41480   2.268   0.939   2.741  0.3128  0.5432 -0.3478
  315MOL0     C41481   2.411   0.956   2.736  0.0802  0.0641  0.3326
  315MOL0     C41482   2.483   0.886   2.637 -0.0450 -0.3170 -0.5083
  315MOL0     O41483   2.621   0.888   2.633 -0.8607 -0.0511  0.1756
  315MOL0     C41484   2.700   0.998   2.686  0.9239 -0.4623 -0.0007
  315MOL0     C41485   2.834   1.007   2.613  0.8776 -0.4713 -0.2683
  315MOL0     C41486   2.809   1.060   2.472 -0.3604 -0.0135 -0.7348
  315MOL0     C41487   2.933   1.117   2.410 -0.2129 -0.1266 -0.4393
  315MOL0     C41488   3.058   1.018   2.400 -0.5152  0.6013  0.0457
  315MOL0     C41489   3.166   1.105   2.334 -0.2833  0.6793  0.6698
  315MOL0     C41490   3.290   1.021   2.315  0.3064 -0.2674  0.6691
  315MOL0     C41491   3.406   1.095   2.236  0.9003  0.5619 -0.1806
  315MOL0    Cl41492   3.360   1.141   2.076  0.1668  0.1225  0.1296
  315MOL0     C41493   2.406   0.799   2.548 -0.3274 -0.5008 -0.8576
  315MOL0     C41494   2.271   0.772   2.561 -0.5464  1.1031 -0.2112
  315MOL0     O41495   1.998   0.692   2.533 -0.0458 -0.1486 -0.6588
  315MOL0     C41496   1.719   0.761   2.515  0.2649 -0.0539  0.0308
  315MOL0     C41497   1.579   0.784   2.535  0.0431  0.0575  0.0260
  315MOL0     N41498   0.966   1.288   2.470 -0.4928 -0.5659 -0.2040
  315MOL0     N41499   0.874   1.274   2.385 -0.4870 -0.4364  0.0075
  315MOL0     C41500   1.701   1.310   1.889  0.6138 -0.0696 -0.3951
  315MOL0     C41501   1.817   1.385   1.891 -0.2732  0.1961 -0.2497
  315MOL0     C41502   2.217   1.574   1.887 -0.2918 -0.5686 -1.0324
  315MOL0     C41503   2.281   1.592   1.768  0.6710 -0.1465  0.3037
  315MOL0     C41504   2.405   1.667   1.766 -0.5926 -0.6451 -0.2221
  315MOL0     C41505   2.449   1.723   1.887 -0.0104 -0.1887 -0.5006
  315MOL0     O41506   2.566   1.798   1.879 -0.2541  0.2541  0.5984
  315MOL0     C41507   2.647   1.833   1.994  0.2841 -0.0372  0.8139
  315MOL0     C41508   2.786   1.887   1.943 -0.3755  0.2166  0.5225
  315MOL0     C41509   2.867   1.974   2.043 -0.6636 -0.0047 -0.5644
  315MOL0     C41510   2.868   1.917   2.187  0.0531  0.8371  0.6637
  315MOL0     C41511   2.908   2.017   2.286 -0.2148 -0.4444 -0.0839
  315MOL0     C41512   2.936   2.101   2.370 -0.1963  0.5778 -0.2048
  315MOL0     C41513   2.381   1.705   2.010 -0.3073  0.2724  0.3387
  315MOL0     C41514   2.272   1.625   2.007 -0.0706 -0.8699  0.4924
  315MOL0     H41515   1.874   1.437   1.568 -3.3130  0.5447 -1.7511
  315MOL0     H41516   1.663   1.298   1.556  0.5926  1.1477 -1.3040
  315MOL0     H41517   1.388   1.324   1.840 -1.4691 -0.7921 -0.1043
  315MOL0     H41518   1.453   1.197   1.946  2.3971  0.3743  0.0650
  315MOL0     H41519   1.315   1.033   1.857 -0.9571  1.6233  2.4294
  315MOL0     H41520   1.267   1.124   1.716 -0.2373 -0.6602 -0.6077
  315MOL0     H41521   1.152   1.298   1.867  0.3371 -0.9698 -1.9714
  315MOL0     H41522   1.182   1.194   2.007 -0.1026  0.9799 -0.2066
  315MOL0     H41523   1.059   1.104   1.735  2.6121 -2.3379 -0.4466
  315MOL0     H41524   1.058   1.018   1.890  2.6810  2.0170  0.7827
  315MOL0     H41525   0.825   1.138   1.818  0.4289 -1.9118  0.8401
  315MOL0     H41526   0.927   1.289   1.841  0.3149  0.5201  1.3521
  315MOL0     H41527   0.798   1.268   2.036  1.7120  2.5132  1.2587
  315MOL0     H41528   0.964   1.249   2.080 -2.3792  2.5231  1.4088
  315MOL0     H41529   0.758   1.020   2.019 -1.3822 -0.7025 -0.6737
  315MOL0     H41530   0.919   0.996   2.098 -0.4574  0.8492 -2.0812
  315MOL0     H41531   0.779   0.985   2.264  0.4142  1.0173  0.1553
  315MOL0     H41532   0.687   1.126   2.205  0.0676  1.4432 -3.8132
  315MOL0     H41533   1.032   0.991   2.349  1.8840 -0.7838 -0.4393
  315MOL0     H41534   1.166   1.207   2.617  1.3124  0.9576 -1.0437
  315MOL0     H41535   1.244   1.123   2.481  0.6491  0.0571 -0.9438
  315MOL0     H41536   1.154   0.914   2.541 -0.4154  0.7316 -0.5664
  315MOL0     H41537   1.033   0.966   2.632  0.0096 -0.8555 -0.1050
  315MOL0     H41538   1.170   1.064   2.815  4.4646 -0.3171  4.4558
  315MOL0     H41539   1.193   0.892   2.791  1.6368  0.7846  0.8236
  315MOL0     H41540   1.417   0.991   2.827 -1.3817  0.8113  0.4622
  315MOL0     H41541   1.399   1.095   2.686  1.2266  0.4402  1.2780
  315MOL0     H41542   1.615   1.025   2.775  0.8500 -2.3578  1.3759
  315MOL0     H41543   1.847   0.967   2.754  0.0764 -0.5460  0.0182
  315MOL0     H41544   2.228   0.993   2.826 -0.0558 -0.8685  0.4090
  315MOL0     H41545   2.453   1.045   2.782  1.8457  0.9940 -2.7688
  315MOL0     H41546   2.712   0.993   2.795 -2.1543 -1.1904  0.4014
  315MOL0     H41547   2.650   1.089   2.654  1.1482 -0.9941 -1.9834
  315MOL0     H41548   2.876   0.906   2.602  2.4108  0.0160  0.8306
  315MOL0     H41549   2.901   1.067   2.674 -2.4363  1.2231  1.9978
  315MOL0     H41550   2.736   1.141   2.473  0.9369  1.1963 -0.6759
  315MOL0     H41551   2.773   0.976   2.412  0.6277  0.0696 -1.4754
  315MOL0     H41552   2.895   1.140   2.309 -1.3426  1.6872  0.3517
  315MOL0     H41553   2.976   1.207   2.452  1.0943 -1.4851  1.2921
  315MOL0     H41554   3.040   0.932   2.335  3.6652  1.0989 -2.0901
  315MOL0     H41555   3.092   0.979   2.496  0.6773  0.3953 -0.4394
  315MOL0     H41556   3.201   1.193   2.389  3.3870 -0.0283 -0.2594
  315MOL0     H41557   3.126   1.131   2.236 -0.3208 -0.6600  0.3090
  315MOL0     H41558   3.325   0.993   2.414  1.2866  1.9205  0.9997
  315MOL0     H41559   3.271   0.924   2.268  2.2592 -0.8927  1.0698
  315MOL0     H41560   3.494   1.031   2.242 -0.5776 -1.4372  2.2645
  315MOL0     H41561   3.417   1.190   2.289  0.5002 -0.9165  2.7042
  315MOL0     H41562   2.461   0.760   2.463  0.0543  1.5923 -1.6440
  315MOL0     H41563   2.227   0.701   2.492  2.3921 -0.7838 -0.2959
  315MOL0     H41564   1.757   0.706   2.430  0.7431  1.7502 -0.9876
  315MOL0     H41565   1.514   0.724   2.471  0.6963  0.4611 -1.0383
  315MOL0     H41566   1.659   1.282   1.985  2.5680 -1.1888  0.1855
  315MOL0     H41567   1.851   1.409   1.991  3.2291 -3.1082 -0.4117
  315MOL0     H41568   2.238   1.554   1.676 -1.0495 -2.2867  1.8857
  315MOL0     H41569   2.465   1.675   1.676 -0.2807 -0.9864 -0.0510
  315MOL0     H41570   2.679   1.743   2.049  0.6792 -1.5090 -1.6914
  315MOL0     H41571   2.596   1.911   2.051  0.5108  1.4816 -0.9876
  315MOL0     H41572   2.843   1.798   1.915 -2.1117 -0.1924 -2.0897
  315MOL0     H41573   2.773   1.949   1.854 -2.0523  3.0679  2.6115
  315MOL0     H41574   2.827   2.074   2.059  0.2971  0.1143  1.2933
  315MOL0     H41575   2.969   1.999   2.011 -0.2718  0.0919  0.7312
  315MOL0     H41576   2.763   1.891   2.207 -1.1370  5.4423  1.4869
  315MOL0     H41577   2.925   1.824   2.192  0.4029  0.6471 -3.4024
  315MOL0     H41578   2.968   2.165   2.450  5.6525 -0.5780 -1.1419
  315MOL0     H41579   2.420   1.754   2.098  3.1642 -1.5853  0.0150
  315MOL0     H41580   2.220   1.613   2.101 -1.4287  3.0908  0.4507
  316MOL0     O41581  10.685   2.305   7.457 -0.6240  0.0826  0.6630
  316MOL0     C41582  10.785   2.284   7.382 -0.8971  0.5451  0.0209
  316MOL0     O41583  10.783   2.218   7.259  0.2767 -0.2418  0.4790
  316MOL0     C41584  10.659   2.191   7.206 -0.5359  0.1099  0.7082
  316MOL0     C41585  10.582   2.086   7.259 -0.1147 -0.1076  0.1848
  316MOL0     C41586  10.461   2.046   7.189 -0.4113 -0.8060 -0.6664
  316MOL0     C41587  10.414   2.106   7.073  0.0720  0.1916  0.0100
  316MOL0     O41588  10.310   2.053   7.010  0.0678  0.1246  0.2175
  316MOL0     C41589  10.215   2.126   6.946 -0.0854 -0.0150 -0.3946
  316MOL0     C41590  10.106   2.146   7.058 -0.0109  1.6180 -0.0546
  316MOL0     C41591   9.967   2.189   7.003 -0.2241 -0.1464  0.8242
  316MOL0     C41592   9.876   2.238   7.116  0.6650  0.0223  0.1102
  316MOL0     C41593   9.734   2.257   7.065 -0.3981 -0.6498 -0.1551
  316MOL0     C41594   9.632   2.254   7.187  0.8316 -0.0632 -0.2317
  316MOL0     C41595   9.477   2.248   7.136  0.3785  0.3882  0.5252
  316MOL0     C41596   9.427   2.391   7.093  0.3210 -0.2408  0.8259
  316MOL0     N41597   9.284   2.393   7.050  0.3076 -0.2389 -0.9458
  316MOL0     C41598   9.242   2.365   6.932  0.4284  0.1798 -0.2544
  316MOL0     C41599   9.105   2.355   6.944  0.2166 -0.4099  0.5089
  316MOL0     C41600   9.013   2.303   6.836  0.2819 -0.4890 -0.4852
  316MOL0     C41601   8.880   2.374   6.864  0.2428  0.1751  0.7995
  316MOL0     C41602   8.775   2.364   6.749  0.1840 -0.8454  0.3105
  316MOL0     C41603   8.650   2.449   6.779  0.5270 -0.3571 -1.3460
  316MOL0     O41604   8.586   2.408   6.901  0.3962 -0.4605 -0.0113
  316MOL0     C41605   8.455   2.376   6.915 -0.6543 -0.7254  0.2161
  316MOL0     C41606   8.395   2.382   7.041 -0.5302  0.0479  0.0700
  316MOL0     C41607   8.262   2.339   7.062  0.5609 -0.0438  0.5419
  316MOL0     C41608   8.197   2.277   6.958  0.4027 -0.2292  0.1114
  316MOL0     C41609   8.051   2.235   6.964  0.0094 -0.5790  0.6467
  316MOL0     O41610   7.999   2.147   6.874 -0.1270 -0.0121  0.4317
  316MOL0     C41611   7.861   2.120   6.893  0.0046 -0.1984  0.0554
  316MOL0     C41612   7.752   2.209   6.874 -0.4151  0.7111 -0.0290
  316MOL0     C41613   7.622   2.174   6.908  0.0145 -0.0843 -0.1348
  316MOL0     C41614   7.591   2.044   6.956  0.0806 -0.0508  0.1775
  316MOL0     O41615   7.468   2.023   7.002 -0.2332 -0.1652  0.1303
  316MOL0     C41616   7.448   1.959   7.126  1.0630 -0.1812 -0.3079
  316MOL0     C41617   7.299   1.960   7.152  0.1877 -0.5497 -0.6031
  316MOL0     C41618   7.254   1.893   7.289  0.0005  0.3075  0.1606
  316MOL0     C41619   7.326   1.750   7.319  0.5289 -0.8931 -0.1344
  316MOL0     C41620   7.271   1.679   7.446 -0.8229 -0.2315  0.2734
  316MOL0     C41621   7.362   1.582   7.520  0.1936  0.3631  0.1517
  316MOL0     C41622   7.443   1.486   7.434  0.5739 -0.7362  0.4102
  316MOL0     C41623   7.568   1.432   7.506 -0.4533 -0.0664  0.1219
  316MOL0    Cl41624   7.680   1.557   7.559  0.1686 -0.1115 -0.2107
  316MOL0     C41625   7.692   1.953   6.968 -0.0889  0.6832 -0.1865
  316MOL0     C41626   7.819   1.990   6.938  0.0711  0.0897  0.4343
  316MOL0     O41627   7.983   2.274   7.056  0.2334 -0.4213  0.1871
  316MOL0     C41628   8.258   2.257   6.838  0.3050  0.4657  0.0467
  316MOL0     C41629   8.383   2.320   6.809 -0.3026 -0.3327  0.6397
  316MOL0     N41630   9.073   2.398   7.067  0.4843 -0.4362 -0.0053
  316MOL0     N41631   9.181   2.418   7.134 -0.5895 -0.1462 -0.0631
  316MOL0     C41632  10.496   2.202   7.018 -0.2472  0.0377  0.2493
  316MOL0     C41633  10.620   2.245   7.077 -0.1167  0.0614 -0.1572
  316MOL0     C41634  10.918   2.336   7.430 -0.0380 -0.3957  1.1909
  316MOL0     C41635  11.032   2.322   7.339 -0.0171  0.1899  0.4730
  316MOL0     C41636  11.153   2.381   7.375  0.0312 -0.1772 -0.5474
  316MOL0     C41637  11.164   2.447   7.500 -0.7017  0.4259 -0.1651
  316MOL0     O41638  11.287   2.511   7.508 -0.1032 -0.1497 -0.2337
  316MOL0     C41639  11.320   2.579   7.633  0.0456 -0.1363  0.0402
  316MOL0     C41640  11.465   2.608   7.629 -0.5967 -0.8326  0.2686
  316MOL0     C41641  11.504   2.753   7.635 -0.1351  0.3673  0.3758
  316MOL0     C41642  11.649   2.769   7.588  0.5130 -1.4403 -0.4291
  316MOL0     C41643  11.747   2.676   7.652  0.4506  0.4190  0.3936
  316MOL0     C41644  11.820   2.597   7.707 -0.6549 -0.3607  0.2131
  316MOL0     C41645  11.055   2.461   7.590 -0.3169  0.1455 -0.1838
  316MOL0     C41646  10.934   2.398   7.556  1.3778 -0.2095  0.6302
  316MOL0     H41647  10.614   2.045   7.354 -0.1485  0.6969  0.5497
  316MOL0     H41648  10.409   1.957   7.224 -0.8610  0.7448  3.0073
  316MOL0     H41649  10.176   2.053   6.874  1.6415 -1.9349  0.5276
  316MOL0     H41650  10.259   2.212   6.894  1.6778  0.4983  1.7877
  316MOL0     H41651  10.151   2.216   7.129  0.6267  1.3508 -0.1842
  316MOL0     H41652  10.101   2.057   7.121  1.7029  0.9840 -0.7482
  316MOL0     H41653   9.924   2.105   6.947  0.3221 -0.5443  1.0010
  316MOL0     H41654   9.970   2.280   6.942 -2.6981  0.1633  1.0523
  316MOL0     H41655   9.868   2.156   7.188  1.6921 -2.2725 -2.2327
  316MOL0     H41656   9.919   2.330   7.158 -1.0089 -0.0581  2.1525
  316MOL0     H41657   9.718   2.179   6.990 -0.3121  1.1172 -2.0938
  316MOL0     H41658   9.717   2.353   7.015 -0.0455  0.4087  1.6555
  316MOL0     H41659   9.636   2.345   7.248 -1.5962  0.0379 -0.1258
  316MOL0     H41660   9.652   2.169   7.253  2.1163 -0.4185 -1.0233
  316MOL0     H41661   9.467   2.172   7.058  1.2407  0.2558  0.5383
  316MOL0     H41662   9.419   2.210   7.220  1.2631 -1.4963  0.3284
  316MOL0     H41663   9.489   2.420   7.007  1.5466 -2.2429  0.9610
  316MOL0     H41664   9.444   2.468   7.169 -1.7758  0.6894  0.4229
  316MOL0     H41665   9.290   2.335   6.840  0.4916 -3.7474  0.8739
  316MOL0     H41666   9.007   2.195   6.853  0.5241 -0.4561 -0.1802
  316MOL0     H41667   9.050   2.315   6.734  1.9474  0.4723  0.1886
  316MOL0     H41668   8.907   2.480   6.867  2.8234 -0.4327  2.0802
  316MOL0     H41669   8.840   2.338   6.960 -1.6566 -0.4924 -0.1855
  316MOL0     H41670   8.823   2.404   6.660  2.2106  2.1662  2.5540
  316MOL0     H41671   8.738   2.262   6.732  0.5588 -0.8460 -0.5372
  316MOL0     H41672   8.584   2.436   6.693 -1.3138 -2.9028  0.3049
  316MOL0     H41673   8.697   2.547   6.786  0.9094 -0.5211 -1.6106
  316MOL0     H41674   8.445   2.401   7.135 -5.0635 -1.0661  2.9953
  316MOL0     H41675   8.219   2.344   7.161 -0.1224  3.3929  0.1992
  316MOL0     H41676   7.762   2.315   6.852 -0.0530  0.0365 -3.7127
  316MOL0     H41677   7.546   2.250   6.895  1.7378  1.8014  0.2928
  316MOL0     H41678   7.504   2.021   7.198 -0.7899  0.9852  0.2013
  316MOL0     H41679   7.480   1.855   7.130  3.2808  0.4191 -1.1011
  316MOL0     H41680   7.241   1.912   7.073  0.8768  0.0636 -1.5014
  316MOL0     H41681   7.269   2.065   7.143 -0.1160 -0.1874  3.1228
  316MOL0     H41682   7.147   1.876   7.304 -0.2098 -2.4071 -3.2407
  316MOL0     H41683   7.284   1.966   7.364 -1.1549  1.1122 -0.1351
  316MOL0     H41684   7.321   1.676   7.239  0.2856 -0.5719 -0.4194
  316MOL0     H41685   7.427   1.782   7.346 -0.1738  1.7692 -0.4028
  316MOL0     H41686   7.178   1.625   7.425 -0.3184 -0.8100 -0.4752
  316MOL0     H41687   7.246   1.757   7.519  1.8703  1.0072 -0.0129
  316MOL0     H41688   7.289   1.524   7.578  0.8697 -2.5014 -1.6349
  316MOL0     H41689   7.425   1.653   7.575  1.3225 -1.5330  1.4663
  316MOL0     H41690   7.369   1.409   7.412  0.2399 -0.1407 -0.6072
  316MOL0     H41691   7.463   1.538   7.339 -4.0740 -1.0055 -0.9364
  316MOL0     H41692   7.618   1.351   7.452 -3.2853 -0.5808 -1.9774
  316MOL0     H41693   7.532   1.376   7.593  0.2175 -0.5838  0.0696
  316MOL0     H41694   7.662   1.856   7.006  1.8668  1.4761  3.9788
  316MOL0     H41695   7.899   1.918   6.938  1.6157  1.7285 -0.9428
  316MOL0     H41696   8.205   2.203   6.760  0.3231 -0.9852  1.0065
  316MOL0     H41697   8.418   2.318   6.707 -3.3539 -2.2242 -0.5014
  316MOL0     H41698  10.469   2.231   6.917 -3.3154  0.4801  1.0884
  316MOL0     H41699  10.694   2.312   7.035  1.4859 -1.8967 -0.6338
  316MOL0     H41700  11.017   2.281   7.240  2.0696  2.4456 -0.8896
  316MOL0     H41701  11.229   2.393   7.299  1.3066 -1.6968  0.4091
  316MOL0     H41702  11.296   2.514   7.717 -0.9118 -1.6501 -1.3451
  316MOL0     H41703  11.255   2.666   7.642 -0.7211 -0.4210 -2.0753
  316MOL0     H41704  11.495   2.566   7.726  0.6986  0.7382  0.5803
  316MOL0     H41705  11.511   2.560   7.543  0.2261 -1.1408  0.8718
  316MOL0     H41706  11.491   2.786   7.739  1.5160  0.1493  0.6738
  316MOL0     H41707  11.442   2.817   7.571 -1.9475 -0.2740  1.4173
  316MOL0     H41708  11.662   2.771   7.479 -3.1049  0.3990 -0.9956
  316MOL0     H41709  11.681   2.869   7.616 -0.8087 -1.0811 -0.1382
  316MOL0     H41710  11.880   2.521   7.752  0.1020  0.1562  0.0858
  316MOL0     H41711  11.061   2.517   7.683 -1.2698  2.1148 -1.2348
  316MOL0     H41712  10.844   2.406   7.617  0.3140  1.8758 -1.0660
  317MOL0     O41713   9.793   9.555   0.891 -0.1068 -0.0136  0.2081
  317MOL0     C41714   9.866   9.459   0.870 -0.6974  0.7774 -0.3543
  317MOL0     O41715   9.816   9.334   0.849  0.3305  0.2566 -0.0400
  317MOL0     C41716   9.685   9.302   0.854 -0.6563  0.4210  0.3812
  317MOL0     C41717   9.592   9.377   0.783 -0.2066 -0.3932 -0.7914
  317MOL0     C41718   9.458   9.344   0.791  0.0365 -0.6945 -0.1932
  317MOL0     C41719   9.414   9.229   0.858  0.6165  0.5517  0.6756
  317MOL0     O41720   9.277   9.193   0.865  0.2091  0.3025 -0.2445
  317MOL0     C41721   9.178   9.292   0.873  0.4386 -0.7895  0.9714
  317MOL0     C41722   9.050   9.220   0.911 -0.5205  1.0517 -0.3760
  317MOL0     C41723   8.928   9.289   0.876  0.7339 -0.3077  0.2943
  317MOL0     C41724   8.816   9.207   0.930  0.1505  0.4023  0.2261
  317MOL0     C41725   8.680   9.250   0.886  0.0782  0.4894  1.2235
  317MOL0     C41726   8.564   9.157   0.931 -1.0757  1.0343 -0.2181
  317MOL0     C41727   8.438   9.183   0.859  0.0154 -0.2201 -0.2139
  317MOL0     C41728   8.339   9.077   0.903 -0.0878 -0.4573  0.1260
  317MOL0     N41729   8.206   9.101   0.846  0.2554  0.6233  0.4153
  317MOL0     C41730   8.148   9.036   0.737 -0.8818 -0.7374  0.2217
  317MOL0     C41731   8.025   9.098   0.721  0.7232  0.6647  0.6338
  317MOL0     C41732   7.915   9.069   0.624 -0.2068 -0.1189 -0.7370
  317MOL0     C41733   7.964   8.989   0.506  0.3058 -0.0158 -0.1834
  317MOL0     C41734   7.863   8.973   0.397  0.2488  0.6088 -1.1342
  317MOL0     C41735   7.768   8.853   0.414 -0.1289 -0.9686  0.4692
  317MOL0     O41736   7.830   8.730   0.441 -0.4490 -1.0311 -0.1832
  317MOL0     C41737   7.754   8.624   0.484 -0.2630  0.1200 -0.4412
  317MOL0     C41738   7.807   8.498   0.488 -0.3470  1.2414 -0.4531
  317MOL0     C41739   7.741   8.385   0.523 -0.6343  0.5847 -0.3341
  317MOL0     C41740   7.609   8.402   0.565  0.3790  0.0501 -0.3225
  317MOL0     C41741   7.528   8.282   0.612 -0.3499 -1.1262 -0.3082
  317MOL0     O41742   7.394   8.305   0.614  0.0266  0.9097  0.4850
  317MOL0     C41743   7.320   8.212   0.685  0.5416 -0.0476 -0.4242
  317MOL0     C41744   7.247   8.107   0.622 -0.1235 -0.3004  0.1189
  317MOL0     C41745   7.159   8.020   0.695 -0.3209 -0.3421  0.0371
  317MOL0     C41746   7.145   8.041   0.834 -0.5415  0.0640 -0.2488
  317MOL0     O41747   7.068   7.959   0.911 -0.4513 -1.0042 -1.0782
  317MOL0     C41748   6.949   7.899   0.846  0.0012  0.3316  0.4228
  317MOL0     C41749   6.857   7.853   0.958 -0.6431  0.8734  0.2283
  317MOL0     C41750   6.724   7.805   0.896 -0.4384 -0.1888 -0.1550
  317MOL0     C41751   6.604   7.781   0.984 -0.1225 -1.3533 -0.8796
  317MOL0     C41752   6.493   7.717   0.906 -0.2754 -0.6820  0.2475
  317MOL0     C41753   6.371   7.688   0.985  0.4717  0.1207  0.1466
  317MOL0     C41754   6.252   7.675   0.903  1.7092  0.8077 -0.7676
  317MOL0     C41755   6.125   7.657   0.989  0.2167  0.2192 -0.8857
  317MOL0    Cl41756   5.964   7.663   0.897 -0.0977  0.1537 -0.2294
  317MOL0     C41757   7.224   8.141   0.895 -0.9183 -0.3821 -0.1705
  317MOL0     C41758   7.310   8.223   0.821 -0.4474  0.6964  0.0229
  317MOL0     O41759   7.580   8.173   0.646  0.4385  0.7456  0.2407
  317MOL0     C41760   7.552   8.524   0.571 -1.1030 -0.0454  0.0736
  317MOL0     C41761   7.624   8.632   0.527  0.8575 -1.5159  0.1511
  317MOL0     N41762   8.018   9.202   0.811 -0.3172  0.3434  0.1974
  317MOL0     N41763   8.124   9.205   0.880  0.0428 -0.7077 -0.0618
  317MOL0     C41764   9.501   9.139   0.922  0.6516 -0.5195 -0.4951
  317MOL0     C41765   9.638   9.186   0.921  0.9601  0.0144 -0.3712
  317MOL0     C41766  10.009   9.473   0.889 -0.0763  0.3557 -0.3755
  317MOL0     C41767  10.059   9.572   0.985 -1.4856  0.6703  1.2778
  317MOL0     C41768  10.192   9.577   1.025  0.3256  0.7062 -0.6972
  317MOL0     C41769  10.289   9.500   0.959 -0.0483  0.1307 -0.4007
  317MOL0     O41770  10.417   9.491   1.000  0.3023  0.0602  0.5374
  317MOL0     C41771  10.485   9.587   1.089  0.6204 -0.0343 -0.1948
  317MOL0     C41772  10.634   9.541   1.096 -0.4866 -0.5389  0.4393
  317MOL0     C41773  10.719   9.662   1.144  0.1001  0.3064  0.7319
  317MOL0     C41774  10.861   9.600   1.194  0.8886  0.0782 -0.5269
  317MOL0     C41775  10.940   9.701   1.267 -0.5634 -0.0657  1.2621
  317MOL0     C41776  10.990   9.785   1.331 -0.1650 -0.0859 -0.4934
  317MOL0     C41777  10.243   9.402   0.868 -0.3028 -0.9650  0.1537
  317MOL0     C41778  10.107   9.385   0.829  0.0326  0.0464 -0.0696
  317MOL0     H41779   9.619   9.472   0.736  3.7713 -1.7492 -1.6856
  317MOL0     H41780   9.392   9.407   0.733  1.7712 -0.7851 -2.3770
  317MOL0     H41781   9.160   9.340   0.776 -3.1775 -1.8644  0.9542
  317MOL0     H41782   9.200   9.366   0.951  4.9934  0.0370 -0.7595
  317MOL0     H41783   9.046   9.204   1.019  0.8344 -0.5668 -0.5430
  317MOL0     H41784   9.042   9.125   0.858 -1.9440  1.3676 -0.7911
  317MOL0     H41785   8.930   9.311   0.769  0.9589 -2.8229 -0.2605
  317MOL0     H41786   8.926   9.386   0.927 -0.1205  0.2430 -0.7464
  317MOL0     H41787   8.822   9.105   0.889  3.6873  0.6527 -0.1923
  317MOL0     H41788   8.814   9.206   1.039 -1.2999  0.2425  0.2187
  317MOL0     H41789   8.694   9.262   0.778  1.4327  0.0175  1.3366
  317MOL0     H41790   8.657   9.350   0.925 -1.5736  0.1708  1.1750
  317MOL0     H41791   8.569   9.179   1.038 -0.8324  0.7597 -0.1724
  317MOL0     H41792   8.595   9.053   0.925  4.8215  2.4971 -1.9150
  317MOL0     H41793   8.400   9.282   0.886  1.3430  0.3439 -0.3390
  317MOL0     H41794   8.451   9.161   0.753  0.6059 -1.1446  0.0376
  317MOL0     H41795   8.334   9.079   1.012  0.6845  0.6300  0.1531
  317MOL0     H41796   8.371   8.977   0.873  0.5372 -0.5339  0.9877
  317MOL0     H41797   8.189   8.948   0.688 -0.2901 -0.5454  0.3579
  317MOL0     H41798   7.889   9.169   0.591  1.8718  0.9134  0.5166
  317MOL0     H41799   7.834   9.015   0.675  1.0634 -0.8373  0.6101
  317MOL0     H41800   7.992   8.892   0.548 -2.1778 -1.2960 -1.2824
  317MOL0     H41801   8.055   9.034   0.464  0.6162 -1.0715 -0.6652
  317MOL0     H41802   7.794   9.057   0.384 -1.6514 -0.7631 -0.4224
  317MOL0     H41803   7.912   8.958   0.300 -0.4213  0.2553 -1.4251
  317MOL0     H41804   7.703   8.842   0.327 -2.0801 -1.0454  1.8787
  317MOL0     H41805   7.703   8.880   0.498 -2.0667 -1.5560 -0.7895
  317MOL0     H41806   7.913   8.483   0.469 -0.7840 -0.0921 -2.1099
  317MOL0     H41807   7.782   8.285   0.520  2.3890  1.6853 -0.0326
  317MOL0     H41808   7.262   8.085   0.516 -2.0049 -3.4882  0.3721
  317MOL0     H41809   7.113   7.929   0.658  0.3779 -0.5505 -0.3354
  317MOL0     H41810   6.964   7.824   0.769 -0.6130  1.1720 -0.5431
  317MOL0     H41811   6.897   7.978   0.791 -1.3105 -0.2095  0.8578
  317MOL0     H41812   6.831   7.938   1.022 -3.3807 -0.0632  0.5064
  317MOL0     H41813   6.911   7.779   1.017 -0.7372  2.6402  2.6831
  317MOL0     H41814   6.737   7.709   0.845  2.4157  0.7445 -1.3852
  317MOL0     H41815   6.688   7.877   0.823 -1.7854 -0.1362  0.5268
  317MOL0     H41816   6.631   7.714   1.066  0.1615 -0.6519 -0.3918
  317MOL0     H41817   6.577   7.878   1.028 -0.2827 -1.0775 -1.5785
  317MOL0     H41818   6.525   7.625   0.855 -0.5597  0.0251 -1.2685
  317MOL0     H41819   6.473   7.778   0.817  2.1771  1.9071  1.3238
  317MOL0     H41820   6.346   7.762   1.061 -0.2849  3.7455 -3.3300
  317MOL0     H41821   6.391   7.589   1.028  1.8991 -0.7793 -2.3969
  317MOL0     H41822   6.244   7.763   0.839  2.8183 -0.5964 -2.9683
  317MOL0     H41823   6.273   7.583   0.846  0.1466  1.0652 -1.8324
  317MOL0     H41824   6.121   7.740   1.060 -0.3624 -0.4157 -0.1503
  317MOL0     H41825   6.139   7.562   1.042 -2.4217  1.6081  2.7373
  317MOL0     H41826   7.217   8.163   1.001 -1.0700 -0.2764 -0.2019
  317MOL0     H41827   7.378   8.293   0.869  0.0621  0.4433 -0.3272
  317MOL0     H41828   7.448   8.543   0.596 -0.4213  2.2193  1.5482
  317MOL0     H41829   7.566   8.723   0.517 -1.9683 -2.8302  2.8582
  317MOL0     H41830   9.468   9.047   0.969  1.8932 -1.7805 -1.9579
  317MOL0     H41831   9.706   9.122   0.976  4.7947  1.6698 -2.7222
  317MOL0     H41832   9.986   9.642   1.024 -2.6237 -1.2770  2.8587
  317MOL0     H41833  10.218   9.655   1.096  0.4992  2.7665 -2.8636
  317MOL0     H41834  10.430   9.582   1.183 -1.6275  3.0503 -1.2059
  317MOL0     H41835  10.483   9.689   1.050 -0.8300 -0.0458 -0.1902
  317MOL0     H41836  10.641   9.456   1.166 -0.2853  0.8059  2.1190
  317MOL0     H41837  10.665   9.509   0.996  1.3158 -2.6543  1.5681
  317MOL0     H41838  10.677   9.723   1.225  1.1503  1.3766  0.5028
  317MOL0     H41839  10.735   9.728   1.058  1.6198 -0.6858  0.2034
  317MOL0     H41840  10.835   9.522   1.266  2.8539  1.0072  1.3057
  317MOL0     H41841  10.918   9.556   1.112  0.9939 -2.3913  0.7774
  317MOL0     H41842  11.037   9.868   1.380 -0.7715  0.8001 -1.3810
  317MOL0     H41843  10.314   9.335   0.821  0.2037 -0.5679  0.3390
  317MOL0     H41844  10.077   9.302   0.766 -0.8214  0.9781 -0.9490
  318MOL0     O41845   2.884   6.547   9.407  0.9442  0.6128 -0.0985
  318MOL0     C41846   2.869   6.627   9.503  0.2670  0.4977 -0.0136
  318MOL0     O41847   2.749   6.658   9.556 -0.2470 -0.3883 -0.0824
  318MOL0     C41848   2.623   6.627   9.505 -0.4733  0.0795 -0.1443
  318MOL0     C41849   2.588   6.635   9.370 -0.8586  0.4652  0.1277
  318MOL0     C41850   2.463   6.598   9.321 -0.1867  0.1258 -0.6758
  318MOL0     C41851   2.369   6.555   9.416 -0.1384 -0.5054  0.4085
  318MOL0     O41852   2.241   6.548   9.369  0.0018 -0.0773  0.1037
  318MOL0     C41853   2.172   6.431   9.412  0.4918  0.0863 -0.3020
  318MOL0     C41854   2.053   6.414   9.321  0.2450  0.3451 -0.0730
  318MOL0     C41855   1.943   6.323   9.368  0.6145  0.1753 -0.1139
  318MOL0     C41856   1.824   6.291   9.271 -0.0793  0.1453  0.5016
  318MOL0     C41857   1.701   6.241   9.343  0.0853  0.3636  0.9185
  318MOL0     C41858   1.583   6.220   9.251  1.3406 -0.0057 -0.1720
  318MOL0     C41859   1.477   6.135   9.326 -0.5506  0.3307 -0.7632
  318MOL0     C41860   1.358   6.096   9.235 -0.2601 -0.2775 -0.1547
  318MOL0     N41861   1.247   6.005   9.267  0.3583  0.3091  0.0157
  318MOL0     C41862   1.165   5.952   9.172  0.1661 -0.3111  0.2661
  318MOL0     C41863   1.091   5.860   9.231 -0.6849  0.0105  0.8422
  318MOL0     C41864   1.001   5.770   9.158 -0.1706  0.7680 -0.0365
  318MOL0     C41865   0.873   5.825   9.103 -0.3865  0.3053 -0.1191
  318MOL0     C41866   0.782   5.716   9.033  0.3385 -0.2570  0.5025
  318MOL0     C41867   0.647   5.788   8.988 -0.9446  0.6119 -0.2131
  318MOL0     O41868   0.562   5.812   9.101  0.0638 -0.6006  0.4497
  318MOL0     C41869   0.449   5.898   9.079  0.8563  1.0357  0.6151
  318MOL0     C41870   0.431   5.978   8.970  0.0143  0.3832  0.9934
  318MOL0     C41871   0.319   6.065   8.963  0.4144 -0.6439  0.6852
  318MOL0     C41872   0.215   6.057   9.054 -0.0551  0.1327  0.6549
  318MOL0     C41873   0.085   6.121   9.031  0.3304 -0.1122  0.7679
  318MOL0     O41874   0.078   6.183   8.905  0.3373 -0.2279  0.2056
  318MOL0     C41875  -0.037   6.234   8.855  0.4803  0.2743 -0.1402
  318MOL0     C41876  -0.089   6.363   8.875 -0.4224 -0.3753  0.3971
  318MOL0     C41877  -0.209   6.406   8.818 -0.2732  0.2396  0.2949
  318MOL0     C41878  -0.292   6.311   8.757 -0.5674  0.2863 -0.1192
  318MOL0     O41879  -0.404   6.346   8.697 -0.0413 -0.3255 -0.9557
  318MOL0     C41880  -0.427   6.315   8.560 -0.2858  0.0769  0.0934
  318MOL0     C41881  -0.518   6.426   8.503  1.1598 -0.1385 -0.2842
  318MOL0     C41882  -0.644   6.456   8.592 -0.3795 -0.0200  0.3287
  318MOL0     C41883  -0.703   6.583   8.530  0.2604 -0.0950  0.3347
  318MOL0     C41884  -0.843   6.627   8.586 -0.3163  0.4880  0.0625
  318MOL0     C41885  -0.901   6.748   8.514  0.5749  0.5240 -0.0756
  318MOL0     C41886  -1.007   6.819   8.609 -0.3102 -1.3961  0.2375
  318MOL0     C41887  -1.019   6.965   8.561  0.5547  0.3104 -0.5701
  318MOL0    Cl41888  -0.868   7.053   8.586 -0.3481 -0.0560 -0.5219
  318MOL0     C41889  -0.252   6.170   8.753 -0.3940  0.6709 -0.4522
  318MOL0     C41890  -0.122   6.145   8.793  0.2928 -0.3788 -0.4962
  318MOL0     O41891   0.002   6.122   9.120  1.0717 -0.1041 -0.0531
  318MOL0     C41892   0.229   5.960   9.153  0.6030 -0.2646 -0.0761
  318MOL0     C41893   0.352   5.890   9.171  0.3200 -0.6188 -0.6184
  318MOL0     N41894   1.140   5.847   9.357 -0.6874  0.6591 -0.3685
  318MOL0     N41895   1.225   5.935   9.379  0.4375 -1.3063 -0.7050
  318MOL0     C41896   2.401   6.544   9.558  0.9860 -0.0127  0.3172
  318MOL0     C41897   2.530   6.577   9.598 -0.9696 -1.0952 -0.2031
  318MOL0     C41898   2.996   6.671   9.568  0.7202  0.4339  0.8722
  318MOL0     C41899   3.120   6.627   9.517  0.6796 -0.3776  0.0552
  318MOL0     C41900   3.241   6.681   9.567 -0.2532 -0.1335 -0.9753
  318MOL0     C41901   3.236   6.758   9.680  0.8874 -0.0958 -0.7595
  318MOL0     O41902   3.345   6.801   9.737 -0.9563 -0.3190  0.0124
  318MOL0     C41903   3.340   6.931   9.808 -1.4744 -0.4092  0.4410
  318MOL0     C41904   3.498   6.972   9.812  0.2758  0.3223 -0.5704
  318MOL0     C41905   3.605   6.862   9.848 -0.0987  0.3362 -0.1261
  318MOL0     C41906   3.741   6.884   9.778  0.0378 -0.7030 -0.1410
  318MOL0     C41907   3.726   6.857   9.632 -0.1437  0.4311 -0.6128
  318MOL0     C41908   3.725   6.830   9.513 -0.7150  0.0956 -0.2305
  318MOL0     C41909   3.114   6.778   9.746 -0.6476 -0.4273  0.5228
  318MOL0     C41910   2.995   6.742   9.687 -0.1699  0.0929  0.0057
  318MOL0     H41911   2.660   6.664   9.294 -0.5157 -0.4770  0.0783
  318MOL0     H41912   2.436   6.608   9.217  0.3567 -1.0332 -0.9461
  318MOL0     H41913   2.141   6.433   9.517  2.3487 -2.4118  0.3701
  318MOL0     H41914   2.237   6.344   9.417  1.7668  1.0347  0.2806
  318MOL0     H41915   2.100   6.377   9.229  0.0024  1.2721 -0.5794
  318MOL0     H41916   2.008   6.512   9.306  2.4770  1.2535 -1.2713
  318MOL0     H41917   1.902   6.363   9.461 -1.0673 -1.1125 -0.2437
  318MOL0     H41918   1.992   6.226   9.384  0.0249 -0.6814 -2.9746
  318MOL0     H41919   1.795   6.381   9.216  0.7514  0.2581  0.2349
  318MOL0     H41920   1.870   6.220   9.201 -2.6129 -1.6571  0.5703
  318MOL0     H41921   1.673   6.323   9.409  0.6301  0.8117  0.5962
  318MOL0     H41922   1.712   6.140   9.384  0.3569  0.8427  2.0400
  318MOL0     H41923   1.618   6.157   9.168 -0.1494 -2.1917  0.7499
  318MOL0     H41924   1.547   6.322   9.233 -2.2698 -0.4019  3.3978
  318MOL0     H41925   1.514   6.039   9.363 -0.4566  0.8003  0.3998
  318MOL0     H41926   1.440   6.183   9.417  0.2370  0.6796 -0.6173
  318MOL0     H41927   1.402   6.060   9.142 -1.2450 -1.4681 -0.1844
  318MOL0     H41928   1.309   6.190   9.209 -0.6400 -0.0618  1.2445
  318MOL0     H41929   1.155   5.985   9.070 -2.0477  0.3774  0.6517
  318MOL0     H41930   0.984   5.682   9.221  1.4747  0.9410  0.7186
  318MOL0     H41931   1.050   5.718   9.075 -1.1073  0.2669 -0.2862
  318MOL0     H41932   0.890   5.912   9.040  1.1170 -1.2247 -1.9667
  318MOL0     H41933   0.829   5.867   9.194 -0.1821 -1.2343  0.7257
  318MOL0     H41934   0.838   5.675   8.948 -0.1578 -0.4969  0.2914
  318MOL0     H41935   0.750   5.629   9.091  0.7819 -0.1775  0.8782
  318MOL0     H41936   0.599   5.736   8.905 -1.7190  1.1837 -0.1369
  318MOL0     H41937   0.677   5.886   8.949 -1.2692  0.7049 -0.2317
  318MOL0     H41938   0.498   5.980   8.885  0.8333 -0.4977  1.5962
  318MOL0     H41939   0.305   6.129   8.877 -0.3732 -0.2636  1.0838
  318MOL0     H41940  -0.024   6.424   8.936  1.9144 -1.4558 -0.8904
  318MOL0     H41941  -0.246   6.508   8.829  2.5459  1.3951 -0.1566
  318MOL0     H41942  -0.479   6.221   8.538 -0.3599  0.4179 -1.2772
  318MOL0     H41943  -0.335   6.320   8.500  0.9297 -1.3241  1.7448
  318MOL0     H41944  -0.544   6.401   8.400 -1.6691  0.8173  0.1110
  318MOL0     H41945  -0.464   6.521   8.508 -2.3121  1.9458  2.3621
  318MOL0     H41946  -0.622   6.478   8.697 -2.5240 -3.4498  1.6583
  318MOL0     H41947  -0.712   6.370   8.593  0.6209 -0.8772  2.5973
  318MOL0     H41948  -0.631   6.661   8.556  0.1523 -0.7850  2.9665
  318MOL0     H41949  -0.716   6.572   8.422  0.8337 -0.6294  0.3082
  318MOL0     H41950  -0.835   6.649   8.692  2.3821  0.1690 -0.0059
  318MOL0     H41951  -0.918   6.548   8.576 -0.4104  0.6680 -0.7965
  318MOL0     H41952  -0.954   6.722   8.422 -2.0534  2.9777  0.5642
  318MOL0     H41953  -0.812   6.808   8.494  0.7744  0.8191  1.5650
  318MOL0     H41954  -1.099   6.765   8.582 -0.8398 -0.9755  1.1558
  318MOL0     H41955  -0.997   6.805   8.717  1.4501 -1.1202  0.1372
  318MOL0     H41956  -1.103   7.009   8.617  0.2879 -0.6839 -0.1667
  318MOL0     H41957  -1.046   6.960   8.455  0.5270 -1.5008 -0.5056
  318MOL0     H41958  -0.322   6.096   8.716 -1.6250  1.6643 -0.1538
  318MOL0     H41959  -0.087   6.043   8.791 -3.2738 -1.7835  0.9498
  318MOL0     H41960   0.146   5.949   9.221  1.4440  0.4787  1.1248
  318MOL0     H41961   0.362   5.833   9.262 -0.5646  0.1673 -0.0110
  318MOL0     H41962   2.324   6.516   9.629  2.6968 -0.2371  2.1805
  318MOL0     H41963   2.558   6.572   9.703 -0.5987 -2.5419 -0.3505
  318MOL0     H41964   3.125   6.569   9.426 -1.7382  0.7525 -0.8966
  318MOL0     H41965   3.333   6.652   9.518  0.2013  3.2893 -2.4811
  318MOL0     H41966   3.312   6.903   9.911  1.0692  0.3667  1.4319
  318MOL0     H41967   3.269   7.003   9.768 -1.5845 -1.6735 -1.7713
  318MOL0     H41968   3.526   7.021   9.718 -0.7982  2.0609 -0.0326
  318MOL0     H41969   3.523   7.054   9.880  1.9145 -0.7563  0.1943
  318MOL0     H41970   3.564   6.765   9.820 -2.9313  1.7708 -1.3653
  318MOL0     H41971   3.616   6.868   9.956 -0.3820  0.7577 -0.1195
  318MOL0     H41972   3.777   6.987   9.782 -0.5470 -0.4619 -0.9418
  318MOL0     H41973   3.818   6.827   9.831  0.3933  0.1291  0.2622
  318MOL0     H41974   3.730   6.782   9.417 -1.1003 -2.9734  1.1652
  318MOL0     H41975   3.105   6.831   9.840 -1.1488 -1.0282  0.8242
  318MOL0     H41976   2.898   6.766   9.729  0.7811  2.9753  0.7520
  319MOL0     O41977  10.663   0.515   8.708 -0.7405  0.4676  0.0859
  319MOL0     C41978  10.695   0.532   8.822 -0.6700  0.0358  0.1499
  319MOL0     O41979  10.610   0.505   8.932  0.1982 -0.2257  0.7559
  319MOL0     C41980  10.488   0.439   8.919  0.3866 -0.1793 -0.5022
  319MOL0     C41981  10.385   0.481   9.012 -0.4675  0.1007  0.3157
  319MOL0     C41982  10.270   0.405   9.032 -0.1442 -0.3590  0.5857
  319MOL0     C41983  10.246   0.289   8.950  0.0684 -0.3019 -0.0658
  319MOL0     O41984  10.127   0.221   8.977 -0.8902  0.2516  1.2792
  319MOL0     C41985  10.095   0.118   8.876 -0.1774  0.1398 -0.4555
  319MOL0     C41986   9.955   0.064   8.920  0.6338 -0.3101  0.5645
  319MOL0     C41987   9.901  -0.020   8.801  1.6544 -0.1693 -0.7135
  319MOL0     C41988   9.759  -0.071   8.834 -0.7891 -0.3908  0.0163
  319MOL0     C41989   9.736  -0.158   8.964  0.2236  0.1441  0.2700
  319MOL0     C41990   9.591  -0.187   8.986 -0.0856  0.3609  0.4188
  319MOL0     C41991   9.555  -0.319   8.926 -0.5973 -0.4463 -0.6716
  319MOL0     C41992   9.411  -0.358   8.940 -0.6341  0.4764 -0.2438
  319MOL0     N41993   9.311  -0.250   8.915 -0.1043  0.1364 -0.1717
  319MOL0     C41994   9.286  -0.189   8.789  0.5331 -0.2323 -0.2063
  319MOL0     C41995   9.224  -0.073   8.827 -0.1798 -0.1915 -0.0207
  319MOL0     C41996   9.182   0.031   8.734  0.7076 -0.8290  0.2582
  319MOL0     C41997   9.083  -0.025   8.632  0.5558  0.6863 -0.5421
  319MOL0     C41998   8.951  -0.056   8.705  0.2359 -0.2132 -1.1338
  319MOL0     C41999   8.850  -0.101   8.608 -0.3163 -0.9930  0.7273
  319MOL0     O42000   8.815   0.015   8.522 -0.1410  0.0891  0.3446
  319MOL0     C42001   8.714   0.092   8.570  0.2508 -0.0360 -0.4083
  319MOL0     C42002   8.758   0.212   8.622  1.0393  0.2043  0.5553
  319MOL0     C42003   8.666   0.304   8.671 -0.2216  0.0771 -0.4638
  319MOL0     C42004   8.528   0.279   8.656 -0.2181 -0.1741  0.0303
  319MOL0     C42005   8.436   0.380   8.719  0.0844 -0.5313 -0.2880
  319MOL0     O42006   8.304   0.339   8.711 -0.3299 -0.1879  0.1654
  319MOL0     C42007   8.202   0.413   8.770 -0.2898 -0.3108 -0.5716
  319MOL0     C42008   8.193   0.557   8.792  0.2864 -0.1135  0.3369
  319MOL0     C42009   8.090   0.615   8.875  0.0615  0.3323 -0.0479
  319MOL0     C42010   7.984   0.536   8.920 -0.5504 -0.0073 -0.3893
  319MOL0     O42011   7.890   0.572   9.012 -1.1148 -0.3541 -0.5452
  319MOL0     C42012   7.884   0.703   9.068  0.3715  0.1262 -0.5501
  319MOL0     C42013   7.773   0.691   9.171 -0.1017 -0.3484 -0.0191
  319MOL0     C42014   7.826   0.618   9.304  0.6535  0.4353 -0.3644
  319MOL0     C42015   7.695   0.544   9.359  0.1703  0.2145 -0.3356
  319MOL0     C42016   7.729   0.468   9.489  0.0856  0.8806 -0.3052
  319MOL0     C42017   7.657   0.326   9.488  0.3570 -0.2229  0.1715
  319MOL0     C42018   7.679   0.242   9.616 -0.8547  0.0426  0.0879
  319MOL0     C42019   7.706   0.097   9.581  0.2251  0.7369 -0.1516
  319MOL0    Cl42020   7.556   0.036   9.503  0.0222  0.0703  0.4930
  319MOL0     C42021   7.986   0.398   8.887  1.4230 -1.0168  0.1198
  319MOL0     C42022   8.089   0.344   8.809  0.0079 -0.2472 -0.6469
  319MOL0     O42023   8.478   0.481   8.768 -0.4089 -0.2755  0.5346
  319MOL0     C42024   8.489   0.154   8.609 -0.8270 -0.4144  1.1274
  319MOL0     C42025   8.584   0.064   8.553  0.9957 -0.2142 -0.4280
  319MOL0     N42026   9.210  -0.068   8.957 -0.2458 -0.5925  0.0564
  319MOL0     N42027   9.265  -0.166   9.012  0.2974  0.2050  0.1180
  319MOL0     C42028  10.348   0.256   8.853  0.2809  0.0303 -1.0734
  319MOL0     C42029  10.467   0.325   8.844  0.1744 -0.0887 -0.2918
  319MOL0     C42030  10.827   0.593   8.853  0.9099 -0.0886  0.2728
  319MOL0     C42031  10.936   0.556   8.765 -0.2137  0.1569 -0.3916
  319MOL0     C42032  11.051   0.626   8.787  0.3951  1.2258 -0.1819
  319MOL0     C42033  11.067   0.722   8.896  0.7094 -0.0478  0.7618
  319MOL0     O42034  11.158   0.819   8.906 -0.0552 -0.4711 -0.2230
  319MOL0     C42035  11.291   0.784   8.861 -0.1616  0.1912 -0.7463
  319MOL0     C42036  11.354   0.918   8.820  0.3185 -0.3088 -1.2888
  319MOL0     C42037  11.277   0.981   8.705  0.0919 -0.3896 -0.0029
  319MOL0     C42038  11.351   1.110   8.670  0.8222 -0.2961  0.4980
  319MOL0     C42039  11.271   1.171   8.558  0.2982 -0.4797 -0.1644
  319MOL0     C42040  11.194   1.212   8.480 -0.8122 -0.2583  0.3211
  319MOL0     C42041  10.956   0.740   8.982  0.2650 -0.6086 -0.2174
  319MOL0     C42042  10.834   0.678   8.962 -0.2348 -0.2695  0.3259
  319MOL0     H42043  10.420   0.562   9.075  1.0750 -0.7861  0.6418
  319MOL0     H42044  10.199   0.432   9.110  0.5495  2.2808  0.3995
  319MOL0     H42045  10.168   0.038   8.870  0.2191  0.1957  2.2172
  319MOL0     H42046  10.092   0.174   8.782  0.3011  1.0939  0.0788
  319MOL0     H42047   9.887   0.147   8.941  0.2005 -0.9022  1.5936
  319MOL0     H42048   9.965  -0.003   9.006 -0.9846 -1.2977  0.0293
  319MOL0     H42049   9.969  -0.098   8.766  2.2103  0.9872 -2.3313
  319MOL0     H42050   9.883   0.041   8.712 -2.5033 -1.4874 -0.9653
  319MOL0     H42051   9.694   0.016   8.850  0.9107  1.0134 -0.3999
  319MOL0     H42052   9.727  -0.132   8.749 -1.9674 -1.7658  1.3842
  319MOL0     H42053   9.772  -0.111   9.056 -1.9668 -0.9715  1.7905
  319MOL0     H42054   9.796  -0.248   8.958 -1.8839 -1.3872  1.0130
  319MOL0     H42055   9.528  -0.116   8.933  1.4647  2.1418  0.8306
  319MOL0     H42056   9.564  -0.196   9.092 -1.6473 -0.6649 -0.0491
  319MOL0     H42057   9.575  -0.297   8.821 -0.9181  1.8086 -0.3056
  319MOL0     H42058   9.624  -0.394   8.965 -0.2422 -1.3105 -2.7824
  319MOL0     H42059   9.397  -0.401   9.040 -1.5000  1.2181 -0.0346
  319MOL0     H42060   9.398  -0.438   8.866 -0.6498  1.7097 -1.6134
  319MOL0     H42061   9.314  -0.232   8.694 -0.6775 -0.1288 -0.6208
  319MOL0     H42062   9.274   0.074   8.694  0.9390  2.1584  3.5453
  319MOL0     H42063   9.130   0.111   8.788  1.0946 -1.0513  0.9769
  319MOL0     H42064   9.133  -0.115   8.597  3.2222  1.5264  0.8501
  319MOL0     H42065   9.060   0.041   8.548  0.5386  0.4187 -0.7469
  319MOL0     H42066   8.974  -0.135   8.777 -2.2391  1.0780  1.2416
  319MOL0     H42067   8.908   0.028   8.760 -0.8865 -0.5146 -1.5325
  319MOL0     H42068   8.772  -0.156   8.661  0.0566 -2.9304 -0.6234
  319MOL0     H42069   8.898  -0.181   8.551 -0.8359 -0.2054 -0.8799
  319MOL0     H42070   8.862   0.243   8.619  0.6638  1.7884  2.2344
  319MOL0     H42071   8.696   0.401   8.707  2.5272 -1.5905  2.2351
  319MOL0     H42072   8.279   0.612   8.755 -0.4591 -0.0891 -1.4720
  319MOL0     H42073   8.093   0.723   8.888 -0.7644  0.3585 -0.0187
  319MOL0     H42074   7.854   0.769   8.986 -2.5948 -1.6093 -0.9853
  319MOL0     H42075   7.975   0.722   9.126 -0.5796  1.1265  0.6781
  319MOL0     H42076   7.689   0.643   9.120  0.1400  1.7871 -2.5855
  319MOL0     H42077   7.739   0.794   9.182 -1.0578 -0.2745 -2.8840
  319MOL0     H42078   7.881   0.686   9.370  4.1908  0.7678 -3.3513
  319MOL0     H42079   7.892   0.537   9.271  2.5323  2.5430 -2.0770
  319MOL0     H42080   7.613   0.610   9.392 -1.3598 -1.8440  0.1633
  319MOL0     H42081   7.651   0.480   9.282 -1.7590  2.4798 -1.2564
  319MOL0     H42082   7.704   0.531   9.575  0.4016  2.8322 -1.5868
  319MOL0     H42083   7.835   0.439   9.493 -0.6560 -2.1345  0.8794
  319MOL0     H42084   7.680   0.267   9.399 -0.2459 -0.2791  0.0443
  319MOL0     H42085   7.550   0.348   9.483 -0.1835 -2.2312  1.5464
  319MOL0     H42086   7.775   0.271   9.661 -0.6546 -0.8077  0.2210
  319MOL0     H42087   7.596   0.251   9.686 -1.5344  1.5871 -0.8677
  319MOL0     H42088   7.721   0.039   9.672  1.0591  0.4482 -0.4585
  319MOL0     H42089   7.796   0.092   9.519  1.5757  2.2862  1.5974
  319MOL0     H42090   7.904   0.343   8.932  1.3360 -1.0500 -0.0789
  319MOL0     H42091   8.085   0.239   8.784 -2.6553 -0.6454  0.9743
  319MOL0     H42092   8.386   0.126   8.590 -0.9258  1.1784 -0.9715
  319MOL0     H42093   8.554  -0.028   8.504  1.6051  2.0298 -5.6628
  319MOL0     H42094  10.329   0.171   8.789  0.7996  0.1894 -1.4430
  319MOL0     H42095  10.546   0.289   8.779  3.1367  2.8806  1.3471
  319MOL0     H42096  10.933   0.487   8.681  0.5754 -0.6228  0.2070
  319MOL0     H42097  11.128   0.608   8.712  0.7890  0.0149  0.4846
  319MOL0     H42098  11.302   0.715   8.777  0.4916 -1.2674  0.4804
  319MOL0     H42099  11.350   0.737   8.941 -1.5501 -1.1931 -0.4874
  319MOL0     H42100  11.348   0.986   8.905  0.3265  0.2736 -1.7451
  319MOL0     H42101  11.460   0.900   8.799  1.5052  1.1107  2.6418
  319MOL0     H42102  11.177   1.013   8.737 -0.2737 -1.7908  0.3425
  319MOL0     H42103  11.266   0.915   8.619 -0.0487  1.3146 -1.3352
  319MOL0     H42104  11.358   1.169   8.762 -0.3168 -0.6439  0.8289
  319MOL0     H42105  11.452   1.094   8.632  0.7605  0.5846 -0.0699
  319MOL0     H42106  11.121   1.234   8.405 -0.4555 -0.7458 -0.1822
  319MOL0     H42107  10.978   0.815   9.058  1.7685 -1.2459  0.0095
  319MOL0     H42108  10.750   0.704   9.025 -0.6177  0.8407 -0.6000
  320MOL0     O42109   4.244   0.550   3.672 -1.2171 -0.1185 -0.2939
  320MOL0     C42110   4.338   0.468   3.701 -0.4859 -0.6352  1.4249
  320MOL0     O42111   4.317   0.343   3.743  0.2421  0.9793 -0.8665
  320MOL0     C42112   4.186   0.289   3.773 -0.0500  0.5304  0.0529
  320MOL0     C42113   4.165   0.159   3.733  0.0897  0.1058 -0.2884
  320MOL0     C42114   4.038   0.101   3.751 -0.2131 -0.2663 -0.5400
  320MOL0     C42115   3.934   0.185   3.795  1.0447  0.6187 -0.2549
  320MOL0     O42116   3.816   0.115   3.807 -0.0067  0.0019  0.1229
  320MOL0     C42117   3.685   0.187   3.800  0.1708  0.2564 -0.0754
  320MOL0     C42118   3.585   0.078   3.769  0.0025  0.6544 -0.1778
  320MOL0     C42119   3.440   0.122   3.775 -0.1050 -0.5059 -0.3746
  320MOL0     C42120   3.354  -0.001   3.732  0.0261 -0.5365  0.8754
  320MOL0     C42121   3.206   0.041   3.738  0.6170 -0.4569 -0.3550
  320MOL0     C42122   3.098  -0.059   3.697 -0.3695 -0.3317  0.0855
  320MOL0     C42123   3.079  -0.039   3.542  0.5555  0.8463  1.1911
  320MOL0     C42124   2.985  -0.147   3.481 -0.7842  0.1195 -0.4263
  320MOL0     N42125   2.845  -0.118   3.511  0.2201 -0.0542  1.2040
  320MOL0     C42126   2.769  -0.012   3.461 -0.1999  0.6246 -0.2866
  320MOL0     C42127   2.638  -0.033   3.503  0.1638 -0.9777  0.5930
  320MOL0     C42128   2.520   0.052   3.473 -0.0355 -0.7020  0.4225
  320MOL0     C42129   2.392   0.022   3.551  0.0059 -0.5036  0.9462
  320MOL0     C42130   2.372   0.091   3.682 -0.2896 -0.0039  0.3011
  320MOL0     C42131   2.268   0.044   3.778  0.2531 -0.8031 -0.3257
  320MOL0     O42132   2.147   0.090   3.720  0.1721  0.5954 -0.5186
  320MOL0     C42133   2.030   0.059   3.793 -0.3949  0.2746 -0.3687
  320MOL0     C42134   2.020  -0.014   3.919 -0.3214 -0.3345 -0.0677
  320MOL0     C42135   1.894  -0.029   3.968 -0.3117  0.6231  0.3331
  320MOL0     C42136   1.774   0.011   3.899 -0.4421 -0.3294 -0.1520
  320MOL0     C42137   1.632  -0.021   3.941 -0.5596 -0.1230  0.1254
  320MOL0     O42138   1.530   0.009   3.863 -0.2107 -0.0225 -0.6901
  320MOL0     C42139   1.406  -0.045   3.879  0.4610 -0.0124 -0.0744
  320MOL0     C42140   1.378  -0.176   3.911 -0.0175  0.1845 -1.0650
  320MOL0     C42141   1.244  -0.216   3.929 -0.5559 -0.1206 -0.1961
  320MOL0     C42142   1.134  -0.131   3.922 -0.6303 -0.5088 -0.8300
  320MOL0     O42143   1.023  -0.176   3.977 -0.0849 -0.0918 -0.3529
  320MOL0     C42144   0.903  -0.108   3.951  0.3179  0.5000  0.0597
  320MOL0     C42145   0.860  -0.121   3.814  1.2005  0.4365  1.3851
  320MOL0     C42146   0.721  -0.051   3.779 -0.0440  0.5436  0.6042
  320MOL0     C42147   0.598  -0.143   3.819  0.8709 -0.1572  0.2574
  320MOL0     C42148   0.460  -0.100   3.757  0.7251  0.2266 -0.0179
  320MOL0     C42149   0.366  -0.222   3.769  1.0950  0.5604 -0.1079
  320MOL0     C42150   0.235  -0.197   3.690 -0.5680 -0.9809  0.1926
  320MOL0     C42151   0.155  -0.318   3.664 -0.4902 -0.5790  0.1223
  320MOL0    Cl42152   0.038  -0.257   3.546  0.1300  0.3719  0.1137
  320MOL0     C42153   1.159   0.006   3.889  0.5782  0.3208 -0.7089
  320MOL0     C42154   1.291   0.039   3.858 -0.9771  0.3708  0.9951
  320MOL0     O42155   1.629  -0.092   4.042  0.2782  0.1405  0.3574
  320MOL0     C42156   1.790   0.083   3.786 -0.3159  0.3954  0.7549
  320MOL0     C42157   1.913   0.104   3.731 -0.0962  0.1653  0.7784
  320MOL0     N42158   2.638  -0.147   3.575 -0.4445 -0.3118 -0.0443
  320MOL0     N42159   2.765  -0.198   3.584  0.0864 -0.2662  0.7418
  320MOL0     C42160   3.952   0.321   3.817 -0.4294  0.1286  0.4244
  320MOL0     C42161   4.083   0.367   3.811  0.0027 -0.4741 -0.1464
  320MOL0     C42162   4.484   0.511   3.690  0.0835 -1.0983 -0.3748
  320MOL0     C42163   4.511   0.639   3.633 -1.4774 -0.2239 -0.5745
  320MOL0     C42164   4.638   0.704   3.636  0.6615  0.0439 -0.2000
  320MOL0     C42165   4.743   0.637   3.699  0.0901 -0.0620  0.1416
  320MOL0     O42166   4.871   0.688   3.723  0.1956  0.4297  0.4204
  320MOL0     C42167   4.903   0.826   3.712  0.3743 -0.3180  0.0409
  320MOL0     C42168   5.038   0.834   3.793  0.4225 -0.1560 -0.1724
  320MOL0     C42169   5.128   0.936   3.729  0.2176  0.0817  0.7287
  320MOL0     C42170   5.268   0.911   3.769 -0.3528  0.7175 -0.5993
  320MOL0     C42171   5.352   1.036   3.737  0.0491  0.3692  0.2433
  320MOL0     C42172   5.423   1.117   3.686 -0.3926 -0.0828  0.7757
  320MOL0     C42173   4.718   0.508   3.755  0.8990  0.7904  0.2378
  320MOL0     C42174   4.594   0.440   3.743 -0.2065  0.1981 -0.0928
  320MOL0     H42175   4.244   0.110   3.678  0.7368 -0.8319  1.4176
  320MOL0     H42176   4.026  -0.004   3.725 -0.7331  0.1799 -2.2635
  320MOL0     H42177   3.678   0.270   3.728 -1.5676  0.4861  0.3197
  320MOL0     H42178   3.672   0.237   3.896 -0.4359 -1.7844  0.9596
  320MOL0     H42179   3.592  -0.019   3.820 -0.3506  2.0031  2.6535
  320MOL0     H42180   3.617   0.054   3.667  2.0627 -1.3085  0.8615
  320MOL0     H42181   3.421   0.216   3.723  1.0494  1.5897  2.6899
  320MOL0     H42182   3.424   0.137   3.882  0.3435 -0.2322 -0.3402
  320MOL0     H42183   3.374  -0.022   3.626  0.5790 -0.3501  0.9352
  320MOL0     H42184   3.371  -0.085   3.800 -0.2366 -2.1818 -1.0033
  320MOL0     H42185   3.194   0.137   3.687  2.6512  1.5833  2.6511
  320MOL0     H42186   3.185   0.071   3.841  1.8221  0.7272 -0.4295
  320MOL0     H42187   3.000  -0.048   3.743 -0.5105  0.2511 -0.3435
  320MOL0     H42188   3.140  -0.153   3.732 -0.0962  0.1547  1.1129
  320MOL0     H42189   3.041   0.062   3.522  2.7643  1.3229 -1.0802
  320MOL0     H42190   3.180  -0.053   3.503  0.2271  2.2635 -0.3063
  320MOL0     H42191   3.009  -0.249   3.514 -1.7388 -1.2081 -3.4072
  320MOL0     H42192   3.005  -0.151   3.373  2.0757 -1.3371  0.0691
  320MOL0     H42193   2.802   0.075   3.406 -0.2572  0.6957 -0.2071
  320MOL0     H42194   2.515   0.031   3.365  2.2837 -0.5398  0.2310
  320MOL0     H42195   2.537   0.159   3.490  0.8560 -0.8370  0.4081
  320MOL0     H42196   2.381  -0.087   3.564  1.5921 -1.2595 -2.7697
  320MOL0     H42197   2.311   0.037   3.479  0.3189 -3.9771 -0.3516
  320MOL0     H42198   2.461   0.102   3.744  0.8014  1.6169 -1.4277
  320MOL0     H42199   2.336   0.189   3.648  1.3751 -0.1728 -2.2505
  320MOL0     H42200   2.290   0.085   3.877 -1.6341 -2.6487  0.9544
  320MOL0     H42201   2.284  -0.064   3.789  1.3123 -0.6349 -0.0212
  320MOL0     H42202   2.114  -0.039   3.966 -0.4056  3.0053  2.2446
  320MOL0     H42203   1.885  -0.082   4.062 -0.6547 -1.3888 -0.7653
  320MOL0     H42204   1.460  -0.248   3.912  0.0383  0.2163 -2.1311
  320MOL0     H42205   1.239  -0.317   3.969  1.9447  0.0428  0.7711
  320MOL0     H42206   0.909  -0.004   3.985  0.0348  0.9144 -1.1147
  320MOL0     H42207   0.824  -0.142   4.019  1.0330 -0.8706  0.2509
  320MOL0     H42208   0.849  -0.226   3.783 -0.4655  1.0253 -0.1720
  320MOL0     H42209   0.934  -0.072   3.750 -1.6672  2.2074 -0.8246
  320MOL0     H42210   0.722  -0.033   3.671  1.0876  0.9568  0.6685
  320MOL0     H42211   0.713   0.050   3.822 -3.4361  0.4079  0.5813
  320MOL0     H42212   0.621  -0.241   3.776  1.5843  1.2878 -2.9480
  320MOL0     H42213   0.598  -0.146   3.928  1.0179  1.0795  0.3053
  320MOL0     H42214   0.478  -0.082   3.650  0.6057  0.0911 -0.0626
  320MOL0     H42215   0.417  -0.016   3.812  0.6209  0.4620 -0.4562
  320MOL0     H42216   0.340  -0.258   3.869  0.8659 -1.9239 -1.0010
  320MOL0     H42217   0.429  -0.303   3.730  4.0182  3.1326 -1.1946
  320MOL0     H42218   0.177  -0.134   3.759 -1.2236  0.9250 -1.9775
  320MOL0     H42219   0.243  -0.140   3.597 -0.7698  0.3919  0.9755
  320MOL0     H42220   0.107  -0.372   3.746 -1.3845 -2.3579 -1.4699
  320MOL0     H42221   0.222  -0.379   3.603 -0.6425  0.1611 -0.8087
  320MOL0     H42222   1.082   0.083   3.892 -0.5359 -0.7740  1.5511
  320MOL0     H42223   1.299   0.145   3.838  2.0290  0.2803  1.3035
  320MOL0     H42224   1.709   0.113   3.721 -0.3732 -2.1217 -0.4737
  320MOL0     H42225   1.919   0.154   3.635  0.8631  1.8783  1.6795
  320MOL0     H42226   3.873   0.389   3.850 -1.0786 -1.1617  1.6680
  320MOL0     H42227   4.094   0.469   3.846 -0.1578 -0.4173 -0.2600
  320MOL0     H42228   4.426   0.687   3.585 -2.8803 -2.5119 -0.5277
  320MOL0     H42229   4.644   0.802   3.590 -1.8481 -0.0233 -0.7960
  320MOL0     H42230   4.823   0.885   3.756  0.3254 -0.2543 -0.1330
  320MOL0     H42231   4.905   0.845   3.604  1.0950  0.1149  0.1203
  320MOL0     H42232   5.013   0.860   3.896  0.0092 -1.1413 -0.0113
  320MOL0     H42233   5.088   0.737   3.801 -0.0099 -0.4473 -0.9467
  320MOL0     H42234   5.101   1.038   3.759  0.3770  0.5054 -0.4970
  320MOL0     H42235   5.113   0.915   3.622 -2.7088 -2.8033  1.5310
  320MOL0     H42236   5.288   0.905   3.876  1.1767  0.9668 -0.8478
  320MOL0     H42237   5.321   0.826   3.725  2.1557  0.7084  2.1464
  320MOL0     H42238   5.487   1.193   3.646 -0.5441  0.6234  1.8524
  320MOL0     H42239   4.803   0.452   3.792 -1.0043 -1.0639  2.0213
  320MOL0     H42240   4.572   0.348   3.797  0.0733  1.1588  1.7437
  321MOL0     O42241   8.923   7.116   8.251  0.2515 -0.1947 -0.8061
  321MOL0     C42242   8.968   7.221   8.307  0.1957  0.4645  0.8658
  321MOL0     O42243   8.885   7.326   8.347  0.1943 -0.3251  0.1668
  321MOL0     C42244   8.751   7.329   8.321  0.3057  0.5900 -0.0343
  321MOL0     C42245   8.676   7.449   8.288 -0.3709 -0.1273 -0.3818
  321MOL0     C42246   8.539   7.456   8.264  0.5334  0.4395 -0.1218
  321MOL0     C42247   8.465   7.337   8.268 -0.3779 -0.4372 -0.4445
  321MOL0     O42248   8.332   7.337   8.239 -0.2328 -0.0904  0.7073
  321MOL0     C42249   8.267   7.211   8.214  1.0966 -0.8551  0.2122
  321MOL0     C42250   8.120   7.243   8.205  0.5465  0.3980 -0.5266
  321MOL0     C42251   8.070   7.314   8.080  0.3001  0.3278  0.5192
  321MOL0     C42252   8.140   7.268   7.947 -0.5870  0.2637 -0.0240
  321MOL0     C42253   8.086   7.359   7.827  0.9029  0.7161 -0.0636
  321MOL0     C42254   7.935   7.330   7.816  0.4623  0.7474 -0.0884
  321MOL0     C42255   7.856   7.401   7.701 -0.3801 -0.8802  0.4047
  321MOL0     C42256   7.838   7.559   7.720 -0.4417  0.3758  0.2262
  321MOL0     N42257   7.807   7.618   7.846  0.0733  0.1251  0.3010
  321MOL0     C42258   7.686   7.605   7.905  0.2046 -0.2698 -0.2025
  321MOL0     C42259   7.710   7.617   8.039  0.2802 -0.9760  0.1004
  321MOL0     C42260   7.616   7.610   8.149 -0.2651 -0.6932 -0.4032
  321MOL0     C42261   7.608   7.744   8.214 -0.2709  0.1228 -0.1066
  321MOL0     C42262   7.479   7.772   8.283  0.2289  0.5725  0.1095
  321MOL0     C42263   7.340   7.804   8.209 -0.4340 -0.4662 -1.4131
  321MOL0     O42264   7.243   7.835   8.309 -0.5798 -0.2105 -0.3597
  321MOL0     C42265   7.113   7.865   8.267  0.0727  0.2760  0.5227
  321MOL0     C42266   7.065   7.847   8.137 -0.4044 -0.3295 -0.0560
  321MOL0     C42267   6.933   7.884   8.109  0.2564  0.0884 -0.0116
  321MOL0     C42268   6.840   7.927   8.213 -0.3870  0.6261 -0.3444
  321MOL0     C42269   6.696   7.915   8.190  0.6860  0.4353  0.8526
  321MOL0     O42270   6.660   7.884   8.056 -0.3185 -0.4604 -0.0822
  321MOL0     C42271   6.537   7.879   8.009  0.7375 -0.7553 -0.3056
  321MOL0     C42272   6.502   7.768   7.930  0.0242  0.5649  0.2335
  321MOL0     C42273   6.371   7.754   7.888 -0.4652  0.2723  0.4762
  321MOL0     C42274   6.270   7.838   7.922  0.3108 -0.2643  0.3458
  321MOL0     O42275   6.139   7.819   7.890 -0.0888  0.3139 -0.1165
  321MOL0     C42276   6.113   7.710   7.800  0.0740 -1.1864 -0.0221
  321MOL0     C42277   5.964   7.715   7.773  0.2400 -0.1766  0.7828
  321MOL0     C42278   5.917   7.595   7.686 -0.5579 -0.1715 -0.2587
  321MOL0     C42279   5.766   7.581   7.695  0.4711  0.1877 -0.2658
  321MOL0     C42280   5.710   7.471   7.620  0.0083  1.2589 -0.1098
  321MOL0     C42281   5.562   7.439   7.668 -0.2543 -0.2307  0.1114
  321MOL0     C42282   5.515   7.311   7.605  0.9974 -0.0293  0.2476
  321MOL0     C42283   5.516   7.199   7.707  0.4816 -0.3688 -0.7951
  321MOL0    Cl42284   5.495   7.050   7.621 -0.1265 -0.1938 -0.0849
  321MOL0     C42285   6.308   7.954   8.002  0.3784  0.5403 -0.5460
  321MOL0     C42286   6.443   7.966   8.048  0.4388  0.0759  0.4258
  321MOL0     O42287   6.615   7.923   8.279 -0.0217  0.1574  0.2228
  321MOL0     C42288   6.897   7.947   8.342  0.8680 -0.6129 -0.0739
  321MOL0     C42289   7.031   7.917   8.367 -0.1283  0.6242  0.2622
  321MOL0     N42290   7.846   7.640   8.058  0.4515 -0.5943 -0.3239
  321MOL0     N42291   7.898   7.648   7.942  0.4209  0.8763  0.1149
  321MOL0     C42292   8.537   7.222   8.307  0.4162  0.3026 -0.8748
  321MOL0     C42293   8.671   7.214   8.348  1.1089 -0.0370 -0.2209
  321MOL0     C42294   9.113   7.227   8.315 -0.2621 -0.3512  0.6213
  321MOL0     C42295   9.188   7.111   8.303  0.6186  0.5534  0.5209
  321MOL0     C42296   9.330   7.115   8.316  0.0871 -0.7472  0.4182
  321MOL0     C42297   9.392   7.229   8.363  0.1096  0.5925  0.4253
  321MOL0     O42298   9.530   7.216   8.378 -0.4991  0.2973 -0.1830
  321MOL0     C42299   9.609   7.337   8.382  0.2674  0.1897 -0.1969
  321MOL0     C42300   9.758   7.302   8.342 -0.2527 -0.7615  0.1500
  321MOL0     C42301   9.835   7.219   8.441 -0.3964 -0.4266 -0.4414
  321MOL0     C42302   9.861   7.286   8.577 -0.5227  0.2084 -0.6067
  321MOL0     C42303  10.003   7.281   8.622 -0.1360 -0.2725 -0.1913
  321MOL0     C42304  10.117   7.283   8.658 -0.4795 -0.7312  0.3830
  321MOL0     C42305   9.319   7.347   8.383 -0.3670  0.4511 -0.4796
  321MOL0     C42306   9.185   7.346   8.344 -0.0772  0.3290 -0.7546
  321MOL0     H42307   8.740   7.530   8.252 -0.3608 -1.5806 -4.0903
  321MOL0     H42308   8.481   7.547   8.251  3.7568  2.7443  0.5005
  321MOL0     H42309   8.268   7.149   8.304  0.7239  0.8802  1.4579
  321MOL0     H42310   8.309   7.155   8.129  1.1953 -0.6077  0.0971
  321MOL0     H42311   8.100   7.314   8.286  0.0301  0.6929 -0.9059
  321MOL0     H42312   8.062   7.154   8.229  2.5382 -0.4749  1.3633
  321MOL0     H42313   8.091   7.421   8.082 -0.5755  0.5003  1.1753
  321MOL0     H42314   7.966   7.279   8.087  1.6816 -3.9270  3.5222
  321MOL0     H42315   8.249   7.276   7.948 -0.5951  0.3405  0.5015
  321MOL0     H42316   8.105   7.170   7.913 -0.4621  0.9242 -2.2273
  321MOL0     H42317   8.136   7.334   7.733  0.9376  1.5939 -0.2860
  321MOL0     H42318   8.105   7.465   7.844  2.6454  1.0006 -3.1877
  321MOL0     H42319   7.881   7.341   7.910  1.7118 -2.1740  1.1153
  321MOL0     H42320   7.946   7.222   7.800  2.7446  0.9729 -0.4454
  321MOL0     H42321   7.899   7.384   7.602 -2.1996 -1.0144 -0.4218
  321MOL0     H42322   7.757   7.354   7.707 -0.3772 -0.7763  1.3331
  321MOL0     H42323   7.753   7.586   7.657 -1.2982 -2.7073 -0.0818
  321MOL0     H42324   7.932   7.603   7.686 -0.6670  1.7779  1.2980
  321MOL0     H42325   7.587   7.586   7.864 -0.7511 -0.3721  1.9849
  321MOL0     H42326   7.635   7.529   8.219 -2.2170  0.3704  1.4762
  321MOL0     H42327   7.519   7.581   8.107 -0.8220  0.0321  0.3692
  321MOL0     H42328   7.630   7.824   8.143  1.3554 -1.4371 -1.4327
  321MOL0     H42329   7.679   7.744   8.297 -1.2039 -2.0071  0.7534
  321MOL0     H42330   7.464   7.681   8.342  1.7107  1.4098  1.8808
  321MOL0     H42331   7.504   7.857   8.346 -2.9566 -0.0728  2.4527
  321MOL0     H42332   7.305   7.716   8.154 -0.7858  0.3934 -2.5825
  321MOL0     H42333   7.335   7.877   8.128  0.1050  0.8316 -0.3053
  321MOL0     H42334   7.133   7.797   8.069  2.0509  2.7302 -0.0841
  321MOL0     H42335   6.903   7.890   8.005  1.0923 -0.9429 -0.3243
  321MOL0     H42336   6.568   7.692   7.888  0.8833  1.7478 -0.6478
  321MOL0     H42337   6.357   7.669   7.822 -1.0651  0.4504  0.3730
  321MOL0     H42338   6.137   7.615   7.850 -1.2473 -0.0542  2.9899
  321MOL0     H42339   6.169   7.729   7.708 -0.1314 -0.3424  0.0187
  321MOL0     H42340   5.927   7.811   7.738  0.6490 -0.7223 -1.2733
  321MOL0     H42341   5.924   7.697   7.873  1.6365 -0.2261  1.3505
  321MOL0     H42342   5.960   7.502   7.724  0.2246 -0.1769 -1.1446
  321MOL0     H42343   5.938   7.598   7.579  2.1147  0.3941  0.2168
  321MOL0     H42344   5.743   7.569   7.801 -4.3743  2.7316 -0.7282
  321MOL0     H42345   5.706   7.667   7.663  1.4353  0.5843 -1.0614
  321MOL0     H42346   5.767   7.380   7.643 -0.6766  0.7375 -0.4550
  321MOL0     H42347   5.709   7.494   7.514 -3.0426  0.2126 -0.4069
  321MOL0     H42348   5.502   7.527   7.644  1.5416  1.0092 -0.0557
  321MOL0     H42349   5.563   7.427   7.777  1.9051 -1.7202  0.0021
  321MOL0     H42350   5.415   7.323   7.560 -0.0237  2.1849  2.8242
  321MOL0     H42351   5.581   7.286   7.521  0.7598 -2.6270  0.7566
  321MOL0     H42352   5.440   7.207   7.785  1.0807  1.4110 -0.3373
  321MOL0     H42353   5.611   7.190   7.761 -1.0740 -2.3009  1.8670
  321MOL0     H42354   6.239   8.033   8.031 -1.6675 -1.1299 -0.5718
  321MOL0     H42355   6.465   8.052   8.111 -0.5429  1.9508 -1.6788
  321MOL0     H42356   6.827   7.975   8.420  0.4085 -2.1793  0.1054
  321MOL0     H42357   7.076   7.937   8.464 -1.7805 -2.1715  1.7081
  321MOL0     H42358   8.489   7.125   8.314  0.6108  0.3517  2.5544
  321MOL0     H42359   8.705   7.116   8.376  0.3983 -0.1058  0.4364
  321MOL0     H42360   9.141   7.013   8.303  0.8359  0.3982  3.1923
  321MOL0     H42361   9.386   7.023   8.304  1.1971 -0.0801  0.3203
  321MOL0     H42362   9.608   7.383   8.481 -0.8351  1.0585 -0.5814
  321MOL0     H42363   9.563   7.407   8.311  0.0428  3.8196  3.2362
  321MOL0     H42364   9.764   7.249   8.247 -3.4745  0.7964 -1.0659
  321MOL0     H42365   9.820   7.392   8.333  1.4647 -1.8657  0.5916
  321MOL0     H42366   9.935   7.204   8.397 -0.0829 -0.2555  0.1993
  321MOL0     H42367   9.785   7.127   8.473 -1.9629  0.6349  0.2533
  321MOL0     H42368   9.837   7.393   8.573 -1.2532  0.0566 -0.4745
  321MOL0     H42369   9.800   7.237   8.654 -0.0912  0.0142 -0.3871
  321MOL0     H42370  10.216   7.289   8.698 -0.7024  0.9945  0.7348
  321MOL0     H42371   9.355   7.444   8.414 -0.8128  1.1755 -2.1563
  321MOL0     H42372   9.122   7.434   8.332 -2.8884 -1.1223  1.8577
  322MOL0     O42373   7.284   2.583   4.325 -0.0467 -0.1775  0.1222
  322MOL0     C42374   7.284   2.687   4.258  0.2211 -0.0928 -0.1889
  322MOL0     O42375   7.178   2.755   4.208 -0.6083  0.4128 -0.2450
  322MOL0     C42376   7.056   2.777   4.267  0.0332  0.2672 -0.0530
  322MOL0     C42377   6.952   2.824   4.187 -0.4832  0.2297  0.1710
  322MOL0     C42378   6.820   2.853   4.237 -0.8450  0.2232  0.4033
  322MOL0     C42379   6.801   2.844   4.366 -0.2161 -0.1404  0.0699
  322MOL0     O42380   6.677   2.875   4.411  0.1719  0.1882  0.0337
  322MOL0     C42381   6.659   2.944   4.542  0.5813  0.3310  0.8903
  322MOL0     C42382   6.550   3.036   4.557  0.0608 -1.0332  0.2541
  322MOL0     C42383   6.418   2.960   4.566  0.0361 -0.3714 -0.1925
  322MOL0     C42384   6.307   3.056   4.598  0.9419 -0.0759  0.8716
  322MOL0     C42385   6.177   2.975   4.628 -0.3326  0.1424 -0.2729
  322MOL0     C42386   6.074   3.050   4.713  0.4290  0.3593  0.5054
  322MOL0     C42387   6.027   3.175   4.645 -0.4501  0.6248  0.5065
  322MOL0     C42388   5.914   3.250   4.722 -0.2693 -0.8252 -0.0046
  322MOL0     N42389   5.791   3.183   4.758  0.1170  0.5485 -0.3889
  322MOL0     C42390   5.742   3.169   4.890  0.8436 -0.0033  0.2960
  322MOL0     C42391   5.614   3.139   4.878  0.6012 -0.1996 -0.4101
  322MOL0     C42392   5.521   3.102   4.996 -0.1676 -0.3833  0.4494
  322MOL0     C42393   5.468   3.223   5.067 -0.0249  0.0726 -0.1497
  322MOL0     C42394   5.343   3.287   5.009  0.2543 -0.2666 -0.2953
  322MOL0     C42395   5.388   3.382   4.891 -0.5824 -0.0556 -0.0539
  322MOL0     O42396   5.472   3.490   4.936  0.0343  0.3429  0.3819
  322MOL0     C42397   5.565   3.536   4.850  0.0796 -0.8940  0.4209
  322MOL0     C42398   5.546   3.547   4.709  0.1164 -0.3433  0.3118
  322MOL0     C42399   5.648   3.592   4.633  0.6190 -0.1815  0.3895
  322MOL0     C42400   5.772   3.627   4.683  0.7377 -0.0918  0.3471
  322MOL0     C42401   5.872   3.679   4.586  0.3696 -0.5239  0.4674
  322MOL0     O42402   5.991   3.709   4.632  0.1848 -0.0767 -0.7898
  322MOL0     C42403   6.080   3.768   4.544 -0.0431 -1.3130 -0.9226
  322MOL0     C42404   6.054   3.886   4.473  0.2351  0.0107  0.2308
  322MOL0     C42405   6.151   3.944   4.387 -0.1413 -0.3520 -0.1122
  322MOL0     C42406   6.266   3.876   4.354 -0.1715 -0.2408 -0.2529
  322MOL0     O42407   6.364   3.938   4.284 -0.6599 -0.2869 -0.0081
  322MOL0     C42408   6.473   3.863   4.222  0.2939 -1.0550 -0.3707
  322MOL0     C42409   6.546   3.959   4.128  0.3834  0.6967 -0.1198
  322MOL0     C42410   6.459   4.006   4.014  0.0764 -1.3997  0.0227
  322MOL0     C42411   6.542   4.096   3.922  0.2213 -0.7298  0.4003
  322MOL0     C42412   6.496   4.089   3.770 -0.0291 -0.0214 -0.2151
  322MOL0     C42413   6.350   4.144   3.746 -0.2927  0.9078 -0.2177
  322MOL0     C42414   6.306   4.113   3.602 -0.2570  0.3824 -0.0080
  322MOL0     C42415   6.152   4.085   3.590 -0.5624  0.7923 -0.0740
  322MOL0    Cl42416   6.045   4.203   3.652  0.1200  0.1303  0.1351
  322MOL0     C42417   6.284   3.746   4.412  0.3468 -0.7075 -1.0396
  322MOL0     C42418   6.196   3.702   4.511  0.9421 -0.1429 -0.6774
  322MOL0     O42419   5.837   3.679   4.470 -0.0770 -0.5667  0.0599
  322MOL0     C42420   5.792   3.617   4.820 -1.2080  0.0493  0.1964
  322MOL0     C42421   5.691   3.570   4.898  0.1820 -0.2343 -0.8793
  322MOL0     N42422   5.577   3.133   4.744  0.4338 -0.1430  0.2734
  322MOL0     N42423   5.688   3.153   4.676 -0.2469  0.5191 -0.2108
  322MOL0     C42424   6.899   2.798   4.457 -0.1091  0.8937  0.3206
  322MOL0     C42425   7.025   2.760   4.404  0.0693 -0.3802 -0.6067
  322MOL0     C42426   7.416   2.736   4.215  0.3313 -0.6945 -0.7108
  322MOL0     C42427   7.422   2.839   4.127 -0.1565  0.2007 -0.0565
  322MOL0     C42428   7.538   2.890   4.074  0.4004 -0.4075 -0.8163
  322MOL0     C42429   7.660   2.847   4.132  0.3376  0.3739 -0.7092
  322MOL0     O42430   7.784   2.892   4.079 -0.2726  0.3094 -0.6692
  322MOL0     C42431   7.786   3.005   3.989  0.1954 -0.5626 -0.1658
  322MOL0     C42432   7.924   3.045   3.966 -0.4521 -0.0825  0.3899
  322MOL0     C42433   7.980   3.093   4.093 -0.1503  0.7629  0.1802
  322MOL0     C42434   8.130   3.115   4.090 -0.4990  0.0074  0.2129
  322MOL0     C42435   8.181   3.203   3.978  1.0994 -0.8328 -0.1689
  322MOL0     C42436   8.232   3.273   3.892  0.1325  0.1512 -0.7307
  322MOL0     C42437   7.654   2.742   4.220 -0.4154  0.5441 -0.4962
  322MOL0     C42438   7.537   2.692   4.269  0.6109  0.3553  0.2059
  322MOL0     H42439   6.969   2.837   4.081 -5.1258 -0.0348 -0.8206
  322MOL0     H42440   6.750   2.894   4.165  3.8216  0.4846 -4.5764
  322MOL0     H42441   6.756   2.993   4.558  2.4295 -2.6048 -0.4594
  322MOL0     H42442   6.655   2.864   4.617  2.8186 -1.7798 -1.0607
  322MOL0     H42443   6.564   3.111   4.478  3.3539 -2.4311 -0.6296
  322MOL0     H42444   6.570   3.101   4.643 -1.6551  0.9643 -0.7335
  322MOL0     H42445   6.434   2.886   4.645 -2.0303  0.2155  0.8375
  322MOL0     H42446   6.398   2.916   4.468 -0.5447 -1.8644  0.5612
  322MOL0     H42447   6.333   3.100   4.695 -0.1723 -1.2311  1.7350
  322MOL0     H42448   6.290   3.131   4.520 -0.3450 -0.2635  0.9507
  322MOL0     H42449   6.203   2.891   4.693 -2.0614 -1.3227 -1.3694
  322MOL0     H42450   6.132   2.945   4.532  1.1777 -0.1275 -0.9416
  322MOL0     H42451   6.129   3.071   4.805  5.1761 -1.0864 -1.6856
  322MOL0     H42452   5.989   2.983   4.726  1.4166 -1.3605 -1.3302
  322MOL0     H42453   6.097   3.258   4.633  0.6676 -0.2415  0.8336
  322MOL0     H42454   5.988   3.144   4.548  0.3044 -1.8923  0.9221
  322MOL0     H42455   5.896   3.336   4.657 -0.9721 -1.0913 -0.1743
  322MOL0     H42456   5.958   3.281   4.817  0.0001  1.0296 -0.6853
  322MOL0     H42457   5.796   3.178   4.984 -2.6925  1.7861  2.3194
  322MOL0     H42458   5.583   3.041   5.063  2.2706  1.6763  0.2171
  322MOL0     H42459   5.435   3.041   4.965  1.1713 -0.7569 -2.9504
  322MOL0     H42460   5.544   3.301   5.084 -0.3628  0.3020  0.3287
  322MOL0     H42461   5.446   3.183   5.166  1.5060  0.2747  0.2990
  322MOL0     H42462   5.275   3.209   4.975 -0.5871  0.3557 -0.0905
  322MOL0     H42463   5.291   3.342   5.089 -0.2753  1.7412 -1.9474
  322MOL0     H42464   5.294   3.419   4.850  0.1443  0.0559 -1.7130
  322MOL0     H42465   5.432   3.325   4.808 -2.7530  2.5072 -3.2483
  322MOL0     H42466   5.452   3.530   4.658  0.1486  1.2111 -0.3027
  322MOL0     H42467   5.628   3.584   4.527 -1.2268 -0.1694  0.6990
  322MOL0     H42468   5.956   3.930   4.488 -0.7297 -2.4884  2.0043
  322MOL0     H42469   6.124   4.030   4.327  0.8920  0.6023  0.7475
  322MOL0     H42470   6.438   3.775   4.166  2.1308 -3.3770  1.9018
  322MOL0     H42471   6.542   3.837   4.303 -0.7655  3.4513  2.3376
  322MOL0     H42472   6.640   3.918   4.089 -1.3673 -0.3966 -3.6354
  322MOL0     H42473   6.582   4.047   4.182  1.5271  1.8407 -2.5726
  322MOL0     H42474   6.373   4.060   4.054 -0.7813 -0.7888 -2.4287
  322MOL0     H42475   6.424   3.915   3.964  0.6254 -3.0966  2.5123
  322MOL0     H42476   6.534   4.197   3.962 -0.1854  0.0857 -1.6126
  322MOL0     H42477   6.645   4.060   3.913  0.9326  1.4869 -1.0355
  322MOL0     H42478   6.506   3.985   3.740  1.6555  0.4257 -1.3586
  322MOL0     H42479   6.571   4.149   3.717  1.1009 -1.7877 -0.6830
  322MOL0     H42480   6.347   4.252   3.761  0.9302  1.0853 -1.0409
  322MOL0     H42481   6.280   4.099   3.817  1.2022  0.9496  1.3346
  322MOL0     H42482   6.323   4.189   3.525  0.0239  0.4240  0.0932
  322MOL0     H42483   6.356   4.020   3.574  2.9017  1.7933  0.4521
  322MOL0     H42484   6.136   3.986   3.632  0.5270 -0.3932 -2.2847
  322MOL0     H42485   6.125   4.076   3.484  2.2634  1.6097 -0.9586
  322MOL0     H42486   6.379   3.695   4.397  1.7031  0.6218  2.2400
  322MOL0     H42487   6.214   3.603   4.553 -3.4769 -0.9120 -0.0634
  322MOL0     H42488   5.890   3.634   4.865 -0.2786  1.3278 -2.1460
  322MOL0     H42489   5.707   3.562   5.005 -4.1177  0.9256  0.0274
  322MOL0     H42490   6.879   2.793   4.563  1.5770 -1.3408  0.6225
  322MOL0     H42491   7.099   2.714   4.469 -1.0210 -1.8428 -0.3334
  322MOL0     H42492   7.340   2.890   4.077 -3.1866 -4.8074 -0.9729
  322MOL0     H42493   7.540   2.949   3.983  0.7997 -0.5666 -0.9118
  322MOL0     H42494   7.735   3.092   4.030 -2.0597 -2.0317  0.3128
  322MOL0     H42495   7.738   2.991   3.892  2.0990  3.8625 -2.0324
  322MOL0     H42496   7.987   2.964   3.928  2.5156  3.0162 -1.9508
  322MOL0     H42497   7.932   3.123   3.889 -1.5877 -0.9453 -0.6310
  322MOL0     H42498   7.965   3.015   4.168  0.7639 -0.1370 -0.5357
  322MOL0     H42499   7.928   3.184   4.123 -0.3126  1.6814 -2.5711
  322MOL0     H42500   8.150   3.170   4.182 -1.0988  1.6321 -0.5858
  322MOL0     H42501   8.174   3.015   4.090 -1.6039 -0.4986 -0.6553
  322MOL0     H42502   8.259   3.338   3.812 -0.2480 -0.4231 -1.3295
  322MOL0     H42503   7.750   2.711   4.260 -2.2609 -2.9146  1.7616
  322MOL0     H42504   7.531   2.613   4.343  0.1246  0.1454 -0.0550
  323MOL0     O42505   5.899   9.942   4.712  0.3324 -0.0341  0.1881
  323MOL0     C42506   5.944   9.831   4.717  0.7823  0.1677 -0.1693
  323MOL0     O42507   5.860   9.721   4.732 -0.2151  0.6079  0.9847
  323MOL0     C42508   5.732   9.726   4.776 -0.4203  0.3876  0.1492
  323MOL0     C42509   5.628   9.641   4.722 -0.0653  0.4150  0.7924
  323MOL0     C42510   5.499   9.650   4.777  0.3018  0.9344 -0.0954
  323MOL0     C42511   5.467   9.711   4.897 -0.5255  0.4442  0.2035
  323MOL0     O42512   5.333   9.709   4.941 -0.0545 -0.8244 -0.3926
  323MOL0     C42513   5.317   9.760   5.075  0.5587 -0.1892 -0.8829
  323MOL0     C42514   5.180   9.733   5.139 -0.1089  0.2002  0.1287
  323MOL0     C42515   5.055   9.785   5.065 -0.5174  0.5849 -0.4610
  323MOL0     C42516   4.943   9.814   5.171 -0.1936 -0.0308  1.2747
  323MOL0     C42517   4.813   9.847   5.090  0.0460  0.4159  0.2706
  323MOL0     C42518   4.691   9.832   5.177 -0.6345 -0.1892  0.3107
  323MOL0     C42519   4.558   9.808   5.098  0.3592  0.5826 -0.1527
  323MOL0     C42520   4.528   9.922   4.990  0.5213 -0.4497  0.5742
  323MOL0     N42521   4.399   9.908   4.915  0.6031  0.2709 -0.2102
  323MOL0     C42522   4.273   9.875   4.946 -0.6019 -0.8524  0.4678
  323MOL0     C42523   4.211   9.862   4.830  0.4026  0.8413 -0.2402
  323MOL0     C42524   4.064   9.819   4.811  0.1626 -0.7655  0.2833
  323MOL0     C42525   3.995   9.901   4.701  0.1043 -0.1112 -0.4306
  323MOL0     C42526   3.954  10.043   4.749  0.6966  0.6566 -0.3787
  323MOL0     C42527   3.835  10.040   4.850 -0.5623 -0.0130 -0.2981
  323MOL0     O42528   3.723   9.976   4.798 -0.8553 -0.3752 -0.8092
  323MOL0     C42529   3.613   9.964   4.876 -0.4575 -0.2415 -0.0366
  323MOL0     C42530   3.509   9.928   4.799  0.0150 -0.6262 -0.2491
  323MOL0     C42531   3.382   9.911   4.853  0.2885 -0.0818  0.1248
  323MOL0     C42532   3.365   9.937   4.991 -0.6180  0.4491 -0.6296
  323MOL0     C42533   3.240   9.891   5.055  0.3101  0.2157  1.4873
  323MOL0     O42534   3.191   9.972   5.154 -0.0013  0.0427  0.0941
  323MOL0     C42535   3.080   9.925   5.227 -0.2202  0.3021  0.4363
  323MOL0     C42536   2.953   9.930   5.164 -0.5719  0.8630 -0.1668
  323MOL0     C42537   2.833   9.897   5.224 -0.7869 -0.3454 -0.9358
  323MOL0     C42538   2.832   9.863   5.356 -0.1876  0.2947 -1.4972
  323MOL0     O42539   2.721   9.819   5.428 -0.0650 -0.0243  0.5821
  323MOL0     C42540   2.599   9.799   5.358 -0.0086  0.5021  0.2635
  323MOL0     C42541   2.498   9.787   5.468 -0.7520 -0.3250  0.2592
  323MOL0     C42542   2.361   9.779   5.412 -1.0148  0.8371  0.0054
  323MOL0     C42543   2.267   9.795   5.534 -0.1540  0.1335  0.1267
  323MOL0     C42544   2.133   9.731   5.484  0.5742 -0.3044 -0.7525
  323MOL0     C42545   2.030   9.704   5.591 -0.2165  0.0109 -0.4300
  323MOL0     C42546   1.893   9.682   5.516  0.4684  0.2823 -0.4504
  323MOL0     C42547   1.783   9.681   5.621 -0.4573  0.0804 -0.8008
  323MOL0    Cl42548   1.817   9.541   5.731 -0.4048 -0.0432  0.1098
  323MOL0     C42549   2.960   9.870   5.426 -0.7334 -0.2837  0.0575
  323MOL0     C42550   3.079   9.898   5.360 -0.2712 -0.2328  0.4687
  323MOL0     O42551   3.179   9.795   5.002 -0.4560 -0.2205 -0.1935
  323MOL0     C42552   3.466   9.996   5.063  0.4705  0.8986  0.2125
  323MOL0     C42553   3.596  10.012   5.006  0.0769 -0.0903 -0.1256
  323MOL0     N42554   4.293   9.895   4.730 -0.5720 -0.6665  0.6859
  323MOL0     N42555   4.413   9.921   4.783  0.0259 -0.8705 -0.0842
  323MOL0     C42556   5.575   9.770   4.960  0.2471  0.1840 -0.4031
  323MOL0     C42557   5.700   9.792   4.899 -0.7533 -0.3797  0.2320
  323MOL0     C42558   6.091   9.812   4.723  0.6592  0.0024  0.2626
  323MOL0     C42559   6.176   9.915   4.682  0.2738 -1.0718  0.4519
  323MOL0     C42560   6.318   9.903   4.701 -0.8643 -0.2610  0.3299
  323MOL0     C42561   6.375   9.795   4.760  0.7483  0.5183  0.0976
  323MOL0     O42562   6.512   9.774   4.779  0.3416 -0.6198 -0.1772
  323MOL0     C42563   6.605   9.880   4.756  0.4224  0.7383  0.4908
  323MOL0     C42564   6.619   9.978   4.871  0.3095 -0.6377 -0.3968
  323MOL0     C42565   6.730  10.095   4.854 -0.1250 -0.1858  0.0611
  323MOL0     C42566   6.749  10.170   4.985  0.0253 -0.9907 -0.5634
  323MOL0     C42567   6.845  10.273   4.985  0.0291 -0.2245  1.0166
  323MOL0     C42568   6.929  10.361   4.971  1.1611 -0.3110 -0.1251
  323MOL0     C42569   6.293   9.685   4.796  0.2134 -0.0082 -0.1748
  323MOL0     C42570   6.151   9.688   4.763 -0.8461 -0.1114 -0.8649
  323MOL0     H42571   5.647   9.573   4.640 -1.8688 -1.2676  1.6790
  323MOL0     H42572   5.420   9.592   4.731  0.6492  0.7120 -0.4165
  323MOL0     H42573   5.318   9.866   5.052 -0.3029 -0.0758 -0.4647
  323MOL0     H42574   5.395   9.727   5.145  0.1894  0.5818 -0.0853
  323MOL0     H42575   5.185   9.774   5.241  0.1611  0.2062  0.1154
  323MOL0     H42576   5.178   9.624   5.141 -0.7139  0.2141  0.4894
  323MOL0     H42577   5.024   9.703   4.999  2.2183 -0.5456 -0.4577
  323MOL0     H42578   5.083   9.873   5.007  3.3592 -0.0180  0.2656
  323MOL0     H42579   4.933   9.723   5.232  0.1411 -2.6690 -2.2981
  323MOL0     H42580   4.975   9.896   5.236  1.5788  0.4468 -0.1078
  323MOL0     H42581   4.809   9.775   5.007  1.0590  2.6227 -1.8005
  323MOL0     H42582   4.814   9.947   5.047 -2.1123 -0.1206 -1.1725
  323MOL0     H42583   4.688   9.923   5.237 -0.5490  0.7510 -1.0748
  323MOL0     H42584   4.716   9.753   5.248 -0.4440  1.3366  2.0003
  323MOL0     H42585   4.568   9.708   5.054  3.2130  0.2838  0.9433
  323MOL0     H42586   4.483   9.800   5.177  1.3616 -1.2824  0.6635
  323MOL0     H42587   4.611   9.912   4.919  0.9839  1.1546  0.8380
  323MOL0     H42588   4.540  10.022   5.035  2.5084  0.0037 -0.8281
  323MOL0     H42589   4.221   9.863   5.041 -3.8051  0.4556 -0.9807
  323MOL0     H42590   4.010   9.838   4.905  1.6029 -0.0851  0.9970
  323MOL0     H42591   4.073   9.717   4.773  1.2447 -0.2119 -0.9905
  323MOL0     H42592   3.902   9.851   4.672  0.1736  0.1263 -1.0693
  323MOL0     H42593   4.047   9.904   4.605  2.0097  0.7288  0.5617
  323MOL0     H42594   4.042  10.093   4.790  1.9670  0.8747 -3.1226
  323MOL0     H42595   3.922  10.102   4.663 -1.7509 -0.0149  0.0045
  323MOL0     H42596   3.806  10.145   4.860 -0.0387  0.5348 -3.4682
  323MOL0     H42597   3.874  10.006   4.946 -0.3701 -0.1512 -0.4241
  323MOL0     H42598   3.527   9.893   4.697 -4.3641 -0.9139 -1.1415
  323MOL0     H42599   3.302   9.865   4.796  0.5134 -1.5080  0.8956
  323MOL0     H42600   2.949   9.964   5.061 -1.9152  2.3521  0.3292
  323MOL0     H42601   2.739   9.892   5.170  0.0292  0.5332 -2.5373
  323MOL0     H42602   2.595   9.716   5.286 -0.3949  1.1814 -0.5236
  323MOL0     H42603   2.570   9.890   5.306 -2.2782  0.2699  1.0285
  323MOL0     H42604   2.504   9.882   5.522 -0.3773  0.8131 -1.6835
  323MOL0     H42605   2.513   9.706   5.539 -0.0866  0.2208  0.7595
  323MOL0     H42606   2.343   9.692   5.348 -0.7369  0.6460  0.1817
  323MOL0     H42607   2.339   9.869   5.355  1.7705  2.2222  0.9748
  323MOL0     H42608   2.292   9.735   5.622 -1.9995 -0.4466  0.3013
  323MOL0     H42609   2.269   9.900   5.563  0.3357  0.0895  0.2618
  323MOL0     H42610   2.155   9.639   5.429  0.5688  0.1154 -1.4674
  323MOL0     H42611   2.087   9.801   5.414 -1.0129 -0.9626 -0.4170
  323MOL0     H42612   2.014   9.787   5.660  0.0406 -0.5891  0.3582
  323MOL0     H42613   2.058   9.611   5.641  1.2242 -0.0841 -1.3522
  323MOL0     H42614   1.863   9.755   5.440  0.5043 -0.8316 -1.5521
  323MOL0     H42615   1.889   9.581   5.476 -1.2452  0.4464 -0.7659
  323MOL0     H42616   1.690   9.662   5.567 -2.1920  1.2327  1.6203
  323MOL0     H42617   1.778   9.769   5.686 -2.2224 -0.6714  0.1185
  323MOL0     H42618   2.960   9.860   5.534 -0.5729  2.7622  0.4327
  323MOL0     H42619   3.168   9.934   5.410  0.4379  1.0140 -1.5422
  323MOL0     H42620   3.459  10.011   5.170  0.0885 -1.8273  0.6251
  323MOL0     H42621   3.671  10.071   5.058 -3.6281  5.1270  0.0519
  323MOL0     H42622   5.573   9.820   5.056 -1.0102  3.0917 -1.8190
  323MOL0     H42623   5.772   9.848   4.958 -3.4342  1.1198  2.3180
  323MOL0     H42624   6.138  10.007   4.639  1.8597 -0.6227 -0.0837
  323MOL0     H42625   6.383   9.982   4.665  0.8628 -1.2802  1.0822
  323MOL0     H42626   6.584   9.941   4.667  2.4708 -2.0821 -2.1154
  323MOL0     H42627   6.694   9.825   4.726 -0.0015 -1.4502  2.9366
  323MOL0     H42628   6.522  10.024   4.893  0.2721 -2.1612  3.4750
  323MOL0     H42629   6.653   9.919   4.957  2.1108  0.3547 -0.3781
  323MOL0     H42630   6.700  10.162   4.772  2.0054 -0.9001 -1.3678
  323MOL0     H42631   6.826  10.064   4.812  0.9114  1.9875  0.6873
  323MOL0     H42632   6.654  10.204   5.025 -0.1725  0.3348 -2.0561
  323MOL0     H42633   6.781  10.098   5.061 -3.5447  0.7021  2.8571
  323MOL0     H42634   7.002  10.438   4.955 -1.1771  2.1187  0.0683
  323MOL0     H42635   6.332   9.593   4.839  0.5594  0.4061  0.3983
  323MOL0     H42636   6.077   9.612   4.782  1.6448 -2.5802 -0.3646
  324MOL0     O42637   9.873   3.740   3.840 -0.9110 -0.8124  0.5134
  324MOL0     C42638   9.953   3.782   3.754 -0.1545 -0.0737  0.7726
  324MOL0     O42639   9.921   3.883   3.662 -0.3985 -0.5286  0.1969
  324MOL0     C42640   9.796   3.938   3.653  0.5231  0.3302  0.5073
  324MOL0     C42641   9.736   3.952   3.527  0.1722 -1.1779  0.3986
  324MOL0     C42642   9.618   4.023   3.512  0.2246 -0.7628 -0.5035
  324MOL0     C42643   9.551   4.073   3.621 -0.6859 -1.0528 -0.0318
  324MOL0     O42644   9.432   4.144   3.597  0.3683 -1.1495  0.4862
  324MOL0     C42645   9.358   4.178   3.717 -0.9550  0.9102  1.4780
  324MOL0     C42646   9.217   4.202   3.659 -0.1859 -0.3068 -0.6519
  324MOL0     C42647   9.100   4.197   3.766  0.3308 -0.0666 -0.0338
  324MOL0     C42648   9.092   4.065   3.844  0.0662  0.0087  0.9290
  324MOL0     C42649   9.006   4.080   3.975 -0.4085  0.5957  1.0290
  324MOL0     C42650   8.849   4.105   3.959  0.1068 -0.2103 -0.8460
  324MOL0     C42651   8.768   4.072   4.089  0.1613  0.7630 -0.0377
  324MOL0     C42652   8.612   4.083   4.082  0.4546 -0.2460  0.2690
  324MOL0     N42653   8.554   3.984   4.176 -0.0389 -0.5470 -0.5008
  324MOL0     C42654   8.552   4.004   4.318 -1.1615 -0.1619 -0.1258
  324MOL0     C42655   8.480   3.905   4.371  0.6439  0.8425  0.0147
  324MOL0     C42656   8.442   3.873   4.512 -0.4863 -0.2397  0.0934
  324MOL0     C42657   8.288   3.902   4.555  0.6773  0.2720  0.8440
  324MOL0     C42658   8.244   3.822   4.681 -0.5471 -0.9299  0.0161
  324MOL0     C42659   8.092   3.794   4.686  0.2967  0.0649  1.3797
  324MOL0     O42660   8.061   3.752   4.818  0.1507 -0.1028 -0.0459
  324MOL0     C42661   7.928   3.712   4.845 -0.1166  0.5195  0.0924
  324MOL0     C42662   7.820   3.728   4.766  0.4822 -0.6282  0.2844
  324MOL0     C42663   7.689   3.698   4.807  0.5353 -1.0305  0.0793
  324MOL0     C42664   7.673   3.627   4.926 -0.2338  0.0966  0.1190
  324MOL0     C42665   7.545   3.581   4.978  0.3165 -0.3203 -0.1509
  324MOL0     O42666   7.546   3.519   5.101  0.2609 -0.3785  0.0866
  324MOL0     C42667   7.422   3.510   5.156  0.0554  0.8316  0.5693
  324MOL0     C42668   7.399   3.394   5.228  0.3693 -0.6046  0.5891
  324MOL0     C42669   7.280   3.366   5.305  0.3460 -0.9465  0.0371
  324MOL0     C42670   7.182   3.466   5.311 -1.0400  0.2498  0.3702
  324MOL0     O42671   7.066   3.455   5.379 -0.4634  0.3912  0.4954
  324MOL0     C42672   7.042   3.343   5.449  0.5519  0.1035  0.2835
  324MOL0     C42673   6.933   3.371   5.548 -0.8170 -0.1765 -0.2916
  324MOL0     C42674   6.895   3.242   5.622 -0.2403  0.6874  0.2555
  324MOL0     C42675   6.777   3.263   5.730 -0.6192 -0.0285  0.8100
  324MOL0     C42676   6.700   3.137   5.780 -0.2827 -0.2031  0.0867
  324MOL0     C42677   6.577   3.163   5.871 -0.4923  0.7831  0.7832
  324MOL0     C42678   6.486   3.041   5.880  0.1902 -0.4963 -1.1497
  324MOL0     C42679   6.367   3.073   5.978 -0.4687 -0.3602 -0.5216
  324MOL0    Cl42680   6.248   3.181   5.888 -0.0389  0.0317  0.1862
  324MOL0     C42681   7.208   3.577   5.245 -0.1206 -0.4481  0.4889
  324MOL0     C42682   7.323   3.607   5.170  0.0134 -0.4510  0.4812
  324MOL0     O42683   7.442   3.604   4.913  0.6076 -0.3336  0.6302
  324MOL0     C42684   7.788   3.599   5.005 -0.1181  0.1318 -0.0304
  324MOL0     C42685   7.911   3.648   4.969 -0.3406 -0.9107 -0.3400
  324MOL0     N42686   8.426   3.833   4.265 -0.5098  0.4566  0.2396
  324MOL0     N42687   8.468   3.881   4.152  0.2820  0.5659 -0.4090
  324MOL0     C42688   9.615   4.064   3.748  0.2051  0.4496  0.4315
  324MOL0     C42689   9.729   3.994   3.770 -0.0794 -0.2517  0.4000
  324MOL0     C42690  10.086   3.725   3.766 -0.2330  0.3014  0.7032
  324MOL0     C42691  10.121   3.636   3.866 -0.3581 -0.0939 -0.0980
  324MOL0     C42692  10.253   3.606   3.897  0.1372  0.2029  0.3781
  324MOL0     C42693  10.358   3.675   3.832  0.0761 -0.9766 -0.1272
  324MOL0     O42694  10.486   3.657   3.878 -0.4299 -0.0851 -0.3647
  324MOL0     C42695  10.536   3.527   3.890 -0.0769  0.6579  0.4439
  324MOL0     C42696  10.691   3.529   3.880 -0.9203  0.3831 -0.6313
  324MOL0     C42697  10.748   3.570   3.747 -0.1657  0.1941  0.5225
  324MOL0     C42698  10.904   3.558   3.752  0.0181 -0.4527 -0.6256
  324MOL0     C42699  10.970   3.609   3.630 -0.8243  0.6737 -0.3809
  324MOL0     C42700  11.024   3.671   3.543 -0.0999 -0.6642  0.4785
  324MOL0     C42701  10.326   3.768   3.733  0.0347 -0.3141  0.0496
  324MOL0     C42702  10.188   3.795   3.709 -0.7434 -0.2935  0.6446
  324MOL0     H42703   9.789   3.910   3.441  1.7211 -2.4837  1.9126
  324MOL0     H42704   9.573   4.037   3.414 -1.4938 -0.8262  0.2384
  324MOL0     H42705   9.398   4.266   3.769 -0.1658  0.7433  1.1768
  324MOL0     H42706   9.357   4.090   3.782 -2.3784  1.4122  2.1605
  324MOL0     H42707   9.198   4.122   3.587  1.6632 -0.8817 -0.5482
  324MOL0     H42708   9.227   4.300   3.611  0.8741 -1.2413 -2.4358
  324MOL0     H42709   9.008   4.208   3.708 -1.3809 -0.5645  2.4627
  324MOL0     H42710   9.115   4.279   3.837  3.8079 -1.9574  1.6522
  324MOL0     H42711   9.044   3.984   3.787 -2.6158  1.7979  0.4511
  324MOL0     H42712   9.193   4.030   3.867  0.4411 -0.5169 -1.2161
  324MOL0     H42713   9.054   4.154   4.040  0.2477  1.8145 -0.7821
  324MOL0     H42714   9.020   3.977   4.006  2.1679 -1.1391 -4.6312
  324MOL0     H42715   8.808   4.037   3.884  1.2244 -0.5012 -1.2097
  324MOL0     H42716   8.829   4.209   3.930  0.9798  0.3326  0.4348
  324MOL0     H42717   8.794   3.967   4.104  1.0557  0.9157 -0.5062
  324MOL0     H42718   8.813   4.118   4.178  0.0983 -1.5153  1.2620
  324MOL0     H42719   8.580   4.054   3.982 -0.3528  2.7653 -0.4460
  324MOL0     H42720   8.565   4.179   4.104  2.6043  0.7022  1.0698
  324MOL0     H42721   8.611   4.082   4.365  1.2949 -1.1511 -1.3995
  324MOL0     H42722   8.509   3.926   4.580 -0.8668 -0.1518  0.4034
  324MOL0     H42723   8.457   3.765   4.527 -1.2476 -0.3017  0.4878
  324MOL0     H42724   8.230   3.865   4.469 -2.0374  1.5856  1.9672
  324MOL0     H42725   8.263   4.006   4.577  0.2398  0.4768 -0.4918
  324MOL0     H42726   8.309   3.734   4.678  2.2173  0.9917 -2.0934
  324MOL0     H42727   8.259   3.884   4.769 -0.6615  1.0677 -1.3015
  324MOL0     H42728   8.060   3.720   4.612  1.0177  1.4184 -0.3628
  324MOL0     H42729   8.043   3.885   4.649  0.7803 -0.6182 -1.1399
  324MOL0     H42730   7.822   3.784   4.674 -1.9821 -0.2388  0.4038
  324MOL0     H42731   7.600   3.707   4.745 -1.2378  4.8302  2.8086
  324MOL0     H42732   7.472   3.314   5.224  0.9553 -0.0573  0.1274
  324MOL0     H42733   7.263   3.270   5.351 -1.9367 -0.8882 -0.5684
  324MOL0     H42734   7.129   3.303   5.501 -1.1602 -2.0838  1.6565
  324MOL0     H42735   7.008   3.266   5.379  1.8115 -1.8791  1.7503
  324MOL0     H42736   6.855   3.429   5.497  1.7234  2.2405 -1.6895
  324MOL0     H42737   6.972   3.438   5.626  0.0689 -3.6260  2.4600
  324MOL0     H42738   6.975   3.191   5.676 -3.0689 -2.4469  1.8232
  324MOL0     H42739   6.863   3.175   5.542 -2.3377  1.0828  0.7099
  324MOL0     H42740   6.818   3.318   5.815 -0.1509  1.6073 -0.4219
  324MOL0     H42741   6.697   3.323   5.687 -2.9751 -1.3403  3.1026
  324MOL0     H42742   6.776   3.078   5.833  1.6931  1.3071 -0.9238
  324MOL0     H42743   6.664   3.076   5.697 -4.1306  4.1920 -1.8624
  324MOL0     H42744   6.525   3.248   5.826 -0.0380  0.0271 -1.2790
  324MOL0     H42745   6.623   3.190   5.967 -1.1142 -1.0929  1.6618
  324MOL0     H42746   6.440   3.027   5.782  2.0781 -2.4902 -1.8063
  324MOL0     H42747   6.552   2.966   5.923 -0.5970 -0.3165  0.4759
  324MOL0     H42748   6.389   3.111   6.078 -2.2195 -0.0947 -0.1938
  324MOL0     H42749   6.317   2.979   6.000 -0.8911 -0.7075 -2.7223
  324MOL0     H42750   7.133   3.655   5.248  0.3639  0.1501 -1.3643
  324MOL0     H42751   7.333   3.702   5.118 -1.2411 -0.6082 -0.0886
  324MOL0     H42752   7.783   3.542   5.097 -1.7048  2.4922  1.4397
  324MOL0     H42753   8.001   3.621   5.024  0.1528 -2.3435 -1.8012
  324MOL0     H42754   9.568   4.113   3.833 -1.4251  0.7864 -0.6083
  324MOL0     H42755   9.784   3.981   3.863 -0.9657 -0.0502  0.9562
  324MOL0     H42756  10.043   3.598   3.930 -4.7682  2.6065 -3.2534
  324MOL0     H42757  10.276   3.537   3.977  1.1993  1.3713  1.1206
  324MOL0     H42758  10.504   3.464   3.807  0.9373  1.7014 -0.7764
  324MOL0     H42759  10.503   3.489   3.987  1.4463  4.9576  2.9323
  324MOL0     H42760  10.734   3.608   3.942 -2.7936  2.5581 -1.9457
  324MOL0     H42761  10.738   3.436   3.913  0.7826  1.3811 -0.0854
  324MOL0     H42762  10.719   3.671   3.715  0.0012  0.2538  0.5619
  324MOL0     H42763  10.709   3.505   3.668 -0.2352 -0.6563  1.2401
  324MOL0     H42764  10.947   3.607   3.839  1.6501 -1.8652 -0.5841
  324MOL0     H42765  10.926   3.451   3.760 -0.7658 -0.4975  1.6946
  324MOL0     H42766  11.069   3.736   3.471 -2.7744 -0.2436 -0.9403
  324MOL0     H42767  10.406   3.820   3.681 -0.8104  1.0659  0.0737
  324MOL0     H42768  10.162   3.876   3.641  1.4667 -0.0164  0.0429
  325MOL0     O42769   1.409   8.123   4.430 -0.1836 -0.2480 -0.0452
  325MOL0     C42770   1.460   8.231   4.407 -0.2419 -0.3274  0.5584
  325MOL0     O42771   1.396   8.346   4.380  0.0359  0.2776 -0.1113
  325MOL0     C42772   1.269   8.349   4.329 -0.0761  0.7914  0.3037
  325MOL0     C42773   1.169   8.400   4.407 -0.1960 -0.0669 -0.1872
  325MOL0     C42774   1.041   8.406   4.364  1.9791 -0.5746 -0.1705
  325MOL0     C42775   1.002   8.354   4.234 -0.3445  0.0497 -0.4684
  325MOL0     O42776   0.873   8.347   4.187 -0.0996  0.5443 -0.2542
  325MOL0     C42777   0.769   8.428   4.247  1.2237 -0.2198  0.1115
  325MOL0     C42778   0.651   8.439   4.147  0.2800  0.3472 -1.0806
  325MOL0     C42779   0.526   8.495   4.218 -0.3225 -0.7741  0.5590
  325MOL0     C42780   0.439   8.388   4.269  0.6701 -0.1509  0.1126
  325MOL0     C42781   0.310   8.440   4.330  1.2372  0.0862 -0.2661
  325MOL0     C42782   0.244   8.332   4.413  0.0014 -0.7588 -0.3759
  325MOL0     C42783   0.126   8.395   4.488 -0.3429  0.5784 -1.4195
  325MOL0     C42784   0.062   8.291   4.588 -0.2282 -0.6397 -0.1728
  325MOL0     N42785  -0.084   8.319   4.609 -0.0393  0.8385  0.1988
  325MOL0     C42786  -0.129   8.401   4.710 -0.4571 -0.0492  0.5896
  325MOL0     C42787  -0.262   8.410   4.676  0.0102  0.0183 -0.0468
  325MOL0     C42788  -0.367   8.488   4.752  0.3266  0.1670 -0.3667
  325MOL0     C42789  -0.461   8.562   4.655 -0.0618 -0.3537 -0.4187
  325MOL0     C42790  -0.563   8.660   4.721 -0.1120 -0.3315 -0.1354
  325MOL0     C42791  -0.660   8.584   4.806 -0.4280  0.2623 -0.3757
  325MOL0     O42792  -0.748   8.506   4.722 -0.7304  0.7477 -0.3124
  325MOL0     C42793  -0.880   8.511   4.747  0.6693  0.5148 -0.0406
  325MOL0     C42794  -0.961   8.581   4.654 -0.1353  0.0669 -0.3232
  325MOL0     C42795  -1.101   8.569   4.674 -0.8106  0.1617  0.2535
  325MOL0     C42796  -1.157   8.506   4.786 -0.6206 -0.6691  0.4382
  325MOL0     C42797  -1.304   8.516   4.810 -0.4575 -0.2201 -0.1648
  325MOL0     O42798  -1.342   8.498   4.945  0.7960 -0.0159 -0.5108
  325MOL0     C42799  -1.475   8.527   4.970  0.0773  0.4536 -0.3405
  325MOL0     C42800  -1.518   8.644   5.024 -0.9736  0.4884 -0.3451
  325MOL0     C42801  -1.654   8.681   5.035 -0.4481  0.8927  0.5705
  325MOL0     C42802  -1.758   8.597   4.979 -1.2581  0.7901 -0.4811
  325MOL0     O42803  -1.891   8.602   4.979  0.3994 -0.0501  0.2894
  325MOL0     C42804  -1.957   8.664   5.099  0.1424 -0.4867 -0.5326
  325MOL0     C42805  -2.097   8.606   5.110 -0.2076  0.3676  0.2488
  325MOL0     C42806  -2.190   8.663   5.004  0.6719  0.0570 -1.0096
  325MOL0     C42807  -2.341   8.613   5.003  0.2643  0.4786  0.4071
  325MOL0     C42808  -2.429   8.661   4.884 -0.3160  0.4079 -0.3466
  325MOL0     C42809  -2.570   8.639   4.914 -0.2880 -0.6596 -0.5745
  325MOL0     C42810  -2.665   8.724   4.829 -0.5974  0.0472  0.7734
  325MOL0     C42811  -2.795   8.653   4.790 -0.8574 -0.2319 -1.1522
  325MOL0    Cl42812  -2.871   8.581   4.941 -0.0922 -0.1070  0.0280
  325MOL0     C42813  -1.719   8.485   4.912 -0.1794  0.7622 -0.3407
  325MOL0     C42814  -1.583   8.446   4.923 -0.1555  0.3006 -1.1968
  325MOL0     O42815  -1.375   8.541   4.718 -0.1616  0.1399  0.0555
  325MOL0     C42816  -1.072   8.457   4.878 -0.0706  0.1839  0.5200
  325MOL0     C42817  -0.939   8.460   4.857  0.2386 -0.0715 -0.4490
  325MOL0     N42818  -0.282   8.323   4.566  0.1145  0.0048 -0.0134
  325MOL0     N42819  -0.176   8.268   4.531  0.0238 -0.0247  0.0023
  325MOL0     C42820   1.104   8.293   4.161  0.0857  0.5673 -0.1876
  325MOL0     C42821   1.236   8.293   4.200  0.4340 -0.5689  0.1711
  325MOL0     C42822   1.603   8.250   4.411  0.7478  0.0747  0.4007
  325MOL0     C42823   1.658   8.375   4.379  0.1668  0.2183  0.5506
  325MOL0     C42824   1.798   8.393   4.393  0.6743  0.4472  0.6980
  325MOL0     C42825   1.874   8.272   4.419  0.8711 -0.2186  0.1339
  325MOL0     O42826   2.013   8.269   4.403  0.5075 -0.0432 -0.2890
  325MOL0     C42827   2.086   8.395   4.434 -0.7927  0.0704  0.0085
  325MOL0     C42828   2.236   8.359   4.447 -0.0680 -0.6089  0.1655
  325MOL0     C42829   2.262   8.251   4.553  0.2636  0.0519 -0.3352
  325MOL0     C42830   2.407   8.216   4.555 -1.0408 -0.5432  0.7770
  325MOL0     C42831   2.500   8.328   4.584 -0.4733  0.1960  0.0984
  325MOL0     C42832   2.567   8.427   4.614 -0.4253  0.2995  1.3711
  325MOL0     C42833   1.825   8.146   4.446  0.9981  0.3577  0.0866
  325MOL0     C42834   1.682   8.132   4.452 -0.1134 -0.1270 -0.0141
  325MOL0     H42835   1.193   8.426   4.509  0.9743 -1.2722 -0.1273
  325MOL0     H42836   0.961   8.439   4.430  0.9586 -1.5324 -0.8923
  325MOL0     H42837   0.807   8.526   4.279  3.3585 -0.9737  0.0714
  325MOL0     H42838   0.744   8.379   4.342 -0.3732  2.0332  0.9395
  325MOL0     H42839   0.628   8.338   4.114  1.6334  0.5873 -2.8539
  325MOL0     H42840   0.663   8.505   4.061 -3.2637  0.1549 -1.9116
  325MOL0     H42841   0.471   8.556   4.146  2.0156  0.6608 -0.1463
  325MOL0     H42842   0.565   8.566   4.291  2.0345  0.5164 -1.7665
  325MOL0     H42843   0.417   8.316   4.189  0.2595 -2.6059  2.2858
  325MOL0     H42844   0.495   8.340   4.350 -2.2789 -1.0562  1.7260
  325MOL0     H42845   0.243   8.471   4.249 -1.3502 -2.8674  0.5303
  325MOL0     H42846   0.336   8.529   4.389  1.2235  1.5653 -2.3540
  325MOL0     H42847   0.321   8.287   4.477  0.5651  0.8394  0.1325
  325MOL0     H42848   0.208   8.253   4.348  2.2255 -2.5739  0.4686
  325MOL0     H42849   0.157   8.471   4.561  0.4396  0.0607 -1.1903
  325MOL0     H42850   0.047   8.429   4.422 -2.2535  0.2339  0.5763
  325MOL0     H42851   0.119   8.292   4.681 -1.8089  1.3992  0.8607
  325MOL0     H42852   0.068   8.198   4.531  1.4506  0.8889 -2.6707
  325MOL0     H42853  -0.067   8.451   4.784 -3.8283  3.9315  1.0337
  325MOL0     H42854  -0.326   8.554   4.829 -2.8876  0.3596  1.3158
  325MOL0     H42855  -0.423   8.422   4.819 -0.4997 -0.4652 -1.6378
  325MOL0     H42856  -0.511   8.499   4.581  1.2848  2.0281 -3.6036
  325MOL0     H42857  -0.392   8.619   4.593 -0.2145 -0.0552 -0.3147
  325MOL0     H42858  -0.507   8.724   4.790  1.1401 -1.4704 -0.0532
  325MOL0     H42859  -0.618   8.721   4.649 -2.9663 -1.9468  0.5362
  325MOL0     H42860  -0.715   8.647   4.876 -2.1985 -1.4156 -0.1572
  325MOL0     H42861  -0.607   8.516   4.873 -0.9646  2.3000  2.2697
  325MOL0     H42862  -0.925   8.627   4.562  0.2123  1.4582  0.4763
  325MOL0     H42863  -1.158   8.610   4.591  0.5104 -0.9911 -1.2766
  325MOL0     H42864  -1.443   8.719   5.049  0.5290 -0.9045 -0.5382
  325MOL0     H42865  -1.706   8.771   5.068 -2.5969 -0.2381  0.4227
  325MOL0     H42866  -1.959   8.771   5.074  2.3105 -0.5376 -1.1842
  325MOL0     H42867  -1.899   8.646   5.190 -2.4969 -0.4272  1.2611
  325MOL0     H42868  -2.143   8.643   5.202  0.6650  2.8820 -0.2208
  325MOL0     H42869  -2.105   8.499   5.090 -2.5491  1.1556 -4.7199
  325MOL0     H42870  -2.148   8.654   4.903  2.4107  0.3523 -0.3347
  325MOL0     H42871  -2.191   8.770   5.026 -1.4409 -0.6951  3.8672
  325MOL0     H42872  -2.347   8.504   5.003 -3.3129  0.5035 -2.1681
  325MOL0     H42873  -2.387   8.646   5.097 -0.9646  0.5663 -0.2030
  325MOL0     H42874  -2.397   8.611   4.792  0.4572  0.1348  0.0626
  325MOL0     H42875  -2.401   8.767   4.877  3.0223  0.0093  3.2821
  325MOL0     H42876  -2.591   8.677   5.015 -3.0105 -0.4613 -1.1245
  325MOL0     H42877  -2.588   8.531   4.915 -0.6654 -0.6036 -1.1988
  325MOL0     H42878  -2.685   8.822   4.872 -0.2269  0.0067  1.0356
  325MOL0     H42879  -2.618   8.748   4.734  0.7932 -3.0239  0.5769
  325MOL0     H42880  -2.781   8.573   4.717 -1.5641 -2.1241  0.6669
  325MOL0     H42881  -2.859   8.736   4.756  0.7167  1.5429  0.0274
  325MOL0     H42882  -1.787   8.416   4.864 -0.1664  0.0306  0.6700
  325MOL0     H42883  -1.548   8.348   4.893  0.0794  0.3816 -1.1849
  325MOL0     H42884  -1.114   8.411   4.967 -0.8614  0.3913  0.2613
  325MOL0     H42885  -0.882   8.400   4.927 -0.0337 -1.4425 -1.3516
  325MOL0     H42886   1.071   8.258   4.064 -0.8004  0.7101  0.0458
  325MOL0     H42887   1.311   8.249   4.134  0.4418 -0.6300  0.2205
  325MOL0     H42888   1.601   8.463   4.351 -1.5473 -0.5817  1.3889
  325MOL0     H42889   1.846   8.486   4.366  1.8718 -0.9022 -2.2524
  325MOL0     H42890   2.040   8.443   4.521 -0.2153  0.6932 -0.0226
  325MOL0     H42891   2.097   8.455   4.344 -0.4590 -0.5735 -0.3933
  325MOL0     H42892   2.267   8.331   4.346 -0.4242 -1.9604  0.4175
  325MOL0     H42893   2.295   8.446   4.480 -0.2976 -0.8453  1.2463
  325MOL0     H42894   2.214   8.156   4.527 -0.0597  1.0479 -4.0131
  325MOL0     H42895   2.227   8.282   4.652  2.1533 -1.7895  0.9953
  325MOL0     H42896   2.427   8.148   4.638 -0.6857  0.1429  1.2659
  325MOL0     H42897   2.436   8.170   4.461 -0.0797  1.0826  0.2372
  325MOL0     H42898   2.624   8.513   4.644  2.5752 -0.9854 -0.2716
  325MOL0     H42899   1.891   8.062   4.464 -0.0631 -0.2957  1.1137
  325MOL0     H42900   1.631   8.037   4.460 -0.4061 -0.1904 -2.0992
  326MOL0     O42901   3.895   9.872   2.496  0.4306 -0.4385 -0.1978
  326MOL0     C42902   3.894   9.978   2.433 -0.4717 -0.1362  0.0245
  326MOL0     O42903   3.780  10.037   2.372  0.0805 -0.1677 -0.5443
  326MOL0     C42904   3.669   9.954   2.376  0.5270  0.5077 -0.1989
  326MOL0     C42905   3.548  10.018   2.408 -0.5063  0.9014 -0.0753
  326MOL0     C42906   3.428   9.952   2.406  0.2317  0.3837 -0.6552
  326MOL0     C42907   3.418   9.819   2.375 -0.0662  0.1896 -0.4325
  326MOL0     O42908   3.304   9.753   2.377 -0.1914  0.3314  0.7247
  326MOL0     C42909   3.191   9.814   2.300 -0.1539  0.3036 -0.2704
  326MOL0     C42910   3.060   9.738   2.337 -0.0391  0.1576 -0.9957
  326MOL0     C42911   3.017   9.640   2.236  0.7891 -0.1734  0.4624
  326MOL0     C42912   2.879   9.609   2.266  1.1609  0.4745  0.9834
  326MOL0     C42913   2.824   9.492   2.175  0.0949  0.2152 -0.0716
  326MOL0     C42914   2.699   9.429   2.239  0.4637 -0.0722  0.5014
  326MOL0     C42915   2.581   9.522   2.239 -1.0020 -0.6402  0.0806
  326MOL0     C42916   2.454   9.459   2.308  0.7104  0.3767  0.3479
  326MOL0     N42917   2.379   9.376   2.216  0.6502  0.6772  0.3215
  326MOL0     C42918   2.340   9.239   2.228  0.0670  0.7070  0.0800
  326MOL0     C42919   2.256   9.203   2.128 -0.7114  0.1691 -0.7647
  326MOL0     C42920   2.190   9.067   2.114 -0.1264 -0.3173 -0.0974
  326MOL0     C42921   2.203   9.001   1.982 -0.1616 -0.2628 -0.5725
  326MOL0     C42922   2.104   8.884   1.969  0.1629 -0.5192  0.3527
  326MOL0     C42923   2.111   8.819   1.835  0.5654  0.4213 -0.0533
  326MOL0     O42924   2.059   8.922   1.740 -0.2764 -0.0348 -0.1685
  326MOL0     C42925   1.929   8.912   1.690 -0.4526 -0.2176 -0.8372
  326MOL0     C42926   1.836   8.813   1.730  0.1322 -0.2956  0.3108
  326MOL0     C42927   1.705   8.821   1.686 -0.4933  0.3433 -0.0090
  326MOL0     C42928   1.663   8.919   1.600  0.0940  0.1637 -0.1665
  326MOL0     C42929   1.525   8.918   1.539  0.3972 -0.0102  0.1080
  326MOL0     O42930   1.473   9.029   1.478 -0.6336 -0.2471  0.1118
  326MOL0     C42931   1.336   9.029   1.464 -0.9313  1.2986 -0.1787
  326MOL0     C42932   1.258   9.096   1.556 -1.4454 -0.4710 -0.3118
  326MOL0     C42933   1.117   9.109   1.533 -0.5096  0.4785 -0.4449
  326MOL0     C42934   1.065   9.047   1.418 -0.1204  0.4775  0.5471
  326MOL0     O42935   0.931   9.061   1.391 -0.6616  0.3565  0.1098
  326MOL0     C42936   0.846   8.966   1.459  0.0361  0.4903  0.1155
  326MOL0     C42937   0.709   8.995   1.402 -0.2506  0.1134 -0.1723
  326MOL0     C42938   0.654   9.130   1.454 -0.3569 -1.1671 -0.2479
  326MOL0     C42939   0.510   9.152   1.401  0.1276  0.2930  0.6051
  326MOL0     C42940   0.453   9.281   1.463 -0.1639  0.1325 -0.2331
  326MOL0     C42941   0.538   9.402   1.430  0.1411 -0.4344 -0.3197
  326MOL0     C42942   0.469   9.533   1.445 -0.1719 -0.7966 -0.0367
  326MOL0     C42943   0.570   9.646   1.450 -0.1482  0.1948  0.2058
  326MOL0    Cl42944   0.510   9.787   1.536  0.0939  0.1949 -0.1893
  326MOL0     C42945   1.147   8.981   1.327  0.1325 -0.2940 -0.3767
  326MOL0     C42946   1.282   8.979   1.348  0.6406  0.3916  0.7885
  326MOL0     O42947   1.455   8.823   1.568  0.0531  0.1716  0.0838
  326MOL0     C42948   1.756   9.013   1.554 -0.1191  0.0369 -0.3793
  326MOL0     C42949   1.885   9.012   1.599  0.2523  0.3142  0.5950
  326MOL0     N42950   2.234   9.320   2.063  0.6416  0.4428 -0.1092
  326MOL0     N42951   2.281   9.423   2.130 -0.3672 -0.5006 -0.1471
  326MOL0     C42952   3.533   9.750   2.335  0.1653  0.3616 -0.1933
  326MOL0     C42953   3.656   9.824   2.330  0.8286 -0.8588  1.0698
  326MOL0     C42954   4.016  10.061   2.456 -0.0645  0.9433 -0.5806
  326MOL0     C42955   4.141  10.010   2.506 -0.1440  0.5854 -0.7997
  326MOL0     C42956   4.242  10.102   2.538 -0.1468 -0.1449  0.3950
  326MOL0     C42957   4.226  10.240   2.502  0.5371  0.4264 -0.4826
  326MOL0     O42958   4.320  10.330   2.531 -0.9839 -0.1106  0.0265
  326MOL0     C42959   4.434  10.296   2.616  0.0356  0.3319  0.2112
  326MOL0     C42960   4.555  10.235   2.538 -0.2206  0.1521 -0.5997
  326MOL0     C42961   4.681  10.190   2.624 -0.4794  0.1931 -0.0596
  326MOL0     C42962   4.788  10.167   2.518 -1.0772  0.4809 -0.3520
  326MOL0     C42963   4.908  10.111   2.596  0.0240  0.5599 -0.2312
  326MOL0     C42964   5.006  10.075   2.652 -0.6576  1.0560  0.7203
  326MOL0     C42965   4.107  10.287   2.450  1.2033  0.7838 -0.4545
  326MOL0     C42966   4.002  10.196   2.419  0.0740 -0.3603  0.4183
  326MOL0     H42967   3.549  10.122   2.437  0.0975  1.6980 -2.7208
  326MOL0     H42968   3.341  10.005   2.443  0.8259  0.5046  0.6142
  326MOL0     H42969   3.204   9.830   2.192 -3.0492  1.7961 -0.5084
  326MOL0     H42970   3.174   9.915   2.340 -0.6541  0.3785 -0.6583
  326MOL0     H42971   2.991   9.821   2.354 -1.4720 -1.3820  1.3234
  326MOL0     H42972   3.079   9.686   2.432  2.8714 -2.0368 -2.6140
  326MOL0     H42973   3.076   9.549   2.223  1.2240  0.2745 -0.8229
  326MOL0     H42974   3.019   9.687   2.137 -1.0684 -2.7497 -0.9138
  326MOL0     H42975   2.880   9.561   2.364  3.6884  0.8626  1.2139
  326MOL0     H42976   2.823   9.702   2.254  0.4978 -0.0018  0.3358
  326MOL0     H42977   2.904   9.418   2.168 -1.8406 -1.9829 -0.2218
  326MOL0     H42978   2.796   9.515   2.072 -2.7076 -2.0452  0.0558
  326MOL0     H42979   2.721   9.397   2.341 -0.8673  0.2180  0.9023
  326MOL0     H42980   2.675   9.337   2.185  2.2725 -1.1001  1.3462
  326MOL0     H42981   2.614   9.597   2.312  4.0781 -1.8048 -0.6636
  326MOL0     H42982   2.569   9.576   2.145  1.0756  0.1668  0.2409
  326MOL0     H42983   2.389   9.540   2.339 -0.3281  0.0017 -0.7699
  326MOL0     H42984   2.481   9.395   2.392  0.3035 -0.1626  0.0744
  326MOL0     H42985   2.374   9.165   2.300 -2.1658 -0.9789 -0.4900
  326MOL0     H42986   2.085   9.078   2.141 -1.4315 -0.3358 -4.4555
  326MOL0     H42987   2.237   9.006   2.192  2.0679 -1.5053 -2.2017
  326MOL0     H42988   2.303   8.956   1.981  0.7832  1.6940 -2.2738
  326MOL0     H42989   2.198   9.078   1.904 -0.9866  0.9163  0.6070
  326MOL0     H42990   2.134   8.812   2.046  0.4007 -0.8125 -0.0099
  326MOL0     H42991   1.999   8.913   1.978  0.1252 -0.3585 -0.5706
  326MOL0     H42992   2.055   8.724   1.833  0.8832  0.0339  3.5590
  326MOL0     H42993   2.212   8.788   1.806  0.8044  1.2617 -0.1495
  326MOL0     H42994   1.859   8.735   1.802  1.2694 -0.0909  0.1974
  326MOL0     H42995   1.647   8.736   1.719  0.8827 -0.8631 -0.6117
  326MOL0     H42996   1.295   9.157   1.638 -4.3886 -1.3858  1.8549
  326MOL0     H42997   1.046   9.166   1.593  0.2090  0.0887  0.8051
  326MOL0     H42998   0.847   8.976   1.568  0.5839  0.4614  0.1188
  326MOL0     H42999   0.880   8.864   1.434  2.4830  0.1986  3.8100
  326MOL0     H43000   0.637   8.923   1.443  1.1562 -0.0971  2.0875
  326MOL0     H43001   0.708   9.000   1.293  0.2220 -0.3461 -0.2012
  326MOL0     H43002   0.716   9.214   1.420  0.6490 -0.5231  2.9025
  326MOL0     H43003   0.647   9.124   1.563 -2.5962 -2.3759 -0.3962
  326MOL0     H43004   0.508   9.164   1.292 -0.3044  0.2101  0.6013
  326MOL0     H43005   0.447   9.066   1.426 -0.2411  0.3639 -0.0453
  326MOL0     H43006   0.426   9.271   1.569  1.1662  0.8859  0.1964
  326MOL0     H43007   0.355   9.294   1.416 -1.6628 -0.8172  2.3780
  326MOL0     H43008   0.572   9.405   1.326  2.1013 -0.6809  0.2756
  326MOL0     H43009   0.622   9.395   1.500 -4.1724 -1.0268  5.6067
  326MOL0     H43010   0.407   9.549   1.356 -2.1177  0.6777  1.5047
  326MOL0     H43011   0.405   9.525   1.533  0.9640 -0.9593  0.7947
  326MOL0     H43012   0.595   9.676   1.348  1.7255 -0.4427  0.4391
  326MOL0     H43013   0.663   9.620   1.500  0.0466  0.1866 -0.1585
  326MOL0     H43014   1.107   8.921   1.246 -0.5546 -0.7432  0.2701
  326MOL0     H43015   1.354   8.932   1.281  2.3095  0.4535  2.4430
  326MOL0     H43016   1.727   9.093   1.486 -2.2170  0.6308  1.1157
  326MOL0     H43017   1.943   9.100   1.573 -1.1684  1.1751  0.2448
  326MOL0     H43018   3.518   9.652   2.290 -1.6917  1.2354 -1.6693
  326MOL0     H43019   3.741   9.766   2.296  1.3328  0.0193  0.7758
  326MOL0     H43020   4.152   9.906   2.533  0.3419  1.4028  2.6691
  326MOL0     H43021   4.332  10.069   2.589  0.8372  1.2327 -0.3782
  326MOL0     H43022   4.406  10.219   2.689 -0.5925 -1.1462 -1.5215
  326MOL0     H43023   4.459  10.382   2.678 -1.8215 -1.0543  3.1527
  326MOL0     H43024   4.520  10.146   2.485  0.2193  0.0678 -0.7563
  326MOL0     H43025   4.581  10.310   2.462  0.1898 -0.4029 -1.0269
  326MOL0     H43026   4.643  10.101   2.675 -1.5043  0.6248 -0.0340
  326MOL0     H43027   4.706  10.267   2.697  0.2209 -2.0848  2.2298
  326MOL0     H43028   4.755  10.087   2.451  0.0820 -0.6195  0.3445
  326MOL0     H43029   4.822  10.253   2.461 -3.0948  0.3591 -1.8745
  326MOL0     H43030   5.097  10.050   2.703  1.8635  6.2759 -0.5153
  326MOL0     H43031   4.095  10.392   2.425  1.2443  1.6431  2.6752
  326MOL0     H43032   3.913  10.235   2.370 -0.7887 -1.8326  0.7641
  327MOL0     O43033   7.343   2.879   8.995 -0.2502 -0.1789 -0.0728
  327MOL0     C43034   7.382   2.999   9.023  1.0205  0.5389 -0.3710
  327MOL0     O43035   7.319   3.116   8.978 -0.2039  0.3674 -0.1818
  327MOL0     C43036   7.199   3.115   8.903  0.3367  0.2141 -0.4564
  327MOL0     C43037   7.191   3.217   8.797  0.3603 -0.1829 -0.1492
  327MOL0     C43038   7.083   3.238   8.712  0.5485  0.1802  0.0753
  327MOL0     C43039   6.973   3.143   8.727 -0.6605 -0.6319  0.4021
  327MOL0     O43040   6.854   3.161   8.660  0.0129  0.8141  0.1507
  327MOL0     C43041   6.845   3.261   8.565 -0.5771 -0.3876  0.2604
  327MOL0     C43042   6.708   3.278   8.512  0.4840  0.3261 -0.4749
  327MOL0     C43043   6.696   3.418   8.448  0.8432 -0.6364 -0.5389
  327MOL0     C43044   6.562   3.409   8.376 -0.5915 -0.1641 -0.0944
  327MOL0     C43045   6.520   3.555   8.348 -0.6452 -0.4244  0.2576
  327MOL0     C43046   6.420   3.566   8.235 -0.3335 -0.1357 -0.6282
  327MOL0     C43047   6.391   3.709   8.213 -0.3567 -0.1310  0.1678
  327MOL0     C43048   6.295   3.732   8.097  0.0193 -0.3314  0.4500
  327MOL0     N43049   6.245   3.866   8.109  1.0200 -0.7807  0.0998
  327MOL0     C43050   6.131   3.905   8.175 -0.5807  0.6125  0.6659
  327MOL0     C43051   6.132   4.036   8.161  0.4748 -0.2429 -0.7582
  327MOL0     C43052   6.040   4.132   8.216 -0.3587  0.2278  0.4265
  327MOL0     C43053   6.063   4.147   8.367 -0.1160  0.0747 -0.9975
  327MOL0     C43054   5.961   4.065   8.454 -0.4325 -0.0325 -0.1799
  327MOL0     C43055   5.973   4.103   8.602  0.1157 -0.1198 -0.5116
  327MOL0     O43056   5.936   4.242   8.623 -0.1719 -0.0041 -0.2159
  327MOL0     C43057   5.807   4.266   8.668 -0.5767  0.9592  0.3805
  327MOL0     C43058   5.733   4.173   8.747 -0.3453 -0.5434  0.2641
  327MOL0     C43059   5.623   4.230   8.820 -0.5498  0.6749 -0.0060
  327MOL0     C43060   5.573   4.356   8.795 -0.2941 -0.2914  0.1975
  327MOL0     C43061   5.448   4.396   8.870 -0.3166 -0.1966 -0.5266
  327MOL0     O43062   5.365   4.302   8.927  0.3269  0.5749  0.5285
  327MOL0     C43063   5.254   4.333   9.002 -0.1861 -0.6176  0.5909
  327MOL0     C43064   5.222   4.260   9.112 -0.5161  0.5950  0.9482
  327MOL0     C43065   5.107   4.289   9.185 -0.0049  0.1511  0.0858
  327MOL0     C43066   5.022   4.393   9.146  0.7367 -0.3707  0.5166
  327MOL0     O43067   4.906   4.427   9.206 -0.1253  0.3678  0.1830
  327MOL0     C43068   4.856   4.342   9.310  0.5926  0.1269  1.3615
  327MOL0     C43069   4.716   4.372   9.333  0.5244 -0.3432  0.4585
  327MOL0     C43070   4.646   4.281   9.439 -0.9953  0.2170  0.0942
  327MOL0     C43071   4.515   4.338   9.475  0.2630 -0.0806 -0.2006
  327MOL0     C43072   4.430   4.249   9.580 -1.2374 -0.3728 -0.2089
  327MOL0     C43073   4.312   4.321   9.641 -0.4011 -0.7910  0.3460
  327MOL0     C43074   4.254   4.237   9.758 -0.1085 -0.1236 -1.0750
  327MOL0     C43075   4.142   4.309   9.829  0.4280 -0.0397 -0.0195
  327MOL0    Cl43076   4.215   4.463   9.905 -0.3130  0.3358 -0.0174
  327MOL0     C43077   5.041   4.460   9.025 -0.4056 -0.2693 -0.2172
  327MOL0     C43078   5.155   4.420   8.949 -0.1449 -0.1242  0.2722
  327MOL0     O43079   5.432   4.518   8.881 -0.4070  0.1464 -0.2523
  327MOL0     C43080   5.645   4.440   8.708 -0.7459  0.2316 -0.5702
  327MOL0     C43081   5.766   4.398   8.649  0.0086 -0.7802 -0.1723
  327MOL0     N43082   6.236   4.082   8.086 -0.8459 -0.5581  0.9826
  327MOL0     N43083   6.304   3.974   8.057 -0.0037 -0.8889  0.1317
  327MOL0     C43084   6.979   3.036   8.818  0.1309  0.4582  0.5856
  327MOL0     C43085   7.089   3.027   8.908  0.1356 -0.1267 -0.0874
  327MOL0     C43086   7.490   3.016   9.116 -0.2326 -0.2965  0.3208
  327MOL0     C43087   7.544   3.140   9.140 -0.3424 -0.1153  0.4340
  327MOL0     C43088   7.664   3.143   9.218  0.3252  0.5824  0.8546
  327MOL0     C43089   7.737   3.031   9.258 -0.4172 -0.0462 -1.1594
  327MOL0     O43090   7.855   3.043   9.336 -0.1682 -0.4616  0.1472
  327MOL0     C43091   7.945   2.934   9.340  0.2796  0.5014  0.3442
  327MOL0     C43092   7.941   2.849   9.466 -0.1841  0.4320  0.7223
  327MOL0     C43093   8.021   2.717   9.468  0.0061  0.5354 -0.9963
  327MOL0     C43094   7.935   2.595   9.441  0.1634  0.0510  0.3427
  327MOL0     C43095   7.845   2.573   9.553 -0.1563 -0.6202 -0.1356
  327MOL0     C43096   7.759   2.540   9.630  0.9381 -0.0598 -0.0413
  327MOL0     C43097   7.674   2.912   9.231 -0.6437  0.4681  1.0220
  327MOL0     C43098   7.555   2.901   9.159 -0.2346 -0.0376 -0.3440
  327MOL0     H43099   7.266   3.295   8.788 -0.7737  1.2749  2.1226
  327MOL0     H43100   7.072   3.316   8.638 -1.1784  1.8879  2.0230
  327MOL0     H43101   6.905   3.245   8.475 -0.0250 -1.1886  0.7660
  327MOL0     H43102   6.886   3.358   8.596  1.1387 -0.8311 -0.4964
  327MOL0     H43103   6.642   3.288   8.598  1.3883  1.7622  0.0928
  327MOL0     H43104   6.682   3.198   8.443  0.7159 -2.4081  2.3715
  327MOL0     H43105   6.773   3.446   8.376  1.8780  2.2695  1.5030
  327MOL0     H43106   6.696   3.497   8.524 -0.6726 -0.4707 -0.6741
  327MOL0     H43107   6.584   3.368   8.277 -1.2573  0.2125 -0.4020
  327MOL0     H43108   6.488   3.349   8.431 -1.3578  0.2559 -0.6498
  327MOL0     H43109   6.607   3.617   8.324 -0.4059 -0.9816 -0.3439
  327MOL0     H43110   6.476   3.590   8.441 -2.9130  3.3045 -1.9710
  327MOL0     H43111   6.328   3.507   8.244 -1.6725  1.4281 -3.0855
  327MOL0     H43112   6.480   3.521   8.156 -1.9101 -0.9949 -1.3800
  327MOL0     H43113   6.352   3.739   8.310  1.1174 -1.3923  1.1884
  327MOL0     H43114   6.484   3.759   8.186 -0.7046  0.1907 -0.4544
  327MOL0     H43115   6.219   3.655   8.082 -0.0847  0.0539 -1.2637
  327MOL0     H43116   6.346   3.727   8.000  3.5264  1.1334  2.0546
  327MOL0     H43117   6.054   3.848   8.225  1.9183 -0.3655  3.7121
  327MOL0     H43118   5.942   4.090   8.192  0.9828 -3.1864  0.2476
  327MOL0     H43119   6.063   4.231   8.177  2.1013  0.2247  1.6712
  327MOL0     H43120   6.046   4.251   8.397 -0.2611  0.1227 -1.2419
  327MOL0     H43121   6.166   4.127   8.399 -1.2996 -1.7581  2.1858
  327MOL0     H43122   5.858   4.079   8.418 -0.0831 -0.8018 -1.5292
  327MOL0     H43123   5.980   3.958   8.443  0.1497  0.2678 -2.6964
  327MOL0     H43124   6.071   4.088   8.650  0.2674 -0.1543 -0.8302
  327MOL0     H43125   5.922   4.025   8.659  2.2877  0.1452  2.0189
  327MOL0     H43126   5.751   4.067   8.764 -1.6064 -0.6123  1.2665
  327MOL0     H43127   5.572   4.169   8.894 -0.9299  0.5258 -0.3846
  327MOL0     H43128   5.276   4.175   9.151 -1.2070 -0.2748  0.0685
  327MOL0     H43129   5.088   4.225   9.271 -0.8658  0.8502  0.4354
  327MOL0     H43130   4.908   4.347   9.407  1.1526  0.4808  1.0487
  327MOL0     H43131   4.859   4.238   9.276  0.8269  0.4849  0.2446
  327MOL0     H43132   4.664   4.373   9.237  1.7963 -0.9939 -0.2629
  327MOL0     H43133   4.706   4.475   9.368 -1.3315  0.6114 -2.5554
  327MOL0     H43134   4.713   4.292   9.525 -4.0693  0.0531  2.6697
  327MOL0     H43135   4.644   4.174   9.417 -0.4798  0.4386 -1.1391
  327MOL0     H43136   4.518   4.441   9.511 -1.0355 -0.7462  1.9841
  327MOL0     H43137   4.460   4.354   9.382  0.1469 -0.7528 -0.2484
  327MOL0     H43138   4.504   4.220   9.655  0.7048  0.8877 -1.5163
  327MOL0     H43139   4.393   4.154   9.542 -1.0634 -0.4164 -0.2722
  327MOL0     H43140   4.246   4.361   9.563  0.0910  0.4343  0.5349
  327MOL0     H43141   4.366   4.407   9.682 -0.2745 -1.2021  1.0684
  327MOL0     H43142   4.214   4.145   9.715 -0.9395 -0.0694 -0.4455
  327MOL0     H43143   4.337   4.223   9.828 -1.6574 -0.3443  0.7777
  327MOL0     H43144   4.105   4.231   9.896  1.8030 -0.8895 -0.2101
  327MOL0     H43145   4.060   4.342   9.765  0.8909 -1.0864 -1.2257
  327MOL0     H43146   4.972   4.534   8.988 -0.8930  0.4345  1.9465
  327MOL0     H43147   5.184   4.460   8.852  1.3466 -0.2971  0.6143
  327MOL0     H43148   5.613   4.544   8.703 -1.2775  0.0898 -0.1846
  327MOL0     H43149   5.829   4.469   8.598 -1.0203  0.2362 -0.0679
  327MOL0     H43150   6.898   2.970   8.845  1.9273 -0.6336  3.8754
  327MOL0     H43151   7.106   2.951   8.984  2.2799  0.1689 -0.2341
  327MOL0     H43152   7.496   3.228   9.099 -1.6339  1.6901  5.1320
  327MOL0     H43153   7.717   3.236   9.236 -1.8789  1.9763  0.6106
  327MOL0     H43154   8.048   2.972   9.339  0.4610  0.0266  0.6821
  327MOL0     H43155   7.932   2.868   9.254  1.0391  0.3546  0.3359
  327MOL0     H43156   7.970   2.905   9.555 -3.3866 -0.4922  2.5079
  327MOL0     H43157   7.837   2.820   9.483 -1.2458  2.3034 -1.7606
  327MOL0     H43158   8.073   2.696   9.562 -1.6910 -0.8730 -0.3034
  327MOL0     H43159   8.095   2.728   9.389 -1.0943  1.8745 -1.8887
  327MOL0     H43160   7.876   2.599   9.349 -0.7713  0.5962  0.9544
  327MOL0     H43161   8.008   2.514   9.430 -0.5025 -0.5893  0.6337
  327MOL0     H43162   7.676   2.519   9.694  1.0017 -0.9465 -0.2267
  327MOL0     H43163   7.724   2.819   9.256 -0.5075 -0.1753 -1.4200
  327MOL0     H43164   7.515   2.801   9.144  1.1356 -1.1061  2.4870
  328MOL0     O43165   9.161   2.664   4.597 -0.2084 -0.3817 -0.3904
  328MOL0     C43166   9.197   2.560   4.657  0.3159 -0.4352  0.4413
  328MOL0     O43167   9.115   2.470   4.718  0.0651 -0.2568 -0.0336
  328MOL0     C43168   8.992   2.518   4.758 -0.6560 -0.1581 -0.1458
  328MOL0     C43169   8.887   2.433   4.766  0.5892  0.5655  0.6376
  328MOL0     C43170   8.770   2.458   4.836  0.1735  0.2536 -0.0634
  328MOL0     C43171   8.756   2.578   4.897  0.6191 -0.1003  0.5860
  328MOL0     O43172   8.647   2.621   4.970  0.3421  0.1608  1.0580
  328MOL0     C43173   8.552   2.526   5.009  0.7240  0.4472  0.2104
  328MOL0     C43174   8.478   2.568   5.137  0.4142 -0.8189 -0.4782
  328MOL0     C43175   8.345   2.505   5.173 -0.0140 -0.5168 -0.4964
  328MOL0     C43176   8.344   2.349   5.149 -0.2269  0.8422 -1.0141
  328MOL0     C43177   8.281   2.291   5.282 -0.6701 -0.2691 -0.9138
  328MOL0     C43178   8.285   2.142   5.287 -0.3297 -0.2242  1.0473
  328MOL0     C43179   8.189   2.079   5.193  0.1420 -0.4544 -0.9081
  328MOL0     C43180   8.177   1.927   5.214  0.2438  0.4224  0.0631
  328MOL0     N43181   8.091   1.844   5.120  0.4379 -0.5821 -0.2809
  328MOL0     C43182   7.970   1.872   5.077 -0.8356 -0.1431  0.2489
  328MOL0     C43183   7.928   1.768   4.997  0.4341  0.2062  0.0909
  328MOL0     C43184   7.794   1.745   4.937  0.5862 -0.1346 -0.3458
  328MOL0     C43185   7.688   1.751   5.047 -0.0846 -0.1782  0.2643
  328MOL0     C43186   7.668   1.639   5.156  0.3968 -0.5469 -0.0732
  328MOL0     C43187   7.566   1.675   5.260 -0.4513  0.3009 -0.5867
  328MOL0     O43188   7.435   1.655   5.210 -0.0626  0.0063 -0.1674
  328MOL0     C43189   7.340   1.681   5.296 -0.2762  0.2352 -0.2474
  328MOL0     C43190   7.350   1.742   5.427  0.9738  0.4294 -0.0175
  328MOL0     C43191   7.222   1.769   5.491 -0.5239 -0.2843  0.0539
  328MOL0     C43192   7.097   1.718   5.443  0.5939 -0.3269  0.1781
  328MOL0     C43193   6.966   1.731   5.524 -0.1979  0.0630  0.3512
  328MOL0     O43194   6.966   1.821   5.623  0.1195 -1.0215 -0.1441
  328MOL0     C43195   6.863   1.829   5.708  0.0308 -0.3461 -0.3227
  328MOL0     C43196   6.811   1.953   5.738 -0.9014 -0.0592 -0.5475
  328MOL0     C43197   6.711   1.971   5.841 -0.5133 -0.0500  0.4519
  328MOL0     C43198   6.652   1.865   5.902  0.4154 -0.9315  0.6003
  328MOL0     O43199   6.548   1.887   5.990 -0.7916  0.1024  0.0408
  328MOL0     C43200   6.503   1.774   6.065 -0.5786 -0.7659 -0.2384
  328MOL0     C43201   6.406   1.816   6.166  0.0955 -0.0693 -0.4712
  328MOL0     C43202   6.321   1.694   6.218  0.3221 -0.3085  0.2638
  328MOL0     C43203   6.216   1.752   6.314  0.0405  0.5821 -0.3280
  328MOL0     C43204   6.104   1.643   6.328  0.5751 -0.1937 -0.8192
  328MOL0     C43205   6.139   1.528   6.420  0.3916  0.9455  0.5622
  328MOL0     C43206   6.017   1.465   6.492  0.3330  0.1690  0.2378
  328MOL0     C43207   6.068   1.352   6.582  0.3990 -0.0100  1.1119
  328MOL0    Cl43208   5.923   1.274   6.654  0.1020  0.0320 -0.9824
  328MOL0     C43209   6.706   1.731   5.871 -1.1524 -0.7518 -1.0532
  328MOL0     C43210   6.811   1.722   5.768  0.3344  0.0485 -0.3789
  328MOL0     O43211   6.874   1.663   5.483  0.0016  0.5330 -1.0672
  328MOL0     C43212   7.099   1.658   5.319 -0.1352 -0.3588 -0.8644
  328MOL0     C43213   7.215   1.651   5.242 -0.2040  0.6087 -0.5771
  328MOL0     N43214   8.024   1.667   4.996 -0.4694 -0.7050  0.1452
  328MOL0     N43215   8.125   1.720   5.068  0.0201 -0.2121  0.4990
  328MOL0     C43216   8.862   2.674   4.885  0.9601 -0.1592 -0.6787
  328MOL0     C43217   8.981   2.643   4.817  0.4753  0.0753 -0.0934
  328MOL0     C43218   9.345   2.530   4.629 -0.5130 -0.4782 -0.1186
  328MOL0     C43219   9.407   2.418   4.687  1.4554 -0.0247  0.1949
  328MOL0     C43220   9.542   2.393   4.675 -0.0174 -0.0915 -1.2269
  328MOL0     C43221   9.626   2.470   4.599  0.2930 -0.9829 -0.1222
  328MOL0     O43222   9.760   2.430   4.604  0.0757 -0.7372 -0.4427
  328MOL0     C43223   9.850   2.473   4.507  0.7306  0.1401  0.2452
  328MOL0     C43224   9.920   2.602   4.560  0.0326  0.0929 -0.5286
  328MOL0     C43225   9.988   2.581   4.699  0.4014  1.0365 -0.1357
  328MOL0     C43226  10.094   2.688   4.720 -0.0179 -0.4508  0.4855
  328MOL0     C43227  10.158   2.675   4.860  0.0075 -0.2190  0.3043
  328MOL0     C43228  10.211   2.666   4.965 -0.1910  0.3106 -0.5727
  328MOL0     C43229   9.572   2.579   4.533 -0.4039  0.8486 -0.2396
  328MOL0     C43230   9.432   2.607   4.550 -0.2541  0.9668 -0.4324
  328MOL0     H43231   8.892   2.336   4.719 -2.4391 -0.4945  2.2644
  328MOL0     H43232   8.692   2.383   4.839 -0.0331  0.4518 -0.3975
  328MOL0     H43233   8.589   2.425   5.027 -0.2204 -0.2393 -1.4048
  328MOL0     H43234   8.490   2.522   4.918  1.9958 -1.3099 -0.6424
  328MOL0     H43235   8.461   2.676   5.123  1.6431 -0.6960 -1.1641
  328MOL0     H43236   8.541   2.559   5.226  1.5455  3.9056 -0.4953
  328MOL0     H43237   8.260   2.546   5.118 -0.9900 -1.2932  0.3902
  328MOL0     H43238   8.321   2.532   5.276 -3.0972 -2.4153 -0.5914
  328MOL0     H43239   8.287   2.322   5.060 -1.3165  0.6434 -0.2819
  328MOL0     H43240   8.446   2.309   5.142 -0.2866 -0.4870  3.0328
  328MOL0     H43241   8.181   2.334   5.291 -0.6660 -0.4223 -0.0995
  328MOL0     H43242   8.343   2.327   5.365  0.6021  2.2360 -2.7821
  328MOL0     H43243   8.272   2.103   5.389 -0.4498  2.9271  2.3430
  328MOL0     H43244   8.386   2.110   5.261  0.2460  2.0316  0.3878
  328MOL0     H43245   8.094   2.129   5.216  2.6015  2.1203  6.0964
  328MOL0     H43246   8.214   2.101   5.088 -0.8404 -1.1779 -1.3131
  328MOL0     H43247   8.143   1.901   5.314  0.4357 -1.3045 -0.2831
  328MOL0     H43248   8.279   1.887   5.209 -0.1729 -0.5867 -1.4235
  328MOL0     H43249   7.919   1.967   5.093 -0.7762 -0.0594 -0.0474
  328MOL0     H43250   7.792   1.647   4.888  0.0647 -0.8089  0.9610
  328MOL0     H43251   7.774   1.820   4.860  1.4412  0.5339  0.0676
  328MOL0     H43252   7.594   1.751   4.990 -0.4356 -2.1759  0.7660
  328MOL0     H43253   7.698   1.848   5.098  1.0864  0.8052 -1.7076
  328MOL0     H43254   7.646   1.544   5.105 -3.4722 -1.0068  2.1157
  328MOL0     H43255   7.766   1.631   5.204  0.2341  1.0064  0.5732
  328MOL0     H43256   7.583   1.777   5.295  1.1413  1.0171 -3.1675
  328MOL0     H43257   7.583   1.607   5.344  3.3767  1.2461 -0.4237
  328MOL0     H43258   7.442   1.761   5.481  1.3503 -2.1846  0.3755
  328MOL0     H43259   7.221   1.821   5.587 -1.9090  1.6487 -0.9384
  328MOL0     H43260   6.850   2.047   5.701  1.7714 -0.7663  0.2318
  328MOL0     H43261   6.678   2.070   5.868  3.5762  1.8261 -0.6798
  328MOL0     H43262   6.585   1.725   6.119  2.4336  0.3154 -3.4400
  328MOL0     H43263   6.458   1.699   5.999  0.0315  0.4902 -2.1592
  328MOL0     H43264   6.333   1.873   6.109 -2.4794 -2.5012  0.1781
  328MOL0     H43265   6.455   1.878   6.241  2.0706  1.0074 -2.5310
  328MOL0     H43266   6.387   1.615   6.256  0.3148  0.1044  1.1710
  328MOL0     H43267   6.261   1.652   6.137 -1.9480  1.2322  1.0685
  328MOL0     H43268   6.250   1.774   6.416  0.1848  0.9837 -0.4609
  328MOL0     H43269   6.172   1.837   6.263  0.5552  0.3316 -1.2126
  328MOL0     H43270   6.061   1.614   6.233 -2.0076  3.0653 -0.8233
  328MOL0     H43271   6.016   1.690   6.373  0.5632 -1.4166  0.5319
  328MOL0     H43272   6.210   1.557   6.498  1.4105 -2.2520  0.9770
  328MOL0     H43273   6.200   1.451   6.373  0.7514  0.7591  1.3201
  328MOL0     H43274   5.973   1.540   6.558  2.0660 -0.2333  1.9254
  328MOL0     H43275   5.950   1.420   6.418  1.2358 -0.7376 -0.0554
  328MOL0     H43276   6.135   1.389   6.660 -1.0752  1.1172  1.8875
  328MOL0     H43277   6.121   1.283   6.515 -2.9201 -0.0338 -1.7690
  328MOL0     H43278   6.663   1.648   5.925 -0.1779 -0.1621  0.7143
  328MOL0     H43279   6.858   1.628   5.740  1.5684  0.5823 -0.1644
  328MOL0     H43280   7.002   1.631   5.279 -0.4951  2.2393 -1.9420
  328MOL0     H43281   7.212   1.601   5.146 -0.6752  1.7535 -1.1675
  328MOL0     H43282   8.831   2.776   4.909 -1.5940 -1.0169  0.0099
  328MOL0     H43283   9.058   2.720   4.809  0.9667 -0.5791 -3.6478
  328MOL0     H43284   9.342   2.345   4.733 -1.2676 -0.3670 -3.6770
  328MOL0     H43285   9.596   2.308   4.716 -0.4453  0.7805  1.3245
  328MOL0     H43286   9.801   2.481   4.410  0.0031  0.0088  0.5959
  328MOL0     H43287   9.928   2.397   4.502 -1.1861 -1.8339 -1.8232
  328MOL0     H43288   9.989   2.651   4.490 -1.2720  2.3963 -0.3029
  328MOL0     H43289   9.840   2.675   4.567  0.4465  0.6090 -1.0407
  328MOL0     H43290  10.023   2.478   4.711  0.2141  1.1991  2.1286
  328MOL0     H43291   9.907   2.598   4.771  0.4226 -1.8872  0.7264
  328MOL0     H43292  10.160   2.697   4.633  0.9357 -4.9565  0.5350
  328MOL0     H43293  10.048   2.787   4.726  0.7606  0.3479 -3.5862
  328MOL0     H43294  10.246   2.637   5.062 -2.7538  2.1462  1.0320
  328MOL0     H43295   9.626   2.638   4.459  0.8289 -0.7254 -0.6517
  328MOL0     H43296   9.396   2.687   4.486 -2.9467 -0.1133 -0.3575
  329MOL0     O43297   0.393   6.690   2.272 -0.7287 -0.0080  0.1876
  329MOL0     C43298   0.407   6.568   2.300  0.2263 -0.2023  0.4627
  329MOL0     O43299   0.308   6.488   2.343 -0.3070 -0.4189  0.0730
  329MOL0     C43300   0.182   6.534   2.324 -0.3640  0.5876 -0.2969
  329MOL0     C43301   0.128   6.628   2.412  0.0598  0.3801  0.2146
  329MOL0     C43302   0.000   6.679   2.391  0.3064  0.1013  0.1051
  329MOL0     C43303  -0.078   6.620   2.289 -0.2852 -0.3523 -0.4097
  329MOL0     O43304  -0.210   6.646   2.264  0.0257 -0.1278 -0.0596
  329MOL0     C43305  -0.290   6.733   2.352  0.5795 -0.1843  0.1659
  329MOL0     C43306  -0.270   6.890   2.346  0.2327  0.1673 -0.0589
  329MOL0     C43307  -0.294   6.943   2.204 -0.0042 -0.8243  1.2059
  329MOL0     C43308  -0.295   7.094   2.193  0.8748 -0.1171 -0.0862
  329MOL0     C43309  -0.355   7.145   2.062  0.6072  0.9968 -0.2030
  329MOL0     C43310  -0.369   7.293   2.051  0.0377 -0.5763 -0.2409
  329MOL0     C43311  -0.385   7.350   1.913  0.9298 -0.2017  0.4673
  329MOL0     C43312  -0.494   7.259   1.831  0.1829 -0.1308 -0.3366
  329MOL0     N43313  -0.628   7.255   1.893  0.2256  0.3312  0.4337
  329MOL0     C43314  -0.726   7.350   1.875  0.3637 -0.4122 -0.0619
  329MOL0     C43315  -0.830   7.297   1.946 -0.6500  0.9506 -0.5162
  329MOL0     C43316  -0.966   7.360   1.963  0.8134  0.2027 -0.1758
  329MOL0     C43317  -1.067   7.343   1.843 -0.1851  0.0628 -0.2512
  329MOL0     C43318  -1.182   7.443   1.843  0.0923  0.2893  0.5981
  329MOL0     C43319  -1.264   7.438   1.721 -0.5963 -0.4538 -0.1266
  329MOL0     O43320  -1.352   7.551   1.737  0.2077 -0.0464 -0.7101
  329MOL0     C43321  -1.467   7.554   1.669 -0.2074 -0.7209 -0.8601
  329MOL0     C43322  -1.503   7.470   1.563 -0.7924 -0.8262  0.2182
  329MOL0     C43323  -1.631   7.460   1.507 -0.1874 -2.2219  0.0048
  329MOL0     C43324  -1.727   7.555   1.556 -0.3005  0.1445 -0.7300
  329MOL0     C43325  -1.864   7.549   1.493 -0.5008 -0.1487 -0.8443
  329MOL0     O43326  -1.952   7.634   1.552  0.6070  0.9527  0.5691
  329MOL0     C43327  -2.075   7.632   1.494 -0.7687  0.8998 -0.9331
  329MOL0     C43328  -2.108   7.752   1.435  0.1731 -1.0748 -0.1756
  329MOL0     C43329  -2.239   7.773   1.386  0.1789 -0.1512 -0.0608
  329MOL0     C43330  -2.331   7.672   1.386 -0.1090  0.5016  0.4872
  329MOL0     O43331  -2.439   7.698   1.315 -0.2034  0.5670 -0.0884
  329MOL0     C43332  -2.536   7.592   1.288  0.2618  0.0711 -0.4453
  329MOL0     C43333  -2.633   7.654   1.199  0.4796  0.0144  0.2767
  329MOL0     C43334  -2.744   7.556   1.163  0.7620  0.5667  0.0715
  329MOL0     C43335  -2.856   7.597   1.068 -0.6470 -0.6237  0.7720
  329MOL0     C43336  -2.969   7.488   1.040  0.0304  0.6706 -0.5038
  329MOL0     C43337  -2.925   7.372   0.952 -0.4860  0.7340  0.4938
  329MOL0     C43338  -3.042   7.286   0.912  0.6086  0.4858  0.2714
  329MOL0     C43339  -2.996   7.179   0.813  0.6376 -0.5620  0.3981
  329MOL0    Cl43340  -3.142   7.067   0.794 -0.2165 -0.3721  0.0602
  329MOL0     C43341  -2.296   7.547   1.450  0.1102 -0.6026  0.5217
  329MOL0     C43342  -2.166   7.535   1.509  0.3184 -0.2539  0.4468
  329MOL0     O43343  -1.885   7.460   1.413 -0.0801 -0.3665 -0.9792
  329MOL0     C43344  -1.688   7.653   1.648  0.0154  0.4629  0.3966
  329MOL0     C43345  -1.564   7.645   1.706 -0.0759 -0.4390 -0.1086
  329MOL0     N43346  -0.790   7.174   1.987  0.4664 -0.8179 -0.3170
  329MOL0     N43347  -0.676   7.147   1.949 -0.1909  0.2180  0.7861
  329MOL0     C43348  -0.022   6.523   2.207 -0.1194 -0.2566 -0.1334
  329MOL0     C43349   0.108   6.480   2.218 -0.2753 -0.1734 -0.2349
  329MOL0     C43350   0.544   6.503   2.294  0.1162 -0.3208  0.8039
  329MOL0     C43351   0.654   6.575   2.243 -0.4365 -0.1090 -0.6229
  329MOL0     C43352   0.775   6.508   2.223 -1.0404  0.2305  0.3647
  329MOL0     C43353   0.796   6.377   2.278 -0.7181  0.2213 -0.2939
  329MOL0     O43354   0.929   6.328   2.257 -0.2284 -0.1578 -0.0488
  329MOL0     C43355   0.973   6.204   2.308  1.1438  0.2845 -0.5663
  329MOL0     C43356   1.111   6.183   2.240 -0.1742 -0.0918  0.0797
  329MOL0     C43357   1.087   6.087   2.123  0.6209 -0.6743  0.5277
  329MOL0     C43358   1.131   5.946   2.156 -0.2228  0.2885 -0.2388
  329MOL0     C43359   1.045   5.882   2.252  0.2442 -0.2945 -0.1265
  329MOL0     C43360   0.985   5.818   2.341 -0.4074 -0.8927 -0.3973
  329MOL0     C43361   0.691   6.307   2.340  0.8069  0.4049 -0.6296
  329MOL0     C43362   0.569   6.374   2.341  0.1515  0.7726  0.1051
  329MOL0     H43363   0.180   6.650   2.505 -2.3783  3.2854  1.0642
  329MOL0     H43364  -0.042   6.747   2.465 -2.1009  0.2484 -1.3193
  329MOL0     H43365  -0.283   6.686   2.451 -2.0027  0.9432  0.9590
  329MOL0     H43366  -0.395   6.710   2.332 -0.0208 -0.0940  2.8019
  329MOL0     H43367  -0.172   6.918   2.384  0.5141 -0.9527  0.0891
  329MOL0     H43368  -0.345   6.938   2.409 -0.5798  0.1186 -0.9543
  329MOL0     H43369  -0.389   6.904   2.167 -1.2548  0.5272  2.8419
  329MOL0     H43370  -0.212   6.909   2.141  0.5842  0.4795  1.2386
  329MOL0     H43371  -0.348   7.139   2.278 -0.1739 -1.5679  0.0733
  329MOL0     H43372  -0.195   7.137   2.194  0.8017  0.5852 -4.5843
  329MOL0     H43373  -0.453   7.096   2.054  0.5790  0.9897  0.1655
  329MOL0     H43374  -0.288   7.105   1.986  1.1708 -0.3819  0.9784
  329MOL0     H43375  -0.268   7.322   2.081  0.0667 -1.8195  0.9375
  329MOL0     H43376  -0.452   7.314   2.119  0.3168 -1.8013  0.5114
  329MOL0     H43377  -0.416   7.454   1.923  2.9660  0.7445 -2.1259
  329MOL0     H43378  -0.292   7.340   1.856  0.5701 -0.4919 -0.0777
  329MOL0     H43379  -0.458   7.160   1.803  2.2040  0.4392  0.0786
  329MOL0     H43380  -0.500   7.322   1.742  0.3001  0.8623  0.3384
  329MOL0     H43381  -0.728   7.442   1.816 -0.7229 -0.7814 -0.6229
  329MOL0     H43382  -0.942   7.467   1.960 -3.5166  1.4211  1.0284
  329MOL0     H43383  -1.012   7.322   2.055  2.1930 -0.3756  0.2850
  329MOL0     H43384  -1.119   7.248   1.854 -0.4504  0.3748  1.5793
  329MOL0     H43385  -0.999   7.362   1.760  2.2105  0.1072  1.6009
  329MOL0     H43386  -1.249   7.422   1.927 -0.0760  1.5536  0.7930
  329MOL0     H43387  -1.135   7.540   1.856  0.8573 -0.2159  1.7983
  329MOL0     H43388  -1.318   7.343   1.728  0.8564 -1.1509  3.3156
  329MOL0     H43389  -1.198   7.444   1.633  0.3889  0.3214  0.6490
  329MOL0     H43390  -1.431   7.396   1.529  2.5310  3.0504 -2.0808
  329MOL0     H43391  -1.659   7.378   1.442 -2.3645 -1.9951  0.5736
  329MOL0     H43392  -2.029   7.826   1.439  1.2748 -2.2670  0.8195
  329MOL0     H43393  -2.273   7.871   1.355 -0.9558 -0.7174 -0.6954
  329MOL0     H43394  -2.578   7.550   1.380  1.1506 -3.4300 -1.4720
  329MOL0     H43395  -2.480   7.510   1.243 -1.6128 -1.3367 -0.3320
  329MOL0     H43396  -2.585   7.678   1.104  0.1930 -3.4872 -0.8954
  329MOL0     H43397  -2.676   7.745   1.244  1.1213  0.8120 -0.7044
  329MOL0     H43398  -2.797   7.531   1.255 -0.2957 -2.6523 -1.2522
  329MOL0     H43399  -2.707   7.463   1.120 -2.5622  0.1265 -2.2173
  329MOL0     H43400  -2.904   7.684   1.115  2.3173  1.6403 -0.1052
  329MOL0     H43401  -2.815   7.636   0.975  1.2349 -0.5082  1.6063
  329MOL0     H43402  -3.055   7.535   0.992  0.0430 -0.3002 -1.5204
  329MOL0     H43403  -3.002   7.443   1.134  2.7087 -0.6696 -0.0783
  329MOL0     H43404  -2.849   7.309   0.999  0.7179  0.7176 -1.3910
  329MOL0     H43405  -2.861   7.414   0.875  2.9563 -1.7560  1.7418
  329MOL0     H43406  -3.087   7.233   0.997  1.0788 -3.4060 -1.6859
  329MOL0     H43407  -3.112   7.349   0.856  3.2827  0.6020 -3.2781
  329MOL0     H43408  -2.925   7.118   0.869 -1.0828 -0.3546  3.0003
  329MOL0     H43409  -2.945   7.215   0.724  1.2168 -0.9361  0.5763
  329MOL0     H43410  -2.369   7.467   1.450 -0.6381  0.0502 -0.4297
  329MOL0     H43411  -2.140   7.437   1.549  0.7488 -0.4822 -0.3743
  329MOL0     H43412  -1.767   7.716   1.688 -1.6112 -1.1070 -0.1861
  329MOL0     H43413  -1.554   7.722   1.781 -1.8553  1.1114 -1.3572
  329MOL0     H43414  -0.080   6.477   2.128 -1.9326 -2.8796  2.5093
  329MOL0     H43415   0.151   6.405   2.152 -3.9094 -3.2223  0.4663
  329MOL0     H43416   0.644   6.676   2.203  0.6729 -0.6032 -2.2772
  329MOL0     H43417   0.854   6.564   2.173 -2.0795  2.6202  1.2257
  329MOL0     H43418   0.907   6.119   2.294  1.0019  0.3459 -0.2770
  329MOL0     H43419   0.977   6.222   2.416  1.5268  1.2214 -0.7222
  329MOL0     H43420   1.149   6.281   2.212  1.8431 -0.6763  0.6014
  329MOL0     H43421   1.183   6.143   2.311 -0.1698 -0.6829 -0.2524
  329MOL0     H43422   1.134   6.122   2.031 -0.2257 -0.6171  0.1061
  329MOL0     H43423   0.980   6.078   2.100  0.0634 -1.1554  3.0394
  329MOL0     H43424   1.119   5.880   2.070 -4.3400  0.8032 -0.2317
  329MOL0     H43425   1.234   5.956   2.192 -0.0146  0.2758 -0.8326
  329MOL0     H43426   0.935   5.760   2.416 -1.5613  0.6812  0.1124
  329MOL0     H43427   0.703   6.204   2.372 -0.0170  0.6569  0.5392
  329MOL0     H43428   0.490   6.311   2.379 -0.2389  1.1029 -0.1476
  330MOL0     O43429   3.856   3.857   0.741  0.2069 -0.0407 -0.6201
  330MOL0     C43430   3.950   3.779   0.723  0.3069 -0.2672  0.2017
  330MOL0     O43431   3.938   3.643   0.684 -0.6807  0.3355  0.2277
  330MOL0     C43432   3.813   3.595   0.651  0.1791 -0.5460  0.6129
  330MOL0     C43433   3.697   3.618   0.729  0.7024  0.9021 -1.3660
  330MOL0     C43434   3.573   3.585   0.678 -0.5605 -0.5696  1.3359
  330MOL0     C43435   3.558   3.541   0.549  0.2963 -0.7237 -0.0539
  330MOL0     O43436   3.438   3.503   0.507 -0.1592 -0.3165  0.2330
  330MOL0     C43437   3.396   3.447   0.380  0.4200 -0.1751 -0.6483
  330MOL0     C43438   3.287   3.544   0.324 -0.2304  0.2788  0.2615
  330MOL0     C43439   3.148   3.546   0.407 -0.7841 -0.6080  0.2060
  330MOL0     C43440   3.031   3.583   0.321  0.2007  0.8591 -0.9243
  330MOL0     C43441   2.899   3.555   0.408  0.3557 -0.7351  0.5134
  330MOL0     C43442   2.777   3.566   0.306  0.2001 -0.6279  0.6766
  330MOL0     C43443   2.739   3.713   0.265  0.3508  0.3351  0.5871
  330MOL0     C43444   2.619   3.769   0.358  0.2914 -0.3245 -0.3494
  330MOL0     N43445   2.500   3.688   0.350  0.3856  0.0457 -1.0870
  330MOL0     C43446   2.454   3.635   0.468  0.9929  0.2500  0.4952
  330MOL0     C43447   2.331   3.588   0.424 -0.3444 -0.2401 -0.9429
  330MOL0     C43448   2.243   3.516   0.520  0.2579  0.0374  0.4403
  330MOL0     C43449   2.092   3.535   0.483  0.1851 -0.0805  0.3076
  330MOL0     C43450   1.999   3.457   0.580 -0.4693  0.2173  0.8527
  330MOL0     C43451   1.847   3.470   0.553  0.0832 -0.0148 -0.4483
  330MOL0     O43452   1.797   3.427   0.680  0.3856  0.4937 -0.4687
  330MOL0     C43453   1.663   3.393   0.676 -0.3426  0.1722 -1.0331
  330MOL0     C43454   1.570   3.441   0.585  0.2115  0.0353  0.0835
  330MOL0     C43455   1.434   3.409   0.592  0.8369 -0.3556  1.0079
  330MOL0     C43456   1.383   3.329   0.687 -1.1360  0.2308  0.0326
  330MOL0     C43457   1.241   3.297   0.697  0.5043  0.5560  1.1474
  330MOL0     O43458   1.152   3.373   0.631  0.5009 -0.1199  0.5925
  330MOL0     C43459   1.021   3.350   0.630  0.2148 -0.5114  0.8081
  330MOL0     C43460   0.954   3.431   0.532  0.2866 -0.2353 -0.7788
  330MOL0     C43461   0.817   3.444   0.530  0.1454 -0.1489  0.1678
  330MOL0     C43462   0.734   3.373   0.627  0.9244 -0.1581  0.6460
  330MOL0     O43463   0.598   3.395   0.624  0.4419 -0.3216  0.9582
  330MOL0     C43464   0.540   3.441   0.745  0.2646 -1.1130 -0.3031
  330MOL0     C43465   0.430   3.350   0.788 -0.0303 -0.1783 -0.4026
  330MOL0     C43466   0.305   3.382   0.709 -1.3769 -0.3398  0.5064
  330MOL0     C43467   0.200   3.283   0.741 -0.3760  0.0529 -0.3030
  330MOL0     C43468   0.059   3.316   0.693 -1.1478 -0.5660 -0.3367
  330MOL0     C43469  -0.041   3.217   0.742  0.5238 -0.2473  0.7102
  330MOL0     C43470  -0.188   3.266   0.745 -0.6364  0.3208 -0.3011
  330MOL0     C43471  -0.285   3.150   0.757  0.6506 -0.6808 -0.1231
  330MOL0    Cl43472  -0.447   3.240   0.778 -0.0096  0.2780 -0.2576
  330MOL0     C43473   0.793   3.285   0.716 -0.4549  0.0413  0.0125
  330MOL0     C43474   0.933   3.270   0.711  0.5468 -0.4555 -0.7331
  330MOL0     O43475   1.219   3.194   0.761  0.0378 -0.2369  0.4265
  330MOL0     C43476   1.481   3.268   0.776 -0.7610 -0.4972 -0.2785
  330MOL0     C43477   1.619   3.303   0.784  0.4943 -0.1514 -0.2501
  330MOL0     N43478   2.308   3.615   0.292  0.7542  0.1717  0.9007
  330MOL0     N43479   2.413   3.673   0.246 -0.0788 -0.5315 -0.3549
  330MOL0     C43480   3.669   3.513   0.473  0.0633  0.2378  0.9599
  330MOL0     C43481   3.797   3.539   0.525  1.0253 -0.2924 -0.4267
  330MOL0     C43482   4.088   3.822   0.768  0.0748 -0.0664 -0.3208
  330MOL0     C43483   4.108   3.958   0.812 -0.7758  0.9433  0.3602
  330MOL0     C43484   4.240   3.991   0.863  0.6960  0.4858 -0.3697
  330MOL0     C43485   4.341   3.895   0.878 -0.2141 -0.3584  0.6000
  330MOL0     O43486   4.463   3.923   0.937 -0.0341 -0.0917  0.3023
  330MOL0     C43487   4.497   4.064   0.955 -0.8089 -0.5992 -0.7204
  330MOL0     C43488   4.654   4.074   0.987  0.4551  0.1371  0.2207
  330MOL0     C43489   4.688   4.213   1.017 -0.0875 -0.1851 -0.6263
  330MOL0     C43490   4.834   4.240   1.042 -0.0524 -0.0962 -0.4864
  330MOL0     C43491   4.892   4.154   1.147 -0.5460 -0.3196 -0.3585
  330MOL0     C43492   4.939   4.085   1.230  0.5703  0.6006 -0.0067
  330MOL0     C43493   4.310   3.759   0.846 -0.7182 -1.1863  0.5837
  330MOL0     C43494   4.186   3.727   0.783 -0.8485  1.2731 -0.6308
  330MOL0     H43495   3.693   3.665   0.827 -1.9885  0.8710 -1.3988
  330MOL0     H43496   3.475   3.592   0.724 -1.1800  0.3188 -0.0391
  330MOL0     H43497   3.348   3.349   0.389  0.4420 -0.4738 -3.0657
  330MOL0     H43498   3.479   3.434   0.310 -0.4368  0.6420 -1.8525
  330MOL0     H43499   3.255   3.507   0.226  1.0255  0.4266 -0.2243
  330MOL0     H43500   3.325   3.647   0.322 -0.8553  0.5445 -2.3915
  330MOL0     H43501   3.166   3.611   0.493  1.0677 -0.3539 -0.3251
  330MOL0     H43502   3.126   3.446   0.446  0.4133 -1.9602 -2.2892
  330MOL0     H43503   3.026   3.692   0.311 -1.9475  0.7618 -1.2458
  330MOL0     H43504   3.035   3.523   0.230 -1.6692 -0.3245 -0.2802
  330MOL0     H43505   2.892   3.629   0.488 -0.5660 -2.1070  1.7371
  330MOL0     H43506   2.892   3.450   0.438  2.5973 -1.0283  0.1989
  330MOL0     H43507   2.694   3.521   0.361  0.3201 -0.4348  1.0240
  330MOL0     H43508   2.797   3.512   0.214  0.7032  1.4043 -0.4619
  330MOL0     H43509   2.814   3.790   0.287  0.1205  0.2012  1.9704
  330MOL0     H43510   2.709   3.725   0.161 -0.4530  3.0255  1.0569
  330MOL0     H43511   2.591   3.872   0.331 -0.4138  0.1988  2.1406
  330MOL0     H43512   2.656   3.780   0.461  0.0267 -1.9939 -0.0473
  330MOL0     H43513   2.496   3.632   0.568 -0.8783  1.4883  1.3835
  330MOL0     H43514   2.262   3.556   0.620  1.4590  2.8684 -0.8069
  330MOL0     H43515   2.259   3.408   0.514 -0.3507 -0.1448  1.7530
  330MOL0     H43516   2.077   3.499   0.380  2.2407 -0.8370  0.2113
  330MOL0     H43517   2.076   3.642   0.495 -1.0146 -0.3530  1.1875
  330MOL0     H43518   2.029   3.352   0.574  2.2221  0.9985 -1.3702
  330MOL0     H43519   2.017   3.492   0.682 -0.3266  2.4406  0.1364
  330MOL0     H43520   1.820   3.400   0.473 -1.3176  1.3041 -1.1807
  330MOL0     H43521   1.825   3.576   0.537 -0.8758 -0.0471  0.4720
  330MOL0     H43522   1.587   3.511   0.505 -3.1401 -0.0404 -0.8374
  330MOL0     H43523   1.363   3.444   0.518  0.9547 -3.3536 -0.6850
  330MOL0     H43524   1.005   3.493   0.458  0.8384 -0.2861 -0.4486
  330MOL0     H43525   0.764   3.488   0.446 -0.4140  1.2473  1.2116
  330MOL0     H43526   0.493   3.538   0.726 -2.4047 -2.3806 -0.5679
  330MOL0     H43527   0.619   3.458   0.819  1.1335 -0.7995 -1.2817
  330MOL0     H43528   0.406   3.359   0.894  1.3167 -1.6156  0.0505
  330MOL0     H43529   0.456   3.247   0.766 -0.5328 -0.7281  1.4225
  330MOL0     H43530   0.322   3.373   0.601 -2.6596 -1.3977  0.3774
  330MOL0     H43531   0.249   3.477   0.709 -2.7503 -0.9897 -2.8984
  330MOL0     H43532   0.224   3.186   0.695  1.1537 -0.4115  1.3462
  330MOL0     H43533   0.200   3.264   0.849 -0.9914  1.2296 -0.0897
  330MOL0     H43534   0.062   3.311   0.583  2.3019  0.2332 -0.4112
  330MOL0     H43535   0.032   3.414   0.733  1.0099 -0.8622  2.1265
  330MOL0     H43536  -0.015   3.188   0.844  0.6375  2.0019  1.3799
  330MOL0     H43537  -0.050   3.128   0.680 -0.5089 -0.0477  0.5478
  330MOL0     H43538  -0.198   3.313   0.844 -2.1347 -1.5307  0.4811
  330MOL0     H43539  -0.219   3.319   0.654  0.6292 -0.0545 -0.9708
  330MOL0     H43540  -0.272   3.089   0.847  0.6427 -1.9238 -0.9421
  330MOL0     H43541  -0.287   3.086   0.669 -0.6953  0.3212 -0.8599
  330MOL0     H43542   0.731   3.230   0.786  1.3041  1.5561  2.9504
  330MOL0     H43543   0.987   3.204   0.778 -1.5520 -0.6875  0.8190
  330MOL0     H43544   1.445   3.194   0.847 -1.5902  0.6998  0.5906
  330MOL0     H43545   1.684   3.258   0.858 -4.0951 -1.6078  3.3714
  330MOL0     H43546   3.676   3.463   0.377  3.1086 -0.0504  1.2226
  330MOL0     H43547   3.881   3.501   0.467  0.8569 -0.1978 -0.7328
  330MOL0     H43548   4.026   4.028   0.813 -0.3224  1.4786  0.5358
  330MOL0     H43549   4.244   4.091   0.906 -1.3709 -0.1463  1.4815
  330MOL0     H43550   4.440   4.117   1.031 -1.3209  0.9124 -2.1148
  330MOL0     H43551   4.485   4.111   0.858  3.0576  0.3112 -0.9389
  330MOL0     H43552   4.683   4.007   1.069 -0.1207 -1.2301 -0.6488
  330MOL0     H43553   4.713   4.046   0.900  2.3282 -1.7648  1.9558
  330MOL0     H43554   4.627   4.244   1.102  1.5936  0.2146  0.4929
  330MOL0     H43555   4.657   4.279   0.934  0.8905  3.8073  1.8896
  330MOL0     H43556   4.894   4.222   0.953 -1.8519 -0.2399 -1.7092
  330MOL0     H43557   4.852   4.346   1.065  1.7173 -0.8206  1.9635
  330MOL0     H43558   4.969   4.020   1.310  0.2198  0.9907  0.4519
  330MOL0     H43559   4.393   3.689   0.852  2.1205  1.8102 -0.2999
  330MOL0     H43560   4.167   3.625   0.751 -2.7899  1.4968 -0.3564
  331MOL0     O43561   9.274   8.929   1.103 -0.4131 -0.0602 -0.4835
  331MOL0     C43562   9.300   8.846   1.194  0.5344 -0.5205 -0.2237
  331MOL0     O43563   9.209   8.749   1.229 -0.3891 -0.3791  0.6246
  331MOL0     C43564   9.108   8.710   1.152 -0.3459  0.1849 -0.5237
  331MOL0     C43565   9.012   8.797   1.091  0.0723 -0.0621  0.6598
  331MOL0     C43566   8.902   8.744   1.026  0.6174 -0.0679  0.4039
  331MOL0     C43567   8.890   8.600   1.015 -0.6209 -0.2904 -0.5157
  331MOL0     O43568   8.777   8.563   0.950 -0.0265  0.0624  0.1879
  331MOL0     C43569   8.800   8.441   0.866  0.6147 -0.1248  0.2650
  331MOL0     C43570   8.671   8.426   0.776  0.1771  0.9165  0.1838
  331MOL0     C43571   8.558   8.347   0.860 -0.6014 -0.7641  0.6710
  331MOL0     C43572   8.435   8.319   0.763 -0.2565  0.3831  1.2718
  331MOL0     C43573   8.335   8.249   0.836 -0.6916  0.6701 -0.4216
  331MOL0     C43574   8.215   8.223   0.748  0.0338  0.1065  0.0871
  331MOL0     C43575   8.109   8.168   0.838 -0.5142  0.0546  0.1836
  331MOL0     C43576   7.987   8.137   0.757  0.6826 -0.5676  0.5246
  331MOL0     N43577   7.904   8.046   0.831  0.0543 -0.3037  0.0735
  331MOL0     C43578   7.778   8.070   0.870  0.2989 -0.1822 -0.4566
  331MOL0     C43579   7.741   7.961   0.931 -0.0302 -0.0525  0.1151
  331MOL0     C43580   7.598   7.933   0.983 -0.4677 -0.3692 -0.5567
  331MOL0     C43581   7.577   7.777   1.005 -1.1544  0.0079  0.5803
  331MOL0     C43582   7.452   7.746   1.079  0.3963  1.6217 -0.1814
  331MOL0     C43583   7.322   7.821   1.040 -0.8104  0.1066 -0.3238
  331MOL0     O43584   7.204   7.766   1.115 -0.3308 -0.6597  0.3385
  331MOL0     C43585   7.207   7.762   1.250  0.2021 -0.3250 -0.2183
  331MOL0     C43586   7.255   7.871   1.328 -0.1929 -0.1361 -0.2418
  331MOL0     C43587   7.254   7.868   1.468 -0.0856 -0.1450  0.6133
  331MOL0     C43588   7.200   7.760   1.533 -0.1594  0.0748  0.4662
  331MOL0     C43589   7.203   7.755   1.685  0.1619  0.1611  0.5881
  331MOL0     O43590   7.295   7.838   1.747  0.1723 -0.6552  0.2516
  331MOL0     C43591   7.313   7.830   1.885 -0.1390 -0.1054  0.3329
  331MOL0     C43592   7.447   7.828   1.940  1.1551  0.4952  0.2158
  331MOL0     C43593   7.469   7.810   2.071 -0.4252  0.9599 -0.4331
  331MOL0     C43594   7.361   7.796   2.154 -0.2855 -0.7549  1.0081
  331MOL0     O43595   7.393   7.754   2.276 -0.1379  0.0543 -0.2286
  331MOL0     C43596   7.292   7.700   2.351 -0.2899 -0.2752  0.8076
  331MOL0     C43597   7.341   7.609   2.469 -0.0524  0.9547 -0.4688
  331MOL0     C43598   7.475   7.638   2.546 -0.5435 -0.0771  0.7604
  331MOL0     C43599   7.591   7.562   2.491 -0.9120  0.5487  1.0042
  331MOL0     C43600   7.718   7.623   2.549 -0.9935  0.1848 -0.2344
  331MOL0     C43601   7.766   7.754   2.489 -0.5438 -0.9695 -0.1926
  331MOL0     C43602   7.822   7.729   2.353 -0.0399 -0.7226 -0.1673
  331MOL0     C43603   7.919   7.844   2.318  0.2954 -0.4992  0.3168
  331MOL0    Cl43604   7.821   8.001   2.328  0.3011  0.3671 -0.1495
  331MOL0     C43605   7.229   7.820   2.111 -0.2769 -0.0441 -0.4866
  331MOL0     C43606   7.205   7.840   1.978  0.2193  0.1247  0.9349
  331MOL0     O43607   7.127   7.675   1.746  0.0773  0.3661 -0.0153
  331MOL0     C43608   7.163   7.649   1.458  0.0660  0.1338  0.1320
  331MOL0     C43609   7.161   7.652   1.319  0.1801  0.3588 -1.2767
  331MOL0     N43610   7.843   7.871   0.927 -0.1103 -1.0225  0.2441
  331MOL0     N43611   7.937   7.920   0.860 -0.3066  0.0846 -0.0946
  331MOL0     C43612   8.990   8.522   1.070  0.3602  0.0842  0.7824
  331MOL0     C43613   9.092   8.572   1.143  1.0306 -0.3136  0.7077
  331MOL0     C43614   9.435   8.845   1.248  0.2225 -0.3398 -0.4201
  331MOL0     C43615   9.517   8.952   1.225 -0.2523  0.8890  0.1670
  331MOL0     C43616   9.651   8.942   1.260  0.4276 -0.3539  0.1345
  331MOL0     C43617   9.706   8.819   1.309  0.4913 -0.7046  0.8742
  331MOL0     O43618   9.835   8.821   1.338 -0.4595  0.0260  0.9545
  331MOL0     C43619   9.881   8.711   1.414 -0.1256  0.2919 -0.0415
  331MOL0     C43620  10.031   8.728   1.435 -0.2721 -0.2667  0.6754
  331MOL0     C43621  10.053   8.860   1.493 -0.2363 -1.0218 -0.0217
  331MOL0     C43622  10.189   8.893   1.547  0.4629 -0.5949  0.5412
  331MOL0     C43623  10.228   8.828   1.670  0.7144  0.5045  0.5919
  331MOL0     C43624  10.253   8.776   1.778  0.6417  0.6897 -0.1419
  331MOL0     C43625   9.615   8.711   1.328 -0.3442  0.0752 -0.1630
  331MOL0     C43626   9.482   8.723   1.302  0.5156  0.0396  0.1981
  331MOL0     H43627   9.020   8.906   1.090  3.7384 -0.1962  1.5848
  331MOL0     H43628   8.824   8.810   0.990  3.0477  3.0890  0.4612
  331MOL0     H43629   8.823   8.353   0.927  1.1438  0.4677  0.9431
  331MOL0     H43630   8.889   8.461   0.805  0.6352 -2.6508 -0.6560
  331MOL0     H43631   8.687   8.371   0.683 -0.1861  2.6739 -0.9453
  331MOL0     H43632   8.626   8.517   0.735 -1.6528 -0.9451 -2.2359
  331MOL0     H43633   8.534   8.410   0.947 -0.2625  2.4509 -1.3678
  331MOL0     H43634   8.606   8.253   0.887 -0.7363 -0.8006  0.7847
  331MOL0     H43635   8.398   8.412   0.718 -1.8237 -0.7390  0.1604
  331MOL0     H43636   8.474   8.255   0.684  0.6563 -0.1927  2.1641
  331MOL0     H43637   8.307   8.313   0.919 -0.5801  0.6736 -0.3868
  331MOL0     H43638   8.368   8.155   0.881  1.0565  0.1722 -2.5382
  331MOL0     H43639   8.239   8.167   0.657  1.5810 -0.3041  0.7049
  331MOL0     H43640   8.183   8.324   0.722  2.9372  1.4533  1.2796
  331MOL0     H43641   8.145   8.083   0.896  0.0437  1.1382  1.4735
  331MOL0     H43642   8.073   8.231   0.920  1.3540 -1.8910  2.6550
  331MOL0     H43643   8.008   8.090   0.661 -0.9306  2.0786 -1.2707
  331MOL0     H43644   7.943   8.235   0.734  0.1999 -1.1703 -1.2315
  331MOL0     H43645   7.719   8.161   0.866  2.3714  1.2884  0.7495
  331MOL0     H43646   7.524   7.985   0.921  1.3509 -0.3271 -2.7995
  331MOL0     H43647   7.592   7.978   1.083 -2.3619 -0.9835 -0.3551
  331MOL0     H43648   7.661   7.729   1.055 -0.7671  1.5864  1.5194
  331MOL0     H43649   7.582   7.722   0.911  0.8589 -0.0443  0.6713
  331MOL0     H43650   7.436   7.638   1.077 -1.3536  1.8524 -0.3312
  331MOL0     H43651   7.475   7.766   1.184  1.6088 -1.5458  0.2445
  331MOL0     H43652   7.307   7.803   0.933  2.4425 -2.0745 -0.5843
  331MOL0     H43653   7.335   7.927   1.063 -2.3563  0.0882  0.7759
  331MOL0     H43654   7.297   7.961   1.285  0.0685 -1.0461 -1.9618
  331MOL0     H43655   7.282   7.956   1.525 -0.7023 -0.2714  1.1331
  331MOL0     H43656   7.532   7.845   1.875 -0.4078  1.3170 -1.7450
  331MOL0     H43657   7.569   7.810   2.112 -0.3969  0.9701 -0.5019
  331MOL0     H43658   7.231   7.636   2.287  0.0214 -1.2225  1.4310
  331MOL0     H43659   7.230   7.780   2.392 -0.8951  0.1123 -0.8155
  331MOL0     H43660   7.339   7.501   2.451  0.5804  0.5019  1.8429
  331MOL0     H43661   7.260   7.627   2.541 -0.2830 -1.6271  0.0061
  331MOL0     H43662   7.461   7.597   2.646  1.8255 -2.4662  0.2199
  331MOL0     H43663   7.498   7.745   2.548  0.7349 -0.2556 -1.1596
  331MOL0     H43664   7.580   7.455   2.512 -1.7833  0.4464  0.0960
  331MOL0     H43665   7.593   7.561   2.382  1.1879 -2.0268  0.9707
  331MOL0     H43666   7.791   7.544   2.563  0.3520  1.6900  2.0008
  331MOL0     H43667   7.694   7.658   2.650 -1.1557 -0.0307 -0.1966
  331MOL0     H43668   7.837   7.811   2.551  0.2421 -0.0547 -1.8772
  331MOL0     H43669   7.688   7.829   2.478  0.2410 -0.3843 -2.2597
  331MOL0     H43670   7.892   7.645   2.355  2.9288  1.5358 -1.4273
  331MOL0     H43671   7.746   7.709   2.277  0.4814  0.3046 -0.9763
  331MOL0     H43672   7.960   7.832   2.217  2.2854 -1.8538  1.2166
  331MOL0     H43673   8.006   7.840   2.384  0.9344 -3.4409 -0.5248
  331MOL0     H43674   7.142   7.803   2.175  1.3518  1.5286  2.3291
  331MOL0     H43675   7.102   7.854   1.949  0.7557 -0.6715 -1.5930
  331MOL0     H43676   7.139   7.554   1.505  0.5046 -1.4688 -2.7158
  331MOL0     H43677   7.119   7.570   1.261 -1.4889  2.2634 -2.8893
  331MOL0     H43678   8.984   8.416   1.049 -1.9328  0.1832  0.7046
  331MOL0     H43679   9.169   8.517   1.197  0.6801  0.5794  2.1990
  331MOL0     H43680   9.483   9.049   1.189  0.6071  0.6528 -1.3354
  331MOL0     H43681   9.711   9.026   1.225  0.4014 -1.8580 -4.2085
  331MOL0     H43682   9.867   8.617   1.360 -4.2459  1.4424 -1.3368
  331MOL0     H43683   9.828   8.700   1.509  0.6089  0.1444  0.3597
  331MOL0     H43684  10.060   8.647   1.503  0.6420 -0.0871  0.5121
  331MOL0     H43685  10.083   8.714   1.339 -0.3416 -3.5295  1.0001
  331MOL0     H43686   9.978   8.877   1.570  0.4474 -0.3705  0.5152
  331MOL0     H43687  10.029   8.935   1.417  0.4477  0.9279  1.6031
  331MOL0     H43688  10.264   8.886   1.467 -2.5186  1.5346 -2.7376
  331MOL0     H43689  10.185   8.999   1.576  2.2015 -1.2482  3.5560
  331MOL0     H43690  10.290   8.716   1.859 -2.5688 -0.3698  0.6967
  331MOL0     H43691   9.653   8.613   1.357  3.2564  0.7667 -1.9978
  331MOL0     H43692   9.415   8.639   1.311  0.5889  0.0412  0.7553
  332MOL0     O43693  11.068   1.153   5.653  0.7448  0.1637 -0.0884
  332MOL0     C43694  11.046   1.267   5.700  0.8564  1.9758 -0.1200
  332MOL0     O43695  10.927   1.329   5.699  0.7339 -0.0910  0.4886
  332MOL0     C43696  10.801   1.263   5.715 -0.1073  0.8384 -0.0025
  332MOL0     C43697  10.683   1.315   5.665 -0.0047  0.7961  0.2233
  332MOL0     C43698  10.557   1.250   5.684 -0.2191 -0.2814  0.6556
  332MOL0     C43699  10.544   1.137   5.765 -0.4524  0.2178  0.6334
  332MOL0     O43700  10.422   1.072   5.800  0.0369 -0.0374  0.5270
  332MOL0     C43701  10.301   1.152   5.827 -0.0947  0.0771  0.5037
  332MOL0     C43702  10.187   1.066   5.856  0.3051 -0.0340  0.0447
  332MOL0     C43703  10.054   1.118   5.825  0.1409 -0.2437  0.6233
  332MOL0     C43704   9.944   1.016   5.854 -0.8253  1.4126  0.3380
  332MOL0     C43705   9.822   1.038   5.771 -0.1018 -0.0366 -0.0477
  332MOL0     C43706   9.717   0.928   5.799  0.1109  0.2485 -0.3310
  332MOL0     C43707   9.588   0.970   5.743  0.0571 -0.0511  0.5678
  332MOL0     C43708   9.474   0.867   5.788 -0.7392 -0.1746  0.7356
  332MOL0     N43709   9.337   0.896   5.752  0.3336 -0.0959  0.0675
  332MOL0     C43710   9.233   0.894   5.837  0.2159  0.5224  0.4828
  332MOL0     C43711   9.124   0.946   5.772 -1.1392 -0.3248 -0.6048
  332MOL0     C43712   8.996   0.976   5.841 -0.2397  0.1124  0.5080
  332MOL0     C43713   8.898   0.867   5.820  0.0414  0.8471 -0.3514
  332MOL0     C43714   8.758   0.902   5.851  0.1862  0.2359 -0.6681
  332MOL0     C43715   8.691   1.009   5.762 -0.1580  0.6559 -0.6051
  332MOL0     O43716   8.551   0.975   5.770  0.0160 -0.2107 -0.4191
  332MOL0     C43717   8.459   1.075   5.739  0.1439 -0.7674  0.8192
  332MOL0     C43718   8.484   1.209   5.694 -0.5750 -0.3971 -0.4980
  332MOL0     C43719   8.381   1.296   5.651  0.7902 -0.3924  0.3381
  332MOL0     C43720   8.245   1.250   5.661  0.2007 -0.0043 -0.1700
  332MOL0     C43721   8.132   1.340   5.632 -0.4501 -0.6541 -0.1562
  332MOL0     O43722   8.154   1.480   5.642 -0.0875  0.5403  0.3479
  332MOL0     C43723   8.044   1.563   5.612 -1.0619 -0.1462  0.5716
  332MOL0     C43724   7.927   1.580   5.691 -0.2963 -0.0182 -0.8341
  332MOL0     C43725   7.822   1.653   5.644  0.9164 -0.4288 -0.8996
  332MOL0     C43726   7.829   1.727   5.528 -0.9674 -0.2766 -0.0385
  332MOL0     O43727   7.728   1.821   5.497  0.6164  0.1020  0.2479
  332MOL0     C43728   7.756   1.957   5.522 -0.5046  0.0167 -1.1884
  332MOL0     C43729   7.648   2.057   5.465  0.2104  0.3107  0.2274
  332MOL0     C43730   7.672   2.114   5.321  0.0892  0.1620  0.7714
  332MOL0     C43731   7.806   2.198   5.301  0.2321  0.5800 -0.5330
  332MOL0     C43732   7.808   2.250   5.153  0.0072 -0.0326 -0.0119
  332MOL0     C43733   7.906   2.369   5.125  0.7015 -0.7059 -0.2070
  332MOL0     C43734   7.881   2.488   5.222  0.2812  0.3842  0.0649
  332MOL0     C43735   7.944   2.614   5.153  0.1548 -0.2263  0.5349
  332MOL0    Cl43736   7.813   2.733   5.144  0.5239 -0.3979 -0.2256
  332MOL0     C43737   7.949   1.725   5.457 -0.0362 -0.0143 -0.1218
  332MOL0     C43738   8.053   1.637   5.495 -0.0651  0.1191  0.0371
  332MOL0     O43739   8.027   1.286   5.619 -0.0091  0.1123 -0.3269
  332MOL0     C43740   8.227   1.116   5.705 -0.0420  0.3265  0.2223
  332MOL0     C43741   8.325   1.036   5.747 -0.3858  0.1388  0.7088
  332MOL0     N43742   9.174   0.985   5.647  0.1573 -0.1926  0.7067
  332MOL0     N43743   9.299   0.946   5.636  0.3067 -0.3771  0.5580
  332MOL0     C43744  10.657   1.088   5.822 -0.5723  1.1560  0.4461
  332MOL0     C43745  10.784   1.143   5.794  0.2506 -0.1495 -0.7030
  332MOL0     C43746  11.170   1.345   5.716 -0.4323 -0.4179  0.2771
  332MOL0     C43747  11.161   1.470   5.775 -0.2078 -0.1469  0.0086
  332MOL0     C43748  11.266   1.552   5.778 -0.0587 -0.8985 -0.2529
  332MOL0     C43749  11.399   1.512   5.744  0.2210 -0.0232 -0.0737
  332MOL0     O43750  11.501   1.608   5.752  0.0964 -0.4133  0.5246
  332MOL0     C43751  11.635   1.595   5.731 -0.3178  0.2261 -0.0063
  332MOL0     C43752  11.706   1.712   5.796  0.3452 -1.0461  1.2423
  332MOL0     C43753  11.685   1.851   5.724  0.1089  0.6641  0.1614
  332MOL0     C43754  11.767   1.965   5.800 -0.4196 -0.3737 -0.0177
  332MOL0     C43755  11.701   2.022   5.921 -0.4710  0.6226  0.2901
  332MOL0     C43756  11.649   2.080   6.017 -0.0732 -0.0932 -0.7455
  332MOL0     C43757  11.404   1.388   5.680 -0.6179  0.2029 -0.6896
  332MOL0     C43758  11.299   1.304   5.670  0.8063  0.3158  0.7323
  332MOL0     H43759  10.682   1.404   5.602  0.5082  0.4284 -0.3118
  332MOL0     H43760  10.478   1.302   5.631 -0.5441 -1.2849  0.1198
  332MOL0     H43761  10.279   1.220   5.744 -1.7896 -0.8541  0.1374
  332MOL0     H43762  10.316   1.215   5.915 -0.4990  0.4993  0.2745
  332MOL0     H43763  10.195   1.044   5.962  3.4261 -1.2678 -0.3440
  332MOL0     H43764  10.196   0.970   5.803 -0.2615 -0.9125  1.4614
  332MOL0     H43765  10.052   1.139   5.717  1.1353  1.3656  0.8950
  332MOL0     H43766  10.042   1.212   5.879 -1.4849  0.3489 -0.6586
  332MOL0     H43767   9.974   0.916   5.821  0.4880  2.4606 -1.9148
  332MOL0     H43768   9.918   1.024   5.960  2.7695  1.7040  1.3559
  332MOL0     H43769   9.846   1.041   5.664  0.4676  1.7258  0.0993
  332MOL0     H43770   9.791   1.137   5.804  2.9332  1.7519 -2.0600
  332MOL0     H43771   9.705   0.900   5.904 -1.7150  1.8921 -0.0479
  332MOL0     H43772   9.753   0.836   5.751 -0.0948 -1.1060  1.9389
  332MOL0     H43773   9.553   1.063   5.789  0.1076 -0.5683  1.6831
  332MOL0     H43774   9.600   0.977   5.634  1.1547  0.9536  0.7368
  332MOL0     H43775   9.487   0.852   5.895  1.0483 -1.7483  0.3525
  332MOL0     H43776   9.509   0.767   5.761  1.4379  1.2754 -2.5855
  332MOL0     H43777   9.228   0.876   5.944  0.2808  2.5124  0.8624
  332MOL0     H43778   8.966   1.074   5.802  2.5127  0.5748 -0.7292
  332MOL0     H43779   9.018   0.984   5.948  0.3872  2.3826  0.2603
  332MOL0     H43780   8.931   0.791   5.891  3.0469  1.8359 -0.5489
  332MOL0     H43781   8.901   0.827   5.718  1.8739 -0.3421  0.1161
  332MOL0     H43782   8.702   0.808   5.849 -0.3633  0.5028  0.9320
  332MOL0     H43783   8.759   0.940   5.953  1.4725 -2.2676  0.3390
  332MOL0     H43784   8.730   1.008   5.660 -1.7721  2.5086 -1.3305
  332MOL0     H43785   8.710   1.104   5.813 -1.2883  0.4098  0.3064
  332MOL0     H43786   8.589   1.234   5.681 -0.0832 -2.3686 -0.5232
  332MOL0     H43787   8.405   1.396   5.616 -0.3506 -0.9769 -2.3755
  332MOL0     H43788   7.918   1.538   5.790 -0.6780  5.0845  1.6386
  332MOL0     H43789   7.747   1.676   5.719  0.9549 -0.7488 -0.7622
  332MOL0     H43790   7.856   1.982   5.485  0.0813  0.4056  0.5718
  332MOL0     H43791   7.762   1.968   5.630 -0.4580 -1.7473 -0.9835
  332MOL0     H43792   7.639   2.139   5.536  0.5790 -0.0351  0.6748
  332MOL0     H43793   7.548   2.014   5.471  0.3357 -0.4529 -2.0013
  332MOL0     H43794   7.586   2.168   5.282 -0.7871 -1.6379  0.1270
  332MOL0     H43795   7.681   2.020   5.266  1.1636  0.2147  0.8238
  332MOL0     H43796   7.815   2.278   5.375 -1.0812  0.0502  0.2203
  332MOL0     H43797   7.892   2.131   5.310 -0.9579 -1.1434 -1.4667
  332MOL0     H43798   7.707   2.291   5.142 -0.7794 -1.7447  0.5142
  332MOL0     H43799   7.829   2.165   5.088  0.8454 -0.4207  0.7390
  332MOL0     H43800   7.888   2.398   5.021 -1.2088  1.3730  0.6234
  332MOL0     H43801   8.011   2.341   5.132  1.0705  0.4738 -0.8534
  332MOL0     H43802   7.773   2.503   5.236  0.2538  2.8774 -2.0587
  332MOL0     H43803   7.928   2.479   5.320 -1.0612  0.0762  0.7120
  332MOL0     H43804   7.977   2.590   5.051  0.6721 -1.8956  1.0696
  332MOL0     H43805   8.025   2.652   5.214 -0.5406 -1.2514  2.1664
  332MOL0     H43806   7.971   1.783   5.368  1.3171 -0.8169 -0.3476
  332MOL0     H43807   8.143   1.623   5.436  1.0085 -2.1936  2.0178
  332MOL0     H43808   8.123   1.088   5.719 -0.3585  0.4810 -1.5959
  332MOL0     H43809   8.290   0.936   5.770 -2.2480 -0.4641 -3.7562
  332MOL0     H43810  10.642   1.011   5.897 -0.7016  1.8915  1.1923
  332MOL0     H43811  10.866   1.093   5.845 -1.4496 -0.3572  2.0815
  332MOL0     H43812  11.074   1.514   5.821  1.0109  3.1133 -0.5539
  332MOL0     H43813  11.264   1.654   5.816  4.0519 -1.5204  2.3635
  332MOL0     H43814  11.662   1.583   5.626 -1.6313 -1.5410 -0.1789
  332MOL0     H43815  11.673   1.507   5.784 -1.2341  0.3524  0.8833
  332MOL0     H43816  11.694   1.718   5.904 -0.0139  1.7859  1.1302
  332MOL0     H43817  11.812   1.684   5.801  0.8322  0.6929  1.5167
  332MOL0     H43818  11.577   1.868   5.724  0.2471  1.6689  1.1178
  332MOL0     H43819  11.723   1.845   5.622  0.5580 -2.9843  0.4374
  332MOL0     H43820  11.861   1.921   5.834 -0.9098 -1.7272 -0.3177
  332MOL0     H43821  11.784   2.043   5.726 -2.2889  1.2299  1.1520
  332MOL0     H43822  11.593   2.126   6.096  1.0772  1.1539 -0.6346
  332MOL0     H43823  11.497   1.347   5.643  0.3192 -1.3215  2.9225
  332MOL0     H43824  11.316   1.211   5.617  0.1846  1.0881 -0.8874
  333MOL0     O43825   3.345   2.382   8.983 -0.2405  0.0947  0.1749
  333MOL0     C43826   3.424   2.469   9.016 -0.4384  0.9865 -0.4526
  333MOL0     O43827   3.389   2.583   9.082 -0.6517 -0.4800  0.4008
  333MOL0     C43828   3.265   2.615   9.121  0.2222  0.4967  0.1327
  333MOL0     C43829   3.166   2.528   9.180  0.0556 -0.1438 -0.2397
  333MOL0     C43830   3.035   2.575   9.207  0.3017  0.0278 -0.5155
  333MOL0     C43831   3.006   2.710   9.188  0.7693 -0.7537 -0.6559
  333MOL0     O43832   2.883   2.761   9.221 -0.6218 -0.7071 -1.0274
  333MOL0     C43833   2.774   2.679   9.173 -0.5689 -0.0831 -0.4461
  333MOL0     C43834   2.653   2.758   9.126  0.6448 -0.6339 -0.5405
  333MOL0     C43835   2.515   2.686   9.150 -0.2258 -0.1380  0.2643
  333MOL0     C43836   2.514   2.538   9.090  0.1833  0.6623 -0.3249
  333MOL0     C43837   2.379   2.477   9.055 -0.5067 -0.3905 -0.4860
  333MOL0     C43838   2.317   2.424   9.190  0.0610  0.2976 -0.2809
  333MOL0     C43839   2.164   2.380   9.169  0.8119 -0.2682 -0.1217
  333MOL0     C43840   2.077   2.506   9.185  0.1183 -0.6778  0.3452
  333MOL0     N43841   2.035   2.567   9.060 -0.4047  0.5976  0.8557
  333MOL0     C43842   1.959   2.508   8.954 -0.1071  0.5857  0.1263
  333MOL0     C43843   1.968   2.588   8.850 -0.2154 -0.0599  0.5659
  333MOL0     C43844   1.895   2.562   8.719 -0.7855 -0.4101  1.3153
  333MOL0     C43845   1.796   2.671   8.701  0.6540  0.1297 -0.9965
  333MOL0     C43846   1.727   2.653   8.566 -0.2062  0.0327 -0.1062
  333MOL0     C43847   1.605   2.742   8.557 -0.4592 -0.0642 -0.2760
  333MOL0     O43848   1.527   2.745   8.674  0.4166  0.2412 -0.1137
  333MOL0     C43849   1.399   2.783   8.660  0.4139  0.8482 -0.7566
  333MOL0     C43850   1.357   2.870   8.563 -0.5171  0.1322 -0.3550
  333MOL0     C43851   1.219   2.884   8.543 -0.4091  1.2228 -0.4680
  333MOL0     C43852   1.121   2.803   8.605 -0.3334 -1.0906  0.2839
  333MOL0     C43853   0.980   2.813   8.570  1.1362  0.2075 -0.0740
  333MOL0     O43854   0.896   2.729   8.646 -0.4692  0.5940 -0.3136
  333MOL0     C43855   0.766   2.724   8.600  0.4740 -0.2649 -0.3989
  333MOL0     C43856   0.711   2.622   8.526  0.3542 -0.3207  0.4354
  333MOL0     C43857   0.576   2.620   8.480  0.8658 -0.4681  0.5723
  333MOL0     C43858   0.493   2.736   8.520  0.2549  1.1874  1.1831
  333MOL0     O43859   0.358   2.751   8.501 -0.2980 -0.5119  1.3985
  333MOL0     C43860   0.276   2.641   8.443 -0.2660  0.6050 -0.2028
  333MOL0     C43861   0.130   2.677   8.445  0.2030  0.5135 -0.7144
  333MOL0     C43862   0.093   2.800   8.363 -0.0863  0.4977 -0.1529
  333MOL0     C43863  -0.067   2.801   8.361 -0.5795 -0.2162  0.6062
  333MOL0     C43864  -0.115   2.938   8.293 -0.0241  0.2880  0.6475
  333MOL0     C43865  -0.261   2.977   8.317  0.0109 -0.0149  0.4365
  333MOL0     C43866  -0.348   2.849   8.298 -0.0669  0.3969  0.1940
  333MOL0     C43867  -0.502   2.894   8.308  0.3450 -0.0795  0.2768
  333MOL0    Cl43868  -0.616   2.764   8.294 -0.6300  0.2232  0.0669
  333MOL0     C43869   0.550   2.835   8.590  0.9557 -0.6967 -0.1924
  333MOL0     C43870   0.685   2.839   8.622 -0.2105  0.0224 -0.8257
  333MOL0     O43871   0.936   2.888   8.477 -0.5857 -0.4022 -0.1878
  333MOL0     C43872   1.168   2.726   8.711  0.9725 -0.1803  0.0882
  333MOL0     C43873   1.304   2.718   8.737 -0.6222 -0.1202 -0.7043
  333MOL0     N43874   2.052   2.691   8.881  0.0588  0.2157  1.2736
  333MOL0     N43875   2.103   2.671   9.002  0.0854  0.2708  0.0013
  333MOL0     C43876   3.104   2.799   9.147  0.3550 -0.9305  0.3561
  333MOL0     C43877   3.235   2.753   9.123 -0.6687  0.3058  0.0936
  333MOL0     C43878   3.566   2.451   8.981 -0.4981 -0.4222 -0.4060
  333MOL0     C43879   3.623   2.335   8.918  0.6117  0.4777  0.3749
  333MOL0     C43880   3.761   2.335   8.883 -0.0266  0.4268 -0.5293
  333MOL0     C43881   3.853   2.443   8.900  0.5147  0.9948  0.1097
  333MOL0     O43882   3.996   2.446   8.885  0.2428  0.4695  0.0836
  333MOL0     C43883   4.061   2.342   8.804 -0.1304 -0.7849 -0.3523
  333MOL0     C43884   4.028   2.338   8.652 -0.4842  0.5043  0.3721
  333MOL0     C43885   4.004   2.476   8.589  0.0627  0.0168 -0.0475
  333MOL0     C43886   4.108   2.574   8.625  0.1319 -0.2817  0.0783
  333MOL0     C43887   4.060   2.708   8.573  0.5510  0.1665 -0.2705
  333MOL0     C43888   4.003   2.806   8.532 -0.1272  0.0387  0.1157
  333MOL0     C43889   3.793   2.547   8.961 -0.3854 -0.2539 -0.4064
  333MOL0     C43890   3.663   2.552   9.004 -0.3148 -0.1459  0.3575
  333MOL0     H43891   3.204   2.429   9.203  1.1812 -0.2460 -2.3106
  333MOL0     H43892   2.974   2.501   9.259  2.6255 -0.3453  1.8666
  333MOL0     H43893   2.735   2.615   9.252 -3.1485  1.7225 -0.1245
  333MOL0     H43894   2.809   2.614   9.092  0.0325  0.3560 -0.5525
  333MOL0     H43895   2.672   2.774   9.019  1.7788 -1.2320 -0.4401
  333MOL0     H43896   2.643   2.855   9.177 -0.0292 -1.1580  0.3485
  333MOL0     H43897   2.433   2.734   9.095  0.0387  0.1190  0.0959
  333MOL0     H43898   2.480   2.689   9.254 -2.6219 -0.1405 -0.4730
  333MOL0     H43899   2.565   2.546   8.994 -1.2061 -0.6885 -1.2300
  333MOL0     H43900   2.566   2.459   9.145  2.1577  1.0473 -1.5430
  333MOL0     H43901   2.389   2.400   8.978 -0.9297 -0.6106 -0.3221
  333MOL0     H43902   2.318   2.561   9.022 -0.3041 -0.0892 -0.0979
  333MOL0     H43903   2.319   2.494   9.274 -2.6150  0.5544 -0.3559
  333MOL0     H43904   2.382   2.342   9.221  2.1225  0.7367 -2.9921
  333MOL0     H43905   2.151   2.321   9.078  0.6262  1.1210 -1.0286
  333MOL0     H43906   2.134   2.313   9.250  0.6147 -0.0662 -0.0259
  333MOL0     H43907   2.127   2.591   9.232 -0.0077 -0.3729 -0.0624
  333MOL0     H43908   1.985   2.475   9.235  0.0660 -1.5167 -0.2356
  333MOL0     H43909   1.905   2.414   8.956  2.4579 -1.0252 -0.9840
  333MOL0     H43910   1.855   2.461   8.703 -0.4443 -0.3896  0.2886
  333MOL0     H43911   1.963   2.574   8.635 -0.2230  0.6544  1.8926
  333MOL0     H43912   1.847   2.768   8.705  0.3144  0.2779  1.4236
  333MOL0     H43913   1.726   2.659   8.784 -2.0430  0.8552 -3.0492
  333MOL0     H43914   1.798   2.679   8.487  0.4620 -1.1332  0.0834
  333MOL0     H43915   1.698   2.549   8.553  0.5024 -0.1263 -0.4504
  333MOL0     H43916   1.553   2.712   8.465  0.4831 -0.1465 -0.7969
  333MOL0     H43917   1.639   2.846   8.548 -1.9789  0.6338  1.4919
  333MOL0     H43918   1.428   2.924   8.501  0.8923 -2.9767 -1.6407
  333MOL0     H43919   1.196   2.944   8.456  2.6843  0.2144 -2.1067
  333MOL0     H43920   0.770   2.532   8.510  0.5593 -0.7581  3.1002
  333MOL0     H43921   0.534   2.534   8.429  3.2361  0.3802 -3.1244
  333MOL0     H43922   0.299   2.560   8.513 -2.2976 -0.0661 -0.2430
  333MOL0     H43923   0.293   2.636   8.336 -3.5141  0.1544 -0.8200
  333MOL0     H43924   0.086   2.681   8.545 -0.8384  0.3867 -1.1658
  333MOL0     H43925   0.075   2.598   8.394 -2.2844  1.0621  0.9286
  333MOL0     H43926   0.137   2.795   8.263  0.2913 -2.0720  0.0697
  333MOL0     H43927   0.138   2.891   8.403  1.1514  0.2071 -0.8242
  333MOL0     H43928  -0.103   2.715   8.304 -0.5475  1.8646 -2.8297
  333MOL0     H43929  -0.094   2.800   8.467  2.1017 -0.8441  1.3631
  333MOL0     H43930  -0.103   2.937   8.185 -1.5725 -3.4091  0.3666
  333MOL0     H43931  -0.058   3.017   8.342  1.2969 -0.8820  1.0503
  333MOL0     H43932  -0.295   3.053   8.246  0.4171 -0.0762  0.1749
  333MOL0     H43933  -0.271   3.032   8.411  2.5455  2.3257 -0.5309
  333MOL0     H43934  -0.326   2.796   8.205  1.2384 -2.3332  1.9326
  333MOL0     H43935  -0.326   2.779   8.380 -1.9488  3.0148  3.1615
  333MOL0     H43936  -0.533   2.958   8.225 -4.0918 -3.3373 -0.9548
  333MOL0     H43937  -0.516   2.939   8.407  1.2947  0.0723  0.3517
  333MOL0     H43938   0.483   2.919   8.604 -0.5496 -2.0475  1.2121
  333MOL0     H43939   0.731   2.925   8.670 -0.4133  0.2256 -0.9952
  333MOL0     H43940   1.096   2.670   8.771 -0.4874 -0.2838 -1.6984
  333MOL0     H43941   1.338   2.652   8.816 -0.2975  1.4873  0.5243
  333MOL0     H43942   3.071   2.902   9.136 -1.1419 -1.1193  2.5120
  333MOL0     H43943   3.314   2.820   9.091 -0.0255  0.9545  2.7737
  333MOL0     H43944   3.561   2.248   8.900  2.3310 -0.7487  0.1878
  333MOL0     H43945   3.810   2.244   8.851 -0.1023  0.0356  0.4452
  333MOL0     H43946   4.043   2.245   8.849 -3.5808  1.4764  3.9348
  333MOL0     H43947   4.169   2.350   8.818 -0.5603 -0.2538  4.0270
  333MOL0     H43948   4.107   2.288   8.595 -1.5058  0.2240 -0.8427
  333MOL0     H43949   3.935   2.290   8.622  0.7639 -0.8071 -1.6346
  333MOL0     H43950   3.901   2.506   8.611 -0.7300 -0.2203 -3.0399
  333MOL0     H43951   3.999   2.463   8.480 -1.4335  0.3689 -0.0464
  333MOL0     H43952   4.120   2.586   8.733 -3.5985 -0.9793  0.6921
  333MOL0     H43953   4.202   2.540   8.580 -0.6083  0.4727 -2.1967
  333MOL0     H43954   3.963   2.895   8.487 -0.1881  0.5130  1.0828
  333MOL0     H43955   3.867   2.623   8.982  2.4689 -2.7514 -0.7365
  333MOL0     H43956   3.632   2.643   9.054 -2.0360 -0.1102 -0.6873
  334MOL0     O43957   1.625   0.979   5.217 -0.3414  0.5548 -0.5614
  334MOL0     C43958   1.602   1.089   5.263  0.3766 -0.1674  0.1954
  334MOL0     O43959   1.667   1.202   5.227 -0.1716  0.0072  0.2323
  334MOL0     C43960   1.778   1.183   5.159  0.2273 -0.8852  0.7981
  334MOL0     C43961   1.900   1.133   5.213  0.6458 -0.3730  0.4201
  334MOL0     C43962   2.017   1.145   5.147 -0.6584 -0.4375  0.5750
  334MOL0     C43963   2.017   1.197   5.019  0.1059  0.0392 -0.2576
  334MOL0     O43964   2.117   1.192   4.932 -0.1628 -0.1385  0.3216
  334MOL0     C43965   2.249   1.213   4.972  0.0941  0.6051  0.5327
  334MOL0     C43966   2.329   1.261   4.848  0.4903  1.0507 -0.2942
  334MOL0     C43967   2.424   1.380   4.868 -0.0939  0.1654  0.3030
  334MOL0     C43968   2.530   1.347   4.965  0.3900 -0.7267 -0.8029
  334MOL0     C43969   2.638   1.459   4.951 -0.2956  0.5107  0.0515
  334MOL0     C43970   2.770   1.417   5.021  0.3278  0.1871  0.2151
  334MOL0     C43971   2.753   1.389   5.165  0.5290  0.0211 -0.0750
  334MOL0     C43972   2.884   1.361   5.238 -0.6112 -0.7324  0.3995
  334MOL0     N43973   2.855   1.347   5.380 -0.1165 -0.4568  0.8891
  334MOL0     C43974   2.801   1.444   5.461 -0.4797  1.0339 -0.3157
  334MOL0     C43975   2.848   1.412   5.583  0.8705 -0.3396 -0.3566
  334MOL0     C43976   2.825   1.500   5.711  0.2234  0.4820 -0.6496
  334MOL0     C43977   2.705   1.471   5.800  0.0341  0.1995 -0.9559
  334MOL0     C43978   2.703   1.322   5.834 -0.2989 -0.0427 -0.0488
  334MOL0     C43979   2.583   1.289   5.926  0.4628 -0.6149  0.3675
  334MOL0     O43980   2.587   1.145   5.946 -0.6305 -0.9813  0.2741
  334MOL0     C43981   2.468   1.078   5.979  0.3442  0.3304 -0.3610
  334MOL0     C43982   2.479   0.948   5.942 -0.4420  1.0350  0.2828
  334MOL0     C43983   2.373   0.859   5.945 -0.2246  0.4580 -0.2768
  334MOL0     C43984   2.251   0.906   5.992  0.3166  0.7502  0.3828
  334MOL0     C43985   2.129   0.807   5.982 -0.9546  0.1764 -0.1094
  334MOL0     O43986   2.009   0.859   6.021 -0.0642  0.2673  0.3607
  334MOL0     C43987   1.905   0.772   6.031 -0.0541 -0.1326 -0.4756
  334MOL0     C43988   1.793   0.786   5.947  0.4184  0.6460 -0.2278
  334MOL0     C43989   1.680   0.709   5.968 -0.1883  0.3013  0.1392
  334MOL0     C43990   1.670   0.624   6.080 -0.8649  0.1270 -0.3084
  334MOL0     O43991   1.567   0.541   6.107  0.6159 -0.3028 -0.3293
  334MOL0     C43992   1.443   0.606   6.157  0.3873 -0.3753 -0.7105
  334MOL0     C43993   1.315   0.520   6.146 -0.2397  0.5414  0.0455
  334MOL0     C43994   1.202   0.622   6.130 -0.6843  0.6009 -0.3815
  334MOL0     C43995   1.071   0.554   6.164 -0.7759  0.3042  0.4091
  334MOL0     C43996   0.949   0.650   6.194  0.4459  0.3391  0.1557
  334MOL0     C43997   0.831   0.572   6.260 -1.0454 -1.1032 -0.0977
  334MOL0     C43998   0.772   0.473   6.162  0.3291 -0.0221  0.2888
  334MOL0     C43999   0.647   0.411   6.222  1.3764  1.0997  0.2463
  334MOL0    Cl44000   0.493   0.509   6.214 -0.3509 -0.5968 -0.1373
  334MOL0     C44001   1.779   0.610   6.172  0.2198 -0.0180  0.7627
  334MOL0     C44002   1.895   0.684   6.145  0.0666 -1.0152  0.4421
  334MOL0     O44003   2.140   0.697   5.926 -0.0510 -0.3054 -0.5364
  334MOL0     C44004   2.243   1.036   6.041  0.9746 -0.3738  1.0097
  334MOL0     C44005   2.352   1.127   6.034 -0.4914 -0.9799  0.3319
  334MOL0     N44006   2.911   1.289   5.578 -0.1578  0.3899 -0.0835
  334MOL0     N44007   2.912   1.252   5.453  0.0824  0.0578 -0.3044
  334MOL0     C44008   1.898   1.250   4.964  0.0531  0.2445 -0.1608
  334MOL0     C44009   1.779   1.239   5.030 -0.0955 -0.3555  0.0035
  334MOL0     C44010   1.472   1.111   5.343 -0.3924  0.5198 -0.8485
  334MOL0     C44011   1.424   1.239   5.366 -0.4420  0.6075 -0.0606
  334MOL0     C44012   1.302   1.252   5.422  0.2616 -0.0574  0.3860
  334MOL0     C44013   1.212   1.145   5.440  0.6323 -0.1719  0.2889
  334MOL0     O44014   1.078   1.159   5.469 -0.4616  0.5233  0.0440
  334MOL0     C44015   1.048   1.206   5.595  0.8855 -0.3527 -0.3314
  334MOL0     C44016   0.901   1.259   5.589 -0.3154 -0.6030 -1.0683
  334MOL0     C44017   0.867   1.319   5.729 -0.9855  0.1978 -0.4083
  334MOL0     C44018   0.735   1.398   5.737 -0.6396 -0.2019 -0.8595
  334MOL0     C44019   0.628   1.296   5.737  0.2757 -1.3924  0.1032
  334MOL0     C44020   0.534   1.218   5.733  0.5785 -0.2937  0.2660
  334MOL0     C44021   1.261   1.020   5.413 -0.7550  0.0859 -0.0703
  334MOL0     C44022   1.391   1.000   5.365 -0.8450  0.0249 -0.4435
  334MOL0     H44023   1.893   1.068   5.300 -0.6166 -1.6125 -0.5540
  334MOL0     H44024   2.109   1.106   5.190  0.9340 -0.6769 -2.7273
  334MOL0     H44025   2.292   1.124   5.018  0.3978  1.1076  1.2452
  334MOL0     H44026   2.250   1.289   5.050  1.4823  0.3521  0.7897
  334MOL0     H44027   2.261   1.287   4.766  0.5658  2.8175  0.1647
  334MOL0     H44028   2.390   1.177   4.816 -1.1339 -1.1925  2.0173
  334MOL0     H44029   2.376   1.472   4.903  1.6183  0.1695  2.8472
  334MOL0     H44030   2.459   1.396   4.766  0.2822  0.3316  0.4570
  334MOL0     H44031   2.488   1.347   5.066 -1.1874  1.9444 -1.3422
  334MOL0     H44032   2.581   1.253   4.945 -2.5404 -2.5407 -0.4277
  334MOL0     H44033   2.597   1.556   4.981 -0.9549  1.1521 -2.6332
  334MOL0     H44034   2.654   1.459   4.843 -2.0435 -0.3937 -0.2394
  334MOL0     H44035   2.840   1.501   5.018 -0.3405  0.7224 -0.3541
  334MOL0     H44036   2.814   1.332   4.968  0.6472  0.7920 -0.5106
  334MOL0     H44037   2.700   1.472   5.213  0.1293 -0.2116 -0.1146
  334MOL0     H44038   2.690   1.300   5.175 -1.3569  1.2163 -0.8814
  334MOL0     H44039   2.954   1.444   5.225  1.0857 -1.7530  2.3698
  334MOL0     H44040   2.934   1.269   5.205  0.4286 -0.3030  0.7231
  334MOL0     H44041   2.756   1.538   5.431  2.0500  2.4806  0.1711
  334MOL0     H44042   2.827   1.605   5.678 -1.2162  0.0642 -2.2134
  334MOL0     H44043   2.911   1.493   5.778 -0.8597  2.5591  1.0842
  334MOL0     H44044   2.607   1.493   5.757 -1.3700 -3.2201  0.1406
  334MOL0     H44045   2.715   1.535   5.888  2.9733  0.8984 -1.6952
  334MOL0     H44046   2.702   1.264   5.742 -3.2861 -1.0663  0.4979
  334MOL0     H44047   2.795   1.292   5.884  1.9060  2.2922 -2.3497
  334MOL0     H44048   2.489   1.326   5.882  1.4757 -1.1545 -2.4937
  334MOL0     H44049   2.596   1.330   6.026  0.5366  2.7739 -0.8865
  334MOL0     H44050   2.570   0.907   5.900 -1.9223 -2.2960  0.0564
  334MOL0     H44051   2.383   0.764   5.894  2.1180  1.5553 -2.0371
  334MOL0     H44052   1.799   0.864   5.872  0.2630  2.8109  1.8676
  334MOL0     H44053   1.597   0.721   5.899 -2.7338 -0.8023  2.7740
  334MOL0     H44054   1.417   0.701   6.110 -2.4884 -0.7061  0.0583
  334MOL0     H44055   1.447   0.623   6.265 -3.6865  3.2708 -0.8615
  334MOL0     H44056   1.302   0.459   6.236 -2.7958 -0.5254 -0.9411
  334MOL0     H44057   1.320   0.460   6.054  1.0313  0.4629  0.1464
  334MOL0     H44058   1.207   0.666   6.030 -1.2558  3.5828  0.7934
  334MOL0     H44059   1.219   0.703   6.202  0.7946 -0.2731  0.3201
  334MOL0     H44060   1.045   0.480   6.088  2.3477  0.0381 -0.5172
  334MOL0     H44061   1.082   0.484   6.247 -1.4652  0.2149  0.4343
  334MOL0     H44062   0.937   0.699   6.097 -2.4827 -3.4958 -1.7036
  334MOL0     H44063   0.978   0.728   6.265  0.9895  0.7375 -0.4896
  334MOL0     H44064   0.752   0.639   6.296  0.2073  0.8124 -0.7576
  334MOL0     H44065   0.879   0.518   6.342  0.2375 -0.6774 -0.5418
  334MOL0     H44066   0.752   0.537   6.076  2.2929 -0.6019 -0.6500
  334MOL0     H44067   0.844   0.392   6.143  0.3716  0.0592  0.1017
  334MOL0     H44068   0.667   0.396   6.329 -0.5207  3.1131  0.9647
  334MOL0     H44069   0.631   0.314   6.174  1.5845 -0.5440  3.2397
  334MOL0     H44070   1.771   0.545   6.258 -1.3806 -1.4536 -0.3942
  334MOL0     H44071   1.965   0.676   6.228 -0.0345  2.4586  1.0230
  334MOL0     H44072   2.150   1.079   6.076 -0.4417  0.6548 -3.3491
  334MOL0     H44073   2.330   1.232   6.052 -0.9896 -1.1640  0.8461
  334MOL0     H44074   1.900   1.293   4.864  2.9913  0.7339  0.0141
  334MOL0     H44075   1.685   1.280   4.993  0.9315  2.5557  0.3418
  334MOL0     H44076   1.480   1.333   5.368 -1.0815  0.9918  0.0348
  334MOL0     H44077   1.279   1.357   5.441  0.6093 -0.4354  3.2650
  334MOL0     H44078   1.120   1.283   5.625 -0.6726 -0.3793  4.1040
  334MOL0     H44079   1.071   1.140   5.678  1.4233  0.2932  0.0440
  334MOL0     H44080   0.890   1.342   5.519 -1.4699  0.4351  0.2577
  334MOL0     H44081   0.827   1.179   5.578 -0.3578 -0.5689 -1.0363
  334MOL0     H44082   0.949   1.385   5.760  1.4293 -1.2055 -3.2732
  334MOL0     H44083   0.861   1.248   5.812 -0.3101  0.6490  0.0370
  334MOL0     H44084   0.734   1.448   5.834 -1.7259 -1.3412 -0.2685
  334MOL0     H44085   0.733   1.474   5.658  1.0224  0.2541 -0.5234
  334MOL0     H44086   0.457   1.144   5.725  1.0482 -0.7248 -0.3139
  334MOL0     H44087   1.201   0.930   5.424 -1.4946  0.4383 -1.1643
  334MOL0     H44088   1.421   0.897   5.352  2.5566  0.5724  1.8468
  335MOL0     O44089   6.956   0.369   9.439  0.2937  0.0614  0.0353
  335MOL0     C44090   6.975   0.259   9.488  0.0705  0.2153  0.2906
  335MOL0     O44091   6.890   0.194   9.572  0.1114  0.1641 -0.3918
  335MOL0     C44092   6.772   0.250   9.618 -0.0467 -0.0771 -1.1912
  335MOL0     C44093   6.656   0.172   9.608  0.6539  0.5122  0.1931
  335MOL0     C44094   6.535   0.219   9.650  1.0424 -0.4211  0.1435
  335MOL0     C44095   6.526   0.346   9.717 -0.7548  0.7858  0.5723
  335MOL0     O44096   6.393   0.380   9.745 -0.4622  0.5422  0.0637
  335MOL0     C44097   6.376   0.505   9.815  0.1884 -0.6276 -0.3970
  335MOL0     C44098   6.225   0.531   9.847 -0.0168 -0.6231 -0.6463
  335MOL0     C44099   6.136   0.599   9.747 -0.1791 -0.0521 -0.4087
  335MOL0     C44100   5.983   0.606   9.769  0.6978 -0.3880  0.2849
  335MOL0     C44101   5.920   0.710   9.668  0.3768  0.1764 -0.1218
  335MOL0     C44102   5.764   0.706   9.668 -0.0536 -0.3966 -0.4352
  335MOL0     C44103   5.709   0.762   9.799 -0.6347 -0.6103 -0.1515
  335MOL0     C44104   5.565   0.795   9.802 -0.6433 -0.3753 -0.5988
  335MOL0     N44105   5.474   0.689   9.871 -0.4848 -0.2282  0.1254
  335MOL0     C44106   5.477   0.558   9.852  0.3471 -0.5026 -0.1907
  335MOL0     C44107   5.386   0.512   9.940 -0.2592 -0.2019  0.3415
  335MOL0     C44108   5.359   0.362   9.972 -0.3304  0.3106 -0.1695
  335MOL0     C44109   5.266   0.284   9.864 -0.0647 -0.9884  0.0431
  335MOL0     C44110   5.134   0.340   9.873  0.2816  0.0309  0.3646
  335MOL0     C44111   5.040   0.279   9.979 -0.0138  1.4753  0.2647
  335MOL0     O44112   4.907   0.329   9.949  0.7624  0.1556 -0.1101
  335MOL0     C44113   4.806   0.261  10.011  0.8134 -0.5469  0.4742
  335MOL0     C44114   4.728   0.169   9.936  0.3156  0.1567  0.2959
  335MOL0     C44115   4.600   0.130   9.999 -0.2232 -0.0879 -0.0419
  335MOL0     C44116   4.565   0.169  10.128  0.2484  0.7398  0.6679
  335MOL0     C44117   4.450   0.116  10.187  0.0924  0.1662 -0.2311
  335MOL0     O44118   4.338   0.119  10.111  0.1064 -0.5571 -0.4235
  335MOL0     C44119   4.233   0.042  10.148 -0.3654  0.8991  0.4096
  335MOL0     C44120   4.226  -0.098  10.120  0.6782  0.9135  0.1211
  335MOL0     C44121   4.114  -0.173  10.154 -0.7017  0.2010 -0.4404
  335MOL0     C44122   4.011  -0.117  10.231 -0.0625  1.0659  0.1400
  335MOL0     O44123   3.897  -0.194  10.256  0.0112 -0.2226  0.4828
  335MOL0     C44124   3.805  -0.157  10.360  0.1638 -0.3205 -0.0399
  335MOL0     C44125   3.737  -0.279  10.417  0.0006  1.3169  0.4873
  335MOL0     C44126   3.701  -0.397  10.327  0.4432 -0.4929 -0.0708
  335MOL0     C44127   3.599  -0.352  10.220 -0.3265 -0.3426  0.2113
  335MOL0     C44128   3.456  -0.347  10.286  0.0470 -0.3518  0.3836
  335MOL0     C44129   3.359  -0.269  10.202 -0.0983  0.2826  0.1593
  335MOL0     C44130   3.210  -0.274  10.253  0.4217 -1.0523  0.1135
  335MOL0     C44131   3.119  -0.178  10.171 -0.5445  0.4268 -0.2122
  335MOL0    Cl44132   2.949  -0.216  10.131  0.1486 -0.2206 -0.0095
  335MOL0     C44133   4.014   0.019  10.260  0.5206  0.1205 -0.5331
  335MOL0     C44134   4.127   0.099  10.217  0.2990  0.2677  0.3994
  335MOL0     O44135   4.453   0.073  10.301 -0.1248 -0.0829 -0.0366
  335MOL0     C44136   4.655   0.250  10.197  0.0512 -1.3419 -1.1508
  335MOL0     C44137   4.768   0.300  10.134 -0.2523  0.1865  0.5414
  335MOL0     N44138   5.320   0.620   9.998  0.0278  0.7718 -0.5365
  335MOL0     N44139   5.383   0.725   9.959  0.1207 -0.4937  0.2979
  335MOL0     C44140   6.648   0.419   9.730  0.2075  0.3578 -0.0202
  335MOL0     C44141   6.766   0.370   9.687  0.5255 -0.3154  0.5379
  335MOL0     C44142   7.092   0.187   9.427  0.5627  0.0004  0.4429
  335MOL0     C44143   7.165   0.241   9.318 -0.4983  0.2322  0.2508
  335MOL0     C44144   7.259   0.160   9.254 -0.1313 -0.5701  0.3428
  335MOL0     C44145   7.293   0.038   9.301  1.1768  1.3682  0.2024
  335MOL0     O44146   7.376  -0.053   9.242 -0.6994 -0.7541 -0.2315
  335MOL0     C44147   7.463  -0.006   9.142  0.2939  0.3045  0.6772
  335MOL0     C44148   7.503  -0.131   9.062 -0.1586 -0.6175 -0.4434
  335MOL0     C44149   7.585  -0.082   8.940 -0.0655  0.9740  0.0355
  335MOL0     C44150   7.613  -0.198   8.840  0.7584  0.1674 -0.6052
  335MOL0     C44151   7.641  -0.162   8.698  0.3186  0.7219  0.1958
  335MOL0     C44152   7.669  -0.117   8.595  0.2531 -1.1458  0.8278
  335MOL0     C44153   7.219  -0.020   9.403 -0.6035  1.1461 -0.1322
  335MOL0     C44154   7.117   0.057   9.466  0.0604 -0.5009  0.1423
  335MOL0     H44155   6.671   0.075   9.563  2.5685  0.8588  0.0087
  335MOL0     H44156   6.445   0.160   9.636  0.0672  0.3241  2.6693
  335MOL0     H44157   6.415   0.589   9.757  4.0695 -1.9010  0.1000
  335MOL0     H44158   6.434   0.500   9.908 -3.2321 -2.5440  1.8438
  335MOL0     H44159   6.238   0.595   9.935  0.4887  1.2704 -2.0200
  335MOL0     H44160   6.183   0.436   9.881  2.3781 -0.8107  2.2632
  335MOL0     H44161   6.143   0.533   9.660  0.2242 -0.0334 -0.3947
  335MOL0     H44162   6.168   0.702   9.726 -3.2044  1.4173  1.5200
  335MOL0     H44163   5.927   0.513   9.754 -0.2730  0.2182  0.0215
  335MOL0     H44164   5.973   0.649   9.869  0.3205 -1.0452  0.5370
  335MOL0     H44165   5.964   0.681   9.572  0.4993  0.6188 -0.2049
  335MOL0     H44166   5.956   0.810   9.695  1.9416 -0.3998  0.0515
  335MOL0     H44167   5.733   0.602   9.650  1.8062 -0.6550 -2.5003
  335MOL0     H44168   5.727   0.763   9.583 -2.4550 -0.9973  0.1340
  335MOL0     H44169   5.735   0.697   9.883  0.2424  1.8302  1.5929
  335MOL0     H44170   5.754   0.860   9.817 -1.9642 -0.1295  0.7537
  335MOL0     H44171   5.525   0.807   9.701 -2.9520 -0.6423  0.2230
  335MOL0     H44172   5.546   0.893   9.848  4.1996 -0.2712  1.7453
  335MOL0     H44173   5.536   0.509   9.775 -1.2370 -1.4861 -0.8215
  335MOL0     H44174   5.305   0.356  10.067 -3.0046 -1.0365 -1.6583
  335MOL0     H44175   5.455   0.313   9.990  1.4827  3.1651 -1.2620
  335MOL0     H44176   5.277   0.175   9.868  2.5711 -0.7746  0.5695
  335MOL0     H44177   5.295   0.319   9.764  1.0046 -0.5737  0.4762
  335MOL0     H44178   5.135   0.449   9.883  0.9099  0.7075 -4.5339
  335MOL0     H44179   5.085   0.320   9.777  2.2499 -0.0564 -0.6779
  335MOL0     H44180   5.066   0.299  10.083 -1.4972 -3.3565  1.8068
  335MOL0     H44181   5.035   0.171   9.965 -2.6375  1.9062 -3.6809
  335MOL0     H44182   4.765   0.123   9.845  0.6025  0.4237  0.2768
  335MOL0     H44183   4.540   0.069   9.932  0.8089 -0.1452 -0.9322
  335MOL0     H44184   4.307  -0.152  10.073  2.2979  4.4606 -1.5562
  335MOL0     H44185   4.096  -0.279  10.135 -1.2088  0.2869 -0.4440
  335MOL0     H44186   3.727  -0.098  10.311 -0.2368 -0.5592  0.2986
  335MOL0     H44187   3.845  -0.098  10.442 -0.6783  0.1457  0.0498
  335MOL0     H44188   3.653  -0.245  10.478  0.2399  2.1467  0.3629
  335MOL0     H44189   3.815  -0.324  10.480  0.7619  0.7393 -0.8420
  335MOL0     H44190   3.672  -0.483  10.389  0.2308 -0.6893 -0.4377
  335MOL0     H44191   3.782  -0.422  10.258  0.0936 -0.7728 -0.3863
  335MOL0     H44192   3.624  -0.257  10.172  0.2271 -0.5149  0.1482
  335MOL0     H44193   3.603  -0.428  10.141  0.9166 -0.9508  0.8255
  335MOL0     H44194   3.459  -0.311  10.390  2.3786 -2.8232  1.2936
  335MOL0     H44195   3.405  -0.444  10.296 -3.2877  1.0561 -1.2649
  335MOL0     H44196   3.369  -0.310  10.102 -0.2197  1.1017 -0.1987
  335MOL0     H44197   3.391  -0.165  10.207  5.0091 -0.9980 -0.6298
  335MOL0     H44198   3.181  -0.378  10.244  2.0119 -1.4071 -1.4803
  335MOL0     H44199   3.207  -0.237  10.356  0.0714 -0.7507  0.0001
  335MOL0     H44200   3.171  -0.175  10.074 -2.3745 -2.0193 -1.3648
  335MOL0     H44201   3.128  -0.082  10.223 -0.3047  1.2600 -1.7189
  335MOL0     H44202   3.927   0.063  10.306 -0.1849 -2.6488  1.0174
  335MOL0     H44203   4.126   0.201  10.253 -1.3228  0.6897 -0.7073
  335MOL0     H44204   4.636   0.276  10.300  3.0388 -1.3778 -0.5016
  335MOL0     H44205   4.828   0.371  10.189 -0.5312  1.9006 -1.2220
  335MOL0     H44206   6.638   0.518   9.772  0.9738  1.9586 -3.2220
  335MOL0     H44207   6.861   0.422   9.698 -0.8237  1.6331  4.5658
  335MOL0     H44208   7.128   0.326   9.263 -1.1436 -0.3056 -0.1732
  335MOL0     H44209   7.297   0.208   9.164  1.4843  1.3587  1.9588
  335MOL0     H44210   7.551   0.052   9.171 -0.7680  3.0423 -1.1750
  335MOL0     H44211   7.408   0.061   9.076  0.6292  0.0232  0.1088
  335MOL0     H44212   7.554  -0.201   9.129 -0.2913 -3.5917 -3.1827
  335MOL0     H44213   7.408  -0.170   9.023 -2.1358  1.7039  1.7026
  335MOL0     H44214   7.683  -0.046   8.974  0.4255  0.5085 -0.8578
  335MOL0     H44215   7.523  -0.009   8.888 -1.8466  1.3646  2.4892
  335MOL0     H44216   7.698  -0.253   8.880 -2.4184 -3.3819  2.0298
  335MOL0     H44217   7.528  -0.266   8.834 -0.8858  2.2381 -3.0979
  335MOL0     H44218   7.683  -0.092   8.492 -1.4083  2.3454  1.3108
  335MOL0     H44219   7.225  -0.122   9.439 -0.1980  2.5854  4.6359
  335MOL0     H44220   7.055   0.014   9.543  1.0650 -0.9015  0.7507
  336MOL0     O44221   2.575   0.402   4.669  0.0371 -0.8560  0.1194
  336MOL0     C44222   2.586   0.293   4.604 -0.2349  0.7300  0.8930
  336MOL0     O44223   2.501   0.184   4.614  0.0392  0.1519 -0.6143
  336MOL0     C44224   2.397   0.180   4.703  0.8459 -0.3241 -0.4286
  336MOL0     C44225   2.417   0.223   4.835 -0.1255 -0.0251 -0.5567
  336MOL0     C44226   2.328   0.204   4.929  0.1151 -0.6627  0.0532
  336MOL0     C44227   2.203   0.146   4.892  0.3988 -0.4868 -0.3625
  336MOL0     O44228   2.095   0.126   4.977  0.4738  0.2850  0.3594
  336MOL0     C44229   2.084   0.199   5.106 -0.2943  0.2677 -0.9483
  336MOL0     C44230   1.986   0.147   5.206 -0.0137  0.2162  0.2458
  336MOL0     C44231   1.847   0.144   5.160 -0.2364 -0.4036 -0.5791
  336MOL0     C44232   1.763   0.059   5.265  0.5080 -0.5127  0.3616
  336MOL0     C44233   1.618   0.086   5.222 -0.5046  0.1913  0.0544
  336MOL0     C44234   1.527   0.020   5.323  0.7469  0.0158 -0.3857
  336MOL0     C44235   1.378   0.029   5.293 -0.5922  0.5495 -0.0449
  336MOL0     C44236   1.345   0.002   5.145 -0.2079  1.0021 -0.7971
  336MOL0     N44237   1.214  -0.040   5.121 -0.0340  0.1235  0.3645
  336MOL0     C44238   1.127   0.031   5.045  0.5992 -0.4650 -0.1951
  336MOL0     C44239   1.031  -0.068   5.027 -0.5681 -0.7790 -0.2537
  336MOL0     C44240   0.906  -0.043   4.954  0.1917  0.9412 -0.1275
  336MOL0     C44241   0.788  -0.081   5.049 -0.8237  0.0312  0.0496
  336MOL0     C44242   0.655  -0.052   4.977 -0.0361  0.3062 -0.2920
  336MOL0     C44243   0.550  -0.109   5.070 -0.0625  0.3628 -0.6449
  336MOL0     O44244   0.428  -0.057   5.006  0.3809 -0.1798 -0.2467
  336MOL0     C44245   0.302  -0.086   5.056 -0.2203  0.7752 -0.6794
  336MOL0     C44246   0.274  -0.185   5.155  0.3936  0.4344  1.3773
  336MOL0     C44247   0.138  -0.215   5.193  0.6676 -0.8529 -0.6431
  336MOL0     C44248   0.036  -0.139   5.146  0.4549  0.6959  0.5760
  336MOL0     C44249  -0.096  -0.165   5.185  0.0893  0.5151 -0.3597
  336MOL0     O44250  -0.196  -0.096   5.125 -1.0428 -0.6122  0.0157
  336MOL0     C44251  -0.329  -0.112   5.153 -0.5886  0.2440  0.1381
  336MOL0     C44252  -0.392  -0.229   5.174  0.1979  0.2608 -1.2585
  336MOL0     C44253  -0.525  -0.245   5.205  0.2388  0.0259  0.2773
  336MOL0     C44254  -0.597  -0.118   5.201 -0.6686  0.2883  0.8216
  336MOL0     O44255  -0.731  -0.114   5.222  0.4529  0.1333 -0.0516
  336MOL0     C44256  -0.809  -0.238   5.231 -0.3729  0.0241 -0.2538
  336MOL0     C44257  -0.954  -0.208   5.223  1.4331 -0.2545 -0.5601
  336MOL0     C44258  -1.034  -0.297   5.318 -0.2553 -0.0794 -0.0121
  336MOL0     C44259  -1.180  -0.266   5.328 -0.0501  0.1856 -0.6514
  336MOL0     C44260  -1.247  -0.339   5.453 -0.2201 -0.0276 -0.2334
  336MOL0     C44261  -1.395  -0.311   5.465 -0.3403  0.4145  0.0980
  336MOL0     C44262  -1.477  -0.393   5.585 -0.4526 -0.5444 -0.1860
  336MOL0     C44263  -1.615  -0.330   5.583 -0.1253  0.2705 -0.7981
  336MOL0    Cl44264  -1.684  -0.354   5.741 -0.4861 -0.4434  0.0154
  336MOL0     C44265  -0.531   0.004   5.176  0.0975 -0.4609 -0.2501
  336MOL0     C44266  -0.391   0.008   5.155 -0.0105  0.8019 -0.7407
  336MOL0     O44267  -0.108  -0.256   5.270  0.1970  0.2303  0.4610
  336MOL0     C44268   0.060  -0.044   5.044  0.4826 -0.6303 -0.5705
  336MOL0     C44269   0.195  -0.016   5.011 -0.4780 -0.6669 -0.0581
  336MOL0     N44270   1.063  -0.182   5.083 -0.4369  0.4733  0.5591
  336MOL0     N44271   1.166  -0.163   5.151  0.5918 -0.6750 -0.4168
  336MOL0     C44272   2.179   0.107   4.765 -0.7439  0.9353 -0.9475
  336MOL0     C44273   2.272   0.128   4.667 -0.2780 -0.3278  0.9685
  336MOL0     C44274   2.708   0.276   4.526  0.0487  0.6107 -0.3249
  336MOL0     C44275   2.796   0.385   4.523  0.2339  0.1099 -0.1512
  336MOL0     C44276   2.913   0.379   4.459  0.3677 -0.1974  0.6607
  336MOL0     C44277   2.956   0.265   4.391  0.2676 -0.0876 -0.3603
  336MOL0     O44278   3.076   0.263   4.322 -0.1858  0.4649 -0.0762
  336MOL0     C44279   3.117   0.140   4.260 -0.0920 -0.3222  0.4185
  336MOL0     C44280   3.261   0.163   4.213  0.9120 -0.4407  0.1345
  336MOL0     C44281   3.334   0.038   4.185  0.4791  0.3302 -0.0400
  336MOL0     C44282   3.475   0.072   4.154  0.0104  0.1079  0.0593
  336MOL0     C44283   3.551  -0.047   4.108 -1.0982  0.0708 -0.3285
  336MOL0     C44284   3.610  -0.149   4.085 -0.2436  0.5483 -0.4051
  336MOL0     C44285   2.867   0.159   4.384 -0.1429  0.4494 -0.5935
  336MOL0     C44286   2.750   0.161   4.460  0.7912 -0.7633  0.7563
  336MOL0     H44287   2.512   0.267   4.864  0.2597 -0.7807 -0.6428
  336MOL0     H44288   2.345   0.235   5.032  0.8179 -1.2927  0.1395
  336MOL0     H44289   2.077   0.308   5.097  0.2749  0.5083  0.9377
  336MOL0     H44290   2.176   0.169   5.158 -1.3425  0.7656  1.3098
  336MOL0     H44291   1.994   0.205   5.298 -2.0160  1.3823 -0.2593
  336MOL0     H44292   2.019   0.044   5.222  0.1211  0.3488  0.8317
  336MOL0     H44293   1.843   0.087   5.067 -2.1938 -0.1655 -0.6815
  336MOL0     H44294   1.815   0.246   5.139  1.2763  0.3405  0.4726
  336MOL0     H44295   1.770  -0.050   5.253 -0.3729 -0.4936 -0.4115
  336MOL0     H44296   1.775   0.102   5.364 -1.0549  1.5892 -0.3001
  336MOL0     H44297   1.602   0.053   5.119  0.5537  0.1442 -0.1087
  336MOL0     H44298   1.586   0.191   5.218 -1.8743 -0.2250 -0.3633
  336MOL0     H44299   1.539   0.071   5.419  2.4401  0.0593 -0.5874
  336MOL0     H44300   1.554  -0.086   5.322  1.7304  0.1151 -4.6476
  336MOL0     H44301   1.322  -0.042   5.353 -1.4269  0.9031 -0.3887
  336MOL0     H44302   1.357   0.136   5.309  3.5290  1.6889 -0.9713
  336MOL0     H44303   1.419  -0.071   5.112 -2.4173 -0.5156 -2.7582
  336MOL0     H44304   1.368   0.097   5.095  1.4930  0.5078 -0.9943
  336MOL0     H44305   1.133   0.136   5.019  3.0552  0.2879  2.8503
  336MOL0     H44306   0.895  -0.108   4.866  2.4978  0.7284 -0.3254
  336MOL0     H44307   0.908   0.059   4.913  1.5975  0.5008 -1.2294
  336MOL0     H44308   0.792  -0.022   5.140 -4.6267  0.6940 -0.0415
  336MOL0     H44309   0.797  -0.187   5.075 -0.0823 -0.3186 -1.5139
  336MOL0     H44310   0.624   0.052   4.959 -0.7796  0.3638  1.1579
  336MOL0     H44311   0.641  -0.107   4.884 -0.9075 -0.8139  0.4711
  336MOL0     H44312   0.554  -0.059   5.168 -1.6073 -1.2301  0.2937
  336MOL0     H44313   0.547  -0.218   5.070  0.5066  0.3234 -2.3123
  336MOL0     H44314   0.350  -0.236   5.214  0.2024 -0.3679  0.9546
  336MOL0     H44315   0.128  -0.288   5.273  1.6048  1.0126  1.2667
  336MOL0     H44316  -0.338  -0.322   5.187  0.8558  0.9067  1.0081
  336MOL0     H44317  -0.563  -0.345   5.227  1.7247 -0.8683 -0.9983
  336MOL0     H44318  -0.780  -0.288   5.323  1.1149 -0.5287 -0.9919
  336MOL0     H44319  -0.779  -0.304   5.149  0.7992 -2.5923  2.1504
  336MOL0     H44320  -0.985  -0.208   5.118 -0.0109  0.7133 -0.1715
  336MOL0     H44321  -0.966  -0.106   5.259 -0.1844 -0.3356 -0.7615
  336MOL0     H44322  -0.996  -0.291   5.420 -2.8342 -1.2407  1.0861
  336MOL0     H44323  -1.028  -0.402   5.290 -0.4059  0.1443 -0.9236
  336MOL0     H44324  -1.192  -0.157   5.333 -0.1063  0.1553 -0.0302
  336MOL0     H44325  -1.234  -0.296   5.238 -2.1077 -2.1776  1.2146
  336MOL0     H44326  -1.205  -0.321   5.552  1.4056  1.8706 -1.2079
  336MOL0     H44327  -1.228  -0.443   5.426 -1.3297 -0.8515  1.9410
  336MOL0     H44328  -1.435  -0.338   5.366  1.8288  0.5711 -0.8625
  336MOL0     H44329  -1.417  -0.205   5.480 -1.7973 -0.1231  2.4205
  336MOL0     H44330  -1.474  -0.500   5.561  0.1277 -0.7905  0.9008
  336MOL0     H44331  -1.417  -0.375   5.675 -0.4251  0.7189 -0.4475
  336MOL0     H44332  -1.677  -0.382   5.510  0.9339 -0.6776 -1.0599
  336MOL0     H44333  -1.619  -0.223   5.561 -0.1543  0.5332  0.4481
  336MOL0     H44334  -0.605   0.084   5.171 -0.5607 -1.0496  0.0021
  336MOL0     H44335  -0.321   0.090   5.154  0.0263  0.7743 -0.5437
  336MOL0     H44336  -0.015   0.018   4.997  1.8072  2.0555  0.6204
  336MOL0     H44337   0.229   0.065   4.948 -0.8238 -1.4885 -1.3546
  336MOL0     H44338   2.080   0.064   4.750 -1.7388  2.8285 -0.1183
  336MOL0     H44339   2.247   0.099   4.566 -2.3057 -0.1722  1.3916
  336MOL0     H44340   2.767   0.480   4.568 -2.7235  0.1413 -1.8166
  336MOL0     H44341   2.970   0.471   4.466  0.7531 -0.5469  2.8314
  336MOL0     H44342   3.065   0.093   4.176  0.8285  0.2300 -0.4882
  336MOL0     H44343   3.124   0.078   4.350  0.6996 -2.1104 -0.8209
  336MOL0     H44344   3.255   0.232   4.128  0.3333 -1.2367 -0.4887
  336MOL0     H44345   3.318   0.197   4.300  0.4228 -0.3562  0.4282
  336MOL0     H44346   3.282  -0.012   4.103  0.2550  2.8702 -1.5787
  336MOL0     H44347   3.333  -0.029   4.271 -0.5140 -0.1422 -0.4038
  336MOL0     H44348   3.481   0.157   4.084 -3.0554  2.1498  2.0170
  336MOL0     H44349   3.518   0.101   4.250  2.8740 -0.5883 -0.9200
  336MOL0     H44350   3.672  -0.232   4.056 -1.3724 -0.7410  0.6656
  336MOL0     H44351   2.882   0.068   4.327 -2.5637 -0.5854  0.2872
  336MOL0     H44352   2.677   0.080   4.460 -0.0883 -0.0027  1.9591
  337MOL0     O44353   8.396   3.495   9.086  0.0726  0.5599  0.1320
  337MOL0     C44354   8.498   3.534   9.040  1.0022  0.0292  0.1208
  337MOL0     O44355   8.520   3.545   8.906  0.2259 -0.2681 -0.4396
  337MOL0     C44356   8.428   3.488   8.819 -0.0622 -0.3366  0.8676
  337MOL0     C44357   8.328   3.567   8.753  0.6788 -0.5135 -0.1080
  337MOL0     C44358   8.228   3.510   8.675  0.1899 -1.2268 -0.2635
  337MOL0     C44359   8.223   3.370   8.653 -0.5388  0.4946  0.2648
  337MOL0     O44360   8.122   3.312   8.579 -0.3387  0.6566 -0.0975
  337MOL0     C44361   8.152   3.187   8.506  1.1002  0.0859  0.7585
  337MOL0     C44362   8.110   3.203   8.356 -0.8729  0.2883  0.1920
  337MOL0     C44363   7.974   3.265   8.335  0.7735 -0.8187  1.2305
  337MOL0     C44364   7.875   3.172   8.401  0.7121 -0.5339 -0.6498
  337MOL0     C44365   7.729   3.212   8.388 -0.7953  0.8544  0.9514
  337MOL0     C44366   7.705   3.363   8.371 -1.0107  0.5535 -0.1572
  337MOL0     C44367   7.556   3.382   8.326  0.4480 -0.5537 -0.8811
  337MOL0     C44368   7.456   3.367   8.444 -1.1628  0.1673 -0.0096
  337MOL0     N44369   7.324   3.421   8.413  0.8271 -0.1577 -0.0925
  337MOL0     C44370   7.253   3.386   8.306  0.0138 -0.5583 -0.1730
  337MOL0     C44371   7.142   3.459   8.303 -0.1634  1.0981  0.0372
  337MOL0     C44372   7.043   3.484   8.197  0.2431  0.9344 -0.0641
  337MOL0     C44373   7.099   3.531   8.062 -0.2723  0.6965  0.5435
  337MOL0     C44374   7.032   3.452   7.950  0.0568  0.2564  0.1018
  337MOL0     C44375   6.884   3.474   7.946  0.0411 -0.3427  0.8357
  337MOL0     O44376   6.818   3.390   7.842  0.1032  0.0810 -0.8784
  337MOL0     C44377   6.681   3.376   7.848 -0.7492  0.5922 -0.0157
  337MOL0     C44378   6.637   3.257   7.802 -0.1799  1.0645  0.1343
  337MOL0     C44379   6.495   3.224   7.791 -0.9236 -0.2789  0.2509
  337MOL0     C44380   6.400   3.305   7.842 -0.1795 -0.5001 -0.4865
  337MOL0     C44381   6.263   3.265   7.841  0.7451 -0.1461  0.6195
  337MOL0     O44382   6.222   3.147   7.789 -0.2847  0.8132 -0.2686
  337MOL0     C44383   6.092   3.123   7.795  0.8888 -0.0812  0.0187
  337MOL0     C44384   6.037   3.062   7.913 -1.2102 -0.5471 -0.2667
  337MOL0     C44385   5.908   3.022   7.912 -0.3082 -0.5721 -0.8321
  337MOL0     C44386   5.826   3.044   7.801  0.6489 -1.0269  0.1601
  337MOL0     O44387   5.687   3.017   7.804 -0.8167  0.0563 -0.0765
  337MOL0     C44388   5.632   2.950   7.916  0.6040  0.3876  0.1388
  337MOL0     C44389   5.477   2.926   7.894 -0.4365  0.2344  0.2552
  337MOL0     C44390   5.408   3.063   7.860 -0.1634 -0.1126  0.3464
  337MOL0     C44391   5.258   3.052   7.887  0.0931  0.0807  0.1093
  337MOL0     C44392   5.183   3.169   7.845  0.2234  0.1905  0.7335
  337MOL0     C44393   5.032   3.179   7.839  0.2381  0.5890  0.0095
  337MOL0     C44394   4.983   3.157   7.984  0.4166 -0.3351  0.9431
  337MOL0     C44395   4.830   3.203   8.006 -0.6762 -0.0819  0.1031
  337MOL0    Cl44396   4.778   3.158   8.168 -0.2872  0.0222  0.1976
  337MOL0     C44397   5.877   3.102   7.683  0.2669 -0.7159 -0.3805
  337MOL0     C44398   6.011   3.140   7.680 -0.1537 -0.7129 -0.0399
  337MOL0     O44399   6.191   3.347   7.892  0.6316 -0.3568 -0.6573
  337MOL0     C44400   6.451   3.429   7.893  0.4155 -0.6851 -0.5380
  337MOL0     C44401   6.583   3.455   7.909  0.0225  0.0157  0.1192
  337MOL0     N44402   7.143   3.525   8.420 -1.3745 -0.2267 -0.4288
  337MOL0     N44403   7.250   3.510   8.488  0.0595  0.2539 -0.0657
  337MOL0     C44404   8.317   3.294   8.727 -0.0816 -0.6617 -0.0290
  337MOL0     C44405   8.417   3.346   8.807  0.2944  0.9481  0.3735
  337MOL0     C44406   8.619   3.557   9.131 -0.2132  0.7563 -0.4283
  337MOL0     C44407   8.604   3.560   9.270  0.2367 -0.2066 -0.7001
  337MOL0     C44408   8.714   3.579   9.359 -0.0999 -0.4835 -0.3957
  337MOL0     C44409   8.836   3.602   9.304  0.1595  0.2734  0.8792
  337MOL0     O44410   8.926   3.618   9.407 -0.3389 -0.0193  0.3884
  337MOL0     C44411   9.029   3.719   9.389 -0.1929 -0.9506 -0.4303
  337MOL0     C44412   8.981   3.859   9.429  0.8807  0.4856  0.4136
  337MOL0     C44413   9.091   3.961   9.411 -0.3906  0.1020 -0.5928
  337MOL0     C44414   9.111   4.015   9.273 -0.0902  0.3964  0.1313
  337MOL0     C44415   9.150   4.151   9.271 -0.1434 -0.1533 -0.6410
  337MOL0     C44416   9.168   4.271   9.259 -0.2456  0.3976  0.0288
  337MOL0     C44417   8.856   3.586   9.165  0.0503  0.0105 -0.1862
  337MOL0     C44418   8.748   3.566   9.081 -0.2791  0.7318 -0.1704
  337MOL0     H44419   8.317   3.675   8.759 -1.9790 -0.5165 -2.4315
  337MOL0     H44420   8.150   3.564   8.622 -0.0641 -2.5642 -1.3054
  337MOL0     H44421   8.099   3.104   8.553  4.6334 -1.7887  1.8136
  337MOL0     H44422   8.255   3.152   8.517  0.6251 -0.6276  3.6217
  337MOL0     H44423   8.113   3.105   8.308  1.2643  0.5811 -0.4226
  337MOL0     H44424   8.181   3.267   8.301  1.5474 -2.0069  0.4211
  337MOL0     H44425   7.959   3.278   8.227  0.1534  1.1725  1.5137
  337MOL0     H44426   7.973   3.364   8.381  0.7813 -0.6898  0.9595
  337MOL0     H44427   7.884   3.069   8.365 -0.6186 -1.9416  2.5580
  337MOL0     H44428   7.896   3.169   8.509  3.3745 -2.1392 -1.1169
  337MOL0     H44429   7.676   3.172   8.476 -2.0715 -0.3916 -0.3243
  337MOL0     H44430   7.695   3.160   8.298  1.6139  0.9127 -0.0521
  337MOL0     H44431   7.772   3.404   8.295  0.6055 -1.6584 -0.0219
  337MOL0     H44432   7.719   3.428   8.457  0.8479 -0.8070  0.6438
  337MOL0     H44433   7.551   3.488   8.300 -2.0055 -0.8601 -1.9242
  337MOL0     H44434   7.514   3.320   8.247 -2.3579 -1.2590  0.9973
  337MOL0     H44435   7.496   3.411   8.535  0.6801 -3.1517  0.9755
  337MOL0     H44436   7.443   3.260   8.467  0.8036 -0.3612 -1.0712
  337MOL0     H44437   7.299   3.319   8.235 -0.3896  2.4229 -3.5643
  337MOL0     H44438   6.984   3.569   8.232  0.2463  0.5246  0.9707
  337MOL0     H44439   6.983   3.394   8.184  1.1684  0.7345 -4.5812
  337MOL0     H44440   7.208   3.518   8.061 -0.4805 -2.8743 -3.0792
  337MOL0     H44441   7.071   3.637   8.059 -1.6545  0.3560 -2.7830
  337MOL0     H44442   7.078   3.492   7.860  1.7879 -0.5283  0.5964
  337MOL0     H44443   7.058   3.346   7.961  2.0976  0.3407 -2.7798
  337MOL0     H44444   6.860   3.580   7.935 -0.7178 -0.5510  0.4245
  337MOL0     H44445   6.848   3.442   8.045 -0.7881 -2.1075  0.0149
  337MOL0     H44446   6.705   3.186   7.757 -2.7086 -0.9851 -0.6698
  337MOL0     H44447   6.457   3.131   7.750 -1.2182 -0.2789  0.5170
  337MOL0     H44448   6.109   3.061   7.995 -0.5780  2.2987 -0.6589
  337MOL0     H44449   5.863   2.966   7.994 -0.7675 -4.1839 -3.3172
  337MOL0     H44450   5.637   3.011   8.006 -3.0088  1.3272 -0.1158
  337MOL0     H44451   5.678   2.854   7.937  1.2800  0.8354  0.7513
  337MOL0     H44452   5.424   2.893   7.984 -2.3424 -0.7456 -1.1630
  337MOL0     H44453   5.470   2.849   7.817 -0.5254 -0.9556  1.4360
  337MOL0     H44454   5.425   3.080   7.753 -0.0923 -2.1775 -0.0032
  337MOL0     H44455   5.450   3.149   7.914 -1.3296  0.2653  0.6976
  337MOL0     H44456   5.219   2.967   7.829  1.8704 -1.5278  1.1289
  337MOL0     H44457   5.234   3.029   7.992 -0.2148 -0.4051 -0.0655
  337MOL0     H44458   5.214   3.190   7.742 -0.4375  0.6112  0.6146
  337MOL0     H44459   5.223   3.248   7.909  0.8133 -1.3587  2.3834
  337MOL0     H44460   4.991   3.095   7.783  0.6407 -0.1348  0.7697
  337MOL0     H44461   4.992   3.268   7.790 -0.8147 -0.6638 -1.5269
  337MOL0     H44462   5.009   3.058   8.023  1.3235  0.1940  1.7384
  337MOL0     H44463   5.047   3.228   8.037  2.5810 -1.1169 -0.4930
  337MOL0     H44464   4.771   3.156   7.928  0.4730  1.2120 -1.6224
  337MOL0     H44465   4.820   3.310   7.991  1.7214 -0.1996 -3.5250
  337MOL0     H44466   5.812   3.108   7.596  0.8135 -0.8318 -0.7997
  337MOL0     H44467   6.048   3.169   7.582 -1.0891 -2.4681 -0.9474
  337MOL0     H44468   6.387   3.502   7.941 -2.0372 -3.6711  1.0473
  337MOL0     H44469   6.602   3.551   7.957 -1.4044 -0.2120  1.1931
  337MOL0     H44470   8.323   3.186   8.717 -2.6592 -1.0432  1.6008
  337MOL0     H44471   8.484   3.280   8.862  0.6144  1.6521  0.8565
  337MOL0     H44472   8.516   3.566   9.333  2.6640 -0.0877  2.9834
  337MOL0     H44473   8.691   3.587   9.465 -1.3280  3.5405 -0.7856
  337MOL0     H44474   9.069   3.721   9.287  2.5955 -1.7896  0.5579
  337MOL0     H44475   9.118   3.698   9.450  0.5282 -0.6729 -1.3629
  337MOL0     H44476   8.893   3.879   9.368  1.1235 -1.5178 -0.7022
  337MOL0     H44477   8.950   3.850   9.534 -0.3897 -1.6496 -0.0713
  337MOL0     H44478   9.184   3.919   9.450 -0.8854 -0.1332  0.3560
  337MOL0     H44479   9.065   4.047   9.475  1.1633  0.3225 -0.2105
  337MOL0     H44480   9.183   3.955   9.218 -0.0253  1.3446 -0.8555
  337MOL0     H44481   9.013   4.003   9.225 -0.4660 -0.0910  0.9864
  337MOL0     H44482   9.181   4.376   9.241  0.6394  0.2189 -0.4098
  337MOL0     H44483   8.960   3.588   9.132  1.2733 -2.3830  2.9455
  337MOL0     H44484   8.768   3.534   8.979  1.6460  0.3699  0.2844
  338MOL0     O44485   4.500   6.240  10.998  0.6998 -0.9761  0.1844
  338MOL0     C44486   4.434   6.134  11.003  0.0919  0.3084  0.0136
  338MOL0     O44487   4.492   6.013  10.988  1.0517 -0.7364  0.3142
  338MOL0     C44488   4.628   6.008  10.980 -0.1537  0.3610 -0.3229
  338MOL0     C44489   4.719   6.042  11.080  0.1908 -0.6972 -0.9506
  338MOL0     C44490   4.858   6.040  11.062 -0.1474 -0.3613  0.1072
  338MOL0     C44491   4.913   5.998  10.944 -0.7869 -0.7300  0.3431
  338MOL0     O44492   5.047   6.010  10.934  0.3251 -0.2871  0.4587
  338MOL0     C44493   5.097   5.990  10.807 -0.5098  0.7816 -0.2924
  338MOL0     C44494   5.249   6.020  10.817 -0.1524 -0.4243 -0.5522
  338MOL0     C44495   5.329   5.992  10.691 -0.4698  0.4645 -0.4964
  338MOL0     C44496   5.480   5.989  10.716  0.3749  0.1596 -0.4915
  338MOL0     C44497   5.564   5.996  10.590 -0.7171  0.3324  0.3778
  338MOL0     C44498   5.710   5.989  10.618  0.1560 -0.0811 -0.0761
  338MOL0     C44499   5.791   5.939  10.495 -0.3607 -0.2544 -0.0957
  338MOL0     C44500   5.929   5.891  10.548  0.0944 -0.1756  0.5241
  338MOL0     N44501   6.023   5.894  10.436 -0.4334 -0.1384 -0.2583
  338MOL0     C44502   6.097   6.004  10.390  0.2778 -0.6214 -0.3904
  338MOL0     C44503   6.179   5.950  10.300 -0.3986 -0.4691  0.2919
  338MOL0     C44504   6.274   6.028  10.217 -0.9870 -0.6865  0.0333
  338MOL0     C44505   6.275   6.020  10.064 -0.0732  0.1730 -0.1302
  338MOL0     C44506   6.178   6.119   9.992  0.0463 -0.2924 -0.1978
  338MOL0     C44507   6.039   6.137  10.043  0.3440  0.3114 -0.1182
  338MOL0     O44508   5.963   6.016  10.072  0.3358 -0.4042 -0.0582
  338MOL0     C44509   5.838   6.032  10.126  0.0176 -0.3419  0.1700
  338MOL0     C44510   5.758   5.920  10.146 -0.6725 -0.4567 -0.3570
  338MOL0     C44511   5.627   5.925  10.197  0.2308  0.6961  0.2815
  338MOL0     C44512   5.571   6.053  10.232  0.1876  0.5041 -0.4662
  338MOL0     C44513   5.438   6.062  10.292 -0.7436 -0.5212 -0.6134
  338MOL0     O44514   5.357   5.952  10.279 -0.0839  0.4295 -0.4802
  338MOL0     C44515   5.231   5.951  10.323  0.5809  0.5616  0.1990
  338MOL0     C44516   5.187   5.843  10.399 -1.0448  0.2165 -0.0031
  338MOL0     C44517   5.063   5.836  10.459  0.3155  1.1185 -0.3120
  338MOL0     C44518   4.973   5.936  10.449 -0.4453 -0.2584 -0.2112
  338MOL0     O44519   4.842   5.927  10.494 -0.6746  0.2292  1.0544
  338MOL0     C44520   4.743   5.865  10.410  0.1010  0.2060  0.1513
  338MOL0     C44521   4.600   5.905  10.441  0.8559 -0.2322  0.2406
  338MOL0     C44522   4.569   6.040  10.399 -0.1472 -0.1989  0.3317
  338MOL0     C44523   4.417   6.061  10.393  0.8420  0.7459 -0.2951
  338MOL0     C44524   4.356   6.058  10.539  0.4493  0.2933 -0.1102
  338MOL0     C44525   4.201   6.069  10.545 -0.5240  0.0795 -0.0689
  338MOL0     C44526   4.161   6.103  10.687 -0.0282  0.3030 -0.1474
  338MOL0     C44527   4.009   6.107  10.712 -0.0818 -0.2817  0.1132
  338MOL0    Cl44528   3.969   5.936  10.673 -1.3066  0.1176 -0.1821
  338MOL0     C44529   5.017   6.042  10.358 -0.4957  0.2684 -0.4613
  338MOL0     C44530   5.142   6.052  10.296  1.0932  0.4829 -0.1510
  338MOL0     O44531   5.402   6.170  10.349  0.4265  1.2410 -0.0695
  338MOL0     C44532   5.651   6.164  10.206 -0.2108 -0.7297 -0.0121
  338MOL0     C44533   5.780   6.158  10.154 -0.1688  1.2218 -0.1039
  338MOL0     N44534   6.167   5.815  10.290 -0.5891 -1.0492  0.0942
  338MOL0     N44535   6.067   5.780  10.371  0.1786  0.3731  0.0342
  338MOL0     C44536   4.826   5.955  10.844  0.4492  0.0753  1.2023
  338MOL0     C44537   4.689   5.957  10.862  0.2837  0.2373 -0.3008
  338MOL0     C44538   4.296   6.148  11.037  0.8658  0.0232 -0.0981
  338MOL0     C44539   4.244   6.259  11.091 -0.3771  0.4914  0.1436
  338MOL0     C44540   4.113   6.276  11.140 -0.9599 -0.1881 -0.5477
  338MOL0     C44541   4.027   6.167  11.130  0.4405 -0.4454 -0.7159
  338MOL0     O44542   3.886   6.165  11.155 -0.2726 -0.3109  0.0647
  338MOL0     C44543   3.822   6.281  11.212  1.1571 -0.5835  0.1618
  338MOL0     C44544   3.687   6.239  11.260 -0.0123  0.1037 -0.3520
  338MOL0     C44545   3.644   6.357  11.354 -0.1822  0.4016  0.1363
  338MOL0     C44546   3.518   6.340  11.427 -0.1303  0.6621  0.2352
  338MOL0     C44547   3.409   6.314  11.329  0.0587 -0.4878 -0.2390
  338MOL0     C44548   3.313   6.282  11.266  1.1877 -0.5367  0.1650
  338MOL0     C44549   4.075   6.051  11.067 -0.3623  0.6494 -0.6764
  338MOL0     C44550   4.212   6.035  11.030  0.2589  0.1258 -1.0073
  338MOL0     H44551   4.676   6.095  11.164  0.8390 -0.4382 -0.7743
  338MOL0     H44552   4.921   6.067  11.146 -0.8879 -1.8589  1.1844
  338MOL0     H44553   5.051   6.055  10.733  0.7889  1.5058 -0.4969
  338MOL0     H44554   5.076   5.885  10.784 -2.5147  0.7957  1.1782
  338MOL0     H44555   5.294   5.960  10.897  0.7473  0.3697 -0.4469
  338MOL0     H44556   5.259   6.127  10.840 -1.3918 -1.0828  4.0036
  338MOL0     H44557   5.294   6.070  10.623  1.1003  1.9515  0.3224
  338MOL0     H44558   5.292   5.901  10.642 -0.6516 -0.0779  0.6286
  338MOL0     H44559   5.504   6.066  10.790 -0.4389 -0.1185  0.0782
  338MOL0     H44560   5.490   5.891  10.764  2.7432 -0.2363 -1.6599
  338MOL0     H44561   5.540   6.087  10.534  0.9004 -0.1825 -1.2341
  338MOL0     H44562   5.540   5.915  10.521  0.0929  0.7429 -0.4034
  338MOL0     H44563   5.727   5.910  10.692 -1.4909 -0.6214 -0.2404
  338MOL0     H44564   5.755   6.084  10.648 -0.2310  0.2207 -0.4322
  338MOL0     H44565   5.741   5.854  10.448  1.1643 -1.3342  0.1613
  338MOL0     H44566   5.800   6.017  10.418 -0.7886  0.0424  0.1540
  338MOL0     H44567   5.921   5.788  10.584  1.3259  0.1021  1.6588
  338MOL0     H44568   5.963   5.968  10.617 -0.0779  1.5232 -1.1981
  338MOL0     H44569   6.084   6.110  10.412  1.9353 -0.1158 -1.6323
  338MOL0     H44570   6.377   6.015  10.252 -0.6521  2.1706  0.3074
  338MOL0     H44571   6.265   6.136  10.234  0.6717 -0.5400  0.1167
  338MOL0     H44572   6.250   5.915  10.052  0.2943 -0.5450  3.9315
  338MOL0     H44573   6.376   6.048  10.033  1.1919 -0.6631  2.8428
  338MOL0     H44574   6.230   6.215   9.986 -0.5684  0.0147 -0.6996
  338MOL0     H44575   6.165   6.071   9.894  1.4362 -0.7451 -0.1807
  338MOL0     H44576   5.988   6.210   9.980 -0.1938  0.1787  0.1587
  338MOL0     H44577   6.056   6.183  10.141 -2.4494  0.4886  0.3671
  338MOL0     H44578   5.791   5.819  10.123 -4.2175 -1.7964 -0.2529
  338MOL0     H44579   5.567   5.836  10.210 -1.8276  1.9778 -0.0645
  338MOL0     H44580   5.255   5.760  10.419  0.4066  1.4312  0.3326
  338MOL0     H44581   5.042   5.751  10.523  1.5029  0.1051 -1.2073
  338MOL0     H44582   4.762   5.758  10.405  3.3703  0.7175 -0.5435
  338MOL0     H44583   4.761   5.912  10.313  2.6874 -0.3191  0.3096
  338MOL0     H44584   4.585   5.885  10.547  1.8398  1.6633  0.7834
  338MOL0     H44585   4.542   5.846  10.369  4.1449  1.0752 -3.8947
  338MOL0     H44586   4.619   6.060  10.304  2.4531 -1.0305  1.4359
  338MOL0     H44587   4.607   6.114  10.470  1.2025 -1.6546  1.2058
  338MOL0     H44588   4.400   6.162  10.354 -1.6194  1.0909  1.4498
  338MOL0     H44589   4.363   5.985  10.334  0.3212 -1.2265  2.5123
  338MOL0     H44590   4.395   6.141  10.600  0.4261  0.6225 -0.5372
  338MOL0     H44591   4.391   5.972  10.596  1.2430  0.3758 -0.4536
  338MOL0     H44592   4.162   5.972  10.513  0.2155  0.9031 -3.9847
  338MOL0     H44593   4.171   6.148  10.475  2.0131  2.3502  1.2264
  338MOL0     H44594   4.213   6.036  10.755 -0.8765  2.3705  2.7254
  338MOL0     H44595   4.198   6.201  10.718 -1.7345  0.5508  1.2678
  338MOL0     H44596   3.961   6.168  10.634 -0.1089 -1.8524 -1.1617
  338MOL0     H44597   3.993   6.138  10.815  0.3955 -2.9520  1.0603
  338MOL0     H44598   4.951   6.127  10.340 -0.0623  0.9381  0.9272
  338MOL0     H44599   5.178   6.144  10.249 -0.1037  0.3435 -1.3943
  338MOL0     H44600   5.613   6.264  10.225  1.4353 -0.1859  0.6090
  338MOL0     H44601   5.843   6.245  10.134 -0.1624  1.5794  1.3602
  338MOL0     H44602   4.846   5.943  10.738 -2.2211 -1.2165  0.7525
  338MOL0     H44603   4.621   5.936  10.780  0.9269 -0.1938 -0.7265
  338MOL0     H44604   4.311   6.344  11.098 -1.1845  1.1139  0.4021
  338MOL0     H44605   4.082   6.375  11.172  1.2464  0.0725  1.0614
  338MOL0     H44606   3.809   6.359  11.136 -1.6388  1.3884  2.4959
  338MOL0     H44607   3.886   6.333  11.283  0.6794  0.3343 -0.0686
  338MOL0     H44608   3.616   6.230  11.177 -2.7098 -2.2817  1.9614
  338MOL0     H44609   3.691   6.144  11.313 -2.9086 -0.3759 -0.8321
  338MOL0     H44610   3.631   6.443  11.287  2.5138  1.4096  0.7913
  338MOL0     H44611   3.718   6.388  11.428  0.3805  3.3734 -1.5029
  338MOL0     H44612   3.529   6.263  11.504  0.7499  1.6625  1.1548
  338MOL0     H44613   3.489   6.434  11.476 -0.0711  0.2283  1.1351
  338MOL0     H44614   3.222   6.254  11.216  1.4081  0.0519 -0.5879
  338MOL0     H44615   4.008   5.965  11.068 -0.7827  0.9669 -1.4024
  338MOL0     H44616   4.231   5.936  10.990 -2.2537  0.0319 -2.1212
  339MOL0     O44617   6.126   4.271   1.915 -0.4365 -0.1529  0.0842
  339MOL0     C44618   6.237   4.318   1.934 -0.4519  0.6406  1.5687
  339MOL0     O44619   6.274   4.390   2.041 -0.5854  0.1270 -0.0010
  339MOL0     C44620   6.182   4.387   2.138  0.0849 -0.2651  0.3661
  339MOL0     C44621   6.185   4.301   2.248 -0.4088  0.5964 -0.4475
  339MOL0     C44622   6.087   4.314   2.339 -0.2052  0.5678 -0.5137
  339MOL0     C44623   5.981   4.413   2.330  0.1166  0.5110  0.6123
  339MOL0     O44624   5.883   4.411   2.428  0.4241 -0.2389 -0.3134
  339MOL0     C44625   5.746   4.422   2.386  0.2655  0.0072  0.0844
  339MOL0     C44626   5.653   4.395   2.508 -0.2726  0.8412  0.6396
  339MOL0     C44627   5.509   4.427   2.484  0.4802  0.3154 -0.0712
  339MOL0     C44628   5.458   4.366   2.351  0.1843  0.2122  1.2191
  339MOL0     C44629   5.310   4.368   2.328 -0.0915  0.0071  0.8643
  339MOL0     C44630   5.265   4.304   2.191  0.5456  0.6003 -0.6934
  339MOL0     C44631   5.275   4.153   2.187  0.1280  0.2410 -0.9238
  339MOL0     C44632   5.154   4.091   2.264  0.2023  0.4524  0.1194
  339MOL0     N44633   5.024   4.124   2.208 -0.9794 -0.1452  0.0347
  339MOL0     C44634   4.947   4.231   2.248 -0.3824  0.1492  0.1287
  339MOL0     C44635   4.829   4.210   2.177  0.8223  0.2256 -0.0215
  339MOL0     C44636   4.705   4.297   2.196  0.4481 -0.1945  0.4950
  339MOL0     C44637   4.664   4.269   2.342 -1.2743  0.5187  0.1269
  339MOL0     C44638   4.539   4.339   2.380 -0.0090  0.7033  0.0497
  339MOL0     C44639   4.422   4.292   2.296 -0.1290  0.0590 -0.0016
  339MOL0     O44640   4.291   4.341   2.355  0.2337  0.8701 -0.1522
  339MOL0     C44641   4.167   4.312   2.306  0.3468  0.2463 -0.2238
  339MOL0     C44642   4.062   4.369   2.377  0.3182 -0.1966 -0.3906
  339MOL0     C44643   3.934   4.337   2.350  1.0818 -1.1822  0.0295
  339MOL0     C44644   3.899   4.255   2.249  0.8169 -0.1752 -1.4311
  339MOL0     C44645   3.755   4.209   2.240  0.2567 -0.0442  0.7953
  339MOL0     O44646   3.726   4.110   2.148 -0.0241  0.2543  0.2933
  339MOL0     C44647   3.592   4.077   2.143  0.2926  0.3097 -0.2038
  339MOL0     C44648   3.505   4.127   2.042  0.4259 -0.3262 -0.0615
  339MOL0     C44649   3.366   4.085   2.048  0.3973  0.1325  0.8998
  339MOL0     C44650   3.321   3.997   2.151  0.5439 -0.0789 -0.0314
  339MOL0     O44651   3.199   3.942   2.161 -0.4177  0.2752 -0.0934
  339MOL0     C44652   3.081   4.005   2.103 -1.0079 -0.0623 -0.2363
  339MOL0     C44653   2.948   3.974   2.172  0.5990 -0.5003  0.1508
  339MOL0     C44654   2.930   3.819   2.191  0.1739  0.6437  0.3577
  339MOL0     C44655   2.883   3.760   2.062  0.2992  0.2290  0.3908
  339MOL0     C44656   2.845   3.610   2.075  0.6504  0.7439 -0.3553
  339MOL0     C44657   2.803   3.543   1.946  0.3643  0.3436  0.3824
  339MOL0     C44658   2.670   3.582   1.909  0.5984 -0.1662 -0.1417
  339MOL0     C44659   2.566   3.493   1.972  0.2931 -0.5562 -0.5099
  339MOL0    Cl44660   2.405   3.517   1.919  0.1683 -0.2911  0.0485
  339MOL0     C44661   3.410   3.942   2.236  0.2989  0.3108  0.0698
  339MOL0     C44662   3.542   3.973   2.230 -0.4668 -0.8232 -0.4851
  339MOL0     O44663   3.667   4.266   2.310 -0.1009 -0.0295  0.3664
  339MOL0     C44664   3.999   4.201   2.170 -0.4639  0.5718  0.8124
  339MOL0     C44665   4.130   4.228   2.198 -0.1838  0.7423  0.8008
  339MOL0     N44666   4.843   4.098   2.096 -0.1299  0.0303  1.2195
  339MOL0     N44667   4.957   4.037   2.119  0.1326 -0.4410 -0.0278
  339MOL0     C44668   5.982   4.497   2.227  0.5644  0.7109 -0.1790
  339MOL0     C44669   6.073   4.475   2.124  0.1009 -0.4575 -0.0010
  339MOL0     C44670   6.346   4.291   1.835  0.9799 -0.4088 -0.5015
  339MOL0     C44671   6.324   4.198   1.729 -0.7159 -0.3888 -0.1411
  339MOL0     C44672   6.441   4.174   1.650  0.7326 -0.2954 -0.0060
  339MOL0     C44673   6.565   4.215   1.679  0.1544  1.0768  0.4285
  339MOL0     O44674   6.667   4.157   1.609 -0.1369 -0.3615  0.4394
  339MOL0     C44675   6.794   4.153   1.663  0.2000  0.1325 -0.7383
  339MOL0     C44676   6.791   4.049   1.778  0.3015 -0.2949 -0.2281
  339MOL0     C44677   6.924   3.968   1.785  1.5230 -1.0859  0.0893
  339MOL0     C44678   7.010   4.036   1.894 -0.2429 -0.2472 -0.1418
  339MOL0     C44679   7.137   3.954   1.886 -0.1454 -0.3422 -0.0241
  339MOL0     C44680   7.232   3.883   1.878  0.4623 -0.8714  0.2830
  339MOL0     C44681   6.584   4.306   1.779  0.2244 -0.5285 -0.6133
  339MOL0     C44682   6.478   4.341   1.863  0.3040 -0.5394  0.5739
  339MOL0     H44683   6.262   4.226   2.258 -0.9824  0.0648  0.0625
  339MOL0     H44684   6.090   4.246   2.423  0.7038 -0.1449 -1.1023
  339MOL0     H44685   5.739   4.336   2.318 -1.3749 -2.4230  3.0557
  339MOL0     H44686   5.718   4.518   2.341 -3.5613 -0.8155  0.3708
  339MOL0     H44687   5.692   4.462   2.586  4.2701 -0.0562 -0.5589
  339MOL0     H44688   5.661   4.291   2.543 -0.0805 -0.4050 -2.7675
  339MOL0     H44689   5.496   4.535   2.486  0.9528  0.3604  1.2826
  339MOL0     H44690   5.449   4.393   2.569 -1.4541  0.5547 -1.2966
  339MOL0     H44691   5.524   4.409   2.276  1.1756 -0.4367  1.6999
  339MOL0     H44692   5.486   4.261   2.347 -1.7613 -0.3248 -1.5227
  339MOL0     H44693   5.256   4.463   2.322 -1.4765 -0.7596  0.6658
  339MOL0     H44694   5.265   4.323   2.417  3.7286 -1.0428  2.4550
  339MOL0     H44695   5.336   4.341   2.116  0.0411  3.1595 -0.0056
  339MOL0     H44696   5.167   4.338   2.156  1.2131  1.1586 -2.1052
  339MOL0     H44697   5.286   4.117   2.084 -0.4635 -2.8336 -0.0351
  339MOL0     H44698   5.370   4.132   2.238  0.4476  4.2796  0.4755
  339MOL0     H44699   5.153   4.115   2.371  0.0081  3.1365 -0.4083
  339MOL0     H44700   5.169   3.983   2.259  3.7336  0.7373  1.3922
  339MOL0     H44701   4.971   4.307   2.321 -1.5930 -0.5658  1.3102
  339MOL0     H44702   4.626   4.272   2.125 -0.9170  3.8773  0.3333
  339MOL0     H44703   4.742   4.399   2.181  2.6128 -1.2338 -2.3346
  339MOL0     H44704   4.740   4.306   2.411 -0.1710 -0.3590 -0.5858
  339MOL0     H44705   4.652   4.161   2.351  1.6596  0.0775 -0.1939
  339MOL0     H44706   4.507   4.316   2.482  2.5207 -0.0197  0.7531
  339MOL0     H44707   4.558   4.447   2.386 -0.4491  0.7471  0.8526
  339MOL0     H44708   4.421   4.183   2.306  0.9933  0.1576  1.5545
  339MOL0     H44709   4.431   4.317   2.190 -0.1123  0.7903  0.1707
  339MOL0     H44710   4.085   4.439   2.457  0.9782 -0.7042 -0.1207
  339MOL0     H44711   3.857   4.374   2.417  0.3351 -2.6355  0.0306
  339MOL0     H44712   3.549   4.191   1.967 -1.8708  0.8085 -0.5240
  339MOL0     H44713   3.306   4.120   1.964  1.2464 -0.6502 -0.0655
  339MOL0     H44714   3.073   3.971   2.000  0.8285 -0.4779 -0.2738
  339MOL0     H44715   3.103   4.112   2.091  3.7253 -0.9943 -2.3544
  339MOL0     H44716   2.869   4.022   2.114 -0.1309  0.2273  1.6935
  339MOL0     H44717   2.956   4.028   2.267 -2.0127 -2.4826  1.6087
  339MOL0     H44718   2.851   3.812   2.266 -0.3846 -0.1042 -0.2819
  339MOL0     H44719   3.012   3.759   2.232  0.1053  0.2887 -0.0192
  339MOL0     H44720   2.787   3.808   2.038 -0.3683 -0.8284  0.8965
  339MOL0     H44721   2.957   3.764   1.982  0.5493 -0.6100  0.5788
  339MOL0     H44722   2.765   3.602   2.150  1.5060 -0.9782  0.4174
  339MOL0     H44723   2.922   3.548   2.120 -0.9940  0.5230  2.3519
  339MOL0     H44724   2.810   3.435   1.959 -0.3580  0.3808  1.1586
  339MOL0     H44725   2.873   3.564   1.865 -1.3238  1.4495 -0.8628
  339MOL0     H44726   2.639   3.687   1.914  0.3319 -0.1842 -1.2277
  339MOL0     H44727   2.662   3.570   1.800 -1.7595  2.2990 -0.3480
  339MOL0     H44728   2.554   3.506   2.080 -3.0813 -3.7861 -0.2969
  339MOL0     H44729   2.599   3.389   1.961  1.5753 -0.1230 -0.9001
  339MOL0     H44730   3.399   3.862   2.308  3.5237  0.6564  1.1313
  339MOL0     H44731   3.602   3.932   2.311  1.7401  1.5378 -0.8107
  339MOL0     H44732   3.955   4.139   2.093 -2.8397  0.6685  1.9906
  339MOL0     H44733   4.209   4.192   2.133  0.0268  2.2447  0.1720
  339MOL0     H44734   5.899   4.566   2.219 -0.5601 -0.3148  1.7830
  339MOL0     H44735   6.074   4.541   2.038 -0.7364  0.3986  0.6213
  339MOL0     H44736   6.224   4.169   1.696 -0.4967 -0.3552 -0.8369
  339MOL0     H44737   6.427   4.115   1.559 -0.4009 -0.0306 -0.0098
  339MOL0     H44738   6.842   4.248   1.688  1.4207 -0.3719 -1.0960
  339MOL0     H44739   6.854   4.135   1.574  1.4451  0.5065 -0.0009
  339MOL0     H44740   6.767   4.095   1.874  0.4422  2.1336 -1.2780
  339MOL0     H44741   6.712   3.977   1.754 -0.9877  0.8458  0.3871
  339MOL0     H44742   6.979   3.976   1.691  0.2737  0.7304 -0.5523
  339MOL0     H44743   6.910   3.865   1.819  1.8959 -1.4849 -0.9074
  339MOL0     H44744   7.017   4.144   1.881 -4.7682  0.6679  2.5874
  339MOL0     H44745   6.972   4.030   1.997  0.5841 -3.0493  0.0882
  339MOL0     H44746   7.316   3.819   1.862  1.2060  0.5972 -2.3659
  339MOL0     H44747   6.683   4.340   1.807  0.2150  0.1860 -1.4007
  339MOL0     H44748   6.500   4.392   1.956  0.1567 -0.8000  0.7521
  340MOL0     O44749   2.535   0.530   2.405 -0.0453 -0.4791  0.1241
  340MOL0     C44750   2.563   0.471   2.293  0.1197  0.2281  0.1806
  340MOL0     O44751   2.487   0.378   2.226  0.2269 -0.0495  0.0761
  340MOL0     C44752   2.355   0.367   2.268 -0.6602  0.4040  1.0346
  340MOL0     C44753   2.306   0.228   2.285  0.5398 -0.0291  0.2797
  340MOL0     C44754   2.176   0.211   2.327  0.2309 -0.5115 -1.0656
  340MOL0     C44755   2.092   0.322   2.342  0.1697 -0.2895 -0.6934
  340MOL0     O44756   1.964   0.289   2.389  0.5659  0.0852 -0.4341
  340MOL0     C44757   1.892   0.404   2.440 -0.8858  0.6304  0.0491
  340MOL0     C44758   1.752   0.346   2.469 -0.3370 -0.6558  0.6015
  340MOL0     C44759   1.744   0.235   2.572  0.8357 -0.7572  0.7867
  340MOL0     C44760   1.620   0.129   2.545 -0.1666  0.4594 -0.1338
  340MOL0     C44761   1.491   0.194   2.589  0.1360 -0.4442 -1.0081
  340MOL0     C44762   1.383   0.084   2.590  0.6597 -0.3821 -0.5898
  340MOL0     C44763   1.240   0.122   2.597  0.1975 -0.1734  0.1313
  340MOL0     C44764   1.182   0.132   2.735 -1.0239  0.1931  0.1455
  340MOL0     N44765   1.041   0.168   2.739  0.0838  0.0033 -0.6553
  340MOL0     C44766   0.937   0.085   2.704  0.5119 -0.3202  0.1004
  340MOL0     C44767   0.828   0.169   2.719 -0.0779  0.3888 -0.0736
  340MOL0     C44768   0.676   0.123   2.689 -0.2579  0.0127  0.4454
  340MOL0     C44769   0.573   0.234   2.711 -0.6297 -0.6334  0.0881
  340MOL0     C44770   0.571   0.336   2.593  0.1343  0.5090 -0.7699
  340MOL0     C44771   0.441   0.402   2.596  0.7358 -0.5810  0.0424
  340MOL0     O44772   0.332   0.323   2.551 -0.2882 -0.3098 -0.8911
  340MOL0     C44773   0.206   0.382   2.567  0.7803  0.4851  0.8253
  340MOL0     C44774   0.182   0.520   2.577  0.0310  0.4625  0.6683
  340MOL0     C44775   0.054   0.564   2.605  0.2526 -0.4423 -0.3771
  340MOL0     C44776  -0.054   0.479   2.595  0.8522  0.0203  0.3495
  340MOL0     C44777  -0.184   0.520   2.639 -0.1097  0.6538 -0.3012
  340MOL0     O44778  -0.284   0.428   2.644  0.4994 -0.1847  0.1911
  340MOL0     C44779  -0.421   0.453   2.649  0.2796  0.1183  0.8260
  340MOL0     C44780  -0.491   0.333   2.643  0.4761 -0.3609 -0.1120
  340MOL0     C44781  -0.628   0.332   2.666  0.3216 -0.0044  1.4003
  340MOL0     C44782  -0.700   0.454   2.669 -0.8036 -0.4804 -0.1121
  340MOL0     O44783  -0.837   0.450   2.672 -0.4809 -0.4000  0.1154
  340MOL0     C44784  -0.908   0.570   2.660  0.5687 -0.2004  0.9564
  340MOL0     C44785  -1.052   0.521   2.630 -0.1500 -0.4363 -0.2647
  340MOL0     C44786  -1.154   0.621   2.595  0.3653 -0.2084 -0.0263
  340MOL0     C44787  -1.274   0.555   2.540 -0.6087  0.2308  0.2555
  340MOL0     C44788  -1.400   0.634   2.550 -1.1584 -0.4102 -0.1370
  340MOL0     C44789  -1.517   0.569   2.486  0.2538 -0.2858  0.8366
  340MOL0     C44790  -1.642   0.643   2.523 -0.4002 -0.1535 -0.4612
  340MOL0     C44791  -1.766   0.587   2.468  0.3045  0.1647 -0.3828
  340MOL0    Cl44792  -1.918   0.667   2.513 -0.2774  0.6914 -0.1953
  340MOL0     C44793  -0.629   0.575   2.677 -0.0843 -0.3940 -0.1199
  340MOL0     C44794  -0.490   0.574   2.671  0.0516  0.2258  0.4748
  340MOL0     O44795  -0.193   0.638   2.667  0.2397  0.1301 -0.2452
  340MOL0     C44796  -0.030   0.346   2.552  1.0454 -0.1834  1.3050
  340MOL0     C44797   0.097   0.302   2.547  0.4709 -0.4394  0.4751
  340MOL0     N44798   0.873   0.291   2.774 -0.1488  0.5967 -0.3003
  340MOL0     N44799   1.000   0.287   2.789  0.1557 -0.5792 -0.2894
  340MOL0     C44800   2.144   0.455   2.322  1.3243  0.2503  0.4382
  340MOL0     C44801   2.274   0.480   2.294 -0.0934 -0.0036  0.9873
  340MOL0     C44802   2.694   0.505   2.241 -0.2677  0.5817  1.0647
  340MOL0     C44803   2.752   0.629   2.245  0.9398 -0.8473 -0.3299
  340MOL0     C44804   2.878   0.647   2.193  0.3409  0.2047  0.0344
  340MOL0     C44805   2.961   0.547   2.145  0.2044 -0.7748 -0.3319
  340MOL0     O44806   3.090   0.592   2.109 -0.3612  0.7435  0.6372
  340MOL0     C44807   3.190   0.497   2.059  0.1160  0.5072  0.0518
  340MOL0     C44808   3.316   0.559   2.016 -0.1717 -0.2930  0.9198
  340MOL0     C44809   3.391   0.640   2.126 -0.1015  0.1392 -0.1443
  340MOL0     C44810   3.536   0.587   2.142  0.4444  0.7200 -0.6857
  340MOL0     C44811   3.618   0.587   2.017 -0.5559 -0.0535  0.5452
  340MOL0     C44812   3.668   0.602   1.910  0.3910  0.6458  0.4196
  340MOL0     C44813   2.909   0.420   2.137  0.3440 -0.1165  0.1100
  340MOL0     C44814   2.775   0.403   2.182 -0.1911 -0.2919 -0.0278
  340MOL0     H44815   2.372   0.150   2.250 -1.4610 -0.6942 -2.3316
  340MOL0     H44816   2.121   0.119   2.341 -1.4691  0.7342  0.9417
  340MOL0     H44817   1.885   0.493   2.376  3.3966  2.5004  1.7809
  340MOL0     H44818   1.939   0.449   2.527  1.8168  1.2074 -1.5917
  340MOL0     H44819   1.704   0.312   2.377 -0.4476  1.0916 -0.0127
  340MOL0     H44820   1.698   0.431   2.510  1.7159 -0.6867  3.7356
  340MOL0     H44821   1.749   0.279   2.672 -1.3299  1.1979  0.1285
  340MOL0     H44822   1.826   0.163   2.561 -0.8785 -2.7808  0.6236
  340MOL0     H44823   1.617   0.113   2.437  1.6093  1.3864 -0.3673
  340MOL0     H44824   1.641   0.032   2.592  1.4127  0.6101 -0.4538
  340MOL0     H44825   1.462   0.278   2.525  0.7929  0.6643  0.1084
  340MOL0     H44826   1.495   0.224   2.694  3.4130 -1.7176 -0.6609
  340MOL0     H44827   1.394   0.015   2.674 -1.3830  2.0619  1.8566
  340MOL0     H44828   1.401   0.017   2.505 -0.5455 -2.4288  0.6602
  340MOL0     H44829   1.230   0.224   2.558 -4.6241  0.6731  2.7211
  340MOL0     H44830   1.184   0.044   2.545  0.6905 -2.4436  2.7678
  340MOL0     H44831   1.242   0.201   2.796 -2.2432 -0.9489  2.8312
  340MOL0     H44832   1.194   0.036   2.786 -3.2083  0.2343  0.8308
  340MOL0     H44833   0.945  -0.017   2.668 -1.3593 -1.8957  3.6784
  340MOL0     H44834   0.648   0.045   2.760 -1.1310  0.4466  0.5996
  340MOL0     H44835   0.660   0.079   2.590  2.0035  2.4417 -1.1365
  340MOL0     H44836   0.600   0.293   2.800  1.0226 -0.0661 -0.7413
  340MOL0     H44837   0.474   0.192   2.731  0.2747 -2.5013  0.8325
  340MOL0     H44838   0.648   0.411   2.610 -1.8422  2.2407  1.2892
  340MOL0     H44839   0.596   0.278   2.504 -0.2037 -2.6851  1.0817
  340MOL0     H44840   0.454   0.488   2.530  0.1573  0.1337  0.8301
  340MOL0     H44841   0.427   0.438   2.699 -0.1684  1.0233 -0.5987
  340MOL0     H44842   0.261   0.593   2.569 -0.4780  0.7598 -3.4019
  340MOL0     H44843   0.050   0.668   2.635 -2.0458 -0.5612 -0.1634
  340MOL0     H44844  -0.431   0.243   2.633 -1.9704 -2.2558  1.1121
  340MOL0     H44845  -0.684   0.241   2.651  1.0571 -0.2853  0.1635
  340MOL0     H44846  -0.875   0.640   2.583 -1.5158  0.3767  0.5130
  340MOL0     H44847  -0.907   0.613   2.761 -3.1670 -0.7341  1.3904
  340MOL0     H44848  -1.076   0.461   2.719  1.0572  0.1087  0.4490
  340MOL0     H44849  -1.056   0.454   2.544 -4.2503 -0.1538 -0.5049
  340MOL0     H44850  -1.106   0.698   2.534  0.7214  0.1095  0.6460
  340MOL0     H44851  -1.189   0.682   2.679  1.9127  0.0898  0.4260
  340MOL0     H44852  -1.253   0.525   2.437  0.5444  3.7526 -0.6868
  340MOL0     H44853  -1.301   0.466   2.598 -0.5116  0.2927  0.3960
  340MOL0     H44854  -1.382   0.733   2.507  3.0590  0.8099  3.6209
  340MOL0     H44855  -1.416   0.648   2.658  0.7650 -1.0333  0.2748
  340MOL0     H44856  -1.539   0.465   2.511 -0.2821 -1.2538 -3.0263
  340MOL0     H44857  -1.500   0.588   2.380 -1.3569 -0.2408  0.5528
  340MOL0     H44858  -1.658   0.650   2.631  1.8192  0.3588 -0.1116
  340MOL0     H44859  -1.627   0.748   2.493  3.6566 -1.0205 -2.1112
  340MOL0     H44860  -1.777   0.480   2.486  1.1655 -0.4034 -2.7780
  340MOL0     H44861  -1.753   0.591   2.359  1.2805 -2.9024 -0.4818
  340MOL0     H44862  -0.678   0.672   2.682 -0.4007 -0.5708  0.3275
  340MOL0     H44863  -0.439   0.670   2.683 -0.5834  0.5381  0.7041
  340MOL0     H44864  -0.115   0.282   2.529  1.2278  0.4187 -1.4522
  340MOL0     H44865   0.116   0.196   2.540  0.5537 -0.2935 -2.2896
  340MOL0     H44866   2.076   0.539   2.325  0.0940 -0.7080  0.4891
  340MOL0     H44867   2.298   0.584   2.272  1.1817 -0.5731 -0.5197
  340MOL0     H44868   2.699   0.712   2.289 -2.0995 -2.0727 -1.3622
  340MOL0     H44869   2.909   0.750   2.180 -0.0013  1.1702  4.9111
  340MOL0     H44870   3.140   0.433   1.986 -0.2761  1.4708 -0.5343
  340MOL0     H44871   3.219   0.432   2.143 -1.1928 -0.3261 -0.0963
  340MOL0     H44872   3.387   0.491   1.969 -0.7559  1.7935 -3.5191
  340MOL0     H44873   3.300   0.626   1.930  1.3875  0.1723  0.9676
  340MOL0     H44874   3.344   0.626   2.223  0.0922  1.0710  0.0957
  340MOL0     H44875   3.375   0.747   2.105  0.2341 -0.2502 -2.7643
  340MOL0     H44876   3.575   0.649   2.223  0.1380 -1.9447  1.6924
  340MOL0     H44877   3.536   0.486   2.186  1.2936  0.4384 -1.2845
  340MOL0     H44878   3.701   0.632   1.812  1.9904 -0.5659  0.5458
  340MOL0     H44879   2.971   0.334   2.112 -0.9094 -1.1332  0.3604
  340MOL0     H44880   2.743   0.300   2.172 -2.5634  0.5599 -2.0052
  341MOL0     O44881   5.750  10.755   6.158  0.0680  0.0522  0.1277
  341MOL0     C44882   5.768  10.731   6.039 -0.4278  1.7120 -0.4102
  341MOL0     O44883   5.675  10.730   5.951  0.2483 -0.2275  0.4761
  341MOL0     C44884   5.550  10.694   5.979  0.0753 -0.7019 -0.1115
  341MOL0     C44885   5.458  10.755   5.886  0.2373 -0.2754 -0.6487
  341MOL0     C44886   5.312  10.734   5.894  0.1613  0.5991  0.2367
  341MOL0     C44887   5.267  10.647   5.988 -0.1162  0.7136 -0.3128
  341MOL0     O44888   5.134  10.622   5.988 -0.0110 -0.4752 -0.2240
  341MOL0     C44889   5.042  10.734   6.008  0.6782  0.3357 -1.3195
  341MOL0     C44890   4.924  10.678   6.083 -0.4533 -0.4186 -0.4652
  341MOL0     C44891   4.820  10.789   6.095  0.2205 -0.8065  0.4532
  341MOL0     C44892   4.687  10.750   6.159 -0.2116  0.3322  1.3350
  341MOL0     C44893   4.623  10.623   6.092  0.0939  0.1357  0.2191
  341MOL0     C44894   4.596  10.637   5.935 -0.2891 -0.0451 -0.8086
  341MOL0     C44895   4.510  10.510   5.904 -0.5311  0.6228  0.2730
  341MOL0     C44896   4.360  10.514   5.939  0.9102  0.0822  0.1975
  341MOL0     N44897   4.293  10.639   5.909  0.2552 -0.2131  0.2151
  341MOL0     C44898   4.203  10.664   5.806 -0.7065  0.2957 -0.4738
  341MOL0     C44899   4.158  10.786   5.838 -0.3440 -0.6575 -0.0737
  341MOL0     C44900   4.070  10.859   5.741 -0.4175  0.3244 -0.3739
  341MOL0     C44901   3.959  10.924   5.824  1.0672  0.2198  0.4448
  341MOL0     C44902   3.878  11.029   5.741  0.7510  1.7272  0.5882
  341MOL0     C44903   3.956  11.140   5.682 -0.2309 -0.3862 -0.5141
  341MOL0     O44904   4.023  11.190   5.807 -0.1782  0.3947  0.2127
  341MOL0     C44905   4.151  11.223   5.790  0.1013  0.6099  0.8489
  341MOL0     C44906   4.215  11.299   5.685  0.0215  0.6444 -0.4471
  341MOL0     C44907   4.359  11.306   5.678 -0.4786  0.5780  0.0225
  341MOL0     C44908   4.439  11.223   5.750  1.0093  0.1141  0.0236
  341MOL0     C44909   4.590  11.230   5.755  0.0359  0.1678  1.4374
  341MOL0     O44910   4.644  11.138   5.832  0.5997  0.9529  0.0786
  341MOL0     C44911   4.781  11.112   5.840  0.9196 -0.8786  0.7971
  341MOL0     C44912   4.846  11.126   5.957  0.3800 -0.3290  0.4646
  341MOL0     C44913   4.984  11.109   5.973  0.5241 -0.2442 -0.8563
  341MOL0     C44914   5.057  11.060   5.860 -0.3275 -0.0457  0.5997
  341MOL0     O44915   5.194  11.045   5.860  0.9324  0.2140 -0.0680
  341MOL0     C44916   5.277  11.089   5.968 -0.0090  0.4761 -0.0760
  341MOL0     C44917   5.310  11.236   5.954  0.3577 -0.2942 -0.2715
  341MOL0     C44918   5.426  11.281   6.058  0.3434  0.0367 -0.2781
  341MOL0     C44919   5.436  11.432   6.052 -0.0166  0.1628  0.2099
  341MOL0     C44920   5.553  11.478   6.138  0.9022 -0.2838 -0.2538
  341MOL0     C44921   5.563  11.628   6.146  0.6380  0.4543 -0.5799
  341MOL0     C44922   5.697  11.664   6.213 -0.0225 -0.2413  0.0389
  341MOL0     C44923   5.721  11.816   6.170 -0.4551 -0.6833 -0.0765
  341MOL0    Cl44924   5.589  11.923   6.237  0.0990  0.0672  0.0948
  341MOL0     C44925   4.988  11.040   5.739  0.4443 -0.1009  0.2391
  341MOL0     C44926   4.853  11.068   5.724  0.1783 -0.0782 -0.0787
  341MOL0     O44927   4.650  11.321   5.695 -0.8662  0.4066  0.5591
  341MOL0     C44928   4.369  11.134   5.838 -0.9105 -0.4937  0.2191
  341MOL0     C44929   4.240  11.149   5.866  0.3873  0.6346  0.1821
  341MOL0     N44930   4.212  10.829   5.951 -0.3472 -0.8062 -0.9529
  341MOL0     N44931   4.292  10.746   5.991 -0.4373 -0.0343 -0.1195
  341MOL0     C44932   5.358  10.572   6.067 -0.5898 -0.0054  0.0652
  341MOL0     C44933   5.496  10.597   6.065  0.3512  0.3841 -0.0315
  341MOL0     C44934   5.913  10.713   5.990 -0.7476  0.9530  0.0115
  341MOL0     C44935   5.940  10.692   5.850  0.0064 -0.6106  0.3268
  341MOL0     C44936   6.073  10.661   5.807 -0.1790  0.3212  0.1290
  341MOL0     C44937   6.181  10.644   5.891 -0.4961  0.1041  0.4680
  341MOL0     O44938   6.285  10.580   5.834  0.1483 -0.4612 -0.2431
  341MOL0     C44939   6.390  10.550   5.923  0.3382 -0.2800 -0.5078
  341MOL0     C44940   6.503  10.491   5.852  0.6096 -0.8004 -0.3935
  341MOL0     C44941   6.630  10.496   5.938  0.6711  0.6201  0.4412
  341MOL0     C44942   6.721  10.618   5.926 -0.2754  0.5363 -0.3521
  341MOL0     C44943   6.814  10.604   5.811  0.4054 -0.6360  0.5543
  341MOL0     C44944   6.875  10.589   5.706  0.3770 -0.2271 -0.6692
  341MOL0     C44945   6.153  10.684   6.028 -0.7155 -0.0086  0.6481
  341MOL0     C44946   6.022  10.709   6.074  0.3333 -0.0110  0.1393
  341MOL0     H44947   5.494  10.831   5.818  0.3398  2.1003  1.8778
  341MOL0     H44948   5.250  10.797   5.831 -1.1173  0.6842  1.5240
  341MOL0     H44949   5.008  10.780   5.914 -0.8843 -0.9799 -1.4406
  341MOL0     H44950   5.089  10.812   6.068  2.7301 -1.4448 -0.4787
  341MOL0     H44951   4.950  10.641   6.183 -3.2002  1.1196  0.9335
  341MOL0     H44952   4.889  10.590   6.029 -1.7641 -0.2862  0.1183
  341MOL0     H44953   4.797  10.844   6.002 -1.2890  1.7585  2.2144
  341MOL0     H44954   4.861  10.865   6.163  1.3990  2.4341 -3.4013
  341MOL0     H44955   4.685  10.744   6.268 -3.9196 -0.9726  1.3319
  341MOL0     H44956   4.621  10.834   6.137 -1.4438 -1.0932 -0.8910
  341MOL0     H44957   4.524  10.600   6.133 -0.6874 -2.9612 -2.8718
  341MOL0     H44958   4.684  10.536   6.115  1.1095  0.6100 -0.6027
  341MOL0     H44959   4.689  10.656   5.881  0.6284 -1.0425  0.3707
  341MOL0     H44960   4.534  10.726   5.924  0.8374  1.1466  1.7237
  341MOL0     H44961   4.503  10.501   5.795 -2.4695  0.3877  0.3865
  341MOL0     H44962   4.558  10.416   5.934 -4.5118 -1.7090  0.0384
  341MOL0     H44963   4.358  10.499   6.047  1.0065  1.6573  0.4388
  341MOL0     H44964   4.305  10.427   5.901  1.4358 -1.5150  2.8535
  341MOL0     H44965   4.164  10.609   5.721 -1.1500  0.4548 -0.3757
  341MOL0     H44966   4.027  10.792   5.665  0.1686 -0.4901 -0.0120
  341MOL0     H44967   4.126  10.935   5.686  0.2328  0.7479  0.8472
  341MOL0     H44968   3.988  10.971   5.918  0.0816 -0.5491  1.1435
  341MOL0     H44969   3.887  10.846   5.850 -0.0282  1.1041  0.1364
  341MOL0     H44970   3.827  10.982   5.657  1.6528  2.1897 -0.2365
  341MOL0     H44971   3.807  11.067   5.815 -1.6061 -2.3678  0.6985
  341MOL0     H44972   3.897  11.219   5.633 -0.4825 -1.6102 -2.2978
  341MOL0     H44973   4.026  11.108   5.604 -0.7730  1.1820 -1.7004
  341MOL0     H44974   4.153  11.371   5.632  1.9784  1.2996 -1.9788
  341MOL0     H44975   4.393  11.386   5.613 -1.2723  0.5959 -0.3843
  341MOL0     H44976   4.776  11.148   6.037 -0.4511  3.6228 -1.1373
  341MOL0     H44977   5.020  11.122   6.075 -0.7869 -0.5676 -0.3329
  341MOL0     H44978   5.365  11.025   5.962  0.5509  0.9822  2.0613
  341MOL0     H44979   5.224  11.057   6.058  2.0513  0.3960  1.1641
  341MOL0     H44980   5.222  11.299   5.970  2.0864  1.9133  1.1304
  341MOL0     H44981   5.347  11.269   5.857 -1.9396  3.2988 -0.1065
  341MOL0     H44982   5.518  11.227   6.033  0.6496 -0.0853  1.0554
  341MOL0     H44983   5.394  11.264   6.161 -0.0824  3.4529  0.2561
  341MOL0     H44984   5.474  11.462   5.954 -0.2446  0.1754  0.1233
  341MOL0     H44985   5.338  11.475   6.077 -1.0461 -2.6694  1.5006
  341MOL0     H44986   5.640  11.424   6.100 -0.7851 -0.6431 -4.0145
  341MOL0     H44987   5.521  11.444   6.237 -0.1313  0.8858 -0.1527
  341MOL0     H44988   5.486  11.679   6.206  1.0832  1.2087 -0.6417
  341MOL0     H44989   5.551  11.663   6.043 -4.1002  0.2869 -0.3118
  341MOL0     H44990   5.689  11.656   6.322 -1.5742 -0.3544 -0.0670
  341MOL0     H44991   5.786  11.606   6.186  0.9334  0.6032  1.2455
  341MOL0     H44992   5.703  11.835   6.064 -1.6407 -0.2490  0.1767
  341MOL0     H44993   5.820  11.846   6.205 -0.7035  1.5839 -1.1298
  341MOL0     H44994   5.026  11.000   5.645 -5.2311 -2.9678 -1.2390
  341MOL0     H44995   4.805  11.053   5.627  1.6479  0.2326 -0.8729
  341MOL0     H44996   4.423  11.072   5.909 -0.8690 -1.8856 -0.9670
  341MOL0     H44997   4.201  11.089   5.947 -1.8963  0.0422 -1.2327
  341MOL0     H44998   5.320  10.505   6.143 -3.7693  1.6127  0.0786
  341MOL0     H44999   5.556  10.544   6.139  0.5422  1.9629  0.9798
  341MOL0     H45000   5.873  10.695   5.764  1.3164 -1.3401 -0.7692
  341MOL0     H45001   6.092  10.654   5.700 -2.4505  2.2089 -0.4684
  341MOL0     H45002   6.361  10.480   6.002 -3.8875  1.4400 -0.2487
  341MOL0     H45003   6.419  10.642   5.973 -0.8612  1.1888 -2.3572
  341MOL0     H45004   6.470  10.391   5.822 -1.9506 -0.2722  0.4091
  341MOL0     H45005   6.518  10.557   5.766  0.1079 -2.2991 -1.6870
  341MOL0     H45006   6.687  10.404   5.921 -1.2175 -0.5061 -0.0662
  341MOL0     H45007   6.584  10.488   6.037  0.6303 -0.8565  0.3351
  341MOL0     H45008   6.661  10.707   5.906 -0.3111  0.4395 -0.6679
  341MOL0     H45009   6.774  10.622   6.022  0.1779 -1.1679 -0.4904
  341MOL0     H45010   6.919  10.579   5.609 -2.3886  2.3360 -2.3600
  341MOL0     H45011   6.233  10.679   6.101  0.3671 -2.6533 -0.5705
  341MOL0     H45012   6.002  10.714   6.181 -0.0260 -3.5579  0.3507
  342MOL0     O45013   9.853   0.833   0.758  0.6093 -0.1523  0.0571
  342MOL0     C45014   9.882   0.853   0.644 -0.4305  0.0332 -0.0457
  342MOL0     O45015   9.794   0.872   0.543 -0.1184  0.1204 -0.1889
  342MOL0     C45016   9.668   0.909   0.561 -0.5421  0.5187  0.0195
  342MOL0     C45017   9.635   1.020   0.639 -0.2900  0.8363  0.2630
  342MOL0     C45018   9.497   1.048   0.650  0.1827 -0.3798  0.1905
  342MOL0     C45019   9.395   0.967   0.592 -0.4542 -0.4409 -0.0979
  342MOL0     O45020   9.270   1.004   0.618  0.4234  0.3498 -0.3734
  342MOL0     C45021   9.163   0.968   0.531 -0.4256  0.3797  0.2932
  342MOL0     C45022   9.038   1.038   0.579  0.8807  0.4324  0.0618
  342MOL0     C45023   9.039   1.187   0.570 -0.3807  0.0249  0.0916
  342MOL0     C45024   9.041   1.227   0.427  0.2672 -0.0185  0.1894
  342MOL0     C45025   9.058   1.377   0.411 -0.5161 -0.0447 -0.1172
  342MOL0     C45026   8.996   1.430   0.289  0.1436  0.3211  1.5138
  342MOL0     C45027   9.002   1.582   0.295  0.5509  0.4265 -0.1347
  342MOL0     C45028   8.903   1.645   0.199 -0.4641  0.0762  0.3819
  342MOL0     N45029   8.842   1.762   0.261 -1.1715 -0.0713 -0.6512
  342MOL0     C45030   8.738   1.754   0.349  0.1998  0.1278  0.1237
  342MOL0     C45031   8.698   1.882   0.378  0.6889 -0.7272  0.7869
  342MOL0     C45032   8.576   1.918   0.453 -0.6257 -0.3485 -0.3097
  342MOL0     C45033   8.474   1.978   0.360 -0.0984  0.3667 -0.0387
  342MOL0     C45034   8.346   2.022   0.429 -0.3957 -0.1039  0.7123
  342MOL0     C45035   8.235   2.048   0.325 -0.5765  0.2369  0.1050
  342MOL0     O45036   8.127   2.105   0.393 -0.2644  0.1199  0.6868
  342MOL0     C45037   8.052   2.202   0.341  1.4754 -0.2562  0.2753
  342MOL0     C45038   8.087   2.306   0.263 -0.5885 -0.3367  0.5354
  342MOL0     C45039   7.990   2.394   0.207  0.2162 -0.0113 -0.5852
  342MOL0     C45040   7.854   2.385   0.254  0.6657 -0.2302 -0.0598
  342MOL0     C45041   7.753   2.487   0.221  0.1049  0.2335 -0.5698
  342MOL0     O45042   7.637   2.495   0.297 -0.2901 -0.4923  0.9851
  342MOL0     C45043   7.544   2.585   0.279 -0.0915 -0.4273  0.2816
  342MOL0     C45044   7.483   2.606   0.151  0.6405  0.5306 -0.0757
  342MOL0     C45045   7.373   2.693   0.146  0.2753 -0.7506  1.0112
  342MOL0     C45046   7.313   2.753   0.262 -0.3743 -0.2547  0.3659
  342MOL0     O45047   7.207   2.839   0.236  0.6172 -0.1648  0.3018
  342MOL0     C45048   7.071   2.791   0.193 -0.3636  0.7105 -0.0620
  342MOL0     C45049   7.006   2.695   0.301 -0.3711  0.2494  0.4601
  342MOL0     C45050   6.873   2.657   0.251 -0.1842  0.3607  0.1170
  342MOL0     C45051   6.810   2.567   0.360 -0.1765 -0.1779  0.6118
  342MOL0     C45052   6.663   2.556   0.332 -0.0041 -0.4691  0.5004
  342MOL0     C45053   6.634   2.472   0.204  0.1597 -0.2080  0.5555
  342MOL0     C45054   6.487   2.431   0.205 -0.0747 -0.1252  0.0792
  342MOL0     C45055   6.437   2.360   0.076 -0.3223 -0.2315 -0.3464
  342MOL0    Cl45056   6.271   2.301   0.091 -0.1778 -0.5746 -0.6210
  342MOL0     C45057   7.368   2.728   0.389 -0.0519  0.5099  0.2354
  342MOL0     C45058   7.483   2.642   0.393 -0.9729  0.4921  0.1591
  342MOL0     O45059   7.782   2.562   0.127  0.4105  0.3195  0.4305
  342MOL0     C45060   7.828   2.281   0.349 -0.2181 -1.2552 -0.7421
  342MOL0     C45061   7.927   2.200   0.394  0.3046  1.3739  0.6149
  342MOL0     N45062   8.801   1.960   0.323 -0.0711 -1.0374  0.2064
  342MOL0     N45063   8.877   1.894   0.254  0.8140  0.1661 -1.1290
  342MOL0     C45064   9.442   0.863   0.512  0.5377  0.1465  0.0476
  342MOL0     C45065   9.575   0.842   0.485 -1.0471  0.3787  0.6595
  342MOL0     C45066  10.027   0.865   0.594 -0.2659  0.5003  0.6699
  342MOL0     C45067  10.138   0.854   0.677 -0.4668  0.2637 -0.5095
  342MOL0     C45068  10.273   0.858   0.631 -0.4513  0.4652  0.8268
  342MOL0     C45069  10.297   0.872   0.499 -0.5055 -0.9470 -0.4856
  342MOL0     O45070  10.428   0.866   0.462  0.2370  0.1749 -0.2388
  342MOL0     C45071  10.461   0.878   0.325  0.0949 -0.1080 -0.0845
  342MOL0     C45072  10.606   0.902   0.318  0.2515 -0.3183 -0.2757
  342MOL0     C45073  10.682   0.799   0.396  0.0535 -0.2526  0.0374
  342MOL0     C45074  10.753   0.873   0.506  0.1454  0.0311 -0.0324
  342MOL0     C45075  10.857   0.793   0.562 -0.4932  0.3659  0.0164
  342MOL0     C45076  10.952   0.743   0.620  0.8542 -0.2794  0.5765
  342MOL0     C45077  10.191   0.896   0.410 -0.4171 -0.5999 -0.5910
  342MOL0     C45078  10.059   0.888   0.458 -0.3119 -0.3641  0.0987
  342MOL0     H45079   9.707   1.073   0.700 -1.1133 -0.6185  2.6150
  342MOL0     H45080   9.458   1.123   0.717 -1.2302 -1.7645  0.9908
  342MOL0     H45081   9.136   0.864   0.549  0.0591  0.5737  2.3722
  342MOL0     H45082   9.192   0.989   0.427  0.6936 -3.1005 -0.2271
  342MOL0     H45083   9.025   0.998   0.680  0.4224 -1.5640 -0.7379
  342MOL0     H45084   8.950   1.006   0.521 -0.1476  0.6972  1.4278
  342MOL0     H45085   9.136   1.218   0.612  0.6941 -2.7085 -0.1973
  342MOL0     H45086   8.954   1.238   0.616  0.0131 -0.0981  0.9734
  342MOL0     H45087   9.109   1.179   0.356  1.0935 -0.1236  1.0369
  342MOL0     H45088   8.941   1.199   0.393  0.2841 -0.2497  0.3319
  342MOL0     H45089   9.164   1.404   0.417 -0.2395 -0.7071 -1.6892
  342MOL0     H45090   9.011   1.422   0.499 -1.8391 -2.8242  0.6965
  342MOL0     H45091   8.893   1.395   0.274  1.0275 -2.1092  0.5571
  342MOL0     H45092   9.055   1.397   0.204 -2.5442 -0.3858 -0.2109
  342MOL0     H45093   8.972   1.614   0.396 -0.1858 -1.0139  0.1330
  342MOL0     H45094   9.105   1.611   0.274 -0.2463  2.1200 -2.0966
  342MOL0     H45095   8.824   1.574   0.171 -0.2238  0.4991 -1.5229
  342MOL0     H45096   8.945   1.665   0.100 -0.0314 -2.2894  0.0360
  342MOL0     H45097   8.683   1.670   0.389 -1.2362  0.5849 -0.7998
  342MOL0     H45098   8.612   1.976   0.538  1.4397  0.0399 -1.3687
  342MOL0     H45099   8.526   1.838   0.508  0.1264  0.8928  2.3315
  342MOL0     H45100   8.462   1.905   0.280 -3.4002  0.2431  0.4436
  342MOL0     H45101   8.512   2.075   0.326 -1.7429 -0.0297 -3.3541
  342MOL0     H45102   8.310   1.957   0.509 -1.4607  1.9607  1.9906
  342MOL0     H45103   8.364   2.114   0.484  0.5863 -0.7147  1.4550
  342MOL0     H45104   8.192   1.966   0.267  0.3301 -0.1758  0.0111
  342MOL0     H45105   8.280   2.112   0.249  0.6767  0.0187  0.6411
  342MOL0     H45106   8.189   2.299   0.229 -0.2899 -2.4814  1.7117
  342MOL0     H45107   8.024   2.467   0.133  2.3584 -1.4814 -1.1327
  342MOL0     H45108   7.519   2.583   0.051  0.3799  0.0236 -0.0581
  342MOL0     H45109   7.335   2.724   0.049  3.9208  2.1691  0.2700
  342MOL0     H45110   7.088   2.738   0.099  1.3689 -0.4107  0.8244
  342MOL0     H45111   7.015   2.883   0.175 -0.1021  0.6847 -1.0500
  342MOL0     H45112   6.995   2.753   0.394 -1.6377  0.5616  0.1242
  342MOL0     H45113   7.074   2.613   0.327  1.1304  1.9394  2.2160
  342MOL0     H45114   6.884   2.590   0.165  0.6808  0.3192  0.2466
  342MOL0     H45115   6.815   2.746   0.226  0.7312  0.8628 -0.2483
  342MOL0     H45116   6.866   2.475   0.376  0.8156  0.8253  3.6064
  342MOL0     H45117   6.816   2.622   0.454  1.0291  0.6242  0.0831
  342MOL0     H45118   6.611   2.652   0.328  0.7743  0.0215  1.5540
  342MOL0     H45119   6.613   2.495   0.409 -0.2744 -3.7685 -2.0716
  342MOL0     H45120   6.701   2.386   0.197 -1.1547 -1.1798 -0.6649
  342MOL0     H45121   6.648   2.529   0.112 -0.4933 -0.2917  0.3990
  342MOL0     H45122   6.467   2.359   0.285 -2.0387 -0.2272 -0.4418
  342MOL0     H45123   6.423   2.520   0.208  2.4113  1.9007 -1.9712
  342MOL0     H45124   6.499   2.272   0.060  1.6515  1.1142 -0.4311
  342MOL0     H45125   6.441   2.418  -0.017  0.6680  0.7564  0.2917
  342MOL0     H45126   7.306   2.767   0.470 -1.5107 -1.1899  0.0037
  342MOL0     H45127   7.526   2.611   0.488  2.9243  0.8345 -1.3222
  342MOL0     H45128   7.732   2.281   0.399  1.4783 -1.4237  2.8532
  342MOL0     H45129   7.896   2.122   0.463  2.7854 -0.2302  0.0364
  342MOL0     H45130   9.364   0.801   0.470 -0.8116  1.0563  1.1339
  342MOL0     H45131   9.607   0.761   0.421  0.3197 -0.1959  2.0021
  342MOL0     H45132  10.118   0.847   0.784 -1.1794  2.3199 -0.4703
  342MOL0     H45133  10.357   0.849   0.700  1.0264 -0.3772 -0.9798
  342MOL0     H45134  10.409   0.967   0.286  1.9966  0.7340 -0.8014
  342MOL0     H45135  10.422   0.794   0.268  1.5047  0.1167 -1.4453
  342MOL0     H45136  10.638   0.892   0.214 -1.7076  2.7154 -1.3020
  342MOL0     H45137  10.627   1.006   0.344 -0.6496 -0.1463 -0.2073
  342MOL0     H45138  10.760   0.768   0.325 -1.4982 -3.0335 -0.5918
  342MOL0     H45139  10.630   0.708   0.425 -1.8118  0.5054 -0.7289
  342MOL0     H45140  10.804   0.964   0.473 -0.7885  1.7539  2.8799
  342MOL0     H45141  10.684   0.903   0.586 -0.3314  2.0602 -1.1456
  342MOL0     H45142  11.042   0.713   0.669  1.9972  0.8614 -0.7505
  342MOL0     H45143  10.205   0.911   0.303  0.7378 -0.3880 -0.4335
  342MOL0     H45144   9.980   0.900   0.385 -0.8856  2.5863  1.0461
  343MOL0     O45145   5.710   5.247   8.334 -0.5561 -0.0780  0.5963
  343MOL0     C45146   5.766   5.168   8.252  0.6426  0.8366 -0.0492
  343MOL0     O45147   5.702   5.057   8.194  0.3807  0.0026  0.4342
  343MOL0     C45148   5.591   5.010   8.269  0.1296 -0.1991  1.0890
  343MOL0     C45149   5.590   4.872   8.298 -0.9747  0.0584  0.0002
  343MOL0     C45150   5.484   4.816   8.373  0.7062  0.4959  0.5122
  343MOL0     C45151   5.376   4.901   8.404  0.3729  0.5335 -0.7244
  343MOL0     O45152   5.269   4.853   8.477 -0.5323  0.3575  0.9681
  343MOL0     C45153   5.297   4.742   8.562  0.1645  0.0810  0.0965
  343MOL0     C45154   5.149   4.705   8.599  0.1886  0.8881  0.5063
  343MOL0     C45155   5.078   4.806   8.696 -0.4025 -0.3404 -0.1418
  343MOL0     C45156   4.931   4.763   8.719  0.5861  0.4387  0.3229
  343MOL0     C45157   4.862   4.839   8.830 -0.6521 -0.4405 -0.6638
  343MOL0     C45158   4.735   4.760   8.874 -0.4511  0.9728  0.0099
  343MOL0     C45159   4.641   4.834   8.969 -0.8423 -0.1031 -0.1310
  343MOL0     C45160   4.593   4.967   8.905 -0.6081  1.2785 -0.0073
  343MOL0     N45161   4.490   5.029   8.981  0.9263 -0.5745 -0.8064
  343MOL0     C45162   4.496   5.160   9.034  0.1829 -0.3936 -0.4546
  343MOL0     C45163   4.371   5.183   9.071  0.2296 -0.5791  0.0698
  343MOL0     C45164   4.329   5.311   9.146  0.5467  0.6296 -0.6520
  343MOL0     C45165   4.373   5.320   9.292 -0.3380  0.1288 -0.0387
  343MOL0     C45166   4.326   5.214   9.389  0.7301  0.4452  0.9221
  343MOL0     C45167   4.170   5.173   9.365 -0.3339  0.3173 -0.6022
  343MOL0     O45168   4.141   5.088   9.475  0.6177 -0.5269  0.2731
  343MOL0     C45169   4.016   5.083   9.517  0.8165 -0.0234 -0.5167
  343MOL0     C45170   3.900   5.069   9.437  0.1737  0.2013 -1.3673
  343MOL0     C45171   3.765   5.058   9.480 -1.0698 -0.0687 -0.8815
  343MOL0     C45172   3.743   5.074   9.620 -0.4157  0.3125  0.6341
  343MOL0     C45173   3.604   5.059   9.682  0.3467  0.4979  0.5511
  343MOL0     O45174   3.505   5.012   9.602  0.0112 -0.0896  0.3774
  343MOL0     C45175   3.377   5.007   9.653 -0.6561  0.5570  0.1567
  343MOL0     C45176   3.298   4.900   9.612 -0.1665  0.8767  0.0769
  343MOL0     C45177   3.167   4.883   9.655 -0.2295 -0.3205 -0.7009
  343MOL0     C45178   3.110   4.981   9.736  0.1571 -0.8325 -0.4583
  343MOL0     O45179   2.976   4.957   9.774 -0.2793 -0.7044  0.7741
  343MOL0     C45180   2.938   5.024   9.893  0.1105 -0.0005 -0.3753
  343MOL0     C45181   2.795   4.985   9.941 -0.1948  0.8538 -0.2973
  343MOL0     C45182   2.774   4.836   9.980 -0.2100  0.4770  0.5583
  343MOL0     C45183   2.632   4.803   9.959  0.2173 -0.5672  0.5453
  343MOL0     C45184   2.585   4.667  10.019  0.2523 -0.2579 -0.0812
  343MOL0     C45185   2.554   4.684  10.168  0.6857 -0.0368 -0.5602
  343MOL0     C45186   2.515   4.558  10.235 -0.3525  0.3914 -0.4838
  343MOL0     C45187   2.499   4.578  10.388  0.1675  0.5042  0.3952
  343MOL0    Cl45188   2.478   4.421  10.455 -0.3669 -0.1664 -0.2184
  343MOL0     C45189   3.189   5.087   9.778  0.3996 -0.1176 -0.4383
  343MOL0     C45190   3.319   5.104   9.733 -0.1047  0.0920  0.1765
  343MOL0     O45191   3.588   5.090   9.799 -0.0810 -0.4879 -0.1674
  343MOL0     C45192   3.860   5.090   9.699  0.0078 -0.3011 -1.5219
  343MOL0     C45193   3.989   5.097   9.654 -0.3636  0.3396 -0.1467
  343MOL0     N45194   4.289   5.077   9.038  0.0600  0.2462 -0.2821
  343MOL0     N45195   4.365   4.988   8.982 -0.2867 -0.9776  0.2293
  343MOL0     C45196   5.367   5.034   8.359  0.0560 -0.7459  0.9709
  343MOL0     C45197   5.475   5.087   8.281 -0.4062 -0.1232 -0.2407
  343MOL0     C45198   5.905   5.207   8.220  0.5039  0.3586 -0.3450
  343MOL0     C45199   5.953   5.185   8.092  0.0524 -0.2275 -0.2927
  343MOL0     C45200   6.090   5.209   8.064 -0.2412 -0.5254 -0.1777
  343MOL0     C45201   6.171   5.266   8.160 -0.9987 -0.0474  0.3813
  343MOL0     O45202   6.312   5.284   8.144 -0.8313  0.2658 -0.4908
  343MOL0     C45203   6.372   5.276   8.020  0.7370  0.1784  0.0059
  343MOL0     C45204   6.337   5.402   7.930  0.0837 -1.1452  0.5790
  343MOL0     C45205   6.423   5.527   7.968  0.0405  0.1879  0.0831
  343MOL0     C45206   6.345   5.664   7.979  0.0503  0.9230 -0.6154
  343MOL0     C45207   6.252   5.641   8.092 -0.3101 -0.3280 -0.5320
  343MOL0     C45208   6.170   5.610   8.179  0.7947  0.3507 -0.0957
  343MOL0     C45209   6.116   5.290   8.289 -0.0618  0.1397  0.0136
  343MOL0     C45210   5.983   5.269   8.318  0.6927 -0.0765  0.1096
  343MOL0     H45211   5.671   4.806   8.269  0.6120  0.2291  3.5813
  343MOL0     H45212   5.480   4.708   8.387 -2.7176 -0.1265 -3.2420
  343MOL0     H45213   5.358   4.779   8.645 -0.4749  0.8269  0.2506
  343MOL0     H45214   5.336   4.651   8.516 -1.8536 -1.5344  1.3841
  343MOL0     H45215   5.154   4.610   8.653 -3.2674  1.9816  3.0926
  343MOL0     H45216   5.088   4.696   8.508  0.1792  1.8303  0.4138
  343MOL0     H45217   5.074   4.901   8.643  2.4401  0.8894  1.6717
  343MOL0     H45218   5.135   4.812   8.789 -0.6162 -2.0463  0.1454
  343MOL0     H45219   4.887   4.783   8.620  0.0516 -4.0300 -0.5655
  343MOL0     H45220   4.937   4.656   8.741  2.4921  0.6803  1.1248
  343MOL0     H45221   4.848   4.945   8.810  1.7770  0.6996  2.7576
  343MOL0     H45222   4.925   4.829   8.918  0.1189 -0.1630 -1.1794
  343MOL0     H45223   4.754   4.658   8.909 -3.4183  0.1608 -0.4015
  343MOL0     H45224   4.681   4.731   8.783  0.4036 -0.4816 -0.0683
  343MOL0     H45225   4.565   4.766   9.008 -1.0632  1.1600  1.7933
  343MOL0     H45226   4.707   4.853   9.054 -2.7953 -1.5345  1.8230
  343MOL0     H45227   4.560   4.934   8.807  1.8334  1.0969 -0.8303
  343MOL0     H45228   4.686   5.026   8.901  1.0286 -1.1843 -0.5013
  343MOL0     H45229   4.580   5.228   9.047 -1.0121  0.6707  2.7716
  343MOL0     H45230   4.223   5.331   9.127  0.2068 -0.1115  0.3937
  343MOL0     H45231   4.385   5.391   9.097  0.5162  1.0842  0.0520
  343MOL0     H45232   4.353   5.421   9.328  0.6572  0.7149 -1.0654
  343MOL0     H45233   4.482   5.324   9.293 -0.3648  0.8939  0.5446
  343MOL0     H45234   4.394   5.129   9.377  0.7538  0.7267 -1.4269
  343MOL0     H45235   4.320   5.253   9.490 -0.9196 -1.6282  1.7000
  343MOL0     H45236   4.164   5.115   9.273  0.4955 -2.5819  1.0271
  343MOL0     H45237   4.095   5.252   9.355 -3.7215 -2.7500 -1.7929
  343MOL0     H45238   3.931   5.071   9.333  1.1611 -1.0705 -1.1251
  343MOL0     H45239   3.680   5.041   9.415 -2.7282  0.7436  0.9404
  343MOL0     H45240   3.343   4.822   9.552 -0.1868  0.6153  0.3983
  343MOL0     H45241   3.113   4.796   9.620  1.3533 -2.2026  1.2054
  343MOL0     H45242   2.937   5.133   9.888 -3.5155  0.0688 -1.1595
  343MOL0     H45243   3.003   4.990   9.974 -1.9647 -2.0279  0.5625
  343MOL0     H45244   2.737   5.012   9.852  2.0685  0.0232 -2.1173
  343MOL0     H45245   2.759   5.041  10.028 -1.6732  1.6314 -1.3549
  343MOL0     H45246   2.796   4.808  10.083  0.0538  0.6778  0.5555
  343MOL0     H45247   2.840   4.776   9.917 -2.4108 -1.8732  0.2805
  343MOL0     H45248   2.569   4.876  10.011  1.1608 -0.4509  1.5910
  343MOL0     H45249   2.607   4.806   9.853  1.9075 -1.2492  0.0888
  343MOL0     H45250   2.653   4.583  10.000 -0.6021 -0.7079 -1.2669
  343MOL0     H45251   2.486   4.638   9.982 -0.4635  0.8237  0.9260
  343MOL0     H45252   2.477   4.762  10.179  1.1104  0.2337  0.6241
  343MOL0     H45253   2.645   4.715  10.220  0.5644 -0.2488 -0.2218
  343MOL0     H45254   2.418   4.513  10.212 -0.6344 -0.6280  2.2430
  343MOL0     H45255   2.599   4.492  10.209 -0.1036  0.0265  1.1073
  343MOL0     H45256   2.414   4.642  10.416 -1.4556 -1.2600 -0.2632
  343MOL0     H45257   2.594   4.618  10.423  0.7330 -1.2525  0.9975
  343MOL0     H45258   3.143   5.179   9.812  0.0512 -0.6886  0.6819
  343MOL0     H45259   3.374   5.197   9.747  2.0850 -1.1131 -0.0158
  343MOL0     H45260   3.843   5.108   9.805  0.9549 -0.4633 -1.3362
  343MOL0     H45261   4.072   5.102   9.724  1.7577  3.6980 -2.5640
  343MOL0     H45262   5.283   5.101   8.378  1.0469  0.0764  2.7107
  343MOL0     H45263   5.487   5.188   8.244  0.7293 -0.4776 -0.8832
  343MOL0     H45264   5.887   5.148   8.014  2.5512 -1.2985 -2.0187
  343MOL0     H45265   6.108   5.185   7.960  0.1901 -4.0933  0.6052
  343MOL0     H45266   6.344   5.180   7.975 -0.9675 -0.8535  2.9842
  343MOL0     H45267   6.479   5.279   8.039  0.5053  1.1883  1.2578
  343MOL0     H45268   6.352   5.371   7.827 -2.7481  0.4538 -0.4238
  343MOL0     H45269   6.231   5.429   7.926  0.2334 -0.5174 -4.2693
  343MOL0     H45270   6.498   5.541   7.889  2.5764 -1.6844  2.0014
  343MOL0     H45271   6.485   5.496   8.052  0.8594 -1.2396 -0.9856
  343MOL0     H45272   6.419   5.743   7.993  1.5633 -0.7004  1.2398
  343MOL0     H45273   6.290   5.685   7.888  0.2849  0.1651 -0.9427
  343MOL0     H45274   6.116   5.569   8.262 -0.0831  0.4549 -0.6143
  343MOL0     H45275   6.188   5.326   8.362 -0.7278  0.0266  0.7352
  343MOL0     H45276   5.949   5.294   8.418  0.5133  1.2296 -0.2609
  344MOL0     O45277   9.230   1.113   6.066 -0.0299 -0.0099 -1.0152
  344MOL0     C45278   9.282   1.226   6.093  0.1041 -0.6352 -0.5730
  344MOL0     O45279   9.211   1.345   6.100 -0.4009 -0.1088  0.4164
  344MOL0     C45280   9.084   1.366   6.063 -0.3388  0.6689 -0.2411
  344MOL0     C45281   8.983   1.268   6.042 -0.6005 -0.1693 -0.5824
  344MOL0     C45282   8.856   1.310   6.007 -0.1850 -0.5411  0.8579
  344MOL0     C45283   8.822   1.445   5.986  0.8074  0.3373 -0.9977
  344MOL0     O45284   8.690   1.481   5.958  0.2443  0.1421  0.5880
  344MOL0     C45285   8.588   1.427   6.034  0.0190  0.6457 -0.0481
  344MOL0     C45286   8.455   1.494   6.012  0.1379 -0.0520  0.1755
  344MOL0     C45287   8.339   1.436   6.091 -0.1166  0.1958 -0.1961
  344MOL0     C45288   8.206   1.493   6.054  0.2082  0.0056 -0.0906
  344MOL0     C45289   8.087   1.402   6.097  0.3472 -0.2316  0.1636
  344MOL0     C45290   8.089   1.384   6.245  0.7521  0.3859 -0.1607
  344MOL0     C45291   7.960   1.321   6.306  0.0490 -0.1548  0.0158
  344MOL0     C45292   7.977   1.316   6.455 -0.5561 -0.2000  0.3592
  344MOL0     N45293   7.864   1.257   6.513 -0.6477  0.5240 -0.1034
  344MOL0     C45294   7.840   1.123   6.551 -0.4070  0.3001  0.1932
  344MOL0     C45295   7.710   1.121   6.589  1.0241 -1.4511 -1.1699
  344MOL0     C45296   7.628   1.002   6.639  0.1419 -0.0155 -0.7179
  344MOL0     C45297   7.565   0.925   6.524 -0.7304  0.1835 -0.2343
  344MOL0     C45298   7.468   0.815   6.557 -0.5706  0.4070 -0.2369
  344MOL0     C45299   7.343   0.866   6.622 -0.2559 -0.5106 -0.0754
  344MOL0     O45300   7.285   0.746   6.660 -0.6533 -0.9002 -0.3735
  344MOL0     C45301   7.181   0.731   6.749  0.6330 -0.3536 -0.3614
  344MOL0     C45302   7.184   0.623   6.838  0.4779 -0.0295  0.5498
  344MOL0     C45303   7.076   0.598   6.920 -0.9332 -0.6248 -0.6972
  344MOL0     C45304   6.958   0.679   6.920  0.6958 -0.5006 -0.1769
  344MOL0     C45305   6.839   0.656   7.007 -1.0292  0.3272 -0.7497
  344MOL0     O45306   6.729   0.729   6.990 -0.0797 -0.0747 -0.2487
  344MOL0     C45307   6.607   0.701   7.051 -0.2042  0.0947  0.4802
  344MOL0     C45308   6.574   0.605   7.148 -0.3128  0.0273 -0.0339
  344MOL0     C45309   6.452   0.617   7.222  0.3946  0.5412  0.3244
  344MOL0     C45310   6.349   0.702   7.174 -0.1572 -0.6967  0.3124
  344MOL0     O45311   6.222   0.706   7.217  0.1795 -0.1514  0.3673
  344MOL0     C45312   6.167   0.574   7.214  0.1061  0.0123 -0.0890
  344MOL0     C45313   6.013   0.590   7.207  0.3220  0.1970  1.2092
  344MOL0     C45314   5.988   0.601   7.054  0.6933 -0.0272  0.1615
  344MOL0     C45315   5.834   0.635   7.047  0.0144  0.8425  0.4894
  344MOL0     C45316   5.796   0.739   6.942 -0.3544 -0.7577  0.1015
  344MOL0     C45317   5.830   0.685   6.802  1.0680 -0.5126  0.4089
  344MOL0     C45318   5.789   0.780   6.696 -0.2276 -0.1836  0.5087
  344MOL0     C45319   5.829   0.733   6.554 -0.3020 -0.7083  0.6888
  344MOL0    Cl45320   5.797   0.557   6.529  0.3183  0.3450 -0.1015
  344MOL0     C45321   6.378   0.792   7.075 -0.2988 -0.2799  1.2700
  344MOL0     C45322   6.505   0.795   7.009 -0.5239  1.3964 -0.3335
  344MOL0     O45323   6.854   0.570   7.096  0.9908 -0.1668  0.5528
  344MOL0     C45324   6.964   0.788   6.824 -0.4200  0.2966 -0.0478
  344MOL0     C45325   7.075   0.824   6.757 -0.4179  0.0733 -0.5830
  344MOL0     N45326   7.650   1.243   6.562 -0.1432 -0.7047  0.9768
  344MOL0     N45327   7.744   1.316   6.512  0.0453 -0.4829 -0.6330
  344MOL0     C45328   8.917   1.541   6.008 -0.0610 -0.1846 -0.4670
  344MOL0     C45329   9.048   1.502   6.042  0.0112 -0.2390  0.4991
  344MOL0     C45330   9.433   1.234   6.106 -0.9663 -0.2136  0.1039
  344MOL0     C45331   9.524   1.124   6.082  0.2355 -0.0467  0.2172
  344MOL0     C45332   9.654   1.141   6.074  0.5844 -0.2294  0.4027
  344MOL0     C45333   9.712   1.264   6.104  0.6192  0.5513 -0.1341
  344MOL0     O45334   9.847   1.272   6.112 -0.0482 -0.0804 -0.5220
  344MOL0     C45335   9.900   1.243   6.239  0.0367  0.7192  0.5340
  344MOL0     C45336   9.988   1.366   6.284  0.6267 -0.0063 -0.5735
  344MOL0     C45337  10.130   1.373   6.222  0.3342 -0.3471  0.1419
  344MOL0     C45338  10.234   1.279   6.280 -0.0717 -0.8136 -0.3443
  344MOL0     C45339  10.360   1.296   6.211  0.3280 -0.0298 -0.6576
  344MOL0     C45340  10.461   1.299   6.150  1.0485  0.0235 -0.0972
  344MOL0     C45341   9.633   1.373   6.132 -0.1835  0.3978  0.7411
  344MOL0     C45342   9.490   1.361   6.130  0.0743 -0.3796 -0.7682
  344MOL0     H45343   9.010   1.167   6.072  2.9188  1.0719  0.9986
  344MOL0     H45344   8.781   1.234   5.996 -2.5972  2.0326 -3.5037
  344MOL0     H45345   8.613   1.440   6.139  0.7571  1.9085 -0.3587
  344MOL0     H45346   8.575   1.323   6.004  0.7129  1.1361 -2.2260
  344MOL0     H45347   8.422   1.486   5.908 -1.9933 -1.0835  0.8774
  344MOL0     H45348   8.450   1.602   6.029  0.9691 -0.2107  1.5799
  344MOL0     H45349   8.359   1.444   6.198  0.7850  2.4579 -0.4764
  344MOL0     H45350   8.335   1.332   6.059 -0.0865  1.0746 -3.3644
  344MOL0     H45351   8.190   1.596   6.086  1.3925 -0.0392  0.6842
  344MOL0     H45352   8.192   1.491   5.945 -0.7293  0.6118  0.0061
  344MOL0     H45353   8.098   1.308   6.042  2.4113 -1.1639  2.0568
  344MOL0     H45354   7.997   1.446   6.052  0.4218 -1.8855 -1.7995
  344MOL0     H45355   8.091   1.486   6.285  2.6795 -0.3108  1.7129
  344MOL0     H45356   8.178   1.332   6.282  1.5955  1.4895 -0.5992
  344MOL0     H45357   7.870   1.380   6.287  0.5056  0.0832 -1.5431
  344MOL0     H45358   7.940   1.223   6.261  1.5988  0.5430 -2.3563
  344MOL0     H45359   7.996   1.414   6.502 -0.4510 -0.3249  0.5817
  344MOL0     H45360   8.062   1.255   6.487  1.1616  0.2739 -2.9172
  344MOL0     H45361   7.899   1.032   6.554 -1.7662 -0.7063 -1.4026
  344MOL0     H45362   7.546   1.041   6.701  0.9036  1.9934 -0.9090
  344MOL0     H45363   7.703   0.944   6.692 -0.4482  0.4843  0.7120
  344MOL0     H45364   7.647   0.886   6.464 -1.2414  0.3804 -1.0658
  344MOL0     H45365   7.513   0.995   6.458  1.9822 -0.0020 -2.7595
  344MOL0     H45366   7.428   0.760   6.471 -0.2175  1.0877 -0.8450
  344MOL0     H45367   7.511   0.729   6.610 -0.2680  1.6507  1.5979
  344MOL0     H45368   7.277   0.928   6.560  1.5692  0.1882 -1.4206
  344MOL0     H45369   7.363   0.931   6.708  1.3637 -0.3945 -0.5122
  344MOL0     H45370   7.267   0.553   6.839 -0.3296 -1.0086  1.2079
  344MOL0     H45371   7.076   0.503   6.973 -1.1420  0.4971  1.4029
  344MOL0     H45372   6.646   0.532   7.183  0.6652  2.0662  2.5115
  344MOL0     H45373   6.436   0.555   7.309 -2.5637  0.4997 -0.1411
  344MOL0     H45374   6.194   0.539   7.313 -1.2697 -1.6538 -0.2597
  344MOL0     H45375   6.211   0.492   7.156 -0.4609 -1.5411  1.5859
  344MOL0     H45376   5.983   0.678   7.265 -1.4354  0.6482 -0.3001
  344MOL0     H45377   5.962   0.499   7.239  3.0692 -1.9349 -0.0119
  344MOL0     H45378   6.002   0.514   6.989 -0.9212  0.5896 -1.0837
  344MOL0     H45379   6.045   0.682   7.005  0.2239 -0.9433 -2.0333
  344MOL0     H45380   5.777   0.542   7.050  1.1171 -0.0431 -2.1410
  344MOL0     H45381   5.808   0.698   7.132 -1.0516  1.6290 -0.3961
  344MOL0     H45382   5.833   0.841   6.954  0.7742 -0.8624 -2.0543
  344MOL0     H45383   5.688   0.757   6.951  0.1817  2.8757  0.7782
  344MOL0     H45384   5.775   0.592   6.784  0.5476  0.0428 -1.0083
  344MOL0     H45385   5.936   0.666   6.779  0.9291  0.6868 -1.4593
  344MOL0     H45386   5.680   0.793   6.690 -0.5713 -2.4413  1.0419
  344MOL0     H45387   5.832   0.879   6.715  2.5739 -0.6662 -2.4285
  344MOL0     H45388   5.939   0.740   6.552 -0.3532  0.4243  1.2123
  344MOL0     H45389   5.778   0.793   6.479 -3.0891 -1.9484  1.4852
  344MOL0     H45390   6.300   0.860   7.045 -0.2310 -1.7554 -2.9592
  344MOL0     H45391   6.543   0.875   6.946  1.4700  1.2209  0.5593
  344MOL0     H45392   6.884   0.859   6.808  2.2300  3.1351 -1.8342
  344MOL0     H45393   7.073   0.918   6.703 -0.1103  0.5059  0.1373
  344MOL0     H45394   8.894   1.646   5.988 -1.3497 -0.1866  0.8148
  344MOL0     H45395   9.125   1.574   6.068 -0.0125 -0.8570  2.4065
  344MOL0     H45396   9.478   1.025   6.076 -0.7917  0.1685  3.0551
  344MOL0     H45397   9.722   1.066   6.035  2.6050  1.5508  0.2592
  344MOL0     H45398   9.958   1.151   6.240 -2.4209 -0.9252  0.7290
  344MOL0     H45399   9.817   1.227   6.309 -0.7636  2.8377  0.1733
  344MOL0     H45400   9.931   1.459   6.271  1.9873  1.4436  2.6742
  344MOL0     H45401   9.994   1.356   6.393 -2.4384  0.0364 -0.3198
  344MOL0     H45402  10.170   1.475   6.232  0.6877  0.2959 -5.1361
  344MOL0     H45403  10.108   1.349   6.118 -2.0773 -0.9252  0.7168
  344MOL0     H45404  10.241   1.307   6.385  0.9654 -0.1524 -0.5768
  344MOL0     H45405  10.200   1.176   6.267 -2.0461 -0.4197  1.1638
  344MOL0     H45406  10.560   1.303   6.110  0.8523  0.0151 -0.5927
  344MOL0     H45407   9.692   1.460   6.158  0.1162 -0.1286  1.9189
  344MOL0     H45408   9.424   1.446   6.139  0.9885  0.2053  0.7744
  345MOL0     O45409   7.269  10.773   3.924 -0.0226  0.1348 -0.8891
  345MOL0     C45410   7.245  10.878   3.990  0.6989  0.2703  0.5997
  345MOL0     O45411   7.337  10.973   4.026  0.4449 -1.1361 -0.5155
  345MOL0     C45412   7.470  10.939   4.025  0.0659 -1.0773  0.0961
  345MOL0     C45413   7.527  10.919   4.147  0.0070  0.2022  0.0655
  345MOL0     C45414   7.663  10.881   4.150  0.3946  0.6394  0.8534
  345MOL0     C45415   7.740  10.876   4.031 -0.2766 -1.0162 -0.3916
  345MOL0     O45416   7.873  10.874   4.040 -0.2563  0.0842 -1.3309
  345MOL0     C45417   7.935  10.762   3.982 -0.6188  1.4415  0.1616
  345MOL0     C45418   8.092  10.780   4.028 -0.0345 -0.6276  0.8401
  345MOL0     C45419   8.117  10.764   4.181  0.3760  0.2947 -0.2171
  345MOL0     C45420   8.070  10.629   4.229  0.5194  0.4765 -0.7712
  345MOL0     C45421   8.107  10.611   4.373  0.4132  0.7916  0.0009
  345MOL0     C45422   8.225  10.519   4.390  0.4273 -0.5750  0.5020
  345MOL0     C45423   8.271  10.496   4.537 -0.6214  0.0607 -0.5039
  345MOL0     C45424   8.187  10.399   4.628  0.7074  0.2745 -0.0698
  345MOL0     N45425   8.273  10.343   4.733 -0.0825 -0.1728 -0.5645
  345MOL0     C45426   8.271  10.378   4.869  0.2909  0.8159  0.9599
  345MOL0     C45427   8.349  10.290   4.932  0.1957  0.3736 -0.3370
  345MOL0     C45428   8.378  10.259   5.076  0.8027  0.4609  0.0499
  345MOL0     C45429   8.249  10.214   5.155  0.5192 -0.3150 -0.0408
  345MOL0     C45430   8.281  10.133   5.286 -0.4804  0.1977  0.0736
  345MOL0     C45431   8.151  10.074   5.344  0.6542  0.3521  0.3594
  345MOL0     O45432   8.179  10.004   5.469  0.2956 -0.4667  0.0887
  345MOL0     C45433   8.070   9.950   5.537 -0.0232  0.1802  0.7336
  345MOL0     C45434   8.089   9.906   5.662  0.3024  0.4670  0.0524
  345MOL0     C45435   7.982   9.839   5.728  0.0452  0.4960 -0.0226
  345MOL0     C45436   7.857   9.815   5.670  0.4289 -0.2821 -0.6245
  345MOL0     C45437   7.755   9.728   5.737  0.5126  1.5859 -0.9081
  345MOL0     O45438   7.785   9.674   5.869  0.4457  0.6357 -0.7601
  345MOL0     C45439   7.726   9.562   5.919  0.3160 -0.1835 -0.4378
  345MOL0     C45440   7.648   9.456   5.854 -0.5434 -0.7309 -0.5259
  345MOL0     C45441   7.610   9.351   5.935 -0.5699  0.9305  0.4725
  345MOL0     C45442   7.633   9.340   6.069  0.3932 -0.4435 -0.9114
  345MOL0     O45443   7.587   9.217   6.129  1.1931  0.2088  0.3644
  345MOL0     C45444   7.633   9.195   6.262  1.3449 -0.8009 -0.5880
  345MOL0     C45445   7.537   9.252   6.366  0.3117 -0.2251 -0.7368
  345MOL0     C45446   7.395   9.199   6.360 -0.2499  0.3708 -0.2362
  345MOL0     C45447   7.305   9.238   6.471  0.3576 -0.1815  0.4687
  345MOL0     C45448   7.172   9.164   6.453  0.2401  0.5061 -0.5874
  345MOL0     C45449   7.185   9.010   6.487 -0.2158 -0.5824  0.3552
  345MOL0     C45450   7.048   8.947   6.494 -0.6861  0.6444  0.3159
  345MOL0     C45451   6.974   8.983   6.620 -0.1197 -0.6817  1.1139
  345MOL0    Cl45452   7.044   8.945   6.771 -0.3406 -0.0512 -0.0354
  345MOL0     C45453   7.716   9.438   6.132  0.2419  0.4932  0.1307
  345MOL0     C45454   7.752   9.546   6.059  0.3005 -0.4821  0.3273
  345MOL0     O45455   7.652   9.695   5.672 -0.2005  0.0460 -0.1649
  345MOL0     C45456   7.836   9.873   5.544  0.2134  0.1348  0.7084
  345MOL0     C45457   7.944   9.941   5.474  0.7205 -0.3199  0.1712
  345MOL0     N45458   8.390  10.196   4.833  0.3704 -0.2995  0.6827
  345MOL0     N45459   8.348  10.236   4.715  0.3145  0.7474  0.1923
  345MOL0     C45460   7.678  10.907   3.909 -0.4336 -0.1852 -0.2133
  345MOL0     C45461   7.546  10.928   3.905  0.0891  0.2003 -0.7565
  345MOL0     C45462   7.103  10.891   4.033 -0.1359 -0.6956  0.0101
  345MOL0     C45463   7.003  10.793   3.999 -0.7593 -1.1195 -0.3181
  345MOL0     C45464   6.867  10.816   4.035  0.9803 -0.2675 -0.5187
  345MOL0     C45465   6.824  10.935   4.093 -0.0144 -1.0975 -0.1806
  345MOL0     O45466   6.688  10.949   4.112  0.2646  0.2551  0.3194
  345MOL0     C45467   6.648  11.057   4.201  0.3296  0.1733  0.2012
  345MOL0     C45468   6.490  11.058   4.214 -0.2093  0.4293  0.1734
  345MOL0     C45469   6.440  11.106   4.351  0.7123  0.2968 -0.4512
  345MOL0     C45470   6.447  11.261   4.350 -0.7856  0.3817 -0.4677
  345MOL0     C45471   6.334  11.331   4.285  0.3589 -0.6670 -0.8806
  345MOL0     C45472   6.237  11.385   4.246  0.5982  0.5292 -0.1034
  345MOL0     C45473   6.922  11.032   4.126  0.1478 -0.8384 -0.6070
  345MOL0     C45474   7.064  11.011   4.093 -0.3486  0.1230 -0.7814
  345MOL0     H45475   7.461  10.921   4.233  0.3632  1.4330  0.3394
  345MOL0     H45476   7.732  10.876   4.234 -1.0115  2.1756  2.1721
  345MOL0     H45477   7.929  10.776   3.874  0.3316  1.0396  0.0438
  345MOL0     H45478   7.881  10.677   4.025 -0.4367  1.1113 -0.2571
  345MOL0     H45479   8.125  10.880   3.998 -1.0264  0.3475  2.7846
  345MOL0     H45480   8.150  10.704   3.977  0.3365  0.5049 -0.4997
  345MOL0     H45481   8.056  10.839   4.231 -1.7619 -1.5772  0.1135
  345MOL0     H45482   8.224  10.776   4.203  0.5302 -0.3744 -0.5579
  345MOL0     H45483   7.961  10.620   4.226  0.6200 -1.9099  0.1721
  345MOL0     H45484   8.112  10.552   4.163 -0.2909 -1.8102  1.2172
  345MOL0     H45485   8.011  10.575   4.411  0.0393  1.0738 -0.6636
  345MOL0     H45486   8.116  10.712   4.415 -0.4955  0.5207  0.8885
  345MOL0     H45487   8.307  10.561   4.331  0.0325 -1.5454 -0.7876
  345MOL0     H45488   8.204  10.425   4.337 -2.2296  0.2441 -0.0193
  345MOL0     H45489   8.375  10.460   4.532  0.1216  2.0336 -0.2307
  345MOL0     H45490   8.278  10.589   4.594  3.9592 -0.9022  0.9816
  345MOL0     H45491   8.160  10.317   4.561  1.8995 -0.8066  0.7214
  345MOL0     H45492   8.092  10.447   4.653  1.1518  1.1136  0.0542
  345MOL0     H45493   8.210  10.461   4.902 -3.7895 -1.2484 -0.6444
  345MOL0     H45494   8.420  10.354   5.111  3.0448  0.7734 -3.0913
  345MOL0     H45495   8.453  10.179   5.080 -0.7227 -1.0067  0.4054
  345MOL0     H45496   8.191  10.151   5.087 -1.1539  0.5614  0.5370
  345MOL0     H45497   8.177  10.291   5.185 -0.9890 -1.5360 -0.3848
  345MOL0     H45498   8.354  10.052   5.281 -1.0180 -0.2242 -2.2008
  345MOL0     H45499   8.326  10.208   5.352  0.0013 -2.2421  2.7391
  345MOL0     H45500   8.109  10.003   5.272  1.4377 -0.4301  0.6536
  345MOL0     H45501   8.076  10.154   5.342  0.9546  0.6327 -1.3641
  345MOL0     H45502   8.182   9.920   5.716 -1.0741  1.8869  2.1874
  345MOL0     H45503   8.005   9.796   5.825 -1.5166  1.8531  0.9912
  345MOL0     H45504   7.623   9.468   5.749 -1.3444  3.3598 -0.0635
  345MOL0     H45505   7.564   9.270   5.879  2.5057 -0.9195  0.3833
  345MOL0     H45506   7.734   9.232   6.282  0.6138  3.1146 -3.0722
  345MOL0     H45507   7.616   9.088   6.277 -2.2120 -0.1694  0.9437
  345MOL0     H45508   7.536   9.356   6.331  0.4838  0.0473  0.0414
  345MOL0     H45509   7.566   9.259   6.471  0.8855 -0.0130 -0.9031
  345MOL0     H45510   7.406   9.091   6.346 -1.2013  0.2366 -0.0225
  345MOL0     H45511   7.340   9.235   6.273 -2.3213 -0.0893  0.8051
  345MOL0     H45512   7.341   9.196   6.566 -1.0772  0.6253  1.4025
  345MOL0     H45513   7.297   9.346   6.453 -0.9232 -0.6139 -1.7952
  345MOL0     H45514   7.129   9.176   6.353  0.0254  0.9845 -0.4422
  345MOL0     H45515   7.094   9.206   6.517  0.5499 -0.4032  0.4096
  345MOL0     H45516   7.228   9.008   6.588  0.5726  2.7612  0.2115
  345MOL0     H45517   7.247   8.960   6.412  1.1250  2.1556 -0.5077
  345MOL0     H45518   6.987   8.956   6.404 -1.5769 -0.9109  0.7173
  345MOL0     H45519   7.065   8.839   6.502 -1.2068  0.4463 -1.0373
  345MOL0     H45520   6.874   8.940   6.606  0.0401 -0.7002 -0.1349
  345MOL0     H45521   6.944   9.088   6.617 -2.1215 -1.2264 -0.2645
  345MOL0     H45522   7.759   9.430   6.231  1.1596  0.9708 -0.2186
  345MOL0     H45523   7.806   9.628   6.104 -0.3626 -0.6736  1.5394
  345MOL0     H45524   7.743   9.869   5.489 -1.6515  2.8966  3.3449
  345MOL0     H45525   7.907   9.975   5.378 -1.6076 -5.2180 -0.9578
  345MOL0     H45526   7.726  10.907   3.812  1.4770 -4.0848  0.5450
  345MOL0     H45527   7.498  10.949   3.810  0.8326 -0.2610 -1.2424
  345MOL0     H45528   7.045  10.700   3.962  2.6620  0.3655 -0.6093
  345MOL0     H45529   6.793  10.740   4.011  0.0511  0.6244 -0.5549
  345MOL0     H45530   6.679  11.152   4.157 -0.7635  0.0539 -0.8873
  345MOL0     H45531   6.697  11.044   4.298  0.5808  2.9280  0.5213
  345MOL0     H45532   6.439  11.118   4.138  1.0310  0.7129 -0.4614
  345MOL0     H45533   6.456  10.955   4.199 -3.0308  1.2702  0.0567
  345MOL0     H45534   6.498  11.066   4.434 -0.4090  1.2458  0.8445
  345MOL0     H45535   6.336  11.072   4.362  1.1432 -2.4171 -3.3990
  345MOL0     H45536   6.457  11.290   4.456 -0.1734  0.6623 -0.5971
  345MOL0     H45537   6.527  11.307   4.291 -0.4115  2.8285  1.7558
  345MOL0     H45538   6.144  11.431   4.220  0.1718  0.8148  1.8127
  345MOL0     H45539   6.897  11.127   4.173 -0.5119 -1.8195  1.1170
  345MOL0     H45540   7.128  11.098   4.104  0.5224 -0.6591  0.6810
  346MOL0     O45541   2.419   8.322   5.489 -0.3364  0.1454 -0.0054
  346MOL0     C45542   2.439   8.250   5.391  0.6259  0.6092  1.0980
  346MOL0     O45543   2.352   8.227   5.291  0.3537 -0.6229 -0.7967
  346MOL0     C45544   2.222   8.269   5.308 -0.4194  0.6144  0.3104
  346MOL0     C45545   2.181   8.394   5.259  0.0135 -0.4990 -0.1063
  346MOL0     C45546   2.042   8.421   5.263 -0.1713 -0.3817 -0.6297
  346MOL0     C45547   1.947   8.322   5.315  0.1340 -0.1377 -0.0343
  346MOL0     O45548   1.827   8.380   5.335  1.0057  0.2419 -0.1006
  346MOL0     C45549   1.711   8.293   5.342  0.6437 -0.1203  0.0966
  346MOL0     C45550   1.586   8.383   5.340 -0.3172 -0.2333 -0.8426
  346MOL0     C45551   1.550   8.449   5.209 -0.0735  0.1888 -0.2050
  346MOL0     C45552   1.402   8.489   5.200  0.0866  1.0996  0.0253
  346MOL0     C45553   1.364   8.591   5.308  0.5322 -0.4161  0.4274
  346MOL0     C45554   1.220   8.642   5.281  0.3147 -0.2323  0.7915
  346MOL0     C45555   1.115   8.547   5.338  0.7999  0.0599  0.0970
  346MOL0     C45556   1.022   8.626   5.430  0.5059  0.7195  0.3170
  346MOL0     N45557   0.906   8.541   5.457  1.2215 -0.4263  0.5037
  346MOL0     C45558   0.867   8.511   5.584  0.5420 -0.0453 -0.4346
  346MOL0     C45559   0.744   8.462   5.575  1.2922  0.5319 -0.3654
  346MOL0     C45560   0.649   8.434   5.691  1.0480 -0.0750 -0.3485
  346MOL0     C45561   0.500   8.460   5.662 -0.0975 -0.4472 -0.1251
  346MOL0     C45562   0.436   8.364   5.555 -0.5951  0.4307 -0.4215
  346MOL0     C45563   0.285   8.334   5.588  0.0122 -0.2647  0.8617
  346MOL0     O45564   0.216   8.281   5.468 -0.1954 -0.4467 -0.7889
  346MOL0     C45565   0.078   8.276   5.474 -0.0652 -0.0274 -0.4781
  346MOL0     C45566   0.006   8.303   5.360  0.2759 -0.7050 -0.2839
  346MOL0     C45567  -0.140   8.289   5.363  0.3482  0.0562 -0.5365
  346MOL0     C45568  -0.206   8.245   5.479  0.2076 -0.3063  0.0028
  346MOL0     C45569  -0.350   8.224   5.480 -0.7133 -0.1525 -0.5539
  346MOL0     O45570  -0.415   8.149   5.586 -0.2462 -0.1599  0.2514
  346MOL0     C45571  -0.550   8.127   5.574 -0.4528  0.5288 -0.8436
  346MOL0     C45572  -0.608   8.044   5.476 -0.0199 -0.6700 -0.4236
  346MOL0     C45573  -0.748   8.007   5.472 -1.3758  0.2370  0.3250
  346MOL0     C45574  -0.831   8.053   5.571  0.0949 -0.8770  0.1383
  346MOL0     O45575  -0.963   8.006   5.560  0.0060 -0.2829  0.4527
  346MOL0     C45576  -1.065   8.084   5.623 -1.0015  0.0021  0.2601
  346MOL0     C45577  -1.208   8.041   5.573 -0.4676 -0.5227  0.1276
  346MOL0     C45578  -1.309   8.050   5.680  0.6768 -0.2483  0.3532
  346MOL0     C45579  -1.450   8.032   5.618 -0.0968  0.9673  0.3453
  346MOL0     C45580  -1.568   8.068   5.715 -0.7993 -0.8278 -0.2550
  346MOL0     C45581  -1.706   8.076   5.643 -0.0589  0.7011  0.1854
  346MOL0     C45582  -1.759   7.951   5.570  0.7735 -0.3684 -1.1128
  346MOL0     C45583  -1.749   7.820   5.654 -0.4158  0.1052 -0.9394
  346MOL0    Cl45584  -1.812   7.841   5.818 -0.0936 -0.5188 -0.1699
  346MOL0     C45585  -0.779   8.144   5.675 -0.3423  0.2481  0.7685
  346MOL0     C45586  -0.638   8.174   5.672 -0.1144 -0.9934  0.3488
  346MOL0     O45587  -0.407   8.276   5.391  1.2194 -0.9512 -0.7592
  346MOL0     C45588  -0.129   8.215   5.588  0.3070  0.2010 -0.0830
  346MOL0     C45589   0.012   8.235   5.588  0.2526 -0.7074  0.0119
  346MOL0     N45590   0.701   8.472   5.436  0.0457  0.4182 -0.8096
  346MOL0     N45591   0.798   8.523   5.369 -0.2635 -0.2835 -0.0038
  346MOL0     C45592   1.994   8.194   5.344  0.5978  0.3143 -0.2451
  346MOL0     C45593   2.132   8.168   5.345 -0.1220  0.3998 -0.0900
  346MOL0     C45594   2.571   8.200   5.367 -0.5742  0.6576  0.0142
  346MOL0     C45595   2.669   8.220   5.459 -0.6796  0.4823 -0.7366
  346MOL0     C45596   2.801   8.182   5.444  0.8259  0.2288 -0.3077
  346MOL0     C45597   2.836   8.115   5.327  0.6748 -0.8255 -0.2876
  346MOL0     O45598   2.963   8.065   5.306  0.8852 -0.0890  0.2793
  346MOL0     C45599   3.058   8.073   5.416  0.3691 -0.6678 -0.1927
  346MOL0     C45600   3.176   7.977   5.378 -0.1225  0.6941 -0.0884
  346MOL0     C45601   3.271   7.938   5.499  0.5358  0.1540 -0.2945
  346MOL0     C45602   3.406   7.892   5.440  0.6958 -1.1033 -0.6034
  346MOL0     C45603   3.476   8.021   5.400  0.0641  0.4559 -0.6631
  346MOL0     C45604   3.561   8.111   5.383 -0.2227 -0.7018  0.5373
  346MOL0     C45605   2.736   8.094   5.231  0.1204  0.6227 -1.3639
  346MOL0     C45606   2.606   8.121   5.261 -0.9662 -0.7208  0.4425
  346MOL0     H45607   2.258   8.466   5.235  0.6586 -0.1390  2.6839
  346MOL0     H45608   2.010   8.521   5.238  2.4078  0.3197 -1.4821
  346MOL0     H45609   1.707   8.237   5.436  1.3856  0.4681  0.4954
  346MOL0     H45610   1.715   8.220   5.261  1.4531  0.8357 -0.7693
  346MOL0     H45611   1.600   8.468   5.407  0.7337  0.4001 -1.8352
  346MOL0     H45612   1.504   8.318   5.375 -1.3980 -0.3125 -3.3052
  346MOL0     H45613   1.582   8.389   5.123 -0.0565 -1.7320  1.0814
  346MOL0     H45614   1.609   8.541   5.197  2.0517 -1.1708 -0.7774
  346MOL0     H45615   1.389   8.529   5.099 -0.8463 -4.2291 -2.3540
  346MOL0     H45616   1.340   8.399   5.204 -1.7705  2.1838 -2.0691
  346MOL0     H45617   1.440   8.669   5.304  1.2523 -1.1170  0.3622
  346MOL0     H45618   1.373   8.559   5.412  0.5129  0.5392  0.7358
  346MOL0     H45619   1.197   8.671   5.178  1.8714 -2.3624 -0.2305
  346MOL0     H45620   1.209   8.738   5.332  1.1640  0.9218 -1.1088
  346MOL0     H45621   1.070   8.502   5.248 -1.1720  0.1669  0.9891
  346MOL0     H45622   1.162   8.466   5.394  1.9679  0.4980 -0.2338
  346MOL0     H45623   0.989   8.721   5.388 -0.4499  0.9928  1.6441
  346MOL0     H45624   1.085   8.650   5.516  0.6663  1.3566  0.0233
  346MOL0     H45625   0.920   8.518   5.679  1.4501 -0.4394 -0.8993
  346MOL0     H45626   0.667   8.512   5.766  1.7290  2.0265 -2.5727
  346MOL0     H45627   0.668   8.334   5.729  0.9107  0.4610  1.1981
  346MOL0     H45628   0.483   8.563   5.631  1.1869 -0.3425 -0.5339
  346MOL0     H45629   0.448   8.443   5.757  2.2968 -2.6049  0.9302
  346MOL0     H45630   0.447   8.411   5.457 -0.6076  1.1418 -0.0961
  346MOL0     H45631   0.485   8.267   5.560 -0.2055  0.6765  2.5809
  346MOL0     H45632   0.233   8.424   5.622  2.8415  1.6412  0.4956
  346MOL0     H45633   0.281   8.258   5.667  0.6713 -0.9017  0.2981
  346MOL0     H45634   0.050   8.341   5.269 -1.8162  0.6527 -0.8037
  346MOL0     H45635  -0.208   8.306   5.281 -1.5258 -3.2874  0.1206
  346MOL0     H45636  -0.539   8.007   5.401 -1.1940 -0.8205 -1.4577
  346MOL0     H45637  -0.780   7.936   5.397  1.9842 -1.0116 -0.0910
  346MOL0     H45638  -1.048   8.190   5.605  0.8135 -0.3119 -0.0887
  346MOL0     H45639  -1.073   8.075   5.732 -4.3067  0.2077  0.1278
  346MOL0     H45640  -1.205   7.940   5.530  2.1135 -0.9527  1.1677
  346MOL0     H45641  -1.245   8.101   5.489 -2.2519 -2.5690 -0.6749
  346MOL0     H45642  -1.308   8.145   5.735 -1.1293 -1.1601  2.0949
  346MOL0     H45643  -1.297   7.972   5.755 -1.3889  0.2032  1.2129
  346MOL0     H45644  -1.466   8.089   5.527 -0.6483 -0.3713 -0.4258
  346MOL0     H45645  -1.461   7.928   5.588 -1.1926  0.0952  3.3464
  346MOL0     H45646  -1.548   8.164   5.764 -0.6941 -0.8674 -0.2199
  346MOL0     H45647  -1.561   7.990   5.792  1.2893  0.3492  0.8454
  346MOL0     H45648  -1.697   8.147   5.560 -1.3350 -0.6315 -1.1560
  346MOL0     H45649  -1.783   8.114   5.711  0.9144  1.3168  0.9711
  346MOL0     H45650  -1.863   7.974   5.544 -0.1974 -2.8801  0.2019
  346MOL0     H45651  -1.706   7.949   5.474  3.2461 -1.6684  0.1778
  346MOL0     H45652  -1.643   7.791   5.663 -0.3688  0.3378 -0.7467
  346MOL0     H45653  -1.809   7.744   5.603 -4.4048  1.3914  1.4074
  346MOL0     H45654  -0.838   8.178   5.759 -0.1465  1.3889  0.4538
  346MOL0     H45655  -0.586   8.226   5.751  1.0021 -1.6924  0.0896
  346MOL0     H45656  -0.174   8.175   5.679  0.0502 -0.6383 -0.5737
  346MOL0     H45657   0.057   8.206   5.682 -0.3308  0.3064  0.6116
  346MOL0     H45658   1.923   8.118   5.376 -0.0934  1.4344  1.0122
  346MOL0     H45659   2.165   8.073   5.387 -0.7013 -0.0398 -0.6114
  346MOL0     H45660   2.646   8.278   5.549 -0.0079 -2.0906  1.2189
  346MOL0     H45661   2.878   8.208   5.516  2.8483 -1.5872 -1.6886
  346MOL0     H45662   3.012   8.038   5.509 -2.4199  0.9646 -0.8670
  346MOL0     H45663   3.098   8.175   5.428  1.6396 -1.2540  0.8600
  346MOL0     H45664   3.143   7.885   5.329  1.7773 -0.1986  0.2390
  346MOL0     H45665   3.230   8.030   5.300 -0.3541  0.4461 -0.4210
  346MOL0     H45666   3.217   7.866   5.561  0.0562  0.9240  0.2035
  346MOL0     H45667   3.286   8.027   5.560  2.0141 -0.7344  0.7228
  346MOL0     H45668   3.463   7.852   5.524 -1.7593  0.5532  2.0451
  346MOL0     H45669   3.395   7.822   5.357  0.2808 -0.9079 -0.7148
  346MOL0     H45670   3.623   8.194   5.357 -1.2850  1.0660  3.1919
  346MOL0     H45671   2.752   8.024   5.150 -0.6091  0.4485 -1.3632
  346MOL0     H45672   2.528   8.097   5.189  0.1980 -2.4411 -0.3261
  347MOL0     O45673   2.484   9.506   9.882 -0.0330 -0.3403  0.1081
  347MOL0     C45674   2.560   9.560   9.794 -0.8963  0.1168 -1.0750
  347MOL0     O45675   2.529   9.603   9.672 -0.0992  0.6945 -0.0507
  347MOL0     C45676   2.400   9.635   9.656  1.0177  0.1676  0.4812
  347MOL0     C45677   2.339   9.746   9.718 -0.4937 -0.2642  0.2216
  347MOL0     C45678   2.201   9.764   9.723 -0.0288 -0.5850 -0.6981
  347MOL0     C45679   2.123   9.687   9.635 -0.7194 -0.7791 -1.2113
  347MOL0     O45680   1.990   9.710   9.625  0.3359  0.1424  0.0081
  347MOL0     C45681   1.923   9.821   9.693  0.6046 -1.0869  0.2403
  347MOL0     C45682   1.774   9.821   9.646 -0.4405  0.0393 -0.1792
  347MOL0     C45683   1.687   9.918   9.714  0.4393  0.5639  0.2832
  347MOL0     C45684   1.547   9.909   9.653 -0.0670  0.1066 -0.2057
  347MOL0     C45685   1.446   9.991   9.737  0.1375  0.1740  0.1605
  347MOL0     C45686   1.304   9.998   9.681  0.8836 -0.2317 -0.5329
  347MOL0     C45687   1.226   9.866   9.697 -0.7382 -0.2262  0.2813
  347MOL0     C45688   1.072   9.905   9.711 -0.3365  0.2338  0.2304
  347MOL0     N45689   1.023   9.953   9.581  0.2815 -0.0492 -1.3697
  347MOL0     C45690   0.981   9.868   9.482  0.0908 -0.1282 -0.6605
  347MOL0     C45691   0.897   9.935   9.403 -0.4127 -0.6687 -0.0570
  347MOL0     C45692   0.839   9.873   9.272  0.4167  0.5954 -0.3024
  347MOL0     C45693   0.859   9.727   9.266 -0.1258  0.9056 -0.0838
  347MOL0     C45694   0.766   9.662   9.162 -1.0664 -0.0451  1.0802
  347MOL0     C45695   0.634   9.643   9.227  0.1351  0.4664  0.3568
  347MOL0     O45696   0.548   9.582   9.129  0.1274  0.5455  0.1981
  347MOL0     C45697   0.424   9.531   9.179 -0.2072 -1.1366  0.0931
  347MOL0     C45698   0.347   9.471   9.087  1.0922 -0.0306  0.6111
  347MOL0     C45699   0.220   9.413   9.108  0.3264 -0.0964 -0.4837
  347MOL0     C45700   0.178   9.429   9.241  1.1318  0.1692  0.9201
  347MOL0     C45701   0.035   9.382   9.268  0.5157  0.0378 -0.2886
  347MOL0     O45702  -0.037   9.366   9.153  0.4236  0.5586 -0.3289
  347MOL0     C45703  -0.167   9.347   9.144 -0.2586  0.3155  0.1994
  347MOL0     C45704  -0.241   9.281   9.243  0.6138  0.7937 -0.6524
  347MOL0     C45705  -0.385   9.253   9.231 -0.4786  0.1687  0.0652
  347MOL0     C45706  -0.450   9.313   9.124 -0.3384 -0.9995 -0.8394
  347MOL0     O45707  -0.586   9.290   9.122  0.0155 -0.0878 -0.1815
  347MOL0     C45708  -0.660   9.396   9.058 -0.2408  1.3068  0.0103
  347MOL0     C45709  -0.796   9.386   9.133 -0.0127  0.0131 -0.2181
  347MOL0     C45710  -0.886   9.503   9.114  0.8269  0.0261  0.5675
  347MOL0     C45711  -1.033   9.477   9.163  0.1854 -0.6869 -0.0480
  347MOL0     C45712  -1.079   9.630   9.190 -0.2519  0.7663  0.1557
  347MOL0     C45713  -1.213   9.652   9.257 -0.1490 -0.2354 -0.4340
  347MOL0     C45714  -1.333   9.598   9.173  0.0468 -0.8485 -0.0314
  347MOL0     C45715  -1.342   9.663   9.033 -0.1895  0.2301 -0.5251
  347MOL0    Cl45716  -1.505   9.635   8.979 -0.6006  0.2867  0.6980
  347MOL0     C45717  -0.381   9.380   9.025  0.1009 -0.0401  0.0035
  347MOL0     C45718  -0.239   9.400   9.037  0.0600  0.0558 -0.4408
  347MOL0     O45719  -0.001   9.358   9.380  0.1648 -0.6917 -0.0905
  347MOL0     C45720   0.248   9.507   9.336 -0.0621  0.0747 -0.4763
  347MOL0     C45721   0.367   9.557   9.303  0.1832 -0.0095 -0.1171
  347MOL0     N45722   0.884  10.058   9.452  0.3363  0.1731 -0.2220
  347MOL0     N45723   0.964  10.075   9.556  0.4292 -0.1649  0.3128
  347MOL0     C45724   2.183   9.591   9.550  0.6475  0.8133 -0.9972
  347MOL0     C45725   2.321   9.567   9.562  0.1432  0.5209 -0.4231
  347MOL0     C45726   2.698   9.579   9.836  0.5030  0.1421 -0.0344
  347MOL0     C45727   2.761   9.491   9.921 -0.7930  0.3841  0.2242
  347MOL0     C45728   2.894   9.518   9.947 -0.0135  0.1526 -0.4530
  347MOL0     C45729   2.972   9.618   9.890  0.6748  0.3258  0.5817
  347MOL0     O45730   3.103   9.628   9.927  0.3845  0.6318 -0.7662
  347MOL0     C45731   3.188   9.716   9.849 -0.0880 -0.4646  0.5490
  347MOL0     C45732   3.327   9.714   9.908 -0.1281  0.4902  0.3298
  347MOL0     C45733   3.430   9.757   9.801  0.7905 -0.7255 -0.3317
  347MOL0     C45734   3.572   9.763   9.862 -0.7962 -0.2828  0.4157
  347MOL0     C45735   3.640   9.635   9.881  0.6401  0.7523  0.4724
  347MOL0     C45736   3.686   9.528   9.911 -0.0757 -0.2537  0.6194
  347MOL0     C45737   2.913   9.696   9.793  0.9379 -0.5200  0.5083
  347MOL0     C45738   2.773   9.679   9.772  0.6343 -0.9916 -0.2275
  347MOL0     H45739   2.413   9.817   9.753 -0.6912  0.0905 -0.0729
  347MOL0     H45740   2.161   9.849   9.779  1.2230  0.1991 -0.9537
  347MOL0     H45741   1.961   9.919   9.664 -3.4039  0.5053 -0.2872
  347MOL0     H45742   1.937   9.808   9.801 -0.0919 -3.1802  0.1123
  347MOL0     H45743   1.735   9.719   9.656 -1.3068  0.3269 -0.5785
  347MOL0     H45744   1.783   9.858   9.544  2.0115  1.2721  0.3986
  347MOL0     H45745   1.709  10.023   9.690 -2.3534  1.4631  1.2796
  347MOL0     H45746   1.692   9.902   9.822  2.9642 -1.4625 -0.0319
  347MOL0     H45747   1.555   9.948   9.551 -0.0975 -2.0816 -1.1084
  347MOL0     H45748   1.508   9.807   9.649  2.5374 -0.9924  0.0973
  347MOL0     H45749   1.482  10.094   9.740 -0.8784  0.5530 -0.3474
  347MOL0     H45750   1.452   9.952   9.840 -1.6702 -1.1710 -0.1892
  347MOL0     H45751   1.320  10.034   9.579 -2.0847 -1.5177 -1.5986
  347MOL0     H45752   1.254  10.079   9.734  1.3849  1.1908 -2.1425
  347MOL0     H45753   1.229   9.807   9.606 -2.6242  0.1557 -0.0668
  347MOL0     H45754   1.258   9.804   9.782  0.5807 -0.4315 -0.3322
  347MOL0     H45755   1.064   9.978   9.792  1.8521  2.9384 -1.7952
  347MOL0     H45756   1.012   9.816   9.731 -0.3157 -0.6645 -3.1363
  347MOL0     H45757   1.008   9.766   9.458 -0.1772 -0.1403 -0.9161
  347MOL0     H45758   0.881   9.927   9.187 -1.3110  1.7805 -0.4723
  347MOL0     H45759   0.731   9.894   9.280 -0.2336 -2.6045  0.7424
  347MOL0     H45760   0.848   9.683   9.366 -0.4850  5.0775  1.9252
  347MOL0     H45761   0.962   9.712   9.230 -0.3804  1.2524 -0.9621
  347MOL0     H45762   0.768   9.729   9.076 -1.9853  1.7808  2.4041
  347MOL0     H45763   0.818   9.570   9.134  4.8086  2.8405  1.0266
  347MOL0     H45764   0.586   9.731   9.271 -1.0308  0.0990 -0.1410
  347MOL0     H45765   0.658   9.569   9.305 -0.9814 -1.5407 -1.1244
  347MOL0     H45766   0.387   9.446   8.989 -2.5896 -0.9634 -0.8038
  347MOL0     H45767   0.162   9.371   9.027 -1.2260  2.8586 -1.0406
  347MOL0     H45768  -0.180   9.241   9.323  0.5956  0.0496 -1.0065
  347MOL0     H45769  -0.443   9.182   9.288  0.2997 -3.6073 -3.3266
  347MOL0     H45770  -0.684   9.382   8.952 -2.2939  2.5494  0.2745
  347MOL0     H45771  -0.608   9.492   9.065  1.3063  0.6036 -1.1525
  347MOL0     H45772  -0.766   9.382   9.238 -0.6108 -0.7418 -0.0668
  347MOL0     H45773  -0.854   9.295   9.111 -3.5874  0.7003  4.6156
  347MOL0     H45774  -0.890   9.517   9.006 -0.9559 -0.3679  0.5394
  347MOL0     H45775  -0.842   9.592   9.160  0.4351  0.0364  0.9311
  347MOL0     H45776  -1.097   9.434   9.085 -2.0428  1.1714  0.6463
  347MOL0     H45777  -1.038   9.426   9.260 -2.1765  1.9987  1.3827
  347MOL0     H45778  -1.079   9.685   9.095  0.4780 -2.0508 -1.6077
  347MOL0     H45779  -1.011   9.673   9.263 -1.8726 -0.1881  2.3336
  347MOL0     H45780  -1.228   9.759   9.272 -2.4365 -0.4975 -0.3621
  347MOL0     H45781  -1.222   9.600   9.354  0.7163 -2.8298 -1.6629
  347MOL0     H45782  -1.341   9.489   9.177  0.0419 -0.8219  1.4141
  347MOL0     H45783  -1.427   9.638   9.211  1.5792  2.6982  0.3825
  347MOL0     H45784  -1.264   9.635   8.962  0.2444  1.4392 -0.5350
  347MOL0     H45785  -1.340   9.770   9.053 -1.9682  0.1234  0.4283
  347MOL0     H45786  -0.424   9.433   8.941  1.0633  1.8930  0.6539
  347MOL0     H45787  -0.196   9.453   8.952 -0.4950  0.8802 -0.2262
  347MOL0     H45788   0.212   9.533   9.435  0.7163 -2.0889  0.4412
  347MOL0     H45789   0.419   9.623   9.372  2.3222 -2.6324  0.9328
  347MOL0     H45790   2.114   9.536   9.487 -2.3564  2.3285  0.7501
  347MOL0     H45791   2.371   9.489   9.505  2.7178  0.4596  1.6954
  347MOL0     H45792   2.718   9.397   9.956 -1.1680  0.1519 -0.8095
  347MOL0     H45793   2.938   9.465  10.031  0.3645  0.2319 -0.6037
  347MOL0     H45794   3.160   9.822   9.848 -0.8034 -0.6453 -0.2522
  347MOL0     H45795   3.191   9.683   9.744  0.6844  0.8816  0.1166
  347MOL0     H45796   3.346   9.771  10.000 -2.3324  1.2109  0.3952
  347MOL0     H45797   3.356   9.608   9.913  2.4878  1.1751  1.1654
  347MOL0     H45798   3.412   9.861   9.771 -3.2300 -0.2565  2.7204
  347MOL0     H45799   3.431   9.684   9.719  2.0261 -1.5879  0.4152
  347MOL0     H45800   3.634   9.828   9.799 -1.5365  2.7508  2.6020
  347MOL0     H45801   3.562   9.824   9.952  0.1702 -0.6373  0.7718
  347MOL0     H45802   3.715   9.428   9.937 -0.7501 -0.4856  0.5136
  347MOL0     H45803   2.969   9.770   9.737  1.2348 -1.2033 -0.1104
  347MOL0     H45804   2.725   9.758   9.715 -1.1768 -0.5217  1.8328
  348MOL0     O45805   0.772   8.108   2.192 -0.4992 -0.1261  0.6684
  348MOL0     C45806   0.750   7.984   2.192 -0.8657 -0.4992 -0.3500
  348MOL0     O45807   0.631   7.926   2.206  0.4081  0.2207 -0.7014
  348MOL0     C45808   0.519   8.008   2.202  0.6435  0.3362 -0.8630
  348MOL0     C45809   0.418   7.985   2.299  0.9205  0.1255  0.5070
  348MOL0     C45810   0.304   8.060   2.293  0.9124 -0.1242  0.1937
  348MOL0     C45811   0.281   8.163   2.203  0.0324 -0.3620  0.1445
  348MOL0     O45812   0.171   8.239   2.191  0.2983  0.3552 -0.0722
  348MOL0     C45813   0.060   8.220   2.281 -0.7027 -0.9125  0.4080
  348MOL0     C45814  -0.033   8.336   2.268  0.9979  0.1563  0.3453
  348MOL0     C45815  -0.158   8.331   2.350 -0.1642  1.2524 -0.0589
  348MOL0     C45816  -0.258   8.243   2.282  0.1513  0.6282  0.2154
  348MOL0     C45817  -0.390   8.239   2.373 -1.1191 -0.7961  0.5688
  348MOL0     C45818  -0.460   8.110   2.344  0.4448 -0.6067 -0.6174
  348MOL0     C45819  -0.585   8.097   2.430 -0.4510 -1.0118  0.4851
  348MOL0     C45820  -0.711   8.144   2.363 -0.7570 -0.2402  0.2292
  348MOL0     N45821  -0.838   8.111   2.439 -0.8582 -0.2878 -0.0630
  348MOL0     C45822  -0.882   8.179   2.552 -0.2750 -0.0955 -0.2085
  348MOL0     C45823  -1.019   8.151   2.552 -0.7756  0.2431  0.3202
  348MOL0     C45824  -1.113   8.205   2.649  0.4581  0.2938  0.1018
  348MOL0     C45825  -1.260   8.159   2.634  1.3242 -0.2986 -0.8076
  348MOL0     C45826  -1.340   8.204   2.761 -0.1547  0.0078  1.1146
  348MOL0     C45827  -1.458   8.121   2.795 -0.3182 -0.0018  0.7661
  348MOL0     O45828  -1.530   8.182   2.901 -0.1562 -0.1508 -0.4254
  348MOL0     C45829  -1.667   8.154   2.916 -0.6073  0.1897  0.0878
  348MOL0     C45830  -1.724   8.038   2.869 -0.1753  0.1673 -0.5504
  348MOL0     C45831  -1.860   8.009   2.897 -0.5674  0.7236 -0.4597
  348MOL0     C45832  -1.945   8.099   2.962  0.6770 -0.3477  0.0565
  348MOL0     C45833  -2.088   8.072   2.970 -0.2355  1.4399  0.1898
  348MOL0     O45834  -2.166   8.170   3.011 -0.3251 -1.0455 -0.0736
  348MOL0     C45835  -2.298   8.142   3.042  0.3969 -0.2128 -0.5401
  348MOL0     C45836  -2.382   8.043   2.990  0.6774  1.0846 -0.4437
  348MOL0     C45837  -2.519   8.043   3.032  0.5464  0.2835  1.1812
  348MOL0     C45838  -2.576   8.148   3.100  0.2126 -0.3264  0.2600
  348MOL0     O45839  -2.712   8.137   3.123 -0.2113 -0.4941  0.4720
  348MOL0     C45840  -2.766   8.233   3.216 -0.5717 -0.1121 -0.5464
  348MOL0     C45841  -2.911   8.210   3.252 -0.3586  1.1753 -0.0279
  348MOL0     C45842  -3.004   8.206   3.129  0.3077 -0.2403 -0.8221
  348MOL0     C45843  -3.140   8.152   3.174  0.2347  0.3392  0.0082
  348MOL0     C45844  -3.247   8.178   3.063 -0.2046 -0.1990 -0.9054
  348MOL0     C45845  -3.286   8.330   3.044 -0.4796 -0.5155  0.7632
  348MOL0     C45846  -3.413   8.336   2.966  0.1346 -0.6208 -0.0483
  348MOL0     C45847  -3.442   8.495   2.953 -0.7639  0.6685  0.1979
  348MOL0    Cl45848  -3.498   8.554   3.105  0.0608 -0.3868 -0.4048
  348MOL0     C45849  -2.497   8.249   3.147  0.3709 -0.0753 -0.5576
  348MOL0     C45850  -2.359   8.238   3.127 -0.1247  0.4638  0.7599
  348MOL0     O45851  -2.125   7.957   2.931 -0.3034  0.4923 -0.3369
  348MOL0     C45852  -1.887   8.221   3.000  0.4232  0.6232 -0.6694
  348MOL0     C45853  -1.752   8.247   2.983 -0.8922 -0.0381 -0.6880
  348MOL0     N45854  -1.044   8.067   2.447 -0.4066  0.2531 -0.4643
  348MOL0     N45855  -0.938   8.043   2.383  0.0206  0.0314 -0.0314
  348MOL0     C45856   0.383   8.186   2.112 -0.2234 -0.0600 -0.3953
  348MOL0     C45857   0.492   8.104   2.108 -0.4019 -0.2452 -0.9032
  348MOL0     C45858   0.868   7.899   2.175 -0.6075 -0.1677 -1.0271
  348MOL0     C45859   0.853   7.760   2.151  0.1774  0.4627  0.0341
  348MOL0     C45860   0.953   7.669   2.134 -0.7706  0.0569 -0.9211
  348MOL0     C45861   1.084   7.720   2.141  0.4709 -0.0853  0.2815
  348MOL0     O45862   1.175   7.616   2.134 -0.3319 -1.0641  0.0718
  348MOL0     C45863   1.312   7.644   2.132 -0.7775 -0.3097 -0.6605
  348MOL0     C45864   1.393   7.517   2.111 -0.4559 -0.4152 -0.2649
  348MOL0     C45865   1.342   7.397   2.186  0.7864 -0.2824 -0.0611
  348MOL0     C45866   1.451   7.288   2.185  0.1905  0.0006  0.4002
  348MOL0     C45867   1.476   7.239   2.042 -0.8804  0.4837 -0.4831
  348MOL0     C45868   1.495   7.217   1.920  0.4665  0.5247  0.0481
  348MOL0     C45869   1.105   7.861   2.163 -0.6362  0.0778  0.2547
  348MOL0     C45870   1.001   7.946   2.181  0.7876 -0.7077 -0.4507
  348MOL0     H45871   0.415   7.900   2.366 -0.2055 -0.7610 -0.6213
  348MOL0     H45872   0.225   8.037   2.364 -0.7403  1.8720 -0.8765
  348MOL0     H45873   0.098   8.222   2.384 -0.6124  1.0871  0.3772
  348MOL0     H45874   0.007   8.128   2.254 -0.8775 -0.8442  0.5134
  348MOL0     H45875  -0.055   8.344   2.161 -4.8679 -0.1940  1.1751
  348MOL0     H45876   0.032   8.421   2.290  2.9370 -0.0604 -3.6178
  348MOL0     H45877  -0.198   8.433   2.357  0.8153  1.8275 -2.0593
  348MOL0     H45878  -0.136   8.299   2.452 -1.4981 -3.2307 -0.9756
  348MOL0     H45879  -0.286   8.296   2.191 -1.4250  2.7264  1.8279
  348MOL0     H45880  -0.215   8.145   2.258  1.3985  1.5056 -1.3137
  348MOL0     H45881  -0.455   8.324   2.353 -0.9913 -1.0772 -1.2385
  348MOL0     H45882  -0.373   8.246   2.481  1.5489 -1.0445  0.2396
  348MOL0     H45883  -0.393   8.026   2.364  0.2747 -0.4258  0.8186
  348MOL0     H45884  -0.500   8.109   2.243 -3.0460  2.3657  0.5125
  348MOL0     H45885  -0.606   7.991   2.447  1.3049 -1.9204 -2.3832
  348MOL0     H45886  -0.580   8.145   2.528  0.3328 -0.3362  0.1265
  348MOL0     H45887  -0.730   8.084   2.274  0.2013  0.0146 -0.1664
  348MOL0     H45888  -0.698   8.249   2.334  1.9414 -0.6659 -0.3919
  348MOL0     H45889  -0.819   8.238   2.619  0.1930 -3.1593  2.2972
  348MOL0     H45890  -1.119   8.314   2.646 -2.9019  0.2683  1.4409
  348MOL0     H45891  -1.091   8.167   2.750  1.9721  1.6110  0.3119
  348MOL0     H45892  -1.262   8.051   2.618  1.2534 -0.5467  0.7071
  348MOL0     H45893  -1.298   8.210   2.545  0.6665 -2.7307 -1.9905
  348MOL0     H45894  -1.278   8.217   2.850 -1.6412  2.5446  1.8842
  348MOL0     H45895  -1.367   8.308   2.740  2.7505  0.2960 -2.1446
  348MOL0     H45896  -1.427   8.020   2.822 -2.6910 -0.7789  0.7993
  348MOL0     H45897  -1.522   8.111   2.707 -0.0205 -0.8318  0.6286
  348MOL0     H45898  -1.662   7.966   2.817 -0.0736  1.0377 -1.6756
  348MOL0     H45899  -1.903   7.917   2.859  1.2812 -0.2905 -0.2253
  348MOL0     H45900  -2.363   7.969   2.913 -1.5552 -0.3442  0.2794
  348MOL0     H45901  -2.587   7.994   2.964  0.9762  0.3966  0.6678
  348MOL0     H45902  -2.748   8.333   3.175  0.0834 -0.3442 -0.8247
  348MOL0     H45903  -2.719   8.221   3.314 -1.2874 -0.5097 -0.2402
  348MOL0     H45904  -2.939   8.293   3.317 -0.1277  0.1904  1.3758
  348MOL0     H45905  -2.921   8.119   3.311 -0.3524  1.1164 -0.1182
  348MOL0     H45906  -2.964   8.136   3.056  0.6181 -2.1565  1.1000
  348MOL0     H45907  -3.024   8.306   3.088 -1.5445  0.1542  0.8450
  348MOL0     H45908  -3.130   8.044   3.187  1.7067  0.5153  0.4885
  348MOL0     H45909  -3.168   8.200   3.269  2.4488  1.3651  0.2043
  348MOL0     H45910  -3.345   8.135   3.084 -0.2243 -1.0778 -2.6043
  348MOL0     H45911  -3.212   8.124   2.975 -2.1763  0.0397 -1.8981
  348MOL0     H45912  -3.204   8.389   3.001 -1.0174  1.1762  1.9579
  348MOL0     H45913  -3.301   8.386   3.136 -0.4992  1.4509 -0.3850
  348MOL0     H45914  -3.402   8.285   2.869  2.4509  3.0703 -1.9207
  348MOL0     H45915  -3.497   8.282   3.011 -1.6726 -1.4036 -3.8999
  348MOL0     H45916  -3.519   8.515   2.878 -0.4148  0.0502 -0.3379
  348MOL0     H45917  -3.349   8.550   2.937  1.5783 -2.5342  1.6597
  348MOL0     H45918  -2.532   8.340   3.194 -1.4567 -0.3838 -1.2288
  348MOL0     H45919  -2.292   8.312   3.172 -0.2374 -0.2562  2.1551
  348MOL0     H45920  -1.946   8.304   3.039 -2.5796 -1.9336  0.6864
  348MOL0     H45921  -1.702   8.336   3.020 -0.4709  0.4162 -2.2865
  348MOL0     H45922   0.384   8.265   2.037  0.4328 -0.8388 -1.2277
  348MOL0     H45923   0.563   8.140   2.034 -1.3098  1.2321 -1.0919
  348MOL0     H45924   0.751   7.725   2.140 -0.1307  1.4818 -0.4785
  348MOL0     H45925   0.934   7.563   2.118  2.3251 -0.8519  0.6310
  348MOL0     H45926   1.336   7.708   2.217  0.8402  0.9155 -1.9353
  348MOL0     H45927   1.344   7.705   2.046 -0.8991 -3.6422 -3.3103
  348MOL0     H45928   1.406   7.504   2.003  0.1740  1.6612 -0.4837
  348MOL0     H45929   1.490   7.539   2.157  0.0757 -1.1887 -0.9732
  348MOL0     H45930   1.245   7.366   2.149  1.1412 -1.0452 -0.3792
  348MOL0     H45931   1.335   7.414   2.294  1.8750 -0.1961  0.0171
  348MOL0     H45932   1.553   7.313   2.217 -0.6936  1.3481  2.3605
  348MOL0     H45933   1.425   7.198   2.242  1.3880  0.5504  1.8951
  348MOL0     H45934   1.518   7.198   1.817  0.5415 -1.1923  0.3528
  348MOL0     H45935   1.201   7.910   2.163 -0.2883 -0.5997  0.2807
  348MOL0     H45936   1.018   8.052   2.200  0.7232 -0.9920  1.4818
  349MOL0     O45937   8.821   6.576   6.629 -0.7901 -0.0877 -0.1719
  349MOL0     C45938   8.828   6.650   6.726 -0.6385 -0.3728 -0.1251
  349MOL0     O45939   8.731   6.734   6.777  0.6960  0.3678 -0.7226
  349MOL0     C45940   8.612   6.765   6.709  0.2724 -0.0232  0.2640
  349MOL0     C45941   8.500   6.730   6.768  0.2222 -0.0582 -1.3640
  349MOL0     C45942   8.378   6.763   6.719  0.3677  0.2698  0.2122
  349MOL0     C45943   8.369   6.834   6.596 -0.1036 -0.4561  0.8564
  349MOL0     O45944   8.249   6.875   6.534 -0.7527  0.2907 -0.5227
  349MOL0     C45945   8.122   6.832   6.574  0.3047  0.2656 -0.8974
  349MOL0     C45946   8.021   6.872   6.471 -0.0799  0.4227 -0.0860
  349MOL0     C45947   7.891   6.800   6.491  0.1409 -0.4269 -0.4514
  349MOL0     C45948   7.771   6.848   6.411  0.5862 -0.1821  0.5130
  349MOL0     C45949   7.650   6.758   6.431 -0.0755 -0.0028 -0.5952
  349MOL0     C45950   7.553   6.786   6.316 -0.0913 -0.0530 -0.0939
  349MOL0     C45951   7.424   6.701   6.326 -0.1767  0.1088  0.0012
  349MOL0     C45952   7.334   6.717   6.451 -0.3724  0.8582 -0.0512
  349MOL0     N45953   7.239   6.599   6.469 -0.5866  0.3278  0.3160
  349MOL0     C45954   7.251   6.468   6.416 -0.4385 -0.3339 -0.2887
  349MOL0     C45955   7.122   6.410   6.430 -0.5435 -0.1573 -0.5691
  349MOL0     C45956   7.085   6.278   6.385  0.4255  0.1091  0.3383
  349MOL0     C45957   7.023   6.282   6.248 -0.2438  0.3597 -0.1912
  349MOL0     C45958   6.967   6.137   6.223  0.3927 -0.6905  0.6548
  349MOL0     C45959   6.875   6.126   6.102  0.5809 -0.7392  0.0274
  349MOL0     O45960   6.796   6.006   6.090  0.3164 -0.0193 -0.2203
  349MOL0     C45961   6.666   6.006   6.140 -0.3576  0.6510  0.4092
  349MOL0     C45962   6.624   6.101   6.231 -0.7805  0.4073  0.6018
  349MOL0     C45963   6.503   6.083   6.303  0.0873  0.1058  0.4095
  349MOL0     C45964   6.416   5.977   6.270 -0.4739  0.5372  0.4445
  349MOL0     C45965   6.292   5.967   6.350  0.0728  0.6658 -0.1534
  349MOL0     O45966   6.191   5.868   6.323  0.4047 -0.3681  0.2028
  349MOL0     C45967   6.083   5.863   6.409  0.2867  0.8812  0.1223
  349MOL0     C45968   5.945   5.868   6.375  0.5593  0.3347 -0.3293
  349MOL0     C45969   5.846   5.863   6.475  0.2062  0.5215 -0.1942
  349MOL0     C45970   5.879   5.833   6.607 -1.0093  1.7540  0.2527
  349MOL0     O45971   5.794   5.829   6.715  0.3953  1.1887  0.1199
  349MOL0     C45972   5.654   5.801   6.686  0.3963  0.3100 -0.9372
  349MOL0     C45973   5.589   5.745   6.815  0.6136  0.2926 -0.0939
  349MOL0     C45974   5.453   5.684   6.793  0.5641 -0.0938 -0.2136
  349MOL0     C45975   5.381   5.695   6.926  0.5937  0.9299  0.1167
  349MOL0     C45976   5.255   5.603   6.929  0.2999 -0.5781 -0.5621
  349MOL0     C45977   5.141   5.643   6.837 -0.5349  0.1833 -1.2202
  349MOL0     C45978   5.017   5.553   6.829 -0.4797  0.4925  0.6769
  349MOL0     C45979   5.052   5.415   6.764 -0.2144 -0.0104  0.1869
  349MOL0    Cl45980   4.925   5.284   6.756 -0.3784 -0.1366  0.4585
  349MOL0     C45981   6.012   5.827   6.641  0.3535 -0.9542 -0.6244
  349MOL0     C45982   6.109   5.850   6.546 -0.2749 -0.7294 -0.4321
  349MOL0     O45983   6.282   6.048   6.437  0.3064 -0.1686 -0.4025
  349MOL0     C45984   6.460   5.891   6.168 -0.0505 -0.0522  0.2084
  349MOL0     C45985   6.581   5.901   6.112  0.4596  0.1040 -0.2095
  349MOL0     N45986   7.041   6.508   6.482  0.2474  0.1842  0.8435
  349MOL0     N45987   7.108   6.616   6.504  0.7959  0.1492  0.1470
  349MOL0     C45988   8.491   6.873   6.539  0.5079  1.0690  0.3696
  349MOL0     C45989   8.612   6.842   6.599  0.7952  0.2681 -0.2175
  349MOL0     C45990   8.961   6.658   6.783  0.0905  0.4438  0.0184
  349MOL0     C45991   9.061   6.567   6.747  0.9425 -0.3295 -0.4237
  349MOL0     C45992   9.190   6.574   6.809  0.4916 -0.2719  0.4022
  349MOL0     C45993   9.221   6.654   6.915  0.9058 -0.0754 -0.3563
  349MOL0     O45994   9.337   6.651   6.984  0.8218  0.0329  0.4176
  349MOL0     C45995   9.453   6.577   6.937  0.5767  0.2439  0.2041
  349MOL0     C45996   9.518   6.649   6.815 -0.6131 -0.2158  0.0165
  349MOL0     C45997   9.611   6.770   6.851 -0.5787  0.2676 -0.2663
  349MOL0     C45998   9.647   6.871   6.743  0.7949  0.9736  0.7537
  349MOL0     C45999   9.712   6.798   6.633  0.5435  0.1405  0.9967
  349MOL0     C46000   9.744   6.747   6.528 -0.6779 -0.0495  0.2901
  349MOL0     C46001   9.114   6.740   6.959  1.6280  0.1924 -0.1461
  349MOL0     C46002   8.987   6.747   6.898  0.3899  0.0979 -0.2519
  349MOL0     H46003   8.516   6.673   6.859 -2.3671  0.1336 -0.6964
  349MOL0     H46004   8.293   6.731   6.777 -1.5703  0.3238 -2.4337
  349MOL0     H46005   8.102   6.892   6.663  1.6397 -0.7282  0.1150
  349MOL0     H46006   8.131   6.724   6.593 -0.7207 -0.0154 -1.9116
  349MOL0     H46007   8.074   6.834   6.383  4.8315  3.6052  1.0933
  349MOL0     H46008   8.002   6.979   6.471 -3.6814 -0.0935 -0.0085
  349MOL0     H46009   7.859   6.822   6.593  1.4401  0.6246 -0.2524
  349MOL0     H46010   7.904   6.692   6.477  1.7906 -0.0302 -2.4196
  349MOL0     H46011   7.748   6.954   6.428  0.1239 -0.1474 -0.2943
  349MOL0     H46012   7.799   6.848   6.305 -0.3782  3.0414  0.1360
  349MOL0     H46013   7.606   6.784   6.528  1.3119  1.0870 -0.2257
  349MOL0     H46014   7.700   6.662   6.440  0.0117  0.0216 -0.8345
  349MOL0     H46015   7.605   6.761   6.223 -0.5184  0.3574 -0.4385
  349MOL0     H46016   7.527   6.892   6.311  2.5075  0.6039 -1.6911
  349MOL0     H46017   7.372   6.726   6.234  0.5696 -0.0066 -0.4652
  349MOL0     H46018   7.458   6.597   6.327 -0.2626  0.0795 -0.1514
  349MOL0     H46019   7.286   6.813   6.469  1.4166  1.7408  0.2427
  349MOL0     H46020   7.409   6.713   6.530 -1.0795  1.3711  0.6477
  349MOL0     H46021   7.337   6.418   6.372  1.1699  0.7487  1.4874
  349MOL0     H46022   7.013   6.230   6.452 -0.3915 -2.0360 -1.9439
  349MOL0     H46023   7.182   6.227   6.382 -1.0650 -3.0048 -3.0602
  349MOL0     H46024   7.095   6.309   6.170  0.8563 -2.0542 -0.1238
  349MOL0     H46025   6.940   6.354   6.248 -0.7555 -0.2249  0.0219
  349MOL0     H46026   7.049   6.069   6.199  0.8804 -0.9079  2.7002
  349MOL0     H46027   6.911   6.106   6.312  1.4978 -2.0284  0.9079
  349MOL0     H46028   6.929   6.132   6.007 -0.8941 -0.6251 -0.8437
  349MOL0     H46029   6.808   6.212   6.093 -0.9805 -1.3296  4.1107
  349MOL0     H46030   6.690   6.184   6.254  0.1776  0.0406 -0.7215
  349MOL0     H46031   6.476   6.163   6.371  1.1908  0.6302  0.2614
  349MOL0     H46032   5.911   5.887   6.274  1.2718 -2.6434 -1.2213
  349MOL0     H46033   5.748   5.906   6.454 -0.1126 -0.9399 -1.8995
  349MOL0     H46034   5.641   5.724   6.609 -0.7123  0.7256 -1.1964
  349MOL0     H46035   5.606   5.892   6.649  0.9243 -0.2293 -3.1145
  349MOL0     H46036   5.587   5.818   6.897 -1.4897  2.2391 -1.7401
  349MOL0     H46037   5.651   5.665   6.856  1.2896  0.9765  0.2419
  349MOL0     H46038   5.463   5.580   6.763 -1.4573 -0.0830 -1.1266
  349MOL0     H46039   5.402   5.733   6.710  0.7148 -1.3439 -1.0669
  349MOL0     H46040   5.452   5.667   7.004  0.6294  2.4333  0.6634
  349MOL0     H46041   5.354   5.799   6.949  3.0569  0.9388  3.8917
  349MOL0     H46042   5.212   5.609   7.029  1.0194 -1.6854 -0.1729
  349MOL0     H46043   5.289   5.501   6.909  1.3092  0.0106 -2.0943
  349MOL0     H46044   5.188   5.646   6.738 -0.9768 -2.9156 -1.6428
  349MOL0     H46045   5.108   5.745   6.858  1.3545  0.6991 -0.4972
  349MOL0     H46046   4.980   5.531   6.930  0.7816 -1.7582  0.7058
  349MOL0     H46047   4.948   5.613   6.768  2.2296  0.7039 -2.4475
  349MOL0     H46048   5.133   5.366   6.818  0.1014  0.1303 -0.1527
  349MOL0     H46049   5.081   5.436   6.661  0.5018 -1.2449  0.1247
  349MOL0     H46050   6.031   5.808   6.746 -2.6507  0.0052  0.2149
  349MOL0     H46051   6.212   5.855   6.579 -0.5808 -0.6820  0.5254
  349MOL0     H46052   6.389   5.813   6.145 -0.6017 -0.3035  2.5018
  349MOL0     H46053   6.619   5.825   6.045 -0.3221 -0.9699  0.5439
  349MOL0     H46054   8.497   6.932   6.448 -1.3988 -0.1477 -0.5937
  349MOL0     H46055   8.705   6.881   6.559  0.4622  0.1922 -1.0899
  349MOL0     H46056   9.047   6.495   6.667 -0.9582  1.9554 -2.3380
  349MOL0     H46057   9.260   6.496   6.782  1.6741  0.2856  1.7256
  349MOL0     H46058   9.425   6.474   6.912 -1.0515  1.3659 -3.1491
  349MOL0     H46059   9.524   6.572   7.020 -1.0082  1.6732  1.7392
  349MOL0     H46060   9.583   6.577   6.765  1.2794 -0.2724  2.3988
  349MOL0     H46061   9.438   6.677   6.745  0.0073  0.5230 -0.4048
  349MOL0     H46062   9.709   6.730   6.880 -0.3966  1.0502  0.2189
  349MOL0     H46063   9.565   6.829   6.931 -0.3645  3.7037 -2.4563
  349MOL0     H46064   9.551   6.914   6.713 -0.4034 -1.2969  1.0889
  349MOL0     H46065   9.717   6.937   6.796 -0.0641 -1.4433  5.3762
  349MOL0     H46066   9.772   6.702   6.435  0.7777 -2.1930  1.6809
  349MOL0     H46067   9.132   6.801   7.047 -0.2440  1.7765 -0.8110
  349MOL0     H46068   8.910   6.813   6.935 -0.5518  0.5053 -2.7563
  350MOL0     O46069   9.547   4.289   0.510  0.0713 -0.1883  0.6109
  350MOL0     C46070   9.573   4.393   0.565 -0.4355 -0.0844  0.2150
  350MOL0     O46071   9.487   4.480   0.623 -0.0878  1.2758 -0.2284
  350MOL0     C46072   9.358   4.440   0.637  0.8154 -0.4990 -0.3450
  350MOL0     C46073   9.263   4.437   0.531  0.2028 -1.0245 -0.1199
  350MOL0     C46074   9.135   4.395   0.554  0.2785  0.3028  0.3892
  350MOL0     C46075   9.086   4.383   0.685 -0.1220  0.4286 -0.3577
  350MOL0     O46076   8.958   4.358   0.711 -0.8240 -1.0282 -0.7033
  350MOL0     C46077   8.941   4.268   0.818  0.0593 -0.5633 -0.2024
  350MOL0     C46078   8.875   4.135   0.772 -0.3451  1.0096 -0.3954
  350MOL0     C46079   8.772   4.138   0.662  0.0615  0.0977  0.9992
  350MOL0     C46080   8.632   4.149   0.720  0.4405  0.2201 -0.2230
  350MOL0     C46081   8.517   4.180   0.624  0.4172 -0.4016  1.1630
  350MOL0     C46082   8.377   4.196   0.690 -0.7922 -0.6320  1.1775
  350MOL0     C46083   8.257   4.183   0.585  0.1806  0.5205 -0.2418
  350MOL0     C46084   8.134   4.258   0.625  0.9200  0.8981  0.0979
  350MOL0     N46085   8.083   4.214   0.751  0.2282  0.0615  0.1872
  350MOL0     C46086   7.996   4.109   0.763 -0.0765  0.4923 -0.6171
  350MOL0     C46087   7.977   4.095   0.900 -0.2656  0.2103 -0.1121
  350MOL0     C46088   7.900   3.982   0.967 -0.0577 -0.0423  0.1909
  350MOL0     C46089   7.880   4.017   1.120  0.1267 -1.1056 -0.3365
  350MOL0     C46090   7.768   4.125   1.154  0.9103 -0.2473  1.0164
  350MOL0     C46091   7.757   4.159   1.299  0.5248 -0.1931 -0.3383
  350MOL0     O46092   7.657   4.268   1.319  0.2124  0.3132  0.2705
  350MOL0     C46093   7.530   4.227   1.323  0.1780  0.6793 -0.5463
  350MOL0     C46094   7.435   4.313   1.257 -1.1889  0.6912  0.7502
  350MOL0     C46095   7.305   4.275   1.244 -0.6291 -0.5018 -0.0526
  350MOL0     C46096   7.265   4.160   1.303  0.7678 -0.8181 -1.2972
  350MOL0     C46097   7.116   4.127   1.300  0.2679 -1.1418 -0.0579
  350MOL0     O46098   7.036   4.217   1.235  0.7833 -0.1478  0.4743
  350MOL0     C46099   6.901   4.205   1.212 -0.4014  0.0727  0.1478
  350MOL0     C46100   6.817   4.103   1.254 -0.4372  0.9125 -0.1673
  350MOL0     C46101   6.675   4.109   1.238  0.1080 -0.4043 -0.2197
  350MOL0     C46102   6.618   4.218   1.179  0.2917 -1.4058 -0.5081
  350MOL0     O46103   6.481   4.233   1.177 -0.9299 -0.5902 -0.6823
  350MOL0     C46104   6.428   4.151   1.066 -0.0268 -0.0169 -0.6023
  350MOL0     C46105   6.332   4.223   0.976  0.5356 -0.1076  0.5232
  350MOL0     C46106   6.376   4.356   0.912  0.2700  0.6891 -0.3648
  350MOL0     C46107   6.507   4.357   0.831  0.8903  1.0862 -0.0544
  350MOL0     C46108   6.542   4.511   0.801  0.3531 -0.4553  0.0876
  350MOL0     C46109   6.653   4.528   0.696 -0.1708  0.4429 -0.2110
  350MOL0     C46110   6.799   4.536   0.753  0.3957 -0.0983  0.1237
  350MOL0     C46111   6.821   4.663   0.839 -0.4052 -0.0942 -0.0492
  350MOL0    Cl46112   6.986   4.681   0.890  0.1137  0.0872  0.1475
  350MOL0     C46113   6.695   4.326   1.133 -0.5473  0.5826  0.8518
  350MOL0     C46114   6.837   4.311   1.144 -0.2965  0.0589 -1.0991
  350MOL0     O46115   7.085   4.018   1.355 -0.3991 -0.9835  0.5023
  350MOL0     C46116   7.358   4.079   1.378  0.4443  0.2946  0.2345
  350MOL0     C46117   7.490   4.117   1.389 -0.0687  0.0390  0.8681
  350MOL0     N46118   8.044   4.201   0.960  0.4583  0.6449 -0.0426
  350MOL0     N46119   8.100   4.265   0.872 -0.0189 -0.6964  0.3076
  350MOL0     C46120   9.175   4.423   0.788 -0.1427  0.3118  0.0835
  350MOL0     C46121   9.315   4.434   0.768 -0.6601 -0.4302 -0.4263
  350MOL0     C46122   9.715   4.445   0.559  0.1512  0.4328  0.0770
  350MOL0     C46123   9.808   4.367   0.490 -0.0273 -0.0106 -0.4319
  350MOL0     C46124   9.940   4.401   0.487 -0.3572 -0.5494 -0.0734
  350MOL0     C46125   9.980   4.526   0.546  0.2981 -1.3263  0.4025
  350MOL0     O46126  10.099   4.584   0.521  0.2360 -0.7156 -0.1240
  350MOL0     C46127  10.202   4.497   0.546 -0.2224 -0.2479 -0.3108
  350MOL0     C46128  10.296   4.490   0.430  0.7324  0.4752 -0.6570
  350MOL0     C46129  10.233   4.410   0.311  0.4165 -0.2152 -0.0180
  350MOL0     C46130  10.335   4.399   0.189 -0.5165 -0.0545 -1.0401
  350MOL0     C46131  10.458   4.328   0.222  0.5042  0.0063  0.1874
  350MOL0     C46132  10.565   4.288   0.248 -0.2618 -0.6790 -0.0049
  350MOL0     C46133   9.885   4.611   0.608  0.2566 -0.1753 -0.1124
  350MOL0     C46134   9.756   4.563   0.627  0.3489 -0.6090 -0.3733
  350MOL0     H46135   9.281   4.442   0.424  3.5487 -1.0767  0.3536
  350MOL0     H46136   9.071   4.372   0.470  2.5375  0.0766 -1.3682
  350MOL0     H46137   8.875   4.336   0.872  0.7827  1.3759 -1.6287
  350MOL0     H46138   9.030   4.237   0.874 -0.6193 -1.5163  0.3704
  350MOL0     H46139   8.827   4.096   0.863  0.4771  1.8939  0.4497
  350MOL0     H46140   8.949   4.057   0.751  0.6916  2.5078 -2.7698
  350MOL0     H46141   8.784   4.041   0.614 -2.7135  0.6708 -1.1310
  350MOL0     H46142   8.789   4.214   0.585 -1.8839 -1.5448 -1.1953
  350MOL0     H46143   8.611   4.061   0.782 -0.6538  1.3153  1.0366
  350MOL0     H46144   8.622   4.236   0.786 -1.2207  0.1142 -0.3035
  350MOL0     H46145   8.510   4.101   0.549  0.4786  1.6390 -1.1047
  350MOL0     H46146   8.536   4.274   0.571 -2.8983 -1.0214 -1.4527
  350MOL0     H46147   8.359   4.293   0.738 -3.6372 -0.6976  0.4640
  350MOL0     H46148   8.365   4.115   0.762  1.1185 -1.8846  0.1589
  350MOL0     H46149   8.289   4.221   0.488 -1.4287  2.2559 -0.1479
  350MOL0     H46150   8.241   4.077   0.566  2.1181 -0.0697  1.0510
  350MOL0     H46151   8.065   4.244   0.541  1.3974  1.9800 -0.5022
  350MOL0     H46152   8.156   4.365   0.632  2.1526  0.5617  2.1715
  350MOL0     H46153   7.940   4.059   0.684 -0.2003  1.0748 -0.8991
  350MOL0     H46154   7.964   3.894   0.960  0.8701  0.7061 -1.3532
  350MOL0     H46155   7.806   3.967   0.915  0.3905 -0.1351 -0.6072
  350MOL0     H46156   7.973   4.048   1.168  1.3263 -0.1925 -3.0863
  350MOL0     H46157   7.866   3.920   1.169  0.1954 -0.5970  0.7229
  350MOL0     H46158   7.786   4.220   1.102 -2.4988 -0.0815 -0.0966
  350MOL0     H46159   7.670   4.096   1.116 -0.6949  0.0516  4.5599
  350MOL0     H46160   7.850   4.203   1.336 -0.4487  1.6294  0.1057
  350MOL0     H46161   7.734   4.067   1.353  0.0547  0.0943 -0.0374
  350MOL0     H46162   7.471   4.402   1.207 -0.0866  1.1356  2.2353
  350MOL0     H46163   7.232   4.338   1.193 -1.6444 -1.2135  0.4773
  350MOL0     H46164   6.854   4.008   1.293 -0.1746 -0.2999 -3.1425
  350MOL0     H46165   6.620   4.018   1.258 -0.8410  0.7200  2.9213
  350MOL0     H46166   6.375   4.077   1.127  2.3121 -2.2019 -1.0240
  350MOL0     H46167   6.498   4.087   1.011  0.4566  0.3364 -0.4061
  350MOL0     H46168   6.254   4.261   1.044  0.1843  0.1366 -0.0056
  350MOL0     H46169   6.287   4.143   0.916 -0.2701  0.8838 -0.2378
  350MOL0     H46170   6.377   4.423   0.998 -1.3998  0.6316 -0.2792
  350MOL0     H46171   6.299   4.394   0.845 -0.2963 -2.3906 -1.6281
  350MOL0     H46172   6.589   4.307   0.882 -1.3283 -0.4378  2.2792
  350MOL0     H46173   6.481   4.291   0.748  0.0219  0.8471  0.3930
  350MOL0     H46174   6.567   4.566   0.892 -1.9631  0.3878  0.2758
  350MOL0     H46175   6.449   4.547   0.757  1.1390 -1.9588 -3.1768
  350MOL0     H46176   6.636   4.624   0.647 -1.5953 -0.4217 -1.4667
  350MOL0     H46177   6.649   4.448   0.622  0.5594  1.1217 -0.9935
  350MOL0     H46178   6.825   4.444   0.805 -0.1171  0.9843  2.3949
  350MOL0     H46179   6.854   4.546   0.658  0.5021 -0.0035  0.1948
  350MOL0     H46180   6.750   4.657   0.922  0.9544 -1.5580  1.0745
  350MOL0     H46181   6.801   4.752   0.779 -3.5543  0.1319  1.1421
  350MOL0     H46182   6.659   4.417   1.088 -1.4214  0.5275  1.4195
  350MOL0     H46183   6.893   4.391   1.098 -4.0554  1.5930 -3.3786
  350MOL0     H46184   7.313   3.989   1.419  2.9939 -1.5956 -0.8540
  350MOL0     H46185   7.566   4.054   1.435  0.5705 -1.6593 -2.1757
  350MOL0     H46186   9.121   4.436   0.881  0.1108 -0.7413  0.3874
  350MOL0     H46187   9.380   4.468   0.848 -0.7216 -3.8586  1.2752
  350MOL0     H46188   9.782   4.276   0.436  1.3788 -1.4582  1.2133
  350MOL0     H46189  10.016   4.344   0.433  2.2270  3.4530 -1.0578
  350MOL0     H46190  10.171   4.398   0.581  0.7615  0.1438  1.8376
  350MOL0     H46191  10.258   4.550   0.625 -0.8856  1.6091 -1.0268
  350MOL0     H46192  10.325   4.589   0.394  0.3784 -0.1883 -2.9313
  350MOL0     H46193  10.383   4.431   0.462 -1.1824 -1.6772  0.9828
  350MOL0     H46194  10.144   4.464   0.276  0.7225  1.5242  1.7022
  350MOL0     H46195  10.189   4.316   0.347 -3.2204  1.5460  0.6780
  350MOL0     H46196  10.291   4.338   0.109  0.8235 -0.9986 -1.0940
  350MOL0     H46197  10.354   4.499   0.149  0.3310  0.2989  0.2111
  350MOL0     H46198  10.658   4.257   0.292 -0.4446  0.7077  1.4623
  350MOL0     H46199   9.917   4.712   0.628 -3.0204  1.9266 -3.9221
  350MOL0     H46200   9.676   4.627   0.663  0.1167  0.0922 -2.0103
  351MOL0     O46201   0.126   0.611   7.923  0.4969  0.1688  0.3474
  351MOL0     C46202   0.135   0.722   7.867 -0.0516  1.0537 -0.1406
  351MOL0     O46203   0.030   0.781   7.792  0.5276 -0.6517 -0.1744
  351MOL0     C46204  -0.089   0.714   7.798  0.1059  0.8029  0.4473
  351MOL0     C46205  -0.125   0.603   7.712  0.5912 -0.0359  0.2910
  351MOL0     C46206  -0.249   0.539   7.726  0.2718  0.1471  1.0304
  351MOL0     C46207  -0.339   0.571   7.828 -0.1610 -0.5548  0.3613
  351MOL0     O46208  -0.464   0.513   7.836 -0.3522 -0.5390 -0.1375
  351MOL0     C46209  -0.530   0.517   7.964 -0.2277  0.3713 -0.0341
  351MOL0     C46210  -0.665   0.443   7.953  0.5478  0.3814 -0.1611
  351MOL0     C46211  -0.761   0.510   7.849  0.4864 -0.1335 -0.6176
  351MOL0     C46212  -0.908   0.450   7.855  0.2624 -0.4634 -0.7593
  351MOL0     C46213  -0.975   0.457   7.711  0.6185 -0.1448  0.5562
  351MOL0     C46214  -1.107   0.379   7.693  0.1257 -0.4170  0.2923
  351MOL0     C46215  -1.161   0.398   7.555  0.1056 -0.7814 -0.1111
  351MOL0     C46216  -1.292   0.317   7.533  0.3118 -0.0739 -0.7070
  351MOL0     N46217  -1.409   0.355   7.609  0.0462  0.2388  0.6480
  351MOL0     C46218  -1.494   0.261   7.665 -0.1658 -0.0457 -0.4966
  351MOL0     C46219  -1.617   0.319   7.665  0.5926  0.4670 -0.5206
  351MOL0     C46220  -1.745   0.271   7.730 -0.9076  0.2304 -0.0061
  351MOL0     C46221  -1.861   0.268   7.630 -0.0148  0.6015  0.3842
  351MOL0     C46222  -2.003   0.249   7.683  0.0483  0.0563  0.6297
  351MOL0     C46223  -2.099   0.293   7.579  0.0768  0.2420 -0.2446
  351MOL0     O46224  -2.089   0.183   7.490  0.7965 -0.5139 -0.0925
  351MOL0     C46225  -2.217   0.153   7.434  0.1095 -0.3302 -0.0699
  351MOL0     C46226  -2.258   0.016   7.419 -0.0062 -0.7729 -0.2734
  351MOL0     C46227  -2.370  -0.018   7.357  0.6814 -0.3057  0.7537
  351MOL0     C46228  -2.460   0.086   7.296 -0.0248 -0.0543 -0.7073
  351MOL0     C46229  -2.602   0.058   7.253  0.3592  0.3962 -0.6357
  351MOL0     O46230  -2.685   0.164   7.222  0.5267  0.6159 -0.2619
  351MOL0     C46231  -2.819   0.134   7.227  0.6124  0.6323 -0.2216
  351MOL0     C46232  -2.879   0.114   7.107  0.5477 -0.2462  0.3625
  351MOL0     C46233  -3.021   0.091   7.095 -0.5804 -0.5097 -0.2015
  351MOL0     C46234  -3.096   0.096   7.214 -0.0068  0.1204 -1.0719
  351MOL0     O46235  -3.234   0.075   7.213  0.0801 -0.1076  0.3119
  351MOL0     C46236  -3.286  -0.015   7.115  0.5105  0.1130 -0.3822
  351MOL0     C46237  -3.429  -0.067   7.146 -0.1522 -0.3119 -0.1817
  351MOL0     C46238  -3.531   0.040   7.176 -0.3719 -0.3680  0.8873
  351MOL0     C46239  -3.672  -0.018   7.179 -0.2705 -0.5321 -0.0170
  351MOL0     C46240  -3.769   0.075   7.269 -0.5074  0.1751  0.0010
  351MOL0     C46241  -3.770   0.220   7.221 -0.4723 -0.8400  0.1925
  351MOL0     C46242  -3.877   0.293   7.310  0.0109 -0.0168 -0.4902
  351MOL0     C46243  -3.872   0.446   7.268 -0.0575 -0.5361 -0.5276
  351MOL0    Cl46244  -3.989   0.554   7.359  0.2603  0.6387  0.3060
  351MOL0     C46245  -3.031   0.115   7.336 -0.4161  0.3285  0.2572
  351MOL0     C46246  -2.890   0.140   7.344  0.1322  0.3903  0.4194
  351MOL0     O46247  -2.641  -0.061   7.246  0.2855  0.2329  0.4159
  351MOL0     C46248  -2.425   0.217   7.323 -0.0792  0.1541 -0.3674
  351MOL0     C46249  -2.300   0.251   7.381 -0.0186  0.2475  0.6686
  351MOL0     N46250  -1.606   0.434   7.592  0.4793 -0.5254  0.1476
  351MOL0     N46251  -1.490   0.447   7.550  0.3607 -0.6501 -0.2369
  351MOL0     C46252  -0.296   0.659   7.929 -0.8746  0.5467  0.5797
  351MOL0     C46253  -0.174   0.731   7.903  0.1641 -1.0479  0.9687
  351MOL0     C46254   0.255   0.810   7.876  0.8279  0.6167 -0.3972
  351MOL0     C46255   0.378   0.751   7.916  0.5200  0.1303 -0.3488
  351MOL0     C46256   0.499   0.830   7.919  0.2379  0.1202  0.3016
  351MOL0     C46257   0.498   0.961   7.877 -0.4462  0.0122 -0.5533
  351MOL0     O46258   0.608   1.045   7.879 -0.1196  0.0723  0.0522
  351MOL0     C46259   0.716   1.023   7.971 -0.8876 -1.1045 -0.5641
  351MOL0     C46260   0.816   1.145   7.970 -0.6695 -0.0040 -0.6569
  351MOL0     C46261   0.893   1.173   7.835 -0.5999 -0.1275 -0.7065
  351MOL0     C46262   0.996   1.064   7.802 -0.1015  0.8445  0.1011
  351MOL0     C46263   1.126   1.091   7.872 -0.6017 -0.3944 -0.5104
  351MOL0     C46264   1.236   1.092   7.925  0.1044  0.8403 -0.5717
  351MOL0     C46265   0.370   1.014   7.855  0.2457  0.9782  0.9466
  351MOL0     C46266   0.252   0.947   7.841  0.4393  0.1736  0.5099
  351MOL0     H46267  -0.061   0.580   7.627 -0.7383 -2.2630 -0.2036
  351MOL0     H46268  -0.273   0.467   7.648  1.6950 -0.0827  0.7629
  351MOL0     H46269  -0.540   0.622   7.992 -2.1093  0.2963 -0.3158
  351MOL0     H46270  -0.461   0.464   8.030  1.9420  2.2951 -0.6377
  351MOL0     H46271  -0.730   0.442   8.041 -4.0575  2.2492 -3.1677
  351MOL0     H46272  -0.641   0.339   7.928  0.1924  0.5155 -1.1307
  351MOL0     H46273  -0.715   0.487   7.752  0.6318  0.8107 -0.7794
  351MOL0     H46274  -0.757   0.617   7.870 -3.8790  0.3847 -1.3705
  351MOL0     H46275  -0.906   0.342   7.875  2.9029 -0.3036  0.2722
  351MOL0     H46276  -0.961   0.501   7.935  0.6237  0.2340 -0.9619
  351MOL0     H46277  -0.903   0.431   7.632 -1.2829  2.2414 -2.1633
  351MOL0     H46278  -1.010   0.560   7.699 -0.7474 -0.5845  0.6775
  351MOL0     H46279  -1.182   0.400   7.770 -0.1083 -3.6232  1.0840
  351MOL0     H46280  -1.076   0.274   7.691 -1.7743 -1.0485 -2.9270
  351MOL0     H46281  -1.162   0.505   7.536  0.9114 -0.3129  2.1660
  351MOL0     H46282  -1.088   0.361   7.483 -2.5521  0.5096 -3.7385
  351MOL0     H46283  -1.268   0.219   7.575  1.3140  1.3402  2.3100
  351MOL0     H46284  -1.315   0.314   7.426 -2.0144  0.1795 -0.2670
  351MOL0     H46285  -1.451   0.169   7.703  1.0390  1.5143  2.2647
  351MOL0     H46286  -1.767   0.337   7.814 -1.0724 -1.0612  1.0084
  351MOL0     H46287  -1.730   0.171   7.773 -1.3753  0.4684  0.7234
  351MOL0     H46288  -1.838   0.185   7.563 -0.0846  1.1031 -0.2717
  351MOL0     H46289  -1.855   0.355   7.563 -1.0060  1.5808  1.5313
  351MOL0     H46290  -2.023   0.143   7.703 -1.8221  0.3484  0.5242
  351MOL0     H46291  -2.021   0.291   7.783 -0.0648  1.1132  0.1680
  351MOL0     H46292  -2.076   0.393   7.541  1.2348  0.3308  0.6324
  351MOL0     H46293  -2.194   0.304   7.632  0.8295  0.5524  1.0721
  351MOL0     H46294  -2.182  -0.046   7.466  0.6990 -1.7343 -2.5277
  351MOL0     H46295  -2.397  -0.123   7.354  1.8555 -0.6178 -2.2145
  351MOL0     H46296  -2.810   0.116   7.023 -1.3001  0.3742 -1.2012
  351MOL0     H46297  -3.064   0.098   6.995  0.5615 -0.8766 -0.7386
  351MOL0     H46298  -3.219  -0.102   7.113  1.7470  0.6363  4.6876
  351MOL0     H46299  -3.289   0.028   7.015 -0.6191  1.2896  0.1394
  351MOL0     H46300  -3.418  -0.129   7.235 -0.2932  1.2764  0.9802
  351MOL0     H46301  -3.464  -0.130   7.063  0.8771 -3.6103  1.7198
  351MOL0     H46302  -3.532   0.115   7.097 -2.6289 -1.7298 -0.5122
  351MOL0     H46303  -3.511   0.079   7.276  0.9231 -2.8411  1.6796
  351MOL0     H46304  -3.711  -0.021   7.077  2.2837  0.7123 -1.1136
  351MOL0     H46305  -3.672  -0.113   7.233  0.6695  0.5457  2.0005
  351MOL0     H46306  -3.726   0.072   7.369 -0.0556 -1.1650 -0.2115
  351MOL0     H46307  -3.870   0.034   7.265 -0.5832  0.4481 -1.5345
  351MOL0     H46308  -3.792   0.225   7.114 -4.6263 -0.3353  0.9166
  351MOL0     H46309  -3.671   0.267   7.227  0.0208 -1.1862 -3.4596
  351MOL0     H46310  -3.977   0.253   7.292 -1.6477  2.9777  1.1661
  351MOL0     H46311  -3.851   0.279   7.415 -2.0783  1.9069  0.3951
  351MOL0     H46312  -3.881   0.461   7.160 -2.2466 -0.2089 -0.3450
  351MOL0     H46313  -3.776   0.480   7.307  0.0678 -0.7712 -0.6259
  351MOL0     H46314  -3.082   0.099   7.430  1.5502  1.3671  1.5646
  351MOL0     H46315  -2.836   0.170   7.433  0.5604 -1.2535  0.7600
  351MOL0     H46316  -2.498   0.295   7.304  1.8753  1.9253 -0.9077
  351MOL0     H46317  -2.273   0.353   7.406  1.5304 -0.2304  1.0932
  351MOL0     H46318  -0.347   0.687   8.021  1.8284  0.9127  2.0692
  351MOL0     H46319  -0.134   0.801   7.975 -0.9026 -0.8397  1.3744
  351MOL0     H46320   0.384   0.645   7.939  1.7774  0.5459  1.5028
  351MOL0     H46321   0.592   0.778   7.942 -0.1205 -2.5103 -3.3668
  351MOL0     H46322   0.771   0.932   7.944 -0.5589 -0.4232 -2.3429
  351MOL0     H46323   0.681   1.007   8.073 -1.5652 -0.2689 -0.6635
  351MOL0     H46324   0.776   1.246   7.985  2.6660  1.8484 -2.8254
  351MOL0     H46325   0.898   1.135   8.041 -1.0805 -0.3661 -0.2299
  351MOL0     H46326   0.952   1.264   7.844 -1.2165  0.0825  2.5972
  351MOL0     H46327   0.811   1.180   7.763 -0.1908  1.5019 -1.0533
  351MOL0     H46328   0.948   0.971   7.834  2.0159 -0.3250  0.0261
  351MOL0     H46329   1.016   1.070   7.694 -1.4187  2.3021 -0.0997
  351MOL0     H46330   1.336   1.089   7.962 -0.2719 -0.1471  0.4358
  351MOL0     H46331   0.354   1.118   7.827  2.6623  0.9997 -0.6792
  351MOL0     H46332   0.163   1.002   7.813  1.2102  2.5376  2.3946
  352MOL0     O46333   3.150   7.188   5.826  0.5946 -0.3946 -0.0622
  352MOL0     C46334   3.174   7.185   5.945 -0.3679 -0.1778 -0.5232
  352MOL0     O46335   3.081   7.184   6.043 -0.7145  0.2219 -0.1038
  352MOL0     C46336   2.950   7.172   6.009  0.3637 -0.1409  0.5125
  352MOL0     C46337   2.879   7.064   6.058 -0.2975 -0.1902  0.1326
  352MOL0     C46338   2.745   7.050   6.039 -0.3949  0.6593 -0.8339
  352MOL0     C46339   2.670   7.146   5.976  0.5530  0.0273  0.4514
  352MOL0     O46340   2.535   7.123   5.964  0.1560  0.2335  0.1269
  352MOL0     C46341   2.472   7.169   5.840 -0.0773  0.4463  0.2006
  352MOL0     C46342   2.322   7.140   5.872 -0.5081  0.5417 -0.6051
  352MOL0     C46343   2.216   7.153   5.757 -0.5560 -1.2459 -0.3134
  352MOL0     C46344   2.084   7.078   5.790 -0.2273 -0.0853 -0.3316
  352MOL0     C46345   1.991   7.085   5.670  0.2185 -0.4711 -0.3981
  352MOL0     C46346   1.872   6.991   5.688  0.1803 -0.1338  0.2123
  352MOL0     C46347   1.813   6.950   5.549 -0.3278  0.8927  0.7069
  352MOL0     C46348   1.734   7.063   5.484 -0.5560  0.5936  0.7179
  352MOL0     N46349   1.626   7.000   5.402  0.3048 -0.3649 -0.9248
  352MOL0     C46350   1.524   6.902   5.444 -0.1398 -0.0772 -0.4298
  352MOL0     C46351   1.425   6.912   5.344 -0.3773  0.5220  0.9031
  352MOL0     C46352   1.305   6.823   5.340 -0.5756  0.8319 -0.3934
  352MOL0     C46353   1.269   6.782   5.197 -0.1056  0.0889 -0.0405
  352MOL0     C46354   1.133   6.734   5.196  0.5603 -0.9894 -0.4917
  352MOL0     C46355   1.061   6.707   5.057 -0.8657  0.4844 -0.1716
  352MOL0     O46356   0.918   6.717   5.081 -0.2922  0.2081 -0.3864
  352MOL0     C46357   0.835   6.642   5.000 -0.6288  0.8001 -0.4225
  352MOL0     C46358   0.703   6.662   5.016  0.8342 -0.0673 -0.1309
  352MOL0     C46359   0.613   6.580   4.936 -0.4187 -0.2350  0.2065
  352MOL0     C46360   0.663   6.496   4.834 -0.8344  0.4468 -0.7680
  352MOL0     C46361   0.576   6.426   4.750  0.2090 -0.1785  0.7871
  352MOL0     O46362   0.629   6.309   4.712  0.6172 -0.6454  0.0417
  352MOL0     C46363   0.532   6.217   4.675 -0.0304  0.6619  0.7111
  352MOL0     C46364   0.444   6.231   4.569  0.1185  0.3681 -0.4197
  352MOL0     C46365   0.360   6.131   4.531 -1.3091  0.1032  0.4480
  352MOL0     C46366   0.339   6.014   4.610  0.9495 -0.4739  0.1787
  352MOL0     O46367   0.230   5.936   4.569  0.0985  0.0234  0.7259
  352MOL0     C46368   0.261   5.793   4.561  0.0003  0.2813 -0.4804
  352MOL0     C46369   0.279   5.747   4.417  0.3335  0.5130 -0.8303
  352MOL0     C46370   0.171   5.787   4.320 -0.8826  0.9986 -0.0736
  352MOL0     C46371   0.032   5.758   4.367  0.3090  0.4736  0.1625
  352MOL0     C46372  -0.075   5.802   4.266 -1.3789  0.5252  0.1604
  352MOL0     C46373  -0.218   5.782   4.309 -0.2705 -0.0529 -0.2031
  352MOL0     C46374  -0.251   5.635   4.301 -0.4351  1.1588  0.1579
  352MOL0     C46375  -0.399   5.603   4.306  0.3134  0.5442 -0.2707
  352MOL0    Cl46376  -0.430   5.431   4.310  0.0844  0.0158 -0.1703
  352MOL0     C46377   0.418   6.001   4.718 -0.4005  0.4322 -0.2355
  352MOL0     C46378   0.516   6.091   4.744  0.5391 -0.5388 -0.3192
  352MOL0     O46379   0.463   6.471   4.725 -0.0010 -0.0937 -0.9166
  352MOL0     C46380   0.802   6.479   4.819  1.1819  0.9967 -0.8499
  352MOL0     C46381   0.880   6.544   4.902 -0.1645  0.2597 -0.2647
  352MOL0     N46382   1.470   7.004   5.251  0.5272 -0.9044  0.3692
  352MOL0     N46383   1.587   7.049   5.282  0.9285 -0.4916 -0.1627
  352MOL0     C46384   2.740   7.252   5.927  0.2702 -0.6843  0.3540
  352MOL0     C46385   2.879   7.277   5.941  0.6966 -0.4461 -0.6613
  352MOL0     C46386   3.318   7.197   5.981  0.2846  0.1883  0.3296
  352MOL0     C46387   3.415   7.199   5.881 -0.8209 -0.7091  0.5143
  352MOL0     C46388   3.548   7.206   5.912  0.2791 -0.2450 -0.3966
  352MOL0     C46389   3.595   7.203   6.048 -0.6838  0.1713 -0.5940
  352MOL0     O46390   3.728   7.226   6.082 -0.1250  0.2976 -0.3340
  352MOL0     C46391   3.831   7.180   5.993 -0.7840 -1.1739 -0.6695
  352MOL0     C46392   3.971   7.202   6.061  0.6014  0.0917 -0.0825
  352MOL0     C46393   4.082   7.162   5.964  0.2901  0.5978  0.1195
  352MOL0     C46394   4.228   7.213   5.993 -0.0381  0.2725  0.0150
  352MOL0     C46395   4.301   7.119   6.080 -0.1386 -0.2968 -0.3557
  352MOL0     C46396   4.353   7.053   6.169  1.2409  0.0986  0.3296
  352MOL0     C46397   3.497   7.208   6.147  0.1666  0.2690 -0.1479
  352MOL0     C46398   3.364   7.201   6.117  0.6501  0.2922  0.9686
  352MOL0     H46399   2.939   6.980   6.090 -1.1855 -0.6958  0.5225
  352MOL0     H46400   2.696   6.960   6.074 -0.9080  0.8093 -1.1464
  352MOL0     H46401   2.514   7.109   5.758  0.1818 -1.7312  1.8255
  352MOL0     H46402   2.488   7.274   5.815  2.8207  0.0854  0.2484
  352MOL0     H46403   2.291   7.208   5.952 -0.3071  1.6136 -1.4139
  352MOL0     H46404   2.318   7.039   5.913 -0.4743  0.5969 -0.4665
  352MOL0     H46405   2.260   7.095   5.676  4.1242 -1.3468  1.9688
  352MOL0     H46406   2.208   7.257   5.723  1.0622 -0.3685  1.7616
  352MOL0     H46407   2.109   6.974   5.811 -1.6073 -0.7345 -1.6725
  352MOL0     H46408   2.043   7.120   5.882 -0.4148 -0.5377 -0.2041
  352MOL0     H46409   2.039   7.055   5.576 -2.2045  0.2060 -1.9305
  352MOL0     H46410   1.958   7.189   5.659  0.5750 -0.5435 -2.5622
  352MOL0     H46411   1.798   7.048   5.745 -0.8270 -0.9512 -0.2435
  352MOL0     H46412   1.899   6.905   5.749  1.9708  0.2164 -0.0522
  352MOL0     H46413   1.883   6.898   5.483 -1.5110 -1.9055  1.5266
  352MOL0     H46414   1.738   6.874   5.573 -1.9245  1.3344 -2.3978
  352MOL0     H46415   1.803   7.110   5.413 -1.9698  2.0534  0.2804
  352MOL0     H46416   1.689   7.131   5.555 -1.2694  1.7548 -0.7900
  352MOL0     H46417   1.520   6.840   5.533  0.6141 -2.1294 -1.7520
  352MOL0     H46418   1.227   6.872   5.399 -1.0005 -2.3250  1.9564
  352MOL0     H46419   1.329   6.732   5.397  2.1027  1.2796 -0.7188
  352MOL0     H46420   1.337   6.707   5.156  1.3420  1.6355 -0.6308
  352MOL0     H46421   1.272   6.880   5.148  0.9155  0.4410  0.6667
  352MOL0     H46422   1.139   6.644   5.257  1.4531  0.1005  1.1136
  352MOL0     H46423   1.061   6.799   5.247  1.6566  0.3003 -0.5216
  352MOL0     H46424   1.100   6.610   5.023 -4.1449 -1.0086 -0.0383
  352MOL0     H46425   1.090   6.793   4.997  0.3496  0.2643  0.0653
  352MOL0     H46426   0.667   6.743   5.078  2.6751  1.6225 -1.1501
  352MOL0     H46427   0.505   6.590   4.943 -1.0157  0.1359 -5.2762
  352MOL0     H46428   0.441   6.310   4.495  0.0593 -1.5581 -2.5903
  352MOL0     H46429   0.294   6.140   4.445 -3.7643  2.8728  2.4529
  352MOL0     H46430   0.181   5.740   4.613  1.9548 -1.4062  0.9767
  352MOL0     H46431   0.347   5.764   4.622  0.9540 -0.3126 -2.0536
  352MOL0     H46432   0.283   5.638   4.426 -3.3415  0.3387  0.2313
  352MOL0     H46433   0.377   5.788   4.391  0.7694 -0.9410 -1.6196
  352MOL0     H46434   0.185   5.738   4.222  1.6247  0.9954  0.2223
  352MOL0     H46435   0.176   5.895   4.302 -1.7373  0.9164 -0.8732
  352MOL0     H46436   0.018   5.653   4.394 -2.6907  0.6818 -0.2738
  352MOL0     H46437   0.013   5.825   4.452  1.6257 -0.2600  1.0663
  352MOL0     H46438  -0.050   5.758   4.169 -1.2818 -1.3714  0.9906
  352MOL0     H46439  -0.070   5.911   4.258  1.1558  0.3474 -2.5564
  352MOL0     H46440  -0.287   5.849   4.258 -1.5926 -2.6466 -2.0780
  352MOL0     H46441  -0.225   5.815   4.413  0.9253 -0.9940  0.1935
  352MOL0     H46442  -0.215   5.591   4.207 -0.4469 -3.5365  2.1028
  352MOL0     H46443  -0.211   5.576   4.384  0.0959 -3.4889 -3.0211
  352MOL0     H46444  -0.456   5.632   4.217 -0.2086 -3.2431 -1.3206
  352MOL0     H46445  -0.452   5.647   4.392 -3.8143 -0.6597 -1.9273
  352MOL0     H46446   0.414   5.919   4.790 -3.5389 -0.0490 -0.7919
  352MOL0     H46447   0.581   6.087   4.830  1.5349  2.4411 -0.8048
  352MOL0     H46448   0.843   6.406   4.750 -1.5753  0.0710 -1.6245
  352MOL0     H46449   0.986   6.545   4.880 -0.2227  3.1210 -0.7803
  352MOL0     H46450   2.682   7.326   5.872 -3.4418 -3.3019  0.4217
  352MOL0     H46451   2.939   7.359   5.902 -0.2725  1.2714  1.2306
  352MOL0     H46452   3.376   7.210   5.780  0.6155  2.6041  0.1788
  352MOL0     H46453   3.624   7.224   5.836 -1.1537  3.3096 -1.2054
  352MOL0     H46454   3.828   7.238   5.900  1.6176 -2.4812 -1.6565
  352MOL0     H46455   3.816   7.075   5.964 -2.3095 -1.3598  0.6485
  352MOL0     H46456   3.993   7.308   6.080 -1.9191  1.1797 -2.5137
  352MOL0     H46457   3.976   7.146   6.155  1.3226  1.0643  0.4758
  352MOL0     H46458   4.059   7.195   5.862  1.8455  0.2970 -0.3548
  352MOL0     H46459   4.077   7.053   5.954 -0.2166  0.6954 -0.7322
  352MOL0     H46460   4.288   7.211   5.901 -0.2748  2.0084 -0.2178
  352MOL0     H46461   4.223   7.314   6.034 -0.0625  0.1660  0.2784
  352MOL0     H46462   4.393   7.002   6.254 -1.7891  0.0275  1.8623
  352MOL0     H46463   3.535   7.211   6.249 -0.7384  0.3860  0.1940
  352MOL0     H46464   3.281   7.186   6.186  0.8603  0.8490  1.3521
  353MOL0     O46465   8.852   9.944   9.840  0.0533 -0.0877 -0.0489
  353MOL0     C46466   8.930  10.033   9.827 -0.2811  0.1366 -0.0733
  353MOL0     O46467   8.924  10.116   9.718 -0.7286 -0.2201 -0.2419
  353MOL0     C46468   8.806  10.147   9.666 -0.0601 -0.2102  0.3097
  353MOL0     C46469   8.704  10.201   9.741  0.2568 -0.2843  0.5462
  353MOL0     C46470   8.579  10.227   9.685 -0.6421  0.5961  0.3551
  353MOL0     C46471   8.563  10.216   9.545  0.3793 -0.4645 -0.0823
  353MOL0     O46472   8.443  10.238   9.475  0.3991 -0.0400 -0.1795
  353MOL0     C46473   8.375  10.352   9.522  0.2059  0.2971 -0.1741
  353MOL0     C46474   8.294  10.426   9.406  0.1118 -0.4292  0.1936
  353MOL0     C46475   8.159  10.361   9.373  0.0645  0.1400 -0.1771
  353MOL0     C46476   8.092  10.448   9.273 -0.1627 -1.0615  0.1531
  353MOL0     C46477   7.952  10.399   9.223 -0.1134 -0.8332 -0.4230
  353MOL0     C46478   7.969  10.282   9.134 -1.1665 -0.2284  0.0039
  353MOL0     C46479   7.827  10.246   9.083  0.0895 -0.3235 -0.0706
  353MOL0     C46480   7.838  10.132   8.984 -0.0991  0.1883  0.8758
  353MOL0     N46481   7.717  10.074   8.929  0.2030 -0.4861 -0.5301
  353MOL0     C46482   7.639  10.136   8.830  0.2530  0.5259 -0.1390
  353MOL0     C46483   7.533  10.046   8.818 -1.4098 -1.0756  0.9122
  353MOL0     C46484   7.435  10.060   8.700  0.2798  0.5170  0.3320
  353MOL0     C46485   7.365   9.922   8.675 -0.4218 -0.3414 -0.7354
  353MOL0     C46486   7.265   9.931   8.563  0.5920 -0.3360 -0.1292
  353MOL0     C46487   7.121   9.957   8.616 -0.1903 -0.3116  0.7403
  353MOL0     O46488   7.034   9.940   8.510 -0.2320 -0.1734 -0.8380
  353MOL0     C46489   6.926   9.862   8.547 -0.0717  0.1702 -0.7816
  353MOL0     C46490   6.799   9.915   8.577  0.0224 -0.8171  0.0253
  353MOL0     C46491   6.694   9.838   8.623  0.2708  1.0538  0.0818
  353MOL0     C46492   6.716   9.695   8.642  0.3341  0.7718 -0.2998
  353MOL0     C46493   6.595   9.600   8.685 -0.3060  0.1138  0.1167
  353MOL0     O46494   6.615   9.467   8.664  0.0663  0.4450 -0.7209
  353MOL0     C46495   6.503   9.387   8.651  0.9632  0.5485 -0.5289
  353MOL0     C46496   6.431   9.327   8.765  0.3495 -0.7176  0.0519
  353MOL0     C46497   6.305   9.263   8.743 -0.1110 -0.0147 -0.4515
  353MOL0     C46498   6.264   9.235   8.614 -0.7764  0.2071 -0.3376
  353MOL0     O46499   6.147   9.174   8.568  0.2070 -0.5609  0.5405
  353MOL0     C46500   6.054   9.136   8.670 -0.1732  0.0256 -0.5580
  353MOL0     C46501   5.933   9.082   8.608  0.7828 -0.0420  0.1535
  353MOL0     C46502   5.829   9.036   8.711  0.5714 -0.4488  0.5715
  353MOL0     C46503   5.698   8.977   8.654 -0.8540 -0.0659  0.8868
  353MOL0     C46504   5.596   8.930   8.756 -0.1143  0.3249 -0.6579
  353MOL0     C46505   5.461   8.878   8.696 -0.1255  1.1434 -0.1713
  353MOL0     C46506   5.370   8.788   8.785 -0.0631 -0.1684  0.3309
  353MOL0     C46507   5.238   8.755   8.704 -0.4443  0.0899 -0.0779
  353MOL0    Cl46508   5.147   8.630   8.792 -0.2026 -0.2651 -0.3128
  353MOL0     C46509   6.337   9.287   8.508 -0.1567  0.6416 -0.6373
  353MOL0     C46510   6.450   9.365   8.528 -0.6614 -0.0268  0.5989
  353MOL0     O46511   6.489   9.654   8.706  0.0029  0.2699 -0.1235
  353MOL0     C46512   6.843   9.643   8.625 -0.4368  0.5796 -0.5403
  353MOL0     C46513   6.948   9.724   8.572  0.6148  0.3232  0.2891
  353MOL0     N46514   7.546   9.944   8.910  0.4877 -0.4073 -0.9314
  353MOL0     N46515   7.650   9.962   8.978 -0.7652  0.6065  0.6374
  353MOL0     C46516   8.663  10.173   9.465  0.3223 -0.8193  0.5301
  353MOL0     C46517   8.786  10.134   9.526 -0.7068  0.4716  0.7061
  353MOL0     C46518   9.043  10.033   9.922 -1.2477 -0.3803 -0.3782
  353MOL0     C46519   9.074   9.924  10.004 -0.2825 -0.8634  1.1352
  353MOL0     C46520   9.179   9.933  10.093 -0.2098 -0.5241  0.8033
  353MOL0     C46521   9.259  10.046  10.111 -0.5625  0.6121  1.0384
  353MOL0     O46522   9.362  10.063  10.197 -0.3160 -0.2831 -0.1152
  353MOL0     C46523   9.435   9.957  10.237 -0.3996 -0.2792 -0.1907
  353MOL0     C46524   9.406   9.910  10.385  0.1425 -0.2180  0.2997
  353MOL0     C46525   9.426  10.020  10.479 -0.2425  0.0291 -0.4213
  353MOL0     C46526   9.400   9.957  10.618 -0.3226 -1.5233 -0.4301
  353MOL0     C46527   9.435  10.045  10.730 -0.4943  0.0732 -0.0211
  353MOL0     C46528   9.460  10.125  10.814 -0.0506 -0.4111 -0.4314
  353MOL0     C46529   9.227  10.153  10.030  0.3830  0.1791  0.1558
  353MOL0     C46530   9.128  10.146   9.930  0.2836  0.7137  0.2391
  353MOL0     H46531   8.701  10.216   9.848 -2.3099  2.2664  0.2518
  353MOL0     H46532   8.499  10.257   9.752  0.2798  3.1057  0.4429
  353MOL0     H46533   8.442  10.428   9.562 -1.5804  1.7161  0.2549
  353MOL0     H46534   8.316  10.324   9.610 -0.1619 -1.3325 -0.9033
  353MOL0     H46535   8.362  10.429   9.320  1.2858  1.8083  1.1033
  353MOL0     H46536   8.275  10.532   9.422 -3.4781 -0.4586 -2.6769
  353MOL0     H46537   8.088  10.357   9.456 -2.9049 -0.7332 -2.5438
  353MOL0     H46538   8.169  10.264   9.323 -0.7259  0.8304 -1.7438
  353MOL0     H46539   8.084  10.547   9.319 -0.8467 -1.2843  0.5362
  353MOL0     H46540   8.154  10.456   9.183  0.8201  0.4457  0.9120
  353MOL0     H46541   7.903  10.482   9.171  0.5551 -1.9862 -3.0780
  353MOL0     H46542   7.885  10.377   9.307 -0.6817 -0.5528 -0.7931
  353MOL0     H46543   8.013  10.203   9.196 -3.5373  0.7928  3.3075
  353MOL0     H46544   8.035  10.306   9.050 -0.0267 -1.4594  0.5129
  353MOL0     H46545   7.757  10.216   9.162 -0.2166  1.7050  0.4655
  353MOL0     H46546   7.789  10.335   9.032  0.4902 -0.6122 -0.8935
  353MOL0     H46547   7.898  10.048   9.021  2.0050  1.5904  0.8089
  353MOL0     H46548   7.894  10.168   8.897  0.1705 -1.3801  0.3535
  353MOL0     H46549   7.663  10.212   8.757  0.0655 -0.4695 -1.2731
  353MOL0     H46550   7.476  10.097   8.605 -0.8333 -0.4946 -0.5776
  353MOL0     H46551   7.355  10.128   8.733 -2.0526 -1.8789 -0.0332
  353MOL0     H46552   7.327   9.886   8.771  0.1639 -0.2946 -0.4831
  353MOL0     H46553   7.446   9.852   8.655 -0.7152 -1.0888  0.5915
  353MOL0     H46554   7.272  10.005   8.482 -2.0315 -0.8728 -0.9677
  353MOL0     H46555   7.279   9.835   8.512  2.7554  1.4413 -3.2392
  353MOL0     H46556   7.121  10.060   8.653  1.0812  0.1909 -0.5447
  353MOL0     H46557   7.101   9.887   8.698 -0.8485 -0.8545  0.1332
  353MOL0     H46558   6.782  10.022   8.578 -1.6036 -1.0298  2.2553
  353MOL0     H46559   6.601   9.884   8.655 -0.9035 -2.0190  1.5304
  353MOL0     H46560   6.460   9.344   8.868 -2.5928 -2.7596  1.3597
  353MOL0     H46561   6.249   9.239   8.833  0.3169  2.3248  0.5206
  353MOL0     H46562   6.025   9.213   8.742 -1.6239 -1.9532  1.1012
  353MOL0     H46563   6.103   9.062   8.735  0.5537 -0.2427 -1.3890
  353MOL0     H46564   5.956   8.999   8.542  2.4938  0.8992 -0.5011
  353MOL0     H46565   5.890   9.169   8.558  2.1346 -1.8579 -4.7597
  353MOL0     H46566   5.796   9.121   8.771 -0.1392  0.7267 -1.3857
  353MOL0     H46567   5.866   8.961   8.782 -1.2470  0.9233  3.1353
  353MOL0     H46568   5.653   9.054   8.591  1.2058 -0.2974 -0.9835
  353MOL0     H46569   5.731   8.890   8.596  0.3451 -0.0860  1.5531
  353MOL0     H46570   5.582   9.010   8.829 -0.1194 -2.2352  2.3865
  353MOL0     H46571   5.640   8.845   8.809 -0.3366  0.9178  0.5180
  353MOL0     H46572   5.497   8.809   8.619  2.2718 -0.7257  2.4118
  353MOL0     H46573   5.399   8.961   8.661 -1.0799 -0.6900 -3.2155
  353MOL0     H46574   5.408   8.691   8.818  0.2402 -0.3943 -0.6483
  353MOL0     H46575   5.346   8.838   8.879  0.1053 -0.7494  0.6904
  353MOL0     H46576   5.274   8.730   8.604  2.5739  0.4064  0.8081
  353MOL0     H46577   5.183   8.849   8.700  0.3674  0.5286 -2.1765
  353MOL0     H46578   6.306   9.266   8.406  1.0146  0.6341 -1.0032
  353MOL0     H46579   6.489   9.411   8.438 -0.7604  0.3130  0.7273
  353MOL0     H46580   6.864   9.541   8.657 -2.3186  0.0060 -1.0316
  353MOL0     H46581   7.043   9.680   8.542 -0.1144 -0.4367 -0.9909
  353MOL0     H46582   8.636  10.159   9.361  1.1988  2.3831 -0.2552
  353MOL0     H46583   8.860  10.091   9.458 -1.5907  1.1035 -0.7094
  353MOL0     H46584   9.008   9.837  10.002 -2.1158  0.4894 -0.6822
  353MOL0     H46585   9.197   9.847  10.157  0.7142 -1.7708 -1.0663
  353MOL0     H46586   9.543   9.975  10.238 -0.0766 -2.0323  0.6946
  353MOL0     H46587   9.420   9.870  10.171 -0.0644  1.3556 -2.5545
  353MOL0     H46588   9.300   9.885  10.380  0.1465 -0.1004 -0.5813
  353MOL0     H46589   9.465   9.824  10.418 -0.3722  0.4085  3.0882
  353MOL0     H46590   9.357  10.100  10.453 -0.0816  0.0865 -0.6754
  353MOL0     H46591   9.522  10.073  10.477 -0.5890  0.6451 -2.0937
  353MOL0     H46592   9.294   9.929  10.620  0.2000 -3.6855 -0.7599
  353MOL0     H46593   9.477   9.881  10.630  0.7810 -0.0206  4.0693
  353MOL0     H46594   9.498  10.190  10.890  0.4966 -1.5695  0.3117
  353MOL0     H46595   9.281  10.247  10.031  3.7683 -1.5961 -0.0469
  353MOL0     H46596   9.109  10.225   9.857  3.7525  2.6637  1.2278
  354MOL0     O46597  10.615   8.939   4.909  0.6377 -0.4369  0.3204
  354MOL0     C46598  10.594   9.032   4.990 -0.0569  0.4251  0.0323
  354MOL0     O46599  10.472   9.077   5.035  0.2206  0.0094  0.0330
  354MOL0     C46600  10.353   9.023   4.984 -0.3507 -0.1904 -0.8558
  354MOL0     C46601  10.252   9.120   4.962  0.1892 -0.0064  0.3301
  354MOL0     C46602  10.121   9.070   4.934  0.4169  0.1313 -0.3609
  354MOL0     C46603  10.086   8.930   4.925 -1.4056 -0.0903 -0.0526
  354MOL0     O46604   9.955   8.882   4.899  0.3748 -0.7694  0.0387
  354MOL0     C46605   9.911   8.898   4.757  0.3955 -0.4000  0.1503
  354MOL0     C46606   9.764   8.873   4.745 -0.3920  0.4142 -0.3181
  354MOL0     C46607   9.674   8.964   4.822 -0.1056 -0.5753 -0.2332
  354MOL0     C46608   9.523   8.956   4.785 -0.0874 -0.0920  0.2796
  354MOL0     C46609   9.442   9.027   4.894  0.3656  0.7381 -0.0070
  354MOL0     C46610   9.295   9.005   4.860 -0.4804 -0.9741  0.7674
  354MOL0     C46611   9.191   9.079   4.943 -0.2725  1.0017  0.8145
  354MOL0     C46612   9.116   9.179   4.850 -0.6522 -0.1331 -0.1418
  354MOL0     N46613   9.015   9.131   4.759  0.1348  0.7196  0.5303
  354MOL0     C46614   8.894   9.193   4.726  0.0157  0.2803 -0.5514
  354MOL0     C46615   8.832   9.111   4.643 -0.0168  0.2358 -0.2494
  354MOL0     C46616   8.696   9.136   4.585  0.6960  0.3113  0.1278
  354MOL0     C46617   8.620   9.001   4.567 -0.0145 -0.2603 -0.5397
  354MOL0     C46618   8.479   8.999   4.493  0.1524  0.0889 -0.4526
  354MOL0     C46619   8.380   9.077   4.572 -0.2834 -0.1843  0.0105
  354MOL0     O46620   8.273   9.125   4.501 -0.0202 -0.1754  0.6364
  354MOL0     C46621   8.161   9.043   4.488  0.1168  0.0073 -0.1580
  354MOL0     C46622   8.049   9.100   4.422 -1.1117  0.3276  0.8831
  354MOL0     C46623   7.945   9.023   4.376 -0.3664 -0.4644  0.0416
  354MOL0     C46624   7.938   8.881   4.402  0.7272 -0.1931  0.4185
  354MOL0     C46625   7.817   8.809   4.364  0.5531 -0.4686  0.5889
  354MOL0     O46626   7.818   8.675   4.370  0.4546 -0.1956  0.0306
  354MOL0     C46627   7.707   8.622   4.309  0.1004  0.0461  0.0736
  354MOL0     C46628   7.615   8.560   4.388 -0.2866  0.0066 -0.0505
  354MOL0     C46629   7.490   8.528   4.343 -0.2968 -0.0580 -0.0525
  354MOL0     C46630   7.448   8.551   4.210 -0.4957 -0.3752  0.3458
  354MOL0     O46631   7.313   8.534   4.177  0.3907  0.2808 -0.1505
  354MOL0     C46632   7.294   8.492   4.041  0.5761 -0.3936 -0.7314
  354MOL0     C46633   7.142   8.468   4.020  0.5145  0.4089  0.0632
  354MOL0     C46634   7.040   8.579   4.059  0.0811 -0.5159  0.2253
  354MOL0     C46635   6.902   8.532   4.068  0.2660  0.1000 -0.6554
  354MOL0     C46636   6.818   8.632   4.148 -0.1605  0.0504  0.4130
  354MOL0     C46637   6.669   8.589   4.149  1.0542 -0.9138 -0.7708
  354MOL0     C46638   6.586   8.702   4.216  0.5837  0.4203  0.1846
  354MOL0     C46639   6.437   8.653   4.222 -0.3094 -0.4677 -0.5508
  354MOL0    Cl46640   6.350   8.779   4.298 -0.3060  0.4941  0.2805
  354MOL0     C46641   7.549   8.594   4.121 -0.5986 -0.6314 -0.1697
  354MOL0     C46642   7.678   8.638   4.177  0.1618  1.1313 -0.2292
  354MOL0     O46643   7.715   8.881   4.339  0.5861 -0.8080  0.0106
  354MOL0     C46644   8.048   8.820   4.471  0.5149 -0.1869  0.9931
  354MOL0     C46645   8.157   8.909   4.500  1.1174  0.0847 -1.1646
  354MOL0     N46646   8.919   9.011   4.614  0.5037 -0.3765 -0.3302
  354MOL0     N46647   9.029   9.023   4.678  0.0517 -0.7527 -0.1502
  354MOL0     C46648  10.193   8.836   4.936 -0.8113  0.4586 -0.2138
  354MOL0     C46649  10.321   8.888   4.976 -0.1300  0.6902 -0.1048
  354MOL0     C46650  10.708   9.084   5.058  0.4281 -0.4164 -0.2724
  354MOL0     C46651  10.695   9.217   5.108  0.6616  0.6078 -0.7480
  354MOL0     C46652  10.801   9.286   5.153  0.2524  0.1622 -0.8478
  354MOL0     C46653  10.924   9.217   5.167 -0.7327 -0.2851  0.4638
  354MOL0     O46654  11.032   9.286   5.213  0.7804 -0.0004 -0.1977
  354MOL0     C46655  11.162   9.233   5.234 -0.2088 -0.3031 -0.2367
  354MOL0     C46656  11.146   9.147   5.360  0.8898  0.5681 -0.1547
  354MOL0     C46657  11.139   9.236   5.481 -0.6806  0.1273  0.0259
  354MOL0     C46658  11.127   9.156   5.607 -0.3672 -0.1036  1.2625
  354MOL0     C46659  11.061   9.218   5.717  0.7141  0.2213 -1.0043
  354MOL0     C46660  11.005   9.243   5.824 -0.2287 -0.2583  0.2099
  354MOL0     C46661  10.934   9.088   5.111  0.3242  0.1970  0.1005
  354MOL0     C46662  10.828   9.025   5.058 -0.3821  0.2134  0.7163
  354MOL0     H46663  10.270   9.227   4.962 -0.1869  0.0967 -1.5653
  354MOL0     H46664  10.038   9.133   4.903 -0.9197 -0.6858  1.3859
  354MOL0     H46665   9.964   8.831   4.689  1.2753  1.4084 -1.0140
  354MOL0     H46666   9.931   8.994   4.709  2.0931  0.6037  2.6647
  354MOL0     H46667   9.738   8.771   4.774  0.6673  0.4465  0.8063
  354MOL0     H46668   9.733   8.880   4.640 -0.7692 -2.1746 -0.4409
  354MOL0     H46669   9.700   9.067   4.797  1.2894  0.6690  5.0371
  354MOL0     H46670   9.690   8.950   4.930  2.8656  1.5026 -0.2824
  354MOL0     H46671   9.509   8.987   4.682  0.8470  0.6952  0.3818
  354MOL0     H46672   9.489   8.852   4.796 -1.2921  0.5050  3.7218
  354MOL0     H46673   9.460   9.134   4.909 -1.1268  1.0989 -0.5735
  354MOL0     H46674   9.460   8.978   4.990 -0.3436 -2.0548 -1.1731
  354MOL0     H46675   9.257   8.903   4.868 -2.2417 -0.3356  0.9483
  354MOL0     H46676   9.275   9.023   4.754 -1.5059 -0.1727  1.0848
  354MOL0     H46677   9.112   9.008   4.968 -0.3357 -0.2419 -2.4576
  354MOL0     H46678   9.238   9.116   5.035  2.1601 -0.2407  0.1749
  354MOL0     H46679   9.186   9.247   4.802  0.4247 -0.5994  0.7250
  354MOL0     H46680   9.061   9.245   4.918 -1.0067  1.0216 -1.5169
  354MOL0     H46681   8.862   9.291   4.760 -1.1821 -0.5656  0.8881
  354MOL0     H46682   8.700   9.183   4.487  0.2034 -1.8384 -0.9676
  354MOL0     H46683   8.636   9.200   4.650 -1.4785 -1.8810  0.4150
  354MOL0     H46684   8.617   8.953   4.666  2.1367 -2.1138 -1.2912
  354MOL0     H46685   8.679   8.939   4.500  0.7432  2.2645 -2.3418
  354MOL0     H46686   8.487   9.038   4.391  0.8449  0.7307 -0.1683
  354MOL0     H46687   8.440   8.898   4.481  1.5689 -0.4556 -0.6677
  354MOL0     H46688   8.428   9.172   4.599  1.9010 -0.2342 -3.1930
  354MOL0     H46689   8.355   9.027   4.666 -0.5919 -0.5037 -0.2412
  354MOL0     H46690   8.045   9.206   4.397  1.6747  0.1515 -0.6840
  354MOL0     H46691   7.864   9.083   4.334  0.1527 -0.4754 -0.9840
  354MOL0     H46692   7.644   8.534   4.489 -1.9332 -0.8446  0.2313
  354MOL0     H46693   7.421   8.484   4.414 -1.3418  1.2423 -0.2340
  354MOL0     H46694   7.350   8.400   4.023 -0.4649 -0.5421 -3.7882
  354MOL0     H46695   7.322   8.566   3.966  0.3223  1.5241  0.9705
  354MOL0     H46696   7.117   8.374   4.071 -3.5828  0.7192 -1.0259
  354MOL0     H46697   7.118   8.466   3.913 -1.6463  0.0315  0.5114
  354MOL0     H46698   7.045   8.663   3.989 -0.7806 -0.7259 -0.0892
  354MOL0     H46699   7.069   8.630   4.152 -0.2042  2.2985 -1.1036
  354MOL0     H46700   6.869   8.528   3.964 -3.2373 -3.1720  0.3326
  354MOL0     H46701   6.897   8.431   4.110  0.9589 -0.0745 -0.9810
  354MOL0     H46702   6.836   8.733   4.111 -0.1621  1.0966  3.0342
  354MOL0     H46703   6.863   8.629   4.248  1.3417  1.2271 -0.1998
  354MOL0     H46704   6.650   8.497   4.206  2.3983 -2.7688 -3.1193
  354MOL0     H46705   6.626   8.569   4.050 -0.0373 -3.0804  0.0569
  354MOL0     H46706   6.630   8.730   4.312  3.2693 -2.0867 -0.1787
  354MOL0     H46707   6.582   8.790   4.151 -0.4469  0.3265  0.1078
  354MOL0     H46708   6.421   8.556   4.272 -1.4705  0.4215  0.8959
  354MOL0     H46709   6.406   8.634   4.119  0.6741 -1.0652 -0.7526
  354MOL0     H46710   7.520   8.623   4.021  1.6588  1.4564 -0.3209
  354MOL0     H46711   7.743   8.691   4.108  1.0536  0.0861 -0.2224
  354MOL0     H46712   8.053   8.714   4.494  2.1754 -0.2655  0.3903
  354MOL0     H46713   8.248   8.868   4.543  1.1830  1.4203  0.0402
  354MOL0     H46714  10.176   8.730   4.923  0.4527  0.2583 -0.3859
  354MOL0     H46715  10.408   8.828   5.001 -0.8379  0.6510  2.6050
  354MOL0     H46716  10.603   9.274   5.100 -1.1710 -1.8222  1.2842
  354MOL0     H46717  10.794   9.392   5.177 -0.5725  0.3016 -1.6410
  354MOL0     H46718  11.236   9.311   5.255  0.6725 -0.9782 -0.7272
  354MOL0     H46719  11.212   9.188   5.148  1.2508  1.4969 -0.3855
  354MOL0     H46720  11.059   9.082   5.354 -0.6436  2.3911  1.1207
  354MOL0     H46721  11.231   9.081   5.375 -1.8136 -2.8797  1.2101
  354MOL0     H46722  11.044   9.291   5.474 -0.5594  0.2501 -0.7886
  354MOL0     H46723  11.223   9.307   5.483  0.8943 -1.6697 -0.2638
  354MOL0     H46724  11.062   9.071   5.586 -0.8428  0.3717  0.7713
  354MOL0     H46725  11.222   9.104   5.623 -1.3683 -1.8164  1.8670
  354MOL0     H46726  10.947   9.267   5.911  1.6161  2.0902  0.9125
  354MOL0     H46727  11.034   9.046   5.116  0.0734 -0.8483 -2.1396
  354MOL0     H46728  10.849   8.927   5.016 -1.6343 -0.4629  1.5988
  355MOL0     O46729   0.704   4.863   0.481  0.3056 -0.1690  0.6606
  355MOL0     C46730   0.733   4.944   0.567 -0.7634  0.0353  0.6468
  355MOL0     O46731   0.649   5.038   0.624  0.0794 -0.4217  0.6515
  355MOL0     C46732   0.515   5.048   0.579  0.4401 -0.6860  0.1139
  355MOL0     C46733   0.470   5.178   0.584  0.2546 -0.7431  0.2633
  355MOL0     C46734   0.333   5.215   0.580  0.3361  0.7961 -0.2655
  355MOL0     C46735   0.236   5.111   0.550  0.2788 -0.3663 -0.0246
  355MOL0     O46736   0.116   5.161   0.526  0.3097  0.2422  0.5090
  355MOL0     C46737   0.001   5.073   0.545  0.1841 -0.3833 -0.1956
  355MOL0     C46738  -0.043   5.030   0.690  0.1806 -0.1359  0.7091
  355MOL0     C46739  -0.050   5.163   0.774 -1.1733  0.1091 -1.3429
  355MOL0     C46740  -0.108   5.140   0.916 -0.1284 -0.0762  0.1273
  355MOL0     C46741  -0.028   5.039   1.008  0.3799 -0.2418 -0.5064
  355MOL0     C46742  -0.055   5.061   1.163 -0.4627 -0.1060  0.3894
  355MOL0     C46743   0.061   4.992   1.240 -0.6628 -0.2411 -0.3339
  355MOL0     C46744   0.052   4.833   1.239  0.5665 -0.6808  0.3997
  355MOL0     N46745   0.163   4.784   1.317 -0.0506 -0.5343 -0.4474
  355MOL0     C46746   0.286   4.768   1.257 -0.2601  0.4828  0.0753
  355MOL0     C46747   0.361   4.730   1.366 -0.9620 -0.9832  0.3174
  355MOL0     C46748   0.500   4.687   1.363 -0.3740  0.3861 -0.2099
  355MOL0     C46749   0.507   4.533   1.339 -0.6756 -1.5950  0.8185
  355MOL0     C46750   0.456   4.450   1.449 -0.3316  0.7669 -0.6238
  355MOL0     C46751   0.415   4.312   1.409 -0.0453  0.4266  0.0592
  355MOL0     O46752   0.492   4.266   1.296 -0.2385  0.4959 -0.2435
  355MOL0     C46753   0.614   4.214   1.322 -0.3342 -0.6467  0.1954
  355MOL0     C46754   0.686   4.175   1.208 -0.2136  0.4067 -0.4580
  355MOL0     C46755   0.820   4.127   1.208  0.2120 -0.0275  0.3037
  355MOL0     C46756   0.887   4.132   1.333 -0.4795  0.6426 -0.0601
  355MOL0     C46757   1.032   4.088   1.344 -0.3996  0.2232  0.1896
  355MOL0     O46758   1.101   4.108   1.460  0.2969 -0.1424 -0.6312
  355MOL0     C46759   1.231   4.073   1.485 -0.0009 -0.5732  0.1716
  355MOL0     C46760   1.259   4.045   1.619 -0.0909 -0.5628 -0.4673
  355MOL0     C46761   1.393   4.016   1.648  0.4210 -0.3857 -0.2023
  355MOL0     C46762   1.498   4.027   1.555  0.1472 -0.5715  0.8107
  355MOL0     O46763   1.627   3.996   1.582  0.1080 -0.3898 -0.6448
  355MOL0     C46764   1.665   3.970   1.722 -0.1516  0.0348 -0.8406
  355MOL0     C46765   1.808   3.955   1.761  0.0632 -0.5933  0.3476
  355MOL0     C46766   1.894   4.079   1.732 -0.9005 -0.0106 -0.3070
  355MOL0     C46767   1.942   4.095   1.589  0.2349  0.0132 -0.5859
  355MOL0     C46768   2.043   4.206   1.559 -0.0238  0.0195  0.0134
  355MOL0     C46769   2.177   4.187   1.616 -0.8741  0.5505 -0.0101
  355MOL0     C46770   2.266   4.300   1.576 -0.4761 -0.0136 -0.0172
  355MOL0     C46771   2.417   4.283   1.608  0.1099 -0.5671  0.3061
  355MOL0    Cl46772   2.521   4.411   1.536  0.0207 -0.3978  0.1139
  355MOL0     C46773   1.467   4.058   1.428  0.1538  0.0838  0.6613
  355MOL0     C46774   1.335   4.080   1.387 -0.3837  0.2601  0.3490
  355MOL0     O46775   1.070   4.028   1.245  0.4045  0.2989 -0.8845
  355MOL0     C46776   0.813   4.176   1.451  0.3270  0.3980  1.2276
  355MOL0     C46777   0.680   4.216   1.446 -0.0561 -0.0699  1.2463
  355MOL0     N46778   0.291   4.742   1.483  0.4909  0.0437 -1.0584
  355MOL0     N46779   0.176   4.769   1.452 -0.3623  0.2649 -0.2822
  355MOL0     C46780   0.279   4.975   0.557 -0.3306 -0.4880  0.2293
  355MOL0     C46781   0.416   4.943   0.567 -1.3409  0.0151  0.9404
  355MOL0     C46782   0.873   4.930   0.626  0.4372 -0.6313 -0.1466
  355MOL0     C46783   0.975   4.838   0.583  0.2612  0.3102 -0.0391
  355MOL0     C46784   1.091   4.822   0.661 -0.5636  0.9044 -0.2146
  355MOL0     C46785   1.130   4.897   0.772  0.3981  0.5146 -0.6451
  355MOL0     O46786   1.246   4.896   0.849  0.4642 -0.0793 -0.1683
  355MOL0     C46787   1.339   4.787   0.825 -0.4814 -0.7828 -0.1066
  355MOL0     C46788   1.455   4.823   0.911  0.4610 -0.1090 -0.3278
  355MOL0     C46789   1.546   4.711   0.965  0.3184 -0.0328  0.5351
  355MOL0     C46790   1.675   4.772   1.030  0.4820  0.3442  0.3387
  355MOL0     C46791   1.773   4.658   1.050  1.0712 -0.2471 -0.9540
  355MOL0     C46792   1.827   4.552   1.060 -0.6294 -0.5991 -0.3356
  355MOL0     C46793   1.025   4.977   0.817 -0.1124  0.6070  0.4119
  355MOL0     C46794   0.901   4.995   0.754  0.1039 -0.5560  0.8677
  355MOL0     H46795   0.540   5.260   0.597 -0.7606  0.2747 -0.5733
  355MOL0     H46796   0.306   5.320   0.591 -0.0887  0.6892 -0.2709
  355MOL0     H46797   0.009   4.977   0.494 -0.5420 -0.6838  0.2417
  355MOL0     H46798  -0.073   5.140   0.501 -0.5853 -1.1135 -0.0497
  355MOL0     H46799   0.030   4.974   0.750 -0.3699 -0.3473  1.1849
  355MOL0     H46800  -0.133   4.968   0.693 -1.0539  1.5878  0.5744
  355MOL0     H46801  -0.111   5.242   0.728 -0.8299  1.7381  0.8375
  355MOL0     H46802   0.055   5.192   0.787 -1.1266 -0.9819  1.2109
  355MOL0     H46803  -0.100   5.239   0.960 -1.1587 -0.1490  0.5264
  355MOL0     H46804  -0.211   5.103   0.911  0.2019 -0.8407 -2.4056
  355MOL0     H46805   0.079   5.046   0.985  1.2676 -2.5736  2.2007
  355MOL0     H46806  -0.045   4.932   0.990  2.0050 -0.9823  1.8307
  355MOL0     H46807  -0.150   5.014   1.189 -1.8902  1.6674 -1.2358
  355MOL0     H46808  -0.064   5.168   1.185 -1.2210 -0.1498  0.2927
  355MOL0     H46809   0.157   5.027   1.202 -0.5048  0.5331  0.7232
  355MOL0     H46810   0.047   5.035   1.340 -0.1671 -1.0761  0.1066
  355MOL0     H46811   0.034   4.786   1.142 -0.7502 -0.0607  0.3217
  355MOL0     H46812  -0.044   4.811   1.286 -0.2786  0.1220 -0.8846
  355MOL0     H46813   0.311   4.768   1.151  0.3001 -0.0618  0.2009
  355MOL0     H46814   0.546   4.720   1.456  2.3923 -0.3965 -1.1916
  355MOL0     H46815   0.568   4.740   1.297  2.1934  0.5291  2.3606
  355MOL0     H46816   0.615   4.522   1.330 -0.6987 -0.0450 -3.7832
  355MOL0     H46817   0.461   4.517   1.241  0.6696  0.4090 -0.2029
  355MOL0     H46818   0.533   4.447   1.527  0.9852  0.6998 -1.8889
  355MOL0     H46819   0.364   4.493   1.488 -0.4625  0.6375 -0.7904
  355MOL0     H46820   0.310   4.324   1.381  0.7413  1.8300 -2.6803
  355MOL0     H46821   0.433   4.249   1.497 -0.3718 -0.3014 -0.3898
  355MOL0     H46822   0.620   4.170   1.122 -2.8289  0.2666  1.4101
  355MOL0     H46823   0.873   4.084   1.124  1.6220 -0.6430  1.4625
  355MOL0     H46824   1.181   4.021   1.690 -0.8815 -0.4889 -1.2964
  355MOL0     H46825   1.417   3.986   1.750  1.1715  2.1453  0.4422
  355MOL0     H46826   1.615   3.875   1.743 -0.8090  0.5265 -0.1631
  355MOL0     H46827   1.624   4.047   1.787  2.2317 -0.8643  1.9440
  355MOL0     H46828   1.840   3.856   1.727 -0.6524 -1.0339  0.9123
  355MOL0     H46829   1.816   3.934   1.868  5.8265 -2.5903 -0.1577
  355MOL0     H46830   1.972   4.070   1.808 -1.2517  1.7702  0.3146
  355MOL0     H46831   1.840   4.169   1.763  0.7505  0.7087  0.5887
  355MOL0     H46832   1.984   4.002   1.549 -0.9333  0.2632 -2.5368
  355MOL0     H46833   1.848   4.107   1.534 -0.1667  1.0777  0.3094
  355MOL0     H46834   2.001   4.298   1.600  0.3417 -0.8754  2.5688
  355MOL0     H46835   2.035   4.212   1.450 -3.2332 -2.3812 -0.0528
  355MOL0     H46836   2.232   4.098   1.586 -1.6489 -0.4419  1.3683
  355MOL0     H46837   2.159   4.185   1.724  1.6523 -0.0219  0.4569
  355MOL0     H46838   2.262   4.299   1.466 -2.9758 -0.7749  0.0303
  355MOL0     H46839   2.224   4.395   1.611  2.8654  1.5996  0.0269
  355MOL0     H46840   2.450   4.187   1.568 -0.5029  0.0158 -1.6844
  355MOL0     H46841   2.422   4.280   1.718 -1.5810  0.7607  0.4650
  355MOL0     H46842   1.538   4.056   1.346 -2.0976  0.4963 -1.4409
  355MOL0     H46843   1.326   4.105   1.282 -0.3520  0.1782  0.3263
  355MOL0     H46844   0.872   4.159   1.541 -0.2631 -0.9889  1.3604
  355MOL0     H46845   0.634   4.247   1.540 -1.2741 -2.5860  1.5767
  355MOL0     H46846   0.220   4.885   0.541 -1.3311  0.3044 -0.6748
  355MOL0     H46847   0.448   4.840   0.565  1.9474  0.9369  0.0602
  355MOL0     H46848   0.971   4.783   0.489  1.0605  2.5252 -1.4333
  355MOL0     H46849   1.168   4.753   0.626  0.6015  1.4652  1.1473
  355MOL0     H46850   1.373   4.786   0.721 -0.1154 -0.0869  0.0054
  355MOL0     H46851   1.290   4.691   0.845 -1.3202 -0.2602  0.4200
  355MOL0     H46852   1.521   4.889   0.854  1.0638 -1.3354 -1.0824
  355MOL0     H46853   1.410   4.866   1.002 -1.4194 -0.6627 -0.9507
  355MOL0     H46854   1.566   4.632   0.892 -0.5300  1.0484 -0.9240
  355MOL0     H46855   1.493   4.660   1.046  0.2193  0.6963  0.9359
  355MOL0     H46856   1.720   4.842   0.959 -0.1759  0.4555  0.0236
  355MOL0     H46857   1.652   4.819   1.126  2.4896 -0.2889  1.1887
  355MOL0     H46858   1.869   4.454   1.073  0.4601 -0.0409  0.5449
  355MOL0     H46859   1.053   5.038   0.902  3.5190  0.0582 -0.1994
  355MOL0     H46860   0.840   5.064   0.811  2.5579  0.9264  1.8453
  356MOL0     O46861   5.358   7.559   8.940  0.9319 -0.0075 -0.6175
  356MOL0     C46862   5.452   7.542   9.011 -0.1234  0.0878  0.0049
  356MOL0     O46863   5.447   7.520   9.155 -0.3620  0.0136 -0.0665
  356MOL0     C46864   5.323   7.507   9.218  0.4529 -0.4875  0.5269
  356MOL0     C46865   5.295   7.595   9.323 -1.0991 -0.3738 -0.9579
  356MOL0     C46866   5.166   7.610   9.379  1.2845  0.3762  0.3009
  356MOL0     C46867   5.053   7.545   9.316 -0.2194 -1.3172  0.3973
  356MOL0     O46868   4.919   7.562   9.343  0.5179 -0.0486 -0.5167
  356MOL0     C46869   4.894   7.664   9.434 -0.1575 -0.3043 -0.4453
  356MOL0     C46870   4.745   7.708   9.426 -0.0207  0.1520  0.0221
  356MOL0     C46871   4.716   7.802   9.546 -1.0508 -0.7871  0.3309
  356MOL0     C46872   4.561   7.826   9.568 -0.4801 -0.3037  0.8420
  356MOL0     C46873   4.497   7.895   9.447 -0.3805 -0.0162  0.0274
  356MOL0     C46874   4.363   7.955   9.476  0.4940 -0.6364 -0.2497
  356MOL0     C46875   4.244   7.851   9.468 -0.2345 -0.0778 -0.2412
  356MOL0     C46876   4.107   7.910   9.447  0.4777  0.3771  0.3519
  356MOL0     N46877   4.064   7.997   9.561 -0.9501  0.9598 -0.3876
  356MOL0     C46878   3.986   7.951   9.672  0.7870  0.2831  0.4293
  356MOL0     C46879   4.013   8.040   9.771  0.5959 -1.1529  0.5820
  356MOL0     C46880   3.964   8.037   9.905 -0.2761  0.2254  0.9375
  356MOL0     C46881   3.810   8.041   9.913 -0.1202  0.6596 -0.5784
  356MOL0     C46882   3.775   8.076  10.058 -0.0872  0.0982  0.6736
  356MOL0     C46883   3.635   8.088  10.072 -0.8915  0.2583 -0.1274
  356MOL0     O46884   3.599   8.131  10.202 -0.5881  0.5320 -0.7081
  356MOL0     C46885   3.466   8.145  10.232  0.1381 -0.5184 -0.5981
  356MOL0     C46886   3.440   8.183  10.361  0.0260 -0.2005  0.0200
  356MOL0     C46887   3.313   8.201  10.410  0.8438 -0.4083 -0.3910
  356MOL0     C46888   3.196   8.167  10.343 -0.2638 -0.2068  0.4331
  356MOL0     C46889   3.066   8.183  10.407  0.0360  0.1177 -0.4041
  356MOL0     O46890   2.961   8.157  10.331  0.6046 -0.3602 -0.6115
  356MOL0     C46891   2.826   8.164  10.370  0.3721  0.1894  0.2849
  356MOL0     C46892   2.735   8.084  10.306 -0.2202  0.3065  0.1078
  356MOL0     C46893   2.597   8.096  10.325 -0.7143  0.7813  0.4366
  356MOL0     C46894   2.547   8.178  10.422 -0.1971  0.1798 -0.3029
  356MOL0     O46895   2.419   8.155  10.452 -0.1612  0.2907  0.2716
  356MOL0     C46896   2.345   8.271  10.505 -0.2218  0.1597 -0.1964
  356MOL0     C46897   2.196   8.247  10.490  0.2132 -0.1538 -0.0820
  356MOL0     C46898   2.159   8.265  10.341  0.6359  0.3729 -0.2543
  356MOL0     C46899   2.111   8.406  10.305 -1.2490 -0.2070 -0.4142
  356MOL0     C46900   2.052   8.421  10.168  0.0664  0.5859  1.0742
  356MOL0     C46901   1.921   8.345  10.137 -0.1505  0.3398 -0.5519
  356MOL0     C46902   1.852   8.396  10.007 -0.7227 -0.2092 -0.4512
  356MOL0     C46903   1.707   8.358  10.003 -0.1951  0.4781 -0.3918
  356MOL0    Cl46904   1.608   8.440  10.122  0.6246 -0.3447 -0.4434
  356MOL0     C46905   2.635   8.258  10.497  0.0924 -0.4791 -0.4741
  356MOL0     C46906   2.769   8.255  10.463  0.6743  0.1063 -0.8094
  356MOL0     O46907   3.062   8.220  10.520  0.0497 -0.3372  0.1470
  356MOL0     C46908   3.219   8.116  10.207 -0.0649 -0.1469 -0.3081
  356MOL0     C46909   3.355   8.090  10.165  0.4536 -0.2721  0.3554
  356MOL0     N46910   4.103   8.137   9.724  0.1518  0.2962 -0.9650
  356MOL0     N46911   4.128   8.118   9.601  0.3439  0.2275  0.6029
  356MOL0     C46912   5.087   7.460   9.217  0.5116  0.5658  0.0393
  356MOL0     C46913   5.217   7.429   9.171 -1.0654  0.3606  0.3111
  356MOL0     C46914   5.587   7.559   8.950 -0.0428 -0.5465  0.1675
  356MOL0     C46915   5.618   7.548   8.810  0.1405  0.0062 -0.0435
  356MOL0     C46916   5.746   7.568   8.757 -0.4481 -0.7533 -0.0098
  356MOL0     C46917   5.851   7.592   8.840 -0.4663  0.4639  0.3425
  356MOL0     O46918   5.973   7.617   8.783  0.5260 -0.8201 -0.4230
  356MOL0     C46919   6.056   7.719   8.845  0.3036 -0.2140 -0.3517
  356MOL0     C46920   6.146   7.770   8.729 -0.6315  0.0089 -0.9826
  356MOL0     C46921   6.268   7.686   8.711 -0.1483  0.3766 -0.7830
  356MOL0     C46922   6.368   7.663   8.826  0.1105  0.1688 -0.1192
  356MOL0     C46923   6.437   7.534   8.823 -0.0181  0.6544  0.7727
  356MOL0     C46924   6.485   7.419   8.811 -0.6277 -0.3860 -0.0851
  356MOL0     C46925   5.825   7.592   8.975 -0.2376  0.2513  0.2482
  356MOL0     C46926   5.696   7.578   9.031 -0.0308 -0.4980 -0.8009
  356MOL0     H46927   5.367   7.671   9.350 -2.0092  0.2586 -0.2364
  356MOL0     H46928   5.161   7.683   9.458  2.4945  1.3500 -0.4745
  356MOL0     H46929   4.964   7.746   9.414 -1.0830  0.5567 -0.2477
  356MOL0     H46930   4.904   7.624   9.535 -2.2724 -0.4793 -0.2574
  356MOL0     H46931   4.686   7.616   9.434  0.5900 -0.3401 -0.9551
  356MOL0     H46932   4.717   7.761   9.335 -2.0754 -1.6658 -0.4841
  356MOL0     H46933   4.771   7.897   9.553 -2.4125  0.0334  0.2115
  356MOL0     H46934   4.754   7.748   9.633  1.0762  1.0933  0.6688
  356MOL0     H46935   4.515   7.728   9.585  0.1635 -0.4006  2.1247
  356MOL0     H46936   4.552   7.882   9.661 -1.3454  1.7469 -0.3865
  356MOL0     H46937   4.494   7.830   9.359 -0.1565 -1.2460  0.9146
  356MOL0     H46938   4.559   7.978   9.411  1.6294 -1.4342  0.0476
  356MOL0     H46939   4.348   8.025   9.394  2.9949 -3.9610 -3.8887
  356MOL0     H46940   4.370   7.996   9.578 -1.6913 -0.2936 -0.2041
  356MOL0     H46941   4.269   7.776   9.393  2.4800  0.1307  0.3676
  356MOL0     H46942   4.234   7.802   9.565  1.4268 -0.0159 -0.0191
  356MOL0     H46943   4.032   7.831   9.441  0.1641  0.4211  2.6243
  356MOL0     H46944   4.104   7.969   9.355  1.1143  2.9112  1.8593
  356MOL0     H46945   3.931   7.859   9.686  0.7303  0.3092  0.3791
  356MOL0     H46946   4.010   8.121   9.958 -1.9422  1.0252  1.1773
  356MOL0     H46947   4.007   7.944   9.942 -2.9255 -0.5955  2.2217
  356MOL0     H46948   3.758   7.946   9.896  1.4828 -0.5559  0.9095
  356MOL0     H46949   3.779   8.118   9.842 -2.0332  0.6823  0.2005
  356MOL0     H46950   3.808   7.997  10.126 -0.4092 -2.5824 -2.0431
  356MOL0     H46951   3.830   8.166  10.084  0.8050 -0.3018  0.2214
  356MOL0     H46952   3.592   7.992  10.043  2.3886 -1.3237 -0.2889
  356MOL0     H46953   3.603   8.165  10.002  0.7922 -0.8752 -2.2691
  356MOL0     H46954   3.522   8.217  10.424 -0.4938 -2.1746  1.8636
  356MOL0     H46955   3.304   8.238  10.511  1.6466  1.4944 -0.9601
  356MOL0     H46956   2.778   8.027  10.225 -0.7858  0.5100 -0.3459
  356MOL0     H46957   2.532   8.024  10.275 -1.1574  2.1060 -0.9888
  356MOL0     H46958   2.378   8.368  10.467  1.7613  0.0747  1.1348
  356MOL0     H46959   2.383   8.269  10.607 -0.3086 -1.4778 -0.1632
  356MOL0     H46960   2.143   8.316  10.557  0.9685 -0.5798  0.9912
  356MOL0     H46961   2.164   8.147  10.520 -1.2365  0.2025 -0.3551
  356MOL0     H46962   2.075   8.199  10.321 -0.0687  1.7502 -2.1780
  356MOL0     H46963   2.244   8.230  10.282  1.0910 -1.2846  1.3046
  356MOL0     H46964   2.046   8.444  10.384 -2.5184  0.4690 -1.7309
  356MOL0     H46965   2.194   8.475  10.320 -0.2220 -1.6569  0.8771
  356MOL0     H46966   2.122   8.380  10.095  0.7554 -0.5712  2.3389
  356MOL0     H46967   2.056   8.528  10.148  3.9063  0.3272 -0.3279
  356MOL0     H46968   1.843   8.356  10.213 -0.5012  2.6678 -1.1767
  356MOL0     H46969   1.940   8.240  10.116 -2.0430  0.1043 -1.2922
  356MOL0     H46970   1.867   8.504   9.996  3.5559 -0.6073 -0.0961
  356MOL0     H46971   1.904   8.342   9.928 -1.0684  0.0699 -0.8764
  356MOL0     H46972   1.713   8.251  10.021  0.5514  0.3686 -1.1925
  356MOL0     H46973   1.669   8.378   9.902  1.2886  0.3473 -1.0135
  356MOL0     H46974   2.609   8.315  10.585 -1.7926  0.2368 -1.4388
  356MOL0     H46975   2.846   8.313  10.514  1.8320 -0.7382 -1.5383
  356MOL0     H46976   3.127   8.093  10.154 -0.2173 -3.1118  1.0519
  356MOL0     H46977   3.379   8.014  10.091 -2.2487 -0.5786 -0.3196
  356MOL0     H46978   4.993   7.428   9.174  1.0079  0.0812 -0.7044
  356MOL0     H46979   5.252   7.374   9.085  1.7708  1.2779  0.7829
  356MOL0     H46980   5.538   7.515   8.744  1.7009 -2.3961 -0.8619
  356MOL0     H46981   5.779   7.574   8.654  2.8502 -2.6139  0.7674
  356MOL0     H46982   6.115   7.681   8.930 -0.8565 -0.3878  0.4042
  356MOL0     H46983   5.986   7.795   8.878 -0.0224  0.1957 -1.9188
  356MOL0     H46984   6.086   7.792   8.640 -1.5894 -1.0747 -0.6340
  356MOL0     H46985   6.176   7.869   8.763 -1.1045  0.4596 -1.8584
  356MOL0     H46986   6.329   7.715   8.625  0.3216  2.9502  0.3294
  356MOL0     H46987   6.243   7.588   8.671 -0.4203 -0.1153  0.5624
  356MOL0     H46988   6.447   7.739   8.824 -0.1453  0.4490  0.2681
  356MOL0     H46989   6.318   7.670   8.923  2.8571  3.9921  1.3156
  356MOL0     H46990   6.531   7.325   8.792  0.0830  0.4821 -3.0602
  356MOL0     H46991   5.904   7.619   9.043 -1.0293  1.1678  0.8400
  356MOL0     H46992   5.678   7.577   9.138  1.9786 -0.4516 -0.4177
  357MOL0     O46993   6.580   6.033  10.882 -0.2665 -0.0839  0.2108
  357MOL0     C46994   6.650   5.937  10.904 -0.0591  0.6166  0.5824
  357MOL0     O46995   6.640   5.842  10.993  0.4139  0.8088 -0.6323
  357MOL0     C46996   6.532   5.836  11.078  0.6846 -0.1026  0.9794
  357MOL0     C46997   6.485   5.699  11.106  0.4076  0.5228  0.3814
  357MOL0     C46998   6.373   5.683  11.194  0.1685  0.5321  0.0042
  357MOL0     C46999   6.305   5.794  11.246 -0.5528 -0.2410 -0.0144
  357MOL0     O47000   6.179   5.786  11.308 -0.2792 -0.2502  0.5759
  357MOL0     C47001   6.112   5.661  11.344 -0.2554 -0.6286  0.5594
  357MOL0     C47002   5.982   5.694  11.409  0.1627  0.1667  0.4341
  357MOL0     C47003   5.917   5.564  11.465  1.0136 -0.3198  0.1522
  357MOL0     C47004   5.764   5.567  11.455  0.4824 -0.3082 -0.7247
  357MOL0     C47005   5.697   5.498  11.576 -0.4691 -0.4771 -0.5667
  357MOL0     C47006   5.546   5.519  11.549 -0.2332 -0.0804 -0.4823
  357MOL0     C47007   5.455   5.450  11.650 -0.2757  0.5811 -0.5753
  357MOL0     C47008   5.460   5.300  11.657 -0.9712 -0.2429 -0.5827
  357MOL0     N47009   5.355   5.255  11.748 -0.1174  0.3094 -0.1942
  357MOL0     C47010   5.221   5.261  11.732  0.3409 -0.0806  0.1513
  357MOL0     C47011   5.175   5.229  11.857 -0.0592  0.4498 -0.1819
  357MOL0     C47012   5.033   5.221  11.903 -0.1561 -0.3832  0.3474
  357MOL0     C47013   4.960   5.350  11.878 -0.3933 -0.0528 -0.5617
  357MOL0     C47014   4.827   5.367  11.943  0.1452 -0.7914  0.0178
  357MOL0     C47015   4.737   5.480  11.894 -0.8143  0.3013 -1.0627
  357MOL0     O47016   4.657   5.434  11.782  0.0448  0.0730 -0.2776
  357MOL0     C47017   4.542   5.367  11.805 -0.5428  0.0227 -0.3099
  357MOL0     C47018   4.463   5.332  11.691  0.4353 -0.2061 -0.4470
  357MOL0     C47019   4.337   5.265  11.713 -0.2484 -0.0323 -0.2057
  357MOL0     C47020   4.293   5.228  11.840 -0.6389  0.1316  0.9715
  357MOL0     C47021   4.160   5.175  11.862 -0.7934  0.3825  1.0706
  357MOL0     O47022   4.120   5.144  11.999 -0.2449 -0.9735 -0.1791
  357MOL0     C47023   3.999   5.096  12.021 -0.0451  0.4934  0.7384
  357MOL0     C47024   3.941   4.992  11.948  1.1376  0.0744  0.0380
  357MOL0     C47025   3.811   4.949  11.983 -0.6111  0.0470 -0.5644
  357MOL0     C47026   3.749   5.010  12.092  0.0762 -0.1424 -0.2383
  357MOL0     O47027   3.624   4.951  12.099 -0.2552  0.0786 -0.2168
  357MOL0     C47028   3.523   5.023  12.181  0.0967  0.0813  0.2307
  357MOL0     C47029   3.389   4.965  12.133 -0.5235 -0.3652  0.5665
  357MOL0     C47030   3.271   5.046  12.201 -0.4947  1.3362 -0.0244
  357MOL0     C47031   3.134   4.998  12.146 -0.5112  0.0364  0.5090
  357MOL0     C47032   3.028   5.052  12.239  0.6878  0.1991 -0.7248
  357MOL0     C47033   2.889   4.999  12.212 -0.9103 -0.0679 -0.3960
  357MOL0     C47034   2.780   5.040  12.314 -0.3665 -0.9919  0.3392
  357MOL0     C47035   2.647   5.033  12.254  0.5866 -0.6332 -0.1755
  357MOL0    Cl47036   2.618   5.166  12.144 -0.0894  0.0948 -0.2710
  357MOL0     C47037   3.803   5.112  12.162 -0.1397 -1.2495  1.5054
  357MOL0     C47038   3.934   5.146  12.131 -0.0765  0.1666 -0.1629
  357MOL0     O47039   4.090   5.176  11.765  0.5863 -0.3179 -1.0071
  357MOL0     C47040   4.374   5.254  11.942 -0.4977 -0.1233  0.2077
  357MOL0     C47041   4.493   5.322  11.927 -0.7531  0.7652  0.2305
  357MOL0     N47042   5.282   5.208  11.945  0.2423  0.1534 -0.0968
  357MOL0     N47043   5.382   5.211  11.877 -0.0210 -0.1943  0.0875
  357MOL0     C47044   6.360   5.919  11.233  0.4623 -0.6959  0.8376
  357MOL0     C47045   6.465   5.943  11.146 -0.1867 -0.2534 -0.9072
  357MOL0     C47046   6.766   5.933  10.824 -0.8005  1.0333  0.3683
  357MOL0     C47047   6.827   6.051  10.769  0.4600 -0.0062 -0.9022
  357MOL0     C47048   6.954   6.038  10.719 -0.4451  0.0738  0.4418
  357MOL0     C47049   7.029   5.916  10.725  0.2144  0.1325 -0.2804
  357MOL0     O47050   7.163   5.897  10.694 -0.4910 -0.2569  0.2013
  357MOL0     C47051   7.216   6.007  10.608 -0.4474 -0.0468 -0.2810
  357MOL0     C47052   7.340   5.957  10.545  0.4083 -0.1885 -0.1115
  357MOL0     C47053   7.450   5.968  10.651 -0.2794 -0.1112  0.3385
  357MOL0     C47054   7.583   5.923  10.588  0.5129  0.6630 -0.9068
  357MOL0     C47055   7.640   6.000  10.476  0.1922 -0.5822  0.4752
  357MOL0     C47056   7.692   6.064  10.387 -0.3837 -0.7134 -0.5681
  357MOL0     C47057   6.967   5.802  10.775 -0.3932  0.0590  0.2142
  357MOL0     C47058   6.838   5.806  10.809 -0.2868  0.6699 -0.8695
  357MOL0     H47059   6.538   5.617  11.058  0.3980  0.3270  0.7022
  357MOL0     H47060   6.321   5.590  11.212 -3.2236  1.8966 -1.7618
  357MOL0     H47061   6.183   5.593  11.393 -0.2754 -2.4935 -1.7995
  357MOL0     H47062   6.075   5.615  11.251 -2.8649  0.4664  0.9764
  357MOL0     H47063   5.917   5.732  11.330 -0.3380 -3.5241 -1.1425
  357MOL0     H47064   5.983   5.774  11.483 -0.5004  1.9480 -1.4075
  357MOL0     H47065   5.936   5.547  11.572 -1.9976 -1.5808  0.5924
  357MOL0     H47066   5.970   5.473  11.434  0.7619 -0.6479  0.6660
  357MOL0     H47067   5.727   5.670  11.460 -0.2026 -0.6112  0.8897
  357MOL0     H47068   5.732   5.520  11.361 -1.4593 -1.4712  0.4472
  357MOL0     H47069   5.718   5.554  11.667  1.1286  3.6362 -3.1381
  357MOL0     H47070   5.729   5.394  11.583 -2.1752 -1.3874 -3.8140
  357MOL0     H47071   5.518   5.487  11.448 -1.1972 -0.6584 -0.0475
  357MOL0     H47072   5.533   5.625  11.575  1.8487 -0.5915  3.4153
  357MOL0     H47073   5.466   5.493  11.751 -1.3018  1.2345 -0.7171
  357MOL0     H47074   5.350   5.460  11.620 -1.2533 -1.6284  1.7184
  357MOL0     H47075   5.561   5.281  11.693 -2.0761 -1.6173  2.0870
  357MOL0     H47076   5.436   5.259  11.559  0.6870  1.0620 -1.5879
  357MOL0     H47077   5.169   5.296  11.643 -1.4305 -1.1931  0.6922
  357MOL0     H47078   5.043   5.200  12.010  1.3932 -1.7326 -0.0259
  357MOL0     H47079   4.975   5.143  11.852 -0.5619  2.3630 -3.9085
  357MOL0     H47080   4.939   5.360  11.771  0.2970  2.3248 -0.5296
  357MOL0     H47081   5.030   5.430  11.902 -0.5214 -0.1623  0.1853
  357MOL0     H47082   4.767   5.277  11.925 -1.0941  0.3564 -2.0244
  357MOL0     H47083   4.839   5.362  12.052 -0.6365  0.0997  0.1588
  357MOL0     H47084   4.800   5.559  11.852 -0.1169  0.8725  0.9457
  357MOL0     H47085   4.670   5.514  11.972  1.8193 -0.4387  1.7020
  357MOL0     H47086   4.489   5.360  11.589  0.3160 -1.3694 -0.8175
  357MOL0     H47087   4.276   5.246  11.625  1.1710 -0.1399 -1.2092
  357MOL0     H47088   3.998   4.947  11.866 -0.1078 -1.1789 -0.1713
  357MOL0     H47089   3.769   4.870  11.922  1.8093 -2.9687  1.3432
  357MOL0     H47090   3.518   5.131  12.163 -4.1934 -0.0327 -0.3708
  357MOL0     H47091   3.540   4.997  12.286  2.7391 -1.8515 -0.5543
  357MOL0     H47092   3.372   4.859  12.152  0.8575 -0.4991  1.1309
  357MOL0     H47093   3.382   4.979  12.025 -0.9779  2.0465  0.8405
  357MOL0     H47094   3.269   5.155  12.204 -1.7677  1.3157  1.3108
  357MOL0     H47095   3.277   5.025  12.309  1.2411 -1.6273 -0.5910
  357MOL0     H47096   3.133   5.040  12.045 -0.7492 -0.3546  0.3459
  357MOL0     H47097   3.133   4.889  12.132 -1.7966  0.2139 -1.1324
  357MOL0     H47098   3.024   5.161  12.241 -1.3765  0.1544 -0.6175
  357MOL0     H47099   3.045   5.019  12.342 -0.9459 -0.1690 -0.5449
  357MOL0     H47100   2.897   4.890  12.205  5.0635  0.0244 -0.5015
  357MOL0     H47101   2.852   5.035  12.116 -1.2880  0.9131  0.1087
  357MOL0     H47102   2.786   4.975  12.401  0.5226  2.7902  3.4164
  357MOL0     H47103   2.792   5.145  12.342  1.2375 -0.9233 -0.4807
  357MOL0     H47104   2.569   5.049  12.329  0.9113  0.3572 -0.0270
  357MOL0     H47105   2.631   4.937  12.204 -1.6208 -0.1515 -0.5234
  357MOL0     H47106   3.747   5.155  12.244 -0.1276 -2.4633  2.1720
  357MOL0     H47107   3.977   5.215  12.203 -2.0505  2.5098 -1.0581
  357MOL0     H47108   4.344   5.240  12.045  0.1038  3.5056  1.0220
  357MOL0     H47109   4.554   5.346  12.013  0.9620 -0.1652 -0.6872
  357MOL0     H47110   6.303   5.999  11.279 -0.0307  1.0402 -2.4546
  357MOL0     H47111   6.497   6.047  11.138  0.8713 -0.3517  1.2328
  357MOL0     H47112   6.781   6.149  10.760  0.4659 -0.0855 -1.8676
  357MOL0     H47113   6.998   6.126  10.672  1.5145  0.2019  2.3515
  357MOL0     H47114   7.227   6.100  10.666 -2.5596  0.4600 -0.6183
  357MOL0     H47115   7.152   6.029  10.522 -3.0337  1.4611  1.8650
  357MOL0     H47116   7.326   5.859  10.499  1.7346  1.0930 -3.6183
  357MOL0     H47117   7.366   6.027  10.464  0.7156  0.4476  0.5275
  357MOL0     H47118   7.429   5.911  10.742 -0.7392  0.4091  0.5650
  357MOL0     H47119   7.464   6.074  10.675  2.4052 -0.6361  1.4341
  357MOL0     H47120   7.660   5.915  10.665 -0.3556  2.7953  0.2555
  357MOL0     H47121   7.564   5.823  10.547 -0.2022  0.6852 -0.6365
  357MOL0     H47122   7.750   6.102  10.306  1.8669 -0.1480  1.2151
  357MOL0     H47123   7.010   5.703  10.790 -1.3487 -0.6581 -1.4573
  357MOL0     H47124   6.789   5.718  10.848 -0.9661  1.0554 -0.8344
  358MOL0     O47125   7.093   3.448   2.604  0.3227  0.1974  0.0844
  358MOL0     C47126   7.170   3.352   2.640 -0.1119  0.7508 -0.3329
  358MOL0     O47127   7.134   3.247   2.721 -0.0048 -0.1699  0.9165
  358MOL0     C47128   7.001   3.227   2.744 -0.2552  0.1463 -1.1957
  358MOL0     C47129   6.921   3.330   2.792  0.4876  0.3161  0.2787
  358MOL0     C47130   6.777   3.319   2.782  0.1786 -0.1213  0.2601
  358MOL0     C47131   6.719   3.193   2.760  0.8763  0.0075 -0.2577
  358MOL0     O47132   6.587   3.162   2.777 -0.0551  1.1096 -0.2342
  358MOL0     C47133   6.503   3.251   2.840 -0.1569 -0.1943 -0.0673
  358MOL0     C47134   6.382   3.183   2.896  0.3093  0.5830 -0.8527
  358MOL0     C47135   6.285   3.149   2.779 -0.1470 -1.4675 -1.2725
  358MOL0     C47136   6.144   3.127   2.828 -0.4033 -0.4668 -0.6464
  358MOL0     C47137   6.053   3.061   2.730  0.4033 -0.1891 -0.1384
  358MOL0     C47138   6.031   3.149   2.611  0.8502 -0.1682 -0.4289
  358MOL0     C47139   5.936   3.087   2.509  1.5579 -0.5864  0.6187
  358MOL0     C47140   5.787   3.140   2.524 -0.4353  0.4134  1.0043
  358MOL0     N47141   5.717   3.075   2.635  0.4031  0.5944 -0.0286
  358MOL0     C47142   5.730   3.118   2.770  0.4216  0.0502 -0.8522
  358MOL0     C47143   5.658   3.030   2.842 -1.2059 -0.1035 -0.9931
  358MOL0     C47144   5.621   3.046   2.992  0.9166  0.0478 -0.8410
  358MOL0     C47145   5.464   3.077   3.013  0.4527  0.6394  0.4267
  358MOL0     C47146   5.425   3.222   2.999 -0.4765 -0.7890 -0.7012
  358MOL0     C47147   5.273   3.248   3.001  0.1844 -0.2418 -0.0310
  358MOL0     O47148   5.225   3.244   3.142 -0.4986 -0.0972 -0.2925
  358MOL0     C47149   5.098   3.284   3.174  0.4086  0.5034 -0.1290
  358MOL0     C47150   5.060   3.288   3.306  0.1207  1.0732  0.1260
  358MOL0     C47151   4.936   3.326   3.357 -0.7386  0.0108 -0.2156
  358MOL0     C47152   4.834   3.354   3.263 -0.2469 -0.7025 -0.4370
  358MOL0     C47153   4.704   3.387   3.309  0.0045 -0.1627 -0.2763
  358MOL0     O47154   4.604   3.388   3.216 -0.3649 -0.2784  0.1088
  358MOL0     C47155   4.481   3.426   3.261  0.0259  0.3697  0.1999
  358MOL0     C47156   4.417   3.341   3.346  0.4218  0.0283 -0.3362
  358MOL0     C47157   4.292   3.386   3.395  0.4007 -0.5086 -0.5157
  358MOL0     C47158   4.225   3.510   3.358 -0.3242 -0.2534  0.9038
  358MOL0     O47159   4.088   3.531   3.399  0.1058  0.0934  0.1412
  358MOL0     C47160   4.018   3.651   3.365 -0.8201  0.4441  0.0112
  358MOL0     C47161   3.904   3.692   3.459  0.7603  0.0071 -0.6185
  358MOL0     C47162   3.783   3.590   3.444  0.1271  0.1267 -0.1228
  358MOL0     C47163   3.647   3.652   3.475 -0.1899  1.3539  0.2005
  358MOL0     C47164   3.544   3.549   3.483  0.1291  0.1978  0.1663
  358MOL0     C47165   3.431   3.603   3.562  0.2394  0.2543  0.3281
  358MOL0     C47166   3.307   3.518   3.542 -0.3091 -0.4985  0.2718
  358MOL0     C47167   3.180   3.599   3.571  0.3180 -0.0342  0.0696
  358MOL0    Cl47168   3.164   3.640   3.751 -0.3556  0.4915  0.4665
  358MOL0     C47169   4.303   3.595   3.272 -0.4366  0.2917 -0.1785
  358MOL0     C47170   4.420   3.551   3.220  0.1630  0.1750  0.7740
  358MOL0     O47171   4.682   3.411   3.432 -0.5680  0.3490  0.3067
  358MOL0     C47172   4.868   3.359   3.122  0.0768 -0.6087  0.4957
  358MOL0     C47173   4.997   3.325   3.080 -0.2560 -0.6018 -0.1774
  358MOL0     N47174   5.612   2.930   2.756  0.1759  0.8063 -0.2257
  358MOL0     N47175   5.641   2.968   2.635 -0.7650  0.5568 -0.0824
  358MOL0     C47176   6.804   3.086   2.733  0.5033  0.7019  0.0394
  358MOL0     C47177   6.943   3.106   2.725  0.5394  0.5398 -0.2965
  358MOL0     C47178   7.312   3.380   2.611 -0.5373  0.4516  0.7717
  358MOL0     C47179   7.417   3.309   2.685 -0.2665 -0.1895 -0.0450
  358MOL0     C47180   7.553   3.334   2.663 -0.7196  1.2849 -1.3323
  358MOL0     C47181   7.592   3.438   2.571  0.5306  0.1094  0.7298
  358MOL0     O47182   7.720   3.490   2.545  0.3497  0.2805  0.0727
  358MOL0     C47183   7.821   3.386   2.534  0.3358  1.0256  0.1404
  358MOL0     C47184   7.822   3.364   2.384 -0.3714 -0.4717 -0.6472
  358MOL0     C47185   7.920   3.255   2.340 -0.2566  0.2096 -0.8770
  358MOL0     C47186   8.038   3.310   2.269 -0.5505 -0.4656  0.0211
  358MOL0     C47187   8.136   3.210   2.226  0.6386  0.8686 -0.7253
  358MOL0     C47188   8.216   3.123   2.226  0.1827  0.7644  0.7235
  358MOL0     C47189   7.487   3.503   2.501  0.0913  0.2733 -0.6771
  358MOL0     C47190   7.360   3.475   2.518  0.8209  0.0362 -0.8635
  358MOL0     H47191   6.961   3.428   2.815 -1.0605  0.3489  3.5438
  358MOL0     H47192   6.710   3.399   2.811 -2.4384 -2.9416  2.6690
  358MOL0     H47193   6.462   3.330   2.776  1.0345  0.2914 -0.2554
  358MOL0     H47194   6.548   3.295   2.930 -2.6768 -1.4643  1.9546
  358MOL0     H47195   6.338   3.254   2.966  0.0008 -0.0908 -0.3436
  358MOL0     H47196   6.415   3.098   2.957 -0.2615  1.2175  0.3845
  358MOL0     H47197   6.323   3.055   2.739 -1.1605 -1.4973 -2.2111
  358MOL0     H47198   6.285   3.226   2.702 -4.9521  1.1286  0.8108
  358MOL0     H47199   6.152   3.049   2.903 -0.0804 -0.2279 -0.4317
  358MOL0     H47200   6.099   3.215   2.874 -0.0541 -1.7062  2.2548
  358MOL0     H47201   5.957   3.035   2.774  0.6684 -2.8879 -0.9709
  358MOL0     H47202   6.084   2.958   2.708  1.6394  0.2064 -0.3353
  358MOL0     H47203   6.122   3.180   2.558 -0.8108  0.2285 -3.3106
  358MOL0     H47204   5.982   3.242   2.640  1.6368  0.2662 -0.4653
  358MOL0     H47205   5.974   3.111   2.409 -0.1679  3.2239  0.6890
  358MOL0     H47206   5.929   2.978   2.519  0.9331 -0.5993  0.0934
  358MOL0     H47207   5.732   3.102   2.437  0.3144 -0.8460  1.0422
  358MOL0     H47208   5.783   3.249   2.529 -1.8034  0.5397 -1.4724
  358MOL0     H47209   5.786   3.189   2.830  0.5594 -2.0175  1.6219
  358MOL0     H47210   5.668   3.131   3.042  0.5905  1.5580 -2.9179
  358MOL0     H47211   5.656   2.956   3.041 -0.8249  0.0992  0.6189
  358MOL0     H47212   5.444   3.038   3.114 -0.1698  2.8937  1.2379
  358MOL0     H47213   5.403   3.028   2.938 -1.6158  3.2445  0.2511
  358MOL0     H47214   5.473   3.290   3.069 -2.1765  1.7752 -1.8781
  358MOL0     H47215   5.459   3.261   2.903 -0.0093 -2.0447 -1.0706
  358MOL0     H47216   5.216   3.178   2.940 -2.2164  0.9232  0.7581
  358MOL0     H47217   5.253   3.351   2.968  0.8831 -0.3861 -0.9559
  358MOL0     H47218   5.135   3.242   3.370  0.5226  0.3490 -0.8505
  358MOL0     H47219   4.905   3.313   3.461  0.8446 -0.3309  0.2411
  358MOL0     H47220   4.450   3.254   3.402  0.1718  0.1075 -0.0602
  358MOL0     H47221   4.239   3.327   3.470  1.0480  1.9657  2.0681
  358MOL0     H47222   3.982   3.643   3.262 -1.7078 -0.2093  0.3629
  358MOL0     H47223   4.087   3.733   3.387 -1.0291  0.2654  1.4827
  358MOL0     H47224   3.885   3.798   3.445  4.3044  0.4574 -3.7624
  358MOL0     H47225   3.944   3.683   3.560  0.6236  0.0969 -0.5558
  358MOL0     H47226   3.802   3.503   3.508  0.8216 -0.7236 -1.4417
  358MOL0     H47227   3.781   3.544   3.345  1.9111  1.4308 -0.8147
  358MOL0     H47228   3.651   3.697   3.574 -5.0351 -2.6408  2.7237
  358MOL0     H47229   3.624   3.728   3.400 -0.3744  0.5245 -0.6045
  358MOL0     H47230   3.570   3.453   3.528  0.3716 -0.4661 -1.3241
  358MOL0     H47231   3.518   3.530   3.378  1.3885 -1.7466  0.1729
  358MOL0     H47232   3.404   3.702   3.524 -1.2458 -0.4620 -0.5618
  358MOL0     H47233   3.470   3.616   3.664  1.1899  0.9008 -0.1082
  358MOL0     H47234   3.309   3.481   3.439  1.9681  2.4224 -0.8770
  358MOL0     H47235   3.312   3.439   3.617 -2.8571 -0.9084  0.0970
  358MOL0     H47236   3.093   3.539   3.544 -0.5614  0.3365  1.9340
  358MOL0     H47237   3.174   3.690   3.509  3.9185 -0.5809 -1.3448
  358MOL0     H47238   4.265   3.693   3.245 -1.2983 -0.6964 -2.8993
  358MOL0     H47239   4.478   3.610   3.151 -1.1914  1.4709  0.6882
  358MOL0     H47240   4.781   3.374   3.058  0.6634 -0.9106 -0.4004
  358MOL0     H47241   5.013   3.322   2.972 -0.0453 -2.2781 -0.1217
  358MOL0     H47242   6.770   2.984   2.719 -2.0229  1.6283 -1.3258
  358MOL0     H47243   7.019   3.032   2.703  2.6525  2.3745  0.5292
  358MOL0     H47244   7.381   3.239   2.760 -2.3175  0.2658 -0.5224
  358MOL0     H47245   7.623   3.272   2.719 -2.0296  2.3585  1.7085
  358MOL0     H47246   7.791   3.297   2.590  1.0386  0.7509  0.0992
  358MOL0     H47247   7.922   3.421   2.561  1.1443 -1.7932  1.0353
  358MOL0     H47248   7.718   3.335   2.370 -1.3065  1.5892  1.3727
  358MOL0     H47249   7.841   3.458   2.331  0.4716 -1.6536 -2.5599
  358MOL0     H47250   7.880   3.169   2.286 -0.3601 -1.2355  1.3391
  358MOL0     H47251   7.967   3.222   2.433  1.0536  0.4150 -1.4408
  358MOL0     H47252   8.003   3.375   2.188  3.3721  0.9843 -0.7591
  358MOL0     H47253   8.098   3.382   2.326  0.1320 -0.5280 -0.6049
  358MOL0     H47254   8.305   3.065   2.235  0.8129  1.6764  0.4769
  358MOL0     H47255   7.524   3.580   2.433 -0.7328  0.9182 -0.4101
  358MOL0     H47256   7.282   3.531   2.467  0.6755  0.4269 -0.2194
  359MOL0     O47257   7.816   7.069   6.814 -0.6223 -0.2185  0.5733
  359MOL0     C47258   7.813   6.988   6.900 -0.0435  0.4960 -1.0469
  359MOL0     O47259   7.703   6.904   6.936  0.0817  0.5550 -0.0872
  359MOL0     C47260   7.580   6.923   6.869 -0.8558  0.4023  0.1909
  359MOL0     C47261   7.508   6.809   6.860 -0.0784 -0.6261 -0.5828
  359MOL0     C47262   7.383   6.811   6.795  0.1586 -0.1616 -0.0361
  359MOL0     C47263   7.319   6.927   6.743  0.5761  0.7916  0.4747
  359MOL0     O47264   7.182   6.923   6.710 -0.7032  0.0157  0.3914
  359MOL0     C47265   7.101   7.030   6.759  0.2309 -0.3793  0.0898
  359MOL0     C47266   6.962   6.972   6.785 -0.3682 -0.5163 -1.0561
  359MOL0     C47267   6.863   7.086   6.805  0.3720 -0.9202 -0.0101
  359MOL0     C47268   6.723   7.028   6.841  0.4016 -0.0147 -0.9122
  359MOL0     C47269   6.656   6.931   6.741 -0.0018  0.0930  0.8304
  359MOL0     C47270   6.509   6.900   6.773 -0.3612  0.0538  0.0468
  359MOL0     C47271   6.466   6.874   6.916 -0.2913 -0.6503 -0.4577
  359MOL0     C47272   6.466   6.718   6.945 -0.2672 -0.6860 -0.5771
  359MOL0     N47273   6.370   6.694   7.063 -0.4338  0.2678 -0.8329
  359MOL0     C47274   6.235   6.688   7.065 -0.2667  0.8059  0.0473
  359MOL0     C47275   6.209   6.621   7.182  0.3171 -0.7260  0.8594
  359MOL0     C47276   6.069   6.573   7.217  0.1647 -0.9729  0.5664
  359MOL0     C47277   6.014   6.464   7.124  0.0728  0.2569 -0.0325
  359MOL0     C47278   6.017   6.323   7.175  0.2762  0.9039  0.0998
  359MOL0     C47279   6.136   6.273   7.259  0.0105  0.0918  0.5339
  359MOL0     O47280   6.121   6.277   7.407  0.3343  0.3348  0.4601
  359MOL0     C47281   6.015   6.215   7.467  0.1616 -0.2123  0.1304
  359MOL0     C47282   5.959   6.293   7.563 -0.2067  0.9332 -0.3103
  359MOL0     C47283   5.847   6.237   7.632 -0.1971 -0.9022 -0.0425
  359MOL0     C47284   5.789   6.120   7.594  0.9795  0.3335 -1.3311
  359MOL0     C47285   5.675   6.065   7.680  0.1974  0.2579  0.5247
  359MOL0     O47286   5.636   5.940   7.634  0.0580 -0.0836 -0.0584
  359MOL0     C47287   5.525   5.880   7.681  0.3055 -0.2067  0.3282
  359MOL0     C47288   5.398   5.953   7.670  0.5031  1.1986  0.2865
  359MOL0     C47289   5.278   5.880   7.703  1.0038 -0.2401 -0.7438
  359MOL0     C47290   5.284   5.746   7.742 -0.5408  0.1544  0.9710
  359MOL0     O47291   5.163   5.686   7.762 -0.3456 -0.5468 -0.2417
  359MOL0     C47292   5.162   5.578   7.865  0.1552  0.0092  0.5286
  359MOL0     C47293   5.021   5.546   7.917  0.2567  0.6707  0.1649
  359MOL0     C47294   4.921   5.530   7.795  0.1226 -0.4787  0.2265
  359MOL0     C47295   4.955   5.426   7.701 -0.2043  0.3941 -0.2770
  359MOL0     C47296   4.843   5.387   7.608 -0.7505 -0.6336  0.2616
  359MOL0     C47297   4.803   5.515   7.525  0.2914  0.5050 -0.2405
  359MOL0     C47298   4.687   5.475   7.446  0.0764  0.2975 -0.1673
  359MOL0     C47299   4.556   5.425   7.515  0.3255 -0.2216  0.0276
  359MOL0    Cl47300   4.524   5.529   7.660  0.3647  0.1654  0.0821
  359MOL0     C47301   5.405   5.676   7.744  0.0020  0.1666  0.6023
  359MOL0     C47302   5.522   5.747   7.720  0.0365 -0.5073 -0.4707
  359MOL0     O47303   5.615   6.139   7.754  0.2209  0.1515  0.2930
  359MOL0     C47304   5.848   6.039   7.499  0.1904  0.6492 -0.1638
  359MOL0     C47305   5.963   6.085   7.434 -0.1773 -0.6898  0.6431
  359MOL0     N47306   6.318   6.625   7.261 -0.4733  0.8902 -0.4597
  359MOL0     N47307   6.425   6.650   7.186 -0.0760 -0.8617 -0.4469
  359MOL0     C47308   7.397   7.045   6.754 -0.0164 -0.0883 -0.1803
  359MOL0     C47309   7.530   7.040   6.813  0.8486 -0.0218 -0.0597
  359MOL0     C47310   7.932   6.961   6.984  0.1568 -0.2143 -0.0385
  359MOL0     C47311   8.064   7.006   6.947  0.1755  1.1590  0.2809
  359MOL0     C47312   8.173   6.977   7.023  0.0900  0.7772  0.1228
  359MOL0     C47313   8.170   6.884   7.121  0.1640 -0.7559  0.4191
  359MOL0     O47314   8.291   6.840   7.157 -0.1625 -0.2685 -0.3857
  359MOL0     C47315   8.299   6.737   7.256 -0.0796  0.5703  0.1113
  359MOL0     C47316   8.436   6.689   7.273 -0.3823  0.3795 -0.7111
  359MOL0     C47317   8.504   6.665   7.146 -0.3309  0.0497  0.4056
  359MOL0     C47318   8.643   6.595   7.166  0.4529  0.6151 -0.5396
  359MOL0     C47319   8.742   6.688   7.222 -0.0533  0.1643  0.2434
  359MOL0     C47320   8.823   6.756   7.275  0.0572  0.3502 -0.1197
  359MOL0     C47321   8.045   6.827   7.146  0.0415  0.0573 -0.1264
  359MOL0     C47322   7.924   6.868   7.089 -0.5159  1.3180 -0.4988
  359MOL0     H47323   7.561   6.721   6.896 -0.9999  0.0650  2.8070
  359MOL0     H47324   7.330   6.717   6.791 -1.9274  1.0082 -2.3542
  359MOL0     H47325   7.104   7.110   6.685  1.2480 -1.0028 -0.5644
  359MOL0     H47326   7.141   7.078   6.848 -0.2119  3.4298 -1.5555
  359MOL0     H47327   6.978   6.909   6.873  1.9104 -4.1748 -3.7986
  359MOL0     H47328   6.929   6.899   6.711 -0.7423 -4.3831  2.5348
  359MOL0     H47329   6.857   7.136   6.708 -0.3861 -2.0740 -0.5790
  359MOL0     H47330   6.882   7.156   6.886 -1.9127  1.3941 -1.3171
  359MOL0     H47331   6.732   6.980   6.939  0.5990  0.7887 -0.5312
  359MOL0     H47332   6.670   7.123   6.851  2.1604  1.1005 -1.7968
  359MOL0     H47333   6.707   6.834   6.736 -0.0426  0.1026 -0.0123
  359MOL0     H47334   6.654   6.969   6.638 -0.9492  1.3267  1.2799
  359MOL0     H47335   6.483   6.814   6.711  0.9101  1.5812 -2.7807
  359MOL0     H47336   6.448   6.985   6.743  0.9780  0.9221 -0.3237
  359MOL0     H47337   6.518   6.934   6.992 -0.4540 -2.5308  1.2141
  359MOL0     H47338   6.363   6.911   6.913  1.1626  4.0458 -1.4185
  359MOL0     H47339   6.570   6.695   6.970 -0.6662 -1.4449  0.4119
  359MOL0     H47340   6.442   6.647   6.865 -1.6871 -1.0602  0.1380
  359MOL0     H47341   6.159   6.722   6.996  0.1697  1.0064 -0.3437
  359MOL0     H47342   6.010   6.665   7.212  1.3174 -0.1781  0.9928
  359MOL0     H47343   6.087   6.532   7.317  2.3806 -0.7493  0.3266
  359MOL0     H47344   6.062   6.466   7.025  1.5586 -0.4055  0.6391
  359MOL0     H47345   5.906   6.481   7.114  0.0391 -0.0623 -0.2240
  359MOL0     H47346   5.936   6.323   7.248 -0.1354 -1.1872 -0.2781
  359MOL0     H47347   6.001   6.254   7.091  0.2011  0.9892  0.0439
  359MOL0     H47348   6.229   6.316   7.221 -0.9691  0.5854 -1.4408
  359MOL0     H47349   6.159   6.169   7.233  1.8280  1.1131 -2.3649
  359MOL0     H47350   6.007   6.388   7.585 -0.0102  1.6699 -3.4745
  359MOL0     H47351   5.797   6.293   7.711 -0.6333  0.7283 -1.4304
  359MOL0     H47352   5.386   6.056   7.638 -0.8532  0.6770 -1.0316
  359MOL0     H47353   5.187   5.938   7.703  0.4502 -0.9207  2.5111
  359MOL0     H47354   5.231   5.602   7.946 -0.2243 -0.3454  0.9603
  359MOL0     H47355   5.206   5.491   7.815 -1.8860 -2.5335  2.8331
  359MOL0     H47356   5.000   5.636   7.976  0.9883 -0.3279  2.0360
  359MOL0     H47357   5.031   5.457   7.979 -1.9632  1.7067  2.1598
  359MOL0     H47358   4.927   5.623   7.738  0.4387 -0.1926  0.7111
  359MOL0     H47359   4.817   5.521   7.828  0.6478  1.7671  2.8918
  359MOL0     H47360   5.045   5.452   7.644  1.4012 -1.4466  1.2462
  359MOL0     H47361   4.989   5.343   7.763 -0.7130  0.7479  0.4905
  359MOL0     H47362   4.762   5.348   7.671  0.4611 -2.9687  0.5009
  359MOL0     H47363   4.880   5.307   7.543  0.9398  1.9908 -2.2318
  359MOL0     H47364   4.885   5.544   7.460  2.0197  1.4912  2.2094
  359MOL0     H47365   4.779   5.604   7.585 -0.3593 -0.3000  0.7226
  359MOL0     H47366   4.665   5.556   7.376  1.7322  0.7931 -0.1487
  359MOL0     H47367   4.712   5.391   7.380 -1.9267  0.6378 -1.4488
  359MOL0     H47368   4.569   5.317   7.526  2.6467  0.0008  0.0747
  359MOL0     H47369   4.472   5.441   7.446 -1.2012  0.0982  1.8925
  359MOL0     H47370   5.404   5.569   7.761 -0.4034  0.2932  1.4831
  359MOL0     H47371   5.612   5.686   7.725 -1.0313 -2.2099 -1.1253
  359MOL0     H47372   5.812   5.939   7.478 -1.1830  0.8403  1.0354
  359MOL0     H47373   6.009   6.028   7.355 -0.0334 -0.1024  0.2951
  359MOL0     H47374   7.345   7.139   6.741 -2.0959 -0.6661  2.7689
  359MOL0     H47375   7.585   7.131   6.834 -2.5692  1.7389  2.1105
  359MOL0     H47376   8.083   7.057   6.853  0.9098  0.4437  0.0269
  359MOL0     H47377   8.275   6.999   6.992  2.0552 -2.9818  3.0379
  359MOL0     H47378   8.240   6.647   7.236  2.7084 -1.7541  1.6074
  359MOL0     H47379   8.258   6.772   7.351 -2.2981  0.4889 -0.7601
  359MOL0     H47380   8.481   6.773   7.327  3.8673 -3.3913  2.4064
  359MOL0     H47381   8.436   6.599   7.336 -0.4780  1.5047  0.9779
  359MOL0     H47382   8.518   6.755   7.086  2.7888 -1.6059 -1.5782
  359MOL0     H47383   8.440   6.600   7.086 -0.4957  1.7372 -1.3458
  359MOL0     H47384   8.633   6.505   7.228 -3.0866 -0.3168 -2.1805
  359MOL0     H47385   8.683   6.571   7.067  3.0640  1.2233  0.2920
  359MOL0     H47386   8.913   6.801   7.312  0.9693 -0.5818 -1.1214
  359MOL0     H47387   8.047   6.750   7.222  0.0489  0.9773  0.8345
  359MOL0     H47388   7.837   6.821   7.133  0.3349 -1.7765 -1.8443
  360MOL0     O47389  10.954   5.305   5.902 -0.3578  0.2030 -0.4271
  360MOL0     C47390  11.007   5.194   5.911 -0.6626  0.2584  0.8517
  360MOL0     O47391  10.936   5.082   5.917  0.1440  0.1255  0.2378
  360MOL0     C47392  10.797   5.071   5.876  0.1862 -0.1869  0.3005
  360MOL0     C47393  10.703   5.170   5.914 -0.1211  0.8288  0.3490
  360MOL0     C47394  10.571   5.149   5.874  0.3928  0.0883  0.3739
  360MOL0     C47395  10.529   5.033   5.801 -0.5123 -0.0854  0.6563
  360MOL0     O47396  10.396   5.006   5.767 -0.1569  0.1313  0.4073
  360MOL0     C47397  10.314   5.113   5.734 -0.0627  0.4312  0.5936
  360MOL0     C47398  10.203   5.112   5.837  0.0089  0.4637 -0.2686
  360MOL0     C47399  10.069   5.119   5.771 -1.0610  0.2797 -0.1075
  360MOL0     C47400   9.957   5.129   5.874 -0.3861 -0.3832 -0.9883
  360MOL0     C47401   9.833   5.175   5.799  0.6196 -0.3501  0.5943
  360MOL0     C47402   9.746   5.065   5.751  0.5726  0.6683  0.4635
  360MOL0     C47403   9.627   5.123   5.680  0.0783  0.7310  0.4097
  360MOL0     C47404   9.538   5.010   5.627  0.4993  0.5772  0.3720
  360MOL0     N47405   9.401   5.061   5.614  0.5612  0.2595 -0.5158
  360MOL0     C47406   9.297   5.024   5.697 -0.6366 -0.5082 -0.4805
  360MOL0     C47407   9.182   5.074   5.634 -0.0194  0.0675 -0.0087
  360MOL0     C47408   9.035   5.048   5.663  0.1846 -0.5428 -0.4964
  360MOL0     C47409   8.951   5.050   5.529 -0.1750  0.9135  0.2778
  360MOL0     C47410   8.798   5.069   5.549  0.0091  0.5575  0.4102
  360MOL0     C47411   8.722   5.077   5.421  0.4761 -0.1958  0.8584
  360MOL0     O47412   8.587   5.108   5.430  0.4548 -0.1758 -0.3297
  360MOL0     C47413   8.510   5.105   5.310 -0.2575 -1.3964  0.5030
  360MOL0     C47414   8.562   5.136   5.186  0.0901 -0.5992 -0.3849
  360MOL0     C47415   8.483   5.152   5.067  0.2325 -0.1534  0.4396
  360MOL0     C47416   8.341   5.135   5.074  0.4086  0.4139 -0.0143
  360MOL0     C47417   8.242   5.137   4.964 -0.2273 -0.1946  0.3703
  360MOL0     O47418   8.141   5.048   4.975  0.2662 -0.1309  0.0516
  360MOL0     C47419   8.032   5.048   4.892  0.6670 -0.6150  0.7620
  360MOL0     C47420   7.943   4.936   4.911 -0.3447  0.4318  0.4191
  360MOL0     C47421   7.828   4.927   4.830 -0.9495 -0.1748 -0.5324
  360MOL0     C47422   7.801   5.014   4.733  0.3202 -0.5736  0.7010
  360MOL0     O47423   7.679   5.007   4.658 -0.4344 -0.0584 -0.3809
  360MOL0     C47424   7.646   5.095   4.553 -0.7722 -0.0305  1.2714
  360MOL0     C47425   7.518   5.045   4.475  0.1670 -0.0013 -0.7832
  360MOL0     C47426   7.566   4.950   4.361  0.9239  0.1061  0.8754
  360MOL0     C47427   7.449   4.917   4.269 -0.0525 -0.3218  0.8902
  360MOL0     C47428   7.353   4.805   4.324 -0.0505  0.0424 -0.0908
  360MOL0     C47429   7.241   4.778   4.233  0.4869  0.9217  0.7735
  360MOL0     C47430   7.168   4.652   4.291  0.3967  0.2508 -0.5146
  360MOL0     C47431   7.088   4.675   4.421 -0.3832  1.0652 -0.0418
  360MOL0    Cl47432   6.934   4.743   4.366 -0.0871  0.0669  0.1706
  360MOL0     C47433   7.886   5.129   4.715 -0.3610  0.0998  0.4025
  360MOL0     C47434   8.000   5.138   4.788  0.4642  0.5189  0.1097
  360MOL0     O47435   8.266   5.211   4.868  0.3305  0.7421  0.6203
  360MOL0     C47436   8.286   5.101   5.196  0.0596 -0.6089 -0.0283
  360MOL0     C47437   8.373   5.088   5.312  0.3606  0.0718  0.1102
  360MOL0     N47438   9.228   5.142   5.519  0.4108  0.5166 -0.7679
  360MOL0     N47439   9.353   5.123   5.508 -0.0788 -0.7737  0.0918
  360MOL0     C47440  10.628   4.944   5.765 -0.3280 -0.3140 -0.3412
  360MOL0     C47441  10.761   4.960   5.797 -0.3600 -0.0197 -0.6300
  360MOL0     C47442  11.158   5.191   5.936  0.8709 -0.1529  0.3018
  360MOL0     C47443  11.235   5.312   5.923 -0.4120  1.1329  0.2744
  360MOL0     C47444  11.376   5.314   5.948  0.8684  0.6696  0.3285
  360MOL0     C47445  11.430   5.200   6.010  0.2682  0.2974 -1.2755
  360MOL0     O47446  11.565   5.203   6.043 -0.8382 -0.3638 -0.4472
  360MOL0     C47447  11.597   5.206   6.182  0.8696 -0.0278 -0.2700
  360MOL0     C47448  11.534   5.323   6.261 -0.4009 -1.0233 -0.2227
  360MOL0     C47449  11.590   5.459   6.219 -0.3979  0.0027  1.1097
  360MOL0     C47450  11.688   5.503   6.326  0.1566 -0.2472  0.3487
  360MOL0     C47451  11.757   5.628   6.285 -0.3184 -0.2429 -0.1361
  360MOL0     C47452  11.835   5.724   6.294 -0.3172 -0.7711  0.1269
  360MOL0     C47453  11.352   5.085   6.040 -0.3513  0.3176 -0.3415
  360MOL0     C47454  11.214   5.081   6.007  0.8688 -0.1506  0.0726
  360MOL0     H47455  10.729   5.260   5.967  0.0531 -1.0843  3.7835
  360MOL0     H47456  10.491   5.217   5.901  1.2256  0.3508  2.3590
  360MOL0     H47457  10.265   5.097   5.637 -3.5334  2.7674  1.7859
  360MOL0     H47458  10.372   5.205   5.727  0.4803  0.0449 -0.1418
  360MOL0     H47459  10.222   5.201   5.899  3.0696  1.1844 -2.0487
  360MOL0     H47460  10.227   5.017   5.887  2.7607 -0.9995 -3.9474
  360MOL0     H47461  10.053   5.027   5.713  0.2559  0.2324 -0.4502
  360MOL0     H47462  10.068   5.203   5.700  0.1638  1.0331  0.7320
  360MOL0     H47463   9.950   5.031   5.921  3.8631  0.3570  1.7621
  360MOL0     H47464   9.989   5.198   5.953  0.2678 -1.8043  0.0185
  360MOL0     H47465   9.867   5.240   5.718 -1.2352  0.4601  0.4157
  360MOL0     H47466   9.788   5.240   5.876 -0.7528 -1.8287  1.0928
  360MOL0     H47467   9.717   5.000   5.834 -3.1396 -0.0680 -1.1994
  360MOL0     H47468   9.803   5.013   5.673  1.0519  3.2128 -0.9973
  360MOL0     H47469   9.570   5.194   5.741  0.2833  2.8832 -1.7535
  360MOL0     H47470   9.654   5.190   5.598 -0.3175  0.7935  0.3293
  360MOL0     H47471   9.541   4.920   5.688 -0.8917  1.5621  1.9933
  360MOL0     H47472   9.559   4.978   5.524 -1.5319 -1.0163  0.3869
  360MOL0     H47473   9.307   4.965   5.788  2.7056  1.2011  0.4068
  360MOL0     H47474   8.992   5.130   5.721 -1.6975 -1.3142 -0.7291
  360MOL0     H47475   9.026   4.957   5.723  1.0316 -0.9079 -0.9155
  360MOL0     H47476   8.969   4.953   5.481 -1.5180  0.0317  1.4913
  360MOL0     H47477   8.987   5.137   5.473  0.9690  2.8467  3.7091
  360MOL0     H47478   8.779   4.984   5.616  2.2182 -0.7165 -0.4715
  360MOL0     H47479   8.799   5.162   5.606  1.6803 -0.2537  1.8103
  360MOL0     H47480   8.700   4.982   5.373 -2.6502  2.1641 -3.0744
  360MOL0     H47481   8.779   5.142   5.354  0.5708 -0.8969  0.2540
  360MOL0     H47482   8.668   5.154   5.174  0.2796 -0.9294  0.7589
  360MOL0     H47483   8.519   5.186   4.971 -1.2836  3.1323  0.8915
  360MOL0     H47484   7.959   4.861   4.988  1.3035 -2.9261 -2.9069
  360MOL0     H47485   7.767   4.837   4.838 -1.2331 -0.2689 -3.0958
  360MOL0     H47486   7.733   5.110   4.489 -2.0308  0.3068 -0.4156
  360MOL0     H47487   7.616   5.193   4.590 -0.7264 -0.5514  2.7625
  360MOL0     H47488   7.468   5.134   4.436  0.2372 -0.4487 -1.9504
  360MOL0     H47489   7.454   4.983   4.539 -0.0771 -0.8268 -1.7907
  360MOL0     H47490   7.604   4.855   4.400 -1.5053 -1.6622 -0.8230
  360MOL0     H47491   7.649   5.000   4.311  0.9139  1.3037  1.9945
  360MOL0     H47492   7.382   5.002   4.252 -1.0972 -1.2916  0.0072
  360MOL0     H47493   7.488   4.885   4.172  0.2130  1.6979  0.2733
  360MOL0     H47494   7.314   4.830   4.423 -0.3157 -0.2179 -0.1283
  360MOL0     H47495   7.416   4.716   4.333 -0.4433 -0.0704  2.0093
  360MOL0     H47496   7.279   4.743   4.137 -1.8507  1.2994 -0.3654
  360MOL0     H47497   7.177   4.862   4.205 -0.0551  0.2706  0.0352
  360MOL0     H47498   7.095   4.626   4.214  1.5381 -1.6299 -1.0230
  360MOL0     H47499   7.238   4.568   4.292 -0.9449 -0.9240  2.4395
  360MOL0     H47500   7.139   4.739   4.494 -0.3631 -0.0631  0.9618
  360MOL0     H47501   7.068   4.585   4.480 -0.9432  1.6009  0.6046
  360MOL0     H47502   7.849   5.197   4.639 -1.8718 -0.1058  0.9255
  360MOL0     H47503   8.052   5.222   4.743  1.0284  0.3561  0.4505
  360MOL0     H47504   8.180   5.076   5.202  0.1699 -0.7883  1.4612
  360MOL0     H47505   8.333   5.079   5.412  0.0750  0.4025  0.0256
  360MOL0     H47506  10.595   4.860   5.704  0.9082 -1.5954  0.6742
  360MOL0     H47507  10.853   4.903   5.784 -0.5400 -1.0131  1.7963
  360MOL0     H47508  11.189   5.403   5.886 -0.5318 -0.3125 -3.4894
  360MOL0     H47509  11.434   5.401   5.919 -0.6692  1.0818 -1.7933
  360MOL0     H47510  11.706   5.205   6.187  1.0025  0.2594 -2.2695
  360MOL0     H47511  11.555   5.116   6.229  0.5002  0.9372  1.3194
  360MOL0     H47512  11.427   5.331   6.241 -0.3584 -0.8758 -0.3929
  360MOL0     H47513  11.554   5.318   6.368 -1.9568  1.2121  0.2437
  360MOL0     H47514  11.513   5.537   6.224  0.1642  0.4931  3.2128
  360MOL0     H47515  11.629   5.449   6.118 -2.6621  3.0531 -0.2300
  360MOL0     H47516  11.637   5.503   6.423  0.7769 -1.5538  0.6975
  360MOL0     H47517  11.764   5.426   6.340 -0.6533 -1.4001 -1.3087
  360MOL0     H47518  11.915   5.795   6.306  0.9541 -2.1641  0.1665
  360MOL0     H47519  11.407   5.004   6.086  1.4717  1.4853 -0.3504
  360MOL0     H47520  11.153   4.991   6.002  0.2366  0.3177 -1.0093
  361MOL0     O47521   7.735   9.271   2.950 -0.3265 -0.3121  0.0187
  361MOL0     C47522   7.814   9.362   2.966  0.1928 -0.2835  0.3125
  361MOL0     O47523   7.776   9.498   2.975 -0.6979  0.0059  0.0711
  361MOL0     C47524   7.649   9.531   2.946 -0.3215  0.0121  0.3425
  361MOL0     C47525   7.580   9.500   2.825  0.2414 -0.0817  0.0153
  361MOL0     C47526   7.444   9.533   2.814 -0.1098 -0.4988  0.1837
  361MOL0     C47527   7.374   9.604   2.920 -0.1898 -0.4086  0.4859
  361MOL0     O47528   7.245   9.644   2.921  0.4778  0.0187  0.4314
  361MOL0     C47529   7.193   9.722   2.815  0.5016  0.6618 -0.3703
  361MOL0     C47530   7.196   9.871   2.845  0.8722 -0.7636  0.7930
  361MOL0     C47531   7.333   9.939   2.846 -0.0788  0.6213  0.0109
  361MOL0     C47532   7.392   9.958   2.701  0.1608 -0.0638  0.2561
  361MOL0     C47533   7.511  10.048   2.681  0.5553 -0.5722 -0.1158
  361MOL0     C47534   7.638   9.992   2.743 -0.9835 -0.3013 -0.0005
  361MOL0     C47535   7.771  10.055   2.684  0.7667  0.3310 -0.1588
  361MOL0     C47536   7.897   9.992   2.746  0.3025 -0.1220  0.0820
  361MOL0     N47537   7.917   9.858   2.691  0.1062  0.7319 -0.2084
  361MOL0     C47538   8.018   9.829   2.606 -0.2511  0.1116  0.0003
  361MOL0     C47539   8.014   9.695   2.593 -0.1482  0.8738 -0.1366
  361MOL0     C47540   8.122   9.609   2.523  0.8228 -0.2293 -0.1425
  361MOL0     C47541   8.118   9.625   2.373 -0.0878  0.1662  0.5652
  361MOL0     C47542   7.980   9.629   2.308  0.3185 -0.0810  0.7610
  361MOL0     C47543   7.900   9.502   2.339  0.4745  0.0753 -0.0972
  361MOL0     O47544   7.796   9.478   2.249  0.4059  0.2064  0.5437
  361MOL0     C47545   7.671   9.530   2.278  0.1619 -0.6944  0.1279
  361MOL0     C47546   7.633   9.611   2.388  0.7952 -0.0185  0.4391
  361MOL0     C47547   7.494   9.639   2.411 -0.3652  0.2166 -0.2623
  361MOL0     C47548   7.392   9.581   2.330 -0.0409 -0.0214 -0.3097
  361MOL0     C47549   7.250   9.597   2.344 -0.1393 -0.1729 -0.0343
  361MOL0     O47550   7.175   9.489   2.295  0.4996 -0.0028  0.0843
  361MOL0     C47551   7.042   9.515   2.297 -0.1406  0.3746  0.4617
  361MOL0     C47552   6.967   9.526   2.412 -0.8031  0.5317  0.1330
  361MOL0     C47553   6.825   9.545   2.398  0.3672  0.0238 -0.0806
  361MOL0     C47554   6.761   9.547   2.271  0.0687  0.1011  0.0611
  361MOL0     O47555   6.632   9.559   2.234 -0.4902  0.2121 -0.1727
  361MOL0     C47556   6.536   9.553   2.334 -0.0464  0.1686 -0.1558
  361MOL0     C47557   6.394   9.578   2.274 -0.9457  0.0111 -0.3609
  361MOL0     C47558   6.288   9.561   2.381 -0.0380 -0.1834  0.2084
  361MOL0     C47559   6.155   9.606   2.330 -0.8407 -0.0135 -0.3194
  361MOL0     C47560   6.026   9.610   2.419 -0.2362 -0.7004 -0.5860
  361MOL0     C47561   6.000   9.486   2.516 -0.6559  0.0170  0.6240
  361MOL0     C47562   5.874   9.514   2.603  0.3374  0.2974  0.5262
  361MOL0     C47563   5.792   9.393   2.646  0.1478  0.0492 -0.1761
  361MOL0    Cl47564   5.634   9.448   2.693  0.0492  0.5568 -0.0973
  361MOL0     C47565   6.848   9.548   2.154 -0.3553  0.2364 -1.2479
  361MOL0     C47566   6.986   9.534   2.168 -1.2239 -0.4679 -0.6343
  361MOL0     O47567   7.206   9.692   2.400  0.3490 -0.0226  0.7161
  361MOL0     C47568   7.438   9.489   2.239 -0.3987  0.2045  0.8929
  361MOL0     C47569   7.570   9.473   2.204  0.4126 -0.3873  0.0681
  361MOL0     N47570   7.907   9.639   2.663  0.6755 -0.0019 -0.6140
  361MOL0     N47571   7.848   9.741   2.711 -0.8074 -0.7160  0.3434
  361MOL0     C47572   7.452   9.635   3.029 -0.2579  0.2613 -0.2955
  361MOL0     C47573   7.582   9.597   3.048  0.0233 -0.6944 -0.3954
  361MOL0     C47574   7.954   9.328   3.000  0.3526 -0.2221 -0.5157
  361MOL0     C47575   8.021   9.404   3.092 -0.4634 -0.2408 -0.5121
  361MOL0     C47576   8.160   9.383   3.115  0.2233 -0.1152  0.1844
  361MOL0     C47577   8.230   9.280   3.053 -0.3631  0.0136  0.4728
  361MOL0     O47578   8.365   9.269   3.055 -0.2509 -0.3070 -0.3867
  361MOL0     C47579   8.423   9.141   3.044  1.2620 -0.7798  0.0644
  361MOL0     C47580   8.471   9.128   2.897 -0.1721  0.3832  1.0312
  361MOL0     C47581   8.590   9.221   2.856  0.0353  0.3815 -0.6103
  361MOL0     C47582   8.728   9.187   2.906  0.0327  1.0769  0.0058
  361MOL0     C47583   8.794   9.317   2.931 -0.0465 -0.5410 -0.1052
  361MOL0     C47584   8.828   9.427   2.950 -0.3684 -0.2766  0.4828
  361MOL0     C47585   8.150   9.199   2.972  0.4339 -0.2591 -0.1725
  361MOL0     C47586   8.021   9.219   2.947  0.0171  0.3624 -0.2976
  361MOL0     H47587   7.633   9.452   2.744  1.6141  3.0031 -1.0855
  361MOL0     H47588   7.387   9.511   2.724 -4.1411  3.1672  1.5448
  361MOL0     H47589   7.088   9.692   2.807  1.1012 -2.6466  1.9764
  361MOL0     H47590   7.241   9.708   2.718  1.2086  1.4817 -0.1501
  361MOL0     H47591   7.151   9.892   2.943 -0.6368  1.8817 -0.3723
  361MOL0     H47592   7.131   9.923   2.774 -0.7938 -3.4872  0.1546
  361MOL0     H47593   7.399   9.873   2.904 -2.9625  0.0281  2.9105
  361MOL0     H47594   7.323  10.036   2.894  0.0072 -0.3243  2.0315
  361MOL0     H47595   7.412   9.861   2.655  0.6941 -0.0646  0.4931
  361MOL0     H47596   7.317  10.008   2.639  1.4305  0.3234 -1.0226
  361MOL0     H47597   7.479  10.147   2.714 -1.9018 -2.4500  3.8444
  361MOL0     H47598   7.524  10.043   2.572 -2.4176 -0.4644 -0.5552
  361MOL0     H47599   7.643   9.883   2.753 -2.0903 -0.2975  0.8665
  361MOL0     H47600   7.638  10.017   2.850  1.5643 -0.9863  0.2288
  361MOL0     H47601   7.783  10.040   2.576  0.6543  0.2719 -0.1627
  361MOL0     H47602   7.768  10.162   2.710 -2.3587  0.0345  1.1099
  361MOL0     H47603   7.889   9.977   2.854  2.4799 -3.0056 -0.0256
  361MOL0     H47604   7.988  10.049   2.724  0.6701 -1.1757 -1.2936
  361MOL0     H47605   8.097   9.894   2.569 -0.3655  0.0047 -0.4294
  361MOL0     H47606   8.119   9.503   2.550  0.3571  0.2027  1.6645
  361MOL0     H47607   8.224   9.635   2.554  2.1204 -1.4289 -3.1136
  361MOL0     H47608   8.170   9.555   2.307 -0.3870  1.4442 -1.0961
  361MOL0     H47609   8.169   9.720   2.357  2.7350 -1.5355 -1.5551
  361MOL0     H47610   7.923   9.718   2.335 -0.0432 -0.2881  0.6814
  361MOL0     H47611   7.993   9.624   2.199  1.6488 -0.9052  0.9352
  361MOL0     H47612   7.854   9.496   2.438 -2.4660 -0.4861 -1.3726
  361MOL0     H47613   7.971   9.418   2.334 -1.2982 -1.6778  1.8979
  361MOL0     H47614   7.707   9.644   2.460  2.4921 -0.6618 -0.9327
  361MOL0     H47615   7.458   9.700   2.493 -0.9597 -1.2715  0.6347
  361MOL0     H47616   7.030   9.530   2.501  2.1547  0.4360 -1.7999
  361MOL0     H47617   6.774   9.562   2.492  1.7973 -1.0263  0.9250
  361MOL0     H47618   6.554   9.624   2.415 -1.7198  1.9718 -1.2581
  361MOL0     H47619   6.537   9.450   2.371  0.4138  0.8228  1.7643
  361MOL0     H47620   6.375   9.497   2.203 -2.1313 -1.8586  1.9383
  361MOL0     H47621   6.379   9.669   2.215 -0.6915  0.9611  0.9849
  361MOL0     H47622   6.304   9.620   2.471 -2.8127  2.0616 -0.6418
  361MOL0     H47623   6.277   9.456   2.409 -1.9150 -0.1398 -0.2276
  361MOL0     H47624   6.159   9.707   2.288  4.5409  0.0471 -0.2950
  361MOL0     H47625   6.137   9.538   2.246 -1.5378 -1.4592  0.9613
  361MOL0     H47626   5.949   9.612   2.341  1.0599 -1.0890 -1.9461
  361MOL0     H47627   6.016   9.700   2.480  0.9290  0.7548 -2.4144
  361MOL0     H47628   6.091   9.479   2.577 -0.1140  4.0366  0.5244
  361MOL0     H47629   5.993   9.401   2.448  0.2626  0.6673 -0.3178
  361MOL0     H47630   5.902   9.569   2.694  0.8074  1.8348 -0.5038
  361MOL0     H47631   5.807   9.569   2.537 -0.6534 -3.3362 -1.7546
  361MOL0     H47632   5.849   9.339   2.722  0.6216 -1.3425 -1.4574
  361MOL0     H47633   5.782   9.333   2.555  1.5856 -0.1551 -0.2157
  361MOL0     H47634   6.787   9.550   2.064 -1.5442  0.6782 -0.4549
  361MOL0     H47635   7.062   9.551   2.092 -0.5045  0.3905  0.2456
  361MOL0     H47636   7.363   9.448   2.171  0.0216  0.5721  0.1909
  361MOL0     H47637   7.587   9.416   2.113 -3.0788 -1.4866 -0.0318
  361MOL0     H47638   7.408   9.700   3.104  0.5363 -0.6104  0.9614
  361MOL0     H47639   7.633   9.638   3.134  1.3301 -0.8329 -1.0765
  361MOL0     H47640   7.969   9.484   3.144 -0.0285  0.8647 -1.7328
  361MOL0     H47641   8.210   9.458   3.176  0.8064  2.7844 -3.4931
  361MOL0     H47642   8.350   9.061   3.064 -0.3847  0.9315  1.2713
  361MOL0     H47643   8.496   9.125   3.123 -1.4521 -1.5925  2.5738
  361MOL0     H47644   8.504   9.025   2.879  0.0083  0.7520 -0.8640
  361MOL0     H47645   8.388   9.141   2.828 -0.4312 -1.3353  0.9867
  361MOL0     H47646   8.567   9.325   2.880  1.8429  0.3500  1.6364
  361MOL0     H47647   8.604   9.222   2.747  1.1438 -0.0207 -0.4932
  361MOL0     H47648   8.729   9.130   2.999 -0.3630 -0.2295 -0.7731
  361MOL0     H47649   8.781   9.120   2.838  0.5252  3.1865 -1.8140
  361MOL0     H47650   8.862   9.524   2.979 -0.0695  0.2208 -1.3674
  361MOL0     H47651   8.204   9.119   2.921  2.2383  0.0087  1.2270
  361MOL0     H47652   7.970   9.142   2.891  1.4446 -1.5752  0.9243
  362MOL0     O47653   6.172   4.640   7.572  0.3680 -0.0512  0.3346
  362MOL0     C47654   6.194   4.679   7.458 -0.5810  0.5751 -0.1807
  362MOL0     O47655   6.111   4.700   7.358 -0.6475  0.1625  0.8336
  362MOL0     C47656   5.982   4.673   7.379  0.2955 -0.9068  0.2194
  362MOL0     C47657   5.910   4.617   7.277  0.3944  0.6296  0.3366
  362MOL0     C47658   5.781   4.575   7.294 -0.5837 -1.1420  0.5053
  362MOL0     C47659   5.721   4.598   7.412  0.4009 -0.2082 -0.2802
  362MOL0     O47660   5.595   4.552   7.421 -0.2113  1.0916  0.1425
  362MOL0     C47661   5.507   4.632   7.507 -0.1122  0.0786 -0.3742
  362MOL0     C47662   5.362   4.600   7.476 -0.3427  0.4295  0.8833
  362MOL0     C47663   5.262   4.661   7.582  0.1770 -0.8472 -0.0729
  362MOL0     C47664   5.117   4.613   7.551 -0.4566  0.4835 -0.4450
  362MOL0     C47665   5.011   4.674   7.643  0.1554 -0.9826  0.2089
  362MOL0     C47666   4.885   4.600   7.629  0.6989 -0.4635  0.2238
  362MOL0     C47667   4.766   4.679   7.703 -0.4312 -0.5964  0.4766
  362MOL0     C47668   4.637   4.618   7.660 -0.0989  0.4882  0.3691
  362MOL0     N47669   4.602   4.654   7.523  0.0721 -1.1125 -0.5353
  362MOL0     C47670   4.515   4.758   7.508  0.1074  0.5953  0.2325
  362MOL0     C47671   4.464   4.747   7.385 -0.4766  0.2651  0.1794
  362MOL0     C47672   4.362   4.841   7.327 -0.3748 -0.1519  0.4840
  362MOL0     C47673   4.215   4.792   7.337 -0.0941  0.6854 -0.4637
  362MOL0     C47674   4.130   4.914   7.327 -0.5373 -0.3302 -1.0565
  362MOL0     C47675   3.990   4.868   7.330 -0.2478 -0.5243 -0.2251
  362MOL0     O47676   3.909   4.990   7.331 -0.6970 -0.3403 -0.3554
  362MOL0     C47677   3.772   4.986   7.368 -0.4467  0.0136  1.1717
  362MOL0     C47678   3.692   5.102   7.348 -0.1923 -0.5345  0.5243
  362MOL0     C47679   3.563   5.104   7.392 -0.1209  0.5073  0.2113
  362MOL0     C47680   3.503   4.992   7.456 -1.2716  1.0275 -0.6392
  362MOL0     C47681   3.360   4.990   7.472 -0.2192  0.7167  0.5520
  362MOL0     O47682   3.296   5.087   7.399 -0.3355 -0.0518  0.7264
  362MOL0     C47683   3.166   5.125   7.424 -0.2691 -0.0414 -0.0927
  362MOL0     C47684   3.061   5.022   7.432  0.0328 -0.4261 -0.9761
  362MOL0     C47685   2.928   5.060   7.455 -0.0352  0.3629  0.6000
  362MOL0     C47686   2.892   5.187   7.482 -0.4287 -0.0364 -0.5477
  362MOL0     O47687   2.763   5.230   7.496  0.8186 -0.5193 -0.5169
  362MOL0     C47688   2.647   5.143   7.497 -0.6622 -0.3628  0.1475
  362MOL0     C47689   2.541   5.227   7.567 -0.0529  0.5153  0.7820
  362MOL0     C47690   2.568   5.254   7.716  0.4712 -0.0334  0.3745
  362MOL0     C47691   2.448   5.309   7.783  0.2291  0.2328  0.6534
  362MOL0     C47692   2.472   5.320   7.936  0.3695  0.7026 -0.3339
  362MOL0     C47693   2.339   5.359   8.003  0.9334 -0.5403 -0.2480
  362MOL0     C47694   2.323   5.505   8.012  0.0018 -0.1105  0.4621
  362MOL0     C47695   2.189   5.550   8.067  0.0728  0.0781  0.1791
  362MOL0    Cl47696   2.062   5.483   7.957 -0.0280 -0.0857  0.2099
  362MOL0     C47697   2.994   5.284   7.494  0.3509  0.0400 -0.1694
  362MOL0     C47698   3.129   5.257   7.460 -0.1922 -0.3030 -0.5577
  362MOL0     O47699   3.318   4.912   7.561 -0.1487 -0.3870  0.3577
  362MOL0     C47700   3.586   4.874   7.461 -0.5574  0.0757  0.4439
  362MOL0     C47701   3.713   4.880   7.423  0.7984  0.2511 -0.5673
  362MOL0     N47702   4.520   4.633   7.327  0.1734  0.3961 -0.9103
  362MOL0     N47703   4.604   4.579   7.415 -0.3518 -0.5256  0.0965
  362MOL0     C47704   5.783   4.661   7.518  0.1795 -0.3591  0.7223
  362MOL0     C47705   5.915   4.699   7.498  0.0804 -0.0636  0.1505
  362MOL0     C47706   6.336   4.711   7.426  0.8304 -0.8751  0.7366
  362MOL0     C47707   6.437   4.701   7.520 -0.1057  0.6602  0.3329
  362MOL0     C47708   6.572   4.723   7.491 -0.4058  1.1130 -0.6339
  362MOL0     C47709   6.609   4.758   7.361  0.5173  0.4048 -0.8914
  362MOL0     O47710   6.739   4.780   7.331 -0.1909  0.5457 -0.6527
  362MOL0     C47711   6.804   4.664   7.265 -0.3803  0.0784  0.2758
  362MOL0     C47712   6.950   4.694   7.226  0.5044  0.3402  0.4189
  362MOL0     C47713   6.962   4.821   7.136  0.0733  0.5633 -0.1236
  362MOL0     C47714   7.106   4.865   7.158  0.6689  1.0982 -1.6781
  362MOL0     C47715   7.150   4.978   7.083  0.0655 -0.3619  0.1793
  362MOL0     C47716   7.183   5.087   7.041 -0.5450 -0.8004 -0.3479
  362MOL0     C47717   6.515   4.761   7.264  0.1061 -0.3227 -0.2986
  362MOL0     C47718   6.376   4.738   7.290 -0.3083 -0.1994  0.1449
  362MOL0     H47719   5.945   4.610   7.175 -0.3284  0.4446  0.0936
  362MOL0     H47720   5.725   4.520   7.219 -1.9888 -0.3647  0.9455
  362MOL0     H47721   5.529   4.739   7.501 -0.0044  0.2081  1.6777
  362MOL0     H47722   5.526   4.590   7.606 -0.7135  0.7790  0.0518
  362MOL0     H47723   5.351   4.493   7.454  0.8639  0.4638  0.0558
  362MOL0     H47724   5.343   4.642   7.377  1.7843 -1.0865 -0.2382
  362MOL0     H47725   5.269   4.769   7.590  0.7140 -0.9715  1.4813
  362MOL0     H47726   5.299   4.636   7.682 -2.3387 -0.9090  0.9189
  362MOL0     H47727   5.105   4.637   7.445  0.6095 -0.6946 -0.8421
  362MOL0     H47728   5.120   4.505   7.568  0.6018  0.4584 -0.7766
  362MOL0     H47729   5.003   4.783   7.632 -0.5017 -1.1163 -0.7367
  362MOL0     H47730   5.060   4.653   7.739  0.2632 -3.1218 -0.2717
  362MOL0     H47731   4.900   4.495   7.659  0.7627 -0.6201 -0.3488
  362MOL0     H47732   4.855   4.584   7.526 -0.7496  0.3204  0.4983
  362MOL0     H47733   4.774   4.667   7.812 -2.2304  0.3599  0.7755
  362MOL0     H47734   4.775   4.782   7.668  0.6614 -1.3837 -1.7584
  362MOL0     H47735   4.571   4.665   7.734 -1.6268  0.2936 -0.8189
  362MOL0     H47736   4.630   4.509   7.665 -5.0507  0.4581 -1.8344
  362MOL0     H47737   4.511   4.848   7.569 -1.3072  1.8573 -1.6018
  362MOL0     H47738   4.382   4.850   7.220  3.3673 -0.4967  1.0305
  362MOL0     H47739   4.380   4.934   7.382  0.2645 -0.8342  1.4786
  362MOL0     H47740   4.206   4.750   7.437  1.1468  0.4408 -0.4314
  362MOL0     H47741   4.194   4.713   7.263  1.2500 -1.6146  1.4548
  362MOL0     H47742   4.161   4.988   7.401  2.5781  1.9129 -4.2571
  362MOL0     H47743   4.160   4.960   7.233  1.3172  0.1494 -0.2824
  362MOL0     H47744   3.966   4.794   7.407 -0.5373 -0.4668 -0.2608
  362MOL0     H47745   3.971   4.822   7.233  1.6595  1.6993 -1.7758
  362MOL0     H47746   3.737   5.190   7.303  0.1367  0.0723  2.0035
  362MOL0     H47747   3.502   5.189   7.365 -1.0184 -0.8598 -2.3490
  362MOL0     H47748   3.089   4.917   7.421  2.6103  0.3544 -3.1631
  362MOL0     H47749   2.857   4.979   7.460  1.2723 -0.7690  3.4455
  362MOL0     H47750   2.670   5.061   7.566  3.8989  1.6788  1.4630
  362MOL0     H47751   2.622   5.098   7.400 -1.0436  0.1743 -0.0021
  362MOL0     H47752   2.447   5.172   7.564  0.0858  0.2916  0.4122
  362MOL0     H47753   2.522   5.318   7.509 -0.3003  0.6216  1.0303
  362MOL0     H47754   2.646   5.330   7.717  1.0209 -0.5851  0.0039
  362MOL0     H47755   2.599   5.163   7.766 -0.9046 -0.4945  0.4365
  362MOL0     H47756   2.420   5.409   7.748  0.0136  0.5636  1.7358
  362MOL0     H47757   2.365   5.240   7.770  1.5977 -1.4004  0.1723
  362MOL0     H47758   2.549   5.389   7.971 -0.6390  1.4441  0.5029
  362MOL0     H47759   2.490   5.217   7.967 -1.4025  0.3307 -0.4562
  362MOL0     H47760   2.335   5.312   8.101  1.0647  0.0735  0.0600
  362MOL0     H47761   2.259   5.316   7.941  2.5469 -1.3628 -1.8467
  362MOL0     H47762   2.402   5.545   8.076  0.0070  1.4546 -0.4878
  362MOL0     H47763   2.337   5.542   7.910  0.7344 -3.3662 -0.7612
  362MOL0     H47764   2.176   5.658   8.061  0.1667  0.2178  2.0977
  362MOL0     H47765   2.173   5.515   8.169  0.1708 -0.7926 -0.0965
  362MOL0     H47766   2.962   5.386   7.510  2.5335  0.7131  0.2193
  362MOL0     H47767   3.202   5.337   7.472 -1.2382  0.9376 -2.1271
  362MOL0     H47768   3.546   4.782   7.501 -1.8913  0.5739  0.3330
  362MOL0     H47769   3.764   4.786   7.439  2.6014  1.1959 -0.4157
  362MOL0     H47770   5.731   4.706   7.602  0.0779  3.3076 -1.0892
  362MOL0     H47771   5.974   4.761   7.565  2.0158 -0.8967 -0.7040
  362MOL0     H47772   6.411   4.687   7.625  1.1956 -0.6513  0.5114
  362MOL0     H47773   6.656   4.717   7.560  0.9687 -0.4532 -2.3363
  362MOL0     H47774   6.754   4.626   7.175 -2.1838  1.3414  0.6894
  362MOL0     H47775   6.797   4.581   7.336  2.5083 -1.7091 -1.3249
  362MOL0     H47776   7.006   4.702   7.320 -0.3342  1.3993  0.8519
  362MOL0     H47777   6.981   4.609   7.164 -0.9602  1.8706 -2.5787
  362MOL0     H47778   6.884   4.894   7.161 -1.4021 -1.3332  1.0996
  362MOL0     H47779   6.940   4.787   7.034  1.5956 -0.4814 -0.1293
  362MOL0     H47780   7.115   4.891   7.264 -1.6745  0.8182 -1.3612
  362MOL0     H47781   7.176   4.783   7.140 -1.1120 -0.9450  0.2260
  362MOL0     H47782   7.212   5.186   7.012 -0.1951 -0.6146  0.5980
  362MOL0     H47783   6.549   4.777   7.162  3.7746 -0.8944  0.6603
  362MOL0     H47784   6.319   4.723   7.199 -0.7324 -0.0049  0.3707
  363MOL0     O47785   9.032   5.852   1.616 -0.7215 -0.1908 -0.8593
  363MOL0     C47786   9.106   5.847   1.513 -0.3636  0.5718 -1.0539
  363MOL0     O47787   9.073   5.890   1.392 -0.2687 -0.5305 -0.0327
  363MOL0     C47788   8.959   5.960   1.364 -0.4332  0.3933  0.1999
  363MOL0     C47789   8.962   6.045   1.247  0.2629  0.0084  0.4301
  363MOL0     C47790   8.847   6.115   1.198  0.1310 -0.5070 -0.7126
  363MOL0     C47791   8.721   6.098   1.258 -0.5145  0.3542 -0.0799
  363MOL0     O47792   8.613   6.162   1.205 -0.3774  0.2813  0.0359
  363MOL0     C47793   8.526   6.218   1.296 -0.1168 -0.2642 -1.3112
  363MOL0     C47794   8.439   6.325   1.236 -0.9132  0.5901 -0.1719
  363MOL0     C47795   8.523   6.439   1.193 -0.3718 -0.6220  0.0947
  363MOL0     C47796   8.437   6.565   1.166  0.1840 -0.2154 -0.1909
  363MOL0     C47797   8.338   6.549   1.050 -0.5917 -0.0212  0.0612
  363MOL0     C47798   8.270   6.679   1.001  0.2419 -0.7192  0.2121
  363MOL0     C47799   8.170   6.671   0.880  0.2951 -0.1582  0.2716
  363MOL0     C47800   8.231   6.636   0.744 -0.5330 -0.8217  0.2566
  363MOL0     N47801   8.125   6.639   0.649  0.0428 -0.7216  0.2764
  363MOL0     C47802   8.117   6.735   0.547 -0.1628 -0.3272 -0.7956
  363MOL0     C47803   8.001   6.702   0.492  0.0019 -0.0588 -0.3955
  363MOL0     C47804   7.929   6.784   0.390 -0.4574  0.9267  0.7838
  363MOL0     C47805   7.850   6.715   0.284 -0.1312  0.9298 -0.3113
  363MOL0     C47806   7.702   6.741   0.295  0.2507  0.0271 -0.9890
  363MOL0     C47807   7.622   6.657   0.190 -0.1601 -0.8999  0.5199
  363MOL0     O47808   7.481   6.691   0.207 -0.8445  0.0560 -0.2059
  363MOL0     C47809   7.399   6.630   0.294 -0.4444  1.1869  0.2924
  363MOL0     C47810   7.429   6.512   0.364 -0.1957  0.3605  0.8741
  363MOL0     C47811   7.336   6.463   0.460  0.7753  0.5003 -0.5646
  363MOL0     C47812   7.211   6.520   0.470  0.5860  0.4562  0.5228
  363MOL0     C47813   7.127   6.460   0.577 -0.2223  0.0481  0.0857
  363MOL0     O47814   7.018   6.538   0.602  0.4712  0.6249 -0.8082
  363MOL0     C47815   6.895   6.495   0.650  0.8127  0.0659 -0.2744
  363MOL0     C47816   6.794   6.598   0.659 -0.0818 -1.1143 -0.6469
  363MOL0     C47817   6.663   6.568   0.701  0.3308 -0.0275  0.3980
  363MOL0     C47818   6.629   6.441   0.742 -0.4744  0.0590  0.5584
  363MOL0     O47819   6.504   6.428   0.782 -0.2910 -0.1539 -0.1788
  363MOL0     C47820   6.474   6.343   0.890  0.1013  0.1990 -0.3160
  363MOL0     C47821   6.322   6.339   0.906 -0.6124  0.2628  0.0045
  363MOL0     C47822   6.280   6.230   1.012 -0.4498  0.0912 -0.0567
  363MOL0     C47823   6.121   6.225   1.023 -0.1297  0.1268  0.6012
  363MOL0     C47824   6.054   6.350   1.076  1.1560  0.1308 -0.2868
  363MOL0     C47825   5.897   6.319   1.091  0.2637  0.1395 -0.4452
  363MOL0     C47826   5.830   6.381   1.223 -0.7265 -0.5426  0.8997
  363MOL0     C47827   5.698   6.309   1.247  0.1108  0.0863  0.2141
  363MOL0    Cl47828   5.718   6.142   1.274  0.3256  0.1895 -0.4638
  363MOL0     C47829   6.728   6.340   0.735 -0.1218  0.2220 -0.3894
  363MOL0     C47830   6.852   6.365   0.688 -0.7729  0.3303 -0.0519
  363MOL0     O47831   7.158   6.355   0.638  0.2448 -0.4165 -0.0019
  363MOL0     C47832   7.177   6.631   0.392 -0.3113 -0.4228 -1.6748
  363MOL0     C47833   7.275   6.675   0.300 -0.3157  0.2788  0.0096
  363MOL0     N47834   7.944   6.586   0.562 -0.4756 -1.3441  1.0573
  363MOL0     N47835   8.018   6.557   0.657 -0.0889 -0.1648 -0.3415
  363MOL0     C47836   8.719   6.014   1.374  0.3865 -0.1210  0.0354
  363MOL0     C47837   8.830   5.941   1.424 -0.1133  0.0464  0.3981
  363MOL0     C47838   9.253   5.810   1.519 -0.1595  0.9162  0.0016
  363MOL0     C47839   9.327   5.824   1.633  0.5766  0.1555 -0.0782
  363MOL0     C47840   9.462   5.799   1.639 -0.2579 -0.1139  0.5186
  363MOL0     C47841   9.527   5.742   1.523 -0.0960 -0.2170 -0.7313
  363MOL0     O47842   9.660   5.706   1.517  0.8367 -0.2806  0.9673
  363MOL0     C47843   9.736   5.724   1.635 -0.0832  0.1630 -0.2285
  363MOL0     C47844   9.866   5.651   1.591  0.5789  0.1839  0.1633
  363MOL0     C47845   9.953   5.746   1.501 -0.3516 -0.0823 -0.5113
  363MOL0     C47846  10.053   5.676   1.407  0.1255  0.0117  0.7350
  363MOL0     C47847  10.150   5.604   1.482 -0.5476  0.1521  0.2913
  363MOL0     C47848  10.226   5.537   1.547  0.0925  0.3949 -0.1582
  363MOL0     C47849   9.448   5.702   1.415  0.2463 -0.1319 -0.0623
  363MOL0     C47850   9.308   5.746   1.412 -0.2112  0.2423 -1.0824
  363MOL0     H47851   9.055   6.059   1.193  0.2180 -3.1117 -0.6619
  363MOL0     H47852   8.838   6.171   1.105  1.1101  0.7734 -0.0749
  363MOL0     H47853   8.582   6.265   1.378 -2.1425 -0.4836  0.2723
  363MOL0     H47854   8.453   6.141   1.322  1.3005 -1.6217 -1.1812
  363MOL0     H47855   8.364   6.370   1.302 -1.0038 -0.1700  0.2533
  363MOL0     H47856   8.381   6.279   1.156  1.1596 -1.0305 -0.8252
  363MOL0     H47857   8.573   6.423   1.097  1.5361  2.0733  0.5224
  363MOL0     H47858   8.597   6.456   1.271 -2.7883 -1.2635  2.6983
  363MOL0     H47859   8.385   6.591   1.259  3.9522  0.1103  2.0136
  363MOL0     H47860   8.510   6.642   1.140 -0.1106  0.7503  1.6238
  363MOL0     H47861   8.251   6.490   1.079 -0.5530  0.9964  2.4866
  363MOL0     H47862   8.383   6.510   0.958 -0.2859 -1.2027  0.6879
  363MOL0     H47863   8.345   6.753   0.974 -2.4405  1.8413 -0.7880
  363MOL0     H47864   8.216   6.730   1.081  1.2114  0.6173  0.0379
  363MOL0     H47865   8.098   6.591   0.903  1.8014 -1.5812  0.2422
  363MOL0     H47866   8.122   6.769   0.877 -0.6578 -0.6269 -2.3303
  363MOL0     H47867   8.270   6.534   0.754 -0.5652 -0.7228  1.5466
  363MOL0     H47868   8.309   6.709   0.721 -0.9067  0.4103  2.6429
  363MOL0     H47869   8.188   6.814   0.523  0.8604 -1.0818 -0.3459
  363MOL0     H47870   7.997   6.856   0.343 -1.2319  1.0885 -0.1224
  363MOL0     H47871   7.859   6.843   0.449  1.0508  0.6634  2.9669
  363MOL0     H47872   7.867   6.607   0.278  0.9247  1.1355 -1.1699
  363MOL0     H47873   7.882   6.748   0.185 -0.2800 -3.9457 -2.2654
  363MOL0     H47874   7.661   6.728   0.396  2.1195  0.5813 -0.1233
  363MOL0     H47875   7.673   6.839   0.256  1.7116  0.9767  0.2323
  363MOL0     H47876   7.651   6.554   0.214 -1.1673 -1.2551  0.2612
  363MOL0     H47877   7.655   6.696   0.094 -0.6262  0.4028  0.8667
  363MOL0     H47878   7.525   6.460   0.357  0.0844  1.0903 -3.0745
  363MOL0     H47879   7.365   6.384   0.528 -0.6846  1.6420  1.5245
  363MOL0     H47880   6.808   6.696   0.614  1.5213 -1.1323 -0.2596
  363MOL0     H47881   6.587   6.645   0.692  1.0790  0.4909 -2.1975
  363MOL0     H47882   6.518   6.390   0.978 -2.2435 -1.6071  1.9888
  363MOL0     H47883   6.514   6.243   0.868  0.3583  0.3321 -0.4538
  363MOL0     H47884   6.280   6.323   0.806  2.6187 -0.9019 -1.3089
  363MOL0     H47885   6.301   6.436   0.951  1.7894  1.0633 -0.4700
  363MOL0     H47886   6.329   6.242   1.109 -0.3428 -0.4463 -0.0426
  363MOL0     H47887   6.312   6.131   0.977 -0.7559 -1.1190  2.7965
  363MOL0     H47888   6.088   6.201   0.921  1.2706  0.0711  0.1368
  363MOL0     H47889   6.088   6.141   1.084 -1.5993  0.6212  0.5182
  363MOL0     H47890   6.059   6.433   1.004  0.3924  3.1603  2.9056
  363MOL0     H47891   6.095   6.399   1.165 -0.1894  2.6267 -0.9453
  363MOL0     H47892   5.881   6.211   1.099  1.1595  0.0723  0.7403
  363MOL0     H47893   5.842   6.348   1.001 -1.0221  0.5106  0.4393
  363MOL0     H47894   5.903   6.361   1.301 -0.5620  4.3379  2.3734
  363MOL0     H47895   5.820   6.490   1.229  1.2753 -0.3184  0.7550
  363MOL0     H47896   5.634   6.306   1.159  1.4549  2.4045 -0.9540
  363MOL0     H47897   5.643   6.356   1.329 -1.1809 -1.4631  0.2850
  363MOL0     H47898   6.690   6.244   0.769 -0.2137  0.6657  0.7753
  363MOL0     H47899   6.916   6.277   0.682 -2.8265 -1.3901  1.4004
  363MOL0     H47900   7.083   6.685   0.391  1.8127  3.7053 -1.4410
  363MOL0     H47901   7.242   6.754   0.233 -2.3288  1.5171  2.2837
  363MOL0     H47902   8.626   5.987   1.424  0.9133 -1.3421  0.4116
  363MOL0     H47903   8.809   5.872   1.505 -2.5645 -0.7731 -0.8719
  363MOL0     H47904   9.284   5.874   1.719  1.9096  3.1108 -1.0257
  363MOL0     H47905   9.511   5.825   1.732 -0.0851  1.4647  0.0150
  363MOL0     H47906   9.693   5.687   1.729  1.0195  1.0850  0.6692
  363MOL0     H47907   9.768   5.827   1.655 -0.5573  0.5717 -1.4921
  363MOL0     H47908   9.917   5.608   1.678  0.2876 -3.0647 -1.1236
  363MOL0     H47909   9.839   5.568   1.525 -1.7601 -0.4345  1.7421
  363MOL0     H47910  10.003   5.822   1.562 -0.5474 -0.2144 -0.1798
  363MOL0     H47911   9.884   5.810   1.445 -4.7405 -1.3891  2.8164
  363MOL0     H47912  10.005   5.609   1.333 -0.1923  1.2397 -0.1999
  363MOL0     H47913  10.100   5.755   1.348  1.2056  0.0691  1.6598
  363MOL0     H47914  10.299   5.493   1.612  1.0135  1.7801 -0.2190
  363MOL0     H47915   9.495   5.656   1.329  0.5890  1.6280 -0.8826
  363MOL0     H47916   9.246   5.725   1.325  3.5535 -0.9246 -3.7509
  364MOL0     O47917   0.578   1.599   9.568 -0.3019  0.3438  0.2043
  364MOL0     C47918   0.628   1.589   9.678 -0.1737  0.5465  0.2541
  364MOL0     O47919   0.557   1.560   9.797 -0.6494  1.3730  0.3760
  364MOL0     C47920   0.429   1.532   9.780 -0.4575 -0.0690  0.0925
  364MOL0     C47921   0.386   1.410   9.815  0.2818  0.3956  0.0151
  364MOL0     C47922   0.253   1.372   9.826 -0.2978 -0.2902  0.1082
  364MOL0     C47923   0.155   1.465   9.775 -0.2953 -0.3075 -0.0575
  364MOL0     O47924   0.021   1.425   9.780 -0.1421  0.4853  0.1457
  364MOL0     C47925  -0.065   1.503   9.699 -0.2507  0.3106 -1.2571
  364MOL0     C47926  -0.199   1.429   9.687 -0.1968 -0.1747  0.7541
  364MOL0     C47927  -0.201   1.307   9.596  0.6656  0.3158  0.7651
  364MOL0     C47928  -0.346   1.269   9.572 -0.1959 -0.2792  0.2890
  364MOL0     C47929  -0.418   1.199   9.690  0.1091 -0.4898  0.9273
  364MOL0     C47930  -0.560   1.170   9.628  0.2705  0.5146 -1.0059
  364MOL0     C47931  -0.671   1.127   9.729  0.0363 -0.0326 -0.3822
  364MOL0     C47932  -0.797   1.105   9.647  0.3739  0.3404  1.3164
  364MOL0     N47933  -0.913   1.078   9.731  0.5848  0.6024 -0.5634
  364MOL0     C47934  -1.041   1.139   9.721 -0.1351  0.1791 -0.1291
  364MOL0     C47935  -1.112   1.090   9.827  0.4082  0.1169  0.6889
  364MOL0     C47936  -1.249   1.137   9.879 -0.4457  1.0154  0.5618
  364MOL0     C47937  -1.354   1.038   9.836  0.9063 -0.3024  0.0052
  364MOL0     C47938  -1.488   1.077   9.902 -1.1999  0.4246 -0.1746
  364MOL0     C47939  -1.609   0.992   9.855  0.2836 -0.6491 -1.1214
  364MOL0     O47940  -1.719   1.082   9.863  0.4024  0.4111  0.1690
  364MOL0     C47941  -1.823   1.058   9.777  0.2412 -0.5023 -0.1416
  364MOL0     C47942  -1.901   1.161   9.729 -0.2859  0.3749  0.0873
  364MOL0     C47943  -2.010   1.139   9.646 -0.4889  0.0726  0.2054
  364MOL0     C47944  -2.044   1.010   9.609  0.1695 -0.2634  0.8820
  364MOL0     C47945  -2.161   0.987   9.511  0.1321  0.2623 -0.3251
  364MOL0     O47946  -2.141   0.898   9.407 -0.1839 -0.5193 -0.1950
  364MOL0     C47947  -2.254   0.868   9.339 -1.3038  0.8548  1.1301
  364MOL0     C47948  -2.294   0.928   9.222  0.7580  0.4786  0.0666
  364MOL0     C47949  -2.424   0.899   9.175 -0.3342  0.6724 -0.6551
  364MOL0     C47950  -2.500   0.789   9.227 -0.1554  0.4084 -0.2717
  364MOL0     O47951  -2.618   0.759   9.172  0.4972 -0.1828  0.3418
  364MOL0     C47952  -2.712   0.668   9.233  0.0628  0.2563  0.5294
  364MOL0     C47953  -2.839   0.650   9.144 -0.0454 -0.1645 -0.0307
  364MOL0     C47954  -2.962   0.570   9.205 -0.1771 -0.4170  0.5282
  364MOL0     C47955  -2.914   0.437   9.242  0.7179 -0.3926  0.1737
  364MOL0     C47956  -3.016   0.354   9.312 -0.3048 -0.3030  0.1551
  364MOL0     C47957  -3.137   0.347   9.216 -0.0071  0.1292  0.1918
  364MOL0     C47958  -3.227   0.228   9.268  0.2365 -0.7532  0.7576
  364MOL0     C47959  -3.324   0.209   9.155 -0.5215 -0.3342 -0.1960
  364MOL0    Cl47960  -3.425   0.060   9.180 -0.3311  0.4112 -0.5708
  364MOL0     C47961  -2.455   0.726   9.339  0.2238  0.2357 -0.5731
  364MOL0     C47962  -2.327   0.761   9.389 -0.1094  0.2758 -0.2512
  364MOL0     O47963  -2.262   1.048   9.534 -0.1806 -0.0996 -0.0776
  364MOL0     C47964  -1.968   0.907   9.660  0.1014 -0.2550  0.3896
  364MOL0     C47965  -1.867   0.927   9.743  0.2416 -0.6273  0.3715
  364MOL0     N47966  -1.038   0.984   9.874  0.8567  0.1940 -0.1599
  364MOL0     N47967  -0.927   0.973   9.814  0.7152  0.0665  0.2438
  364MOL0     C47968   0.203   1.593   9.744 -0.7605 -0.2748  1.3145
  364MOL0     C47969   0.334   1.632   9.752 -0.4757 -0.8374  0.5936
  364MOL0     C47970   0.776   1.615   9.682 -0.1976  0.1856 -0.1013
  364MOL0     C47971   0.844   1.633   9.805  0.6968 -0.1137 -0.3088
  364MOL0     C47972   0.980   1.673   9.807 -0.2235 -0.2244  0.4038
  364MOL0     C47973   1.049   1.707   9.687  0.1059  0.1523 -0.4926
  364MOL0     O47974   1.177   1.764   9.700 -0.3502 -0.4307 -0.6815
  364MOL0     C47975   1.243   1.834   9.595  0.6002  0.0318  0.2321
  364MOL0     C47976   1.327   1.743   9.500  1.4757  0.3839  0.2735
  364MOL0     C47977   1.440   1.672   9.572  0.2424  0.3072  0.0129
  364MOL0     C47978   1.399   1.542   9.653  0.1520  0.5839  0.1591
  364MOL0     C47979   1.510   1.505   9.739 -0.6570  0.2386 -1.1428
  364MOL0     C47980   1.619   1.505   9.803  0.1535 -0.4914 -0.1280
  364MOL0     C47981   0.974   1.696   9.566 -0.0803 -0.5567 -0.4191
  364MOL0     C47982   0.845   1.655   9.568  0.9237 -0.6211 -0.4861
  364MOL0     H47983   0.459   1.332   9.839 -2.6478 -1.9387  2.0615
  364MOL0     H47984   0.237   1.269   9.854  3.8895 -0.5936  2.1421
  364MOL0     H47985  -0.010   1.527   9.607  2.3532  0.2182  0.1694
  364MOL0     H47986  -0.079   1.596   9.755 -0.2533 -0.4150 -0.0243
  364MOL0     H47987  -0.267   1.499   9.639 -0.3437 -0.1839  0.9473
  364MOL0     H47988  -0.226   1.398   9.789 -0.4149  2.5233  1.5837
  364MOL0     H47989  -0.148   1.225   9.645  0.1677 -0.8344 -0.5464
  364MOL0     H47990  -0.152   1.336   9.503 -0.9491  1.2827  0.1716
  364MOL0     H47991  -0.406   1.358   9.550 -1.8409 -1.4658 -0.2181
  364MOL0     H47992  -0.346   1.194   9.492  0.6211 -0.1010  0.1054
  364MOL0     H47993  -0.430   1.257   9.782  1.6461 -1.2293  1.6194
  364MOL0     H47994  -0.368   1.107   9.719  2.2440  0.0233 -0.8593
  364MOL0     H47995  -0.554   1.101   9.543  1.3326  0.9724 -1.3262
  364MOL0     H47996  -0.584   1.265   9.580  0.1772  0.8196 -0.3699
  364MOL0     H47997  -0.637   1.038   9.784  0.2173  0.3886  0.1982
  364MOL0     H47998  -0.680   1.196   9.814 -1.8391 -0.4835 -0.1566
  364MOL0     H47999  -0.791   1.016   9.583 -0.2237 -0.4980  2.3987
  364MOL0     H48000  -0.816   1.200   9.597 -2.2172 -0.9935 -0.5140
  364MOL0     H48001  -1.066   1.228   9.663  0.4843 -0.6630 -1.7553
  364MOL0     H48002  -1.272   1.239   9.846  0.7467  1.4779  1.0970
  364MOL0     H48003  -1.237   1.131   9.987  2.5837 -1.4556  0.2407
  364MOL0     H48004  -1.326   0.941   9.877  0.5733  0.0222  1.0123
  364MOL0     H48005  -1.370   1.034   9.728 -2.8224  2.0043  0.2908
  364MOL0     H48006  -1.484   1.057  10.009  0.7423  1.1384 -0.0789
  364MOL0     H48007  -1.494   1.186   9.890 -0.0516  0.4519 -0.6179
  364MOL0     H48008  -1.627   0.907   9.922  2.2656 -0.6280 -0.5140
  364MOL0     H48009  -1.598   0.955   9.753  0.3098 -0.2220 -1.2766
  364MOL0     H48010  -1.864   1.259   9.757  4.2179 -1.7999  3.0364
  364MOL0     H48011  -2.066   1.224   9.609 -0.7142 -0.4151 -0.5861
  364MOL0     H48012  -2.243   1.009   9.171 -0.9211 -1.3001 -5.1793
  364MOL0     H48013  -2.459   0.948   9.084 -1.8567 -1.2350 -1.1712
  364MOL0     H48014  -2.743   0.710   9.329  0.1405 -0.0427  0.6878
  364MOL0     H48015  -2.671   0.570   9.260 -1.2605 -0.6049 -0.4786
  364MOL0     H48016  -2.811   0.595   9.054  0.9545 -0.6318  0.5538
  364MOL0     H48017  -2.862   0.752   9.112  1.7564  0.3305  0.1397
  364MOL0     H48018  -3.042   0.571   9.131  0.0567  2.2791  0.2104
  364MOL0     H48019  -2.991   0.627   9.295  1.1019 -0.1204  0.7753
  364MOL0     H48020  -2.878   0.383   9.153  2.9905 -0.1299  0.8558
  364MOL0     H48021  -2.827   0.450   9.307  0.9929 -0.7065 -0.1254
  364MOL0     H48022  -3.046   0.392   9.410 -0.9264  1.1091 -0.5550
  364MOL0     H48023  -2.972   0.254   9.324  1.0403  0.0781 -1.2648
  364MOL0     H48024  -3.104   0.325   9.114  0.8016  0.9179  0.2770
  364MOL0     H48025  -3.190   0.442   9.206 -0.6398 -0.3084 -0.7373
  364MOL0     H48026  -3.171   0.135   9.272 -0.8312 -1.5194 -0.8496
  364MOL0     H48027  -3.287   0.243   9.359  1.3127  0.7032  1.2677
  364MOL0     H48028  -3.265   0.189   9.065  0.1016 -1.8305  0.5142
  364MOL0     H48029  -3.390   0.296   9.146 -1.6606 -1.0074  1.1962
  364MOL0     H48030  -2.510   0.644   9.383  4.1306 -2.7435 -0.7140
  364MOL0     H48031  -2.280   0.719   9.478  0.2338  0.3528 -0.3950
  364MOL0     H48032  -2.000   0.811   9.623 -0.5814 -0.8000  2.2490
  364MOL0     H48033  -1.814   0.846   9.791 -1.6015 -2.2481 -0.1654
  364MOL0     H48034   0.123   1.660   9.714  1.1032  1.4929  0.0631
  364MOL0     H48035   0.377   1.729   9.727  2.4305 -2.6615 -2.2819
  364MOL0     H48036   0.798   1.614   9.901 -3.3444  0.4321 -1.9337
  364MOL0     H48037   1.038   1.699   9.895 -1.7908  2.1115  0.8515
  364MOL0     H48038   1.307   1.907   9.646  0.8441 -0.6776  0.9647
  364MOL0     H48039   1.173   1.886   9.529  2.0080  0.1097 -1.2685
  364MOL0     H48040   1.252   1.669   9.472  0.8738  1.4489 -1.0763
  364MOL0     H48041   1.362   1.791   9.408 -1.9541  0.9663 -0.8435
  364MOL0     H48042   1.501   1.728   9.643  3.8539 -1.6068 -1.3453
  364MOL0     H48043   1.503   1.638   9.490  0.7046  2.9833 -0.8432
  364MOL0     H48044   1.314   1.560   9.719  0.5628 -2.2958  1.6507
  364MOL0     H48045   1.365   1.459   9.590  2.8330 -0.6658  0.1770
  364MOL0     H48046   1.700   1.514   9.873  2.9681 -2.9621 -2.7380
  364MOL0     H48047   1.019   1.732   9.474 -0.6294 -1.5448 -1.0986
  364MOL0     H48048   0.800   1.655   9.469  0.4430  2.8333 -0.3903
  365MOL0     O48049   2.653   4.133   8.516  0.9885  0.0459 -0.2942
  365MOL0     C48050   2.689   4.231   8.564 -0.4915 -0.2702 -0.6864
  365MOL0     O48051   2.612   4.313   8.647 -0.1376  0.1488  0.2233
  365MOL0     C48052   2.483   4.276   8.671  0.5977  1.0019 -0.2566
  365MOL0     C48053   2.386   4.270   8.563  0.0677  0.8706 -0.5726
  365MOL0     C48054   2.258   4.223   8.584 -0.8800  1.0837 -0.1026
  365MOL0     C48055   2.211   4.180   8.709 -0.4531 -0.5677  0.2822
  365MOL0     O48056   2.093   4.115   8.704 -0.0913  0.5541 -0.2498
  365MOL0     C48057   2.056   4.026   8.814 -0.9883 -0.9161 -1.4096
  365MOL0     C48058   1.965   3.910   8.788 -1.3775 -1.1908 -0.4503
  365MOL0     C48059   1.819   3.944   8.746 -0.1036  0.0953 -0.4829
  365MOL0     C48060   1.739   3.973   8.879 -0.2370 -0.0056  0.0950
  365MOL0     C48061   1.591   3.956   8.860 -0.3491  0.6673 -0.3974
  365MOL0     C48062   1.543   3.812   8.838  0.0577 -0.0570  0.4367
  365MOL0     C48063   1.391   3.808   8.853  1.0067 -0.5335  0.0811
  365MOL0     C48064   1.343   3.664   8.810 -1.1514  0.2816  0.3160
  365MOL0     N48065   1.199   3.644   8.800  0.2612 -0.6573 -0.5572
  365MOL0     C48066   1.119   3.549   8.859  0.1900  0.1194  0.6822
  365MOL0     C48067   0.989   3.568   8.821  0.7012  0.1827  0.0277
  365MOL0     C48068   0.882   3.476   8.856  0.0885  1.0124  0.5479
  365MOL0     C48069   0.741   3.536   8.834  0.2952 -0.2130 -0.2737
  365MOL0     C48070   0.629   3.437   8.865 -0.2266  0.8752  0.3396
  365MOL0     C48071   0.604   3.411   9.017  0.3655 -0.0805  0.1568
  365MOL0     O48072   0.485   3.335   9.036  0.2199 -0.9944  0.5643
  365MOL0     C48073   0.376   3.407   9.008  0.0405 -0.3695 -1.4790
  365MOL0     C48074   0.343   3.545   9.009 -0.5204  0.0196  0.0126
  365MOL0     C48075   0.213   3.593   8.969  1.2527  0.3741  0.5193
  365MOL0     C48076   0.103   3.508   8.944  0.0253 -0.1632 -0.8549
  365MOL0     C48077  -0.034   3.555   8.916 -0.5736 -0.4815  0.1698
  365MOL0     O48078  -0.119   3.463   8.856  0.5389  0.0513 -0.1657
  365MOL0     C48079  -0.237   3.518   8.804 -0.9032 -0.3305 -0.3707
  365MOL0     C48080  -0.224   3.616   8.699  0.4892 -0.2642 -0.5973
  365MOL0     C48081  -0.345   3.655   8.633 -0.6848 -0.5084 -0.2171
  365MOL0     C48082  -0.463   3.593   8.665 -0.2684 -0.8509 -0.6049
  365MOL0     O48083  -0.568   3.633   8.599  0.0710  0.0847  0.1417
  365MOL0     C48084  -0.703   3.609   8.660  0.2696 -0.6433  0.5613
  365MOL0     C48085  -0.804   3.699   8.575 -0.5276 -0.1693 -0.1645
  365MOL0     C48086  -0.953   3.656   8.595 -0.3567 -0.9644 -0.4180
  365MOL0     C48087  -1.049   3.742   8.512  0.7184  0.3697 -0.3466
  365MOL0     C48088  -1.197   3.703   8.527  0.4345 -0.3291 -0.1694
  365MOL0     C48089  -1.284   3.788   8.436 -0.4855 -0.4091  0.9161
  365MOL0     C48090  -1.425   3.737   8.458  0.1548 -0.1181 -0.1325
  365MOL0     C48091  -1.534   3.837   8.412 -0.0940 -0.6916 -0.2354
  365MOL0    Cl48092  -1.575   3.939   8.547  0.3677 -0.5254  0.4568
  365MOL0     C48093  -0.473   3.491   8.764 -1.4755 -1.0115  0.6208
  365MOL0     C48094  -0.358   3.454   8.830 -0.1808  0.3020 -0.2681
  365MOL0     O48095  -0.061   3.668   8.949 -0.0996  0.5165  0.2163
  365MOL0     C48096   0.146   3.369   8.949 -0.8849  1.1163 -0.9719
  365MOL0     C48097   0.271   3.318   8.976 -1.1718 -0.9454  0.5426
  365MOL0     N48098   0.993   3.680   8.748 -0.3222  0.1404 -0.3994
  365MOL0     N48099   1.110   3.723   8.737 -0.3193  0.1550 -0.3508
  365MOL0     C48100   2.300   4.185   8.812 -0.3551  0.2897  0.8658
  365MOL0     C48101   2.429   4.229   8.794  0.2904  0.0094  0.8378
  365MOL0     C48102   2.835   4.278   8.540  0.7917 -0.6212 -0.8900
  365MOL0     C48103   2.872   4.406   8.583 -0.6616 -0.1114  0.0780
  365MOL0     C48104   3.000   4.452   8.574 -0.1073  1.6425 -0.7785
  365MOL0     C48105   3.101   4.366   8.520 -0.3599  0.0618  1.2909
  365MOL0     O48106   3.228   4.425   8.509  0.7222 -0.3911  0.1735
  365MOL0     C48107   3.336   4.353   8.455  0.6473  0.0411 -0.8340
  365MOL0     C48108   3.449   4.446   8.420 -0.3075 -0.3038 -0.4977
  365MOL0     C48109   3.543   4.377   8.317  0.1043  0.0534 -0.4843
  365MOL0     C48110   3.655   4.467   8.269 -0.7960  0.2077  0.0722
  365MOL0     C48111   3.751   4.386   8.184  0.4655  0.0747  0.3605
  365MOL0     C48112   3.837   4.333   8.115  0.4608  0.2296  0.6514
  365MOL0     C48113   3.063   4.236   8.476 -0.4696  0.2414 -0.1634
  365MOL0     C48114   2.929   4.193   8.484  0.0700 -0.3495  0.7879
  365MOL0     H48115   2.425   4.304   8.467 -0.9577  2.1491 -0.5602
  365MOL0     H48116   2.182   4.231   8.507 -2.1256 -2.9819  0.4568
  365MOL0     H48117   2.034   4.091   8.900  0.0094 -1.4833 -0.6964
  365MOL0     H48118   2.148   3.976   8.844 -0.8539  0.0970 -0.0230
  365MOL0     H48119   1.967   3.841   8.872 -0.8129 -0.9385 -0.2517
  365MOL0     H48120   2.009   3.852   8.706 -0.4616  0.0339 -0.8516
  365MOL0     H48121   1.779   3.856   8.694 -2.8079  0.5987  0.5638
  365MOL0     H48122   1.812   4.023   8.672  1.7642  0.2380 -0.5475
  365MOL0     H48123   1.754   3.905   8.963 -0.8448 -1.7766 -1.1774
  365MOL0     H48124   1.767   4.076   8.904  2.3398  0.2065 -3.0405
  365MOL0     H48125   1.556   4.017   8.776 -3.8754 -1.5533 -0.7504
  365MOL0     H48126   1.540   4.003   8.945 -2.1125 -1.4202 -0.2174
  365MOL0     H48127   1.581   3.744   8.915 -2.5865  0.6891  2.5572
  365MOL0     H48128   1.576   3.775   8.741 -0.3345  0.0553  0.2556
  365MOL0     H48129   1.357   3.834   8.954  0.6210  2.3131 -0.6996
  365MOL0     H48130   1.352   3.875   8.777  1.9333  0.2559  0.2801
  365MOL0     H48131   1.389   3.589   8.875 -0.0249  1.8133  1.3533
  365MOL0     H48132   1.383   3.644   8.710  1.1857  2.3139  0.7647
  365MOL0     H48133   1.156   3.463   8.913  0.4458 -0.4471 -0.3653
  365MOL0     H48134   0.890   3.454   8.963  0.0855  2.6977  0.9159
  365MOL0     H48135   0.898   3.380   8.806  0.4120  1.1296  0.4206
  365MOL0     H48136   0.739   3.560   8.727  1.6895  1.3736  0.0054
  365MOL0     H48137   0.726   3.626   8.895  1.8117 -0.7906  1.0300
  365MOL0     H48138   0.547   3.488   8.811  1.4337  2.9638 -0.3566
  365MOL0     H48139   0.646   3.341   8.816 -0.1514 -0.2837  2.5188
  365MOL0     H48140   0.589   3.501   9.079 -4.4498 -1.5871  1.6243
  365MOL0     H48141   0.684   3.350   9.060 -0.7327  0.3056  2.9497
  365MOL0     H48142   0.410   3.622   9.043 -2.2504  0.5728  2.4419
  365MOL0     H48143   0.188   3.698   8.979 -1.7623 -0.4324  2.7679
  365MOL0     H48144  -0.122   3.652   8.682  0.9634  0.1782  2.5003
  365MOL0     H48145  -0.341   3.736   8.562 -0.0037  0.0254  0.4100
  365MOL0     H48146  -0.705   3.633   8.767 -2.1717  4.5774 -0.3328
  365MOL0     H48147  -0.748   3.510   8.653  1.8102 -1.3036 -0.3974
  365MOL0     H48148  -0.777   3.712   8.469  0.2737 -1.1817 -0.0990
  365MOL0     H48149  -0.800   3.802   8.612 -1.8647 -0.2501  0.2458
  365MOL0     H48150  -0.974   3.664   8.702  0.4586  0.5815 -0.3348
  365MOL0     H48151  -0.961   3.549   8.576 -1.2081 -0.8848 -0.5492
  365MOL0     H48152  -1.047   3.850   8.527 -1.4718  0.3084  0.8759
  365MOL0     H48153  -1.017   3.738   8.407  2.5794 -0.0564  0.1956
  365MOL0     H48154  -1.226   3.712   8.632 -3.0815  0.2251 -1.0786
  365MOL0     H48155  -1.199   3.600   8.493  2.4843 -0.3166 -0.4711
  365MOL0     H48156  -1.271   3.779   8.328  1.1801 -0.8905  1.1321
  365MOL0     H48157  -1.279   3.895   8.458 -3.0192 -0.4079  1.8740
  365MOL0     H48158  -1.447   3.638   8.417 -4.9133  1.2425 -1.4116
  365MOL0     H48159  -1.443   3.720   8.565  0.4419  0.9102  0.0918
  365MOL0     H48160  -1.630   3.787   8.401 -0.7243 -0.7928  4.0460
  365MOL0     H48161  -1.501   3.896   8.326  0.7957  0.2420  0.7171
  365MOL0     H48162  -0.567   3.439   8.781 -3.7373  1.2831 -3.2294
  365MOL0     H48163  -0.362   3.369   8.898 -1.1844 -0.2501 -0.9913
  365MOL0     H48164   0.071   3.291   8.937 -0.8081  1.2298 -2.4553
  365MOL0     H48165   0.275   3.210   8.966 -1.1320 -0.7444 -2.4517
  365MOL0     H48166   2.282   4.141   8.909  3.1986  1.7884  2.3963
  365MOL0     H48167   2.501   4.233   8.876  2.4449  2.5458 -1.0044
  365MOL0     H48168   2.810   4.481   8.630 -0.6810  2.0545 -3.1094
  365MOL0     H48169   3.025   4.548   8.618  1.9707  1.9957 -2.5556
  365MOL0     H48170   3.312   4.291   8.368  3.1415 -2.3559  0.0354
  365MOL0     H48171   3.374   4.273   8.519 -0.9241 -1.2819 -1.4935
  365MOL0     H48172   3.412   4.537   8.373 -2.8356  0.7910  3.1476
  365MOL0     H48173   3.495   4.475   8.515  0.9321 -2.9611 -0.1913
  365MOL0     H48174   3.499   4.336   8.225  0.5151 -2.0562  0.1907
  365MOL0     H48175   3.573   4.285   8.368 -0.0994 -0.2245 -0.8641
  365MOL0     H48176   3.622   4.556   8.215  3.3687  2.3414  0.5835
  365MOL0     H48177   3.711   4.499   8.358 -0.9840 -1.4250  0.8046
  365MOL0     H48178   3.912   4.292   8.051  2.1016  2.8103  0.7726
  365MOL0     H48179   3.137   4.162   8.444  0.7441  2.2467 -2.3518
  365MOL0     H48180   2.902   4.097   8.442 -3.5875  0.2540  1.4221
  366MOL0     O48181   7.414   4.865   6.176 -0.1150 -0.6151 -0.0845
  366MOL0     C48182   7.447   4.794   6.081 -0.3809  0.3831  0.4241
  366MOL0     O48183   7.377   4.773   5.964  0.6173  0.0344 -0.3127
  366MOL0     C48184   7.248   4.819   5.954 -0.4282  0.4639 -0.4181
  366MOL0     C48185   7.146   4.728   5.968  0.6918 -0.3718 -0.6024
  366MOL0     C48186   7.014   4.771   5.957  0.1127 -0.0911 -0.2601
  366MOL0     C48187   6.977   4.904   5.952  0.3598 -1.1117 -0.2279
  366MOL0     O48188   6.844   4.954   5.953 -0.0381  0.2218 -0.5391
  366MOL0     C48189   6.742   4.857   5.953 -0.4792 -0.7810  0.5040
  366MOL0     C48190   6.599   4.919   5.959 -0.2568 -0.0957  0.3514
  366MOL0     C48191   6.573   5.004   5.835 -0.9149  0.2235 -0.5228
  366MOL0     C48192   6.449   5.089   5.858 -0.0094 -0.3067 -0.1698
  366MOL0     C48193   6.408   5.160   5.726 -0.4674 -0.9791 -0.3191
  366MOL0     C48194   6.311   5.274   5.769  0.0984 -0.3100 -0.5252
  366MOL0     C48195   6.182   5.236   5.829  0.8813 -0.5110 -0.7937
  366MOL0     C48196   6.101   5.366   5.879 -0.3673 -0.0379  0.2953
  366MOL0     N48197   6.070   5.458   5.768  0.1995  0.9901 -0.5221
  366MOL0     C48198   6.152   5.561   5.728 -0.1949  0.1726  0.0710
  366MOL0     C48199   6.088   5.631   5.632 -1.1574  0.6352 -0.1952
  366MOL0     C48200   6.146   5.731   5.535  0.5229 -0.5933  0.7071
  366MOL0     C48201   6.069   5.866   5.551 -0.5845  0.5026  0.3734
  366MOL0     C48202   5.983   5.899   5.425 -0.1694 -0.3323 -0.6989
  366MOL0     C48203   5.946   6.048   5.415  0.8014 -0.7190 -0.1567
  366MOL0     O48204   5.833   6.067   5.515  0.3262  0.2801 -0.5837
  366MOL0     C48205   5.756   6.181   5.503 -0.0194 -0.0252  0.1107
  366MOL0     C48206   5.745   6.260   5.388  0.8323  0.0767  0.5125
  366MOL0     C48207   5.638   6.354   5.376 -0.0220 -0.0823 -0.6992
  366MOL0     C48208   5.554   6.388   5.487  0.4507  0.8401 -0.0820
  366MOL0     C48209   5.444   6.480   5.482 -0.1471 -0.0995 -0.4140
  366MOL0     O48210   5.358   6.492   5.590 -0.0569 -0.0969  0.4791
  366MOL0     C48211   5.223   6.529   5.566  0.6762  0.1610  0.4083
  366MOL0     C48212   5.151   6.519   5.444  0.5899 -0.1037 -0.0074
  366MOL0     C48213   5.012   6.550   5.433  0.5327 -0.2782 -0.5480
  366MOL0     C48214   4.948   6.613   5.537  0.3179 -0.2255  0.9349
  366MOL0     O48215   4.823   6.666   5.513  0.4279 -0.6663  0.0986
  366MOL0     C48216   4.729   6.681   5.621 -1.0175 -0.3590 -0.5018
  366MOL0     C48217   4.606   6.754   5.571 -0.8857 -0.1564 -0.9985
  366MOL0     C48218   4.524   6.665   5.481 -0.6847 -0.4319 -0.4251
  366MOL0     C48219   4.371   6.711   5.472 -1.0698  0.7412 -0.8966
  366MOL0     C48220   4.282   6.613   5.412 -0.0226  0.4759  0.2182
  366MOL0     C48221   4.129   6.663   5.413 -0.3096 -0.2385  0.4493
  366MOL0     C48222   4.086   6.755   5.295  0.0789 -0.0246 -0.2706
  366MOL0     C48223   3.937   6.756   5.267 -0.0116  0.0644 -0.4900
  366MOL0    Cl48224   3.896   6.840   5.122  0.0590  0.1162 -0.0574
  366MOL0     C48225   5.018   6.629   5.662  0.3110  0.4107 -0.8946
  366MOL0     C48226   5.155   6.589   5.676  0.1991  0.6820 -0.2833
  366MOL0     O48227   5.443   6.550   5.386  0.7881  0.4334  1.3663
  366MOL0     C48228   5.589   6.324   5.611 -0.0970 -0.3861 -0.5361
  366MOL0     C48229   5.684   6.220   5.616  0.3463 -0.7181 -1.0398
  366MOL0     N48230   5.961   5.576   5.616 -0.1341 -0.5639  0.1875
  366MOL0     N48231   5.952   5.473   5.694  1.0386  1.4569 -0.4274
  366MOL0     C48232   7.086   4.994   5.936  0.0912  0.2293 -0.4332
  366MOL0     C48233   7.221   4.955   5.934  0.1401  0.7433  0.6609
  366MOL0     C48234   7.586   4.740   6.089  0.5417  0.1926  0.2259
  366MOL0     C48235   7.657   4.756   6.202 -0.8383 -0.2085 -0.6662
  366MOL0     C48236   7.786   4.704   6.221 -0.8056  0.1491 -0.3716
  366MOL0     C48237   7.840   4.638   6.106 -0.2844 -0.2467 -0.2939
  366MOL0     O48238   7.961   4.588   6.108 -0.1105  0.0181 -0.0028
  366MOL0     C48239   7.951   4.441   6.107  0.5714 -0.2972  0.7956
  366MOL0     C48240   8.070   4.377   6.165  0.2593 -0.5530 -0.9446
  366MOL0     C48241   8.196   4.412   6.074  0.1450 -0.0956 -0.4225
  366MOL0     C48242   8.315   4.339   6.128  0.6170  0.2676  0.2602
  366MOL0     C48243   8.442   4.362   6.065 -0.2750  0.2876  0.1924
  366MOL0     C48244   8.551   4.386   6.013  0.4633 -0.6661  0.0213
  366MOL0     C48245   7.776   4.641   5.986 -0.6103 -0.6298  0.0621
  366MOL0     C48246   7.644   4.692   5.976  0.2906  0.3030  0.0010
  366MOL0     H48247   7.171   4.627   5.997  1.7846 -1.2921 -4.2006
  366MOL0     H48248   6.940   4.696   5.980  0.9350 -0.8623 -0.0732
  366MOL0     H48249   6.753   4.782   6.032  1.6038 -0.7066  0.3295
  366MOL0     H48250   6.741   4.814   5.852 -0.4238 -0.5747  0.4154
  366MOL0     H48251   6.600   4.979   6.050 -2.5069  0.1537  0.2593
  366MOL0     H48252   6.530   4.836   5.973  0.3305 -0.5559  0.5578
  366MOL0     H48253   6.566   4.935   5.750 -0.9446 -0.1551 -0.2169
  366MOL0     H48254   6.665   5.060   5.818 -1.9723  1.6895 -1.7344
  366MOL0     H48255   6.363   5.032   5.895 -1.3754  0.7932 -1.5275
  366MOL0     H48256   6.480   5.159   5.937  2.2922  2.6064 -3.3707
  366MOL0     H48257   6.351   5.096   5.658 -1.4861  1.8742 -2.3308
  366MOL0     H48258   6.497   5.201   5.677 -0.6924 -2.6134 -2.2445
  366MOL0     H48259   6.296   5.335   5.680 -1.2592 -0.0433 -0.1402
  366MOL0     H48260   6.376   5.331   5.836  1.6251 -0.4426 -1.8469
  366MOL0     H48261   6.120   5.165   5.773  1.0634 -3.4027  2.3374
  366MOL0     H48262   6.202   5.176   5.918  2.9831  1.4293  0.1338
  366MOL0     H48263   6.152   5.419   5.960 -0.2494 -0.3622  0.4336
  366MOL0     H48264   6.005   5.324   5.911 -0.5627 -0.6006 -0.9583
  366MOL0     H48265   6.255   5.580   5.757  0.3660 -1.2129 -0.9125
  366MOL0     H48266   6.136   5.695   5.432  1.1194  0.7369  0.1617
  366MOL0     H48267   6.253   5.750   5.545  0.1201  1.9383  0.7277
  366MOL0     H48268   6.146   5.941   5.568 -1.6275  1.3316  1.5957
  366MOL0     H48269   6.010   5.884   5.641  0.3133  4.8353  0.2773
  366MOL0     H48270   6.024   5.865   5.329  0.4908 -1.6318  0.0141
  366MOL0     H48271   5.886   5.848   5.437 -0.8177  1.4429  2.7579
  366MOL0     H48272   5.906   6.056   5.314 -0.2958 -3.0166  0.0230
  366MOL0     H48273   6.023   6.124   5.426 -2.3869  2.8662 -0.4765
  366MOL0     H48274   5.802   6.240   5.298 -1.2874 -1.7108 -0.5426
  366MOL0     H48275   5.619   6.399   5.279 -1.0618 -0.3269 -0.6200
  366MOL0     H48276   5.197   6.483   5.352  2.9509 -0.1786  1.1185
  366MOL0     H48277   4.958   6.552   5.339 -0.7917  1.7610  0.1817
  366MOL0     H48278   4.784   6.752   5.684 -0.5924  0.6173 -1.9208
  366MOL0     H48279   4.713   6.589   5.677  3.5075 -0.6889  0.6613
  366MOL0     H48280   4.627   6.847   5.518  0.7429  0.3807  0.5065
  366MOL0     H48281   4.544   6.781   5.657 -0.3689 -3.1481  0.4307
  366MOL0     H48282   4.525   6.559   5.509  0.9895 -0.1058  0.9116
  366MOL0     H48283   4.562   6.668   5.379 -3.5771  2.7998 -1.6110
  366MOL0     H48284   4.331   6.730   5.572  0.3118 -1.6203  0.1963
  366MOL0     H48285   4.365   6.810   5.425 -3.0377  2.0947  1.9182
  366MOL0     H48286   4.292   6.523   5.474 -0.2277  0.8300  0.7772
  366MOL0     H48287   4.312   6.598   5.308  0.4579 -1.1324  0.5713
  366MOL0     H48288   4.099   6.712   5.506 -1.1769  1.3266 -0.6224
  366MOL0     H48289   4.067   6.573   5.407 -0.6863 -0.1593  2.4234
  366MOL0     H48290   4.104   6.857   5.331 -1.5617 -0.0200  0.6294
  366MOL0     H48291   4.160   6.736   5.217  3.2250  0.8766  2.2256
  366MOL0     H48292   3.893   6.812   5.351  2.4707 -0.6861  1.4192
  366MOL0     H48293   3.897   6.655   5.282 -0.0123  0.3532  1.7885
  366MOL0     H48294   4.961   6.662   5.748  0.1033  0.4562 -1.0493
  366MOL0     H48295   5.204   6.598   5.772  0.9038  0.6575 -0.6362
  366MOL0     H48296   5.535   6.342   5.703 -1.1594  1.4118 -1.4762
  366MOL0     H48297   5.697   6.160   5.705 -0.7013  1.3549  0.6173
  366MOL0     H48298   7.068   5.100   5.919  0.2729  0.3125 -0.1190
  366MOL0     H48299   7.296   5.032   5.921  0.9517 -0.3863 -2.1198
  366MOL0     H48300   7.618   4.821   6.280  0.1198  0.3524 -0.6381
  366MOL0     H48301   7.840   4.709   6.315  0.5449  0.1794 -1.1248
  366MOL0     H48302   7.930   4.411   6.004 -0.7132  2.5081  0.1397
  366MOL0     H48303   7.867   4.404   6.167 -0.8785 -1.8752 -1.9894
  366MOL0     H48304   8.089   4.417   6.265 -2.0933 -4.7778  1.4436
  366MOL0     H48305   8.046   4.272   6.179  4.3565 -1.3460  1.5564
  366MOL0     H48306   8.212   4.520   6.064  0.4931 -0.0312  0.7125
  366MOL0     H48307   8.166   4.368   5.978  0.9534 -1.3975 -0.0972
  366MOL0     H48308   8.319   4.361   6.235 -2.8915  0.8810  0.3870
  366MOL0     H48309   8.298   4.231   6.124  2.9388 -0.1386 -0.9826
  366MOL0     H48310   8.648   4.404   5.971 -0.0230 -0.5479 -1.0990
  366MOL0     H48311   7.828   4.606   5.898  0.4971 -3.6782  1.7757
  366MOL0     H48312   7.588   4.700   5.884  1.6405  2.9425 -0.6697
  367MOL0     O48313   5.423   4.282   0.895  0.6543 -0.1090 -0.0844
  367MOL0     C48314   5.500   4.370   0.932 -0.4231  0.5992  0.6832
  367MOL0     O48315   5.529   4.409   1.062  0.5690 -0.4959 -0.7728
  367MOL0     C48316   5.437   4.361   1.145 -0.5736 -0.1762  0.6546
  367MOL0     C48317   5.474   4.297   1.265 -0.2019  0.0081  0.8693
  367MOL0     C48318   5.381   4.240   1.347 -0.3131  0.6301 -0.3161
  367MOL0     C48319   5.246   4.251   1.322  0.0327  0.2136 -1.0978
  367MOL0     O48320   5.160   4.227   1.427  0.2289 -0.3008  0.7127
  367MOL0     C48321   5.131   4.343   1.508 -0.9341  0.9226 -0.3769
  367MOL0     C48322   5.059   4.305   1.637 -0.1868 -0.5870  0.3270
  367MOL0     C48323   5.138   4.225   1.732 -0.5446  0.2060  0.8397
  367MOL0     C48324   5.147   4.071   1.706 -0.5536  0.5038  0.9024
  367MOL0     C48325   5.012   4.007   1.671  0.6738 -0.6336  0.2327
  367MOL0     C48326   5.021   3.862   1.703  0.0544  0.5491  0.4153
  367MOL0     C48327   4.881   3.784   1.712  0.2670 -0.0546  0.4136
  367MOL0     C48328   4.813   3.826   1.843  0.6359 -0.0455  0.4241
  367MOL0     N48329   4.707   3.726   1.866  0.0835 -0.6993 -0.0824
  367MOL0     C48330   4.598   3.706   1.787 -0.3434 -1.1038 -0.3099
  367MOL0     C48331   4.554   3.589   1.822 -0.0269  0.3213  0.3580
  367MOL0     C48332   4.453   3.508   1.755  0.2473 -0.2020 -1.0550
  367MOL0     C48333   4.310   3.574   1.762 -0.3094  0.3019 -0.5177
  367MOL0     C48334   4.217   3.506   1.660  0.1027 -0.3631  0.4629
  367MOL0     C48335   4.088   3.588   1.643 -0.2993 -0.6903  1.0058
  367MOL0     O48336   4.028   3.603   1.770  0.0889  0.4891 -0.0943
  367MOL0     C48337   3.955   3.503   1.831  0.7055  0.0486  1.1927
  367MOL0     C48338   3.913   3.523   1.965  0.0010  0.3288 -0.0096
  367MOL0     C48339   3.838   3.424   2.045 -0.1828 -0.2690  0.2021
  367MOL0     C48340   3.796   3.315   1.976  0.7438  1.0657 -0.0070
  367MOL0     C48341   3.715   3.216   2.049 -0.0266 -0.0410  1.1242
  367MOL0     O48342   3.735   3.203   2.183 -0.0868 -0.0329  0.7099
  367MOL0     C48343   3.644   3.118   2.249 -0.5372  0.2463  0.0019
  367MOL0     C48344   3.505   3.150   2.248  0.5276 -0.3224  0.3895
  367MOL0     C48345   3.420   3.074   2.328  0.3709 -0.3298  0.2263
  367MOL0     C48346   3.470   2.965   2.406 -0.5064 -0.1153  0.1564
  367MOL0     O48347   3.406   2.875   2.496 -0.3664 -0.3699  0.0680
  367MOL0     C48348   3.267   2.913   2.522  0.1471  0.0395 -0.2877
  367MOL0     C48349   3.220   2.837   2.640  0.2910 -0.1759  0.8033
  367MOL0     C48350   3.078   2.777   2.618  0.4729 -1.1009 -0.3279
  367MOL0     C48351   2.968   2.889   2.615 -0.6305 -0.6438 -0.8133
  367MOL0     C48352   2.833   2.847   2.653 -0.0205 -0.2490  0.0342
  367MOL0     C48353   2.737   2.967   2.650  0.2247 -0.3654  0.2639
  367MOL0     C48354   2.590   2.946   2.690 -0.3914  1.4464  0.2779
  367MOL0     C48355   2.515   2.840   2.606  0.2351  0.2409 -0.6651
  367MOL0    Cl48356   2.554   2.668   2.668 -0.4880 -0.0467  0.3090
  367MOL0     C48357   3.603   2.931   2.385  0.5024  1.0114  0.0463
  367MOL0     C48358   3.693   3.018   2.324 -0.5439  0.3464  0.0138
  367MOL0     O48359   3.626   3.162   1.978 -0.4147 -0.2171  0.0706
  367MOL0     C48360   3.829   3.295   1.838 -0.6668  0.1282 -0.6024
  367MOL0     C48361   3.909   3.380   1.759 -0.5650  0.5544  0.4836
  367MOL0     N48362   4.635   3.542   1.927  0.3966  0.3914 -0.3339
  367MOL0     N48363   4.734   3.626   1.946  0.2881  0.1725 -0.6713
  367MOL0     C48364   5.205   4.312   1.212 -0.1004 -0.0369  0.2158
  367MOL0     C48365   5.300   4.371   1.125  0.1151  0.3659  0.4976
  367MOL0     C48366   5.572   4.444   0.829  0.6041 -0.2933 -0.2267
  367MOL0     C48367   5.689   4.519   0.860  0.0408  0.0031 -0.4500
  367MOL0     C48368   5.758   4.592   0.766 -0.0507  0.2465 -0.2289
  367MOL0     C48369   5.725   4.604   0.629 -0.6647  0.6963  0.1753
  367MOL0     O48370   5.818   4.678   0.556  0.6477  0.5080  0.1855
  367MOL0     C48371   5.791   4.711   0.418  0.6431  0.2646 -0.1848
  367MOL0     C48372   5.912   4.714   0.328 -0.8373 -0.5588 -0.0611
  367MOL0     C48373   6.016   4.812   0.378 -0.2365 -0.0968 -2.0671
  367MOL0     C48374   6.147   4.820   0.295 -0.1253 -0.1528  0.0874
  367MOL0     C48375   6.124   4.898   0.169  0.3681  0.2962  0.1547
  367MOL0     C48376   6.115   4.967   0.069 -0.4808  0.3595  0.5852
  367MOL0     C48377   5.615   4.535   0.600  0.3566  0.2214  0.8697
  367MOL0     C48378   5.542   4.457   0.689  0.8731  0.3216  0.3835
  367MOL0     H48379   5.579   4.298   1.293 -0.2848  2.1057  1.2358
  367MOL0     H48380   5.405   4.211   1.449 -0.5662  0.4748 -0.2988
  367MOL0     H48381   5.066   4.414   1.454  1.6707  2.2916 -1.9451
  367MOL0     H48382   5.227   4.389   1.533  0.3231  0.2182 -3.4239
  367MOL0     H48383   4.968   4.253   1.605 -0.8575  1.4072 -1.2732
  367MOL0     H48384   5.028   4.397   1.689 -0.2631 -0.8928  0.8303
  367MOL0     H48385   5.087   4.240   1.828 -1.7909 -1.7686  0.5367
  367MOL0     H48386   5.241   4.261   1.746 -0.1057 -0.9125  0.6134
  367MOL0     H48387   5.217   4.051   1.625 -2.9983 -3.0179 -0.6306
  367MOL0     H48388   5.183   4.028   1.800 -1.1648 -1.7547  0.1640
  367MOL0     H48389   4.982   4.027   1.568 -3.3853  0.5985  1.4632
  367MOL0     H48390   4.932   4.049   1.734  0.8318  0.6058 -0.3577
  367MOL0     H48391   5.071   3.838   1.797  1.1723  0.1732 -0.2595
  367MOL0     H48392   5.082   3.824   1.621 -1.0852  0.2399 -0.3151
  367MOL0     H48393   4.812   3.788   1.628 -0.7674  1.7991  1.2796
  367MOL0     H48394   4.908   3.680   1.733  2.7016  0.2239 -0.9481
  367MOL0     H48395   4.773   3.927   1.832 -0.0290 -0.2651  0.7925
  367MOL0     H48396   4.891   3.822   1.920  0.4109 -3.1451  0.6366
  367MOL0     H48397   4.570   3.783   1.716  0.8149  0.3215  0.7362
  367MOL0     H48398   4.447   3.402   1.779  2.0371 -0.4108 -1.3976
  367MOL0     H48399   4.473   3.514   1.648 -1.1221  0.0932 -1.3227
  367MOL0     H48400   4.325   3.681   1.744 -3.0942  1.9845  4.9506
  367MOL0     H48401   4.276   3.566   1.865  1.7508 -0.7895  0.1411
  367MOL0     H48402   4.271   3.499   1.566  1.5596 -1.0546  1.3166
  367MOL0     H48403   4.180   3.406   1.686  0.3213 -0.9820 -1.5111
  367MOL0     H48404   4.025   3.535   1.572 -1.0012  0.2608  0.9133
  367MOL0     H48405   4.108   3.681   1.589  0.2877 -0.7279  1.1516
  367MOL0     H48406   3.954   3.614   2.009  0.7421  0.6573 -1.3218
  367MOL0     H48407   3.817   3.443   2.150  1.8234 -0.5171  0.6819
  367MOL0     H48408   3.464   3.240   2.204  0.7290 -0.6062 -0.3834
  367MOL0     H48409   3.315   3.101   2.330  0.7386  1.1512  0.5001
  367MOL0     H48410   3.207   2.880   2.437  1.8181 -0.5015 -1.3164
  367MOL0     H48411   3.250   3.021   2.529  1.3524  0.1565  2.0871
  367MOL0     H48412   3.233   2.889   2.735 -0.8969 -1.0220  1.4656
  367MOL0     H48413   3.293   2.755   2.648  0.0115 -0.2929  2.3756
  367MOL0     H48414   3.050   2.702   2.692 -1.9617  1.7026  1.8680
  367MOL0     H48415   3.072   2.730   2.520  0.9343  1.7718 -1.8532
  367MOL0     H48416   2.995   2.975   2.676 -1.1955 -0.8099 -0.3201
  367MOL0     H48417   2.969   2.933   2.515 -1.2562  2.9421  0.5950
  367MOL0     H48418   2.827   2.795   2.749 -0.4310 -2.4870 -1.1399
  367MOL0     H48419   2.790   2.775   2.584 -1.2319  0.3178  0.1673
  367MOL0     H48420   2.724   3.009   2.550 -1.2785  1.5198  1.1844
  367MOL0     H48421   2.780   3.048   2.709  1.0655  0.7640 -1.7943
  367MOL0     H48422   2.577   2.911   2.792  0.7323 -2.8063 -0.8451
  367MOL0     H48423   2.545   3.045   2.681 -4.3228 -0.2142 -0.3168
  367MOL0     H48424   2.549   2.846   2.503  1.5625  1.2552 -0.2017
  367MOL0     H48425   2.408   2.863   2.601  0.1837 -0.1699 -1.6604
  367MOL0     H48426   3.626   2.839   2.438 -2.2506  0.0654 -0.2094
  367MOL0     H48427   3.798   2.994   2.340 -0.1380  0.9641 -1.4790
  367MOL0     H48428   3.782   3.209   1.792 -3.4683  1.7404 -0.9525
  367MOL0     H48429   3.937   3.371   1.654  3.4727  1.1418  1.3405
  367MOL0     H48430   5.098   4.318   1.194 -0.0101 -0.5853 -0.5329
  367MOL0     H48431   5.269   4.421   1.033  1.8046 -0.5089 -0.6221
  367MOL0     H48432   5.732   4.531   0.959  2.4746 -0.7402 -1.3382
  367MOL0     H48433   5.843   4.643   0.811  1.4519 -3.9586  2.3538
  367MOL0     H48434   5.765   4.817   0.420  1.9580  0.6118 -0.4861
  367MOL0     H48435   5.708   4.650   0.381  0.6488  1.3422 -2.0744
  367MOL0     H48436   5.954   4.614   0.316  2.9682  0.8990 -0.1533
  367MOL0     H48437   5.884   4.739   0.225  0.3349  1.8613  0.1448
  367MOL0     H48438   6.040   4.779   0.480  0.6906  2.1399 -1.5071
  367MOL0     H48439   5.965   4.908   0.366 -1.3450 -0.4552 -0.5432
  367MOL0     H48440   6.212   4.883   0.356 -0.2758  1.8580 -1.7041
  367MOL0     H48441   6.188   4.720   0.275 -2.8431 -1.4171  0.3806
  367MOL0     H48442   6.123   5.029  -0.018  0.7284 -0.3854  0.1371
  367MOL0     H48443   5.565   4.533   0.504 -4.5321 -2.4666  3.0572
  367MOL0     H48444   5.456   4.403   0.650  1.5510 -2.1985  2.1224
  368MOL0     O48445  10.063   7.400   1.201 -0.4304 -0.3414 -0.3937
  368MOL0     C48446  10.032   7.427   1.078  0.9729  0.3628 -0.5261
  368MOL0     O48447  10.102   7.407   0.965 -0.2530  0.0212 -0.1720
  368MOL0     C48448  10.224   7.354   0.973 -0.2760  0.4563 -0.6508
  368MOL0     C48449  10.331   7.428   1.023 -0.2721  0.8048  0.2072
  368MOL0     C48450  10.453   7.361   1.035  0.5995 -0.2539 -0.2104
  368MOL0     C48451  10.474   7.225   1.006  0.1063 -0.1069 -0.2218
  368MOL0     O48452  10.594   7.153   1.023  0.9206  0.1074 -0.2904
  368MOL0     C48453  10.711   7.226   1.069  0.1278 -0.4145 -0.1995
  368MOL0     C48454  10.825   7.133   1.113 -0.2248 -0.0483  0.1194
  368MOL0     C48455  10.860   7.032   1.002 -0.6613  0.0440 -0.2593
  368MOL0     C48456  10.988   6.961   1.038 -1.2605 -0.9524 -0.5193
  368MOL0     C48457  11.117   7.054   1.013 -0.9992 -0.2260 -0.1767
  368MOL0     C48458  11.248   6.975   0.992 -0.2813  0.0360  0.3671
  368MOL0     C48459  11.290   6.880   1.108 -0.6459  0.3781  0.3805
  368MOL0     C48460  11.373   6.953   1.222  1.4364 -0.9820  0.0216
  368MOL0     N48461  11.271   6.999   1.321  0.0032  0.2800  0.0653
  368MOL0     C48462  11.212   6.904   1.401 -0.0613 -0.3039 -0.3502
  368MOL0     C48463  11.125   6.978   1.478  0.3217  1.1817 -0.4734
  368MOL0     C48464  11.046   6.912   1.589  0.0555  0.1091 -0.3950
  368MOL0     C48465  10.925   6.995   1.626 -0.6964  1.0610  0.1926
  368MOL0     C48466  10.821   7.011   1.511 -0.5349  0.6526 -0.0402
  368MOL0     C48467  10.678   6.979   1.545  0.2827 -0.2541  0.5437
  368MOL0     O48468  10.605   7.018   1.430 -0.6397  0.0029 -0.1679
  368MOL0     C48469  10.468   7.030   1.441 -0.0340  0.5432 -0.5485
  368MOL0     C48470  10.388   7.048   1.550  0.1557 -0.5248  0.0561
  368MOL0     C48471  10.258   7.082   1.549  0.6030  0.5125 -0.4503
  368MOL0     C48472  10.202   7.121   1.424 -0.6078  0.3338 -0.1419
  368MOL0     C48473  10.062   7.159   1.409 -0.1000  0.0454 -0.1844
  368MOL0     O48474  10.003   7.113   1.293 -0.0198  0.2362 -0.5573
  368MOL0     C48475   9.868   7.114   1.278  0.3460  0.0400 -0.6041
  368MOL0     C48476   9.816   7.140   1.156  0.0795 -0.5356  0.4101
  368MOL0     C48477   9.680   7.143   1.126 -0.4818  0.5421  0.3681
  368MOL0     C48478   9.580   7.117   1.224  0.6574  0.4464 -0.4932
  368MOL0     O48479   9.454   7.141   1.185 -0.1355  0.1061  0.2220
  368MOL0     C48480   9.357   7.133   1.284  0.2996  0.6616 -0.0147
  368MOL0     C48481   9.217   7.171   1.237 -0.2991 -0.6946 -0.9672
  368MOL0     C48482   9.157   7.078   1.133  0.1663  0.2704 -0.1762
  368MOL0     C48483   9.012   7.094   1.109 -0.4846  0.0195 -0.7632
  368MOL0     C48484   8.954   7.009   1.000 -0.2958  0.3939  0.1800
  368MOL0     C48485   8.791   6.994   1.004 -0.0523 -0.3276  0.0829
  368MOL0     C48486   8.747   6.849   1.051  0.6331  0.6010  1.2921
  368MOL0     C48487   8.728   6.758   0.927 -0.9679 -0.2095  0.8201
  368MOL0    Cl48488   8.586   6.801   0.824 -0.1435  0.3961  0.2829
  368MOL0     C48489   9.627   7.089   1.352  0.1909 -0.5612  0.6889
  368MOL0     C48490   9.764   7.086   1.382 -0.8652  0.6939  0.7964
  368MOL0     O48491  10.004   7.206   1.506 -0.2577  0.0201 -0.1367
  368MOL0     C48492  10.290   7.122   1.311 -0.2130  0.2425  0.0660
  368MOL0     C48493  10.419   7.063   1.319 -1.1525  0.4799  0.1040
  368MOL0     N48494  11.130   7.116   1.436  0.4993 -0.1215  0.1219
  368MOL0     N48495  11.224   7.127   1.349 -0.4103  0.8804 -0.5874
  368MOL0     C48496  10.359   7.149   0.959 -0.3900 -0.4070 -0.1602
  368MOL0     C48497  10.240   7.224   0.941  0.2372 -0.2146  0.1703
  368MOL0     C48498   9.888   7.477   1.054  0.6821  0.4336 -0.4144
  368MOL0     C48499   9.805   7.502   1.162 -0.3351 -0.2295  0.3831
  368MOL0     C48500   9.670   7.524   1.141 -0.6468  0.1555  0.0664
  368MOL0     C48501   9.613   7.524   1.007 -0.0605 -0.7056 -0.0246
  368MOL0     O48502   9.481   7.562   0.980 -0.7022  0.1293  0.2054
  368MOL0     C48503   9.372   7.530   1.063 -0.0275 -0.6150 -0.2118
  368MOL0     C48504   9.306   7.656   1.124 -1.0892 -0.1694 -0.5691
  368MOL0     C48505   9.176   7.703   1.049  0.2862  0.4180 -0.1625
  368MOL0     C48506   9.055   7.604   1.048 -0.1537  0.0901  0.4158
  368MOL0     C48507   8.936   7.658   0.989  0.3966  0.6955  0.1141
  368MOL0     C48508   8.836   7.685   0.926  0.5826 -0.6177 -0.8227
  368MOL0     C48509   9.703   7.520   0.898 -0.1610 -1.0519 -0.4962
  368MOL0     C48510   9.840   7.490   0.922  0.1604  0.2601  0.9797
  368MOL0     H48511  10.336   7.532   1.052 -1.9178  1.6359 -2.1715
  368MOL0     H48512  10.533   7.423   1.074  0.2448  0.1961 -0.1983
  368MOL0     H48513  10.690   7.304   1.143  0.5145 -0.8840  0.4188
  368MOL0     H48514  10.753   7.269   0.978  0.1997 -0.4251 -0.1720
  368MOL0     H48515  10.787   7.077   1.199  1.2044 -2.2443 -0.5966
  368MOL0     H48516  10.917   7.180   1.148 -0.7699  0.1898  1.2654
  368MOL0     H48517  10.854   7.084   0.906  1.2061 -0.0168 -0.4380
  368MOL0     H48518  10.782   6.956   0.993 -0.8873  0.3314 -0.7418
  368MOL0     H48519  10.968   6.928   1.141 -2.3529  1.4407  0.1087
  368MOL0     H48520  11.004   6.873   0.975  5.6647  0.3414 -1.3236
  368MOL0     H48521  11.129   7.128   1.093 -2.5085 -0.8840  0.7026
  368MOL0     H48522  11.091   7.106   0.920  0.0593  1.7485  0.5768
  368MOL0     H48523  11.332   7.044   0.975  0.1865 -1.0661 -2.2658
  368MOL0     H48524  11.238   6.918   0.900 -1.7010  2.3411 -1.0143
  368MOL0     H48525  11.198   6.836   1.148  0.1188 -0.5843  1.1450
  368MOL0     H48526  11.349   6.796   1.070  3.4686  2.0516  2.4368
  368MOL0     H48527  11.419   7.037   1.170 -0.1272 -1.2576 -1.9058
  368MOL0     H48528  11.449   6.882   1.255  0.2402 -1.2169  2.5290
  368MOL0     H48529  11.246   6.801   1.405  0.9141 -0.0207 -0.9540
  368MOL0     H48530  11.109   6.893   1.676 -1.8647 -1.6079  0.6819
  368MOL0     H48531  11.018   6.813   1.554  0.9961  0.1868 -1.4146
  368MOL0     H48532  10.956   7.091   1.669  0.0975  0.5259  0.8491
  368MOL0     H48533  10.876   6.942   1.707 -2.4593  1.2499 -0.7074
  368MOL0     H48534  10.823   7.113   1.472 -0.5377  0.7972  0.3294
  368MOL0     H48535  10.855   6.953   1.425 -0.1548  1.0107 -0.1363
  368MOL0     H48536  10.646   7.042   1.628 -1.3917 -0.0482 -0.2161
  368MOL0     H48537  10.669   6.872   1.565 -0.6496 -0.3413 -0.2606
  368MOL0     H48538  10.432   7.033   1.648 -0.7254  0.9703  0.7258
  368MOL0     H48539  10.202   7.084   1.642  2.0646 -3.5108  0.7245
  368MOL0     H48540   9.882   7.153   1.070 -2.5439  2.7033 -1.3321
  368MOL0     H48541   9.657   7.158   1.021  1.3411 -0.2118 -0.1940
  368MOL0     H48542   9.398   7.207   1.354  1.0379  1.3691 -1.1777
  368MOL0     H48543   9.358   7.037   1.337  3.0920  0.4095 -0.3850
  368MOL0     H48544   9.203   7.274   1.203 -1.3881  0.1191  1.6773
  368MOL0     H48545   9.154   7.163   1.326 -0.8166 -4.2486 -1.4857
  368MOL0     H48546   9.168   6.978   1.177  0.4964  0.7851  0.9398
  368MOL0     H48547   9.221   7.099   1.047  1.4148  0.1014  0.6897
  368MOL0     H48548   8.952   7.090   1.200 -0.7679  0.6556 -0.9169
  368MOL0     H48549   8.995   7.196   1.073 -1.6944  0.1119  0.0127
  368MOL0     H48550   9.015   6.918   0.998  1.3071  1.4235 -1.6871
  368MOL0     H48551   8.980   7.050   0.902 -0.2832  0.9870  0.4289
  368MOL0     H48552   8.747   7.022   0.907  1.0742 -0.4909 -0.4926
  368MOL0     H48553   8.745   7.070   1.069 -4.5947 -3.1214  0.6205
  368MOL0     H48554   8.823   6.808   1.119 -0.5220  0.3553  2.4810
  368MOL0     H48555   8.652   6.853   1.104 -1.0731  0.4878 -1.5954
  368MOL0     H48556   8.727   6.651   0.949 -0.8922 -1.1106 -2.9854
  368MOL0     H48557   8.817   6.781   0.867 -1.6849  3.8987  1.0149
  368MOL0     H48558   9.562   7.062   1.435 -0.4193 -1.5703 -0.1018
  368MOL0     H48559   9.812   7.057   1.475  0.4800  1.8498  0.4992
  368MOL0     H48560  10.254   7.159   1.216 -2.2041 -1.4038  0.1084
  368MOL0     H48561  10.483   7.057   1.231 -1.5213  0.5428 -0.1742
  368MOL0     H48562  10.357   7.041   0.949 -1.1422 -0.4662  0.5475
  368MOL0     H48563  10.150   7.174   0.907 -0.4095 -0.1803  1.7469
  368MOL0     H48564   9.842   7.490   1.263 -0.1410 -2.3178  0.1169
  368MOL0     H48565   9.605   7.551   1.224 -1.3295  0.1352 -0.4558
  368MOL0     H48566   9.416   7.472   1.144  1.9435  0.4985 -0.4402
  368MOL0     H48567   9.299   7.469   1.009  0.3154  1.6261 -3.5048
  368MOL0     H48568   9.281   7.630   1.227 -1.4051  2.1826 -0.0058
  368MOL0     H48569   9.371   7.744   1.127 -0.9594 -0.2842  2.1210
  368MOL0     H48570   9.196   7.743   0.949 -2.1499  2.0160 -0.0916
  368MOL0     H48571   9.151   7.793   1.105  0.4580  1.1178 -1.1890
  368MOL0     H48572   9.073   7.511   0.994 -1.4120  0.2493 -0.3277
  368MOL0     H48573   9.036   7.582   1.154  2.1575 -0.0055  0.8656
  368MOL0     H48574   8.750   7.721   0.872  1.5477  1.1243 -1.3047
  368MOL0     H48575   9.668   7.528   0.796 -3.9483 -0.1862  0.6984
  368MOL0     H48576   9.908   7.473   0.839 -1.8001 -0.4487 -0.5796
  369MOL0     O48577   7.593   8.402   6.633  0.1657 -0.1752  0.4715
  369MOL0     C48578   7.589   8.304   6.564 -0.0507  0.4598 -0.1280
  369MOL0     O48579   7.698   8.234   6.514 -0.3303 -0.1127 -0.5728
  369MOL0     C48580   7.825   8.258   6.564 -0.1485  0.7983  0.8509
  369MOL0     C48581   7.877   8.176   6.663  0.8505  0.3907 -0.2899
  369MOL0     C48582   8.000   8.197   6.720 -0.4559  0.7190 -0.0107
  369MOL0     C48583   8.081   8.301   6.672  0.2067 -0.4451  0.0273
  369MOL0     O48584   8.198   8.360   6.730  0.6882 -0.0451  0.1570
  369MOL0     C48585   8.271   8.291   6.825 -0.0648  0.3319  0.8411
  369MOL0     C48586   8.342   8.174   6.756 -0.2583 -0.4916 -0.3129
  369MOL0     C48587   8.423   8.212   6.628  1.2096 -0.0966  0.0225
  369MOL0     C48588   8.542   8.294   6.663 -0.6149 -0.5972 -0.1567
  369MOL0     C48589   8.622   8.337   6.528  1.5227  0.0845 -0.2405
  369MOL0     C48590   8.736   8.426   6.545 -0.7601  0.2504 -0.5457
  369MOL0     C48591   8.854   8.382   6.647  0.9395 -0.7994  0.7055
  369MOL0     C48592   8.921   8.243   6.620 -0.0367 -0.2307 -0.9586
  369MOL0     N48593   9.021   8.202   6.715 -0.3375 -0.1208 -0.3862
  369MOL0     C48594   9.146   8.255   6.722 -0.1779 -0.3284  0.2507
  369MOL0     C48595   9.208   8.208   6.829  0.3357  0.6254  0.2041
  369MOL0     C48596   9.336   8.262   6.881 -0.4076  0.2109 -0.4774
  369MOL0     C48597   9.308   8.405   6.932  0.2057 -0.2501  0.1472
  369MOL0     C48598   9.198   8.412   7.034 -0.6412  0.5382  0.1583
  369MOL0     C48599   9.204   8.311   7.148 -0.1273  0.2116 -0.3027
  369MOL0     O48600   9.122   8.342   7.258  0.8380  0.0027  0.0674
  369MOL0     C48601   8.983   8.341   7.244  0.3379  0.6631  0.0579
  369MOL0     C48602   8.914   8.252   7.156 -0.1257  1.1073  0.2258
  369MOL0     C48603   8.776   8.272   7.124 -0.8242 -0.4503  0.5240
  369MOL0     C48604   8.708   8.389   7.178  0.0716 -0.0603 -0.6224
  369MOL0     C48605   8.565   8.422   7.154 -0.0772 -0.1350  0.3602
  369MOL0     O48606   8.512   8.533   7.215  0.5932  1.0376 -0.8082
  369MOL0     C48607   8.381   8.559   7.176 -0.3397  0.3447 -0.6824
  369MOL0     C48608   8.357   8.665   7.093 -0.6990  0.6434 -0.7814
  369MOL0     C48609   8.236   8.708   7.051 -0.2414  0.4543 -0.3005
  369MOL0     C48610   8.122   8.639   7.098 -1.3750  0.3378 -0.1836
  369MOL0     O48611   8.000   8.689   7.074  0.5146  0.4480  0.0908
  369MOL0     C48612   7.949   8.617   6.963 -0.3775 -0.6261  0.5631
  369MOL0     C48613   7.801   8.623   6.974 -0.5884 -0.0068  0.0257
  369MOL0     C48614   7.751   8.770   6.963  0.3555  0.0316  0.1673
  369MOL0     C48615   7.647   8.806   7.061 -0.0785  0.5276  0.4087
  369MOL0     C48616   7.519   8.727   7.039  0.7072  0.0857  0.1848
  369MOL0     C48617   7.468   8.737   6.885  1.0011  0.4538  0.2796
  369MOL0     C48618   7.332   8.674   6.878 -0.2856 -0.3942  0.6829
  369MOL0     C48619   7.292   8.659   6.729 -0.4879  0.2278  0.2400
  369MOL0    Cl48620   7.121   8.597   6.728  0.0372 -0.6199 -0.3057
  369MOL0     C48621   8.132   8.529   7.189  0.0607  0.3757  0.1599
  369MOL0     C48622   8.262   8.490   7.229 -0.1859  0.4152  0.2051
  369MOL0     O48623   8.510   8.331   7.091  0.0389 -0.3022  0.0529
  369MOL0     C48624   8.773   8.467   7.270  0.6309  0.6135 -0.0782
  369MOL0     C48625   8.904   8.438   7.304  0.2807 -0.0564 -0.5915
  369MOL0     N48626   9.126   8.103   6.868 -0.0931  0.1079 -0.7810
  369MOL0     N48627   9.009   8.101   6.806  0.2469 -1.1498 -0.3711
  369MOL0     C48628   8.024   8.380   6.563 -0.6848  0.3383  0.1606
  369MOL0     C48629   7.895   8.360   6.510  0.0268  0.7136 -0.3646
  369MOL0     C48630   7.461   8.271   6.503  0.1823  0.2187  0.0754
  369MOL0     C48631   7.448   8.183   6.396 -0.1910  0.8638 -0.4206
  369MOL0     C48632   7.324   8.156   6.345  0.0185  0.4084  0.1781
  369MOL0     C48633   7.203   8.202   6.401  0.5345  0.3596 -0.8260
  369MOL0     O48634   7.077   8.172   6.352 -0.1228 -0.7175 -0.1234
  369MOL0     C48635   7.061   8.081   6.244  0.4041 -0.5895  0.9654
  369MOL0     C48636   6.913   8.048   6.223 -0.5211 -0.2800  0.5363
  369MOL0     C48637   6.842   7.999   6.347 -0.3623 -0.3869 -0.4794
  369MOL0     C48638   6.703   7.960   6.306 -0.4086 -0.1287  0.1352
  369MOL0     C48639   6.639   7.873   6.409 -0.2047  0.0859 -0.3395
  369MOL0     C48640   6.575   7.802   6.479  0.6709 -0.5167  1.1638
  369MOL0     C48641   7.213   8.279   6.510  0.0656 -0.4993 -0.0455
  369MOL0     C48642   7.341   8.316   6.561 -0.8957  0.7116 -0.6239
  369MOL0     H48643   7.810   8.100   6.702  0.3929  0.1254 -1.5522
  369MOL0     H48644   8.039   8.137   6.802 -0.2268  0.8887  0.0070
  369MOL0     H48645   8.206   8.262   6.908 -1.6150  3.5822  0.8749
  369MOL0     H48646   8.347   8.352   6.875  1.2263 -2.6420  2.8298
  369MOL0     H48647   8.272   8.092   6.736 -1.2338 -0.3811  2.2855
  369MOL0     H48648   8.412   8.126   6.826  0.9890 -1.0255 -1.8786
  369MOL0     H48649   8.360   8.260   6.552  0.5316 -2.8877 -1.3059
  369MOL0     H48650   8.437   8.117   6.576 -0.9163  0.3827 -1.5632
  369MOL0     H48651   8.512   8.380   6.724 -1.0909 -0.2648 -0.8377
  369MOL0     H48652   8.627   8.241   6.707  0.8744 -0.4145 -2.5814
  369MOL0     H48653   8.542   8.373   6.462 -0.2020  0.1037  1.7636
  369MOL0     H48654   8.674   8.253   6.482  3.1183  1.7878 -1.7331
  369MOL0     H48655   8.697   8.525   6.569  0.8169  1.1893 -1.6287
  369MOL0     H48656   8.763   8.443   6.440 -2.9954 -0.1606 -1.2560
  369MOL0     H48657   8.944   8.443   6.642 -0.0969  0.8008  1.0684
  369MOL0     H48658   8.822   8.402   6.750  1.8384  2.9949  0.3676
  369MOL0     H48659   8.957   8.237   6.517 -1.2185 -1.5587 -1.3311
  369MOL0     H48660   8.837   8.174   6.635 -3.4440  3.7048 -0.1808
  369MOL0     H48661   9.183   8.341   6.667  0.2205  0.3688  1.5535
  369MOL0     H48662   9.410   8.272   6.801  0.8591  4.2998  0.9527
  369MOL0     H48663   9.385   8.192   6.949  2.3079  0.5274 -1.9444
  369MOL0     H48664   9.284   8.476   6.852  1.6284 -0.6195 -0.6311
  369MOL0     H48665   9.397   8.447   6.978  1.8346 -3.5061  0.2548
  369MOL0     H48666   9.197   8.518   7.060 -0.4288  0.4999  0.3244
  369MOL0     H48667   9.108   8.392   6.975 -0.3276 -0.6301  0.0369
  369MOL0     H48668   9.306   8.307   7.186  0.7155  3.2914 -1.9232
  369MOL0     H48669   9.194   8.207   7.114  0.8436  0.1728 -0.4936
  369MOL0     H48670   8.962   8.162   7.119 -1.0214  0.0972  1.4569
  369MOL0     H48671   8.722   8.216   7.048 -1.2945  1.7717 -0.8679
  369MOL0     H48672   8.436   8.722   7.045  0.9165  1.1085  2.2086
  369MOL0     H48673   8.223   8.807   7.007 -0.6951  0.3914 -0.3095
  369MOL0     H48674   7.990   8.517   6.946  2.5677  0.7124 -0.8550
  369MOL0     H48675   7.975   8.661   6.867 -0.0880 -1.5931  0.1849
  369MOL0     H48676   7.769   8.586   7.071  0.5555  0.7495  0.7154
  369MOL0     H48677   7.759   8.566   6.890 -2.0663  1.0426  0.0153
  369MOL0     H48678   7.725   8.801   6.861 -0.9277  1.2378  0.8230
  369MOL0     H48679   7.830   8.841   6.989 -0.5456  0.2432  2.5657
  369MOL0     H48680   7.694   8.778   7.155  0.2053  0.1474  0.1577
  369MOL0     H48681   7.628   8.912   7.038  0.9097  0.9612  1.5169
  369MOL0     H48682   7.445   8.758   7.113  0.0492 -0.3578 -0.2722
  369MOL0     H48683   7.548   8.627   7.073  0.1698  0.3868  1.5803
  369MOL0     H48684   7.543   8.687   6.823  0.5312  1.1354 -0.8570
  369MOL0     H48685   7.467   8.843   6.859 -0.9649  0.1501 -1.0519
  369MOL0     H48686   7.335   8.582   6.937 -0.8489 -0.2562  0.9343
  369MOL0     H48687   7.258   8.738   6.927  1.4430  0.3739  2.4100
  369MOL0     H48688   7.359   8.589   6.680 -0.5673 -0.7776  1.5112
  369MOL0     H48689   7.306   8.755   6.678 -0.8389 -1.8529 -4.2788
  369MOL0     H48690   8.050   8.465   7.220  1.6047 -1.9110 -0.2498
  369MOL0     H48691   8.265   8.399   7.288 -3.3240 -0.9496 -1.4433
  369MOL0     H48692   8.733   8.562   7.305 -4.5709 -0.8558 -1.2162
  369MOL0     H48693   8.959   8.507   7.366 -0.8281 -1.0228  1.5687
  369MOL0     H48694   8.081   8.465   6.525  0.1863  0.7343  2.2378
  369MOL0     H48695   7.836   8.417   6.439 -1.1294 -2.6872 -2.3809
  369MOL0     H48696   7.540   8.145   6.352 -0.3447  1.0165 -0.8779
  369MOL0     H48697   7.311   8.112   6.247  2.5083  2.2801 -1.1207
  369MOL0     H48698   7.112   7.988   6.269 -0.4130 -1.6813 -1.1240
  369MOL0     H48699   7.099   8.112   6.146 -0.7954 -0.1437  0.6246
  369MOL0     H48700   6.858   8.133   6.182 -0.3781  0.5126  1.9409
  369MOL0     H48701   6.917   7.971   6.144  0.4363  2.2785 -2.0847
  369MOL0     H48702   6.848   8.081   6.419 -0.5903 -1.5584  0.9022
  369MOL0     H48703   6.899   7.916   6.388 -0.3712 -0.4524 -0.5999
  369MOL0     H48704   6.638   8.045   6.285 -1.1931 -1.1996 -2.1377
  369MOL0     H48705   6.701   7.910   6.209  0.7379  1.5219 -0.7963
  369MOL0     H48706   6.515   7.746   6.548 -1.7393  1.7061  1.0390
  369MOL0     H48707   7.128   8.321   6.562 -1.2005  0.0729 -2.4596
  369MOL0     H48708   7.357   8.388   6.640  4.1767 -1.0534  0.3036
  370MOL0     O48709   1.371   2.810   1.357  0.3872  0.6700 -0.3159
  370MOL0     C48710   1.331   2.691   1.346  1.0207  0.0569 -0.7802
  370MOL0     O48711   1.404   2.580   1.377 -0.1455  0.3206  0.8854
  370MOL0     C48712   1.534   2.615   1.414  0.2008  0.6895  0.2534
  370MOL0     C48713   1.640   2.612   1.325 -0.8976 -0.5278  0.2139
  370MOL0     C48714   1.774   2.648   1.369  0.1137 -0.7727  0.5260
  370MOL0     C48715   1.790   2.708   1.491 -0.0637 -0.4921 -0.7336
  370MOL0     O48716   1.913   2.763   1.522  0.3176  0.4253  0.5403
  370MOL0     C48717   1.954   2.784   1.656 -0.1335  1.1504  0.0629
  370MOL0     C48718   2.105   2.791   1.660  0.4134  0.5066 -0.4901
  370MOL0     C48719   2.171   2.660   1.601  0.2820  0.4812 -0.1398
  370MOL0     C48720   2.321   2.659   1.610 -0.3003 -0.3869 -0.1433
  370MOL0     C48721   2.394   2.568   1.510 -0.6896  0.5648 -0.3538
  370MOL0     C48722   2.365   2.421   1.544  0.4547 -0.0808  0.5149
  370MOL0     C48723   2.444   2.329   1.449 -0.9556  0.4003  0.1621
  370MOL0     C48724   2.448   2.378   1.296 -0.3043  0.4980  0.2870
  370MOL0     N48725   2.310   2.398   1.246  0.6863 -0.0833 -0.2209
  370MOL0     C48726   2.217   2.300   1.257  0.3727  0.8205 -0.4354
  370MOL0     C48727   2.101   2.364   1.224  0.3198 -0.2439  0.0898
  370MOL0     C48728   1.969   2.297   1.233  0.0034  0.0550  0.4541
  370MOL0     C48729   1.921   2.278   1.376 -0.0771  0.0518  0.5725
  370MOL0     C48730   1.796   2.187   1.368  0.1255 -0.4245  0.3030
  370MOL0     C48731   1.681   2.253   1.450 -0.4612 -0.1056 -0.0045
  370MOL0     O48732   1.588   2.154   1.478  1.0734  0.4491 -0.0773
  370MOL0     C48733   1.478   2.145   1.398 -0.4732  0.2380  1.0060
  370MOL0     C48734   1.474   2.169   1.260 -0.0091 -0.2057  0.5183
  370MOL0     C48735   1.356   2.165   1.186 -0.1393 -0.1133  0.3667
  370MOL0     C48736   1.234   2.126   1.257  0.1662  0.6878  0.8776
  370MOL0     C48737   1.101   2.130   1.200  0.4475 -0.1281  0.0408
  370MOL0     O48738   1.001   2.103   1.282  0.2591  0.0227  0.3079
  370MOL0     C48739   0.868   2.118   1.258  0.5115  0.0788 -0.0271
  370MOL0     C48740   0.791   2.146   1.368  0.5152  0.0340 -1.1952
  370MOL0     C48741   0.650   2.146   1.366 -0.2716 -0.0280 -0.1577
  370MOL0     C48742   0.578   2.139   1.244 -1.1945 -0.2212 -0.7367
  370MOL0     O48743   0.441   2.128   1.262  0.0809 -0.1731 -0.0251
  370MOL0     C48744   0.359   2.089   1.149 -0.8507  0.8867  0.9037
  370MOL0     C48745   0.219   2.052   1.181  0.0200  0.6239 -0.1477
  370MOL0     C48746   0.130   2.007   1.066 -0.8763 -0.3589 -0.1636
  370MOL0     C48747  -0.016   1.995   1.100  0.0053  0.4484 -0.5216
  370MOL0     C48748  -0.065   1.851   1.073 -0.2862 -0.3884  0.3253
  370MOL0     C48749  -0.005   1.756   1.175 -0.3567  0.8117  0.2117
  370MOL0     C48750  -0.058   1.780   1.320  0.9053 -0.0792  0.0968
  370MOL0     C48751  -0.063   1.657   1.401  0.2622 -0.6709  0.2569
  370MOL0    Cl48752   0.105   1.590   1.423 -0.0116 -0.2970  0.2187
  370MOL0     C48753   0.658   2.103   1.134 -0.8316 -0.5263 -0.7889
  370MOL0     C48754   0.800   2.093   1.141 -0.3496  0.2929  0.4610
  370MOL0     O48755   1.084   2.146   1.077 -0.1341 -0.3051 -0.3160
  370MOL0     C48756   1.248   2.082   1.385 -0.4909 -1.6149 -0.4861
  370MOL0     C48757   1.370   2.089   1.459 -0.0589  0.7683  0.0929
  370MOL0     N48758   2.123   2.499   1.206 -0.2927 -0.4348 -0.6150
  370MOL0     N48759   2.249   2.517   1.220  0.4750  0.0793 -0.1779
  370MOL0     C48760   1.681   2.733   1.575 -0.6538  0.5047 -0.1226
  370MOL0     C48761   1.558   2.671   1.540  0.1121  0.0815  0.3916
  370MOL0     C48762   1.190   2.669   1.312 -0.8409 -0.1505 -0.0784
  370MOL0     C48763   1.158   2.549   1.260 -1.0255 -0.7359  0.1042
  370MOL0     C48764   1.030   2.529   1.199 -0.5804  0.0819  0.3795
  370MOL0     C48765   0.931   2.626   1.204  0.1314 -0.1342  1.1176
  370MOL0     O48766   0.801   2.611   1.165 -0.8099  0.6354  0.8800
  370MOL0     C48767   0.747   2.487   1.114 -0.3211 -0.1585 -0.2710
  370MOL0     C48768   0.595   2.489   1.121 -0.5622  0.8731 -0.2023
  370MOL0     C48769   0.527   2.607   1.055  0.7757  0.3194  0.2157
  370MOL0     C48770   0.371   2.595   1.089 -0.7318  1.4054 -0.3904
  370MOL0     C48771   0.310   2.482   1.007 -0.2403 -0.1461 -0.2157
  370MOL0     C48772   0.263   2.406   0.933  0.3303 -0.3964 -0.2786
  370MOL0     C48773   0.968   2.757   1.237 -0.5971  0.8672  0.2815
  370MOL0     C48774   1.100   2.775   1.292  0.2819 -1.2811 -0.0551
  370MOL0     H48775   1.621   2.601   1.218 -1.0454 -0.3440  0.2202
  370MOL0     H48776   1.862   2.650   1.306 -0.5357 -0.7759 -0.4089
  370MOL0     H48777   1.906   2.702   1.709 -2.0580  0.8782 -1.9525
  370MOL0     H48778   1.915   2.883   1.683  0.9452  1.5734  0.1224
  370MOL0     H48779   2.142   2.806   1.761 -0.2792 -2.2285  0.2527
  370MOL0     H48780   2.137   2.873   1.596  1.8754  1.5136  1.4520
  370MOL0     H48781   2.150   2.659   1.494  1.0705  2.6681 -0.3806
  370MOL0     H48782   2.132   2.567   1.642 -0.3637  0.5863 -0.5041
  370MOL0     H48783   2.364   2.753   1.574  3.2491 -2.8884 -3.2343
  370MOL0     H48784   2.351   2.648   1.714  1.8047  0.2952 -0.6366
  370MOL0     H48785   2.501   2.590   1.505 -0.5641  0.0303 -0.0909
  370MOL0     H48786   2.358   2.584   1.408 -0.2178 -0.6377 -0.7226
  370MOL0     H48787   2.260   2.391   1.532  0.2184  1.0301 -0.2741
  370MOL0     H48788   2.389   2.406   1.650  1.5669 -1.0627  0.1498
  370MOL0     H48789   2.541   2.314   1.499 -2.6057 -1.9347  2.9682
  370MOL0     H48790   2.404   2.228   1.451 -0.6338  0.2272 -1.1242
  370MOL0     H48791   2.488   2.304   1.227 -2.2617  0.3415 -0.7553
  370MOL0     H48792   2.511   2.465   1.277  0.4073  0.0102  0.3560
  370MOL0     H48793   2.239   2.197   1.287  0.2030  0.5619 -1.1778
  370MOL0     H48794   1.973   2.199   1.185 -0.4904 -0.2501  1.0168
  370MOL0     H48795   1.888   2.348   1.181  0.0529  0.1655  0.4849
  370MOL0     H48796   1.891   2.370   1.427 -1.7625  1.1276 -2.1146
  370MOL0     H48797   2.003   2.233   1.432  0.5671  0.6424  0.1158
  370MOL0     H48798   1.770   2.160   1.265  1.8550  1.1193 -0.5974
  370MOL0     H48799   1.819   2.098   1.427  2.1398 -0.6097 -0.6779
  370MOL0     H48800   1.638   2.335   1.392 -0.7544 -0.7380 -0.6918
  370MOL0     H48801   1.718   2.300   1.541 -0.2413 -2.2695  1.0913
  370MOL0     H48802   1.562   2.209   1.211  0.6176  0.1233  1.8578
  370MOL0     H48803   1.353   2.198   1.083  2.2829  1.3512  0.6847
  370MOL0     H48804   0.831   2.172   1.465 -3.5141  2.1453  0.1613
  370MOL0     H48805   0.591   2.154   1.457 -2.0086  0.0758 -1.2426
  370MOL0     H48806   0.397   2.000   1.096  0.9307  0.6180  2.5456
  370MOL0     H48807   0.344   2.172   1.079 -2.4394  0.1907  0.3546
  370MOL0     H48808   0.169   2.138   1.227  0.6949  0.3908  1.0769
  370MOL0     H48809   0.213   1.965   1.246  2.2849  0.0382 -0.6161
  370MOL0     H48810   0.172   1.917   1.021  2.1722  1.1742 -0.6107
  370MOL0     H48811   0.143   2.082   0.988 -1.6504 -0.7386 -0.6770
  370MOL0     H48812  -0.034   2.020   1.205 -1.5211 -0.6797 -0.4846
  370MOL0     H48813  -0.067   2.067   1.037 -1.1393 -2.3546 -3.0584
  370MOL0     H48814  -0.038   1.827   0.970  0.2683 -1.6951  0.7640
  370MOL0     H48815  -0.175   1.849   1.074 -0.4138  1.8143 -0.9878
  370MOL0     H48816   0.104   1.752   1.173 -0.3062  1.9784 -1.4079
  370MOL0     H48817  -0.041   1.656   1.147  0.7393 -0.4651  2.9947
  370MOL0     H48818   0.000   1.863   1.360  0.8920  1.8809 -3.5499
  370MOL0     H48819  -0.160   1.821   1.321  1.1030  0.5066 -1.5314
  370MOL0     H48820  -0.128   1.587   1.350  1.0674 -1.2354 -0.0184
  370MOL0     H48821  -0.113   1.671   1.498 -2.0460 -0.9403 -0.8470
  370MOL0     H48822   0.613   2.089   1.036 -2.6342 -1.9153  0.1734
  370MOL0     H48823   0.850   2.058   1.051  0.8532 -0.3920  1.3639
  370MOL0     H48824   1.165   2.060   1.451 -0.8270 -2.3290 -1.1448
  370MOL0     H48825   1.379   2.079   1.567  0.7809 -0.2819 -0.0545
  370MOL0     H48826   1.679   2.785   1.669  2.6270  1.2498 -0.3493
  370MOL0     H48827   1.476   2.678   1.610  0.5993  2.9870  0.7721
  370MOL0     H48828   1.228   2.467   1.272  0.1991  0.5772  2.8436
  370MOL0     H48829   1.008   2.427   1.170 -0.5497 -1.5369  5.1589
  370MOL0     H48830   0.784   2.396   1.163  0.5109 -0.3124 -1.1616
  370MOL0     H48831   0.776   2.474   1.010  0.5205  2.3841 -0.4130
  370MOL0     H48832   0.565   2.397   1.069  1.4454 -0.0652  0.2118
  370MOL0     H48833   0.568   2.488   1.227 -0.2679  0.6126 -0.1290
  370MOL0     H48834   0.545   2.609   0.947  1.0004  0.3195  0.2531
  370MOL0     H48835   0.564   2.698   1.103 -0.6948  1.6381 -1.0347
  370MOL0     H48836   0.363   2.561   1.193  2.4446  1.0738 -0.1410
  370MOL0     H48837   0.313   2.685   1.070 -0.6417  1.6645  0.5514
  370MOL0     H48838   0.225   2.342   0.856  0.8643  2.8715 -3.5630
  370MOL0     H48839   0.893   2.835   1.230 -1.3910  0.0777 -0.2939
  370MOL0     H48840   1.135   2.876   1.313  0.4674 -1.3616  0.0288
  371MOL0     O48841   7.518   9.611  11.058 -0.0855  0.3255  0.1199
  371MOL0     C48842   7.632   9.562  11.058  0.5905  0.1867  0.0999
  371MOL0     O48843   7.660   9.461  10.970  1.5213 -0.2194  0.7965
  371MOL0     C48844   7.553   9.387  10.929  0.5925  0.4257 -0.4295
  371MOL0     C48845   7.472   9.425  10.818  0.7008  0.0814  0.0702
  371MOL0     C48846   7.379   9.334  10.778  0.7688 -0.5962 -0.0362
  371MOL0     C48847   7.355   9.212  10.834 -0.6767 -0.0807  0.4347
  371MOL0     O48848   7.264   9.132  10.776 -0.5787  0.8434  0.1133
  371MOL0     C48849   7.301   8.988  10.787  0.6431 -0.2879  0.3419
  371MOL0     C48850   7.218   8.897  10.684 -0.3646 -0.2399 -0.2504
  371MOL0     C48851   7.104   8.824  10.754  0.5135 -0.3413  0.6502
  371MOL0     C48852   7.016   8.739  10.656  0.0387  0.1655  0.2356
  371MOL0     C48853   7.087   8.612  10.597 -0.1042  0.9537  0.1526
  371MOL0     C48854   7.009   8.554  10.481 -0.1184  0.9590 -0.3210
  371MOL0     C48855   6.862   8.507  10.506 -0.3177  0.7288 -0.6030
  371MOL0     C48856   6.799   8.426  10.391  0.8944 -0.2481 -0.2018
  371MOL0     N48857   6.772   8.508  10.268  0.1635  0.2642 -0.5045
  371MOL0     C48858   6.662   8.596  10.263  0.5807 -0.4179 -0.1182
  371MOL0     C48859   6.658   8.629  10.135  0.1025 -0.6410 -0.1940
  371MOL0     C48860   6.575   8.736  10.075  0.0620  0.5824  0.2642
  371MOL0     C48861   6.468   8.678   9.991  0.5505 -0.0884  0.5192
  371MOL0     C48862   6.375   8.582  10.063 -0.7066  0.6593 -1.0320
  371MOL0     C48863   6.241   8.556   9.987 -0.5724  0.3677 -1.0735
  371MOL0     O48864   6.174   8.458  10.071 -0.2126 -0.0159  0.6978
  371MOL0     C48865   6.048   8.423  10.050  1.2154  1.0884  0.0806
  371MOL0     C48866   5.965   8.488   9.947  0.0775  1.1930  0.6340
  371MOL0     C48867   5.829   8.436   9.928  0.8520 -0.1094  0.6322
  371MOL0     C48868   5.782   8.332  10.005 -0.3511  0.2770 -0.2835
  371MOL0     C48869   5.642   8.283   9.990 -0.2216 -0.2099 -0.0539
  371MOL0     O48870   5.611   8.159  10.051  0.3248  0.5326 -0.2976
  371MOL0     C48871   5.481   8.119  10.075  0.2365  0.3353  0.2590
  371MOL0     C48872   5.364   8.195  10.097  0.3203  0.0832  1.3593
  371MOL0     C48873   5.237   8.148  10.128  0.2796 -0.0536  1.0859
  371MOL0     C48874   5.220   8.012  10.138 -0.4614  0.1026 -0.0249
  371MOL0     O48875   5.102   7.948  10.159 -0.3763  0.5355 -0.1183
  371MOL0     C48876   5.000   8.000  10.249 -0.8246 -0.5142 -0.7552
  371MOL0     C48877   4.914   7.884  10.297 -0.2273  0.5037 -1.1564
  371MOL0     C48878   4.769   7.935  10.340 -0.5699  0.4615 -0.1027
  371MOL0     C48879   4.684   7.827  10.407 -0.1070  0.4502 -1.5489
  371MOL0     C48880   4.544   7.863  10.430  0.0246  0.6949 -0.0799
  371MOL0     C48881   4.466   7.750  10.504  0.1136 -0.3501 -0.6644
  371MOL0     C48882   4.309   7.789  10.512  0.1282 -0.1246 -0.5622
  371MOL0     C48883   4.244   7.655  10.539  0.0612  0.0778 -0.2072
  371MOL0    Cl48884   4.224   7.569  10.374 -0.2506 -0.6470 -0.2504
  371MOL0     C48885   5.334   7.930  10.131 -0.3194  0.0336 -0.0994
  371MOL0     C48886   5.462   7.984  10.100  0.0721 -0.1761  0.4663
  371MOL0     O48887   5.560   8.357   9.930 -0.6063 -0.2563  0.2465
  371MOL0     C48888   5.858   8.283  10.112 -0.2301 -0.1032 -0.2149
  371MOL0     C48889   5.992   8.322  10.128 -0.0498  0.6825  0.0967
  371MOL0     N48890   6.753   8.553  10.064 -0.2249  0.3013  1.3215
  371MOL0     N48891   6.818   8.479  10.145  0.3987  0.2893 -0.4231
  371MOL0     C48892   7.437   9.186  10.941  0.4299 -0.7005  0.7928
  371MOL0     C48893   7.527   9.270  10.990  0.4794 -0.6855  0.1186
  371MOL0     C48894   7.745   9.614  11.137  0.1174 -0.2241 -0.7264
  371MOL0     C48895   7.727   9.712  11.225 -0.0261  0.9533 -0.0481
  371MOL0     C48896   7.841   9.773  11.286 -0.0817  0.6650 -0.6055
  371MOL0     C48897   7.970   9.738  11.266 -0.6066  0.8307  1.3432
  371MOL0     O48898   8.075   9.795  11.330  0.1669  0.9611 -0.1158
  371MOL0     C48899   8.212   9.760  11.288 -0.2557  0.3441 -0.4078
  371MOL0     C48900   8.296   9.850  11.373 -0.2099 -0.7382  0.0643
  371MOL0     C48901   8.447   9.831  11.325 -1.0148  0.3999  0.1845
  371MOL0     C48902   8.527   9.711  11.385  0.2141 -0.9669 -0.0957
  371MOL0     C48903   8.662   9.710  11.339 -0.0840 -0.4827 -0.0463
  371MOL0     C48904   8.770   9.706  11.286 -0.9820  0.5568 -0.4425
  371MOL0     C48905   7.988   9.641  11.161 -0.0898  0.4329 -0.6452
  371MOL0     C48906   7.873   9.584  11.105 -0.1267  0.4100 -0.2166
  371MOL0     H48907   7.482   9.517  10.762  0.1127 -0.3965 -0.8316
  371MOL0     H48908   7.320   9.373  10.695  0.9219  1.9052  0.9548
  371MOL0     H48909   7.273   8.947  10.884 -0.8942 -0.8141 -0.2877
  371MOL0     H48910   7.406   8.979  10.759  0.1957 -1.3702 -1.1360
  371MOL0     H48911   7.286   8.834  10.626 -1.9842 -1.1367 -1.2496
  371MOL0     H48912   7.165   8.953  10.606 -2.0926 -2.2597 -0.6195
  371MOL0     H48913   7.041   8.902  10.798 -0.5922 -1.0423  0.3447
  371MOL0     H48914   7.146   8.763  10.834  1.1332  0.6243  1.0853
  371MOL0     H48915   6.926   8.707  10.709 -0.4325  2.7691  1.1113
  371MOL0     H48916   6.985   8.804  10.575  0.3068 -2.0524 -1.7600
  371MOL0     H48917   7.093   8.533  10.672  0.6551 -1.7956 -2.5714
  371MOL0     H48918   7.188   8.639  10.564  0.5966  0.8609  2.1029
  371MOL0     H48919   7.067   8.471  10.438 -1.1376  0.7482 -1.3343
  371MOL0     H48920   7.000   8.633  10.407  3.7766 -0.6735 -2.8701
  371MOL0     H48921   6.868   8.430  10.583 -2.7238  1.5533  0.5099
  371MOL0     H48922   6.794   8.585  10.541  0.1091  0.4379  0.9156
  371MOL0     H48923   6.711   8.375  10.432  1.1455 -1.5290 -1.1951
  371MOL0     H48924   6.870   8.350  10.360  1.0901 -0.1905  0.1027
  371MOL0     H48925   6.621   8.654  10.345  3.4098  1.8216 -0.1161
  371MOL0     H48926   6.633   8.791  10.000 -1.2388 -0.9938 -2.0099
  371MOL0     H48927   6.534   8.797  10.156 -0.3587  1.7947 -0.8226
  371MOL0     H48928   6.518   8.637   9.903 -0.0832  2.6890 -1.2680
  371MOL0     H48929   6.405   8.760   9.954  0.2012 -0.3789  0.4583
  371MOL0     H48930   6.428   8.488  10.082 -0.7328  0.8967  0.3267
  371MOL0     H48931   6.348   8.637  10.154 -3.3142 -0.0750 -1.2919
  371MOL0     H48932   6.257   8.521   9.885 -0.5817  0.3096 -1.0558
  371MOL0     H48933   6.185   8.648   9.969 -1.1919  0.1184 -0.4866
  371MOL0     H48934   6.000   8.571   9.887 -1.8940  0.4834 -1.6751
  371MOL0     H48935   5.759   8.477   9.855 -0.9182 -2.4243  0.8984
  371MOL0     H48936   5.366   8.301  10.076  1.3835 -0.3181 -0.8380
  371MOL0     H48937   5.150   8.211  10.145 -0.6825 -0.4661 -1.7847
  371MOL0     H48938   4.930   8.072  10.205 -3.7974  0.0170  4.0476
  371MOL0     H48939   5.039   8.055  10.335 -1.4457 -0.0512 -0.7644
  371MOL0     H48940   4.962   7.846  10.388 -0.1251  0.0569 -1.3929
  371MOL0     H48941   4.907   7.802  10.225  1.6014 -1.8194  1.1227
  371MOL0     H48942   4.714   7.948  10.246  1.2564 -0.5505 -1.3658
  371MOL0     H48943   4.774   8.032  10.390  0.9932  0.6161 -0.5026
  371MOL0     H48944   4.699   7.726  10.366  0.6251 -0.5336  0.9586
  371MOL0     H48945   4.733   7.816  10.503 -0.8511 -2.5545 -1.4063
  371MOL0     H48946   4.495   7.893  10.337  0.4573  3.6944  0.5404
  371MOL0     H48947   4.549   7.955  10.490  5.3488 -0.3633  1.5956
  371MOL0     H48948   4.517   7.728  10.599 -0.6420  1.2157  0.1358
  371MOL0     H48949   4.478   7.657  10.447  1.5950 -0.2119 -0.6238
  371MOL0     H48950   4.298   7.856  10.598  2.3305 -1.5807  0.9423
  371MOL0     H48951   4.268   7.839  10.424 -0.0472 -1.2030 -1.1102
  371MOL0     H48952   4.142   7.672  10.574  0.2288  1.1600 -0.1899
  371MOL0     H48953   4.301   7.595  10.610 -0.2374 -0.7241 -0.6386
  371MOL0     H48954   5.326   7.822  10.144  1.4984 -0.1601 -0.3261
  371MOL0     H48955   5.544   7.919  10.072 -0.3548  0.9164 -4.1786
  371MOL0     H48956   5.814   8.208  10.177 -0.4378 -0.0548 -0.2990
  371MOL0     H48957   6.060   8.290  10.206  0.7669 -0.4283 -1.0200
  371MOL0     H48958   7.428   9.089  10.990  1.7322 -0.4204  1.6066
  371MOL0     H48959   7.588   9.245  11.076 -1.6137  1.2149  2.3010
  371MOL0     H48960   7.628   9.741  11.259  0.2933 -1.1739  3.0624
  371MOL0     H48961   7.828   9.847  11.364  1.9920  0.8742 -0.3971
  371MOL0     H48962   8.224   9.796  11.186  2.5747  0.7639 -0.0007
  371MOL0     H48963   8.249   9.658  11.300  0.8482  0.6706 -0.9471
  371MOL0     H48964   8.265   9.955  11.376  2.9921  0.2922  0.8790
  371MOL0     H48965   8.281   9.808  11.473  2.0166 -2.0302 -0.0742
  371MOL0     H48966   8.509   9.916  11.356  1.0926 -1.4429  1.3168
  371MOL0     H48967   8.449   9.813  11.218 -0.2715 -2.2324  0.5856
  371MOL0     H48968   8.513   9.725  11.492 -0.6086 -2.5007  0.0321
  371MOL0     H48969   8.497   9.611  11.352  0.0913 -0.9456 -0.0475
  371MOL0     H48970   8.865   9.723  11.239 -0.5950  4.5849  1.4302
  371MOL0     H48971   8.079   9.598  11.118 -0.5039 -0.3614 -0.7392
  371MOL0     H48972   7.896   9.511  11.028  2.3606 -0.4288  1.2005
  372MOL0     O48973   5.174   6.486   8.789 -0.5288  0.0960  0.3886
  372MOL0     C48974   5.187   6.608   8.779  0.3556  0.3112 -0.5934
  372MOL0     O48975   5.087   6.701   8.778 -0.7724 -0.3582  0.2052
  372MOL0     C48976   4.951   6.680   8.766 -1.4032  1.0706  0.6979
  372MOL0     C48977   4.873   6.791   8.746  0.0968  0.6193  0.4134
  372MOL0     C48978   4.734   6.782   8.748 -0.3727 -0.5509 -0.4533
  372MOL0     C48979   4.672   6.658   8.743 -0.3138  0.3103 -0.5184
  372MOL0     O48980   4.539   6.655   8.720  0.5340 -0.2391 -0.3153
  372MOL0     C48981   4.460   6.604   8.831 -0.2791 -0.6149  0.0137
  372MOL0     C48982   4.319   6.589   8.788 -0.5910 -0.4737 -0.6864
  372MOL0     C48983   4.228   6.570   8.910 -0.2625  0.2863  0.0331
  372MOL0     C48984   4.086   6.542   8.869  0.6518 -0.0062 -0.6230
  372MOL0     C48985   3.999   6.652   8.795  0.2512  0.6407  0.4123
  372MOL0     C48986   3.861   6.598   8.792 -0.3791 -0.0784  0.0251
  372MOL0     C48987   3.769   6.694   8.707 -0.3381  0.5801 -1.1114
  372MOL0     C48988   3.646   6.602   8.676 -0.2601  0.5905 -1.0672
  372MOL0     N48989   3.560   6.583   8.798 -0.7147  0.7007  1.1838
  372MOL0     C48990   3.443   6.651   8.830  0.0457 -0.2201  0.2333
  372MOL0     C48991   3.381   6.568   8.916 -0.6970  0.8744 -0.2610
  372MOL0     C48992   3.253   6.598   8.984 -0.4080  0.7997 -0.5068
  372MOL0     C48993   3.148   6.503   8.935  0.2174 -0.1145 -0.2546
  372MOL0     C48994   3.017   6.527   9.004 -0.0014  0.2433  0.0587
  372MOL0     C48995   2.906   6.432   8.964 -0.6788 -0.2932  0.6443
  372MOL0     O48996   2.780   6.491   8.996  0.3147 -0.4913 -0.2880
  372MOL0     C48997   2.667   6.428   8.948 -0.0543 -0.1364  0.3377
  372MOL0     C48998   2.543   6.490   8.983  0.4451  0.7180  0.2875
  372MOL0     C48999   2.423   6.422   8.945  0.1154 -0.0085  0.8403
  372MOL0     C49000   2.426   6.306   8.879 -0.6318 -0.6959  0.4829
  372MOL0     C49001   2.293   6.246   8.838 -0.3161  0.3302  0.1573
  372MOL0     O49002   2.306   6.144   8.748  0.0569  0.0766 -0.3435
  372MOL0     C49003   2.190   6.093   8.697 -0.3554 -0.3611 -0.1452
  372MOL0     C49004   2.116   6.158   8.595  0.5073  0.1996 -0.1129
  372MOL0     C49005   2.004   6.096   8.536 -0.6326 -0.0252 -0.0239
  372MOL0     C49006   1.957   5.984   8.582 -1.2420 -0.2020  0.0745
  372MOL0     O49007   1.846   5.940   8.522 -0.0287 -0.4562 -0.0263
  372MOL0     C49008   1.792   5.815   8.571  0.4483  0.3211  1.1409
  372MOL0     C49009   1.667   5.781   8.490 -0.1044 -1.0426 -0.3321
  372MOL0     C49010   1.559   5.891   8.490 -0.0776 -0.0825  0.2285
  372MOL0     C49011   1.452   5.851   8.398 -0.6069  0.7227  1.2864
  372MOL0     C49012   1.330   5.948   8.401 -0.0635 -0.5041  0.9592
  372MOL0     C49013   1.203   5.895   8.342  0.9501  0.9166 -0.3246
  372MOL0     C49014   1.114   6.005   8.282 -0.7220 -0.5364  0.1354
  372MOL0     C49015   1.004   5.939   8.206 -0.3985 -0.6749  0.6180
  372MOL0    Cl49016   0.889   5.873   8.310 -0.5231  0.0803  0.2873
  372MOL0     C49017   2.032   5.905   8.677 -0.2165  0.0529  0.0617
  372MOL0     C49018   2.146   5.961   8.726  0.9407 -0.0723  0.6363
  372MOL0     O49019   2.188   6.296   8.881  0.5020  0.7870  0.5191
  372MOL0     C49020   2.546   6.249   8.836  0.3583 -0.5829 -0.6900
  372MOL0     C49021   2.666   6.310   8.877 -0.5801 -0.7070  0.1410
  372MOL0     N49022   3.460   6.457   8.943 -0.2092  0.8728 -0.2286
  372MOL0     N49023   3.565   6.469   8.876 -0.6437  0.1255  0.4417
  372MOL0     C49024   4.749   6.545   8.753 -0.0622 -0.0209  0.5208
  372MOL0     C49025   4.890   6.557   8.776  0.3884 -0.4040 -0.3477
  372MOL0     C49026   5.329   6.655   8.784  0.3800  0.2028 -0.1930
  372MOL0     C49027   5.364   6.786   8.822  0.1484 -0.1221 -0.2953
  372MOL0     C49028   5.501   6.825   8.828  0.3331  0.4373  0.2958
  372MOL0     C49029   5.606   6.733   8.807  0.4680  0.0926  0.1541
  372MOL0     O49030   5.732   6.783   8.826  1.0965 -0.4422  0.4787
  372MOL0     C49031   5.840   6.709   8.773 -0.5254 -1.3359  0.1671
  372MOL0     C49032   5.974   6.785   8.783  0.0975  0.0087  0.6472
  372MOL0     C49033   6.096   6.684   8.789  0.5243 -0.5275 -1.4620
  372MOL0     C49034   6.230   6.744   8.753  0.1993  0.1011 -0.5978
  372MOL0     C49035   6.233   6.806   8.621 -0.2627 -0.3781  0.5183
  372MOL0     C49036   6.253   6.854   8.511  0.5477  0.0893 -0.8366
  372MOL0     C49037   5.571   6.597   8.782 -0.4793  0.3758  0.8308
  372MOL0     C49038   5.437   6.564   8.771 -0.0414 -0.1357 -0.6199
  372MOL0     H49039   4.929   6.884   8.742 -0.8440  1.1627 -0.7711
  372MOL0     H49040   4.677   6.874   8.738 -2.0100 -1.3106  1.3662
  372MOL0     H49041   4.477   6.659   8.924  2.6108 -3.5205  1.3994
  372MOL0     H49042   4.498   6.505   8.855 -0.1725 -0.0079  2.6322
  372MOL0     H49043   4.312   6.510   8.712 -0.6201  0.8733 -2.1235
  372MOL0     H49044   4.281   6.673   8.730 -0.9637 -0.2921 -0.1917
  372MOL0     H49045   4.224   6.658   8.974  0.4290  0.8314 -0.6526
  372MOL0     H49046   4.245   6.479   8.969  1.2618 -0.2512 -1.1419
  372MOL0     H49047   4.060   6.452   8.813 -1.5529  1.1453 -1.5675
  372MOL0     H49048   4.041   6.521   8.967  1.4456  0.3590 -0.1723
  372MOL0     H49049   4.043   6.673   8.697 -1.2900 -2.3158 -1.0304
  372MOL0     H49050   4.001   6.741   8.859  0.9382  0.8089  0.1688
  372MOL0     H49051   3.830   6.573   8.894  5.4195 -0.8820  1.9707
  372MOL0     H49052   3.858   6.499   8.745 -0.5707 -0.3916  0.6792
  372MOL0     H49053   3.745   6.790   8.754  2.6509  0.1970  1.4655
  372MOL0     H49054   3.805   6.714   8.606  1.2621 -0.0747 -0.6934
  372MOL0     H49055   3.673   6.504   8.636 -1.3531 -0.0313 -0.3333
  372MOL0     H49056   3.585   6.658   8.604 -1.9909 -2.5557 -2.2264
  372MOL0     H49057   3.415   6.749   8.793 -3.1343 -1.5131 -1.1384
  372MOL0     H49058   3.219   6.700   8.961 -1.0530  0.7662  0.2508
  372MOL0     H49059   3.261   6.586   9.092 -0.3569 -0.1915 -0.6102
  372MOL0     H49060   3.183   6.403   8.960  0.7334  0.5856  2.0218
  372MOL0     H49061   3.141   6.506   8.825  1.4157  0.7398 -0.3332
  372MOL0     H49062   3.040   6.525   9.111 -0.0793 -0.4224  0.0662
  372MOL0     H49063   2.981   6.628   8.984 -1.6962 -0.0626  1.3107
  372MOL0     H49064   2.913   6.333   9.011 -1.6959 -0.5517  0.2836
  372MOL0     H49065   2.917   6.423   8.856 -0.0312  2.9608  0.3341
  372MOL0     H49066   2.543   6.589   9.028 -0.8611  0.8469  0.0425
  372MOL0     H49067   2.329   6.455   8.988 -1.1798 -1.8424 -0.4529
  372MOL0     H49068   2.156   6.255   8.567  1.5246 -0.1596  0.0227
  372MOL0     H49069   1.949   6.136   8.452  0.1197  4.6744  1.4050
  372MOL0     H49070   1.765   5.824   8.677 -0.0109 -0.0469  1.0541
  372MOL0     H49071   1.868   5.737   8.565 -1.7827 -1.9123  0.2001
  372MOL0     H49072   1.616   5.691   8.525  0.1336 -1.6841 -1.5860
  372MOL0     H49073   1.704   5.758   8.390  0.4108 -1.3841 -0.0636
  372MOL0     H49074   1.604   5.983   8.452 -1.9680  0.4052 -0.9169
  372MOL0     H49075   1.515   5.906   8.589  2.4933  0.6592  1.3660
  372MOL0     H49076   1.490   5.860   8.295  1.8024  0.2851  2.0570
  372MOL0     H49077   1.426   5.746   8.413  0.2940  0.2988  0.1126
  372MOL0     H49078   1.361   6.030   8.336  0.5656 -3.5425 -2.9354
  372MOL0     H49079   1.314   5.988   8.501  0.9262  0.0548  0.9060
  372MOL0     H49080   1.137   5.849   8.416 -0.0680  1.1370 -1.0853
  372MOL0     H49081   1.240   5.824   8.268 -1.7748 -0.7409 -0.2207
  372MOL0     H49082   1.086   6.076   8.361  4.9342  1.1436  1.0839
  372MOL0     H49083   1.169   6.075   8.218 -1.9152 -0.7766 -1.1834
  372MOL0     H49084   1.037   5.861   8.137 -0.7078 -0.7526  0.5533
  372MOL0     H49085   0.955   6.013   8.142  0.4873 -1.0046 -0.4751
  372MOL0     H49086   2.003   5.808   8.715  1.7234  0.1289  1.9344
  372MOL0     H49087   2.212   5.899   8.785  1.2046 -0.1489  0.2634
  372MOL0     H49088   2.558   6.151   8.792 -1.7056  0.2759 -3.4533
  372MOL0     H49089   2.753   6.261   8.836  0.4752 -0.1260  1.6113
  372MOL0     H49090   4.701   6.448   8.740 -1.9935  0.9742 -0.2434
  372MOL0     H49091   4.949   6.470   8.802  0.8504  0.2703  0.9553
  372MOL0     H49092   5.288   6.860   8.847 -0.1367 -1.2811  2.6935
  372MOL0     H49093   5.524   6.927   8.856 -2.1499  0.5109  2.4481
  372MOL0     H49094   5.824   6.698   8.666 -0.1970  1.8204 -0.2972
  372MOL0     H49095   5.847   6.614   8.827  0.1065 -0.1097  2.4114
  372MOL0     H49096   5.975   6.846   8.692  2.5480 -1.4740 -0.4201
  372MOL0     H49097   5.978   6.846   8.874  1.2249  1.0970 -0.0963
  372MOL0     H49098   6.071   6.596   8.728 -2.1968 -0.5843 -0.4233
  372MOL0     H49099   6.092   6.660   8.896  0.3046  2.0930 -0.8058
  372MOL0     H49100   6.260   6.821   8.824  0.9379  0.0665 -0.8635
  372MOL0     H49101   6.305   6.664   8.759  1.2297  1.1361  0.9196
  372MOL0     H49102   6.269   6.892   8.412 -0.1037 -0.2856 -1.0993
  372MOL0     H49103   5.636   6.511   8.767  0.3776  1.4956 -2.9946
  372MOL0     H49104   5.405   6.460   8.760 -2.5451  0.4464  0.4198
  373MOL0     O49105   9.237   7.784   8.815  0.0903 -0.8546 -0.1959
  373MOL0     C49106   9.312   7.720   8.743  0.2654  0.7192 -0.7035
  373MOL0     O49107   9.292   7.676   8.613  0.1355  0.5262 -0.4784
  373MOL0     C49108   9.169   7.707   8.558 -1.2375 -0.1084  0.1010
  373MOL0     C49109   9.172   7.732   8.424 -0.0271  0.1636  0.2319
  373MOL0     C49110   9.052   7.767   8.361 -0.5964 -0.1798 -0.6506
  373MOL0     C49111   8.927   7.772   8.427 -0.2985  0.3663  0.5779
  373MOL0     O49112   8.810   7.808   8.365  0.1477  0.1442  0.5860
  373MOL0     C49113   8.806   7.905   8.259 -0.2587 -0.1704 -0.6515
  373MOL0     C49114   8.656   7.945   8.253  0.1126 -0.3185 -0.2702
  373MOL0     C49115   8.563   7.839   8.190  0.6733 -0.1360 -0.4061
  373MOL0     C49116   8.415   7.879   8.196 -0.3260 -0.1587  0.0472
  373MOL0     C49117   8.313   7.765   8.174  0.4813 -0.3023  0.0184
  373MOL0     C49118   8.176   7.823   8.143 -0.9537  1.0968  0.4452
  373MOL0     C49119   8.113   7.897   8.262  0.4229  1.0079  0.1687
  373MOL0     C49120   7.960   7.938   8.242 -0.5322 -0.8334 -0.8906
  373MOL0     N49121   7.939   8.008   8.122 -0.3671 -0.4788  0.1459
  373MOL0     C49122   7.875   7.977   8.003  0.9059 -0.5103 -0.2458
  373MOL0     C49123   7.881   8.091   7.928  0.2340 -0.3533  0.0311
  373MOL0     C49124   7.826   8.102   7.794 -0.3649 -1.1014  0.2707
  373MOL0     C49125   7.680   8.091   7.793 -0.5222  0.1724 -0.3447
  373MOL0     C49126   7.633   7.952   7.759 -0.6643  0.6367  0.2451
  373MOL0     C49127   7.477   7.946   7.729  0.7103  0.2830  0.3696
  373MOL0     O49128   7.420   7.811   7.726 -0.3318  0.7167 -0.6315
  373MOL0     C49129   7.278   7.785   7.723 -0.1560 -0.5661 -0.1547
  373MOL0     C49130   7.178   7.884   7.693  0.3600 -0.0953 -0.6772
  373MOL0     C49131   7.042   7.849   7.676  0.3942 -0.5196  0.9167
  373MOL0     C49132   7.001   7.719   7.704  0.2334 -0.2702 -0.4146
  373MOL0     C49133   6.860   7.681   7.702 -0.4705 -0.5242 -0.2937
  373MOL0     O49134   6.770   7.746   7.614 -0.5342  0.4606  0.0642
  373MOL0     C49135   6.641   7.694   7.586 -0.8669  0.8023 -0.4172
  373MOL0     C49136   6.611   7.563   7.578  0.6761  0.6714  0.1086
  373MOL0     C49137   6.477   7.522   7.569 -0.3770 -0.2529 -0.0626
  373MOL0     C49138   6.373   7.618   7.544  0.3452  1.0146  0.1388
  373MOL0     O49139   6.245   7.578   7.515 -0.5062  0.1741 -0.3496
  373MOL0     C49140   6.181   7.644   7.396 -0.6473 -0.1228 -0.5818
  373MOL0     C49141   6.074   7.549   7.338 -0.9885 -0.5622 -0.6395
  373MOL0     C49142   5.984   7.635   7.252 -0.9410  0.3032 -0.0877
  373MOL0     C49143   5.897   7.539   7.174  0.9536 -0.7117 -0.7508
  373MOL0     C49144   5.791   7.612   7.086 -0.2015 -0.2956  0.6019
  373MOL0     C49145   5.681   7.520   7.019 -0.2553  0.2760  0.9001
  373MOL0     C49146   5.611   7.589   6.905 -0.1490 -0.8248  0.3743
  373MOL0     C49147   5.519   7.483   6.837  0.0268  0.4221 -0.1168
  373MOL0    Cl49148   5.421   7.581   6.716  0.1741  0.2879 -0.3124
  373MOL0     C49149   6.405   7.751   7.535 -0.3705  0.5580 -0.2653
  373MOL0     C49150   6.540   7.788   7.559 -0.0344  0.2600  0.6832
  373MOL0     O49151   6.826   7.589   7.778  0.3393 -0.5149 -0.2195
  373MOL0     C49152   7.097   7.628   7.760 -0.3994  0.3371  0.7163
  373MOL0     C49153   7.234   7.662   7.756  0.2984  0.1245 -0.8106
  373MOL0     N49154   7.950   8.190   7.999 -0.0186 -0.8457  0.2358
  373MOL0     N49155   7.982   8.139   8.112  0.8587  0.2076 -0.1135
  373MOL0     C49156   8.925   7.735   8.557 -0.6683 -0.1064 -0.1563
  373MOL0     C49157   9.048   7.704   8.623  1.2235 -1.2707  0.2523
  373MOL0     C49158   9.432   7.673   8.813 -1.4237 -1.2668  1.0822
  373MOL0     C49159   9.531   7.603   8.745 -0.9632 -0.0601 -0.1329
  373MOL0     C49160   9.642   7.558   8.814 -0.0147  0.6075  0.2220
  373MOL0     C49161   9.659   7.578   8.957  0.8480 -0.0600 -0.2523
  373MOL0     O49162   9.758   7.528   9.025 -0.4753  0.1996 -0.6529
  373MOL0     C49163   9.870   7.490   8.948 -0.8406  0.4220  0.0903
  373MOL0     C49164   9.994   7.470   9.044  0.0057 -0.0600  0.3084
  373MOL0     C49165  10.106   7.411   8.967 -0.4014  0.3726 -0.0050
  373MOL0     C49166  10.206   7.335   9.060  0.0424 -1.0015  0.5748
  373MOL0     C49167  10.298   7.244   8.984 -0.5449  0.5573 -0.4817
  373MOL0     C49168  10.363   7.155   8.929 -0.3000 -0.7276  0.1102
  373MOL0     C49169   9.565   7.662   9.019  0.4334 -0.2774  0.1248
  373MOL0     C49170   9.446   7.709   8.947  0.4594  0.0725 -0.2229
  373MOL0     H49171   9.267   7.735   8.372 -0.3956  0.9309 -0.4283
  373MOL0     H49172   9.043   7.784   8.254  1.7573 -0.7854 -0.9955
  373MOL0     H49173   8.851   7.858   8.170  0.4092 -4.4832  1.6933
  373MOL0     H49174   8.859   7.995   8.293 -1.4494  0.5500 -0.6439
  373MOL0     H49175   8.629   8.040   8.207  0.9972 -0.6763 -1.5833
  373MOL0     H49176   8.625   7.962   8.356  0.6847  2.4294 -0.4769
  373MOL0     H49177   8.568   7.756   8.262 -0.7387 -0.6605 -0.8787
  373MOL0     H49178   8.605   7.798   8.098  3.4222 -0.4512  0.8891
  373MOL0     H49179   8.402   7.931   8.291 -2.2146 -2.1612  0.9903
  373MOL0     H49180   8.395   7.953   8.118 -1.5872 -1.0686 -0.5417
  373MOL0     H49181   8.305   7.697   8.260 -2.7248 -0.6601 -0.4206
  373MOL0     H49182   8.335   7.704   8.086 -0.3246  1.6966 -1.6376
  373MOL0     H49183   8.108   7.744   8.107  0.1547  0.6682 -0.7826
  373MOL0     H49184   8.179   7.896   8.062 -1.9165  1.6375  0.8777
  373MOL0     H49185   8.118   7.837   8.353 -0.0163 -0.8720 -0.9701
  373MOL0     H49186   8.164   7.992   8.281  2.4671  0.1205 -0.5252
  373MOL0     H49187   7.923   7.997   8.326 -2.4708  1.1902 -2.9957
  373MOL0     H49188   7.897   7.848   8.242  0.0146 -1.2272 -1.3296
  373MOL0     H49189   7.839   7.876   7.985  0.4123 -0.8999  2.5302
  373MOL0     H49190   7.875   8.024   7.736 -0.0778 -1.5380  1.0880
  373MOL0     H49191   7.865   8.201   7.768 -1.3330 -0.2654  1.8046
  373MOL0     H49192   7.646   8.155   7.711  2.7490  2.3753 -0.1467
  373MOL0     H49193   7.638   8.122   7.889  0.3060 -2.3281  0.8992
  373MOL0     H49194   7.689   7.914   7.673 -0.7663  0.0613  0.4248
  373MOL0     H49195   7.651   7.886   7.845 -3.2311 -0.7526 -0.1787
  373MOL0     H49196   7.467   7.999   7.633  2.6494 -2.4391 -1.5058
  373MOL0     H49197   7.421   8.009   7.798  5.0719  4.0181  0.9763
  373MOL0     H49198   7.218   7.981   7.668 -0.4612  0.0026 -1.6786
  373MOL0     H49199   6.961   7.918   7.653 -0.9872 -2.3405  0.1289
  373MOL0     H49200   6.691   7.491   7.591  1.8078  1.7515 -0.6723
  373MOL0     H49201   6.464   7.414   7.572  0.9923 -0.4558 -0.7893
  373MOL0     H49202   6.252   7.671   7.318 -2.2642  3.6920 -0.9704
  373MOL0     H49203   6.138   7.741   7.427  0.6576  0.6893 -1.2543
  373MOL0     H49204   6.019   7.489   7.411 -0.5208 -2.0249 -1.4421
  373MOL0     H49205   6.138   7.482   7.280  0.0945 -0.4138  0.3533
  373MOL0     H49206   6.047   7.686   7.178  0.1332 -2.2499 -1.0430
  373MOL0     H49207   5.933   7.703   7.322  1.2206  0.9636  0.9310
  373MOL0     H49208   5.961   7.467   7.123  1.3737 -0.1335 -1.0489
  373MOL0     H49209   5.850   7.477   7.251 -0.6626  1.2203 -0.0947
  373MOL0     H49210   5.856   7.651   7.007 -2.2807  1.3580 -0.3926
  373MOL0     H49211   5.740   7.694   7.138  1.4382  1.6666 -0.6832
  373MOL0     H49212   5.612   7.490   7.098 -1.1900 -1.6058 -0.5544
  373MOL0     H49213   5.735   7.434   6.979  2.4315  1.9236  0.7478
  373MOL0     H49214   5.555   7.670   6.953 -0.5889  0.9878 -2.9341
  373MOL0     H49215   5.681   7.631   6.832 -0.1945 -1.5885 -0.1222
  373MOL0     H49216   5.448   7.446   6.911 -0.0006  3.3274  1.4614
  373MOL0     H49217   5.570   7.403   6.783 -0.7268 -2.3595  2.9897
  373MOL0     H49218   6.327   7.817   7.500 -0.6586  0.0373 -0.6221
  373MOL0     H49219   6.565   7.893   7.546  0.0530  0.2134  0.4768
  373MOL0     H49220   7.066   7.533   7.802  0.9091  0.5809  2.3384
  373MOL0     H49221   7.308   7.588   7.785  0.9387  1.1315  0.1982
  373MOL0     H49222   8.834   7.731   8.616 -1.1903 -1.2760 -0.9993
  373MOL0     H49223   9.037   7.682   8.729 -0.6538 -1.1229  0.1223
  373MOL0     H49224   9.518   7.574   8.642 -0.5259  0.3889 -0.3181
  373MOL0     H49225   9.709   7.497   8.754  0.9453  1.2942  0.5729
  373MOL0     H49226   9.904   7.564   8.876  0.6315 -0.0624  0.2682
  373MOL0     H49227   9.843   7.406   8.885  1.1749  0.1505 -0.4700
  373MOL0     H49228  10.026   7.569   9.080 -2.1039  0.9536 -0.4131
  373MOL0     H49229   9.968   7.419   9.138  2.3739  1.5375  1.9340
  373MOL0     H49230  10.158   7.495   8.921 -3.5169  1.4982 -1.8199
  373MOL0     H49231  10.081   7.341   8.886  3.2240 -2.1768  0.8477
  373MOL0     H49232  10.272   7.398   9.120  0.3720 -2.0678  1.3609
  373MOL0     H49233  10.156   7.280   9.140 -1.6495 -0.3880 -0.0208
  373MOL0     H49234  10.412   7.080   8.871  0.3860 -0.3015  0.1292
  373MOL0     H49235   9.574   7.669   9.127  2.9224  0.2882 -0.0590
  373MOL0     H49236   9.372   7.761   9.007  0.5133 -3.0340  2.8418
  374MOL0     O49237   5.732   3.945   4.979 -1.4363 -0.3964 -0.0705
  374MOL0     C49238   5.690   4.004   4.877  0.3346 -0.1000 -0.6106
  374MOL0     O49239   5.551   4.016   4.844  0.0743  0.2271  0.0575
  374MOL0     C49240   5.458   3.987   4.941 -0.7151 -0.4988  0.9034
  374MOL0     C49241   5.422   4.087   5.030 -0.0968 -0.8393 -0.0940
  374MOL0     C49242   5.323   4.071   5.120 -0.1416  0.2482 -0.2828
  374MOL0     C49243   5.252   3.952   5.132  0.0647 -0.5163 -0.1796
  374MOL0     O49244   5.160   3.948   5.235  1.1862  0.1213  0.3759
  374MOL0     C49245   5.111   3.824   5.297  0.8501  0.0242  0.2954
  374MOL0     C49246   5.027   3.857   5.411  0.9913 -0.4019  0.2386
  374MOL0     C49247   4.917   3.960   5.359 -0.0838 -0.1860  0.1277
  374MOL0     C49248   4.837   4.014   5.473 -0.3129  0.0308 -0.4277
  374MOL0     C49249   4.727   4.106   5.443 -0.0058 -0.2965 -0.2964
  374MOL0     C49250   4.755   4.230   5.356 -0.6356  0.3814  0.3415
  374MOL0     C49251   4.642   4.336   5.343  0.6659  0.0803  0.5247
  374MOL0     C49252   4.538   4.278   5.243  0.0295 -0.2629 -1.2158
  374MOL0     N49253   4.410   4.360   5.237 -0.4398 -0.8261  0.3488
  374MOL0     C49254   4.329   4.380   5.344  0.0502 -0.5664 -0.2742
  374MOL0     C49255   4.229   4.464   5.304 -0.3946 -0.4074 -0.2477
  374MOL0     C49256   4.104   4.506   5.382  0.2238  0.6668  0.5366
  374MOL0     C49257   3.996   4.572   5.296 -0.1612  0.2652  0.6798
  374MOL0     C49258   3.907   4.472   5.227  0.3198 -0.1409 -0.0168
  374MOL0     C49259   3.800   4.544   5.141 -0.6406 -0.5589  0.2736
  374MOL0     O49260   3.677   4.575   5.215 -0.3240 -0.2795 -0.1901
  374MOL0     C49261   3.557   4.553   5.161 -0.3463  0.0240  0.6825
  374MOL0     C49262   3.541   4.543   5.019 -0.3847 -0.8369  0.2503
  374MOL0     C49263   3.416   4.529   4.959  0.8123  0.5043  0.2358
  374MOL0     C49264   3.296   4.510   5.042 -0.7431 -0.6775  0.7334
  374MOL0     C49265   3.165   4.488   4.994  0.0806 -0.2483  0.2889
  374MOL0     O49266   3.153   4.481   4.852 -0.8052  0.5376 -0.4547
  374MOL0     C49267   3.029   4.456   4.794  0.4216  0.0157  0.3806
  374MOL0     C49268   3.013   4.376   4.685  0.0499  0.4447  0.4349
  374MOL0     C49269   2.890   4.347   4.624 -0.0944  0.0852  0.6236
  374MOL0     C49270   2.776   4.400   4.681 -0.7273  0.9629 -0.5934
  374MOL0     O49271   2.663   4.386   4.615 -0.2233  0.0560  0.3374
  374MOL0     C49272   2.540   4.404   4.684  0.2052 -0.8005  0.4845
  374MOL0     C49273   2.424   4.327   4.627 -0.5924 -0.5695  0.0306
  374MOL0     C49274   2.295   4.376   4.696  0.6801  0.4877 -0.7877
  374MOL0     C49275   2.186   4.277   4.666  0.2167 -0.1869  0.4266
  374MOL0     C49276   2.053   4.303   4.741  0.5770 -0.2579  0.3047
  374MOL0     C49277   1.942   4.250   4.648  1.1160  0.0191 -0.5285
  374MOL0     C49278   1.801   4.239   4.718  0.2515 -0.1382  0.3677
  374MOL0     C49279   1.707   4.153   4.633 -0.3088 -0.6491  0.9675
  374MOL0    Cl49280   1.561   4.091   4.706 -0.2177  0.1373  0.3592
  374MOL0     C49281   2.787   4.478   4.797 -0.0407  0.7995  0.4629
  374MOL0     C49282   2.915   4.508   4.842 -0.0932  0.0491  0.2416
  374MOL0     O49283   3.074   4.464   5.071 -0.2035 -0.0990  0.4237
  374MOL0     C49284   3.322   4.520   5.181 -0.5250  0.1293 -0.6131
  374MOL0     C49285   3.450   4.534   5.240 -0.3310 -0.7637  0.2634
  374MOL0     N49286   4.263   4.508   5.174  0.2749 -0.2482  0.0693
  374MOL0     N49287   4.369   4.442   5.131  0.4975 -0.0997 -0.4837
  374MOL0     C49288   5.290   3.848   5.042  0.0321  0.2818 -0.5177
  374MOL0     C49289   5.398   3.861   4.952 -0.5157  0.2732  0.7035
  374MOL0     C49290   5.792   4.063   4.791  0.7477  1.1284 -0.3368
  374MOL0     C49291   5.925   4.064   4.827 -0.8528  0.1094 -0.2502
  374MOL0     C49292   6.016   4.135   4.745  0.0961  0.5410  0.2414
  374MOL0     C49293   5.979   4.195   4.623 -0.2125 -0.0152  0.0100
  374MOL0     O49294   6.059   4.279   4.549  0.6141  0.6156  0.0865
  374MOL0     C49295   6.198   4.254   4.564 -0.1232  0.0557  0.6854
  374MOL0     C49296   6.258   4.321   4.435  1.5123  0.2341  0.2752
  374MOL0     C49297   6.398   4.285   4.423  0.3980 -0.4717 -0.0752
  374MOL0     C49298   6.474   4.368   4.325 -0.8306 -0.9172 -0.1459
  374MOL0     C49299   6.608   4.422   4.360  0.7694  0.1238  0.1204
  374MOL0     C49300   6.713   4.471   4.378  0.5391 -0.2335  0.4017
  374MOL0     C49301   5.844   4.197   4.593 -0.4194 -0.1852  0.5642
  374MOL0     C49302   5.755   4.132   4.675  0.1071  0.3634 -0.5966
  374MOL0     H49303   5.474   4.182   5.021  0.2563 -1.0168  0.0224
  374MOL0     H49304   5.286   4.143   5.192 -1.2527 -0.9138  0.3462
  374MOL0     H49305   5.195   3.761   5.325  0.1035 -1.6253 -1.0121
  374MOL0     H49306   5.062   3.761   5.222  4.3044  1.2717 -3.3993
  374MOL0     H49307   5.093   3.898   5.488  1.5820  0.8491 -0.8926
  374MOL0     H49308   4.986   3.763   5.449 -0.7632  0.5546  0.8212
  374MOL0     H49309   4.859   3.905   5.285  1.7672  0.6652 -2.0882
  374MOL0     H49310   4.961   4.046   5.305 -0.1830 -1.5821 -2.3395
  374MOL0     H49311   4.788   3.931   5.525  1.3711  1.9026  4.8107
  374MOL0     H49312   4.906   4.056   5.547  0.8182  2.5095 -2.7094
  374MOL0     H49313   4.683   4.144   5.536 -1.4711  0.9981 -1.4614
  374MOL0     H49314   4.640   4.055   5.400  0.9072 -1.6560 -0.6125
  374MOL0     H49315   4.775   4.201   5.253  3.3316 -1.7443  1.5081
  374MOL0     H49316   4.845   4.271   5.402 -0.2073  0.1621 -0.3006
  374MOL0     H49317   4.601   4.353   5.443 -0.9769  3.3802 -0.5730
  374MOL0     H49318   4.685   4.414   5.280 -1.7231  0.9065 -0.1775
  374MOL0     H49319   4.495   4.178   5.259 -2.7251  1.2177  1.9858
  374MOL0     H49320   4.587   4.280   5.146  1.5811  1.9244 -0.4603
  374MOL0     H49321   4.336   4.320   5.434  1.8906 -5.1969 -3.1359
  374MOL0     H49322   4.142   4.573   5.459  1.0788  1.2565 -0.3747
  374MOL0     H49323   4.053   4.415   5.416 -2.7937  1.0766 -2.3433
  374MOL0     H49324   4.046   4.647   5.235  3.1240 -2.0766  0.2095
  374MOL0     H49325   3.938   4.632   5.367  1.3372  2.9456 -0.2358
  374MOL0     H49326   3.970   4.409   5.163 -0.8527 -1.2202 -0.1403
  374MOL0     H49327   3.846   4.412   5.295 -0.3545  0.7365  0.1594
  374MOL0     H49328   3.783   4.470   5.062 -0.3886 -0.7526  0.4011
  374MOL0     H49329   3.834   4.640   5.099  2.8896 -2.0061 -0.5492
  374MOL0     H49330   3.628   4.561   4.956  0.2931 -1.7382  0.9077
  374MOL0     H49331   3.401   4.545   4.852 -0.2089  1.9165  0.5573
  374MOL0     H49332   3.103   4.331   4.644 -0.7768  1.0468 -2.2437
  374MOL0     H49333   2.886   4.283   4.536  0.1529  1.7778 -0.6583
  374MOL0     H49334   2.513   4.509   4.679  1.8704 -0.3572 -3.5051
  374MOL0     H49335   2.546   4.380   4.791 -1.5316 -5.1138 -0.1500
  374MOL0     H49336   2.442   4.222   4.649 -0.5217 -0.9426 -1.6698
  374MOL0     H49337   2.409   4.346   4.520 -1.0367  1.5430  0.4262
  374MOL0     H49338   2.269   4.472   4.651 -0.2740  0.9810  0.7578
  374MOL0     H49339   2.295   4.383   4.805 -0.0339  0.7748 -0.8019
  374MOL0     H49340   2.162   4.282   4.559  0.4717 -3.1355  0.1545
  374MOL0     H49341   2.212   4.171   4.677  0.6916 -0.1455 -0.1679
  374MOL0     H49342   2.041   4.410   4.762 -1.6680  0.2577 -2.9263
  374MOL0     H49343   2.047   4.247   4.835 -0.0090  2.9543  2.3316
  374MOL0     H49344   1.968   4.148   4.616 -0.8161 -0.9132  0.6655
  374MOL0     H49345   1.928   4.314   4.561  0.7480  0.2518 -0.3023
  374MOL0     H49346   1.822   4.191   4.814 -0.8255  0.2839  0.8278
  374MOL0     H49347   1.759   4.339   4.734 -0.2114 -0.3038  0.1867
  374MOL0     H49348   1.771   4.074   4.592  0.0178  0.4021 -0.6823
  374MOL0     H49349   1.679   4.206   4.541  0.7004 -0.1428  0.9329
  374MOL0     H49350   2.702   4.531   4.838 -1.1545 -0.5449 -0.0187
  374MOL0     H49351   2.917   4.580   4.924 -1.8975  0.4231  0.0023
  374MOL0     H49352   3.247   4.504   5.258  2.3176 -1.7769  2.0004
  374MOL0     H49353   3.474   4.548   5.345  2.5959  0.8933 -0.4970
  374MOL0     H49354   5.236   3.758   5.070 -0.5933  0.7440 -0.1851
  374MOL0     H49355   5.431   3.785   4.882 -0.4891 -0.7532  1.7946
  374MOL0     H49356   5.959   4.004   4.911 -0.5837  0.5399 -0.0476
  374MOL0     H49357   6.119   4.147   4.777 -0.4727 -0.0180  2.4644
  374MOL0     H49358   6.222   4.148   4.566  0.8468  0.2587  0.2156
  374MOL0     H49359   6.225   4.304   4.658 -1.1478 -0.3052  1.1876
  374MOL0     H49360   6.209   4.278   4.347 -0.0265 -2.2735  2.2317
  374MOL0     H49361   6.236   4.428   4.442 -0.7657 -0.1694  0.1089
  374MOL0     H49362   6.411   4.180   4.395  0.2856 -0.1799 -1.2628
  374MOL0     H49363   6.443   4.303   4.521 -0.5262  1.3710  0.0462
  374MOL0     H49364   6.495   4.310   4.234 -2.7079 -0.6805 -0.7746
  374MOL0     H49365   6.416   4.456   4.296  1.1910 -0.0197 -1.7133
  374MOL0     H49366   6.811   4.508   4.398  1.1765 -0.8138 -1.4851
  374MOL0     H49367   5.813   4.251   4.504  0.3533  0.1416  0.4886
  374MOL0     H49368   5.648   4.131   4.656 -1.4470 -1.5493  5.8723
  375MOL0     O49369   9.349   7.482   1.866  0.0261 -0.1739 -0.4205
  375MOL0     C49370   9.377   7.549   1.964  0.2008 -0.3923  0.1069
  375MOL0     O49371   9.295   7.646   2.003 -0.0122 -0.1790 -0.0796
  375MOL0     C49372   9.166   7.634   1.960 -0.3905  0.7887 -0.2807
  375MOL0     C49373   9.061   7.616   2.056 -0.0830  0.2959  0.5352
  375MOL0     C49374   8.933   7.648   2.015  0.3839 -0.1591 -0.0764
  375MOL0     C49375   8.903   7.696   1.892  0.0689  0.3181  0.1281
  375MOL0     O49376   8.767   7.695   1.877  0.3808 -0.6163  0.6199
  375MOL0     C49377   8.721   7.704   1.743 -0.4490  0.6739  0.7062
  375MOL0     C49378   8.569   7.707   1.734 -0.2933  0.0988 -0.7732
  375MOL0     C49379   8.512   7.730   1.594 -0.6041 -0.5297 -0.6499
  375MOL0     C49380   8.359   7.757   1.591 -0.9427 -0.2615 -0.2089
  375MOL0     C49381   8.280   7.668   1.492 -0.5541  0.2891 -0.5042
  375MOL0     C49382   8.275   7.523   1.540 -0.5051 -0.1177  0.3468
  375MOL0     C49383   8.169   7.446   1.456 -0.3755 -0.4612  0.2166
  375MOL0     C49384   8.033   7.500   1.459  0.1748 -0.3375 -0.2214
  375MOL0     N49385   7.937   7.404   1.404  0.6591 -0.1230 -0.6147
  375MOL0     C49386   7.895   7.401   1.274  0.6585  0.1539  0.2469
  375MOL0     C49387   7.815   7.289   1.275 -0.4148 -0.6769  0.2194
  375MOL0     C49388   7.752   7.235   1.161  0.5334 -0.0227  0.6937
  375MOL0     C49389   7.603   7.258   1.175 -0.4935  0.0437 -0.8291
  375MOL0     C49390   7.541   7.202   1.046  0.0377 -0.2228  0.1993
  375MOL0     C49391   7.400   7.251   1.009 -0.3854  0.4191  0.4638
  375MOL0     O49392   7.315   7.227   1.126 -0.6907  0.3506 -0.7849
  375MOL0     C49393   7.184   7.267   1.115  0.0630  0.5615 -0.6400
  375MOL0     C49394   7.140   7.365   1.022  0.0535  0.3800  0.5798
  375MOL0     C49395   7.007   7.405   1.024  0.8404  0.5758 -0.9265
  375MOL0     C49396   6.911   7.339   1.096  0.3383  0.8198  0.1282
  375MOL0     C49397   6.771   7.386   1.093 -0.2118 -0.2328 -0.0801
  375MOL0     O49398   6.675   7.323   1.174  0.3275  0.1938  0.0400
  375MOL0     C49399   6.562   7.396   1.204  1.0367 -0.7210 -0.8884
  375MOL0     C49400   6.438   7.337   1.200  0.6256  0.0050 -0.0795
  375MOL0     C49401   6.326   7.409   1.234  0.1956 -0.0102 -0.1082
  375MOL0     C49402   6.331   7.537   1.279  0.1104  0.3801  0.1538
  375MOL0     O49403   6.214   7.591   1.314 -0.6508  0.3185 -0.2382
  375MOL0     C49404   6.217   7.728   1.361  0.5774 -0.5437  0.0053
  375MOL0     C49405   6.075   7.772   1.397 -0.1746 -1.0986  0.6053
  375MOL0     C49406   6.000   7.832   1.275 -0.8471  0.5285 -0.5240
  375MOL0     C49407   5.873   7.912   1.304  0.5734 -0.0550  0.2468
  375MOL0     C49408   5.811   7.982   1.178 -0.0633 -0.4158 -0.1268
  375MOL0     C49409   5.696   7.907   1.126 -0.2041 -0.2475 -0.7061
  375MOL0     C49410   5.625   7.965   1.017  0.0313 -0.1567 -0.5837
  375MOL0     C49411   5.706   7.983   0.892 -0.2178 -0.0214  0.1347
  375MOL0    Cl49412   5.611   8.038   0.759  0.0406  0.0035  0.0319
  375MOL0     C49413   6.451   7.592   1.294  0.4005  0.1896 -0.3275
  375MOL0     C49414   6.564   7.522   1.260 -0.3681  0.1099  0.0444
  375MOL0     O49415   6.745   7.482   1.023 -0.5976 -0.2856  0.6935
  375MOL0     C49416   6.947   7.237   1.181  0.1780  0.0555 -0.4795
  375MOL0     C49417   7.085   7.205   1.196 -0.3446  0.3604 -1.2041
  375MOL0     N49418   7.814   7.232   1.396  0.2145 -0.9582  0.1575
  375MOL0     N49419   7.892   7.295   1.476 -0.1846 -0.2563  1.4865
  375MOL0     C49420   9.004   7.713   1.795 -0.1709 -0.7092 -0.1806
  375MOL0     C49421   9.132   7.685   1.832 -0.6775 -0.3622  0.0379
  375MOL0     C49422   9.502   7.518   2.046 -0.4046  0.2670 -0.0156
  375MOL0     C49423   9.540   7.582   2.170 -1.2269 -0.4526  0.1015
  375MOL0     C49424   9.658   7.562   2.233 -1.3220  0.4027 -0.3654
  375MOL0     C49425   9.751   7.478   2.171 -0.3004  0.0489 -0.2680
  375MOL0     O49426   9.875   7.466   2.229  0.1126  0.0267 -0.7419
  375MOL0     C49427   9.920   7.326   2.247 -0.9182 -0.5044 -0.7685
  375MOL0     C49428   9.936   7.308   2.398  0.3656 -0.3794 -1.2217
  375MOL0     C49429   9.795   7.301   2.463 -0.7408 -0.0413 -0.1313
  375MOL0     C49430   9.806   7.270   2.616 -0.4131 -0.3206 -0.1136
  375MOL0     C49431   9.675   7.277   2.682 -0.0829 -0.1099 -0.3190
  375MOL0     C49432   9.564   7.249   2.732  0.4407 -0.7510 -0.0180
  375MOL0     C49433   9.717   7.411   2.054 -0.3796 -0.4037  0.2994
  375MOL0     C49434   9.595   7.428   1.995  0.0034  0.4638  0.7717
  375MOL0     H49435   9.093   7.590   2.156 -0.1235  2.0048  1.0240
  375MOL0     H49436   8.847   7.624   2.077  0.0328  2.0754  0.4043
  375MOL0     H49437   8.764   7.620   1.688  1.6703  1.3124  1.2881
  375MOL0     H49438   8.761   7.791   1.690  0.0846 -1.0099 -1.8082
  375MOL0     H49439   8.531   7.791   1.793 -3.2354 -0.7535 -1.2752
  375MOL0     H49440   8.529   7.615   1.777  1.5147 -1.2362 -1.8035
  375MOL0     H49441   8.531   7.636   1.540  2.7453 -0.1072 -0.4090
  375MOL0     H49442   8.575   7.804   1.543  0.3365 -0.7517  0.1558
  375MOL0     H49443   8.305   7.738   1.684 -1.3873 -0.7858 -0.5692
  375MOL0     H49444   8.349   7.862   1.561 -0.1516 -0.8616 -2.7818
  375MOL0     H49445   8.333   7.671   1.396  1.2670  2.4398  0.4784
  375MOL0     H49446   8.180   7.711   1.480 -1.4458 -1.4360  0.3574
  375MOL0     H49447   8.250   7.521   1.647  0.1118 -1.3524  0.4896
  375MOL0     H49448   8.373   7.479   1.518  0.0964  2.3161 -2.4132
  375MOL0     H49449   8.198   7.438   1.351 -0.4144 -0.4689  0.2063
  375MOL0     H49450   8.164   7.350   1.507 -0.8417 -1.1082 -1.0205
  375MOL0     H49451   8.021   7.594   1.405  0.7748 -0.3178 -0.3336
  375MOL0     H49452   8.006   7.511   1.564  1.4278  0.9778 -0.0045
  375MOL0     H49453   7.915   7.466   1.189  0.9341 -3.4116 -2.6744
  375MOL0     H49454   7.768   7.127   1.158  0.4261 -0.0276  0.1570
  375MOL0     H49455   7.780   7.274   1.063 -2.0691 -0.9800 -0.5203
  375MOL0     H49456   7.598   7.367   1.189  0.3357 -0.1036  0.8643
  375MOL0     H49457   7.568   7.195   1.257 -2.1968 -0.0499 -1.5796
  375MOL0     H49458   7.608   7.212   0.960  0.8652  2.6126  1.0607
  375MOL0     H49459   7.535   7.094   1.062  0.3402  0.0104  2.0461
  375MOL0     H49460   7.363   7.209   0.915 -1.1857  1.5437  0.2542
  375MOL0     H49461   7.403   7.358   0.987 -0.2613  0.1131 -1.1178
  375MOL0     H49462   7.213   7.416   0.960  2.6288 -2.0700  1.3872
  375MOL0     H49463   6.969   7.469   0.944 -3.3936  0.9016  1.0810
  375MOL0     H49464   6.432   7.231   1.181  1.8143 -0.1090  0.0718
  375MOL0     H49465   6.229   7.361   1.229  0.3323 -0.7282  2.6342
  375MOL0     H49466   6.250   7.800   1.286  1.1077 -0.3844  0.3891
  375MOL0     H49467   6.285   7.732   1.446 -0.3744 -0.6121  0.7890
  375MOL0     H49468   6.073   7.848   1.475 -3.5937  3.1816 -3.1201
  375MOL0     H49469   6.010   7.687   1.420 -3.2962  0.4294 -1.7809
  375MOL0     H49470   5.973   7.754   1.202  3.4218  1.4836 -3.5079
  375MOL0     H49471   6.073   7.901   1.233  2.5965 -2.7596 -0.4686
  375MOL0     H49472   5.799   7.849   1.354 -0.9304  1.3236 -0.1775
  375MOL0     H49473   5.914   7.989   1.369  0.3176  0.3702 -0.0911
  375MOL0     H49474   5.883   7.973   1.096  2.6103 -0.0494  2.0529
  375MOL0     H49475   5.799   8.090   1.187  1.3664 -0.2439 -0.1061
  375MOL0     H49476   5.626   7.900   1.211  0.2300  3.3236  0.1175
  375MOL0     H49477   5.731   7.809   1.094 -0.3441  0.3411 -2.8202
  375MOL0     H49478   5.534   7.907   0.998 -0.4349  0.2153  0.4236
  375MOL0     H49479   5.591   8.066   1.038  1.7134  0.3401 -0.1197
  375MOL0     H49480   5.750   7.886   0.867 -1.1739 -0.4715  0.1689
  375MOL0     H49481   5.781   8.061   0.911  1.5205 -2.0179  2.0312
  375MOL0     H49482   6.471   7.691   1.334 -1.4429 -0.5303  2.7424
  375MOL0     H49483   6.664   7.562   1.271  0.5009 -1.4617 -1.5934
  375MOL0     H49484   6.879   7.192   1.253 -0.1095  1.5501  0.2419
  375MOL0     H49485   7.126   7.149   1.280  0.1801 -0.4902 -2.0144
  375MOL0     H49486   8.984   7.749   1.695  1.4881  0.8794  0.0064
  375MOL0     H49487   9.197   7.710   1.749  1.2280  1.1759  1.8790
  375MOL0     H49488   9.468   7.654   2.208 -2.2795  0.0510 -2.6303
  375MOL0     H49489   9.691   7.628   2.313  4.4264  0.2576 -2.1739
  375MOL0     H49490  10.021   7.325   2.206  1.0723 -0.2119  3.5096
  375MOL0     H49491   9.858   7.248   2.202 -0.5384 -0.2511 -1.7466
  375MOL0     H49492   9.995   7.221   2.428 -0.5646 -2.0480 -3.8935
  375MOL0     H49493   9.984   7.397   2.439 -0.3063 -0.2630 -0.6615
  375MOL0     H49494   9.743   7.213   2.425 -0.8267 -0.1841  0.3141
  375MOL0     H49495   9.740   7.393   2.445  0.6907  0.4982 -2.0975
  375MOL0     H49496   9.849   7.172   2.638  1.2250  0.9455  2.9406
  375MOL0     H49497   9.867   7.348   2.664  0.7399 -3.1582  3.4997
  375MOL0     H49498   9.467   7.240   2.776 -0.0450 -0.5652 -1.0215
  375MOL0     H49499   9.777   7.337   2.001  0.0010  1.5879 -2.2713
  375MOL0     H49500   9.568   7.383   1.900  0.6802  1.0171  0.3057
  376MOL0     O49501   5.152   8.671   0.915 -0.4281  0.0484 -0.5762
  376MOL0     C49502   5.220   8.594   0.839  0.4271 -0.1785 -0.3829
  376MOL0     O49503   5.171   8.552   0.721 -0.1449  0.2856 -0.7432
  376MOL0     C49504   5.040   8.533   0.698 -0.6491  0.3118  0.1250
  376MOL0     C49505   4.955   8.478   0.794  0.3514  0.1777  0.3074
  376MOL0     C49506   4.825   8.433   0.765  0.6950  0.3148  0.2274
  376MOL0     C49507   4.784   8.443   0.632 -0.4396 -0.7355 -0.1448
  376MOL0     O49508   4.656   8.401   0.604 -0.3129  0.1956  1.0143
  376MOL0     C49509   4.637   8.341   0.473  0.5880 -0.4854 -0.4013
  376MOL0     C49510   4.493   8.290   0.463  0.3732  1.1115  0.0359
  376MOL0     C49511   4.381   8.363   0.543  0.3441 -0.8175 -0.3504
  376MOL0     C49512   4.240   8.297   0.527 -0.0306 -0.1601 -0.4808
  376MOL0     C49513   4.127   8.390   0.576 -0.4936  0.5712 -0.8991
  376MOL0     C49514   3.992   8.342   0.512  0.1562  0.2819 -0.8243
  376MOL0     C49515   3.873   8.429   0.564 -0.4372 -0.5815  0.0484
  376MOL0     C49516   3.904   8.572   0.601 -0.5290 -0.4020  0.1823
  376MOL0     N49517   3.780   8.645   0.624  0.3300 -0.5706  0.9107
  376MOL0     C49518   3.646   8.603   0.646  0.0350 -0.8221  0.3204
  376MOL0     C49519   3.584   8.721   0.659  0.0127 -1.4853  0.1196
  376MOL0     C49520   3.430   8.750   0.668 -0.6327 -0.3039  0.9208
  376MOL0     C49521   3.395   8.854   0.775 -0.5468 -0.3825  0.1510
  376MOL0     C49522   3.436   8.824   0.919 -0.0433  0.4848  0.2364
  376MOL0     C49523   3.405   8.682   0.959  0.3858  0.0110  0.1952
  376MOL0     O49524   3.398   8.657   1.099  0.1542 -0.0975  1.4104
  376MOL0     C49525   3.499   8.672   1.185  0.6756 -0.7429  0.9266
  376MOL0     C49526   3.466   8.706   1.312 -0.6232  1.1056  0.2735
  376MOL0     C49527   3.564   8.730   1.413  0.0561 -0.6265 -0.4737
  376MOL0     C49528   3.699   8.719   1.383  0.7177 -0.4253 -0.4213
  376MOL0     C49529   3.800   8.730   1.493  0.0099  0.7780  0.4951
  376MOL0     O49530   3.927   8.701   1.445 -0.0056  0.4230 -0.0625
  376MOL0     C49531   4.035   8.749   1.525  0.4362  0.3360  0.7763
  376MOL0     C49532   4.137   8.824   1.463 -0.2968 -0.1740  0.1707
  376MOL0     C49533   4.246   8.859   1.537 -0.3544  0.7111  0.5068
  376MOL0     C49534   4.249   8.838   1.675  1.1724 -0.2663  0.7530
  376MOL0     O49535   4.359   8.877   1.744 -0.0265  0.3577 -0.8902
  376MOL0     C49536   4.391   9.020   1.737  0.7574  0.2514 -0.0987
  376MOL0     C49537   4.502   9.079   1.825  0.4170 -0.6299 -0.1024
  376MOL0     C49538   4.637   9.047   1.760  0.4473 -0.2386 -0.6672
  376MOL0     C49539   4.747   9.083   1.855  0.2842  0.5466 -0.0541
  376MOL0     C49540   4.892   9.056   1.794  0.9541  0.3672 -0.2285
  376MOL0     C49541   4.906   9.123   1.656 -0.3045 -0.0442  0.0716
  376MOL0     C49542   5.062   9.150   1.633  0.0475 -0.2390 -0.4080
  376MOL0     C49543   5.099   9.200   1.497  0.5112 -1.1790 -0.4050
  376MOL0    Cl49544   5.020   9.363   1.488  0.1717  0.1319 -0.1202
  376MOL0     C49545   4.148   8.767   1.734 -0.6764  0.5868  0.2365
  376MOL0     C49546   4.045   8.718   1.660 -0.1432  0.0405  0.3246
  376MOL0     O49547   3.781   8.771   1.603 -0.1058 -0.2406  0.0437
  376MOL0     C49548   3.728   8.673   1.251 -0.4818 -0.0086 -0.4065
  376MOL0     C49549   3.632   8.657   1.147  0.4890 -0.3085  0.1072
  376MOL0     N49550   3.678   8.825   0.639  0.0116  0.6640  0.1129
  376MOL0     N49551   3.790   8.781   0.621 -0.2392  0.4044 -0.4139
  376MOL0     C49552   4.873   8.483   0.535  0.6492 -0.7670 -0.2477
  376MOL0     C49553   4.997   8.527   0.570 -0.2969  0.6434 -0.3759
  376MOL0     C49554   5.350   8.564   0.883 -0.0356  0.0128 -0.5065
  376MOL0     C49555   5.413   8.437   0.835  0.3957  0.1981 -0.7691
  376MOL0     C49556   5.532   8.384   0.887  0.6193 -0.3052 -0.0081
  376MOL0     C49557   5.597   8.456   0.988 -0.6358 -0.1966 -0.8484
  376MOL0     O49558   5.723   8.398   1.018  0.0270 -0.5017  0.3622
  376MOL0     C49559   5.824   8.497   1.065 -0.2239  0.5656 -0.4668
  376MOL0     C49560   5.945   8.411   1.083  0.3500  0.1810  0.6857
  376MOL0     C49561   6.052   8.490   1.160  0.4030  0.4114 -0.8001
  376MOL0     C49562   6.192   8.440   1.151 -0.5736  0.2315 -0.1278
  376MOL0     C49563   6.210   8.303   1.200  0.4341 -0.0849  0.4149
  376MOL0     C49564   6.237   8.195   1.244  1.1999  0.1864 -0.0963
  376MOL0     C49565   5.542   8.580   1.027 -0.1442 -1.2196 -0.5979
  376MOL0     C49566   5.423   8.632   0.974 -0.2434 -0.3811 -0.0164
  376MOL0     H49567   4.988   8.469   0.897 -2.3286 -0.7750  1.1924
  376MOL0     H49568   4.762   8.400   0.847 -0.0589  0.3927 -0.3092
  376MOL0     H49569   4.710   8.263   0.448  0.4354 -0.7758  0.0597
  376MOL0     H49570   4.645   8.419   0.397 -2.0305 -0.2009 -0.4504
  376MOL0     H49571   4.495   8.191   0.509 -1.7300  1.3658  0.7622
  376MOL0     H49572   4.473   8.270   0.357 -2.0070 -2.4723  0.9711
  376MOL0     H49573   4.371   8.468   0.514  0.7812 -0.3012  1.2881
  376MOL0     H49574   4.399   8.366   0.651  3.8219 -1.9612 -0.7652
  376MOL0     H49575   4.228   8.271   0.421 -0.7441  1.1250 -0.7317
  376MOL0     H49576   4.231   8.200   0.578 -0.3882  1.0807  1.9699
  376MOL0     H49577   4.155   8.490   0.540  0.0760  1.0402  0.7379
  376MOL0     H49578   4.123   8.384   0.685 -4.1275  3.0152 -0.7364
  376MOL0     H49579   3.966   8.240   0.540 -0.8177  0.9687  0.9579
  376MOL0     H49580   3.991   8.339   0.403  1.2126 -2.0138 -0.8129
  376MOL0     H49581   3.788   8.432   0.495  1.4370  0.5176 -2.2995
  376MOL0     H49582   3.840   8.385   0.659  1.3870 -1.4453  0.3076
  376MOL0     H49583   3.958   8.621   0.519  0.1479 -0.5225  0.5459
  376MOL0     H49584   3.961   8.559   0.693 -0.9458 -2.6958  0.1626
  376MOL0     H49585   3.603   8.503   0.652 -1.0976 -0.5655 -2.2472
  376MOL0     H49586   3.374   8.660   0.695  0.7763 -1.8097 -0.8640
  376MOL0     H49587   3.399   8.795   0.573  1.8534  0.2058  0.2941
  376MOL0     H49588   3.286   8.858   0.769 -0.5847 -0.6642  0.6404
  376MOL0     H49589   3.433   8.955   0.755  3.3060 -2.0127 -1.7523
  376MOL0     H49590   3.545   8.826   0.926  0.2328  0.2334 -2.6862
  376MOL0     H49591   3.377   8.884   0.989 -1.6202 -0.8117  0.0847
  376MOL0     H49592   3.474   8.614   0.907  1.5581  1.9671 -0.9545
  376MOL0     H49593   3.303   8.662   0.927  0.1246  1.9867 -0.3599
  376MOL0     H49594   3.359   8.717   1.322 -1.0057 -0.0012 -1.9299
  376MOL0     H49595   3.529   8.754   1.513 -0.2894 -0.1075 -0.7171
  376MOL0     H49596   4.130   8.825   1.355  2.0358 -0.1137 -0.0364
  376MOL0     H49597   4.333   8.893   1.482 -1.2996  0.8954 -0.9208
  376MOL0     H49598   4.300   9.076   1.757  2.5047  3.4226 -0.4451
  376MOL0     H49599   4.414   9.036   1.631 -1.3173  0.3084 -0.5818
  376MOL0     H49600   4.483   9.028   1.920  2.7406  0.4264  1.0032
  376MOL0     H49601   4.494   9.187   1.840  0.1979 -0.8442  1.5502
  376MOL0     H49602   4.657   9.101   1.667  2.2643  0.3029  0.0053
  376MOL0     H49603   4.625   8.941   1.736 -3.4503  0.4613 -2.7470
  376MOL0     H49604   4.726   9.182   1.895 -0.7998 -0.3418  1.6548
  376MOL0     H49605   4.738   9.022   1.945  0.0437 -1.8668 -1.5981
  376MOL0     H49606   4.914   8.950   1.785  0.4894 -0.0719  2.7067
  376MOL0     H49607   4.961   9.096   1.869  1.1130 -2.8501  1.5172
  376MOL0     H49608   4.854   9.219   1.650 -1.5069 -0.6921 -0.3895
  376MOL0     H49609   4.870   9.057   1.576  0.3551  0.5622 -0.7381
  376MOL0     H49610   5.103   9.215   1.710  0.2384 -1.1327  0.2739
  376MOL0     H49611   5.102   9.048   1.640 -0.6219 -0.6660 -2.1898
  376MOL0     H49612   5.051   9.127   1.431 -1.9043 -0.0454 -0.0300
  376MOL0     H49613   5.206   9.207   1.478  0.5170 -1.1581 -0.3644
  376MOL0     H49614   4.151   8.732   1.837 -1.3805 -1.4726 -0.3905
  376MOL0     H49615   3.969   8.659   1.710 -1.1989 -0.6075 -1.9415
  376MOL0     H49616   3.833   8.654   1.232 -0.1282  0.9350  0.4930
  376MOL0     H49617   3.660   8.624   1.048  2.1660  2.7151 -0.5493
  376MOL0     H49618   4.857   8.479   0.427 -1.7516 -0.3005  0.0311
  376MOL0     H49619   5.072   8.555   0.496  0.2279  1.6504  0.5174
  376MOL0     H49620   5.357   8.387   0.757 -1.8245  3.1185 -1.1994
  376MOL0     H49621   5.582   8.298   0.842 -0.5797 -2.3217  2.2868
  376MOL0     H49622   5.792   8.532   1.163 -1.0635  1.0621 -0.9174
  376MOL0     H49623   5.838   8.577   0.993  1.7427  0.7507  0.0622
  376MOL0     H49624   5.925   8.318   1.138 -1.7197  0.2078  0.0463
  376MOL0     H49625   5.985   8.382   0.985  0.4179  0.3533  0.6629
  376MOL0     H49626   6.042   8.499   1.268  0.6454  1.0817 -0.8300
  376MOL0     H49627   6.051   8.592   1.121 -1.2980 -0.7433 -4.1395
  376MOL0     H49628   6.229   8.445   1.047  0.8157 -0.6217  0.2876
  376MOL0     H49629   6.253   8.508   1.211  1.4703  1.1020 -2.9606
  376MOL0     H49630   6.259   8.105   1.297  0.7759 -0.5050 -1.0585
  376MOL0     H49631   5.604   8.644   1.089 -2.1817 -0.7790  1.0799
  376MOL0     H49632   5.399   8.732   1.010  0.4668 -0.1730 -0.1072
  377MOL0     O49633   9.310   4.372   4.060  0.4367  0.0612 -0.7853
  377MOL0     C49634   9.388   4.457   4.017 -0.7495  0.6654  0.0819
  377MOL0     O49635   9.525   4.439   4.001  0.9328 -0.1977  0.1478
  377MOL0     C49636   9.603   4.331   4.037  0.7287 -0.4784  0.1975
  377MOL0     C49637   9.547   4.204   4.074 -1.1571 -0.0630 -0.1249
  377MOL0     C49638   9.636   4.112   4.142  0.9895 -0.6468  0.2741
  377MOL0     C49639   9.773   4.125   4.144  0.4323  0.7309 -0.6335
  377MOL0     O49640   9.861   4.045   4.202  0.2911 -0.6034 -0.8480
  377MOL0     C49641   9.851   3.905   4.165 -0.6834 -0.2942 -0.1547
  377MOL0     C49642   9.957   3.807   4.225 -0.6076 -0.6302  1.0900
  377MOL0     C49643  10.092   3.856   4.166 -1.0965  1.0117 -0.3252
  377MOL0     C49644  10.202   3.770   4.208  0.4011 -0.2542 -0.8425
  377MOL0     C49645  10.342   3.837   4.187  1.2103 -0.4881  0.5182
  377MOL0     C49646  10.454   3.752   4.239  0.5807  0.7042 -0.2791
  377MOL0     C49647  10.585   3.836   4.241 -0.4727 -0.5109 -0.4975
  377MOL0     C49648  10.710   3.756   4.279 -0.2913  0.4067 -0.4422
  377MOL0     N49649  10.689   3.641   4.376  0.5777 -0.3036 -0.1721
  377MOL0     C49650  10.641   3.656   4.505  0.7762  0.6037  0.3995
  377MOL0     C49651  10.643   3.526   4.553 -0.2950 -0.1670  0.0798
  377MOL0     C49652  10.612   3.490   4.694  0.1728 -0.7030  0.1023
  377MOL0     C49653  10.520   3.373   4.714  0.1177 -0.0464 -0.8216
  377MOL0     C49654  10.500   3.349   4.865 -0.4544 -0.3325 -0.1806
  377MOL0     C49655  10.411   3.225   4.873  0.5698 -0.9105  0.0644
  377MOL0     O49656  10.270   3.256   4.838 -0.1495 -0.5373  0.2780
  377MOL0     C49657  10.165   3.170   4.871  0.2480 -0.3275  0.2976
  377MOL0     C49658  10.169   3.050   4.941 -0.4335  0.0210 -0.6350
  377MOL0     C49659  10.048   2.984   4.970  0.3254 -0.3296 -0.0037
  377MOL0     C49660   9.930   3.031   4.923  0.6407  0.9147 -0.6307
  377MOL0     C49661   9.808   2.953   4.955  0.2146 -0.6329 -1.0363
  377MOL0     O49662   9.689   3.007   4.895  0.1111 -0.1051  0.4470
  377MOL0     C49663   9.568   2.960   4.940 -0.8761 -0.9087  1.0501
  377MOL0     C49664   9.486   2.906   4.843  1.1095 -0.1680  0.1852
  377MOL0     C49665   9.363   2.850   4.887  0.5230  0.1117  0.2152
  377MOL0     C49666   9.331   2.843   5.022  0.3565 -0.0466 -0.0363
  377MOL0     O49667   9.208   2.790   5.051 -0.3758 -0.5914 -0.1480
  377MOL0     C49668   9.195   2.733   5.180  0.9743 -0.5760 -0.0760
  377MOL0     C49669   9.056   2.657   5.183 -0.4946 -0.4099  0.0107
  377MOL0     C49670   9.014   2.627   5.330 -0.4626 -0.3454 -0.4749
  377MOL0     C49671   8.876   2.566   5.327  0.0923 -0.6429 -0.7705
  377MOL0     C49672   8.837   2.500   5.461  0.2378 -0.7528  0.4005
  377MOL0     C49673   8.678   2.492   5.472 -0.2894  0.1640 -0.4135
  377MOL0     C49674   8.614   2.494   5.606 -0.6349 -0.2744  0.2955
  377MOL0     C49675   8.615   2.360   5.680 -0.1684  0.2523 -0.2909
  377MOL0    Cl49676   8.543   2.223   5.591 -0.4393 -0.2953 -0.3399
  377MOL0     C49677   9.419   2.896   5.113 -0.2541  0.4313 -0.5212
  377MOL0     C49678   9.538   2.951   5.071  0.6578  1.7099 -0.9193
  377MOL0     O49679   9.810   2.869   5.044 -0.5671 -0.1429  0.7218
  377MOL0     C49680   9.919   3.147   4.852 -0.0523  0.0172 -0.4326
  377MOL0     C49681  10.039   3.217   4.829  0.2272 -0.1068  0.8109
  377MOL0     N49682  10.679   3.444   4.450 -0.0387 -0.5916 -0.5227
  377MOL0     N49683  10.713   3.517   4.351  0.3575 -0.5182 -0.6599
  377MOL0     C49684   9.821   4.245   4.100  0.0516 -0.4689  0.7020
  377MOL0     C49685   9.745   4.345   4.044 -0.3144 -0.2819  0.1222
  377MOL0     C49686   9.335   4.599   4.017  0.2120  0.4132  0.1459
  377MOL0     C49687   9.196   4.619   3.995 -0.0250  0.0812 -0.9980
  377MOL0     C49688   9.144   4.750   3.995 -0.6890  0.2140 -0.8909
  377MOL0     C49689   9.225   4.861   3.999  0.5564  0.5611  0.5603
  377MOL0     O49690   9.159   4.979   3.984  0.2210  0.2402  0.5510
  377MOL0     C49691   9.216   5.094   4.052  0.4751 -0.1137 -0.7124
  377MOL0     C49692   9.289   5.178   3.951  0.8318 -0.7874 -0.3160
  377MOL0     C49693   9.307   5.322   3.990  0.7504 -0.0153  0.1723
  377MOL0     C49694   9.424   5.397   3.938 -1.0276  0.1972  0.7157
  377MOL0     C49695   9.552   5.352   3.994 -0.3059 -0.1594 -0.3812
  377MOL0     C49696   9.665   5.332   4.024  0.6827  0.1314 -0.3684
  377MOL0     C49697   9.364   4.837   4.021  0.1355 -0.5533 -0.8647
  377MOL0     C49698   9.419   4.704   4.038 -0.2411 -1.5659  0.6101
  377MOL0     H49699   9.446   4.170   4.053  0.0539 -2.7416 -2.3203
  377MOL0     H49700   9.586   4.020   4.172  0.1563 -0.8217 -1.5050
  377MOL0     H49701   9.848   3.902   4.056  2.9420 -1.0757 -0.3709
  377MOL0     H49702   9.751   3.874   4.198 -0.3307 -0.2094  1.0449
  377MOL0     H49703   9.937   3.706   4.190  0.8198  0.2146 -2.6430
  377MOL0     H49704   9.965   3.806   4.335  1.9464 -0.1400  0.9852
  377MOL0     H49705  10.112   3.956   4.205  0.7276  0.8669 -0.8215
  377MOL0     H49706  10.082   3.867   4.058  2.9507  1.4482 -0.8254
  377MOL0     H49707  10.198   3.746   4.315  2.2712  0.6411 -0.5259
  377MOL0     H49708  10.198   3.675   4.155  1.0542 -0.3782 -0.6684
  377MOL0     H49709  10.351   3.929   4.246  1.9457 -0.4249  0.3147
  377MOL0     H49710  10.357   3.873   4.085 -0.5473  0.7683  0.6482
  377MOL0     H49711  10.473   3.661   4.182 -0.0814 -0.4168  1.2095
  377MOL0     H49712  10.437   3.709   4.338  0.8275 -2.9120 -1.6719
  377MOL0     H49713  10.602   3.879   4.143 -0.1798 -0.1937 -0.3083
  377MOL0     H49714  10.571   3.916   4.314  1.8203 -0.2705 -0.2663
  377MOL0     H49715  10.771   3.829   4.333 -0.9115 -0.3603  1.3999
  377MOL0     H49716  10.757   3.723   4.186  1.8794 -0.9348  1.0466
  377MOL0     H49717  10.609   3.744   4.560  2.3310  0.4536  1.6385
  377MOL0     H49718  10.559   3.578   4.731 -0.6990 -1.3107  0.3626
  377MOL0     H49719  10.708   3.475   4.743  0.5752 -0.8506 -0.7159
  377MOL0     H49720  10.549   3.278   4.669 -0.2617 -1.0473  0.9697
  377MOL0     H49721  10.426   3.406   4.670 -0.8077 -1.3338  0.1270
  377MOL0     H49722  10.595   3.328   4.914 -0.0412 -0.0392 -0.8586
  377MOL0     H49723  10.454   3.433   4.918 -0.0245  0.5442 -1.1714
  377MOL0     H49724  10.422   3.197   4.978  1.8168 -0.0014  0.1947
  377MOL0     H49725  10.457   3.145   4.813 -0.3109 -1.7363  0.4517
  377MOL0     H49726  10.259   3.009   4.983 -1.4754 -2.4721 -0.6812
  377MOL0     H49727  10.052   2.887   5.018 -0.0964 -0.9229 -1.1345
  377MOL0     H49728   9.509   2.917   4.737 -1.4115 -0.2311 -0.4228
  377MOL0     H49729   9.294   2.800   4.821 -0.9648 -1.4207  2.7541
  377MOL0     H49730   9.197   2.804   5.263  0.9704 -2.6693  1.8200
  377MOL0     H49731   9.279   2.668   5.205  0.9679  0.0840  1.7752
  377MOL0     H49732   9.054   2.561   5.129 -0.6588 -1.0099  1.0687
  377MOL0     H49733   8.980   2.723   5.140 -0.7136 -0.7403 -0.1173
  377MOL0     H49734   9.015   2.714   5.396  2.3971  0.8118 -1.8697
  377MOL0     H49735   9.084   2.555   5.375 -1.0507 -0.8214 -0.3185
  377MOL0     H49736   8.819   2.659   5.319 -0.2023 -0.5462  1.5623
  377MOL0     H49737   8.852   2.509   5.237 -2.0705 -0.0238 -0.6627
  377MOL0     H49738   8.883   2.556   5.543  2.2236  2.9571 -2.9208
  377MOL0     H49739   8.865   2.395   5.461  0.4404 -0.7162 -1.1689
  377MOL0     H49740   8.638   2.406   5.418 -2.5043  0.8470  0.0301
  377MOL0     H49741   8.638   2.577   5.415  1.2580  0.1799 -1.5518
  377MOL0     H49742   8.665   2.563   5.674  0.9267  0.5504 -1.5882
  377MOL0     H49743   8.511   2.522   5.582 -0.2325 -1.0220 -2.8152
  377MOL0     H49744   8.568   2.360   5.778 -3.3976  1.6879 -1.7057
  377MOL0     H49745   8.719   2.329   5.691  0.5868  2.1648 -1.4589
  377MOL0     H49746   9.420   2.882   5.220  2.4520 -3.1790 -0.8545
  377MOL0     H49747   9.606   2.984   5.149 -1.1400  1.3174  0.8863
  377MOL0     H49748   9.823   3.189   4.823  0.6220  2.4106  0.6069
  377MOL0     H49749  10.035   3.312   4.776 -0.8149 -1.5444 -1.9157
  377MOL0     H49750   9.930   4.249   4.096  0.1683 -2.0816  1.2330
  377MOL0     H49751   9.778   4.448   4.029 -2.8133  1.1515  3.2751
  377MOL0     H49752   9.128   4.536   3.976  1.0321 -1.0497 -0.0115
  377MOL0     H49753   9.036   4.756   3.991 -0.8164 -0.7059  0.4664
  377MOL0     H49754   9.284   5.056   4.128  0.6725 -0.9273 -1.2823
  377MOL0     H49755   9.134   5.146   4.103  1.4652 -0.0023  0.7972
  377MOL0     H49756   9.382   5.131   3.918  2.0827  1.3158 -0.0374
  377MOL0     H49757   9.226   5.166   3.862  0.2285  0.4004 -0.0740
  377MOL0     H49758   9.310   5.335   4.099 -2.9722  2.6314  0.1281
  377MOL0     H49759   9.221   5.380   3.957  0.8394  0.8407  1.3616
  377MOL0     H49760   9.424   5.399   3.829 -2.3250 -0.0845  0.6884
  377MOL0     H49761   9.422   5.502   3.968 -2.0748  0.3223  0.2578
  377MOL0     H49762   9.770   5.329   4.046  0.7416  1.3503 -0.4430
  377MOL0     H49763   9.428   4.924   4.031 -0.6395  0.0818 -1.3137
  377MOL0     H49764   9.522   4.673   4.045 -0.5150 -2.4724  0.7571
  378MOL0     O49765   5.175   2.920   6.209 -0.2023 -0.0954  0.2898
  378MOL0     C49766   5.242   2.879   6.116 -0.2675 -0.5542  0.6608
  378MOL0     O49767   5.189   2.843   5.983  0.2315 -0.1809 -0.2727
  378MOL0     C49768   5.061   2.877   5.948  0.6249  1.3607  0.1366
  378MOL0     C49769   4.953   2.789   5.970 -1.4019 -0.2371  0.2080
  378MOL0     C49770   4.825   2.843   5.958  0.8896  0.3725 -0.6754
  378MOL0     C49771   4.801   2.976   5.913  0.5369  0.1572  0.1964
  378MOL0     O49772   4.682   3.027   5.882  0.1578  0.3704  1.2130
  378MOL0     C49773   4.573   2.932   5.881 -0.3600  0.1698  0.4321
  378MOL0     C49774   4.438   3.002   5.852  0.6021 -0.2077 -0.3549
  378MOL0     C49775   4.429   3.056   5.717  0.4240 -0.4855  0.5906
  378MOL0     C49776   4.276   3.095   5.697 -0.4271  0.1622 -0.2188
  378MOL0     C49777   4.182   2.994   5.644  0.4259  1.6518  0.2049
  378MOL0     C49778   4.060   3.065   5.588  0.4720 -0.3253 -0.5164
  378MOL0     C49779   3.949   2.967   5.561  0.4509 -0.0823  0.1828
  378MOL0     C49780   3.843   3.011   5.462 -0.0127 -0.9505  0.7483
  378MOL0     N49781   3.721   2.928   5.461 -0.2662 -0.9917  0.6007
  378MOL0     C49782   3.704   2.820   5.373  0.3195  0.4429 -0.9288
  378MOL0     C49783   3.568   2.802   5.378 -0.1127  0.3405  0.4099
  378MOL0     C49784   3.492   2.693   5.305  0.1502 -0.3620 -0.4890
  378MOL0     C49785   3.484   2.556   5.372 -0.5324 -0.0384 -0.2405
  378MOL0     C49786   3.355   2.526   5.456  0.0711 -0.2827  0.5790
  378MOL0     C49787   3.327   2.628   5.571 -0.3829 -0.7787 -0.4822
  378MOL0     O49788   3.220   2.588   5.648  0.0594  0.0907 -0.2586
  378MOL0     C49789   3.095   2.573   5.589  0.2417  0.4323 -0.0803
  378MOL0     C49790   3.053   2.666   5.490 -0.0738  0.0063 -0.0906
  378MOL0     C49791   2.937   2.629   5.418  0.2606  0.1170 -0.8652
  378MOL0     C49792   2.853   2.529   5.477  1.5154  0.0756 -0.6825
  378MOL0     C49793   2.722   2.487   5.416 -0.6201  0.1452 -0.4017
  378MOL0     O49794   2.666   2.369   5.463 -0.2039  0.0006 -0.0495
  378MOL0     C49795   2.561   2.301   5.403  0.0942 -0.3245 -0.1129
  378MOL0     C49796   2.557   2.159   5.422 -0.1256 -0.4869  0.5142
  378MOL0     C49797   2.452   2.079   5.380 -0.3438 -0.0415 -0.1339
  378MOL0     C49798   2.361   2.142   5.290  0.7762 -0.1042  0.6457
  378MOL0     O49799   2.257   2.063   5.234 -0.6686 -0.3613  0.2983
  378MOL0     C49800   2.132   2.124   5.188  0.5048 -0.6785 -0.4811
  378MOL0     C49801   2.038   2.011   5.139 -0.3695 -0.2949  0.8157
  378MOL0     C49802   1.897   2.059   5.119 -0.0107 -0.0290  0.6233
  378MOL0     C49803   1.813   1.955   5.039 -0.0680 -0.7937  0.0477
  378MOL0     C49804   1.666   1.996   5.052 -0.6466 -0.2576  1.0064
  378MOL0     C49805   1.564   1.924   4.963 -0.5760  0.6438 -0.5001
  378MOL0     C49806   1.419   1.950   5.007 -0.7622 -0.4514 -0.2929
  378MOL0     C49807   1.327   1.863   4.920  0.1311  0.0527 -0.6614
  378MOL0    Cl49808   1.157   1.898   4.955 -0.1344 -0.2540  0.0514
  378MOL0     C49809   2.368   2.280   5.258 -0.2323  0.0169  0.0054
  378MOL0     C49810   2.463   2.354   5.324  0.2229 -0.1611  0.1409
  378MOL0     O49811   2.670   2.558   5.328  0.0158  0.0426  0.5298
  378MOL0     C49812   2.889   2.457   5.594  0.5558  0.0972  0.6257
  378MOL0     C49813   3.006   2.478   5.646 -0.0705  0.0730  0.3800
  378MOL0     N49814   3.520   2.887   5.471  0.8704 -0.3358  0.3606
  378MOL0     N49815   3.603   2.961   5.523  0.4143 -0.1303 -0.1034
  378MOL0     C49816   4.908   3.049   5.880  0.1554 -0.1538  0.8967
  378MOL0     C49817   5.042   3.005   5.896 -0.0227  0.4905 -0.3070
  378MOL0     C49818   5.392   2.894   6.132 -0.6933  0.6033 -0.1334
  378MOL0     C49819   5.472   2.875   6.017  0.2313  0.2908 -0.3080
  378MOL0     C49820   5.608   2.886   6.032  0.1756 -0.4022 -0.1234
  378MOL0     C49821   5.676   2.924   6.145 -0.3112 -0.3515 -0.1921
  378MOL0     O49822   5.817   2.942   6.157  0.0845 -0.2161  0.4408
  378MOL0     C49823   5.893   2.896   6.040 -0.0114 -0.5587  0.8128
  378MOL0     C49824   5.945   3.016   5.962 -0.0158 -0.4901  0.8713
  378MOL0     C49825   5.829   3.101   5.909  0.4630 -0.5596  0.4017
  378MOL0     C49826   5.882   3.228   5.829 -0.1962 -0.6075 -0.4692
  378MOL0     C49827   5.778   3.335   5.827  0.1930 -0.2512  0.1783
  378MOL0     C49828   5.707   3.436   5.831  0.2692 -1.1330  0.3422
  378MOL0     C49829   5.600   2.955   6.257  0.4002  0.4193  0.0658
  378MOL0     C49830   5.460   2.949   6.252 -0.1124  0.4758  0.0054
  378MOL0     H49831   4.976   2.692   6.013  0.4520  0.6537  1.3324
  378MOL0     H49832   4.754   2.766   5.988  3.7567 -1.5331  1.7904
  378MOL0     H49833   4.571   2.882   5.979  1.2295 -0.7263  0.0479
  378MOL0     H49834   4.594   2.864   5.797  0.7828  0.4944  0.4422
  378MOL0     H49835   4.419   3.082   5.924  1.9744  1.1339 -1.4251
  378MOL0     H49836   4.354   2.937   5.877 -0.3102  0.2764 -1.9815
  378MOL0     H49837   4.476   3.005   5.632  0.7205  2.7116 -1.3433
  378MOL0     H49838   4.487   3.148   5.721 -0.4716  0.1177  0.0754
  378MOL0     H49839   4.229   3.124   5.791 -0.4874  1.2996 -0.5924
  378MOL0     H49840   4.269   3.190   5.644 -1.4355 -0.5673 -1.4759
  378MOL0     H49841   4.149   2.940   5.733 -0.6831  1.1450 -0.4966
  378MOL0     H49842   4.226   2.933   5.564  1.0514 -0.3330  1.9761
  378MOL0     H49843   4.072   3.113   5.490 -2.0490 -0.2416 -0.8424
  378MOL0     H49844   4.025   3.147   5.651  0.7570  0.5417 -1.4525
  378MOL0     H49845   3.988   2.867   5.539  0.3828  0.3716 -2.2561
  378MOL0     H49846   3.888   2.962   5.652 -1.7396  0.2552 -1.1885
  378MOL0     H49847   3.875   3.012   5.357 -0.3424  1.9970  0.5792
  378MOL0     H49848   3.815   3.114   5.488  0.5255 -0.0923 -1.7948
  378MOL0     H49849   3.771   2.764   5.307 -1.0633 -1.5410 -0.7435
  378MOL0     H49850   3.544   2.673   5.211 -0.3692 -1.8970 -0.4804
  378MOL0     H49851   3.392   2.730   5.282  0.2898  0.1616 -0.2653
  378MOL0     H49852   3.572   2.543   5.435  0.6074 -0.2815 -1.8352
  378MOL0     H49853   3.493   2.484   5.291 -0.1111 -2.0091  1.4704
  378MOL0     H49854   3.269   2.516   5.389 -0.7621 -0.7101  1.6737
  378MOL0     H49855   3.376   2.429   5.502  0.1904 -0.0152  1.0883
  378MOL0     H49856   3.324   2.735   5.548 -0.5042 -0.4285  1.0572
  378MOL0     H49857   3.408   2.618   5.643 -0.8007 -3.8132 -0.2983
  378MOL0     H49858   3.113   2.754   5.469  0.9634 -1.3009 -3.1035
  378MOL0     H49859   2.900   2.682   5.331 -0.5450 -2.1510 -1.9719
  378MOL0     H49860   2.642   2.111   5.470  1.8396  0.5841 -1.6741
  378MOL0     H49861   2.443   1.977   5.416 -0.5679  0.7848  2.3178
  378MOL0     H49862   2.140   2.198   5.108 -1.0868  0.2979  0.2066
  378MOL0     H49863   2.089   2.174   5.276  2.7662 -1.7420  1.3524
  378MOL0     H49864   2.027   1.934   5.216 -2.3168 -1.2965 -0.3788
  378MOL0     H49865   2.075   1.961   5.049 -1.1851 -0.0108  0.3137
  378MOL0     H49866   1.896   2.157   5.070  3.0825 -0.7274 -1.0932
  378MOL0     H49867   1.867   2.067   5.224  0.8786 -1.9380  1.0636
  378MOL0     H49868   1.839   1.947   4.933 -0.1669 -0.4834 -0.0024
  378MOL0     H49869   1.830   1.855   5.079 -0.2127 -0.3238  1.3280
  378MOL0     H49870   1.664   2.100   5.020  1.3148 -0.9289 -1.6182
  378MOL0     H49871   1.634   1.985   5.157 -2.1444 -1.5626  0.4538
  378MOL0     H49872   1.593   1.820   4.983  1.8422  1.0039 -1.8151
  378MOL0     H49873   1.576   1.955   4.859 -1.9117  2.4885 -0.1550
  378MOL0     H49874   1.419   1.915   5.110 -1.8894 -4.4178 -1.4840
  378MOL0     H49875   1.401   2.058   5.007 -2.6101 -0.6273  3.0202
  378MOL0     H49876   1.342   1.756   4.939 -0.0160 -0.0230 -0.9572
  378MOL0     H49877   1.350   1.873   4.814 -0.4692  0.9395 -0.7176
  378MOL0     H49878   2.304   2.339   5.194 -1.2360 -1.8799 -0.8309
  378MOL0     H49879   2.464   2.460   5.302 -0.7792  0.3542  2.3670
  378MOL0     H49880   2.830   2.375   5.634  0.0316  0.2751  0.2302
  378MOL0     H49881   3.049   2.438   5.738  1.5287  2.7658  0.9524
  378MOL0     H49882   4.885   3.153   5.856 -2.6977 -0.5443  1.5730
  378MOL0     H49883   5.130   3.066   5.874  1.2179 -0.7217  1.0371
  378MOL0     H49884   5.424   2.866   5.920 -1.3733 -3.8741  0.6754
  378MOL0     H49885   5.662   2.873   5.938  1.3301 -3.4649  0.8366
  378MOL0     H49886   5.846   2.818   5.981 -0.0172 -0.7511  1.0704
  378MOL0     H49887   5.978   2.843   6.083  2.3244  2.8759  0.8052
  378MOL0     H49888   6.022   3.076   6.011 -1.5243  0.8245  1.7396
  378MOL0     H49889   6.002   2.981   5.875 -0.2743  0.1271  0.4507
  378MOL0     H49890   5.760   3.141   5.984  0.5455  2.5437 -1.0029
  378MOL0     H49891   5.773   3.033   5.845 -0.2965  0.9054 -0.5567
  378MOL0     H49892   5.979   3.268   5.862  0.8285  0.4185 -4.1956
  378MOL0     H49893   5.905   3.204   5.725 -0.2600  2.5184 -1.3059
  378MOL0     H49894   5.639   3.518   5.838  1.6338  0.1740 -0.9290
  378MOL0     H49895   5.639   2.993   6.351  0.4690 -1.2102  0.7154
  378MOL0     H49896   5.403   2.975   6.340 -5.2295  0.9042 -3.0603
  379MOL0     O49897   6.844   9.235   3.565 -0.3895 -0.4142  0.0321
  379MOL0     C49898   6.812   9.230   3.689 -1.0565 -0.6232 -0.6699
  379MOL0     O49899   6.701   9.298   3.745  0.4200 -0.0372 -0.2817
  379MOL0     C49900   6.615   9.352   3.655  0.0493 -0.0382 -0.9428
  379MOL0     C49901   6.504   9.277   3.624  0.8982 -0.6198  0.4930
  379MOL0     C49902   6.417   9.337   3.527 -0.4525 -0.3931 -0.6092
  379MOL0     C49903   6.446   9.466   3.469  0.5733 -0.0570 -0.1412
  379MOL0     O49904   6.349   9.502   3.379 -0.1774  0.0042  1.0134
  379MOL0     C49905   6.374   9.628   3.309 -0.8017  0.2820 -0.2435
  379MOL0     C49906   6.250   9.652   3.220 -0.3015  0.3548  0.0814
  379MOL0     C49907   6.146   9.713   3.297 -0.5888  0.3268 -0.7934
  379MOL0     C49908   6.030   9.766   3.216 -0.4782  0.2648  0.8140
  379MOL0     C49909   5.952   9.886   3.265  0.5312  0.4200 -0.3578
  379MOL0     C49910   5.865   9.854   3.386  0.6530 -0.3417 -0.3300
  379MOL0     C49911   5.795   9.968   3.455  0.1514  0.2609 -0.7684
  379MOL0     C49912   5.819   9.985   3.609  0.0283 -0.2445  0.4618
  379MOL0     N49913   5.731   9.895   3.689  0.5070  0.4608 -0.5893
  379MOL0     C49914   5.591   9.893   3.684  0.2019 -0.6499  0.2463
  379MOL0     C49915   5.543   9.790   3.757 -0.5411 -0.1939  0.5693
  379MOL0     C49916   5.400   9.738   3.792  0.1339  0.1305 -0.8254
  379MOL0     C49917   5.360   9.611   3.739 -0.8471  0.3022  0.1634
  379MOL0     C49918   5.386   9.594   3.592  0.0080 -0.1824  0.9489
  379MOL0     C49919   5.339   9.454   3.536  0.5788 -0.3612  0.9111
  379MOL0     O49920   5.199   9.459   3.497 -0.3107  0.2971  0.5410
  379MOL0     C49921   5.136   9.344   3.450  0.1356 -0.3117 -1.1311
  379MOL0     C49922   5.210   9.256   3.368  0.2304 -0.2531 -0.9778
  379MOL0     C49923   5.129   9.146   3.316 -0.3051  0.0813  0.2742
  379MOL0     C49924   4.987   9.144   3.322  0.0058 -0.0944 -0.1083
  379MOL0     C49925   4.910   9.023   3.285  0.9778  1.0084 -0.8761
  379MOL0     O49926   4.772   9.032   3.290  0.2136  0.1721 -0.5673
  379MOL0     C49927   4.698   8.931   3.232  0.1752  0.0177  0.4403
  379MOL0     C49928   4.611   8.854   3.317  0.7092 -1.4137  0.6769
  379MOL0     C49929   4.519   8.761   3.267  0.2767 -0.1031  0.4906
  379MOL0     C49930   4.530   8.732   3.128 -0.3005  0.0679  0.2000
  379MOL0     O49931   4.457   8.639   3.057  0.6272  0.3447  0.8280
  379MOL0     C49932   4.338   8.589   3.120 -0.2037  0.3181  0.0752
  379MOL0     C49933   4.358   8.465   3.221  0.6652  0.0115 -0.4282
  379MOL0     C49934   4.249   8.464   3.324  0.6952 -0.2302  0.2125
  379MOL0     C49935   4.253   8.351   3.427  0.4893  0.4718 -0.5371
  379MOL0     C49936   4.112   8.330   3.485 -0.1494  0.8015  0.0995
  379MOL0     C49937   4.104   8.231   3.604 -0.3454 -0.7662  0.4593
  379MOL0     C49938   3.971   8.163   3.631  0.2817 -0.0597  0.1303
  379MOL0     C49939   3.851   8.258   3.652 -0.9958 -0.1748 -0.4228
  379MOL0    Cl49940   3.709   8.163   3.670 -0.1869  0.3832 -0.5118
  379MOL0     C49941   4.619   8.805   3.042  0.0472 -0.0961  0.2919
  379MOL0     C49942   4.699   8.905   3.092 -0.3902 -1.1474  0.1582
  379MOL0     O49943   4.972   8.927   3.250 -0.0374  0.2753 -0.1763
  379MOL0     C49944   4.916   9.242   3.395  0.2223  1.4015 -0.6002
  379MOL0     C49945   4.991   9.342   3.455  0.0533 -0.7484  0.4989
  379MOL0     N49946   5.653   9.735   3.811  0.0504  0.1548 -0.1105
  379MOL0     N49947   5.762   9.794   3.772 -0.3528  0.2922 -0.4089
  379MOL0     C49948   6.554   9.543   3.517 -0.6960 -0.1091 -0.2730
  379MOL0     C49949   6.641   9.479   3.607  0.4162  0.0792  0.2247
  379MOL0     C49950   6.904   9.156   3.778  0.3241  1.0700 -0.1113
  379MOL0     C49951   7.019   9.084   3.730  0.6334  0.6352 -0.6566
  379MOL0     C49952   7.100   8.999   3.811  0.4216 -0.5774  0.4139
  379MOL0     C49953   7.074   9.003   3.953 -1.3936 -0.2312  1.1535
  379MOL0     O49954   7.142   8.935   4.051  0.4992 -0.7376  0.8758
  379MOL0     C49955   7.260   8.865   4.021 -0.0187 -0.1675 -0.1096
  379MOL0     C49956   7.370   8.974   4.028  0.0683 -0.4573  1.3874
  379MOL0     C49957   7.495   8.900   4.035  0.4381  0.5641  0.2188
  379MOL0     C49958   7.614   8.986   4.046 -0.1301 -0.2548  0.4046
  379MOL0     C49959   7.635   9.076   3.931 -0.2980  0.0278  0.0425
  379MOL0     C49960   7.639   9.154   3.835 -0.4099  0.3804  0.0222
  379MOL0     C49961   6.968   9.077   4.004  0.9994  0.4071  0.0544
  379MOL0     C49962   6.884   9.148   3.924  0.5924  0.4448  0.4867
  379MOL0     H49963   6.499   9.175   3.660  1.1851 -0.6276  0.5130
  379MOL0     H49964   6.331   9.282   3.490  0.8119  0.0739 -4.7661
  379MOL0     H49965   6.464   9.607   3.251 -0.3502  1.0204  0.1776
  379MOL0     H49966   6.399   9.717   3.369  0.7163 -1.3390  1.6724
  379MOL0     H49967   6.206   9.565   3.170  1.1315  0.8954 -2.2688
  379MOL0     H49968   6.290   9.717   3.142 -0.7253  1.7941  1.0251
  379MOL0     H49969   6.188   9.796   3.353 -0.1114 -1.0053  0.9082
  379MOL0     H49970   6.096   9.648   3.370 -1.4088  2.6960  0.8568
  379MOL0     H49971   6.084   9.790   3.124  1.5314 -2.4683  1.1360
  379MOL0     H49972   5.966   9.681   3.189 -0.0312  0.0078  0.5424
  379MOL0     H49973   5.898   9.934   3.183 -1.5903  0.8619  1.2072
  379MOL0     H49974   6.029   9.954   3.304  0.6006  1.0799 -1.5789
  379MOL0     H49975   5.925   9.812   3.467 -1.1099 -1.6593  0.3531
  379MOL0     H49976   5.797   9.772   3.362  1.8807 -1.9681  1.4046
  379MOL0     H49977   5.808  10.059   3.396 -1.7574  1.3978  0.4417
  379MOL0     H49978   5.688   9.951   3.443  0.7202 -2.9995 -2.3949
  379MOL0     H49979   5.798  10.090   3.632  0.3467  0.3519 -1.7563
  379MOL0     H49980   5.925   9.963   3.626  0.4238  0.1363 -1.2960
  379MOL0     H49981   5.527   9.968   3.639  0.8955  0.0419  0.3992
  379MOL0     H49982   5.328   9.811   3.754 -1.4055  0.3387  2.1890
  379MOL0     H49983   5.387   9.725   3.900  0.7478  3.1114 -0.3063
  379MOL0     H49984   5.252   9.600   3.755 -1.0578  2.1259  0.1722
  379MOL0     H49985   5.416   9.535   3.794  1.0110  1.5654  0.0946
  379MOL0     H49986   5.343   9.677   3.536 -0.1213 -0.6555  0.3307
  379MOL0     H49987   5.493   9.591   3.570 -0.5174  2.2745 -2.9288
  379MOL0     H49988   5.345   9.382   3.618 -2.0095  0.1258  1.6224
  379MOL0     H49989   5.414   9.426   3.461 -0.8909 -1.9179 -0.0789
  379MOL0     H49990   5.315   9.268   3.341  1.3971 -1.4559  2.5198
  379MOL0     H49991   5.190   9.071   3.267  4.1217  2.7153  1.1942
  379MOL0     H49992   4.599   8.881   3.422  3.4462  1.4951  0.3957
  379MOL0     H49993   4.444   8.719   3.333 -0.8629  3.0889  1.4485
  379MOL0     H49994   4.264   8.555   3.047  0.5095 -0.3912 -0.3381
  379MOL0     H49995   4.292   8.670   3.178  2.1474 -0.2268  2.9075
  379MOL0     H49996   4.457   8.472   3.266  0.2823 -0.9366  0.5918
  379MOL0     H49997   4.351   8.369   3.169  0.7236 -1.4212  2.0681
  379MOL0     H49998   4.150   8.469   3.277  1.8179  3.2154 -2.1450
  379MOL0     H49999   4.269   8.553   3.383  3.2697 -1.5729  1.5530
  379MOL0     H50000   4.284   8.259   3.376  0.6470  0.3205 -0.1673
  379MOL0     H50001   4.331   8.383   3.497  1.5327  1.0596 -1.9160
  379MOL0     H50002   4.053   8.296   3.399  0.2583  2.2144 -0.7730
  379MOL0     H50003   4.054   8.421   3.506  0.1544  1.2538 -0.9432
  379MOL0     H50004   4.142   8.280   3.693 -0.1308 -0.4585  0.1980
  379MOL0     H50005   4.177   8.155   3.574  0.2386 -0.4278  1.0081
  379MOL0     H50006   3.943   8.102   3.545 -1.7851  0.5650  0.2966
  379MOL0     H50007   3.994   8.102   3.719 -0.6960  1.1704  1.2927
  379MOL0     H50008   3.840   8.332   3.572 -2.0566  0.3688  0.2083
  379MOL0     H50009   3.875   8.320   3.739  1.4421 -0.4358 -0.8470
  379MOL0     H50010   4.630   8.791   2.935 -2.5106 -1.0419  0.0828
  379MOL0     H50011   4.774   8.952   3.030 -2.0263  0.5576 -0.6293
  379MOL0     H50012   4.808   9.244   3.404  0.3379  0.4837  1.8824
  379MOL0     H50013   4.946   9.426   3.507  1.0478 -0.7243  1.3600
  379MOL0     H50014   6.579   9.638   3.472 -1.5005 -0.0847 -0.6815
  379MOL0     H50015   6.722   9.543   3.642 -0.3730  0.5469  1.2721
  379MOL0     H50016   7.021   9.073   3.622  0.7220  0.2723 -0.6191
  379MOL0     H50017   7.182   8.938   3.775 -0.4043 -2.1267  1.1064
  379MOL0     H50018   7.269   8.823   3.920 -2.7110 -2.4416  0.4603
  379MOL0     H50019   7.285   8.784   4.090  1.2037  1.6352  1.6707
  379MOL0     H50020   7.359   9.029   3.934  1.4438 -2.6383 -0.1187
  379MOL0     H50021   7.359   9.035   4.119 -1.5157  2.8628 -0.8338
  379MOL0     H50022   7.511   8.824   3.957 -1.1442  1.0185 -0.5870
  379MOL0     H50023   7.497   8.836   4.123 -2.0331  1.1424  0.7624
  379MOL0     H50024   7.602   9.059   4.126  0.0919  1.1259 -0.7786
  379MOL0     H50025   7.704   8.924   4.057 -0.5079 -0.7026  1.0388
  379MOL0     H50026   7.632   9.244   3.777  0.2552  2.1989  2.5974
  379MOL0     H50027   6.933   9.069   4.107  0.4666 -0.5999 -0.1951
  379MOL0     H50028   6.798   9.202   3.964 -1.5047 -1.5252 -1.0879
  380MOL0     O50029   6.540   7.796   6.852 -1.1835 -0.2481 -0.9552
  380MOL0     C50030   6.568   7.733   6.958  0.2075  0.1520  0.6477
  380MOL0     O50031   6.494   7.632   7.006  0.0967  0.5222  0.0880
  380MOL0     C50032   6.373   7.584   6.957  1.4616 -1.2237  0.0245
  380MOL0     C50033   6.311   7.489   7.023 -0.2439  1.6242  0.0151
  380MOL0     C50034   6.187   7.430   6.986 -0.7658  0.4416 -0.8584
  380MOL0     C50035   6.128   7.476   6.867 -0.5295  0.6051  0.5609
  380MOL0     O50036   6.010   7.420   6.825 -0.2792 -0.0755 -0.6210
  380MOL0     C50037   5.994   7.398   6.684 -0.2273 -0.0392 -0.1224
  380MOL0     C50038   5.874   7.463   6.619 -0.7677 -0.5296  0.5062
  380MOL0     C50039   5.870   7.431   6.470 -0.6905  0.3079 -0.9344
  380MOL0     C50040   5.740   7.470   6.401  0.5812 -0.6009  1.0640
  380MOL0     C50041   5.609   7.390   6.433 -0.9105 -0.5966  0.4558
  380MOL0     C50042   5.496   7.479   6.359  0.2055 -0.4744 -0.1883
  380MOL0     C50043   5.362   7.398   6.355  0.5136  0.1523 -0.6048
  380MOL0     C50044   5.263   7.455   6.253 -0.3350 -1.1317  0.5091
  380MOL0     N50045   5.148   7.369   6.233  0.6025 -0.3242  0.0057
  380MOL0     C50046   5.145   7.278   6.132 -0.1542  0.0447  0.0249
  380MOL0     C50047   5.051   7.192   6.170  1.1508  0.8312  0.2526
  380MOL0     C50048   5.020   7.071   6.071  1.0894 -0.7769 -1.1040
  380MOL0     C50049   4.864   7.057   6.048 -0.6407  1.0045  0.4004
  380MOL0     C50050   4.802   7.182   5.982  0.4488  0.8515  0.4189
  380MOL0     C50051   4.660   7.159   5.925 -0.5709  0.5520  0.0966
  380MOL0     O50052   4.655   7.076   5.801 -0.6454  0.5172 -0.0966
  380MOL0     C50053   4.534   7.083   5.748 -0.2875  0.8627  0.1742
  380MOL0     C50054   4.440   6.983   5.786 -0.5841 -1.3391 -0.6675
  380MOL0     C50055   4.316   6.983   5.731 -0.3804  1.0794  0.9032
  380MOL0     C50056   4.275   7.081   5.633 -0.5996  1.1050 -0.6006
  380MOL0     C50057   4.147   7.084   5.574  0.6005 -0.5694 -1.5480
  380MOL0     O50058   4.045   7.023   5.643  0.3001 -0.4769  0.8768
  380MOL0     C50059   3.928   7.007   5.580 -0.2509  0.8994  0.6415
  380MOL0     C50060   3.859   7.111   5.515 -0.1615 -0.2267 -0.2614
  380MOL0     C50061   3.732   7.088   5.468  0.1055 -0.1247 -0.5369
  380MOL0     C50062   3.665   6.963   5.481  0.5584 -0.6501  0.1272
  380MOL0     O50063   3.552   6.932   5.404  0.1901 -0.6525  0.3200
  380MOL0     C50064   3.540   6.817   5.324 -0.4397  1.1075 -0.1420
  380MOL0     C50065   3.403   6.809   5.252  0.0667  0.6435  0.4642
  380MOL0     C50066   3.285   6.819   5.356  0.2889  0.1483 -0.1463
  380MOL0     C50067   3.162   6.874   5.289 -0.3803  0.3588 -0.7154
  380MOL0     C50068   3.044   6.873   5.381  0.5096  0.1991 -0.6514
  380MOL0     C50069   2.912   6.921   5.330 -0.3458 -0.5028  0.1102
  380MOL0     C50070   2.817   6.921   5.443  0.0972 -0.6849  0.0718
  380MOL0     C50071   2.683   6.990   5.410  0.2338  0.6731 -0.5901
  380MOL0    Cl50072   2.599   6.887   5.284 -0.3021 -0.1269  0.0545
  380MOL0     C50073   3.727   6.857   5.552 -0.3542 -0.6045  0.0019
  380MOL0     C50074   3.862   6.878   5.593  0.6645 -0.8657  0.1058
  380MOL0     O50075   4.140   7.125   5.459 -0.2132 -0.1862  0.5555
  380MOL0     C50076   4.371   7.180   5.593  0.4852 -0.4991  0.1081
  380MOL0     C50077   4.494   7.176   5.650 -0.1509  0.2989 -0.5941
  380MOL0     N50078   4.987   7.227   6.287  0.1976  0.4170 -0.5890
  380MOL0     N50079   5.049   7.339   6.319 -0.1318  0.7565 -0.1560
  380MOL0     C50080   6.198   7.569   6.787  0.6523 -0.2674  0.4433
  380MOL0     C50081   6.319   7.619   6.830  0.4658 -0.7625 -0.0395
  380MOL0     C50082   6.689   7.768   7.037 -0.4803  0.5716 -0.5977
  380MOL0     C50083   6.714   7.683   7.150  0.5048 -0.6834  0.0248
  380MOL0     C50084   6.839   7.696   7.215  0.1459  0.7440  0.3947
  380MOL0     C50085   6.925   7.799   7.181  0.0590  0.2442  1.0199
  380MOL0     O50086   7.050   7.801   7.229 -0.2893 -0.9399  0.3534
  380MOL0     C50087   7.101   7.714   7.327  0.0005  0.0503  0.7035
  380MOL0     C50088   7.235   7.749   7.388 -0.0929  0.3409  0.2972
  380MOL0     C50089   7.335   7.805   7.284 -0.5565  0.8384  0.2290
  380MOL0     C50090   7.473   7.800   7.339 -1.2803  0.1330  0.1813
  380MOL0     C50091   7.530   7.668   7.324  0.2918  0.6393  0.3518
  380MOL0     C50092   7.582   7.560   7.305 -0.0481 -0.6627  0.1925
  380MOL0     C50093   6.893   7.886   7.075  0.3688  0.3276  0.2831
  380MOL0     C50094   6.772   7.873   7.005 -0.9069 -0.2197  0.2367
  380MOL0     H50095   6.365   7.468   7.114  1.8269  0.4005 -1.4067
  380MOL0     H50096   6.152   7.345   7.045 -0.2497  1.4657  0.9994
  380MOL0     H50097   5.968   7.292   6.676 -0.3649 -0.0364  0.2815
  380MOL0     H50098   6.087   7.416   6.631  2.0655 -3.1325  2.4677
  380MOL0     H50099   5.874   7.571   6.638 -0.2930 -0.8185  2.3550
  380MOL0     H50100   5.784   7.433   6.672 -1.8276  0.8796 -0.4150
  380MOL0     H50101   5.874   7.322   6.462 -0.5234  0.2232  0.1345
  380MOL0     H50102   5.951   7.484   6.420  0.4231  0.3603  0.8200
  380MOL0     H50103   5.724   7.578   6.412 -2.9602 -0.4290 -3.0195
  380MOL0     H50104   5.759   7.458   6.294  0.3927  0.8685  0.8457
  380MOL0     H50105   5.584   7.390   6.540  0.5315  0.0956  0.8088
  380MOL0     H50106   5.623   7.289   6.393 -0.1019  1.1657 -4.2903
  380MOL0     H50107   5.537   7.516   6.264  0.9022  0.7783  0.5707
  380MOL0     H50108   5.478   7.567   6.422  0.5108 -1.5613  1.4541
  380MOL0     H50109   5.374   7.291   6.336 -2.4913 -0.2811 -0.5356
  380MOL0     H50110   5.322   7.407   6.456 -0.5374  0.3001 -1.0217
  380MOL0     H50111   5.321   7.470   6.161  0.1686 -0.9984  0.8463
  380MOL0     H50112   5.231   7.556   6.278  1.9437 -0.7991  2.5423
  380MOL0     H50113   5.213   7.288   6.047  0.7052  1.2161  0.8242
  380MOL0     H50114   5.058   6.983   6.124 -1.3807  0.2641  2.8479
  380MOL0     H50115   5.066   7.091   5.974 -1.6117  2.0791 -1.9809
  380MOL0     H50116   4.819   7.041   6.146  0.1881  1.6036  0.8958
  380MOL0     H50117   4.857   6.967   5.986  1.9812 -0.2966  1.8062
  380MOL0     H50118   4.785   7.259   6.058  0.7701  1.8704 -0.5139
  380MOL0     H50119   4.864   7.225   5.902 -0.3006 -1.0511 -1.2687
  380MOL0     H50120   4.623   7.258   5.893 -2.0557 -0.0152 -0.0335
  380MOL0     H50121   4.594   7.116   6.000 -0.9280  1.3232  0.2397
  380MOL0     H50122   4.482   6.932   5.872  1.0858 -0.7547 -1.0984
  380MOL0     H50123   4.254   6.906   5.775 -0.8038  0.5198 -0.6330
  380MOL0     H50124   3.881   7.215   5.494 -3.2750  1.0361  1.8359
  380MOL0     H50125   3.678   7.175   5.432  1.2132  0.2980 -1.1979
  380MOL0     H50126   3.555   6.728   5.387 -1.6755  1.0896  0.1405
  380MOL0     H50127   3.614   6.808   5.243  1.5994 -0.5312  1.7450
  380MOL0     H50128   3.389   6.720   5.190 -0.2291 -0.5103  2.1187
  380MOL0     H50129   3.385   6.888   5.178  0.0537  1.3398  1.1973
  380MOL0     H50130   3.307   6.890   5.436 -0.1234  0.4342 -0.2876
  380MOL0     H50131   3.271   6.716   5.392 -2.5070  0.7646  0.7844
  380MOL0     H50132   3.180   6.979   5.263  0.5438 -0.2754 -2.8590
  380MOL0     H50133   3.132   6.815   5.202  2.3992 -2.3317 -0.0240
  380MOL0     H50134   3.076   6.926   5.471  3.5836 -2.0175 -0.2911
  380MOL0     H50135   3.027   6.773   5.422 -0.1226 -0.4552 -2.4084
  380MOL0     H50136   2.880   6.852   5.251  0.3786 -0.2476 -0.4184
  380MOL0     H50137   2.914   7.018   5.279  1.5878 -1.1713 -1.1666
  380MOL0     H50138   2.793   6.824   5.487  0.7119 -0.3176  1.2783
  380MOL0     H50139   2.857   6.981   5.525  2.9630  0.5084 -2.0470
  380MOL0     H50140   2.695   7.091   5.371  2.2174 -0.4440 -3.2280
  380MOL0     H50141   2.634   7.006   5.506  0.4812 -0.5461 -0.2417
  380MOL0     H50142   3.683   6.761   5.577 -1.3800  0.2898  1.8485
  380MOL0     H50143   3.918   6.802   5.647  0.9114 -1.4473 -0.9355
  380MOL0     H50144   4.354   7.258   5.519  0.3565 -1.9193 -1.4285
  380MOL0     H50145   4.563   7.257   5.628  0.0239  0.0401 -1.0106
  380MOL0     H50146   6.142   7.607   6.702 -0.6560 -0.6896  1.0882
  380MOL0     H50147   6.379   7.672   6.757 -2.2868 -0.9416 -2.5973
  380MOL0     H50148   6.649   7.602   7.179 -1.7644  1.7426  2.2703
  380MOL0     H50149   6.853   7.623   7.294 -0.0097 -0.5888 -0.7645
  380MOL0     H50150   7.112   7.619   7.273 -4.1946  1.0659 -2.4264
  380MOL0     H50151   7.030   7.687   7.405 -2.5268  1.5700 -0.9448
  380MOL0     H50152   7.212   7.827   7.462 -0.3062  0.5211  0.0411
  380MOL0     H50153   7.275   7.658   7.433  0.4107  0.8634  0.9502
  380MOL0     H50154   7.308   7.910   7.272  0.2242  0.9104 -0.9971
  380MOL0     H50155   7.338   7.747   7.192  2.2357 -1.7464  1.7601
  380MOL0     H50156   7.538   7.862   7.277 -1.2975 -1.8998 -2.0693
  380MOL0     H50157   7.458   7.841   7.439 -1.1615  3.3368 -1.0179
  380MOL0     H50158   7.631   7.466   7.292  1.2705 -0.1400  1.1566
  380MOL0     H50159   6.956   7.973   7.062 -1.3828  1.4090 -1.3941
  380MOL0     H50160   6.753   7.943   6.924  0.8080  1.3991  1.1437
  381MOL0     O50161   9.045   0.076   9.695 -0.5786 -0.2513  0.2097
  381MOL0     C50162   9.073  -0.002   9.601 -0.1994 -0.2784 -0.4348
  381MOL0     O50163   8.996  -0.095   9.545 -0.7253  0.2096 -0.8271
  381MOL0     C50164   8.885  -0.129   9.605  0.8736  0.6243 -0.9205
  381MOL0     C50165   8.867  -0.260   9.637  0.0022  0.2173  0.2348
  381MOL0     C50166   8.746  -0.297   9.703  0.0864 -0.2291  0.7146
  381MOL0     C50167   8.653  -0.198   9.739  0.2678 -0.6090  0.6676
  381MOL0     O50168   8.545  -0.243   9.814 -0.1145 -0.5387  0.1906
  381MOL0     C50169   8.418  -0.173   9.800 -0.2451  0.3969  0.0075
  381MOL0     C50170   8.322  -0.293   9.801  0.4543  1.2323  0.1399
  381MOL0     C50171   8.332  -0.383   9.671  0.7687  0.6521  1.1628
  381MOL0     C50172   8.214  -0.478   9.632  0.7025 -0.7275  0.6702
  381MOL0     C50173   8.153  -0.567   9.749 -0.3908  0.3343  0.3623
  381MOL0     C50174   8.065  -0.681   9.704  0.4916 -0.0971  0.0590
  381MOL0     C50175   7.943  -0.629   9.620 -0.0130  0.0197 -0.8711
  381MOL0     C50176   7.833  -0.574   9.702 -0.2451  0.5175 -0.2983
  381MOL0     N50177   7.773  -0.680   9.784  0.8573 -0.5227  0.1111
  381MOL0     C50178   7.758  -0.673   9.919  1.1093  0.3281 -0.4260
  381MOL0     C50179   7.692  -0.794   9.945 -0.1947 -0.6709  0.6037
  381MOL0     C50180   7.646  -0.843  10.083 -0.1082 -0.7080  0.0169
  381MOL0     C50181   7.521  -0.920  10.070  0.5366  0.5879  0.3964
  381MOL0     C50182   7.470  -0.946  10.213  0.1993 -0.4878  0.3167
  381MOL0     C50183   7.334  -1.027  10.207 -0.1104 -0.5191 -0.1176
  381MOL0     O50184   7.237  -0.953  10.139 -0.4364 -0.3817 -0.2351
  381MOL0     C50185   7.103  -0.962  10.165  0.8440 -0.0148  0.0618
  381MOL0     C50186   7.022  -0.889  10.084 -0.6085  0.7856  0.6581
  381MOL0     C50187   6.882  -0.885  10.102  0.5585  0.0538  0.1938
  381MOL0     C50188   6.823  -0.961  10.208 -0.7448  0.3324  0.1586
  381MOL0     C50189   6.684  -0.964  10.216  0.4423  0.2421 -0.8535
  381MOL0     O50190   6.615  -0.916  10.104 -0.0879  0.5922 -1.0009
  381MOL0     C50191   6.478  -0.921  10.096  0.1251 -0.2540 -0.1404
  381MOL0     C50192   6.396  -0.861  10.197 -0.0666  0.3608 -0.1472
  381MOL0     C50193   6.254  -0.878  10.188 -0.5496 -0.2212 -0.0743
  381MOL0     C50194   6.189  -0.951  10.083 -0.0764  0.9290 -0.5320
  381MOL0     O50195   6.049  -0.968  10.071  0.1387  0.5390 -0.7067
  381MOL0     C50196   5.978  -1.026  10.180  1.1188 -0.0873 -0.4426
  381MOL0     C50197   5.846  -1.101  10.159  0.5820  0.5949  0.7401
  381MOL0     C50198   5.753  -1.031  10.057  0.6329  0.3305 -0.1223
  381MOL0     C50199   5.613  -1.084  10.065 -0.2482  0.5003  0.6871
  381MOL0     C50200   5.517  -0.986  10.007 -0.0175 -0.4816 -0.0607
  381MOL0     C50201   5.555  -0.942   9.867 -1.1543 -0.3233  0.1762
  381MOL0     C50202   5.451  -0.843   9.801 -0.2225 -0.5205  0.0896
  381MOL0     C50203   5.321  -0.903   9.748  0.2561  0.3725  0.8270
  381MOL0    Cl50204   5.232  -0.770   9.669 -0.0331 -0.0006 -0.0495
  381MOL0     C50205   6.270  -1.004   9.987  0.1105  0.5145  0.0117
  381MOL0     C50206   6.411  -0.996   9.991  0.7682 -0.2513 -0.2495
  381MOL0     O50207   6.627  -1.001  10.319 -0.0227  0.7510  0.2434
  381MOL0     C50208   6.908  -1.027  10.299 -0.3671 -0.1420 -0.9301
  381MOL0     C50209   7.044  -1.035  10.275  0.3076 -0.2527 -0.5542
  381MOL0     N50210   7.669  -0.855   9.826  0.9367  0.1665 -0.0896
  381MOL0     N50211   7.732  -0.799   9.735 -0.6843  0.1289 -1.6265
  381MOL0     C50212   8.671  -0.063   9.702  0.4114  0.5180 -0.3100
  381MOL0     C50213   8.790  -0.031   9.642 -0.7794 -0.3134 -0.5037
  381MOL0     C50214   9.216   0.017   9.544 -0.2044  0.5327  0.6765
  381MOL0     C50215   9.254  -0.013   9.411 -0.3354  0.6430 -0.2948
  381MOL0     C50216   9.381   0.024   9.359 -0.2197  0.0318 -0.2236
  381MOL0     C50217   9.492   0.064   9.447  0.3520 -0.5976  0.3194
  381MOL0     O50218   9.621   0.085   9.418 -0.7119  0.3852 -0.5205
  381MOL0     C50219   9.663   0.046   9.289  0.2043 -0.1691 -0.2378
  381MOL0     C50220   9.645   0.157   9.186 -0.6676  0.7164  0.1986
  381MOL0     C50221   9.712   0.287   9.229 -0.3277 -0.2451  0.7911
  381MOL0     C50222   9.861   0.270   9.265  0.6726 -0.6777 -0.2303
  381MOL0     C50223   9.929   0.402   9.263 -1.2396 -0.0040 -0.5572
  381MOL0     C50224  10.001   0.497   9.254  0.3249  0.1960  0.1003
  381MOL0     C50225   9.456   0.080   9.582  0.2666  0.2940 -0.6150
  381MOL0     C50226   9.324   0.048   9.630 -0.0700 -0.2133  0.4823
  381MOL0     H50227   8.937  -0.340   9.615  1.5861  1.4030  0.8138
  381MOL0     H50228   8.717  -0.398   9.730 -0.5386  0.4037  2.5938
  381MOL0     H50229   8.411  -0.126   9.702 -1.3920 -2.3493 -1.3510
  381MOL0     H50230   8.408  -0.108   9.887 -1.1959 -3.0266  2.7230
  381MOL0     H50231   8.220  -0.255   9.803 -1.2291 -2.7856 -0.1734
  381MOL0     H50232   8.341  -0.348   9.894  1.4781  0.0042 -0.7531
  381MOL0     H50233   8.418  -0.450   9.679 -0.5884 -1.9129 -2.5980
  381MOL0     H50234   8.356  -0.308   9.595 -2.2103  2.8566  2.1929
  381MOL0     H50235   8.130  -0.421   9.590  1.0028 -1.9649 -1.7753
  381MOL0     H50236   8.249  -0.546   9.554  0.1912 -0.1165 -0.1110
  381MOL0     H50237   8.099  -0.500   9.816  1.3689  1.2230  0.9777
  381MOL0     H50238   8.228  -0.617   9.812 -0.3458  1.5932  1.3520
  381MOL0     H50239   8.029  -0.739   9.790  0.2881 -0.1077 -0.0330
  381MOL0     H50240   8.123  -0.747   9.638 -1.6170 -0.7049 -1.3034
  381MOL0     H50241   7.977  -0.555   9.547  3.1942 -1.6622 -1.2497
  381MOL0     H50242   7.916  -0.713   9.557  2.3594 -0.2493 -1.6224
  381MOL0     H50243   7.751  -0.545   9.635 -2.9291 -0.6421  2.2728
  381MOL0     H50244   7.853  -0.485   9.761 -0.7633 -0.5335  1.5361
  381MOL0     H50245   7.786  -0.602   9.997  1.8293  0.7559 -1.0603
  381MOL0     H50246   7.630  -0.758  10.151 -1.4313 -0.5096 -0.5002
  381MOL0     H50247   7.729  -0.904  10.117  1.6124 -0.1548 -2.8538
  381MOL0     H50248   7.536  -1.020  10.026  0.0684 -0.7131  3.0185
  381MOL0     H50249   7.452  -0.872  10.000 -1.1624 -5.7067 -3.0500
  381MOL0     H50250   7.544  -1.013  10.258 -2.1762 -3.3563  0.2971
  381MOL0     H50251   7.456  -0.863  10.283  1.3270 -0.9460  1.1152
  381MOL0     H50252   7.306  -1.024  10.313 -0.7274  3.0349 -0.2575
  381MOL0     H50253   7.338  -1.127  10.163  1.8329 -0.6405  0.2327
  381MOL0     H50254   7.067  -0.836  10.000  2.1678 -2.1468  0.0895
  381MOL0     H50255   6.814  -0.837  10.032  0.8303  0.3726  0.1457
  381MOL0     H50256   6.447  -0.819  10.283 -0.9782  0.6780  0.2544
  381MOL0     H50257   6.189  -0.830  10.260 -0.1395  1.9909 -1.0921
  381MOL0     H50258   5.958  -0.944  10.250 -0.3414 -0.6116 -0.2005
  381MOL0     H50259   6.048  -1.092  10.231  2.7764 -1.3118 -3.9929
  381MOL0     H50260   5.787  -1.100  10.251  1.3010  0.0488  1.2208
  381MOL0     H50261   5.863  -1.204  10.127  0.7419  1.8514 -4.0042
  381MOL0     H50262   5.789  -1.055   9.956  0.5345 -0.5601  0.0412
  381MOL0     H50263   5.756  -0.926  10.085 -1.9814  0.3955  0.1933
  381MOL0     H50264   5.601  -1.179  10.013 -1.3135  1.6549 -1.2739
  381MOL0     H50265   5.588  -1.107  10.169  1.1224  0.6357  1.0652
  381MOL0     H50266   5.511  -0.889  10.057 -0.6207  0.1816 -1.3719
  381MOL0     H50267   5.417  -1.029  10.002 -1.1014  1.8569  0.2628
  381MOL0     H50268   5.558  -1.035   9.809  0.6120 -1.2373  1.6204
  381MOL0     H50269   5.656  -0.900   9.863 -0.3910 -1.9871  1.0439
  381MOL0     H50270   5.426  -0.764   9.872  3.1866 -1.7314  2.9475
  381MOL0     H50271   5.507  -0.803   9.716  1.9801  3.1553  2.9907
  381MOL0     H50272   5.272  -0.945   9.836  1.1689  1.1715  1.7562
  381MOL0     H50273   5.347  -0.980   9.675 -0.1574  2.2374 -1.3719
  381MOL0     H50274   6.220  -1.047   9.900 -0.7250 -1.1702  1.2802
  381MOL0     H50275   6.470  -1.053   9.921 -0.5895 -0.2909 -1.3962
  381MOL0     H50276   6.866  -1.069  10.390 -0.3560  0.3062 -0.7139
  381MOL0     H50277   7.103  -1.090  10.348 -2.6460 -1.9945  0.7247
  381MOL0     H50278   8.601   0.019   9.718 -1.1343 -1.0387  1.4714
  381MOL0     H50279   8.805   0.071   9.609 -1.5710  1.0677  2.9544
  381MOL0     H50280   9.171  -0.032   9.344  0.7625 -0.9743 -1.2649
  381MOL0     H50281   9.395   0.011   9.253 -0.3117 -0.0297 -0.2284
  381MOL0     H50282   9.609  -0.042   9.251 -0.1312  0.1022 -0.3930
  381MOL0     H50283   9.768   0.017   9.293  0.0330 -0.6975  1.5878
  381MOL0     H50284   9.662   0.120   9.085 -2.2056  0.2377  0.0823
  381MOL0     H50285   9.537   0.176   9.188 -1.6667 -3.7476  0.0499
  381MOL0     H50286   9.654   0.320   9.316 -0.3989  2.9649 -0.3233
  381MOL0     H50287   9.702   0.365   9.152 -0.9485  0.2551  1.3681
  381MOL0     H50288   9.849   0.230   9.366  0.2137  0.0111 -0.0037
  381MOL0     H50289   9.903   0.210   9.184  1.0671  0.2138 -0.7008
  381MOL0     H50290  10.072   0.578   9.250 -1.9989  2.6336  3.1750
  381MOL0     H50291   9.529   0.125   9.649 -0.0362  0.9779 -0.7330
  381MOL0     H50292   9.310   0.073   9.734  1.4471 -0.4780  0.7739
  382MOL0     O50293   0.314  10.425   9.618 -0.2465  0.4927  0.2512
  382MOL0     C50294   0.229  10.420   9.531 -0.9111  0.3707 -0.9707
  382MOL0     O50295   0.259  10.426   9.402  1.1433  0.9048  0.3308
  382MOL0     C50296   0.387  10.412   9.352 -0.3212  0.3236 -0.1226
  382MOL0     C50297   0.410  10.471   9.231 -0.2555 -0.4943  0.5687
  382MOL0     C50298   0.518  10.443   9.150 -0.1469 -0.0051 -0.0797
  382MOL0     C50299   0.616  10.359   9.200  0.4570 -0.4155  0.2525
  382MOL0     O50300   0.710  10.322   9.112  0.9152 -0.2780  0.0738
  382MOL0     C50301   0.822  10.255   9.161 -0.1000  0.4735 -0.1409
  382MOL0     C50302   0.927  10.238   9.056 -0.4188 -0.5530 -0.3657
  382MOL0     C50303   1.065  10.198   9.122  0.6338 -0.5102 -0.4900
  382MOL0     C50304   1.151  10.114   9.018  0.2458  0.4699 -0.4673
  382MOL0     C50305   1.287  10.080   9.061 -0.5516  0.4228  0.0338
  382MOL0     C50306   1.347   9.966   8.974 -0.7353 -0.4424 -0.6429
  382MOL0     C50307   1.392  10.011   8.830 -0.3318  0.7182  0.7575
  382MOL0     C50308   1.510   9.931   8.770 -0.0472 -0.0203 -0.5815
  382MOL0     N50309   1.493   9.788   8.789  0.4004 -0.4464  0.1666
  382MOL0     C50310   1.403   9.720   8.714  0.6821  0.9124  0.0692
  382MOL0     C50311   1.441   9.586   8.736 -0.2472 -0.2756  0.4516
  382MOL0     C50312   1.379   9.469   8.667 -0.3210  0.3466  0.0417
  382MOL0     C50313   1.269   9.398   8.753  0.0848  0.0356  0.0645
  382MOL0     C50314   1.190   9.291   8.676 -0.1340 -0.4193  0.3871
  382MOL0     C50315   1.078   9.213   8.737 -0.2279  0.4149 -0.2690
  382MOL0     O50316   0.973   9.299   8.784 -0.3574 -0.0283 -0.4826
  382MOL0     C50317   0.868   9.238   8.850 -0.0414  0.2020 -0.8221
  382MOL0     C50318   0.758   9.319   8.892  0.0827  0.3644  0.3745
  382MOL0     C50319   0.652   9.262   8.960  0.9198 -0.2033  0.5072
  382MOL0     C50320   0.642   9.126   8.987  0.2388 -0.3685 -0.5457
  382MOL0     C50321   0.516   9.060   9.046  0.0249  0.0153  0.3791
  382MOL0     O50322   0.521   8.937   9.095  0.6166  0.3140  0.1673
  382MOL0     C50323   0.409   8.880   9.144  0.0715 -0.4435  0.2797
  382MOL0     C50324   0.285   8.881   9.081  1.3456  0.2226  0.6346
  382MOL0     C50325   0.184   8.796   9.134  0.1312  0.1044  0.1474
  382MOL0     C50326   0.203   8.726   9.252  0.1300 -0.5159 -0.0556
  382MOL0     O50327   0.099   8.650   9.308  0.0119  0.6820 -0.8005
  382MOL0     C50328   0.072   8.686   9.445 -0.5624  0.5989 -0.0290
  382MOL0     C50329  -0.035   8.585   9.494 -0.6894  0.0271 -0.1944
  382MOL0     C50330  -0.076   8.621   9.631  0.2023  0.1925 -1.1148
  382MOL0     C50331  -0.211   8.563   9.680 -0.1795 -0.4963 -0.8572
  382MOL0     C50332  -0.243   8.611   9.823  0.5959  0.0671 -0.1945
  382MOL0     C50333  -0.185   8.524   9.947 -0.5048 -0.4568 -0.2510
  382MOL0     C50334  -0.225   8.379   9.937  0.0518 -0.0171 -0.1439
  382MOL0     C50335  -0.369   8.360   9.986  0.1499  0.0980  0.5913
  382MOL0    Cl50336  -0.404   8.191   9.965 -0.3656  0.2470 -0.1004
  382MOL0     C50337   0.323   8.715   9.309  0.1282 -0.0368  0.3419
  382MOL0     C50338   0.423   8.795   9.257  1.0297 -0.3773 -0.1311
  382MOL0     O50339   0.410   9.127   9.041 -0.7509 -0.4389 -0.3620
  382MOL0     C50340   0.757   9.048   8.964 -0.9613  0.2979 -0.1762
  382MOL0     C50341   0.858   9.100   8.882  0.0867 -0.1345  0.6787
  382MOL0     N50342   1.539   9.582   8.831  0.6105 -0.4162  0.4632
  382MOL0     N50343   1.572   9.707   8.860  0.4311  0.5237  0.9201
  382MOL0     C50344   0.596  10.301   9.331 -0.5142 -1.1421 -0.4862
  382MOL0     C50345   0.483  10.325   9.408 -0.0446  0.3816  0.4194
  382MOL0     C50346   0.090  10.438   9.568 -0.5169  0.1503 -0.1621
  382MOL0     C50347   0.035  10.419   9.695 -0.0223 -0.4336 -0.3559
  382MOL0     C50348  -0.100  10.420   9.711  0.9642  0.0431  0.5727
  382MOL0     C50349  -0.189  10.445   9.606 -0.5282 -0.0750 -0.7730
  382MOL0     O50350  -0.326  10.448   9.637  0.9590  0.6660 -0.0384
  382MOL0     C50351  -0.433  10.444   9.531  0.3621  0.0575 -0.2378
  382MOL0     C50352  -0.570  10.416   9.590  0.5041 -0.5391  1.1939
  382MOL0     C50353  -0.625  10.523   9.680 -1.3031  0.3969 -0.9390
  382MOL0     C50354  -0.752  10.471   9.751  0.7826 -1.0232 -0.4619
  382MOL0     C50355  -0.732  10.358   9.841  0.8923  0.3375  0.0412
  382MOL0     C50356  -0.714  10.274   9.928 -0.1308 -0.2822  0.4906
  382MOL0     C50357  -0.139  10.462   9.481 -0.2609 -0.3642 -0.9750
  382MOL0     C50358  -0.001  10.456   9.463 -0.6644  0.4940  0.3900
  382MOL0     H50359   0.334  10.546   9.213 -1.7058 -1.8779  0.7369
  382MOL0     H50360   0.532  10.506   9.063  0.9133  0.9703  0.7691
  382MOL0     H50361   0.791  10.155   9.193 -0.3393  0.0975 -1.5061
  382MOL0     H50362   0.868  10.304   9.248  0.3169 -1.2589  0.6696
  382MOL0     H50363   0.948  10.331   9.004  0.1986 -1.6146 -2.0940
  382MOL0     H50364   0.886  10.174   8.977  0.4268  0.2808 -1.5058
  382MOL0     H50365   1.051  10.121   9.198 -1.3569 -0.8736 -1.1814
  382MOL0     H50366   1.107  10.283   9.178 -1.5761  0.5501 -0.3187
  382MOL0     H50367   1.097  10.022   8.995  0.7335 -0.0302  0.3564
  382MOL0     H50368   1.165  10.169   8.925 -0.2884 -4.2746 -3.6549
  382MOL0     H50369   1.293  10.045   9.164  0.7226  0.8758  0.1299
  382MOL0     H50370   1.346  10.172   9.058 -1.7918  1.2849  0.9039
  382MOL0     H50371   1.280   9.880   8.965  1.6275 -2.2979 -1.6620
  382MOL0     H50372   1.439   9.931   9.020 -0.7002 -0.4811 -0.7420
  382MOL0     H50373   1.302  10.004   8.767 -1.2859  0.5911  2.0829
  382MOL0     H50374   1.430  10.113   8.818 -0.3377  0.4558 -2.3711
  382MOL0     H50375   1.598   9.956   8.830  0.1230 -3.6768  0.9357
  382MOL0     H50376   1.523   9.947   8.662 -1.7442 -2.3632 -1.2137
  382MOL0     H50377   1.328   9.764   8.649 -3.1426 -1.8129  2.2126
  382MOL0     H50378   1.463   9.402   8.646 -0.2359  0.4795 -0.0510
  382MOL0     H50379   1.330   9.501   8.574  0.5381  0.2443 -0.4569
  382MOL0     H50380   1.192   9.471   8.778  1.0721  1.4433 -0.8408
  382MOL0     H50381   1.329   9.369   8.840 -0.2359  1.3401  0.7483
  382MOL0     H50382   1.148   9.332   8.583  0.2768 -0.2749  0.2660
  382MOL0     H50383   1.264   9.223   8.633 -0.4752 -0.8184  0.4256
  382MOL0     H50384   1.120   9.141   8.807  0.8395 -0.5262 -1.8086
  382MOL0     H50385   1.042   9.157   8.650 -0.4665 -0.5727  0.4472
  382MOL0     H50386   0.751   9.425   8.871  0.5285  0.0006 -1.9063
  382MOL0     H50387   0.565   9.321   8.988  2.1918  2.2785 -0.3990
  382MOL0     H50388   0.261   8.934   8.989 -1.7364  0.9898  1.7419
  382MOL0     H50389   0.085   8.780   9.091 -0.4034  0.3253  1.2527
  382MOL0     H50390   0.035   8.789   9.448 -1.5742  0.3490 -2.0027
  382MOL0     H50391   0.162   8.677   9.506  2.1113  3.2921 -3.1133
  382MOL0     H50392  -0.011   8.480   9.476 -3.5131 -0.7819  0.1885
  382MOL0     H50393  -0.122   8.587   9.427 -0.5114 -1.9234 -0.5540
  382MOL0     H50394  -0.062   8.729   9.640  2.5333  0.0527 -2.3875
  382MOL0     H50395  -0.000   8.579   9.698 -0.8194 -1.1673 -0.7455
  382MOL0     H50396  -0.288   8.601   9.612  1.7729  2.3115 -1.6884
  382MOL0     H50397  -0.204   8.454   9.678  3.3911 -0.4613  0.7675
  382MOL0     H50398  -0.353   8.610   9.830  0.6490  0.5800  0.8843
  382MOL0     H50399  -0.217   8.717   9.823 -1.1189  0.5259  0.0950
  382MOL0     H50400  -0.225   8.558  10.043  0.7415 -0.4871  0.2966
  382MOL0     H50401  -0.077   8.539   9.945 -0.4284 -0.4025 -4.3534
  382MOL0     H50402  -0.204   8.331   9.841  0.7937  0.6369 -0.3165
  382MOL0     H50403  -0.161   8.335  10.014 -0.4224  1.1180  0.9295
  382MOL0     H50404  -0.433   8.426   9.925 -0.0625  0.9480  1.7004
  382MOL0     H50405  -0.391   8.385  10.090 -0.7795  2.5513 -0.1027
  382MOL0     H50406   0.343   8.665   9.404  2.1029  2.1686  1.2084
  382MOL0     H50407   0.516   8.796   9.312  0.1607  0.7508  1.3680
  382MOL0     H50408   0.764   8.942   8.983  0.5241  0.3050 -0.5988
  382MOL0     H50409   0.941   9.033   8.861 -0.4538 -0.5886 -0.0826
  382MOL0     H50410   0.669  10.225   9.359  3.3694  1.4928 -2.5031
  382MOL0     H50411   0.461  10.267   9.498  0.7710  0.5902  0.7634
  382MOL0     H50412   0.098  10.411   9.782  1.5572 -0.8615 -1.4992
  382MOL0     H50413  -0.151  10.418   9.807 -2.5359 -3.2388 -1.0966
  382MOL0     H50414  -0.403  10.361   9.467  1.0883  2.0131 -2.5605
  382MOL0     H50415  -0.439  10.544   9.486 -1.2703  1.3978  2.6506
  382MOL0     H50416  -0.641  10.399   9.509  1.6054 -1.3672  0.3692
  382MOL0     H50417  -0.565  10.320   9.643  0.9475 -0.4909  1.2436
  382MOL0     H50418  -0.656  10.613   9.626 -1.9232  0.5928 -0.2661
  382MOL0     H50419  -0.547  10.538   9.754  1.2998 -1.4022 -3.0999
  382MOL0     H50420  -0.786  10.554   9.814  3.8521 -1.3527  1.8622
  382MOL0     H50421  -0.829  10.444   9.679 -2.0764  1.1475  1.5475
  382MOL0     H50422  -0.697  10.205  10.008  2.7570 -1.6350 -1.1396
  382MOL0     H50423  -0.205  10.470   9.395 -1.0949 -0.9227 -0.4068
  382MOL0     H50424   0.031  10.465   9.359 -1.6096  0.2011  0.0688
  383MOL0     O50425   3.695   2.805   8.549 -0.4354 -0.0575  0.3306
  383MOL0     C50426   3.660   2.705   8.615 -0.3305  0.3240  0.5284
  383MOL0     O50427   3.631   2.707   8.750 -0.2099 -0.2833 -0.0003
  383MOL0     C50428   3.643   2.828   8.815  0.1468 -0.0074 -0.8850
  383MOL0     C50429   3.765   2.881   8.845  0.1712  0.6690  0.2303
  383MOL0     C50430   3.766   2.994   8.934 -0.3065  0.2537  0.8197
  383MOL0     C50431   3.651   3.046   8.996  0.0172 -0.2622 -0.4731
  383MOL0     O50432   3.656   3.159   9.083 -0.4186  0.3309  0.9910
  383MOL0     C50433   3.772   3.170   9.174 -0.0465  0.5785  0.3072
  383MOL0     C50434   3.795   3.047   9.264  0.2703 -0.5590  1.1930
  383MOL0     C50435   3.664   2.994   9.325  0.2927  0.1407 -0.6334
  383MOL0     C50436   3.696   2.875   9.426  0.5756  0.1839 -0.2219
  383MOL0     C50437   3.573   2.818   9.495 -0.2687 -0.2613 -0.1428
  383MOL0     C50438   3.464   2.754   9.414 -0.8680 -1.0539  1.0783
  383MOL0     C50439   3.346   2.698   9.498 -0.4781 -1.1331 -0.1815
  383MOL0     C50440   3.237   2.804   9.528  0.7504  0.1888 -0.7109
  383MOL0     N50441   3.119   2.761   9.610 -0.0162 -0.0102 -0.3146
  383MOL0     C50442   3.016   2.690   9.561 -0.3878 -0.1157  0.0296
  383MOL0     C50443   2.945   2.655   9.672 -0.1012 -0.0872  0.0931
  383MOL0     C50444   2.818   2.577   9.693 -0.6697  0.2292  0.5569
  383MOL0     C50445   2.709   2.599   9.580  0.4992 -0.1648 -0.4027
  383MOL0     C50446   2.602   2.488   9.612 -0.0694 -0.5124 -0.0733
  383MOL0     C50447   2.491   2.503   9.511 -0.2394  0.0425  0.1569
  383MOL0     O50448   2.432   2.382   9.465 -0.3844  0.5152 -0.1257
  383MOL0     C50449   2.314   2.325   9.508 -0.4003  0.3909  0.4746
  383MOL0     C50450   2.305   2.184   9.509 -1.1977 -0.2066  0.1623
  383MOL0     C50451   2.185   2.115   9.522 -0.4990 -0.8022 -0.5103
  383MOL0     C50452   2.073   2.191   9.549  1.0344  0.4241  0.4627
  383MOL0     C50453   1.939   2.118   9.580 -0.2102 -0.3468 -0.4633
  383MOL0     O50454   1.844   2.184   9.656 -0.9145  0.3008 -0.2004
  383MOL0     C50455   1.731   2.131   9.714 -0.7954 -0.0530  0.2671
  383MOL0     C50456   1.716   1.997   9.743  0.3718  0.6943 -0.8556
  383MOL0     C50457   1.599   1.958   9.815 -0.0803  0.8722  0.3579
  383MOL0     C50458   1.488   2.041   9.848  0.6292 -0.4540 -0.1639
  383MOL0     O50459   1.373   1.993   9.910 -0.4681 -0.7140 -0.6118
  383MOL0     C50460   1.261   2.082   9.941  0.4509 -0.8432  0.2909
  383MOL0     C50461   1.145   1.987   9.976  0.6717  0.4573 -0.1003
  383MOL0     C50462   1.050   2.050  10.079 -0.0551  0.8094  0.3313
  383MOL0     C50463   0.931   1.952  10.098  0.4426  0.3223 -0.2310
  383MOL0     C50464   0.792   2.026  10.103 -0.8941 -0.4459  0.3054
  383MOL0     C50465   0.758   2.110   9.982  0.0597  0.0510  0.2317
  383MOL0     C50466   0.753   2.047   9.846 -0.1911  0.4941  0.0667
  383MOL0     C50467   0.647   1.937   9.826 -0.4811  0.6284 -1.3531
  383MOL0    Cl50468   0.496   1.987   9.902 -0.3856 -0.1176 -0.0710
  383MOL0     C50469   1.508   2.175   9.818  0.2378  0.3932 -0.4627
  383MOL0     C50470   1.627   2.220   9.758 -0.9958 -0.0240 -0.4877
  383MOL0     O50471   1.934   2.004   9.538 -0.7745 -0.3207  0.5113
  383MOL0     C50472   2.071   2.334   9.557 -0.0434  0.4684 -0.1638
  383MOL0     C50473   2.196   2.396   9.544  0.7146 -0.2844  0.5611
  383MOL0     N50474   3.008   2.705   9.782  0.1024 -0.9585  0.3357
  383MOL0     N50475   3.109   2.781   9.744  0.7214  0.0590 -0.4553
  383MOL0     C50476   3.526   2.992   8.955  0.0262 -0.6437 -0.3540
  383MOL0     C50477   3.525   2.880   8.875 -0.0473 -0.1954  0.2355
  383MOL0     C50478   3.640   2.576   8.541 -0.1294 -0.4486  0.0135
  383MOL0     C50479   3.602   2.459   8.600 -0.1362 -0.6422 -0.9408
  383MOL0     C50480   3.597   2.340   8.529 -0.6162  0.2443  0.0538
  383MOL0     C50481   3.629   2.333   8.397  0.8798  0.2300  0.7451
  383MOL0     O50482   3.620   2.205   8.339 -0.1573 -0.0584 -0.2747
  383MOL0     C50483   3.634   2.185   8.198 -0.0734 -0.5531  0.2482
  383MOL0     C50484   3.567   2.062   8.155 -0.1740  0.6595  0.3223
  383MOL0     C50485   3.631   2.017   8.018 -0.5633  0.3351  0.2002
  383MOL0     C50486   3.618   1.868   7.991 -0.3496 -0.0083 -0.3005
  383MOL0     C50487   3.481   1.832   7.951  0.3186 -0.7207 -0.2113
  383MOL0     C50488   3.366   1.804   7.919  0.6568  0.0321  0.1950
  383MOL0     C50489   3.665   2.451   8.334  0.1298  0.5491 -0.4089
  383MOL0     C50490   3.675   2.571   8.412  0.2895 -0.5627  1.0870
  383MOL0     H50491   3.863   2.851   8.810  0.2116  1.1520 -0.0828
  383MOL0     H50492   3.862   3.041   8.954 -0.4452 -0.0265  2.2609
  383MOL0     H50493   3.744   3.250   9.242 -1.2241  0.6439 -0.2305
  383MOL0     H50494   3.870   3.194   9.133  0.2313 -2.6224 -1.2563
  383MOL0     H50495   3.872   3.078   9.335 -1.5537  1.3411  2.4629
  383MOL0     H50496   3.825   2.965   9.198 -0.8084  2.1995 -3.1983
  383MOL0     H50497   3.595   2.959   9.248 -0.6853  0.1507  0.2201
  383MOL0     H50498   3.616   3.073   9.384 -0.3076 -2.2116  2.2826
  383MOL0     H50499   3.736   2.791   9.367 -0.5784 -1.9689  1.9136
  383MOL0     H50500   3.768   2.907   9.501 -2.7654  2.2746  2.3618
  383MOL0     H50501   3.524   2.906   9.540  1.5627  1.3419 -1.1125
  383MOL0     H50502   3.598   2.752   9.578 -1.7067 -2.2284 -1.2055
  383MOL0     H50503   3.514   2.668   9.370  0.3625 -0.8726  2.0679
  383MOL0     H50504   3.431   2.830   9.342  2.6379 -1.4915 -1.2017
  383MOL0     H50505   3.306   2.616   9.436  2.2236 -0.7908 -2.6046
  383MOL0     H50506   3.385   2.648   9.587  1.7536 -3.3132 -2.1902
  383MOL0     H50507   3.194   2.842   9.435  0.6923 -1.8386 -1.5529
  383MOL0     H50508   3.283   2.892   9.575 -1.5858  2.1739 -1.9421
  383MOL0     H50509   2.996   2.678   9.455 -0.4173 -0.9228  0.1172
  383MOL0     H50510   2.777   2.591   9.793  0.4308 -2.2714  1.4443
  383MOL0     H50511   2.839   2.470   9.694 -2.5216 -0.2018 -0.4636
  383MOL0     H50512   2.762   2.589   9.485  2.2212  2.1359  0.2265
  383MOL0     H50513   2.672   2.702   9.585  0.9719  0.0391 -1.0192
  383MOL0     H50514   2.649   2.390   9.594  2.0907  0.8836 -2.7182
  383MOL0     H50515   2.569   2.489   9.716  1.6802 -1.2649  0.5357
  383MOL0     H50516   2.532   2.547   9.420  0.5390  1.8016  1.3002
  383MOL0     H50517   2.409   2.571   9.535 -1.6290 -2.0110  1.5700
  383MOL0     H50518   2.394   2.123   9.501 -1.2039 -0.0588 -1.3572
  383MOL0     H50519   2.173   2.007   9.525 -0.0292 -0.8445  2.3931
  383MOL0     H50520   1.794   1.926   9.720 -0.1591 -1.3666  2.8146
  383MOL0     H50521   1.575   1.855   9.841  0.9303  0.8271  1.1618
  383MOL0     H50522   1.241   2.152   9.860  0.6289  1.4987  2.1427
  383MOL0     H50523   1.282   2.143  10.030  1.8258  0.7882 -1.0850
  383MOL0     H50524   1.189   1.899  10.024  2.1726  2.3467  2.2267
  383MOL0     H50525   1.092   1.961   9.884 -2.4171 -1.5710  2.0666
  383MOL0     H50526   1.011   2.143  10.036  0.0225 -0.2223 -2.1054
  383MOL0     H50527   1.105   2.067  10.172  2.6207  0.8298 -1.1661
  383MOL0     H50528   0.930   1.885  10.012  1.6788  0.2914 -0.2379
  383MOL0     H50529   0.939   1.896  10.192 -0.1992 -0.6549 -0.7451
  383MOL0     H50530   0.786   2.085  10.195  2.5596 -1.2255  1.1493
  383MOL0     H50531   0.716   1.948  10.116  0.4481 -1.5734  1.6989
  383MOL0     H50532   0.835   2.186   9.970  2.0423 -2.0360 -0.8722
  383MOL0     H50533   0.663   2.163   9.997 -1.2257 -1.7874 -1.0007
  383MOL0     H50534   0.730   2.126   9.774 -2.1498 -0.5625 -0.5285
  383MOL0     H50535   0.852   2.010   9.818 -0.7143 -1.9764  1.2102
  383MOL0     H50536   0.681   1.845   9.876 -3.3436 -0.6119 -1.5043
  383MOL0     H50537   0.626   1.916   9.721 -2.4750 -0.3471 -0.8009
  383MOL0     H50538   1.428   2.243   9.844 -0.1800  0.4126 -1.7199
  383MOL0     H50539   1.635   2.327   9.738  0.3202  0.2784  1.4561
  383MOL0     H50540   1.976   2.386   9.567  0.0748  0.7503 -0.5095
  383MOL0     H50541   2.202   2.504   9.548  1.8350 -0.3660  1.8679
  383MOL0     H50542   3.438   3.038   8.999  1.3895  1.6262  0.1630
  383MOL0     H50543   3.436   2.832   8.836  1.2672 -2.5044 -0.1638
  383MOL0     H50544   3.576   2.463   8.705 -0.1758 -1.5205 -0.9027
  383MOL0     H50545   3.582   2.243   8.575  3.7303 -0.5844  0.1786
  383MOL0     H50546   3.743   2.184   8.184  0.3571  3.0300  2.3501
  383MOL0     H50547   3.593   2.266   8.137  1.1532  0.4031  0.6546
  383MOL0     H50548   3.600   1.983   8.224 -0.3256 -1.9192 -2.3283
  383MOL0     H50549   3.459   2.073   8.160 -0.8294 -3.7425  0.0070
  383MOL0     H50550   3.739   2.028   8.004 -0.8092 -0.7777 -3.7431
  383MOL0     H50551   3.571   2.061   7.938 -1.3300  0.5818  0.8981
  383MOL0     H50552   3.692   1.832   7.919 -0.4495  0.2957 -0.5610
  383MOL0     H50553   3.649   1.811   8.079  0.4096  1.8285  0.6780
  383MOL0     H50554   3.280   1.772   7.863  1.0913  0.3997 -0.7109
  383MOL0     H50555   3.688   2.451   8.228 -1.7959 -1.0743 -0.8931
  383MOL0     H50556   3.706   2.664   8.365  2.1989 -0.6733  2.0219
  384MOL0     O50557   5.703   8.399  10.712  0.0511  0.0402  0.4051
  384MOL0     C50558   5.755   8.291  10.672 -0.6722  0.0737 -0.2819
  384MOL0     O50559   5.687   8.181  10.638 -0.3647  0.3102  0.5769
  384MOL0     C50560   5.546   8.167  10.643 -0.7299 -0.1410  0.2745
  384MOL0     C50561   5.483   8.087  10.542 -0.0499 -0.0399  0.0032
  384MOL0     C50562   5.347   8.068  10.551 -0.5406  0.0497 -0.3025
  384MOL0     C50563   5.272   8.128  10.652  0.5411  0.0886 -0.0531
  384MOL0     O50564   5.140   8.090  10.649  0.1961 -0.1092 -0.0465
  384MOL0     C50565   5.033   8.162  10.724 -0.1351  0.3850 -0.6825
  384MOL0     C50566   4.905   8.135  10.649  0.1175 -0.1929 -0.7846
  384MOL0     C50567   4.787   8.211  10.705 -0.2040  0.2871 -0.0043
  384MOL0     C50568   4.663   8.123  10.682 -0.0723  0.2692 -0.0868
  384MOL0     C50569   4.564   8.148  10.801 -0.6585  0.5303  0.7735
  384MOL0     C50570   4.439   8.069  10.783 -0.4009  0.9849  1.0753
  384MOL0     C50571   4.325   8.127  10.864  0.0809  0.6523 -0.5231
  384MOL0     C50572   4.192   8.059  10.822 -0.8214 -0.1890  0.8098
  384MOL0     N50573   4.075   8.116  10.894  0.9920 -0.8401  0.0548
  384MOL0     C50574   3.977   8.179  10.828  0.3050  0.4502  0.2823
  384MOL0     C50575   3.872   8.183  10.913 -0.1677 -1.2460 -0.0424
  384MOL0     C50576   3.741   8.260  10.896  0.6740 -0.6984  0.5608
  384MOL0     C50577   3.747   8.408  10.944  0.1977  0.1224  0.2864
  384MOL0     C50578   3.615   8.492  10.909  0.3847 -0.7618  0.7578
  384MOL0     C50579   3.642   8.635  10.944  0.6781 -1.7447 -0.1302
  384MOL0     O50580   3.577   8.732  10.860  0.5776 -0.3200 -0.2876
  384MOL0     C50581   3.437   8.751  10.866 -0.4906  0.1641  0.3131
  384MOL0     C50582   3.350   8.677  10.932 -0.5855  0.3999  0.0902
  384MOL0     C50583   3.215   8.711  10.926  0.4759  0.1172 -0.0017
  384MOL0     C50584   3.175   8.820  10.854  0.1966 -0.3211  0.6494
  384MOL0     C50585   3.038   8.864  10.838 -0.0221 -0.0726  0.5216
  384MOL0     O50586   3.011   8.954  10.739 -0.3863  0.2262 -0.4029
  384MOL0     C50587   2.892   9.016  10.718  0.4210 -0.1703 -0.3609
  384MOL0     C50588   2.876   9.068  10.591  0.1592  0.1735  0.7528
  384MOL0     C50589   2.756   9.127  10.550  0.6732 -0.2174 -0.1243
  384MOL0     C50590   2.650   9.142  10.644  0.2283  0.5448 -0.4824
  384MOL0     O50591   2.524   9.190  10.611 -0.4222  0.6855  0.7596
  384MOL0     C50592   2.520   9.307  10.527 -0.5377 -0.3234 -0.0256
  384MOL0     C50593   2.390   9.369  10.535  0.8030  0.0464 -0.3793
  384MOL0     C50594   2.285   9.275  10.479 -0.2473 -0.7070  0.7796
  384MOL0     C50595   2.143   9.340  10.451 -0.3536 -0.6792 -0.2005
  384MOL0     C50596   2.025   9.241  10.419 -0.5043  0.6304 -0.1502
  384MOL0     C50597   1.893   9.310  10.435 -0.1881  0.2632  0.2746
  384MOL0     C50598   1.776   9.214  10.404  1.0017 -0.4365 -0.3411
  384MOL0     C50599   1.739   9.121  10.517  0.8685  0.0178  0.7090
  384MOL0    Cl50600   1.646   9.215  10.642  0.2170 -0.0763  0.1454
  384MOL0     C50601   2.673   9.089  10.769  0.6382 -0.7161 -0.6121
  384MOL0     C50602   2.779   9.016  10.806 -0.3749 -0.5302  0.4190
  384MOL0     O50603   2.955   8.809  10.906  0.2200  0.1086 -0.0258
  384MOL0     C50604   3.268   8.891  10.785  0.6749 -0.2788 -0.7850
  384MOL0     C50605   3.403   8.862  10.795 -0.4127  0.2758  0.5869
  384MOL0     N50606   3.905   8.108  11.023  0.2904 -0.3938  0.6584
  384MOL0     N50607   4.028   8.069  11.006  0.2619 -0.3939 -0.5762
  384MOL0     C50608   5.334   8.201  10.755 -0.9994 -0.3877  0.1069
  384MOL0     C50609   5.475   8.217  10.750  0.2611  0.2299 -0.2029
  384MOL0     C50610   5.892   8.297  10.648 -0.2584  0.1342  1.1480
  384MOL0     C50611   5.983   8.387  10.711 -0.7416 -0.4889  0.3484
  384MOL0     C50612   6.121   8.380  10.687  0.3430  1.0974 -0.6076
  384MOL0     C50613   6.181   8.280  10.601 -0.5681 -0.7222 -0.1156
  384MOL0     O50614   6.307   8.251  10.560  0.4514  0.0640 -0.4745
  384MOL0     C50615   6.409   8.344  10.589 -0.8636 -0.3139 -0.6582
  384MOL0     C50616   6.462   8.315  10.726  0.5535 -0.8337 -0.3276
  384MOL0     C50617   6.574   8.407  10.769  0.5801 -1.2539 -0.3879
  384MOL0     C50618   6.623   8.359  10.903 -0.4587 -0.3881 -0.3734
  384MOL0     C50619   6.524   8.369  11.012 -0.3035  1.1451  0.7151
  384MOL0     C50620   6.447   8.373  11.103  1.0036  0.2815 -0.1021
  384MOL0     C50621   6.090   8.193  10.538 -0.2056  0.2148  0.1464
  384MOL0     C50622   5.954   8.200  10.565  0.0175  0.8172  0.2498
  384MOL0     H50623   5.540   8.059  10.454  0.7244 -0.0505  0.4924
  384MOL0     H50624   5.291   8.017  10.473 -1.9999 -0.9928  1.3601
  384MOL0     H50625   5.047   8.270  10.722 -3.1520  0.8642 -2.0659
  384MOL0     H50626   5.016   8.127  10.826 -0.5437 -2.0890 -1.5386
  384MOL0     H50627   4.888   8.028  10.636  0.1830 -0.5007  1.4041
  384MOL0     H50628   4.917   8.179  10.550  0.8379 -0.3278 -0.7623
  384MOL0     H50629   4.765   8.299  10.644 -1.4876 -0.7082 -1.0338
  384MOL0     H50630   4.805   8.237  10.810  2.4370 -2.3950  0.3373
  384MOL0     H50631   4.612   8.158  10.592 -2.8958 -1.7818  0.5759
  384MOL0     H50632   4.686   8.016  10.681  1.1386  0.4570  1.6914
  384MOL0     H50633   4.537   8.254  10.806 -1.1436  0.4438  0.0568
  384MOL0     H50634   4.619   8.140  10.895  2.4083  1.2226 -0.8069
  384MOL0     H50635   4.444   7.965  10.816 -0.8213 -0.0559 -1.8557
  384MOL0     H50636   4.414   8.046  10.679 -1.4789 -2.9875  2.0438
  384MOL0     H50637   4.341   8.109  10.971  1.5914 -2.7107 -1.1979
  384MOL0     H50638   4.326   8.236  10.859  2.1929  0.9778  3.1760
  384MOL0     H50639   4.202   7.951  10.825 -0.7617 -0.2961 -1.4030
  384MOL0     H50640   4.175   8.079  10.715  2.0829 -0.6893  0.1824
  384MOL0     H50641   3.982   8.221  10.728  0.2672  0.3967  0.2581
  384MOL0     H50642   3.660   8.207  10.947  1.3827 -0.8260  1.5787
  384MOL0     H50643   3.718   8.258  10.789  2.3682  0.9291  0.0958
  384MOL0     H50644   3.831   8.451  10.888  0.7299 -1.2418 -0.0052
  384MOL0     H50645   3.766   8.422  11.050 -1.7958  1.4085  0.5161
  384MOL0     H50646   3.610   8.498  10.799 -0.1458  3.5193  0.8421
  384MOL0     H50647   3.528   8.444  10.954 -0.8331  1.1487  0.5499
  384MOL0     H50648   3.747   8.664  10.945 -0.2569  2.4518 -1.2528
  384MOL0     H50649   3.600   8.645  11.044 -0.6755 -0.1191 -0.8088
  384MOL0     H50650   3.376   8.589  10.989 -1.4231  0.0619 -0.0340
  384MOL0     H50651   3.141   8.640  10.960  1.0729  0.1949  1.5496
  384MOL0     H50652   2.951   9.090  10.515  0.3396 -1.5287  0.3994
  384MOL0     H50653   2.733   9.158  10.448  1.5504 -1.3720 -0.6864
  384MOL0     H50654   2.551   9.291  10.423  1.7828 -0.5895  0.6579
  384MOL0     H50655   2.589   9.386  10.559  0.5714 -0.5360 -1.7308
  384MOL0     H50656   2.380   9.461  10.477 -0.8724 -0.9816 -1.8161
  384MOL0     H50657   2.371   9.396  10.639 -0.3838  0.6362 -0.7403
  384MOL0     H50658   2.282   9.186  10.542  2.3462 -1.2215  0.2913
  384MOL0     H50659   2.314   9.235  10.381  2.1471 -1.6427  1.8043
  384MOL0     H50660   2.104   9.397  10.536 -5.1111 -2.5698 -0.7817
  384MOL0     H50661   2.161   9.414  10.372 -0.1672 -0.0183  0.4446
  384MOL0     H50662   2.045   9.155  10.484 -1.4016 -0.7164 -1.6013
  384MOL0     H50663   2.029   9.200  10.318 -0.3718  0.5671 -0.1210
  384MOL0     H50664   1.898   9.393  10.364  1.5891 -0.1850 -0.1806
  384MOL0     H50665   1.876   9.346  10.537  1.5156 -0.6372  0.9292
  384MOL0     H50666   1.688   9.272  10.377 -0.8365 -1.7661  2.3359
  384MOL0     H50667   1.795   9.150  10.317 -4.4372  0.9299 -2.9466
  384MOL0     H50668   1.822   9.066  10.563  0.3530 -2.4280 -1.0769
  384MOL0     H50669   1.675   9.045  10.472  1.3528  0.5021 -0.8901
  384MOL0     H50670   2.581   9.081  10.826  1.3343 -0.0791  0.6476
  384MOL0     H50671   2.782   8.976  10.907 -0.2470  1.7003  1.3621
  384MOL0     H50672   3.240   8.976  10.723 -0.6249 -0.3065 -0.2540
  384MOL0     H50673   3.482   8.921  10.749 -1.1699 -0.7588 -2.3254
  384MOL0     H50674   5.263   8.247  10.823 -2.3411  1.3320 -2.2975
  384MOL0     H50675   5.530   8.266  10.829 -1.9797  1.2196  0.8322
  384MOL0     H50676   5.932   8.462  10.771 -0.7960  0.4590 -0.8618
  384MOL0     H50677   6.186   8.455  10.732 -3.5907  3.3154  2.0452
  384MOL0     H50678   6.373   8.446  10.573  1.9854  0.5163 -2.6978
  384MOL0     H50679   6.484   8.325  10.511 -0.2753  0.3105 -0.2518
  384MOL0     H50680   6.385   8.326  10.802  1.4721  2.5620  0.2837
  384MOL0     H50681   6.499   8.212  10.721  4.0940  0.2498  0.6191
  384MOL0     H50682   6.539   8.510  10.776 -0.2423 -1.4104 -1.7132
  384MOL0     H50683   6.655   8.407  10.696 -0.2756  0.4206 -1.4037
  384MOL0     H50684   6.654   8.255  10.910  0.5513 -0.0044  1.2978
  384MOL0     H50685   6.719   8.409  10.921 -0.1820 -0.8932 -0.4382
  384MOL0     H50686   6.369   8.389  11.175  1.3373  2.8138 -0.2096
  384MOL0     H50687   6.129   8.115  10.473 -3.3072 -0.1103 -1.5441
  384MOL0     H50688   5.891   8.130  10.511 -1.3851  2.3574 -0.2055
  385MOL0     O50689   8.023   7.452   8.956 -0.0080  0.5853  0.1583
  385MOL0     C50690   8.088   7.349   8.950  0.3745  0.5771  0.4323
  385MOL0     O50691   8.045   7.232   8.893 -0.3091 -0.3098 -0.1158
  385MOL0     C50692   7.918   7.231   8.842  0.4163  0.8368  0.6845
  385MOL0     C50693   7.896   7.193   8.711 -1.1786  0.1016  0.2501
  385MOL0     C50694   7.770   7.166   8.664 -0.2157  0.9551  0.4165
  385MOL0     C50695   7.658   7.174   8.742  0.5898 -0.2683 -0.3816
  385MOL0     O50696   7.530   7.152   8.699 -0.2732  0.1086 -0.0853
  385MOL0     C50697   7.512   7.012   8.669 -0.2489  1.0396 -0.0763
  385MOL0     C50698   7.363   6.971   8.664  0.3014 -0.4421 -0.1179
  385MOL0     C50699   7.339   6.825   8.669 -0.9170 -0.1097  0.2442
  385MOL0     C50700   7.397   6.738   8.563 -1.2739  0.3117 -0.0979
  385MOL0     C50701   7.345   6.787   8.426  0.0189  0.9210  0.3323
  385MOL0     C50702   7.368   6.690   8.314 -0.1981 -0.2040  0.5578
  385MOL0     C50703   7.302   6.555   8.328  0.2465  0.2447 -1.2550
  385MOL0     C50704   7.309   6.466   8.209 -0.6958 -0.4855  0.2519
  385MOL0     N50705   7.449   6.435   8.187 -0.2783 -0.0329 -0.0768
  385MOL0     C50706   7.522   6.344   8.258  0.4819 -0.0630 -0.2012
  385MOL0     C50707   7.627   6.320   8.178 -0.6252 -0.6490  0.6141
  385MOL0     C50708   7.720   6.202   8.202  0.4631  0.2860  0.4175
  385MOL0     C50709   7.695   6.087   8.097 -0.3534  0.9708  0.2767
  385MOL0     C50710   7.689   5.951   8.171 -0.3749 -0.0785  0.4846
  385MOL0     C50711   7.828   5.914   8.230  0.3152 -0.7270  0.0052
  385MOL0     O50712   7.910   5.853   8.135 -0.0474 -0.3215  0.2928
  385MOL0     C50713   8.040   5.820   8.164  0.5762 -0.3418  0.1794
  385MOL0     C50714   8.124   5.808   8.061  0.8601  0.4723  0.8806
  385MOL0     C50715   8.261   5.784   8.078 -0.3373 -0.9951  0.2170
  385MOL0     C50716   8.323   5.774   8.199 -0.9584  0.1405  0.2794
  385MOL0     C50717   8.463   5.756   8.224 -0.2280  0.3624  0.2095
  385MOL0     O50718   8.541   5.719   8.113  0.5474  0.0452  0.5514
  385MOL0     C50719   8.674   5.694   8.135 -0.3948  1.1953  0.0023
  385MOL0     C50720   8.770   5.770   8.063 -0.3744  0.0682  0.6082
  385MOL0     C50721   8.898   5.745   8.089 -0.0623  0.2146 -0.3735
  385MOL0     C50722   8.945   5.649   8.183 -0.1531 -0.4132  0.2430
  385MOL0     O50723   9.082   5.649   8.200  0.3468  0.0164 -0.8619
  385MOL0     C50724   9.153   5.609   8.324 -1.0093  0.2851  1.0066
  385MOL0     C50725   9.306   5.607   8.307  0.2341  0.0658  0.3441
  385MOL0     C50726   9.368   5.503   8.208 -0.7115  0.1001 -0.5408
  385MOL0     C50727   9.518   5.529   8.189  0.0157  0.2475 -0.3014
  385MOL0     C50728   9.592   5.462   8.310  0.0167  0.6234  0.5094
  385MOL0     C50729   9.740   5.487   8.298  0.1279 -0.6317 -0.3698
  385MOL0     C50730   9.801   5.485   8.154  0.6922 -0.1183  0.5824
  385MOL0     C50731   9.955   5.458   8.158  0.2510 -1.3194 -0.1836
  385MOL0    Cl50732  10.018   5.464   7.990 -0.0481  0.3136  0.0629
  385MOL0     C50733   8.850   5.576   8.258 -0.3506  0.2013  0.4855
  385MOL0     C50734   8.715   5.595   8.230 -0.2926 -0.3476 -0.3688
  385MOL0     O50735   8.509   5.773   8.341  0.1160 -0.0982  0.3768
  385MOL0     C50736   8.241   5.799   8.309 -0.1725  0.6547 -0.1477
  385MOL0     C50737   8.102   5.813   8.291  0.4864 -0.1948 -0.5427
  385MOL0     N50738   7.626   6.413   8.073 -0.4880  0.7064  0.5219
  385MOL0     N50739   7.519   6.483   8.083  0.7333 -0.3064  0.6756
  385MOL0     C50740   7.675   7.240   8.866 -0.0103 -0.2530  0.1373
  385MOL0     C50741   7.804   7.249   8.921  0.5294  0.1386 -0.0689
  385MOL0     C50742   8.225   7.349   9.004  0.0603  0.5790  0.0330
  385MOL0     C50743   8.301   7.234   8.980  0.6484  0.0256 -0.4696
  385MOL0     C50744   8.429   7.225   9.038 -0.8788  0.5172 -0.1122
  385MOL0     C50745   8.486   7.335   9.101  0.0596  0.2646  0.5385
  385MOL0     O50746   8.618   7.340   9.138 -0.2424 -0.4760 -0.3059
  385MOL0     C50747   8.727   7.254   9.075  0.5614 -0.1861 -0.2539
  385MOL0     C50748   8.777   7.153   9.179  0.7546  0.2579  0.5861
  385MOL0     C50749   8.897   7.069   9.136 -0.4010  0.8249 -0.7378
  385MOL0     C50750   9.022   7.155   9.127 -0.4942  0.2842  0.3433
  385MOL0     C50751   9.145   7.071   9.135 -0.1404  0.2844  0.2668
  385MOL0     C50752   9.244   7.002   9.153  0.3131 -0.9792  0.8027
  385MOL0     C50753   8.413   7.454   9.111  0.2941  0.3113  0.1651
  385MOL0     C50754   8.287   7.462   9.063  0.7315  0.1762  0.3201
  385MOL0     H50755   7.975   7.182   8.637 -3.2459 -1.4638 -1.9099
  385MOL0     H50756   7.772   7.129   8.562  3.7281 -2.4184  1.4201
  385MOL0     H50757   7.561   6.954   8.747  0.8493 -1.2717 -2.3347
  385MOL0     H50758   7.566   6.988   8.577  1.1438  1.3996  0.6251
  385MOL0     H50759   7.316   7.014   8.576  1.2344  0.1144 -0.3628
  385MOL0     H50760   7.313   7.007   8.754  1.4138 -0.9050  0.7191
  385MOL0     H50761   7.230   6.819   8.662 -0.7863 -0.8190 -2.3122
  385MOL0     H50762   7.375   6.782   8.764  0.9001 -0.8136 -0.6995
  385MOL0     H50763   7.507   6.735   8.564 -1.2414  1.1819 -0.3249
  385MOL0     H50764   7.378   6.633   8.589  1.0794  0.1094  1.1942
  385MOL0     H50765   7.382   6.883   8.388  0.3510  0.4032 -0.6926
  385MOL0     H50766   7.236   6.786   8.434  0.0797 -1.1236  1.5498
  385MOL0     H50767   7.476   6.682   8.300  0.3706  2.0112  2.8648
  385MOL0     H50768   7.324   6.720   8.219 -0.0408  0.5941  0.7261
  385MOL0     H50769   7.339   6.498   8.414 -3.7662 -0.9629 -0.1200
  385MOL0     H50770   7.195   6.573   8.340  0.2617 -0.8422  1.2264
  385MOL0     H50771   7.267   6.520   8.123  2.2695 -2.3080 -2.5998
  385MOL0     H50772   7.249   6.376   8.226 -2.4188 -0.2486 -3.4863
  385MOL0     H50773   7.495   6.294   8.350 -2.8668  0.9385 -0.5143
  385MOL0     H50774   7.707   6.168   8.305  2.0306 -0.3020  0.4437
  385MOL0     H50775   7.821   6.242   8.187  1.9180 -2.8949  0.9089
  385MOL0     H50776   7.772   6.080   8.020  0.8898  1.2011  1.4448
  385MOL0     H50777   7.596   6.106   8.054  0.4897  0.4537 -1.9734
  385MOL0     H50778   7.615   5.958   8.252 -1.7712 -1.5162 -0.6084
  385MOL0     H50779   7.664   5.867   8.106  4.9277  1.1856 -3.8943
  385MOL0     H50780   7.814   5.843   8.311  0.4617 -2.3077 -1.3003
  385MOL0     H50781   7.886   6.000   8.263 -0.5129  0.3413 -1.1906
  385MOL0     H50782   8.095   5.822   7.957  0.7268 -1.9515  0.5449
  385MOL0     H50783   8.321   5.769   7.988 -0.1011  1.7615 -0.1697
  385MOL0     H50784   8.731   5.848   7.998 -2.6074 -1.5095 -0.0829
  385MOL0     H50785   8.968   5.805   8.032  3.2823 -0.7396  2.3841
  385MOL0     H50786   9.123   5.505   8.341  0.7562 -1.0825 -2.8481
  385MOL0     H50787   9.131   5.671   8.411  0.4282  1.9072  0.2754
  385MOL0     H50788   9.348   5.594   8.407 -1.1855 -0.6934  0.8670
  385MOL0     H50789   9.342   5.708   8.284 -0.4524  0.0998 -0.6885
  385MOL0     H50790   9.310   5.518   8.117 -0.5907 -0.4509 -0.7145
  385MOL0     H50791   9.349   5.401   8.244  0.7529 -0.1056 -0.2683
  385MOL0     H50792   9.546   5.483   8.094 -1.0553  0.3917 -0.7094
  385MOL0     H50793   9.538   5.636   8.180  0.9429  0.0386 -0.7900
  385MOL0     H50794   9.579   5.355   8.292 -1.1665  0.9482 -0.7344
  385MOL0     H50795   9.554   5.483   8.410  0.5016 -1.5948  1.2165
  385MOL0     H50796   9.793   5.413   8.359 -1.7487 -2.0053 -0.3092
  385MOL0     H50797   9.761   5.584   8.344 -0.7076 -0.8535  0.5028
  385MOL0     H50798   9.753   5.404   8.097  0.4594  1.1526 -1.1132
  385MOL0     H50799   9.798   5.584   8.108  1.6929 -0.7154 -0.8600
  385MOL0     H50800   9.982   5.361   8.200  1.1577 -1.0937 -0.2373
  385MOL0     H50801   9.991   5.547   8.212 -1.7860 -1.1951  1.0970
  385MOL0     H50802   8.880   5.501   8.331 -3.0949 -1.2179  0.2881
  385MOL0     H50803   8.637   5.538   8.279  0.6012 -0.9812  0.3438
  385MOL0     H50804   8.282   5.801   8.410  3.5147  1.7970 -1.4978
  385MOL0     H50805   8.043   5.813   8.382  1.1067 -1.1756 -0.1097
  385MOL0     H50806   7.588   7.273   8.922  0.5899  1.6271  0.0504
  385MOL0     H50807   7.826   7.284   9.022  1.9577  1.1965 -0.7150
  385MOL0     H50808   8.260   7.145   8.934  0.5937 -1.4837  2.3173
  385MOL0     H50809   8.479   7.131   9.019 -0.2912  0.8188 -0.0498
  385MOL0     H50810   8.806   7.324   9.047 -1.0054  1.2706 -1.3034
  385MOL0     H50811   8.691   7.200   8.987 -0.3307  2.0038 -1.3237
  385MOL0     H50812   8.790   7.205   9.274 -0.5422 -2.1135  2.1430
  385MOL0     H50813   8.692   7.086   9.195  0.2809  0.5268 -0.6223
  385MOL0     H50814   8.886   7.022   9.038  0.3039  0.6954 -0.7592
  385MOL0     H50815   8.911   6.999   9.219  0.6400  0.5089 -1.1674
  385MOL0     H50816   9.014   7.194   9.025 -1.5682 -0.6406  0.0533
  385MOL0     H50817   9.031   7.233   9.203 -0.4467  2.2360 -1.5640
  385MOL0     H50818   9.325   6.934   9.167 -0.8430 -2.1850  1.8858
  385MOL0     H50819   8.460   7.539   9.158  0.3882  1.5864 -2.1120
  385MOL0     H50820   8.242   7.560   9.071  2.5992  1.2981 -1.8308
  386MOL0     O50821   9.714   3.347   3.679  0.4877  0.1746 -0.0057
  386MOL0     C50822   9.753   3.457   3.634 -0.0498 -0.2657  0.0574
  386MOL0     O50823   9.676   3.575   3.625  0.3622  0.1327  0.2540
  386MOL0     C50824   9.546   3.569   3.662  0.5018 -1.5037  0.5875
  386MOL0     C50825   9.463   3.468   3.645 -0.3476  0.6481  0.5540
  386MOL0     C50826   9.322   3.478   3.681  0.1104  0.5080 -0.1266
  386MOL0     C50827   9.273   3.592   3.740 -0.1015 -0.4156 -0.2330
  386MOL0     O50828   9.148   3.594   3.793 -0.5828 -0.4629  0.2218
  386MOL0     C50829   9.059   3.683   3.727 -0.0620  0.1326 -0.5267
  386MOL0     C50830   8.930   3.711   3.814 -0.1836  0.4466 -0.1438
  386MOL0     C50831   8.862   3.579   3.862 -1.0830 -0.1190  0.2860
  386MOL0     C50832   8.753   3.622   3.966 -0.8677 -0.3121  0.2113
  386MOL0     C50833   8.674   3.501   4.027  0.2962 -0.3670 -0.6764
  386MOL0     C50834   8.556   3.549   4.123  0.0068  0.3586  0.0180
  386MOL0     C50835   8.450   3.439   4.153  0.0031  0.0958  0.1379
  386MOL0     C50836   8.345   3.513   4.244 -0.2034 -0.1769  1.0333
  386MOL0     N50837   8.254   3.432   4.313  0.7996  0.9225 -0.5811
  386MOL0     C50838   8.277   3.351   4.424  0.1409 -0.4131 -0.0455
  386MOL0     C50839   8.156   3.302   4.456 -0.1274  0.0170  0.6772
  386MOL0     C50840   8.137   3.224   4.578  0.1296  0.3610  0.0818
  386MOL0     C50841   8.165   3.318   4.693  0.1715 -0.1760 -0.3082
  386MOL0     C50842   8.067   3.277   4.808 -0.5922  0.0771 -0.2963
  386MOL0     C50843   7.918   3.320   4.800 -0.3660  0.9186  0.0807
  386MOL0     O50844   7.849   3.250   4.908  1.3072  0.6650  0.5523
  386MOL0     C50845   7.714   3.230   4.901  0.8160 -0.9595 -0.7153
  386MOL0     C50846   7.657   3.137   4.985 -1.2925 -0.2891 -0.0747
  386MOL0     C50847   7.526   3.107   4.976 -0.2904 -0.4191 -0.0784
  386MOL0     C50848   7.446   3.180   4.890  0.2272 -0.3846 -0.0904
  386MOL0     C50849   7.301   3.153   4.883  0.2529 -0.2689  0.0238
  386MOL0     O50850   7.244   3.092   4.993 -0.6221 -0.6108  0.6384
  386MOL0     C50851   7.109   3.078   5.012  0.4408  0.3106 -0.2080
  386MOL0     C50852   7.053   2.955   5.038  0.2882 -0.3052  1.3083
  386MOL0     C50853   6.925   2.939   5.086 -0.2317 -0.3736  0.5090
  386MOL0     C50854   6.848   3.051   5.098 -0.0063  0.0400  0.7023
  386MOL0     O50855   6.718   3.047   5.142 -0.9095  0.8810 -0.3299
  386MOL0     C50856   6.675   3.152   5.236 -1.6278  1.0298  0.0424
  386MOL0     C50857   6.554   3.094   5.307  0.6025  0.6472 -0.0745
  386MOL0     C50858   6.484   3.192   5.408 -1.1510 -0.6026 -0.4595
  386MOL0     C50859   6.357   3.123   5.471  0.6289 -0.0712  0.3633
  386MOL0     C50860   6.297   3.207   5.580 -0.0143  0.1486 -0.1442
  386MOL0     C50861   6.218   3.323   5.526  0.7177  0.3075  0.0127
  386MOL0     C50862   6.165   3.423   5.633 -0.2835  0.2867  0.1686
  386MOL0     C50863   6.104   3.550   5.571 -0.9128  0.8224  0.0301
  386MOL0    Cl50864   5.964   3.527   5.461  0.3411  0.1942 -0.2224
  386MOL0     C50865   6.906   3.183   5.069  0.1690  0.7506 -0.3315
  386MOL0     C50866   7.038   3.198   5.027  0.2115  0.1364  0.0838
  386MOL0     O50867   7.232   3.210   4.797  0.2360 -0.1031 -0.3779
  386MOL0     C50868   7.497   3.289   4.821  0.6761  0.2312  0.2837
  386MOL0     C50869   7.633   3.311   4.822  0.1191 -0.0777  0.6155
  386MOL0     N50870   8.057   3.341   4.369 -0.1188  0.5402 -0.0060
  386MOL0     N50871   8.118   3.424   4.284  0.1665  0.7502 -0.1927
  386MOL0     C50872   9.361   3.693   3.762  0.0111 -1.3419 -0.4554
  386MOL0     C50873   9.491   3.684   3.727 -0.3368  1.0127  0.0473
  386MOL0     C50874   9.893   3.464   3.571  0.0403  0.1300 -0.2686
  386MOL0     C50875   9.991   3.369   3.608  0.6089  0.7768  0.7873
  386MOL0     C50876  10.117   3.380   3.549 -0.2650 -0.8190  0.2320
  386MOL0     C50877  10.152   3.485   3.465 -0.2086  0.5263 -0.2068
  386MOL0     O50878  10.284   3.494   3.423  0.0796 -0.0472  0.0805
  386MOL0     C50879  10.341   3.623   3.424  0.3537 -0.2922  0.6114
  386MOL0     C50880  10.487   3.597   3.467  0.5069 -0.4157  0.0201
  386MOL0     C50881  10.567   3.521   3.369 -0.5617  0.4992 -0.7739
  386MOL0     C50882  10.607   3.600   3.242  0.5730 -0.5825 -0.8907
  386MOL0     C50883  10.671   3.732   3.260  0.2924 -0.3707  0.5828
  386MOL0     C50884  10.725   3.845   3.284 -0.2420  0.2023  0.0891
  386MOL0     C50885  10.054   3.576   3.434 -0.8789  0.5784 -0.7172
  386MOL0     C50886   9.927   3.552   3.476  0.0325 -0.7579  0.4944
  386MOL0     H50887   9.494   3.381   3.589 -0.3516  1.6980 -1.1377
  386MOL0     H50888   9.263   3.390   3.658 -0.8512  0.4362  2.3153
  386MOL0     H50889   9.031   3.651   3.627 -0.2821 -1.0801 -0.0927
  386MOL0     H50890   9.096   3.786   3.716 -1.5063  1.0353  2.1453
  386MOL0     H50891   8.856   3.770   3.758  0.4752 -0.1165 -1.6689
  386MOL0     H50892   8.970   3.764   3.900 -0.0563 -3.0764  2.2031
  386MOL0     H50893   8.922   3.514   3.927 -0.4061  0.4206  0.2132
  386MOL0     H50894   8.826   3.526   3.773 -0.4077  1.9013 -1.2693
  386MOL0     H50895   8.793   3.686   4.047  0.2851 -0.5712 -0.1301
  386MOL0     H50896   8.691   3.694   3.912  0.6293  0.6943 -0.2361
  386MOL0     H50897   8.740   3.435   4.084  0.8957  1.7763  1.2518
  386MOL0     H50898   8.618   3.445   3.952 -2.5296 -1.3131  1.8928
  386MOL0     H50899   8.512   3.643   4.088  0.7726  1.1834  1.1950
  386MOL0     H50900   8.602   3.587   4.215 -0.1907 -1.4566  0.9196
  386MOL0     H50901   8.399   3.414   4.060 -0.3022 -1.3205  0.6463
  386MOL0     H50902   8.484   3.350   4.208  2.2029  2.0848  2.1968
  386MOL0     H50903   8.287   3.583   4.184 -0.4680  0.9503  2.5488
  386MOL0     H50904   8.394   3.578   4.317 -0.7569 -1.1645  2.3248
  386MOL0     H50905   8.370   3.323   4.473  1.3130  0.0684 -1.8895
  386MOL0     H50906   8.201   3.137   4.566 -1.8778 -1.2305  0.3592
  386MOL0     H50907   8.035   3.185   4.584 -0.1491  1.2396  1.3465
  386MOL0     H50908   8.163   3.425   4.672  1.1843  0.6092  2.9832
  386MOL0     H50909   8.265   3.293   4.731 -0.0038 -2.6545 -1.2257
  386MOL0     H50910   8.087   3.170   4.816  2.0747  0.5074 -0.3035
  386MOL0     H50911   8.106   3.330   4.895 -2.2123  1.0184 -0.1083
  386MOL0     H50912   7.879   3.288   4.703 -0.6822  1.7045 -0.0525
  386MOL0     H50913   7.901   3.427   4.809  0.7252  1.0023  1.4172
  386MOL0     H50914   7.722   3.070   5.041 -0.7718  0.5506  0.3546
  386MOL0     H50915   7.476   3.039   5.044 -1.2491  0.1895 -0.1476
  386MOL0     H50916   7.120   2.872   5.021 -0.1138 -0.2177 -1.0831
  386MOL0     H50917   6.888   2.838   5.103  3.1804 -1.5211  1.8789
  386MOL0     H50918   6.652   3.246   5.185 -3.8824  1.0281  0.9510
  386MOL0     H50919   6.758   3.176   5.303 -0.1918  1.4180 -1.8059
  386MOL0     H50920   6.585   3.001   5.355 -0.7123 -0.0440 -0.4929
  386MOL0     H50921   6.481   3.060   5.232  0.2255 -0.5511  0.8124
  386MOL0     H50922   6.454   3.279   5.348 -0.3993  0.1615  0.2595
  386MOL0     H50923   6.552   3.221   5.488  0.3271  0.0441 -1.9032
  386MOL0     H50924   6.281   3.101   5.396  1.1037  0.4702 -0.2950
  386MOL0     H50925   6.387   3.026   5.512 -0.8743 -0.2730  1.0362
  386MOL0     H50926   6.378   3.242   5.646 -2.1525 -0.4031  3.0101
  386MOL0     H50927   6.224   3.155   5.643 -0.4113  2.8561  1.8487
  386MOL0     H50928   6.141   3.264   5.474 -0.3115  0.0864  1.6910
  386MOL0     H50929   6.267   3.373   5.443  1.4276 -2.6491 -1.4724
  386MOL0     H50930   6.085   3.368   5.684  0.9685 -1.4421  0.3199
  386MOL0     H50931   6.243   3.457   5.702 -0.1506  0.2425  0.0391
  386MOL0     H50932   6.183   3.600   5.514  1.6868 -2.6791  0.2189
  386MOL0     H50933   6.073   3.623   5.646 -1.2796  0.6433  0.0582
  386MOL0     H50934   6.851   3.273   5.092 -2.0438  0.1043 -2.6389
  386MOL0     H50935   7.078   3.298   5.019  1.8441 -0.4125  0.9771
  386MOL0     H50936   7.435   3.355   4.760  2.5093  0.3884 -1.5174
  386MOL0     H50937   7.668   3.388   4.753  0.8635 -0.7052  0.2691
  386MOL0     H50938   9.316   3.777   3.813  1.6372  1.4702 -3.2843
  386MOL0     H50939   9.558   3.764   3.758  1.6420 -0.7805  0.6311
  386MOL0     H50940   9.960   3.285   3.668  0.6381 -1.2588 -1.8694
  386MOL0     H50941  10.187   3.304   3.583  0.8555  0.4578  0.9017
  386MOL0     H50942  10.287   3.690   3.492 -0.7898 -2.1913  1.6736
  386MOL0     H50943  10.339   3.676   3.329  1.3804  2.2520  1.9272
  386MOL0     H50944  10.535   3.694   3.478  0.8717 -0.3716 -1.6199
  386MOL0     H50945  10.487   3.552   3.567  2.1130 -0.3099  0.0978
  386MOL0     H50946  10.520   3.426   3.344 -0.2493  0.0183  0.4381
  386MOL0     H50947  10.660   3.493   3.420  0.0413  0.8704 -1.6442
  386MOL0     H50948  10.678   3.541   3.183  3.4064  1.7343 -0.0353
  386MOL0     H50949  10.512   3.603   3.187 -0.5610  0.2324  1.0178
  386MOL0     H50950  10.761   3.944   3.302  1.7941 -0.6305  0.8617
  386MOL0     H50951  10.070   3.661   3.370 -0.5063  1.5534  0.6220
  386MOL0     H50952   9.852   3.621   3.441  0.2118 -1.5263 -1.5710
  387MOL0     O50953   2.254   6.507   0.053 -0.5536  0.0810 -0.0680
  387MOL0     C50954   2.176   6.416   0.036 -0.0323 -0.3790  0.0338
  387MOL0     O50955   2.210   6.285   0.047  0.0097  0.5772 -0.6140
  387MOL0     C50956   2.336   6.260   0.079  0.1138 -0.1865  0.5057
  387MOL0     C50957   2.374   6.240   0.213 -0.2759 -0.3878  0.1922
  387MOL0     C50958   2.511   6.221   0.243  0.1642  0.3160  0.2798
  387MOL0     C50959   2.607   6.206   0.145 -0.5211  0.8647 -0.2901
  387MOL0     O50960   2.734   6.192   0.198  0.3722  0.7763 -0.0270
  387MOL0     C50961   2.825   6.096   0.146 -0.0885  0.5323  0.6278
  387MOL0     C50962   2.944   6.067   0.233  0.4300 -0.2145 -0.5465
  387MOL0     C50963   3.056   5.996   0.162 -0.4305 -0.4774  0.4274
  387MOL0     C50964   3.178   5.993   0.252  0.2125 -1.0123 -0.8560
  387MOL0     C50965   3.302   5.940   0.176  0.0657  0.5401 -0.3059
  387MOL0     C50966   3.283   5.794   0.123  0.3380  0.0083 -0.2108
  387MOL0     C50967   3.413   5.722   0.135  0.6395  0.5975  0.4604
  387MOL0     C50968   3.456   5.642   0.010 -0.6057  0.0220  0.4109
  387MOL0     N50969   3.552   5.717  -0.076 -0.0569  0.8319  0.5383
  387MOL0     C50970   3.525   5.828  -0.140 -0.0293 -0.0196 -0.1238
  387MOL0     C50971   3.642   5.864  -0.207  0.7158 -0.5682  0.5619
  387MOL0     C50972   3.668   5.984  -0.298 -0.2021 -0.6325 -0.6548
  387MOL0     C50973   3.542   6.080  -0.305  0.2818  0.6691 -0.0357
  387MOL0     C50974   3.438   6.008  -0.399  0.4869 -0.6546 -0.1214
  387MOL0     C50975   3.308   6.086  -0.424 -0.0543 -0.9221  0.6516
  387MOL0     O50976   3.237   6.145  -0.314 -0.3258 -0.5059 -0.4315
  387MOL0     C50977   3.134   6.079  -0.257 -0.5838 -0.5318 -0.1460
  387MOL0     C50978   3.129   5.945  -0.236  0.3067  0.3361 -0.0337
  387MOL0     C50979   3.007   5.876  -0.226 -0.2239 -0.0994  0.5840
  387MOL0     C50980   2.892   5.951  -0.216 -0.2060  0.0107  0.3944
  387MOL0     C50981   2.761   5.875  -0.208  0.0730  0.0065  0.0362
  387MOL0     O50982   2.648   5.942  -0.205  0.4061  0.5179 -0.0202
  387MOL0     C50983   2.530   5.871  -0.190  0.7892 -0.0704 -0.0497
  387MOL0     C50984   2.456   5.841  -0.308  0.4705 -0.1609 -0.7867
  387MOL0     C50985   2.331   5.782  -0.299  0.4509  0.0069  0.1888
  387MOL0     C50986   2.274   5.750  -0.173  0.2175 -0.6808  0.2204
  387MOL0     O50987   2.158   5.678  -0.173 -0.0572 -0.5797  0.5818
  387MOL0     C50988   2.111   5.596  -0.061 -0.3450  0.3350  0.1482
  387MOL0     C50989   1.998   5.503  -0.113 -0.7703  0.2828  0.3181
  387MOL0     C50990   1.863   5.582  -0.114 -0.3651  0.9565 -1.0878
  387MOL0     C50991   1.752   5.489  -0.176  0.7565 -0.2987 -0.3894
  387MOL0     C50992   1.642   5.575  -0.233  1.3542  0.0769  1.0539
  387MOL0     C50993   1.537   5.487  -0.294 -0.2346  0.2919 -0.4420
  387MOL0     C50994   1.405   5.559  -0.334  0.0676  0.4397  0.2727
  387MOL0     C50995   1.290   5.457  -0.327 -0.5229  0.5075 -0.2588
  387MOL0    Cl50996   1.302   5.324  -0.442  0.6191 -0.2694  0.2568
  387MOL0     C50997   2.338   5.786  -0.058 -0.6407  0.2507 -0.9758
  387MOL0     C50998   2.470   5.836  -0.065 -0.6507 -0.0885 -0.3240
  387MOL0     O50999   2.768   5.750  -0.200 -0.3801  0.1456 -0.1997
  387MOL0     C51000   2.895   6.096  -0.214 -0.3168  0.0573 -0.6322
  387MOL0     C51001   3.019   6.154  -0.240  1.1420  0.4603 -0.3291
  387MOL0     N51002   3.736   5.764  -0.176  0.9770 -0.6239  0.3164
  387MOL0     N51003   3.680   5.679  -0.091 -0.0159 -0.2474  1.1613
  387MOL0     C51004   2.569   6.213   0.008  0.2596  0.2180 -0.4469
  387MOL0     C51005   2.432   6.243  -0.022  0.4832  0.0956  0.2562
  387MOL0     C51006   2.035   6.444  -0.006  0.3786  0.5606  0.1001
  387MOL0     C51007   1.937   6.348   0.011  0.4493 -0.2084 -0.0056
  387MOL0     C51008   1.803   6.382  -0.020  0.7661  0.5351 -0.2493
  387MOL0     C51009   1.762   6.501  -0.076  0.6070 -0.5434 -1.1918
  387MOL0     O51010   1.629   6.519  -0.094 -0.2807  0.2899 -0.3677
  387MOL0     C51011   1.566   6.644  -0.121  0.0809  0.3353  0.1802
  387MOL0     C51012   1.563   6.669  -0.276 -0.1329 -0.8385 -0.3371
  387MOL0     C51013   1.517   6.552  -0.369  0.5599 -1.1314  0.3138
  387MOL0     C51014   1.466   6.600  -0.506  0.0436  0.4580  0.9996
  387MOL0     C51015   1.592   6.629  -0.579 -0.1238  0.4725 -0.3623
  387MOL0     C51016   1.694   6.645  -0.640 -0.2399 -0.2237  0.7064
  387MOL0     C51017   1.863   6.597  -0.096 -0.0922 -0.4969  0.3436
  387MOL0     C51018   1.994   6.568  -0.058  0.2586 -0.2427 -0.4986
  387MOL0     H51019   2.309   6.254   0.298  0.9824  0.9104  0.9975
  387MOL0     H51020   2.541   6.231   0.347  0.6942  2.5612 -0.0453
  387MOL0     H51021   2.868   6.137   0.054 -0.2161 -0.7961 -0.0466
  387MOL0     H51022   2.772   6.003   0.126  0.7079 -0.3224  2.2975
  387MOL0     H51023   2.915   5.991   0.307 -1.0661 -1.9674 -2.7772
  387MOL0     H51024   2.982   6.159   0.277 -1.1996  0.6594 -0.8704
  387MOL0     H51025   3.082   6.048   0.069 -0.2505 -2.9687 -1.0296
  387MOL0     H51026   3.017   5.898   0.131 -2.3810  0.6211 -0.8238
  387MOL0     H51027   3.192   6.094   0.291  0.5015 -0.4829 -2.2590
  387MOL0     H51028   3.166   5.933   0.342 -1.3464  0.7053  0.1628
  387MOL0     H51029   3.384   5.952   0.248  1.6634  0.1208 -2.0052
  387MOL0     H51030   3.333   5.998   0.089 -0.2418  1.1191 -0.0395
  387MOL0     H51031   3.252   5.801   0.018  1.3104  0.6853 -0.4724
  387MOL0     H51032   3.198   5.748   0.173 -1.0467  1.1435 -1.4273
  387MOL0     H51033   3.503   5.782   0.154 -0.1475  2.3351 -0.9966
  387MOL0     H51034   3.392   5.641   0.206  2.5538 -2.5662 -2.2737
  387MOL0     H51035   3.370   5.629  -0.056 -0.1631 -1.7595  0.1296
  387MOL0     H51036   3.492   5.541   0.036 -0.2797 -0.2452 -1.0082
  387MOL0     H51037   3.435   5.888  -0.130 -2.2543 -3.3147  1.2959
  387MOL0     H51038   3.698   5.954  -0.399  1.9713 -3.5862  0.7093
  387MOL0     H51039   3.760   6.034  -0.268 -0.5751 -0.1649 -0.2776
  387MOL0     H51040   3.577   6.176  -0.343 -0.1472  0.3339 -1.2981
  387MOL0     H51041   3.491   6.088  -0.208  1.8585 -2.3462  1.1786
  387MOL0     H51042   3.475   6.003  -0.502 -3.3470  0.1692 -1.6750
  387MOL0     H51043   3.412   5.908  -0.362 -0.8085 -0.3371 -0.1354
  387MOL0     H51044   3.250   6.023  -0.493  3.0232 -0.9485 -2.2014
  387MOL0     H51045   3.338   6.173  -0.484 -1.2886 -1.8148 -1.3893
  387MOL0     H51046   3.217   5.882  -0.235  0.0368 -0.1090 -1.8370
  387MOL0     H51047   3.006   5.767  -0.226  0.7066 -0.1765 -2.3035
  387MOL0     H51048   2.508   5.867  -0.400  1.2795  0.8765 -0.0614
  387MOL0     H51049   2.302   5.764  -0.402 -3.0067  0.3422  0.9821
  387MOL0     H51050   2.085   5.667   0.018  0.4168 -0.8372  1.4990
  387MOL0     H51051   2.192   5.535  -0.021 -1.4762 -2.5134 -1.6221
  387MOL0     H51052   2.001   5.416  -0.047  0.5608 -0.1340 -0.2686
  387MOL0     H51053   2.028   5.461  -0.209 -0.8877  2.3828 -0.6930
  387MOL0     H51054   1.864   5.680  -0.164 -2.8819  0.2269 -2.7323
  387MOL0     H51055   1.833   5.605  -0.012 -0.0082 -0.9330 -0.5214
  387MOL0     H51056   1.788   5.420  -0.253  2.1009  1.7418 -1.6933
  387MOL0     H51057   1.705   5.430  -0.098  0.3110  2.9977  2.0612
  387MOL0     H51058   1.681   5.645  -0.308 -1.3344 -0.5501 -1.0635
  387MOL0     H51059   1.594   5.638  -0.158 -0.4752  1.2468 -0.9818
  387MOL0     H51060   1.507   5.407  -0.227 -0.6863  0.3443 -0.5744
  387MOL0     H51061   1.569   5.430  -0.381 -0.7655 -2.6740  1.1843
  387MOL0     H51062   1.387   5.642  -0.265 -1.7381  0.6275 -0.3623
  387MOL0     H51063   1.409   5.598  -0.436  2.3770  0.1789  0.2048
  387MOL0     H51064   1.195   5.509  -0.344 -0.3192  0.5655 -1.2620
  387MOL0     H51065   1.291   5.412  -0.227  1.5104 -1.0193 -0.9097
  387MOL0     H51066   2.282   5.769   0.034 -0.7452  3.4516 -0.3285
  387MOL0     H51067   2.528   5.862   0.023  0.8381 -0.5947 -1.1280
  387MOL0     H51068   2.809   6.162  -0.211 -0.7020 -0.4812  0.5956
  387MOL0     H51069   3.020   6.261  -0.258 -1.5587  0.7729  0.7827
  387MOL0     H51070   2.643   6.203  -0.071 -0.1182  0.2982 -0.8174
  387MOL0     H51071   2.402   6.251  -0.127  0.6991 -2.3040 -0.0346
  387MOL0     H51072   1.963   6.254   0.058  0.0597  1.2636  3.4269
  387MOL0     H51073   1.730   6.303  -0.009  1.4453 -0.0660  0.0574
  387MOL0     H51074   1.611   6.721  -0.057  1.4838 -1.1672  1.0740
  387MOL0     H51075   1.462   6.637  -0.088  0.1777  0.6495  0.5648
  387MOL0     H51076   1.484   6.744  -0.279  0.3174 -0.3735 -1.1396
  387MOL0     H51077   1.662   6.702  -0.311 -0.5015  0.9180  0.1587
  387MOL0     H51078   1.428   6.512  -0.319 -0.5072  0.2232 -0.3988
  387MOL0     H51079   1.589   6.471  -0.370  0.4409 -1.2457 -0.8899
  387MOL0     H51080   1.415   6.516  -0.555  0.2759 -0.9232  2.9921
  387MOL0     H51081   1.400   6.684  -0.484 -0.7687 -0.4616  2.2673
  387MOL0     H51082   1.784   6.663  -0.696 -2.2993 -0.2382 -2.8329
  387MOL0     H51083   1.830   6.688  -0.146  0.0649 -0.6516 -0.0462
  387MOL0     H51084   2.065   6.648  -0.076 -1.0605  0.9180 -0.7386
  388MOL0     O51085  10.368   8.866   2.323  0.3436  0.2394 -0.6371
  388MOL0     C51086  10.388   8.859   2.201  0.7792  0.1425  0.2487
  388MOL0     O51087  10.292   8.853   2.105 -0.3228 -0.8771  0.3852
  388MOL0     C51088  10.163   8.879   2.149  0.9685 -0.5742  0.3691
  388MOL0     C51089  10.079   8.783   2.097 -0.1161 -0.3557  0.1057
  388MOL0     C51090   9.938   8.794   2.123 -0.8586  0.3257  0.1907
  388MOL0     C51091   9.889   8.896   2.204  0.4343  0.0244  1.0629
  388MOL0     O51092   9.752   8.901   2.218 -0.8103 -0.3142  0.4846
  388MOL0     C51093   9.697   8.993   2.305 -0.1682 -0.5543  0.1202
  388MOL0     C51094   9.556   8.999   2.307  0.6295  0.3358  0.0748
  388MOL0     C51095   9.512   9.076   2.431 -0.3201 -0.7089 -0.9352
  388MOL0     C51096   9.360   9.072   2.433  0.3196  0.4189  0.1813
  388MOL0     C51097   9.318   9.145   2.561  0.4580 -0.0891 -0.3996
  388MOL0     C51098   9.168   9.133   2.592 -0.8714 -0.2596  0.6474
  388MOL0     C51099   9.147   9.168   2.741  0.7113  0.0226  0.3807
  388MOL0     C51100   9.206   9.303   2.786  0.2424  0.6589  0.2760
  388MOL0     N51101   9.149   9.409   2.704 -0.4860  0.7175  0.2837
  388MOL0     C51102   9.224   9.493   2.621 -0.0329  0.0685  0.3260
  388MOL0     C51103   9.136   9.568   2.549  0.0897  0.4471 -0.4264
  388MOL0     C51104   9.157   9.681   2.452 -0.1599  0.0026 -0.2701
  388MOL0     C51105   9.209   9.807   2.517  0.3219  0.6027 -0.0599
  388MOL0     C51106   9.120   9.863   2.627 -0.3821 -0.0296 -0.5345
  388MOL0     C51107   8.971   9.888   2.599 -0.1724  0.1348  0.5608
  388MOL0     O51108   8.922   9.968   2.703 -0.7607  0.1164 -0.5884
  388MOL0     C51109   8.786   9.997   2.718 -0.3952  0.5429  0.0088
  388MOL0     C51110   8.685   9.950   2.631 -0.1134  0.7777 -0.1188
  388MOL0     C51111   8.550   9.983   2.648  0.5536 -0.2922  0.0036
  388MOL0     C51112   8.511  10.061   2.757  0.5778  0.0497 -0.2383
  388MOL0     C51113   8.371  10.097   2.785  0.4740  0.0294  0.1469
  388MOL0     O51114   8.342  10.218   2.844  0.0600  0.2631  0.2790
  388MOL0     C51115   8.218  10.236   2.890 -0.1764  0.2386  0.0750
  388MOL0     C51116   8.134  10.343   2.852  0.4200 -0.2071  0.1194
  388MOL0     C51117   8.006  10.353   2.907  0.7597  0.0832  0.2337
  388MOL0     C51118   7.954  10.257   2.993  0.0149 -0.4603  0.2325
  388MOL0     O51119   7.816  10.268   3.021  0.3871 -0.0884  0.2298
  388MOL0     C51120   7.751  10.197   3.125  0.9090  0.0997 -0.4033
  388MOL0     C51121   7.627  10.271   3.169  0.2651 -0.8020 -0.6124
  388MOL0     C51122   7.519  10.283   3.057  0.6431 -0.6446  0.8367
  388MOL0     C51123   7.392  10.345   3.114  0.2509 -0.5152 -0.2755
  388MOL0     C51124   7.280  10.370   3.013 -0.6581 -0.1371 -0.5195
  388MOL0     C51125   7.311  10.429   2.875 -0.7723  0.1960 -0.3874
  388MOL0     C51126   7.383  10.564   2.863 -0.6717  0.0878  0.2750
  388MOL0     C51127   7.444  10.593   2.725 -0.2890 -0.9660 -0.0643
  388MOL0    Cl51128   7.609  10.521   2.713 -0.1745 -0.3396 -0.1552
  388MOL0     C51129   8.032  10.146   3.026  0.8866  0.7381 -0.0279
  388MOL0     C51130   8.161  10.143   2.970 -0.7234  0.2196 -0.4938
  388MOL0     O51131   8.287  10.025   2.741 -0.7313 -0.2515  0.5567
  388MOL0     C51132   8.610  10.118   2.836  0.4124 -0.0368 -0.2695
  388MOL0     C51133   8.743  10.078   2.820  0.3221  0.0161  0.4024
  388MOL0     N51134   9.013   9.527   2.591  0.3245 -0.3846 -0.3697
  388MOL0     N51135   9.020   9.435   2.681  0.6206 -0.4164  0.0590
  388MOL0     C51136   9.978   8.991   2.266  0.6647 -0.1324  0.2969
  388MOL0     C51137  10.112   8.987   2.230  0.9683 -0.4243  0.7419
  388MOL0     C51138  10.532   8.856   2.152 -0.7113 -0.1692 -0.0083
  388MOL0     C51139  10.567   8.785   2.032 -0.2926 -0.0943  0.0679
  388MOL0     C51140  10.703   8.772   1.994  0.6941 -0.3291 -0.1405
  388MOL0     C51141  10.802   8.827   2.077  0.1677 -0.0421  0.4573
  388MOL0     O51142  10.930   8.831   2.024  0.1850 -0.8125 -0.3049
  388MOL0     C51143  11.047   8.810   2.113 -0.6813 -0.1399  0.3302
  388MOL0     C51144  11.161   8.750   2.038  0.1201  0.7872  0.1107
  388MOL0     C51145  11.269   8.723   2.136 -0.5356  0.8493  0.7694
  388MOL0     C51146  11.396   8.664   2.058  0.0290 -0.6673 -0.5748
  388MOL0     C51147  11.524   8.684   2.127  0.7541 -0.3921  0.5930
  388MOL0     C51148  11.617   8.707   2.200 -0.1631 -0.7510  0.6229
  388MOL0     C51149  10.769   8.895   2.195  0.5497 -0.4891  0.0245
  388MOL0     C51150  10.630   8.911   2.232 -0.4390 -0.0856 -0.5774
  388MOL0     H51151  10.121   8.711   2.028 -0.7338  0.6165 -1.3231
  388MOL0     H51152   9.862   8.723   2.092 -1.1616  0.9406 -0.4967
  388MOL0     H51153   9.727   9.095   2.280 -0.6517 -0.0178  1.5797
  388MOL0     H51154   9.736   8.977   2.406 -0.9099  3.0877  1.1406
  388MOL0     H51155   9.506   8.902   2.314 -2.3475  1.7897  0.7209
  388MOL0     H51156   9.510   9.047   2.220 -0.4585 -2.3660 -0.9465
  388MOL0     H51157   9.554   9.176   2.420  1.9259 -0.9670  3.2520
  388MOL0     H51158   9.550   9.047   2.529 -1.2640  1.0194 -0.0122
  388MOL0     H51159   9.317   9.112   2.341  1.9715 -1.1247 -1.3314
  388MOL0     H51160   9.325   8.970   2.445 -1.0572  0.6205 -1.7428
  388MOL0     H51161   9.348   9.249   2.547 -0.9058  0.0997 -2.3876
  388MOL0     H51162   9.366   9.109   2.652 -0.1529  1.9728  0.7764
  388MOL0     H51163   9.145   9.026   2.587 -0.0130 -0.4966  1.3444
  388MOL0     H51164   9.115   9.194   2.519  0.4438 -1.4807 -1.4138
  388MOL0     H51165   9.040   9.174   2.763  1.1986  1.0013  2.8180
  388MOL0     H51166   9.182   9.082   2.799 -1.2504 -2.6794 -2.1127
  388MOL0     H51167   9.314   9.300   2.771  0.3740 -1.9358  1.3667
  388MOL0     H51168   9.173   9.327   2.887 -3.3485  1.8792 -1.0156
  388MOL0     H51169   9.330   9.510   2.613  0.2733 -1.3364  1.0968
  388MOL0     H51170   9.066   9.705   2.395 -1.4475 -1.5918  1.0003
  388MOL0     H51171   9.234   9.645   2.383  0.7183 -0.9276  1.1523
  388MOL0     H51172   9.240   9.881   2.442  2.7314 -2.1810 -2.0051
  388MOL0     H51173   9.297   9.773   2.572  0.1563 -0.0391 -0.1896
  388MOL0     H51174   9.128   9.793   2.710  6.2617  0.1834 -0.4428
  388MOL0     H51175   9.162   9.960   2.655 -0.7450  0.5353 -1.8331
  388MOL0     H51176   8.908   9.799   2.586 -0.0958  0.4712 -3.5596
  388MOL0     H51177   8.962   9.935   2.500  0.4984 -2.9081 -1.0684
  388MOL0     H51178   8.716   9.875   2.560 -0.8729  0.1066  0.2411
  388MOL0     H51179   8.477   9.939   2.581 -0.1927  0.8141  0.0608
  388MOL0     H51180   8.166  10.418   2.780  1.2529 -0.0811  0.6058
  388MOL0     H51181   7.943  10.441   2.900 -0.0549 -0.1755  3.1274
  388MOL0     H51182   7.818  10.190   3.211  1.3745  1.4562 -0.6309
  388MOL0     H51183   7.733  10.099   3.082  2.3382  0.0016 -0.8168
  388MOL0     H51184   7.658  10.374   3.187  3.3689 -1.1660 -2.8795
  388MOL0     H51185   7.582  10.239   3.264 -0.4218  0.9491 -0.3290
  388MOL0     H51186   7.492  10.188   3.010 -0.4488  0.0726 -0.0372
  388MOL0     H51187   7.551  10.349   2.975 -3.4833  1.3599  0.5799
  388MOL0     H51188   7.357  10.288   3.200 -0.4473  2.1792  1.3314
  388MOL0     H51189   7.411  10.439   3.166  0.0227 -0.4210 -0.3594
  388MOL0     H51190   7.207  10.428   3.071  0.8890 -0.6570  2.0910
  388MOL0     H51191   7.229  10.279   2.981  0.1071 -1.2059  1.1893
  388MOL0     H51192   7.221  10.432   2.813 -0.6706 -0.3896 -0.5650
  388MOL0     H51193   7.385  10.364   2.828 -0.5332  1.1770 -1.4161
  388MOL0     H51194   7.319  10.648   2.891  1.1779  0.4543  4.0412
  388MOL0     H51195   7.461  10.569   2.941 -1.6461  0.0207  1.2790
  388MOL0     H51196   7.459  10.700   2.709 -1.9188 -0.6518  0.3030
  388MOL0     H51197   7.384  10.558   2.640  0.5811 -0.6937 -0.8117
  388MOL0     H51198   7.998  10.068   3.093 -1.2635  1.4076 -0.2569
  388MOL0     H51199   8.227  10.065   3.005 -3.7569 -2.0208  0.6848
  388MOL0     H51200   8.581  10.169   2.927  0.5870 -0.8503  0.2573
  388MOL0     H51201   8.814  10.122   2.888 -1.7103 -0.0469  2.7146
  388MOL0     H51202   9.947   9.069   2.334 -0.4912 -0.7812  0.5429
  388MOL0     H51203  10.190   9.050   2.273  0.1340  0.5144  0.9103
  388MOL0     H51204  10.495   8.728   1.973 -2.6604  1.2773  1.4765
  388MOL0     H51205  10.731   8.722   1.902 -0.9431  0.5669 -1.1656
  388MOL0     H51206  11.024   8.754   2.204  0.5978  2.1940  2.1979
  388MOL0     H51207  11.081   8.910   2.140  0.3665 -0.9224  2.1191
  388MOL0     H51208  11.119   8.657   1.997 -0.9773  0.3923  1.9878
  388MOL0     H51209  11.196   8.817   1.959 -0.3522  1.5782  0.5568
  388MOL0     H51210  11.232   8.663   2.219 -1.8175  1.1170  0.4018
  388MOL0     H51211  11.292   8.814   2.191 -0.5151  1.2723  0.0786
  388MOL0     H51212  11.384   8.560   2.027  2.3042 -0.9771 -0.5445
  388MOL0     H51213  11.396   8.728   1.969 -0.9783  0.4437  0.1813
  388MOL0     H51214  11.705   8.745   2.247 -0.0620  1.4355 -1.1913
  388MOL0     H51215  10.854   8.947   2.239  1.2828 -0.8368 -0.9299
  388MOL0     H51216  10.591   8.963   2.319  1.6853 -2.3554  1.8713
  389MOL0     O51217   5.010   6.885   4.199  0.3164  0.3704 -0.0915
  389MOL0     C51218   5.013   6.980   4.125 -0.8556 -0.0843 -0.4069
  389MOL0     O51219   4.903   7.059   4.102 -0.5459 -1.2272 -0.1484
  389MOL0     C51220   4.774   7.039   4.162 -1.3777 -0.1049 -0.1029
  389MOL0     C51221   4.676   7.134   4.121  0.4997 -0.0331  0.1508
  389MOL0     C51222   4.541   7.127   4.157 -0.1664 -0.1291 -0.0166
  389MOL0     C51223   4.512   7.034   4.258  0.7579  0.0254  0.0010
  389MOL0     O51224   4.387   7.049   4.317  0.2804  0.3037 -0.2317
  389MOL0     C51225   4.353   7.162   4.398 -0.3871 -0.4038 -0.2666
  389MOL0     C51226   4.223   7.146   4.480  1.0193 -0.3420  0.4681
  389MOL0     C51227   4.088   7.141   4.396 -0.4237  0.5208 -0.2370
  389MOL0     C51228   3.968   7.177   4.485 -0.7534 -1.1181  0.4100
  389MOL0     C51229   3.832   7.151   4.436 -0.6002 -0.0793 -0.7659
  389MOL0     C51230   3.720   7.187   4.534 -0.7726 -0.0201 -0.3453
  389MOL0     C51231   3.583   7.131   4.474 -0.3236  0.1922 -0.2492
  389MOL0     C51232   3.475   7.145   4.583  1.0514 -0.4123 -0.0428
  389MOL0     N51233   3.348   7.067   4.571  0.0481 -0.3294  0.6587
  389MOL0     C51234   3.333   6.934   4.598  0.9463 -0.4201  0.1362
  389MOL0     C51235   3.206   6.915   4.563  0.2831 -0.2856  0.6019
  389MOL0     C51236   3.129   6.787   4.566 -0.7085  0.0752 -0.7767
  389MOL0     C51237   3.090   6.748   4.709 -0.6466  0.4431  0.1432
  389MOL0     C51238   3.008   6.624   4.723 -0.3959 -0.1720 -0.1682
  389MOL0     C51239   2.869   6.642   4.652 -0.2604  0.1410  0.1191
  389MOL0     O51240   2.821   6.509   4.619 -0.3567 -0.3002 -0.4833
  389MOL0     C51241   2.695   6.505   4.572 -0.0867 -0.6030 -0.8193
  389MOL0     C51242   2.627   6.379   4.569 -0.3049 -0.1889  0.0628
  389MOL0     C51243   2.504   6.367   4.521 -0.2258 -0.8294  0.6777
  389MOL0     C51244   2.437   6.472   4.476  0.7864  0.9756  0.0693
  389MOL0     C51245   2.302   6.444   4.422 -0.3885  1.3342 -0.0763
  389MOL0     O51246   2.286   6.333   4.352  0.2584 -0.0810 -0.3977
  389MOL0     C51247   2.176   6.322   4.270 -0.0284 -0.5056 -0.0527
  389MOL0     C51248   2.195   6.364   4.140 -0.1648  0.3718  0.1891
  389MOL0     C51249   2.099   6.343   4.045 -0.7460  0.1841 -0.3260
  389MOL0     C51250   1.974   6.289   4.090  0.4938 -1.2788  0.3409
  389MOL0     O51251   1.880   6.238   4.005 -0.1211  0.3717  1.1742
  389MOL0     C51252   1.833   6.333   3.907  0.6405 -0.5389 -0.1000
  389MOL0     C51253   1.735   6.448   3.958  0.1601 -0.8189 -0.4681
  389MOL0     C51254   1.601   6.386   3.982  0.3186  0.1198 -1.4512
  389MOL0     C51255   1.501   6.498   4.016 -0.0743  0.2054 -0.6538
  389MOL0     C51256   1.356   6.454   3.990 -0.1822 -0.2332 -0.2766
  389MOL0     C51257   1.253   6.576   4.010 -0.1093  0.6864 -0.4696
  389MOL0     C51258   1.113   6.543   3.937  0.0273 -0.7624 -0.0696
  389MOL0     C51259   1.119   6.581   3.793  0.1203  1.0159 -0.2529
  389MOL0    Cl51260   1.130   6.759   3.764 -0.2474  0.1042 -0.5227
  389MOL0     C51261   1.949   6.260   4.220 -0.3651 -0.3891 -1.0265
  389MOL0     C51262   2.052   6.271   4.318 -0.0802  0.1180 -0.2572
  389MOL0     O51263   2.216   6.527   4.437 -0.2471 -0.3621 -0.7191
  389MOL0     C51264   2.489   6.608   4.490  0.2911  0.4386  0.7166
  389MOL0     C51265   2.619   6.620   4.531 -0.1899  0.1123  0.1572
  389MOL0     N51266   3.137   7.037   4.542 -0.5735 -0.4463 -1.0368
  389MOL0     N51267   3.227   7.132   4.553 -0.2658  0.6546  0.4950
  389MOL0     C51268   4.595   6.939   4.297 -0.3834  0.6026 -0.2695
  389MOL0     C51269   4.725   6.936   4.248 -0.4227 -0.1173 -0.6586
  389MOL0     C51270   5.138   7.008   4.052 -0.6321 -0.5684 -0.1794
  389MOL0     C51271   5.248   6.920   4.068 -0.1873  0.2391 -0.4274
  389MOL0     C51272   5.369   6.929   3.995  0.4237 -0.8522 -0.4514
  389MOL0     C51273   5.389   7.032   3.900  0.3266  0.3018 -0.0422
  389MOL0     O51274   5.503   7.060   3.832 -0.5812 -0.4352 -0.1160
  389MOL0     C51275   5.622   6.988   3.865 -0.6931 -0.1484  0.7427
  389MOL0     C51276   5.737   7.057   3.800 -0.2245 -1.0146 -0.2160
  389MOL0     C51277   5.861   7.000   3.862 -0.8348 -0.0420 -0.3755
  389MOL0     C51278   5.996   7.064   3.820 -0.1256  0.1506  0.1961
  389MOL0     C51279   6.114   6.982   3.864  0.1365 -0.8728  1.3541
  389MOL0     C51280   6.199   6.916   3.916 -0.0934 -0.2233 -0.1025
  389MOL0     C51281   5.278   7.121   3.885 -0.4529 -0.2861 -0.3142
  389MOL0     C51282   5.155   7.108   3.953 -0.3117  0.5389 -0.7010
  389MOL0     H51283   4.706   7.205   4.044 -0.0913  0.8710  0.7260
  389MOL0     H51284   4.462   7.192   4.120 -2.0012 -2.2646 -0.0883
  389MOL0     H51285   4.354   7.256   4.342  3.1661  0.2942  0.6990
  389MOL0     H51286   4.436   7.182   4.467 -1.2058 -1.3485  1.0438
  389MOL0     H51287   4.211   7.230   4.549 -1.1472 -0.1046 -0.1261
  389MOL0     H51288   4.218   7.052   4.536  0.3912 -2.0868 -2.3080
  389MOL0     H51289   4.084   7.042   4.349  1.2661  0.6848 -0.8150
  389MOL0     H51290   4.079   7.216   4.317 -0.1955 -0.6321 -1.3832
  389MOL0     H51291   3.980   7.111   4.572  2.3680 -3.0577 -1.3236
  389MOL0     H51292   3.982   7.282   4.513  2.3839 -1.7493  1.5308
  389MOL0     H51293   3.827   7.044   4.413 -0.2841 -0.0099 -1.1724
  389MOL0     H51294   3.815   7.206   4.343  0.8000  3.0024  0.6549
  389MOL0     H51295   3.714   7.294   4.558  0.2925 -0.0798  0.2113
  389MOL0     H51296   3.745   7.136   4.627 -4.0647 -3.4865 -1.0943
  389MOL0     H51297   3.569   7.174   4.374 -1.3955 -0.0886 -0.2314
  389MOL0     H51298   3.600   7.026   4.448  0.5040  0.3159 -0.2187
  389MOL0     H51299   3.449   7.250   4.599 -1.8020 -1.3394  2.4434
  389MOL0     H51300   3.510   7.110   4.681  1.7632  0.4928  0.0427
  389MOL0     H51301   3.403   6.860   4.636 -0.2835 -0.6456  2.0939
  389MOL0     H51302   3.187   6.707   4.520  2.5216  0.7711  1.7194
  389MOL0     H51303   3.034   6.806   4.515  0.0648  1.2807 -1.8363
  389MOL0     H51304   3.037   6.834   4.752  0.7132  2.7811 -2.4537
  389MOL0     H51305   3.181   6.735   4.767 -1.6900  0.9126  1.9521
  389MOL0     H51306   3.066   6.538   4.687  0.2243 -0.0728  0.5675
  389MOL0     H51307   2.993   6.612   4.831 -0.5995 -0.8910 -0.2695
  389MOL0     H51308   2.878   6.701   4.560  1.3358 -3.3552 -2.1649
  389MOL0     H51309   2.812   6.689   4.733  0.0157  0.1601  0.3038
  389MOL0     H51310   2.681   6.288   4.594 -1.3934 -1.5081 -2.0886
  389MOL0     H51311   2.466   6.266   4.517 -1.2802 -0.4638  1.0625
  389MOL0     H51312   2.294   6.404   4.119 -0.1217 -0.4379 -1.2372
  389MOL0     H51313   2.122   6.374   3.944  1.8632  1.8437  0.6521
  389MOL0     H51314   1.782   6.268   3.835  1.3114 -0.9968 -0.1645
  389MOL0     H51315   1.911   6.384   3.850  1.6755 -0.7689  1.0710
  389MOL0     H51316   1.729   6.529   3.885 -3.4423  0.7821  1.3199
  389MOL0     H51317   1.772   6.490   4.052 -4.5406 -0.1329  1.3753
  389MOL0     H51318   1.607   6.311   4.061  1.5641  0.6000 -1.0781
  389MOL0     H51319   1.577   6.338   3.886 -0.3034  2.0761 -2.3267
  389MOL0     H51320   1.515   6.509   4.124 -0.5982 -0.3678 -0.5196
  389MOL0     H51321   1.524   6.594   3.969 -0.0755  0.5786  0.0878
  389MOL0     H51322   1.316   6.380   4.060 -0.3150 -0.8396 -0.9891
  389MOL0     H51323   1.341   6.424   3.886 -3.1174  4.6321 -1.6135
  389MOL0     H51324   1.297   6.665   3.966 -0.8686  1.6848  0.7326
  389MOL0     H51325   1.234   6.599   4.115  0.0877  1.1392 -0.5350
  389MOL0     H51326   1.100   6.435   3.929  1.8342 -1.0064 -0.3334
  389MOL0     H51327   1.033   6.569   4.006  0.1323 -1.5424  0.3655
  389MOL0     H51328   1.030   6.542   3.742  0.1883  0.4563  0.0540
  389MOL0     H51329   1.208   6.537   3.747 -0.6706  0.4391 -1.2932
  389MOL0     H51330   1.853   6.215   4.245  0.2855 -1.4173 -0.2451
  389MOL0     H51331   2.065   6.247   4.423  3.6742  2.3891 -0.0321
  389MOL0     H51332   2.423   6.692   4.468  1.9486  2.0263  1.5745
  389MOL0     H51333   2.656   6.721   4.518  1.8567 -0.7401 -1.5019
  389MOL0     H51334   4.569   6.878   4.383  1.6999  0.2504  0.1695
  389MOL0     H51335   4.785   6.850   4.277 -1.9189 -2.9017 -4.8006
  389MOL0     H51336   5.247   6.849   4.149 -1.3700 -0.5220 -1.0768
  389MOL0     H51337   5.442   6.853   4.022  1.7622  0.5181 -0.0626
  389MOL0     H51338   5.610   6.884   3.832 -0.9054 -0.5741  2.0766
  389MOL0     H51339   5.641   6.986   3.973 -2.3415 -0.1705  1.0601
  389MOL0     H51340   5.740   7.031   3.694 -2.2066 -0.2346 -0.5007
  389MOL0     H51341   5.726   7.163   3.825 -2.5845 -1.7718  2.5386
  389MOL0     H51342   5.861   6.903   3.810 -0.0989  0.2905 -1.0148
  389MOL0     H51343   5.859   6.987   3.971  2.0979 -2.4483 -0.4603
  389MOL0     H51344   5.993   7.071   3.711  0.7951 -1.1204  0.0779
  389MOL0     H51345   6.007   7.159   3.873  1.3147 -0.0804  0.3584
  389MOL0     H51346   6.287   6.882   3.967 -0.0816 -1.9642 -1.2107
  389MOL0     H51347   5.296   7.209   3.825  1.4395  0.7661  1.6691
  389MOL0     H51348   5.070   7.172   3.932 -0.2339  0.1134 -2.4210
  390MOL0     O51349   7.393   9.735   4.102  0.4707 -0.2481  0.3180
  390MOL0     C51350   7.397   9.614   4.129  0.7252  1.1147 -0.3509
  390MOL0     O51351   7.293   9.518   4.136 -0.4445  0.3629  0.3301
  390MOL0     C51352   7.169   9.556   4.199  0.1676 -0.0476 -0.2154
  390MOL0     C51353   7.072   9.451   4.209 -0.0174 -1.2536  0.0217
  390MOL0     C51354   6.951   9.472   4.285  0.1408 -0.6847  0.2777
  390MOL0     C51355   6.917   9.593   4.335  0.5696 -0.2186  0.0524
  390MOL0     O51356   6.802   9.628   4.391 -0.2324 -0.1522  0.6454
  390MOL0     C51357   6.682   9.550   4.367 -0.4064 -0.7755  0.5541
  390MOL0     C51358   6.562   9.630   4.415  0.3300  0.3520 -0.3436
  390MOL0     C51359   6.443   9.645   4.314  0.9975  0.3476  0.6532
  390MOL0     C51360   6.333   9.713   4.384 -0.7021  1.2164 -0.7936
  390MOL0     C51361   6.220   9.738   4.291  0.1493 -0.2969 -0.4482
  390MOL0     C51362   6.143   9.610   4.223 -0.0063  0.7575 -0.1036
  390MOL0     C51363   6.064   9.518   4.314  0.1951 -0.2527  0.5211
  390MOL0     C51364   5.940   9.572   4.384 -0.8812  0.2320  0.2119
  390MOL0     N51365   5.881   9.476   4.471  0.2711 -0.7222 -0.2670
  390MOL0     C51366   5.764   9.416   4.441  0.3810  0.2300 -0.6209
  390MOL0     C51367   5.749   9.321   4.531  0.3452  0.5744 -0.2872
  390MOL0     C51368   5.641   9.222   4.531 -0.3984  0.3329 -0.0224
  390MOL0     C51369   5.506   9.291   4.563  0.0475 -1.1957 -0.2653
  390MOL0     C51370   5.409   9.200   4.499 -0.6932  0.1981 -0.1677
  390MOL0     C51371   5.267   9.212   4.565 -0.0426  0.4167  0.1237
  390MOL0     O51372   5.179   9.127   4.484 -0.4666 -0.3859 -0.6217
  390MOL0     C51373   5.048   9.124   4.505  0.8006  0.3966  0.5665
  390MOL0     C51374   4.980   9.023   4.438 -0.2650 -0.4192 -0.7287
  390MOL0     C51375   4.850   8.991   4.463 -0.9096  0.9167  0.5278
  390MOL0     C51376   4.786   9.055   4.567  0.7835 -0.0796  0.7354
  390MOL0     C51377   4.649   9.008   4.601  0.3842  0.6059  0.0563
  390MOL0     O51378   4.563   9.096   4.657 -0.2170  0.5416  0.7995
  390MOL0     C51379   4.445   9.050   4.707  0.5848 -0.6509 -0.1955
  390MOL0     C51380   4.428   8.932   4.786  0.0211 -0.0625  0.0929
  390MOL0     C51381   4.307   8.905   4.851 -0.8925  0.1035 -0.9175
  390MOL0     C51382   4.197   8.990   4.827 -0.0330 -0.4174 -0.6974
  390MOL0     O51383   4.078   8.965   4.890  0.4771 -0.6539  0.1104
  390MOL0     C51384   3.978   8.907   4.807  0.3765  0.0009 -0.7339
  390MOL0     C51385   3.917   8.993   4.693 -0.6235 -0.1565  0.8246
  390MOL0     C51386   3.792   8.933   4.636 -0.3394  0.3584  0.9286
  390MOL0     C51387   3.735   9.047   4.553  0.1370  0.3558 -0.2018
  390MOL0     C51388   3.611   9.004   4.476 -0.2122 -0.3911  0.2634
  390MOL0     C51389   3.580   9.114   4.374 -0.1873  0.8460  0.0451
  390MOL0     C51390   3.441   9.103   4.297  0.2272  1.1607 -0.0236
  390MOL0     C51391   3.434   8.987   4.199  0.8510 -0.8643  0.3158
  390MOL0    Cl51392   3.261   8.961   4.162 -0.0924  0.0635  0.4523
  390MOL0     C51393   4.206   9.104   4.746  0.2555  0.0987  0.1458
  390MOL0     C51394   4.336   9.140   4.693  0.8740  1.2765  0.3424
  390MOL0     O51395   4.626   8.885   4.576 -0.0396  0.0316  0.1313
  390MOL0     C51396   4.845   9.164   4.628  1.9878 -0.5027  0.2022
  390MOL0     C51397   4.972   9.202   4.586 -0.0239  0.3775 -0.6772
  390MOL0     N51398   5.849   9.329   4.631  0.7452  0.3971  0.3567
  390MOL0     N51399   5.925   9.421   4.587  0.3078  0.0162  0.1574
  390MOL0     C51400   7.017   9.696   4.328 -1.1981  0.7440  0.5098
  390MOL0     C51401   7.137   9.670   4.262 -0.6745 -0.6969  0.4154
  390MOL0     C51402   7.535   9.560   4.113  0.2720 -0.2389 -0.4969
  390MOL0     C51403   7.644   9.647   4.097 -0.0956  0.2980  0.2819
  390MOL0     C51404   7.775   9.593   4.063  0.8810 -0.5615 -0.3589
  390MOL0     C51405   7.800   9.458   4.065  0.3670 -0.2014 -0.0544
  390MOL0     O51406   7.923   9.404   4.022 -0.0539 -0.2192 -0.0597
  390MOL0     C51407   8.019   9.494   3.960 -0.7423  0.4465 -0.1514
  390MOL0     C51408   8.120   9.563   4.055 -0.5933  0.1894  0.2059
  390MOL0     C51409   8.204   9.475   4.145  1.0173  0.1592 -0.2407
  390MOL0     C51410   8.330   9.550   4.197 -0.0789  0.8191 -0.7909
  390MOL0     C51411   8.411   9.482   4.301 -0.0909 -0.4972  0.0986
  390MOL0     C51412   8.470   9.410   4.384 -0.0668  0.8952  0.0981
  390MOL0     C51413   7.693   9.378   4.105  0.1785  0.6156 -0.6656
  390MOL0     C51414   7.567   9.428   4.136  0.1753 -0.2460 -0.5325
  390MOL0     H51415   7.063   9.356   4.157 -1.1078 -0.1947 -1.8467
  390MOL0     H51416   6.871   9.398   4.286 -1.5403  1.0372 -0.2075
  390MOL0     H51417   6.688   9.451   4.414 -0.2949 -0.6647  0.7707
  390MOL0     H51418   6.670   9.543   4.258  4.0385 -1.4140 -0.0555
  390MOL0     H51419   6.594   9.726   4.457 -2.0707  0.9360  0.3151
  390MOL0     H51420   6.529   9.585   4.509  0.3562 -1.1665 -1.0335
  390MOL0     H51421   6.404   9.548   4.282 -0.8422  0.5217  2.2014
  390MOL0     H51422   6.480   9.702   4.229  0.1417 -1.0065 -0.6855
  390MOL0     H51423   6.307   9.644   4.465 -2.7851  0.1272 -2.2829
  390MOL0     H51424   6.363   9.812   4.421 -2.0449  0.9008  1.3159
  390MOL0     H51425   6.250   9.823   4.229 -1.6504  1.8212  1.3641
  390MOL0     H51426   6.141   9.781   4.354  1.4653  0.0650  1.0123
  390MOL0     H51427   6.228   9.555   4.181  1.1045  2.2559  0.0755
  390MOL0     H51428   6.064   9.633   4.151  0.0149  1.7227  0.1579
  390MOL0     H51429   6.033   9.432   4.254  1.0082 -0.3971  0.2966
  390MOL0     H51430   6.132   9.485   4.393 -0.0619  0.4943  1.0699
  390MOL0     H51431   5.862   9.605   4.315 -3.5729 -0.3243  2.7858
  390MOL0     H51432   5.954   9.654   4.456 -0.9244 -1.6924  2.5557
  390MOL0     H51433   5.696   9.440   4.361 -1.6318 -5.4325 -1.1101
  390MOL0     H51434   5.669   9.143   4.602 -3.7664 -1.1881 -0.2313
  390MOL0     H51435   5.652   9.181   4.431  2.0489  3.4191 -1.1708
  390MOL0     H51436   5.498   9.393   4.524 -0.4500 -1.1029  0.0804
  390MOL0     H51437   5.509   9.304   4.672  3.1693  3.3485 -0.5858
  390MOL0     H51438   5.404   9.213   4.391  0.0053 -0.7760 -0.3293
  390MOL0     H51439   5.438   9.099   4.529  2.0676  1.2410  1.0037
  390MOL0     H51440   5.229   9.315   4.562  1.8122  1.2147  1.5244
  390MOL0     H51441   5.267   9.178   4.669  1.5903  1.6261  0.5629
  390MOL0     H51442   5.034   8.954   4.375  2.3466  1.4815 -0.7361
  390MOL0     H51443   4.815   8.898   4.419  1.8922  0.0799 -0.1722
  390MOL0     H51444   4.502   8.854   4.798 -0.3714 -0.5560 -0.6048
  390MOL0     H51445   4.306   8.818   4.916  0.4224  1.1054  0.5082
  390MOL0     H51446   3.900   8.877   4.878  0.5373  3.1105  0.9354
  390MOL0     H51447   4.009   8.811   4.766 -0.7083 -0.7627  0.1909
  390MOL0     H51448   3.997   9.022   4.625 -1.4167  1.6608  0.5950
  390MOL0     H51449   3.882   9.085   4.740  0.4057  1.3379 -1.1891
  390MOL0     H51450   3.720   8.909   4.715 -1.2210  0.5329  0.2043
  390MOL0     H51451   3.808   8.850   4.566  1.3999  2.0486 -0.8209
  390MOL0     H51452   3.696   9.130   4.613  3.0423  1.9294 -0.3194
  390MOL0     H51453   3.815   9.065   4.480 -1.0686 -2.1964 -2.3183
  390MOL0     H51454   3.524   8.995   4.541  1.9150  0.9822  3.5627
  390MOL0     H51455   3.635   8.911   4.424  0.3082  0.0830 -0.3584
  390MOL0     H51456   3.657   9.108   4.297 -1.6218  3.3716 -1.7519
  390MOL0     H51457   3.588   9.215   4.416 -0.8608  1.8937 -2.1798
  390MOL0     H51458   3.365   9.070   4.369  1.2616 -4.0026 -0.8897
  390MOL0     H51459   3.411   9.201   4.260 -1.2966  0.8332  0.2517
  390MOL0     H51460   3.488   8.902   4.241 -2.0458 -1.6001  2.8963
  390MOL0     H51461   3.478   9.005   4.100 -2.4582  2.1253 -0.8282
  390MOL0     H51462   4.129   9.178   4.732  0.5444 -0.1456 -3.8867
  390MOL0     H51463   4.353   9.233   4.640  0.6716  0.5302 -1.0812
  390MOL0     H51464   4.797   9.228   4.700  2.5801 -0.2517  0.3752
  390MOL0     H51465   5.018   9.291   4.628 -0.5910 -0.3336  1.5405
  390MOL0     H51466   6.998   9.799   4.357 -0.7310  0.6764  1.0656
  390MOL0     H51467   7.199   9.759   4.262 -1.4376 -0.1567  0.5308
  390MOL0     H51468   7.625   9.753   4.096  1.1314  0.5348  0.0749
  390MOL0     H51469   7.852   9.667   4.044 -1.3435  1.4805 -2.0515
  390MOL0     H51470   7.972   9.570   3.898 -1.8744  0.5366  0.7672
  390MOL0     H51471   8.083   9.429   3.901  0.6124  0.3218  1.3839
  390MOL0     H51472   8.185   9.618   3.987  1.4465  0.0025  1.8723
  390MOL0     H51473   8.064   9.635   4.115 -3.1342  0.1219 -1.9248
  390MOL0     H51474   8.214   9.371   4.112 -0.1708  0.1343 -0.5755
  390MOL0     H51475   8.150   9.468   4.240  2.4100  2.3087  0.7913
  390MOL0     H51476   8.389   9.551   4.105 -0.5823 -2.0353 -1.2349
  390MOL0     H51477   8.311   9.649   4.239  0.2378  0.3828  0.4425
  390MOL0     H51478   8.541   9.355   4.443 -0.0738  2.2859  1.4942
  390MOL0     H51479   7.719   9.273   4.095  0.3563  0.8568 -3.5178
  390MOL0     H51480   7.488   9.360   4.166  0.2533 -1.5270 -2.9453
  391MOL0     O51481   2.378   4.732   9.457  0.4989  0.0174 -0.3441
  391MOL0     C51482   2.432   4.808   9.532 -0.0586  0.5139 -0.3181
  391MOL0     O51483   2.396   4.829   9.667  0.4618 -0.4862 -0.7689
  391MOL0     C51484   2.312   4.761   9.750  0.8676 -0.3072 -0.2786
  391MOL0     C51485   2.290   4.816   9.877 -0.1283  0.6456 -0.2401
  391MOL0     C51486   2.224   4.758   9.983 -0.0425 -0.1974 -0.7524
  391MOL0     C51487   2.185   4.623   9.971 -0.0571 -0.0669  0.2891
  391MOL0     O51488   2.123   4.552  10.075  0.1211 -0.0322 -0.3831
  391MOL0     C51489   2.112   4.614  10.205 -0.3745  0.4936 -0.1600
  391MOL0     C51490   2.050   4.513  10.306  0.0308 -0.9261  1.2713
  391MOL0     C51491   2.082   4.551  10.447 -0.8561 -0.2921 -0.3383
  391MOL0     C51492   2.074   4.436  10.545 -0.2115  0.0844 -0.3757
  391MOL0     C51493   2.146   4.435  10.680  0.3414 -0.2168 -0.0191
  391MOL0     C51494   2.090   4.318  10.770  0.1830  0.4395  0.0177
  391MOL0     C51495   2.094   4.348  10.919  0.9958  0.4916  0.4908
  391MOL0     C51496   2.078   4.227  11.018  0.4862 -0.0174  0.5206
  391MOL0     N51497   1.950   4.159  11.012  0.6162 -0.5405 -0.1849
  391MOL0     C51498   1.901   4.088  10.906  0.0477  0.3324 -0.2713
  391MOL0     C51499   1.781   4.043  10.939  1.3937  0.1249 -0.0233
  391MOL0     C51500   1.706   3.951  10.845  0.6000  0.3290  0.0061
  391MOL0     C51501   1.586   3.885  10.921 -0.4209  0.3297  0.7841
  391MOL0     C51502   1.523   3.782  10.833 -0.0371 -0.1900 -0.9811
  391MOL0     C51503   1.409   3.712  10.901  0.6130  0.1365  0.4341
  391MOL0     O51504   1.317   3.682  10.805  0.4060  0.3190 -1.1229
  391MOL0     C51505   1.195   3.633  10.844 -0.2611 -0.1922  0.1131
  391MOL0     C51506   1.142   3.603  10.973 -0.7106  0.1237 -0.2049
  391MOL0     C51507   1.012   3.568  10.998  0.3081  0.2325  0.4846
  391MOL0     C51508   0.929   3.546  10.879 -0.3586  0.2965 -0.2350
  391MOL0     C51509   0.791   3.491  10.898 -0.4864 -0.6576  0.1482
  391MOL0     O51510   0.726   3.511  11.022  0.1387  0.2549  0.8973
  391MOL0     C51511   0.595   3.457  11.031  0.0326 -1.4467 -0.4051
  391MOL0     C51512   0.579   3.354  11.125  0.3856 -0.2641  0.0870
  391MOL0     C51513   0.453   3.293  11.140 -0.5274  0.4538  0.0358
  391MOL0     C51514   0.347   3.341  11.053 -0.3411 -0.5513  0.3850
  391MOL0     O51515   0.221   3.290  11.052 -0.4168  0.1622  0.0986
  391MOL0     C51516   0.163   3.258  11.181  0.8083 -0.1794  0.3434
  391MOL0     C51517   0.016   3.218  11.167 -0.9511 -0.1724  0.6500
  391MOL0     C51518  -0.067   3.342  11.121  0.7244  0.3279  0.2332
  391MOL0     C51519  -0.217   3.310  11.091  0.0976 -0.4830 -0.5772
  391MOL0     C51520  -0.276   3.439  11.040  0.4769 -0.3835 -0.6906
  391MOL0     C51521  -0.428   3.458  11.061  0.3469  0.7322 -0.4569
  391MOL0     C51522  -0.485   3.462  11.223 -0.8761  0.3706  0.8899
  391MOL0     C51523  -0.478   3.607  11.288 -0.7903  0.1866  0.2480
  391MOL0    Cl51524  -0.606   3.703  11.219  0.0369  0.1812 -0.3323
  391MOL0     C51525   0.369   3.443  10.956 -0.2033 -0.2954 -0.2781
  391MOL0     C51526   0.491   3.498  10.943  0.9137  0.0995  0.6211
  391MOL0     O51527   0.745   3.419  10.799 -0.4487  0.5455 -0.2506
  391MOL0     C51528   0.977   3.578  10.751 -0.0095  0.7084  0.6949
  391MOL0     C51529   1.110   3.617  10.733  0.8114  0.3391  0.0999
  391MOL0     N51530   1.759   4.079  11.071  0.2616  0.0191 -0.2465
  391MOL0     N51531   1.857   4.159  11.112  0.3557 -0.0386  0.8242
  391MOL0     C51532   2.210   4.560   9.849  0.7368  0.0135 -0.9314
  391MOL0     C51533   2.273   4.627   9.745  0.0593 -0.2041 -1.2326
  391MOL0     C51534   2.555   4.869   9.481  0.2188 -0.0421  0.6740
  391MOL0     C51535   2.595   4.850   9.341 -0.6941 -0.6922  0.7543
  391MOL0     C51536   2.710   4.924   9.290  0.4253 -0.9854  0.1251
  391MOL0     C51537   2.780   5.010   9.379  0.0824 -0.5439  0.4887
  391MOL0     O51538   2.900   5.062   9.321 -0.1820 -0.1460  0.3748
  391MOL0     C51539   3.023   4.984   9.324 -1.1571 -0.2787 -0.4708
  391MOL0     C51540   3.111   5.061   9.227  0.1163  0.1116 -0.3435
  391MOL0     C51541   3.256   5.017   9.248  0.0935 -0.3179 -0.3758
  391MOL0     C51542   3.334   5.100   9.146  0.0441  0.9190  0.1575
  391MOL0     C51543   3.469   5.054   9.119 -0.8735  0.7975 -0.0700
  391MOL0     C51544   3.584   5.012   9.109  0.0279  0.3282 -0.8188
  391MOL0     C51545   2.745   5.022   9.511 -0.0280 -0.4037 -1.2319
  391MOL0     C51546   2.638   4.947   9.564 -0.0984  0.1549  0.3952
  391MOL0     H51547   2.330   4.916   9.886  3.1744 -0.2972 -2.4652
  391MOL0     H51548   2.215   4.813  10.076 -2.0444 -0.6325 -0.6392
  391MOL0     H51549   2.052   4.703  10.183 -2.1572 -0.9422 -1.4085
  391MOL0     H51550   2.210   4.644  10.243 -0.3693 -0.7999  0.9225
  391MOL0     H51551   2.093   4.417  10.278  2.2358  0.2426  0.3902
  391MOL0     H51552   1.942   4.513  10.290  0.2976 -3.5074 -1.2211
  391MOL0     H51553   2.005   4.620  10.483  0.6316  1.2809 -0.0525
  391MOL0     H51554   2.177   4.602  10.462 -0.0860 -1.3931 -1.3117
  391MOL0     H51555   1.971   4.413  10.572 -0.0477  0.9782  1.1932
  391MOL0     H51556   2.121   4.353  10.491  1.2807  0.6942 -0.0841
  391MOL0     H51557   2.121   4.528  10.731  1.3728 -0.9205  1.8494
  391MOL0     H51558   2.254   4.432  10.663 -0.0270  0.2294 -3.0878
  391MOL0     H51559   2.144   4.223  10.761 -0.2263  0.1301  0.7341
  391MOL0     H51560   1.986   4.297  10.743 -0.9710  5.3773 -0.3146
  391MOL0     H51561   2.192   4.389  10.943  1.1692  0.0741  0.5113
  391MOL0     H51562   2.020   4.429  10.924  3.1966  2.9144 -2.3859
  391MOL0     H51563   2.100   4.263  11.119  1.3150  0.4815  0.1700
  391MOL0     H51564   2.156   4.152  11.003  2.0246  1.7298 -0.6187
  391MOL0     H51565   1.960   4.064  10.819  0.5033  0.5611 -0.0291
  391MOL0     H51566   1.766   3.868  10.807  2.2000  0.6006  1.7831
  391MOL0     H51567   1.669   4.009  10.760 -1.3922  0.6155  0.9801
  391MOL0     H51568   1.514   3.962  10.950 -0.3399  0.0902  1.6525
  391MOL0     H51569   1.621   3.830  11.009  1.1096 -1.8958 -1.0804
  391MOL0     H51570   1.486   3.813  10.735  0.1566 -1.6442 -1.5391
  391MOL0     H51571   1.604   3.713  10.805  1.0028  0.5685  0.0561
  391MOL0     H51572   1.367   3.783  10.974  0.6928 -0.4683  1.0816
  391MOL0     H51573   1.436   3.623  10.958 -0.0839 -1.3418 -1.4303
  391MOL0     H51574   1.212   3.605  11.056 -0.5290 -1.2780 -0.3084
  391MOL0     H51575   0.981   3.537  11.097  2.7577  1.5133  1.7154
  391MOL0     H51576   0.666   3.321  11.181  0.0360 -1.0427  0.1795
  391MOL0     H51577   0.462   3.213  11.212 -1.2217  1.3824  1.2141
  391MOL0     H51578   0.179   3.346  11.243  1.6383  0.0521 -0.1918
  391MOL0     H51579   0.204   3.166  11.224  0.2079 -1.3264 -1.4106
  391MOL0     H51580  -0.020   3.171  11.259 -1.4550  1.1288  1.1405
  391MOL0     H51581   0.001   3.133  11.099  0.3743 -1.2557  1.6559
  391MOL0     H51582  -0.025   3.379  11.026 -3.1473 -1.2520 -2.3184
  391MOL0     H51583  -0.059   3.419  11.198  1.3778 -0.6061  1.1259
  391MOL0     H51584  -0.230   3.242  11.006  0.4504 -0.7352 -0.4290
  391MOL0     H51585  -0.272   3.271  11.178  1.3797 -1.0312  0.0043
  391MOL0     H51586  -0.252   3.454  10.935  3.4688  0.7945  0.0640
  391MOL0     H51587  -0.231   3.523  11.092 -0.0401  0.5053 -1.6502
  391MOL0     H51588  -0.491   3.382  11.014 -0.5510  0.3566  1.2677
  391MOL0     H51589  -0.458   3.555  11.020 -0.5050  0.8675  0.4538
  391MOL0     H51590  -0.584   3.417  11.236 -0.2215 -1.9452 -1.2014
  391MOL0     H51591  -0.420   3.397  11.282  2.0388  2.0132 -0.3072
  391MOL0     H51592  -0.374   3.641  11.279 -0.7670 -0.5442 -4.0036
  391MOL0     H51593  -0.504   3.587  11.392  0.8458 -4.2293  0.0277
  391MOL0     H51594   0.294   3.478  10.886  0.1183  0.9414 -0.0375
  391MOL0     H51595   0.510   3.572  10.865  3.1555 -2.7707 -1.8381
  391MOL0     H51596   0.917   3.567  10.661  1.6167  1.4225 -0.5207
  391MOL0     H51597   1.137   3.625  10.628  0.9716 -3.3527 -0.2918
  391MOL0     H51598   2.186   4.456   9.828  2.5273 -0.2404 -1.9240
  391MOL0     H51599   2.310   4.575   9.658  1.0774  0.2695 -1.0946
  391MOL0     H51600   2.543   4.777   9.280 -0.1114  0.8209 -1.7175
  391MOL0     H51601   2.756   4.907   9.193  0.5925  1.3228 -0.2464
  391MOL0     H51602   3.006   4.886   9.279  0.4313 -1.0008  0.4195
  391MOL0     H51603   3.060   4.980   9.427 -1.8944 -0.5396 -0.2019
  391MOL0     H51604   3.088   5.043   9.122 -0.0553  0.8047 -0.4305
  391MOL0     H51605   3.110   5.168   9.251 -0.5836 -0.0403  0.3573
  391MOL0     H51606   3.273   4.912   9.223  3.9104  0.7170 -3.0760
  391MOL0     H51607   3.287   5.035   9.351  0.6212 -1.2473 -0.3646
  391MOL0     H51608   3.283   5.092   9.049  0.0125  1.2896  0.1439
  391MOL0     H51609   3.351   5.201   9.182  2.9925  0.8235 -0.7354
  391MOL0     H51610   3.680   4.967   9.124  0.6238  1.8791  0.2357
  391MOL0     H51611   2.814   5.083   9.567  1.0841 -1.0397 -1.8763
  391MOL0     H51612   2.604   4.959   9.667 -2.0338 -0.7902 -0.0955
  392MOL0     O51613   9.442   5.739   0.831 -0.0895 -0.2364 -0.5453
  392MOL0     C51614   9.450   5.807   0.936 -0.4286 -0.7495 -0.3276
  392MOL0     O51615   9.343   5.847   1.022 -0.6864 -0.0539 -0.2309
  392MOL0     C51616   9.208   5.842   0.972 -0.5038 -0.6438  0.0625
  392MOL0     C51617   9.114   5.766   1.045 -0.2408  0.0274 -0.1378
  392MOL0     C51618   8.977   5.772   1.010  1.0022 -0.0941 -0.5998
  392MOL0     C51619   8.939   5.867   0.918  0.4712  0.2268 -0.2852
  392MOL0     O51620   8.809   5.863   0.886 -0.0978  0.0145  0.8309
  392MOL0     C51621   8.750   5.984   0.841  0.0601 -0.3427  1.0599
  392MOL0     C51622   8.597   5.969   0.859  0.4450  0.7991  1.0179
  392MOL0     C51623   8.523   5.858   0.782  0.9088  0.1325 -0.1109
  392MOL0     C51624   8.463   5.771   0.893 -0.2673  0.6843  0.5779
  392MOL0     C51625   8.372   5.661   0.838 -0.1879  0.6165  0.1085
  392MOL0     C51626   8.237   5.709   0.813  0.2897 -0.2413  0.4179
  392MOL0     C51627   8.146   5.600   0.753 -0.1472  0.0725  0.9193
  392MOL0     C51628   8.006   5.654   0.736  0.8412 -0.5124 -0.8134
  392MOL0     N51629   7.921   5.544   0.693 -0.6892 -0.5426 -0.1871
  392MOL0     C51630   7.887   5.507   0.565  0.4100  0.5239 -0.6203
  392MOL0     C51631   7.834   5.384   0.585 -0.1031 -0.3117  1.2786
  392MOL0     C51632   7.782   5.298   0.475  0.2238  0.6495  0.5613
  392MOL0     C51633   7.640   5.239   0.508 -0.3410 -0.8266 -0.2163
  392MOL0     C51634   7.640   5.117   0.604 -0.0952  0.0401  0.6237
  392MOL0     C51635   7.586   4.974   0.566 -0.0158 -0.4575 -0.3835
  392MOL0     O51636   7.456   4.992   0.507 -0.4120  0.2068  0.0153
  392MOL0     C51637   7.345   4.986   0.585 -0.1848  0.6487 -0.7477
  392MOL0     C51638   7.342   4.985   0.727 -0.0814  0.2076 -0.1054
  392MOL0     C51639   7.221   4.987   0.794  0.0502  0.1570 -0.1092
  392MOL0     C51640   7.107   5.004   0.729  0.7244  0.9312  0.6597
  392MOL0     C51641   6.978   5.011   0.804  0.3484 -0.8256  0.0322
  392MOL0     O51642   6.978   5.043   0.939  0.2766 -0.0244  0.4932
  392MOL0     C51643   6.863   5.037   1.009 -0.8806  0.8683  0.7396
  392MOL0     C51644   6.793   5.159   1.019  0.4710 -0.2959  0.4671
  392MOL0     C51645   6.683   5.161   1.105  0.4420 -0.6588  0.3360
  392MOL0     C51646   6.654   5.052   1.188 -0.1404  0.1074 -0.3891
  392MOL0     O51647   6.559   5.069   1.286 -0.3034  0.6045 -0.0854
  392MOL0     C51648   6.479   4.953   1.310 -0.3841 -0.5492 -0.1637
  392MOL0     C51649   6.337   4.992   1.346  1.0304 -0.3776  0.8024
  392MOL0     C51650   6.257   4.863   1.343 -0.6044  0.1189 -0.1256
  392MOL0     C51651   6.253   4.782   1.469 -0.7274  0.5561  0.0663
  392MOL0     C51652   6.165   4.654   1.443  1.1077  0.4942  0.6600
  392MOL0     C51653   6.150   4.545   1.554  0.2646  0.3049 -0.3334
  392MOL0     C51654   6.097   4.407   1.503  0.1635  0.1256  0.7396
  392MOL0     C51655   6.198   4.326   1.413  0.1618 -0.5462 -0.2247
  392MOL0    Cl51656   6.126   4.164   1.379  0.0370  0.3834  0.2980
  392MOL0     C51657   6.724   4.936   1.173 -1.0996 -0.6759  0.0135
  392MOL0     C51658   6.841   4.922   1.083 -0.1695  0.0286  0.4599
  392MOL0     O51659   6.878   4.987   0.735  0.1570  0.2734  0.5518
  392MOL0     C51660   7.107   5.002   0.586  0.0872  0.0719  0.1133
  392MOL0     C51661   7.226   4.996   0.518 -0.4162  0.0840  1.1171
  392MOL0     N51662   7.834   5.350   0.720  0.2898 -0.1014  0.4244
  392MOL0     N51663   7.885   5.446   0.785 -0.1321 -0.3303 -0.5786
  392MOL0     C51664   9.025   5.944   0.846  0.4819  0.4212 -0.2352
  392MOL0     C51665   9.165   5.932   0.876  0.2907  0.9681 -0.1455
  392MOL0     C51666   9.594   5.835   0.987  0.7562 -0.2172 -0.3735
  392MOL0     C51667   9.700   5.806   0.907  0.4862  0.3673 -0.2553
  392MOL0     C51668   9.823   5.821   0.961 -0.1243  1.2323  0.8100
  392MOL0     C51669   9.852   5.847   1.095 -0.4521  0.1828 -0.0810
  392MOL0     O51670   9.978   5.860   1.153  0.2657 -0.0866 -0.5866
  392MOL0     C51671  10.089   5.831   1.056 -0.2272  0.2438 -0.4191
  392MOL0     C51672  10.211   5.903   1.113 -0.4524  0.8337  1.4888
  392MOL0     C51673  10.355   5.876   1.041 -0.5610  0.6979  0.6740
  392MOL0     C51674  10.469   5.945   1.106 -0.7778 -0.0911  0.3233
  392MOL0     C51675  10.473   6.093   1.096  0.4774  0.1062 -0.4049
  392MOL0     C51676  10.489   6.214   1.074  0.1447  0.0487  0.2685
  392MOL0     C51677   9.739   5.858   1.171 -0.6993  0.4302  0.5389
  392MOL0     C51678   9.609   5.861   1.117 -1.0362  0.2218  0.0529
  392MOL0     H51679   9.160   5.713   1.128 -0.8164 -1.0379 -0.4733
  392MOL0     H51680   8.898   5.714   1.056  3.0118 -1.7511  0.9867
  392MOL0     H51681   8.785   6.015   0.742 -0.0218  0.3633  1.2456
  392MOL0     H51682   8.779   6.070   0.903  1.2900 -0.5123  0.7441
  392MOL0     H51683   8.556   6.062   0.818 -1.1655 -0.5950 -0.6844
  392MOL0     H51684   8.576   5.965   0.967 -1.1795  0.3586  0.7136
  392MOL0     H51685   8.595   5.795   0.729 -0.7457  0.9805 -3.6995
  392MOL0     H51686   8.443   5.891   0.715 -0.3965  1.7960  2.1336
  392MOL0     H51687   8.547   5.731   0.951 -2.6137 -2.1875  2.2570
  392MOL0     H51688   8.405   5.830   0.965  1.0409  1.4346  1.0531
  392MOL0     H51689   8.372   5.588   0.920  2.7466  1.3951  0.9258
  392MOL0     H51690   8.409   5.614   0.747  1.6355  2.8853 -0.3918
  392MOL0     H51691   8.234   5.781   0.731 -2.7743 -0.1653  0.4684
  392MOL0     H51692   8.186   5.760   0.895 -3.6221 -0.0710 -1.8451
  392MOL0     H51693   8.182   5.557   0.659  0.5747 -1.0990  1.6902
  392MOL0     H51694   8.136   5.524   0.831  1.0632 -0.3401  0.7007
  392MOL0     H51695   7.999   5.737   0.664  0.4017  1.1226  1.0302
  392MOL0     H51696   7.963   5.696   0.827  0.2433 -2.0542 -0.3520
  392MOL0     H51697   7.897   5.557   0.469  0.2070  0.0621 -0.8848
  392MOL0     H51698   7.864   5.229   0.451 -0.2653 -0.2159  1.3396
  392MOL0     H51699   7.770   5.364   0.389 -0.7974  0.3610  0.4762
  392MOL0     H51700   7.610   5.211   0.407  2.6782  0.4214 -1.5700
  392MOL0     H51701   7.567   5.317   0.534 -1.4446 -1.6482 -0.7705
  392MOL0     H51702   7.746   5.095   0.624  0.2937 -1.9345 -2.8710
  392MOL0     H51703   7.593   5.158   0.694 -0.2270 -1.8741  1.4859
  392MOL0     H51704   7.573   4.908   0.652 -3.5013 -2.5335 -2.2749
  392MOL0     H51705   7.644   4.917   0.493 -2.5277 -1.0178 -2.0881
  392MOL0     H51706   7.431   4.961   0.786 -0.1626  1.0458  0.3677
  392MOL0     H51707   7.223   4.994   0.902  1.3293 -0.0448 -0.1087
  392MOL0     H51708   6.828   5.246   0.965 -0.6264 -0.2326 -0.1755
  392MOL0     H51709   6.620   5.250   1.106 -0.2078 -0.8432 -3.7835
  392MOL0     H51710   6.522   4.904   1.398  0.6147  0.5542 -0.0159
  392MOL0     H51711   6.488   4.892   1.220  4.4924 -0.4177 -0.0158
  392MOL0     H51712   6.294   5.063   1.275 -0.3281 -1.6989  0.2307
  392MOL0     H51713   6.325   5.036   1.445 -1.5203  0.2693  0.2832
  392MOL0     H51714   6.286   4.801   1.257 -1.6628 -0.7494  0.1090
  392MOL0     H51715   6.154   4.896   1.328 -1.3373 -0.2855  3.1780
  392MOL0     H51716   6.354   4.747   1.489  1.7068  3.2995 -5.1543
  392MOL0     H51717   6.215   4.844   1.551  0.3257  0.4969  0.6200
  392MOL0     H51718   6.213   4.607   1.356  0.3474  0.9360 -0.0174
  392MOL0     H51719   6.063   4.689   1.426  0.9696  0.2019  0.8723
  392MOL0     H51720   6.094   4.583   1.640  1.4116  1.4913 -0.0776
  392MOL0     H51721   6.251   4.528   1.590 -0.7163 -2.8352  1.3528
  392MOL0     H51722   6.078   4.343   1.589  0.2439  1.3133  1.6629
  392MOL0     H51723   6.003   4.411   1.447 -0.6566 -1.0214  1.9839
  392MOL0     H51724   6.294   4.313   1.465  0.9424 -0.5508 -1.6137
  392MOL0     H51725   6.233   4.376   1.322  3.2698  1.5697  1.9427
  392MOL0     H51726   6.708   4.849   1.237 -2.2561 -2.1047 -2.0717
  392MOL0     H51727   6.912   4.841   1.094  1.3945  1.2772  0.0267
  392MOL0     H51728   7.015   4.988   0.530  0.9532  1.8853 -1.9031
  392MOL0     H51729   7.216   4.996   0.410 -0.4899 -2.3043  1.0723
  392MOL0     H51730   9.005   6.000   0.755  3.1556 -1.6413 -2.3003
  392MOL0     H51731   9.235   5.994   0.821  0.7077 -0.6005 -1.4433
  392MOL0     H51732   9.683   5.794   0.800 -2.0482  1.7877 -0.0990
  392MOL0     H51733   9.900   5.781   0.896 -2.6562 -1.7027 -0.5807
  392MOL0     H51734  10.080   5.878   0.958  0.5140  1.2730 -0.0012
  392MOL0     H51735  10.111   5.725   1.036 -0.4133  0.2609 -0.7137
  392MOL0     H51736  10.183   6.009   1.112 -0.6863  0.8524  3.9305
  392MOL0     H51737  10.215   5.868   1.216 -3.1872  1.2220  1.8127
  392MOL0     H51738  10.344   5.898   0.934 -0.5064 -4.6260 -0.6987
  392MOL0     H51739  10.383   5.771   1.049  1.3887  1.2120  1.2837
  392MOL0     H51740  10.476   5.917   1.211  3.2140  2.1211  0.8575
  392MOL0     H51741  10.565   5.899   1.077 -1.6831 -0.8534 -1.7048
  392MOL0     H51742  10.517   6.314   1.045 -1.8081  0.4536 -0.3150
  392MOL0     H51743   9.740   5.846   1.279  0.5500  1.0250  0.6084
  392MOL0     H51744   9.528   5.854   1.189 -0.7881 -0.7611  0.2468
  393MOL0     O51745   5.441   9.565   4.326  0.0861 -0.6015 -1.0590
  393MOL0     C51746   5.453   9.674   4.381 -0.5252  0.8666 -0.0803
  393MOL0     O51747   5.362   9.738   4.459  0.1382  0.6147 -0.7702
  393MOL0     C51748   5.235   9.689   4.493 -0.2967  0.2876 -0.1369
  393MOL0     C51749   5.162   9.595   4.418 -0.2361 -0.5082 -0.7171
  393MOL0     C51750   5.036   9.540   4.460 -0.1803 -0.6804 -0.0807
  393MOL0     C51751   4.977   9.598   4.571  0.1516  0.7307 -0.4709
  393MOL0     O51752   4.856   9.538   4.605 -0.1339 -0.0516  0.3846
  393MOL0     C51753   4.803   9.588   4.729  0.5839 -0.7130  0.3802
  393MOL0     C51754   4.663   9.524   4.747  0.7596  0.1506 -0.1479
  393MOL0     C51755   4.555   9.608   4.683  0.4286  0.3190  0.4535
  393MOL0     C51756   4.417   9.548   4.676  0.5117  0.7521 -0.0269
  393MOL0     C51757   4.338   9.579   4.545  0.2331 -0.2680  0.3262
  393MOL0     C51758   4.210   9.501   4.537 -0.2076 -0.1092 -0.3885
  393MOL0     C51759   4.121   9.523   4.415 -0.1208 -0.7658 -0.7280
  393MOL0     C51760   3.984   9.450   4.409  0.0852 -0.6329 -0.7768
  393MOL0     N51761   3.912   9.466   4.529 -0.5393  0.0821 -0.1864
  393MOL0     C51762   3.838   9.573   4.559 -0.1214 -1.1789 -1.1600
  393MOL0     C51763   3.794   9.546   4.684  0.9130 -0.0080  0.2704
  393MOL0     C51764   3.718   9.636   4.779  0.0075 -0.8263  0.4566
  393MOL0     C51765   3.584   9.579   4.817 -0.1021 -0.3778 -0.1257
  393MOL0     C51766   3.490   9.572   4.689 -0.5326 -0.5930 -0.8188
  393MOL0     C51767   3.351   9.528   4.723  0.7006  0.4352 -0.4129
  393MOL0     O51768   3.355   9.393   4.775  0.0054 -0.4269  0.0213
  393MOL0     C51769   3.231   9.329   4.752  0.2900  0.4532  0.3681
  393MOL0     C51770   3.107   9.372   4.802  0.3222 -0.3113  0.6364
  393MOL0     C51771   2.994   9.289   4.796 -0.6492 -0.3277 -0.4261
  393MOL0     C51772   3.002   9.160   4.741  0.1822  0.7491  0.3885
  393MOL0     C51773   2.887   9.069   4.760  0.0497  0.0636 -0.2518
  393MOL0     O51774   2.764   9.113   4.794  0.3762 -0.4195  0.8200
  393MOL0     C51775   2.662   9.027   4.812  0.0459 -0.9004  0.0479
  393MOL0     C51776   2.563   9.057   4.911  0.5241  0.2442 -0.5355
  393MOL0     C51777   2.457   8.963   4.939 -0.2758 -0.4604  0.1522
  393MOL0     C51778   2.447   8.853   4.858  0.7476  0.0190  0.3825
  393MOL0     O51779   2.351   8.758   4.889  0.5751 -0.3444  0.4344
  393MOL0     C51780   2.370   8.631   4.835  0.2589  0.0755 -0.1143
  393MOL0     C51781   2.249   8.538   4.871  0.2575  1.2822  0.6125
  393MOL0     C51782   2.123   8.598   4.812 -0.5368 -0.3309 -0.5436
  393MOL0     C51783   1.999   8.510   4.852 -0.4984  0.3262  0.0472
  393MOL0     C51784   1.872   8.569   4.805  0.1150  0.0983 -0.1709
  393MOL0     C51785   1.757   8.539   4.902 -0.2387  1.0956  0.8260
  393MOL0     C51786   1.627   8.618   4.859 -0.3136  0.5229  0.1345
  393MOL0     C51787   1.571   8.548   4.738  0.5398 -0.1199  0.0371
  393MOL0    Cl51788   1.401   8.605   4.737  0.1211  0.1169  0.4126
  393MOL0     C51789   2.537   8.831   4.748 -0.2216  0.1303  0.5203
  393MOL0     C51790   2.642   8.919   4.724  0.1646  0.3136  0.0907
  393MOL0     O51791   2.912   8.950   4.743  0.1098 -0.6126  0.2379
  393MOL0     C51792   3.120   9.116   4.686  0.5185 -0.4490 -0.5627
  393MOL0     C51793   3.236   9.202   4.690 -0.6599 -0.0706 -0.6050
  393MOL0     N51794   3.839   9.426   4.729 -0.0652 -0.1350  0.0578
  393MOL0     N51795   3.906   9.372   4.630  0.7464  0.0570  0.0293
  393MOL0     C51796   5.042   9.705   4.634  0.9031  0.0681  0.1308
  393MOL0     C51797   5.178   9.739   4.614  0.7602  0.7411  0.6110
  393MOL0     C51798   5.579   9.755   4.350  1.0948  0.2259  0.9426
  393MOL0     C51799   5.622   9.850   4.448  0.6083  0.0257  0.3025
  393MOL0     C51800   5.729   9.928   4.431  0.9570  0.2009 -0.9758
  393MOL0     C51801   5.801   9.925   4.315 -0.3955  0.2912  0.0345
  393MOL0     O51802   5.918   9.999   4.288 -0.2980 -0.4345  0.3749
  393MOL0     C51803   5.938  10.112   4.370  0.3300  0.2137  0.1792
  393MOL0     C51804   6.026  10.209   4.294 -0.4140 -0.3039  0.3562
  393MOL0     C51805   6.162  10.145   4.291 -0.3646  0.3010 -0.8044
  393MOL0     C51806   6.245  10.190   4.408 -0.2384 -0.4502  0.1064
  393MOL0     C51807   6.378  10.129   4.402  0.6001  0.3956 -0.2098
  393MOL0     C51808   6.492  10.097   4.394 -0.1143  0.1845 -0.3499
  393MOL0     C51809   5.772   9.826   4.216 -0.3505  0.1753 -0.2190
  393MOL0     C51810   5.659   9.740   4.236  0.5585  0.3107 -0.3715
  393MOL0     H51811   5.201   9.551   4.326 -0.3098 -0.9589 -0.5330
  393MOL0     H51812   4.993   9.451   4.413 -0.4662 -2.4182  3.2025
  393MOL0     H51813   4.793   9.697   4.735  1.0192 -0.5553 -1.1578
  393MOL0     H51814   4.870   9.551   4.807 -0.0891 -0.2737  1.1854
  393MOL0     H51815   4.635   9.514   4.853  1.7254  2.5440  0.3909
  393MOL0     H51816   4.655   9.424   4.704 -0.9429  0.1161  0.1652
  393MOL0     H51817   4.593   9.636   4.584  0.5377 -0.4235  0.2785
  393MOL0     H51818   4.553   9.700   4.741  2.3699  0.1153  0.8964
  393MOL0     H51819   4.425   9.440   4.686  1.0488  0.5733 -1.9225
  393MOL0     H51820   4.360   9.597   4.755 -1.1127 -0.1431 -0.5883
  393MOL0     H51821   4.395   9.543   4.459  0.4120  0.5371  0.0982
  393MOL0     H51822   4.307   9.683   4.530  1.3019 -0.2547 -2.2641
  393MOL0     H51823   4.152   9.534   4.623 -1.4874  1.8887 -1.9516
  393MOL0     H51824   4.224   9.393   4.553 -2.0867 -0.4087 -0.5177
  393MOL0     H51825   4.096   9.629   4.414  0.3914 -0.5250  2.3256
  393MOL0     H51826   4.179   9.489   4.328  0.9154  3.3128 -1.8606
  393MOL0     H51827   4.003   9.343   4.401 -1.1062 -0.7428 -3.2809
  393MOL0     H51828   3.911   9.475   4.331 -2.4503 -2.3205  0.9146
  393MOL0     H51829   3.817   9.664   4.505  0.1693 -1.3891 -1.6365
  393MOL0     H51830   3.697   9.739   4.746 -3.0027 -0.9315  1.6229
  393MOL0     H51831   3.777   9.649   4.870  0.4193 -0.3306  0.1291
  393MOL0     H51832   3.540   9.645   4.892 -0.8148 -1.0035  0.0262
  393MOL0     H51833   3.591   9.474   4.847  2.4829 -0.9282 -2.2103
  393MOL0     H51834   3.483   9.665   4.633  0.2944 -0.1032 -0.1387
  393MOL0     H51835   3.552   9.511   4.622  3.1384  2.0018 -0.1121
  393MOL0     H51836   3.288   9.532   4.635  1.0824 -1.7884 -0.8581
  393MOL0     H51837   3.312   9.608   4.787  2.6181  1.8500 -0.9331
  393MOL0     H51838   3.094   9.467   4.853  1.4493 -0.6005  1.5028
  393MOL0     H51839   2.903   9.318   4.849  0.1627  0.4628  0.6021
  393MOL0     H51840   2.573   9.159   4.946  1.0771  0.8261 -2.2537
  393MOL0     H51841   2.371   8.986   5.001 -0.4750  1.4994 -0.7557
  393MOL0     H51842   2.462   8.582   4.868 -0.4815 -0.0287  1.9077
  393MOL0     H51843   2.363   8.646   4.726 -2.9522 -4.1616 -0.7837
  393MOL0     H51844   2.231   8.533   4.979  0.2995 -0.4419  0.5541
  393MOL0     H51845   2.259   8.438   4.830  0.3821  1.2801  0.6466
  393MOL0     H51846   2.139   8.611   4.705  0.4824  0.4211 -0.3164
  393MOL0     H51847   2.119   8.693   4.866  2.1995 -0.4340 -0.0226
  393MOL0     H51848   2.021   8.406   4.827  0.4362  0.2107  1.2561
  393MOL0     H51849   2.002   8.511   4.961  0.4201  2.4718  0.0444
  393MOL0     H51850   1.844   8.543   4.702 -1.9278 -1.2933  0.6716
  393MOL0     H51851   1.886   8.677   4.802 -0.0314  0.2903  2.9082
  393MOL0     H51852   1.784   8.562   5.005 -0.0162 -2.9212  1.8107
  393MOL0     H51853   1.742   8.431   4.902 -3.1225  1.4000  0.7431
  393MOL0     H51854   1.560   8.612   4.945  1.4302 -0.3333  1.5024
  393MOL0     H51855   1.642   8.724   4.837  0.2028 -0.1786 -3.3613
  393MOL0     H51856   1.588   8.440   4.742  0.2408 -0.2086 -0.8831
  393MOL0     H51857   1.614   8.591   4.648  0.9932 -1.0178 -0.1923
  393MOL0     H51858   2.540   8.736   4.696  1.3128 -2.0188  4.1621
  393MOL0     H51859   2.709   8.904   4.640  0.5891  0.9660  0.3006
  393MOL0     H51860   3.116   9.019   4.639 -0.7393 -0.1658 -1.1056
  393MOL0     H51861   3.325   9.171   4.637  1.2849  1.3961  1.5875
  393MOL0     H51862   5.000   9.756   4.720  0.4458 -0.5001  0.2452
  393MOL0     H51863   5.226   9.810   4.680 -1.0871  2.3917  0.2912
  393MOL0     H51864   5.562   9.857   4.538 -1.6076  0.4825 -1.1398
  393MOL0     H51865   5.759   9.991   4.514 -1.8116  1.1788 -0.6150
  393MOL0     H51866   5.985  10.067   4.458 -1.0862 -0.3644  0.6779
  393MOL0     H51867   5.843  10.156   4.401 -0.1335 -2.4309  2.8890
  393MOL0     H51868   5.994  10.215   4.189  0.3668 -0.1950  0.1143
  393MOL0     H51869   6.024  10.306   4.345 -2.1100  0.6558 -1.3717
  393MOL0     H51870   6.208  10.176   4.197  0.7199  1.1353 -0.0208
  393MOL0     H51871   6.159  10.036   4.287 -1.9849  0.3511 -2.7281
  393MOL0     H51872   6.250  10.299   4.405 -0.9286 -0.4149  0.1030
  393MOL0     H51873   6.198  10.164   4.503 -0.1341 -0.6504  0.1029
  393MOL0     H51874   6.598  10.083   4.389 -0.0716 -1.2780  2.7285
  393MOL0     H51875   5.848   9.803   4.143  0.9483 -1.4721  1.5442
  393MOL0     H51876   5.638   9.673   4.153  1.0762 -0.7895  0.3558
  394MOL0     O51877   6.260   7.983   2.490 -0.0147 -0.5729 -0.2242
  394MOL0     C51878   6.206   7.963   2.598 -1.5573  0.0363 -0.3339
  394MOL0     O51879   6.091   8.012   2.648 -0.6011  0.1976  0.0718
  394MOL0     C51880   5.999   8.071   2.560 -0.8580 -0.4368  0.0512
  394MOL0     C51881   5.866   8.027   2.574  0.0641  0.5361 -0.8270
  394MOL0     C51882   5.759   8.103   2.516 -0.0929  0.4551  0.6997
  394MOL0     C51883   5.789   8.219   2.434  0.7629  0.0089 -0.0427
  394MOL0     O51884   5.677   8.278   2.374  0.2601 -0.8084 -0.0732
  394MOL0     C51885   5.704   8.418   2.337  0.4599  0.0175 -0.3301
  394MOL0     C51886   5.584   8.494   2.285 -0.1676 -0.4132 -0.7485
  394MOL0     C51887   5.466   8.486   2.378  0.0938 -0.1868  0.5212
  394MOL0     C51888   5.350   8.567   2.318 -0.8166  0.4454 -0.1622
  394MOL0     C51889   5.224   8.536   2.409  0.0494  0.5374 -0.6715
  394MOL0     C51890   5.097   8.589   2.357  0.3650  0.1476 -0.1529
  394MOL0     C51891   4.974   8.574   2.443  0.2828  0.7164  0.6505
  394MOL0     C51892   4.919   8.427   2.453 -0.2139  0.6154 -0.6329
  394MOL0     N51893   4.832   8.419   2.569 -0.1172  0.3152  0.1790
  394MOL0     C51894   4.735   8.501   2.594 -0.0714 -0.2556 -1.1879
  394MOL0     C51895   4.679   8.460   2.709  0.2243 -0.3790 -0.3651
  394MOL0     C51896   4.543   8.508   2.764 -0.5540 -1.2310  0.9783
  394MOL0     C51897   4.454   8.402   2.826 -0.1270 -0.3360 -0.3288
  394MOL0     C51898   4.415   8.295   2.720  0.8150  0.5316 -0.0061
  394MOL0     C51899   4.308   8.200   2.784 -0.7695  0.0480  1.2261
  394MOL0     O51900   4.192   8.271   2.802 -0.6895  0.0727  0.5288
  394MOL0     C51901   4.070   8.201   2.799 -0.4949 -0.8710  0.7044
  394MOL0     C51902   3.952   8.282   2.804  0.7246  0.4618 -0.5353
  394MOL0     C51903   3.829   8.235   2.819  1.1182  0.5749 -0.7046
  394MOL0     C51904   3.809   8.102   2.832  0.1720  0.5096 -0.3216
  394MOL0     C51905   3.679   8.031   2.852  0.1071 -0.0278 -0.6613
  394MOL0     O51906   3.676   7.898   2.878  0.8302 -0.5114 -0.5232
  394MOL0     C51907   3.556   7.842   2.931 -0.5173  1.0092  0.5473
  394MOL0     C51908   3.562   7.824   3.067 -0.4134 -0.5975 -0.1427
  394MOL0     C51909   3.455   7.774   3.135 -0.6580 -0.2722 -0.1431
  394MOL0     C51910   3.335   7.740   3.072 -0.4648 -0.1263 -0.2582
  394MOL0     O51911   3.244   7.694   3.160 -0.1786 -0.4402 -0.0102
  394MOL0     C51912   3.109   7.681   3.129 -0.0221 -0.4260  0.7941
  394MOL0     C51913   3.028   7.651   3.259 -0.5337  0.1644 -0.5710
  394MOL0     C51914   2.882   7.645   3.214  0.2492  0.1716  0.5761
  394MOL0     C51915   2.779   7.628   3.329 -0.7802 -0.7286 -0.3512
  394MOL0     C51916   2.632   7.612   3.279 -0.8732 -0.1893  0.0288
  394MOL0     C51917   2.553   7.556   3.392 -0.2691 -0.0369 -0.2210
  394MOL0     C51918   2.406   7.539   3.353  0.7485 -0.1840  0.8015
  394MOL0     C51919   2.317   7.485   3.466  0.1892 -0.5254  0.5004
  394MOL0    Cl51920   2.153   7.466   3.419  0.0323 -0.3282  0.0638
  394MOL0     C51921   3.319   7.767   2.937  0.6068  0.2174 -0.0100
  394MOL0     C51922   3.434   7.815   2.864 -0.2512 -0.3058 -0.0474
  394MOL0     O51923   3.578   8.101   2.858  0.0346 -0.1905  0.0691
  394MOL0     C51924   3.922   8.012   2.813 -0.6895  0.5317  0.5370
  394MOL0     C51925   4.055   8.063   2.795 -0.6581 -0.2476  0.2953
  394MOL0     N51926   4.756   8.348   2.748 -0.4901  0.0462 -0.7660
  394MOL0     N51927   4.846   8.323   2.657  0.3965 -0.6645 -0.2032
  394MOL0     C51928   5.926   8.262   2.430  0.2310  0.2313 -0.1803
  394MOL0     C51929   6.030   8.187   2.485  0.2656 -0.7861 -0.5462
  394MOL0     C51930   6.284   7.873   2.688  0.0138  0.0907  0.8966
  394MOL0     C51931   6.231   7.839   2.813  0.2259 -0.6381 -1.0049
  394MOL0     C51932   6.313   7.767   2.899  0.3123 -0.0152 -0.8271
  394MOL0     C51933   6.430   7.710   2.854 -0.0309  0.1289  1.1115
  394MOL0     O51934   6.502   7.635   2.952  0.0124 -0.2023  0.0733
  394MOL0     C51935   6.637   7.596   2.920 -0.0569  0.3096  0.6245
  394MOL0     C51936   6.685   7.522   3.045  0.3012  0.5393  0.7454
  394MOL0     C51937   6.628   7.380   3.059 -0.0504  0.0116 -0.6130
  394MOL0     C51938   6.689   7.299   3.173 -0.2611  0.8899 -0.3509
  394MOL0     C51939   6.686   7.357   3.307 -0.0763  0.3872  0.0321
  394MOL0     C51940   6.657   7.418   3.406  0.8317  0.2673  0.6881
  394MOL0     C51941   6.482   7.743   2.727  0.0118 -0.1841 -0.0237
  394MOL0     C51942   6.414   7.833   2.651  0.2282 -0.1167  1.2120
  394MOL0     H51943   5.833   7.938   2.627 -0.8251  0.6687 -1.1436
  394MOL0     H51944   5.657   8.067   2.528  0.4523 -0.8846  1.5551
  394MOL0     H51945   5.775   8.419   2.254  1.1480  3.2224  0.1900
  394MOL0     H51946   5.736   8.471   2.426  0.4241 -2.0422  0.9733
  394MOL0     H51947   5.558   8.440   2.194  1.4782 -2.0656 -0.3053
  394MOL0     H51948   5.620   8.596   2.270 -0.3996 -0.3251 -0.7213
  394MOL0     H51949   5.488   8.521   2.479 -0.3671 -0.2629  0.6511
  394MOL0     H51950   5.438   8.380   2.381  0.1479 -0.1992  3.3046
  394MOL0     H51951   5.367   8.675   2.323 -1.2108  0.5907 -1.4612
  394MOL0     H51952   5.338   8.533   2.214 -1.0470  1.0333 -0.3330
  394MOL0     H51953   5.252   8.565   2.511  0.7862 -1.0935 -0.3764
  394MOL0     H51954   5.221   8.430   2.435  2.3341  0.7029  0.5494
  394MOL0     H51955   5.088   8.537   2.261 -1.4869 -0.2139  0.1881
  394MOL0     H51956   5.115   8.697   2.346  0.0161  0.5363  2.5181
  394MOL0     H51957   5.000   8.615   2.541 -0.2249 -2.9414  2.5066
  394MOL0     H51958   4.895   8.634   2.396 -1.6617 -2.0140  0.1581
  394MOL0     H51959   4.998   8.353   2.468 -0.7975 -0.9173 -4.1221
  394MOL0     H51960   4.863   8.396   2.365  0.0817 -1.2892 -0.1973
  394MOL0     H51961   4.706   8.589   2.537 -0.0129 -0.0400 -0.8881
  394MOL0     H51962   4.481   8.561   2.691 -2.4027 -4.8319 -0.2982
  394MOL0     H51963   4.563   8.581   2.843 -1.4841  0.9159 -0.6295
  394MOL0     H51964   4.371   8.446   2.883  0.2322  0.0491 -0.0948
  394MOL0     H51965   4.519   8.361   2.904 -0.9828 -1.1209 -0.0104
  394MOL0     H51966   4.383   8.345   2.629  4.6329  4.6436  0.5249
  394MOL0     H51967   4.505   8.237   2.698  1.4902 -0.0832  3.6686
  394MOL0     H51968   4.359   8.164   2.873  0.7699  0.3572  0.4999
  394MOL0     H51969   4.296   8.109   2.723  0.5457 -0.4815  1.7300
  394MOL0     H51970   3.962   8.390   2.811  0.1035  0.4709  0.2907
  394MOL0     H51971   3.744   8.302   2.821  0.0271 -0.6949 -1.9430
  394MOL0     H51972   3.640   7.860   3.132  1.8643  0.2026 -3.0930
  394MOL0     H51973   3.472   7.760   3.241  2.9491 -0.6556 -0.6449
  394MOL0     H51974   3.098   7.607   3.049 -0.0025  1.5815 -1.1462
  394MOL0     H51975   3.068   7.777   3.095 -1.1276 -1.3149 -0.5001
  394MOL0     H51976   3.040   7.733   3.330 -1.1231 -1.4333  1.4549
  394MOL0     H51977   3.056   7.556   3.305 -3.4873 -0.8668 -0.7181
  394MOL0     H51978   2.868   7.561   3.145  0.3310  0.5097  0.1481
  394MOL0     H51979   2.866   7.745   3.173  2.0494  1.3092  2.4771
  394MOL0     H51980   2.803   7.534   3.379  3.7660 -1.5893 -3.5984
  394MOL0     H51981   2.786   7.717   3.392 -2.9228 -0.6212 -0.1869
  394MOL0     H51982   2.635   7.548   3.190  0.8867 -1.1192  0.6980
  394MOL0     H51983   2.591   7.706   3.243  1.9682  1.2160  0.1708
  394MOL0     H51984   2.564   7.613   3.484  1.2346 -1.2160  0.3945
  394MOL0     H51985   2.590   7.456   3.418  1.3076  0.8758  1.3098
  394MOL0     H51986   2.354   7.630   3.320 -0.4802 -0.7662  1.0799
  394MOL0     H51987   2.393   7.469   3.271 -0.9776  2.1935 -1.1182
  394MOL0     H51988   2.321   7.546   3.557  0.1409 -2.0275  1.5495
  394MOL0     H51989   2.345   7.386   3.504 -3.5024 -2.1191 -0.5085
  394MOL0     H51990   3.229   7.751   2.879  1.5296 -0.5863 -1.3023
  394MOL0     H51991   3.441   7.838   2.758  1.0903  2.0302  0.4757
  394MOL0     H51992   3.895   7.907   2.804 -0.0768  0.2354  1.9133
  394MOL0     H51993   4.137   7.995   2.773 -1.1050 -1.0912  1.1610
  394MOL0     H51994   5.955   8.353   2.379  1.0203  0.0293 -0.1013
  394MOL0     H51995   6.129   8.230   2.468  0.9979 -2.7747 -1.6094
  394MOL0     H51996   6.139   7.879   2.855  0.4277 -1.8661  0.7165
  394MOL0     H51997   6.277   7.754   3.001 -1.0370  1.4238 -1.0795
  394MOL0     H51998   6.688   7.691   2.901 -0.9358  0.4980 -0.9389
  394MOL0     H51999   6.635   7.524   2.838 -0.1193  1.8938 -0.8080
  394MOL0     H52000   6.792   7.519   3.028  0.2621  0.0956  0.5787
  394MOL0     H52001   6.651   7.585   3.128  0.3031  0.7733  0.5675
  394MOL0     H52002   6.644   7.329   2.963 -1.2275  0.8446 -1.2776
  394MOL0     H52003   6.521   7.387   3.077  0.4310  1.9484  2.2728
  394MOL0     H52004   6.639   7.201   3.181  0.5887  0.5190  0.6707
  394MOL0     H52005   6.797   7.286   3.159 -0.2415  1.2825 -0.5645
  394MOL0     H52006   6.639   7.465   3.501  1.8821  2.4460 -0.1357
  394MOL0     H52007   6.580   7.708   2.697 -1.1684 -2.7170 -1.2711
  394MOL0     H52008   6.463   7.861   2.558 -2.5151 -1.5138 -0.8043
  395MOL0     O52009   4.680   4.887   3.239  0.8053 -0.1692  0.5534
  395MOL0     C52010   4.683   4.963   3.143 -1.0426 -0.2033 -0.7525
  395MOL0     O52011   4.573   4.988   3.061  0.0109 -0.2952  0.7217
  395MOL0     C52012   4.455   4.924   3.082 -0.1986 -0.2046  0.2294
  395MOL0     C52013   4.366   4.966   3.185 -0.1077  0.9483 -0.0324
  395MOL0     C52014   4.247   4.900   3.201  0.6920  0.0417 -0.3540
  395MOL0     C52015   4.204   4.794   3.117  0.1151 -0.8218 -0.1156
  395MOL0     O52016   4.089   4.730   3.120  0.5505 -0.9035  0.1712
  395MOL0     C52017   3.969   4.798   3.162 -0.4120 -0.3595 -0.0135
  395MOL0     C52018   3.848   4.720   3.115  0.7397  1.4365  0.0944
  395MOL0     C52019   3.718   4.796   3.120  0.4258 -0.9592 -0.3830
  395MOL0     C52020   3.595   4.718   3.077  0.9856 -0.6772  0.5670
  395MOL0     C52021   3.451   4.771   3.113 -0.4832 -0.4743  0.1728
  395MOL0     C52022   3.340   4.669   3.060 -0.9358  0.4734 -1.0701
  395MOL0     C52023   3.200   4.686   3.114 -0.2343 -0.3599  0.9001
  395MOL0     C52024   3.114   4.574   3.063  0.5937 -0.0556  0.3380
  395MOL0     N52025   2.984   4.572   3.132  0.1219  0.1357  0.3906
  395MOL0     C52026   2.923   4.680   3.183  0.3953 -0.9910 -0.7416
  395MOL0     C52027   2.820   4.641   3.266  0.2337 -0.2335  0.2582
  395MOL0     C52028   2.705   4.726   3.322  0.5742  0.0841  0.1552
  395MOL0     C52029   2.672   4.676   3.462 -0.1814 -0.6855 -0.0661
  395MOL0     C52030   2.569   4.565   3.461  0.7481 -0.5350  0.4990
  395MOL0     C52031   2.536   4.488   3.595 -0.2082 -0.3840  0.4624
  395MOL0     O52032   2.419   4.529   3.660  0.2934 -0.6524 -0.7670
  395MOL0     C52033   2.301   4.464   3.652 -0.3680 -0.1209 -0.5402
  395MOL0     C52034   2.259   4.398   3.535  0.0358 -0.7882 -0.1670
  395MOL0     C52035   2.130   4.352   3.508  0.0765  0.1154  0.4624
  395MOL0     C52036   2.028   4.379   3.597  0.0702 -0.7080 -0.3267
  395MOL0     C52037   1.886   4.342   3.569  0.7438 -0.7483 -0.8813
  395MOL0     O52038   1.865   4.240   3.481 -0.0215 -0.5277  0.1294
  395MOL0     C52039   1.742   4.193   3.439  0.9798 -0.6858 -0.1388
  395MOL0     C52040   1.626   4.206   3.521 -0.1810  0.4278  0.3876
  395MOL0     C52041   1.499   4.171   3.474  0.0318 -0.0255 -0.0847
  395MOL0     C52042   1.491   4.105   3.351  0.7687  0.1952 -0.3974
  395MOL0     O52043   1.368   4.067   3.283 -0.3304  0.5803 -0.0334
  395MOL0     C52044   1.251   4.104   3.360 -0.0278  0.3636  0.4833
  395MOL0     C52045   1.131   4.078   3.269  0.6009  0.0048  0.3522
  395MOL0     C52046   0.998   4.097   3.345  0.7491 -0.3627 -0.0082
  395MOL0     C52047   0.881   4.060   3.255  0.6274  0.0207  0.3749
  395MOL0     C52048   0.758   4.132   3.308 -0.3943  0.4518 -0.4366
  395MOL0     C52049   0.632   4.091   3.238 -0.0715  0.6547 -0.6752
  395MOL0     C52050   0.608   4.124   3.093 -0.1422  0.0717 -1.0905
  395MOL0     C52051   0.456   4.109   3.058 -0.1585  0.3283  0.0037
  395MOL0    Cl52052   0.344   4.230   3.103  0.0930 -0.0902 -0.4443
  395MOL0     C52053   1.610   4.075   3.279 -0.0363 -0.3930 -0.4002
  395MOL0     C52054   1.734   4.126   3.323  0.7746 -0.4547  0.0859
  395MOL0     O52055   1.803   4.412   3.626  0.6792 -0.4069 -0.4895
  395MOL0     C52056   2.066   4.442   3.720  0.0321 -0.7738 -0.3261
  395MOL0     C52057   2.195   4.491   3.743 -0.0761  0.0946  0.1896
  395MOL0     N52058   2.828   4.503   3.272 -0.0515 -0.1545  0.1024
  395MOL0     N52059   2.930   4.468   3.201 -0.3372 -0.4268 -0.7136
  395MOL0     C52060   4.292   4.753   3.025 -0.7708  0.0598 -0.6227
  395MOL0     C52061   4.413   4.817   3.008 -0.3657  0.9675  0.6150
  395MOL0     C52062   4.810   5.033   3.114 -0.0181  0.1938  0.3800
  395MOL0     C52063   4.822   5.113   3.005  0.1811  0.9340  0.3670
  395MOL0     C52064   4.937   5.177   2.970 -0.4988 -0.4624  0.1004
  395MOL0     C52065   5.051   5.161   3.047 -0.3895  0.2512 -0.0723
  395MOL0     O52066   5.155   5.227   2.995 -0.5320  0.0962 -0.0198
  395MOL0     C52067   5.283   5.174   3.032 -0.5922  0.1456  0.8016
  395MOL0     C52068   5.392   5.279   2.984  0.3541  0.3523 -0.2568
  395MOL0     C52069   5.522   5.270   3.066 -0.5070 -0.2479  0.1951
  395MOL0     C52070   5.632   5.361   3.008 -1.2486 -0.5063  0.2848
  395MOL0     C52071   5.734   5.292   2.928  0.9423 -0.6185 -0.2168
  395MOL0     C52072   5.812   5.225   2.872 -0.0678 -0.7760  0.6970
  395MOL0     C52073   5.039   5.084   3.164 -0.1275 -0.0920  0.5047
  395MOL0     C52074   4.927   5.020   3.195 -0.0555  0.7816 -0.3473
  395MOL0     H52075   4.400   5.052   3.242  1.9748  0.4153 -0.3847
  395MOL0     H52076   4.182   4.930   3.282 -0.5295 -2.5752 -0.2794
  395MOL0     H52077   3.967   4.900   3.122 -0.1543  0.1623  1.2830
  395MOL0     H52078   3.965   4.802   3.271  0.9169  1.0398  0.0129
  395MOL0     H52079   3.825   4.634   3.177 -1.3719  3.0719  1.7468
  395MOL0     H52080   3.862   4.688   3.011 -3.6511 -1.5357  0.1137
  395MOL0     H52081   3.732   4.888   3.063  1.4232  0.2137  1.6377
  395MOL0     H52082   3.709   4.809   3.228 -0.1529 -3.9063  0.0197
  395MOL0     H52083   3.609   4.701   2.970  1.3870 -1.1938  0.6915
  395MOL0     H52084   3.614   4.613   3.105  2.3066 -0.6775 -0.2155
  395MOL0     H52085   3.434   4.876   3.086  1.4024 -0.7739 -2.6177
  395MOL0     H52086   3.438   4.757   3.221  0.0975  2.7235  0.7698
  395MOL0     H52087   3.368   4.574   3.107  1.1666  2.5914  2.3993
  395MOL0     H52088   3.347   4.650   2.952  1.9051 -2.4529 -0.5597
  395MOL0     H52089   3.203   4.692   3.223  0.3964  0.8338  0.8408
  395MOL0     H52090   3.164   4.784   3.081 -0.1789 -1.1914 -1.8333
  395MOL0     H52091   3.158   4.474   3.063 -2.5163 -1.6697 -3.0694
  395MOL0     H52092   3.082   4.596   2.961 -1.8001 -1.5496  0.6718
  395MOL0     H52093   2.947   4.783   3.161  0.4660 -0.9442 -0.4551
  395MOL0     H52094   2.614   4.718   3.261  0.1490 -0.6364  0.8648
  395MOL0     H52095   2.732   4.832   3.322 -1.4490  0.6718 -1.4978
  395MOL0     H52096   2.630   4.764   3.511  0.7680  0.7032 -1.6384
  395MOL0     H52097   2.761   4.645   3.517 -0.4999  1.1166  1.5574
  395MOL0     H52098   2.479   4.609   3.417  2.2119  2.9711  0.6929
  395MOL0     H52099   2.603   4.491   3.388 -2.4394  0.1336 -1.9099
  395MOL0     H52100   2.621   4.505   3.663  1.8843 -0.5024 -1.9934
  395MOL0     H52101   2.538   4.384   3.564  0.3756 -0.9345  2.2119
  395MOL0     H52102   2.326   4.388   3.450  1.4235 -0.7729  0.8955
  395MOL0     H52103   2.112   4.297   3.417  2.4032 -0.6532  0.4038
  395MOL0     H52104   1.642   4.252   3.618  0.9153  1.2513 -0.1596
  395MOL0     H52105   1.418   4.178   3.546  1.9099 -1.0923  2.2851
  395MOL0     H52106   1.244   4.212   3.376 -1.0101  0.3639  0.1701
  395MOL0     H52107   1.245   4.041   3.450  3.1547 -0.0355  0.5284
  395MOL0     H52108   1.136   3.975   3.233 -2.0285  0.0210 -0.2197
  395MOL0     H52109   1.130   4.149   3.186 -1.1990 -1.4765 -0.9553
  395MOL0     H52110   0.994   4.202   3.375 -2.3474 -0.8712  1.7443
  395MOL0     H52111   0.998   4.031   3.432  0.1449  0.2115  0.4309
  395MOL0     H52112   0.902   4.103   3.157 -1.1010  4.4989  1.6886
  395MOL0     H52113   0.873   3.952   3.244  1.0449 -0.6095  4.5980
  395MOL0     H52114   0.771   4.239   3.286  0.0317  0.5724  0.3653
  395MOL0     H52115   0.747   4.119   3.416 -1.0235  0.1996 -0.5232
  395MOL0     H52116   0.544   4.131   3.290 -1.1383 -0.7253 -1.3501
  395MOL0     H52117   0.643   3.982   3.242  0.9915  0.7720  0.4348
  395MOL0     H52118   0.642   4.228   3.081  2.4911 -0.7132 -1.0207
  395MOL0     H52119   0.664   4.063   3.021  2.0838  1.7882 -0.9185
  395MOL0     H52120   0.416   4.017   3.102 -0.5830  0.6754  0.3534
  395MOL0     H52121   0.451   4.095   2.949 -1.4102  1.9111 -0.1680
  395MOL0     H52122   1.609   4.037   3.177 -0.9424 -0.4103 -0.3924
  395MOL0     H52123   1.818   4.107   3.256 -1.7115 -0.0806 -3.4542
  395MOL0     H52124   2.000   4.474   3.800  2.9375  0.0440  1.9563
  395MOL0     H52125   2.219   4.546   3.834 -2.0348  0.9309  0.2684
  395MOL0     H52126   4.272   4.665   2.965 -1.2406  1.0205 -1.9430
  395MOL0     H52127   4.489   4.780   2.939 -0.6423 -1.4631  1.5165
  395MOL0     H52128   4.737   5.132   2.940  0.2947  0.5306  0.0975
  395MOL0     H52129   4.938   5.232   2.877 -0.1057 -1.2561 -0.3767
  395MOL0     H52130   5.308   5.079   2.985 -1.2767 -0.2124  1.1418
  395MOL0     H52131   5.298   5.163   3.140  0.4067  1.5705  0.8358
  395MOL0     H52132   5.420   5.256   2.881  2.4942 -2.5034  0.8272
  395MOL0     H52133   5.346   5.377   3.000 -1.7274 -1.0759  4.6403
  395MOL0     H52134   5.563   5.168   3.068  2.6400  0.8899 -0.3662
  395MOL0     H52135   5.505   5.297   3.171 -0.4023  1.0241 -0.1010
  395MOL0     H52136   5.603   5.453   2.958  2.7296  0.6827 -0.2228
  395MOL0     H52137   5.688   5.391   3.098 -0.4259 -1.0945 -0.0211
  395MOL0     H52138   5.867   5.149   2.820  0.8953 -1.6047  2.8349
  395MOL0     H52139   5.127   5.070   3.227 -0.6531  2.6441  2.0083
  395MOL0     H52140   4.917   4.940   3.268 -1.2480 -0.6328 -1.9536
  396MOL0     O52141   9.892   2.388   0.621  0.4980  0.6980 -0.1910
  396MOL0     C52142   9.838   2.499   0.616 -0.1443  0.5739 -0.2529
  396MOL0     O52143   9.816   2.577   0.503 -0.5416 -0.0795  0.3822
  396MOL0     C52144   9.829   2.515   0.381  1.0596  0.1013 -0.1387
  396MOL0     C52145   9.766   2.393   0.357  0.6399 -0.5816 -0.3293
  396MOL0     C52146   9.786   2.312   0.252  0.0233  0.9806  0.2597
  396MOL0     C52147   9.866   2.362   0.149 -0.1204 -0.0196  0.5504
  396MOL0     O52148   9.874   2.293   0.025 -0.8908 -0.4033  0.2241
  396MOL0     C52149  10.006   2.262  -0.019 -1.2960  0.4202  0.0202
  396MOL0     C52150  10.010   2.173  -0.144 -0.2605  0.2770 -0.2434
  396MOL0     C52151   9.929   2.215  -0.265 -0.2581  0.5097  0.6673
  396MOL0     C52152   9.933   2.105  -0.375 -0.2485 -0.2746  0.3903
  396MOL0     C52153   9.869   2.158  -0.505 -0.8544  0.1055 -0.0706
  396MOL0     C52154   9.875   2.065  -0.626 -0.3071 -0.1808 -0.5968
  396MOL0     C52155   9.841   1.915  -0.610  0.0459 -0.3404 -1.1545
  396MOL0     C52156   9.688   1.886  -0.604 -1.5444 -0.6636 -0.6390
  396MOL0     N52157   9.621   1.953  -0.713  0.0737 -0.3764 -0.7471
  396MOL0     C52158   9.638   1.915  -0.840  0.5678 -0.3515  0.1962
  396MOL0     C52159   9.537   1.987  -0.903 -0.1946 -0.5225 -0.2673
  396MOL0     C52160   9.520   1.969  -1.052 -0.1114 -0.4352  0.1137
  396MOL0     C52161   9.651   1.934  -1.135  0.2076  0.3609 -0.6450
  396MOL0     C52162   9.735   2.061  -1.162 -0.3613  0.0788 -0.4893
  396MOL0     C52163   9.884   2.041  -1.191 -0.2755 -0.0331 -0.1101
  396MOL0     O52164   9.967   2.003  -1.084  0.0220 -0.4091 -0.3600
  396MOL0     C52165  10.071   1.921  -1.105 -0.9615  0.2516  0.2834
  396MOL0     C52166  10.130   1.879  -1.229 -0.6991  0.2678  1.1292
  396MOL0     C52167  10.240   1.804  -1.238 -0.0555 -0.5367 -0.1831
  396MOL0     C52168  10.287   1.745  -1.122  0.0212  0.8179  0.4404
  396MOL0     C52169  10.414   1.665  -1.124 -0.4700 -0.7960 -0.1478
  396MOL0     O52170  10.492   1.709  -1.229 -0.0199 -0.2062  0.9351
  396MOL0     C52171  10.625   1.683  -1.219 -0.0933 -0.3453  0.2580
  396MOL0     C52172  10.680   1.586  -1.303  0.0763  0.1317 -0.1935
  396MOL0     C52173  10.813   1.567  -1.316 -0.0084  0.8529 -0.2152
  396MOL0     C52174  10.897   1.638  -1.222  0.3023  0.2017  1.0120
  396MOL0     O52175  11.038   1.618  -1.241  0.4604  0.1966 -0.7103
  396MOL0     C52176  11.125   1.711  -1.169  0.2164 -0.0269 -0.3973
  396MOL0     C52177  11.264   1.684  -1.224  0.1068  0.1411 -0.3418
  396MOL0     C52178  11.373   1.761  -1.137 -0.5129 -0.0837  0.3833
  396MOL0     C52179  11.516   1.735  -1.189 -0.1555  0.5137 -0.5324
  396MOL0     C52180  11.619   1.740  -1.076  0.8040  0.0655  0.6270
  396MOL0     C52181  11.752   1.686  -1.130 -0.5590  0.1996 -1.5041
  396MOL0     C52182  11.855   1.674  -1.016 -0.1312  0.2328 -0.4041
  396MOL0     C52183  11.997   1.647  -1.057 -0.1221  0.2193 -0.2465
  396MOL0    Cl52184  12.099   1.638  -0.910 -0.1009  0.0947  0.0733
  396MOL0     C52185  10.838   1.726  -1.132 -0.8826 -0.2220  0.0628
  396MOL0     C52186  10.705   1.751  -1.133  0.2370 -0.3001  0.6941
  396MOL0     O52187  10.458   1.604  -1.025  0.3245  0.0464  0.0459
  396MOL0     C52188  10.215   1.760  -1.000 -0.8868  0.4131  0.0090
  396MOL0     C52189  10.115   1.856  -0.991  0.3859 -0.8733 -0.3997
  396MOL0     N52190   9.467   2.066  -0.820 -0.0798 -0.6512 -0.8899
  396MOL0     N52191   9.518   2.044  -0.707  0.3734 -0.2411  0.6949
  396MOL0     C52192   9.922   2.495   0.156  1.0999 -0.3803 -0.2544
  396MOL0     C52193   9.917   2.564   0.280 -0.1516  0.8556  0.5858
  396MOL0     C52194   9.795   2.555   0.749  0.1298  0.2602  0.5229
  396MOL0     C52195   9.785   2.472   0.872 -0.5708  0.1047  0.3787
  396MOL0     C52196   9.754   2.531   0.994 -0.5749  0.3892 -0.2323
  396MOL0     C52197   9.726   2.668   0.998 -1.2564 -0.1709 -0.0654
  396MOL0     O52198   9.712   2.736   1.114  0.4839 -1.1136 -0.4291
  396MOL0     C52199   9.658   2.666   1.229  0.3196  0.2474 -0.3563
  396MOL0     C52200   9.574   2.752   1.327  0.9722 -0.3240 -0.0387
  396MOL0     C52201   9.449   2.811   1.254  0.3797  0.9171  0.1765
  396MOL0     C52202   9.369   2.903   1.347  0.4528  0.9325  0.3817
  396MOL0     C52203   9.265   2.984   1.275  0.2796  0.0217 -0.2018
  396MOL0     C52204   9.180   3.048   1.226 -0.0999 -0.1481  0.2429
  396MOL0     C52205   9.727   2.737   0.876  0.6940  0.4805 -0.8559
  396MOL0     C52206   9.763   2.685   0.759 -0.1738 -0.5169 -0.7911
  396MOL0     H52207   9.714   2.356   0.445  0.0325  1.4140  0.2002
  396MOL0     H52208   9.756   2.208   0.252  0.5284  0.8309  0.2298
  396MOL0     H52209  10.050   2.201   0.061 -1.7983 -2.0685 -1.4779
  396MOL0     H52210  10.057   2.358  -0.027 -0.2690 -0.1930 -1.2705
  396MOL0     H52211   9.990   2.068  -0.122 -0.2710 -0.1342 -2.0046
  396MOL0     H52212  10.115   2.177  -0.176 -0.3568  1.2680 -0.4821
  396MOL0     H52213   9.963   2.309  -0.311  1.7664 -0.8420 -0.7673
  396MOL0     H52214   9.827   2.234  -0.231  0.0213  0.9579  1.2874
  396MOL0     H52215  10.037   2.076  -0.392  0.5622  2.6624 -0.1973
  396MOL0     H52216   9.870   2.026  -0.333 -1.5940  0.2773 -0.5325
  396MOL0     H52217   9.924   2.247  -0.537  2.4914 -1.0067  2.1043
  396MOL0     H52218   9.763   2.169  -0.479 -1.3215  0.0653 -1.8587
  396MOL0     H52219   9.980   2.066  -0.654 -0.3223  0.0179 -0.6519
  396MOL0     H52220   9.832   2.109  -0.716 -0.4608  2.4244  0.6504
  396MOL0     H52221   9.886   1.870  -0.699  0.9707 -0.1795 -0.7798
  396MOL0     H52222   9.886   1.880  -0.517 -1.5623  0.0099 -0.2002
  396MOL0     H52223   9.652   1.928  -0.510  0.5699 -0.0620 -0.0343
  396MOL0     H52224   9.664   1.780  -0.615 -0.9063 -0.6104 -3.4776
  396MOL0     H52225   9.714   1.850  -0.882  0.6593  1.1216 -2.0984
  396MOL0     H52226   9.477   2.060  -1.094 -3.7905 -2.3864 -0.8106
  396MOL0     H52227   9.450   1.893  -1.089 -0.8498  1.4729 -2.7497
  396MOL0     H52228   9.629   1.888  -1.233 -0.2988 -3.0306  0.9018
  396MOL0     H52229   9.718   1.859  -1.092  0.0965  0.8320  0.3727
  396MOL0     H52230   9.693   2.115  -1.247  1.6486 -0.1501 -1.6866
  396MOL0     H52231   9.729   2.134  -1.081 -0.8126 -0.0375 -0.4124
  396MOL0     H52232   9.917   2.141  -1.222 -0.4905 -0.0109 -0.2662
  396MOL0     H52233   9.886   1.981  -1.283 -2.9579  1.9726 -1.6339
  396MOL0     H52234  10.100   1.930  -1.320 -0.9709  5.1817  3.5966
  396MOL0     H52235  10.295   1.785  -1.330  2.1698  1.1282  0.7132
  396MOL0     H52236  10.603   1.538  -1.363 -1.9950  2.6260  0.2852
  396MOL0     H52237  10.864   1.514  -1.396 -0.1848 -1.2067  0.9527
  396MOL0     H52238  11.115   1.688  -1.062  1.7765 -3.4538 -0.8588
  396MOL0     H52239  11.094   1.813  -1.194  3.3049  1.0789 -0.1215
  396MOL0     H52240  11.270   1.728  -1.324  3.5325  2.9262  0.9030
  396MOL0     H52241  11.284   1.576  -1.220 -2.1424 -0.3456 -0.8285
  396MOL0     H52242  11.365   1.735  -1.031  0.7242  0.5428  0.6503
  396MOL0     H52243  11.346   1.867  -1.129 -0.0740  0.0334  0.3523
  396MOL0     H52244  11.515   1.636  -1.236 -2.7505 -0.2221  0.8482
  396MOL0     H52245  11.556   1.789  -1.275  1.6783  1.2131  0.6997
  396MOL0     H52246  11.583   1.677  -0.995 -0.2730 -1.9357 -1.2957
  396MOL0     H52247  11.627   1.843  -1.040  1.2721  0.3951 -0.3656
  396MOL0     H52248  11.795   1.727  -1.222  2.3024 -2.6089 -1.5885
  396MOL0     H52249  11.741   1.585  -1.170  0.6491 -0.2969 -0.6344
  396MOL0     H52250  11.861   1.763  -0.952  0.4556 -1.5282  2.1405
  396MOL0     H52251  11.828   1.589  -0.953 -0.2002  1.8613  1.8784
  396MOL0     H52252  12.026   1.721  -1.131 -0.6744 -0.5829 -1.2899
  396MOL0     H52253  12.002   1.549  -1.106 -0.4667  0.0440  0.0593
  396MOL0     H52254  10.901   1.778  -1.060 -0.0529 -0.9580 -0.1160
  396MOL0     H52255  10.647   1.802  -1.057 -3.0637 -1.6544 -0.7370
  396MOL0     H52256  10.248   1.708  -0.910  0.3386  0.9776 -0.0967
  396MOL0     H52257  10.054   1.870  -0.902 -1.6170  0.9664 -1.9436
  396MOL0     H52258   9.969   2.551   0.076  0.9436  2.2907  1.4020
  396MOL0     H52259   9.972   2.657   0.291 -2.0274  2.0725  0.2684
  396MOL0     H52260   9.802   2.366   0.862 -0.8613  0.0436  0.5249
  396MOL0     H52261   9.771   2.463   1.076  1.9256 -0.3376 -1.2417
  396MOL0     H52262   9.746   2.625   1.280 -1.0790 -0.4518  1.6465
  396MOL0     H52263   9.595   2.584   1.192  2.3416 -1.4784 -0.1915
  396MOL0     H52264   9.541   2.690   1.411 -4.3612  0.9596 -0.8459
  396MOL0     H52265   9.633   2.835   1.368 -0.1122  0.1015  0.7115
  396MOL0     H52266   9.396   2.724   1.215 -2.3009  1.1699  2.8817
  396MOL0     H52267   9.479   2.857   1.159 -3.0091  0.2219 -1.3918
  396MOL0     H52268   9.338   2.846   1.435  4.5023  0.6375  1.8235
  396MOL0     H52269   9.449   2.972   1.375  2.1787 -0.8853  0.1362
  396MOL0     H52270   9.102   3.097   1.171 -0.7496 -1.8395 -0.4340
  396MOL0     H52271   9.706   2.842   0.896 -0.1103 -0.1937  2.3416
  396MOL0     H52272   9.752   2.759   0.680  0.8610  1.0635  0.4772
  397MOL0     O52273   5.985   7.705   2.032 -0.4058  0.5607 -0.1121
  397MOL0     C52274   6.073   7.714   1.951  0.2982 -0.3953 -0.2596
  397MOL0     O52275   6.048   7.742   1.820  0.0250 -0.1076  0.5536
  397MOL0     C52276   5.919   7.761   1.782  0.3547 -0.2895 -0.2405
  397MOL0     C52277   5.838   7.645   1.764  0.0661 -0.7624 -0.0888
  397MOL0     C52278   5.704   7.669   1.736  0.0558 -0.4880 -0.0481
  397MOL0     C52279   5.657   7.799   1.709  0.7153 -0.4597  0.9386
  397MOL0     O52280   5.532   7.829   1.662  0.3095  0.3240 -0.1503
  397MOL0     C52281   5.496   7.759   1.546  0.2901  0.3482  0.7986
  397MOL0     C52282   5.381   7.821   1.482 -0.3002 -0.2130  0.5388
  397MOL0     C52283   5.412   7.974   1.453  0.8484 -0.1018  0.2016
  397MOL0     C52284   5.314   8.039   1.361  0.5953 -0.5329 -0.3236
  397MOL0     C52285   5.372   8.179   1.334  0.2825 -0.1004 -0.6289
  397MOL0     C52286   5.307   8.256   1.226 -0.1241 -0.1964  0.0561
  397MOL0     C52287   5.164   8.283   1.261 -1.1617  0.1664 -0.3995
  397MOL0     C52288   5.095   8.381   1.166 -0.6493  0.4517  0.2118
  397MOL0     N52289   4.953   8.397   1.202 -0.0195  0.2472 -0.0835
  397MOL0     C52290   4.886   8.521   1.214 -0.3429 -0.5319  0.0306
  397MOL0     C52291   4.752   8.485   1.208 -0.4276 -0.1813 -0.6505
  397MOL0     C52292   4.631   8.565   1.204  0.8075  0.1493 -0.0543
  397MOL0     C52293   4.568   8.562   1.063  0.1037  0.2046 -0.5057
  397MOL0     C52294   4.466   8.452   1.067 -0.3995 -0.3230 -0.1071
  397MOL0     C52295   4.390   8.447   0.939  1.0222  0.8608 -0.2147
  397MOL0     O52296   4.275   8.531   0.941  0.3350  0.2910  0.5833
  397MOL0     C52297   4.155   8.483   0.979  0.2957  0.9450 -0.1711
  397MOL0     C52298   4.127   8.356   1.036 -0.5317 -0.1553 -0.3084
  397MOL0     C52299   3.998   8.311   1.049 -0.5351  0.2383 -0.3989
  397MOL0     C52300   3.893   8.393   1.008  0.5894  0.3568  1.0163
  397MOL0     C52301   3.755   8.339   0.997  0.6242 -0.8859 -0.2013
  397MOL0     O52302   3.710   8.251   1.085 -0.2643  0.2834 -0.8590
  397MOL0     C52303   3.576   8.221   1.093  0.9331 -0.3089  0.5268
  397MOL0     C52304   3.466   8.318   1.075  0.2622 -0.5726  0.0972
  397MOL0     C52305   3.335   8.277   1.092 -0.6339  0.2218  0.4147
  397MOL0     C52306   3.304   8.145   1.112  0.7926  0.2000  0.8784
  397MOL0     O52307   3.173   8.111   1.121  0.0975 -0.6202  0.4223
  397MOL0     C52308   3.126   7.977   1.076  0.5220  0.2624 -0.5006
  397MOL0     C52309   2.977   7.985   1.117  0.4280 -0.5009 -0.0440
  397MOL0     C52310   2.894   7.863   1.093 -0.7723 -0.1726 -0.0284
  397MOL0     C52311   2.743   7.888   1.118 -0.6947  0.4246 -0.1531
  397MOL0     C52312   2.660   7.765   1.064 -0.1793 -0.6390  0.7222
  397MOL0     C52313   2.664   7.646   1.171 -0.2446 -0.1532  0.0127
  397MOL0     C52314   2.551   7.562   1.138  0.5667  0.7456  0.2100
  397MOL0     C52315   2.548   7.440   1.231 -0.3841 -0.4656 -0.0527
  397MOL0    Cl52316   2.507   7.486   1.397  0.5131 -0.1590  0.5710
  397MOL0     C52317   3.398   8.052   1.117 -0.7756 -0.0940 -0.0311
  397MOL0     C52318   3.532   8.095   1.115  0.2291  0.0003 -0.2562
  397MOL0     O52319   3.692   8.374   0.899  0.2843  0.3104 -0.3743
  397MOL0     C52320   3.917   8.515   0.950 -0.2940 -0.5664  0.1393
  397MOL0     C52321   4.050   8.563   0.943  0.7229  0.0893  0.3530
  397MOL0     N52322   4.745   8.346   1.184 -0.3117  0.0938 -0.1118
  397MOL0     N52323   4.862   8.300   1.192  0.2538 -0.1569  0.0029
  397MOL0     C52324   5.736   7.913   1.735 -0.5290  0.3786 -0.0214
  397MOL0     C52325   5.866   7.890   1.781 -0.7024  0.4234  0.6980
  397MOL0     C52326   6.204   7.686   1.994 -0.2391  0.0659  0.2889
  397MOL0     C52327   6.248   7.699   2.127  0.1595 -0.8987  0.0304
  397MOL0     C52328   6.376   7.666   2.160  0.0978 -0.3913 -0.3461
  397MOL0     C52329   6.475   7.634   2.069 -0.2799  1.0480  0.5322
  397MOL0     O52330   6.613   7.634   2.098 -0.0853  0.2609 -0.3522
  397MOL0     C52331   6.661   7.633   2.229  0.0557  0.0657 -0.2776
  397MOL0     C52332   6.816   7.626   2.233 -0.5049  0.3785  0.3580
  397MOL0     C52333   6.850   7.495   2.165 -0.9135  0.2876  0.4193
  397MOL0     C52334   7.002   7.441   2.177  0.6298 -1.3185 -0.0529
  397MOL0     C52335   7.040   7.405   2.311 -0.1391 -0.7263  0.4332
  397MOL0     C52336   7.070   7.368   2.421  0.2982  0.3974 -0.1095
  397MOL0     C52337   6.433   7.623   1.936  0.0837 -0.0613 -0.5530
  397MOL0     C52338   6.298   7.651   1.899 -0.4885 -0.1813  0.1438
  397MOL0     H52339   5.876   7.545   1.783  1.1815  0.0064  2.1324
  397MOL0     H52340   5.630   7.593   1.715  0.8214 -0.7712 -1.9816
  397MOL0     H52341   5.483   7.653   1.570  1.8741  0.3400  1.6655
  397MOL0     H52342   5.578   7.749   1.474 -1.3419 -0.9602 -0.9983
  397MOL0     H52343   5.304   7.801   1.558  1.1027 -3.6938  1.1868
  397MOL0     H52344   5.350   7.784   1.384 -0.7640  1.8607 -0.1564
  397MOL0     H52345   5.506   7.982   1.398 -0.5856 -2.4460 -2.9554
  397MOL0     H52346   5.419   8.021   1.551  0.7927 -1.5205  0.9197
  397MOL0     H52347   5.284   7.980   1.274  0.5716 -0.8143 -0.1261
  397MOL0     H52348   5.221   8.054   1.418  0.0671 -2.6208 -0.5540
  397MOL0     H52349   5.478   8.170   1.309  0.4367 -2.8165  0.6574
  397MOL0     H52350   5.371   8.230   1.431  2.5461 -1.9888  0.4646
  397MOL0     H52351   5.321   8.199   1.134  0.7065  0.1141 -0.0205
  397MOL0     H52352   5.352   8.356   1.219  1.2582 -0.7692  0.4280
  397MOL0     H52353   5.107   8.190   1.266  1.7835 -1.7558  0.0835
  397MOL0     H52354   5.171   8.317   1.364 -0.5531 -2.2413  0.4244
  397MOL0     H52355   5.112   8.359   1.060 -1.9480  3.9407 -0.8574
  397MOL0     H52356   5.151   8.475   1.174 -0.8409  0.4566  1.7546
  397MOL0     H52357   4.926   8.621   1.226 -3.2936  0.6392  0.8163
  397MOL0     H52358   4.664   8.666   1.229 -1.9838  1.1842 -0.1536
  397MOL0     H52359   4.560   8.526   1.277  0.0439  0.2202 -0.7421
  397MOL0     H52360   4.644   8.541   0.987 -0.7344  1.0809 -1.6038
  397MOL0     H52361   4.512   8.652   1.039 -1.0924  0.9367  4.1624
  397MOL0     H52362   4.518   8.357   1.085 -1.3400 -0.8861 -0.3181
  397MOL0     H52363   4.398   8.468   1.151 -2.3051 -2.4094 -1.1547
  397MOL0     H52364   4.373   8.344   0.907 -0.3921  0.8850  0.4078
  397MOL0     H52365   4.450   8.492   0.860  1.9895 -0.8659 -0.5200
  397MOL0     H52366   4.212   8.289   1.042 -0.4431 -0.0971 -0.8369
  397MOL0     H52367   3.980   8.213   1.091 -1.7517  0.3209 -0.7026
  397MOL0     H52368   3.484   8.422   1.050  0.7914 -1.0447 -1.6313
  397MOL0     H52369   3.247   8.335   1.068 -3.3046 -3.0741  1.3487
  397MOL0     H52370   3.186   7.907   1.133 -1.8606  1.4446  4.0022
  397MOL0     H52371   3.131   7.957   0.969 -3.3507 -1.8055 -0.4633
  397MOL0     H52372   2.932   8.061   1.052  3.0147  2.8133  1.7432
  397MOL0     H52373   2.968   8.032   1.215  1.8472  2.8213 -1.3575
  397MOL0     H52374   2.943   7.780   1.145 -0.4942  0.1081  0.1625
  397MOL0     H52375   2.897   7.845   0.985 -3.6503  2.1744 -0.6328
  397MOL0     H52376   2.729   7.907   1.225 -1.2560  2.4695 -0.5622
  397MOL0     H52377   2.696   7.971   1.064 -0.4371 -0.8582 -2.4793
  397MOL0     H52378   2.689   7.738   0.962  1.2477 -1.6223  1.3471
  397MOL0     H52379   2.558   7.803   1.071  0.0580 -0.2617  4.0049
  397MOL0     H52380   2.651   7.680   1.275  1.9264 -1.2227  0.6925
  397MOL0     H52381   2.759   7.596   1.148  0.2231 -0.3528  2.1595
  397MOL0     H52382   2.456   7.608   1.165  1.2265  1.1374  2.0007
  397MOL0     H52383   2.569   7.529   1.035  3.8685  2.0268  0.2622
  397MOL0     H52384   2.639   7.379   1.227 -0.4147 -0.5832  0.7872
  397MOL0     H52385   2.465   7.376   1.200 -1.8926  2.0224 -1.4883
  397MOL0     H52386   3.377   7.946   1.127  0.6711 -0.3231  0.7450
  397MOL0     H52387   3.614   8.025   1.129  2.0541  2.1019  0.0246
  397MOL0     H52388   3.841   8.582   0.910  2.1949  0.6190 -3.0942
  397MOL0     H52389   4.060   8.662   0.900  1.4817  0.0192  0.3592
  397MOL0     H52390   5.704   8.014   1.714 -0.1460  0.6550  0.6907
  397MOL0     H52391   5.919   7.982   1.802 -0.9781  0.7591 -0.0584
  397MOL0     H52392   6.191   7.733   2.213  0.3087  1.2597 -0.6764
  397MOL0     H52393   6.400   7.674   2.266  0.4254  2.1919 -0.5340
  397MOL0     H52394   6.608   7.556   2.287 -1.5043 -0.3055 -2.1049
  397MOL0     H52395   6.615   7.722   2.272  2.4931  3.7388 -4.4770
  397MOL0     H52396   6.864   7.710   2.182 -0.2218  1.6313  2.5339
  397MOL0     H52397   6.849   7.629   2.338 -1.8357 -0.1069  0.8151
  397MOL0     H52398   6.809   7.497   2.063  1.2807 -0.2376 -0.5504
  397MOL0     H52399   6.799   7.414   2.217 -1.9552  0.6778  0.0212
  397MOL0     H52400   7.015   7.357   2.109  1.0806  0.3154 -2.1018
  397MOL0     H52401   7.070   7.522   2.146 -1.5622  2.1173  3.1751
  397MOL0     H52402   7.090   7.327   2.518  0.2224  1.8245  0.5379
  397MOL0     H52403   6.497   7.577   1.861 -0.4031 -0.3781 -0.7821
  397MOL0     H52404   6.259   7.642   1.799 -0.6433  0.5191  0.1353
  398MOL0     O52405   6.702   4.549   5.859  0.3711 -0.6117  0.5845
  398MOL0     C52406   6.744   4.535   5.741  1.5991  0.4712 -0.8063
  398MOL0     O52407   6.687   4.600   5.629  0.3943 -0.7658 -0.0851
  398MOL0     C52408   6.556   4.648   5.634 -0.2302 -0.2852  0.2725
  398MOL0     C52409   6.529   4.766   5.564 -0.0585 -0.5674  0.1688
  398MOL0     C52410   6.404   4.829   5.570 -0.4284  0.3256 -0.8625
  398MOL0     C52411   6.308   4.775   5.644  0.7663  0.1827 -0.3238
  398MOL0     O52412   6.194   4.856   5.676 -1.6678  0.0498 -0.2059
  398MOL0     C52413   6.068   4.796   5.659  0.3115 -0.6289  0.0074
  398MOL0     C52414   5.971   4.898   5.606  0.6450  0.3743  0.0493
  398MOL0     C52415   5.879   4.976   5.714 -0.9013  0.5476 -0.1194
  398MOL0     C52416   5.798   5.084   5.653 -0.3353 -0.4685  0.9300
  398MOL0     C52417   5.722   5.177   5.752 -0.2253 -0.0574  0.0172
  398MOL0     C52418   5.624   5.268   5.673 -0.4902 -0.0220 -0.0161
  398MOL0     C52419   5.543   5.351   5.770 -0.1629 -0.6870  0.1777
  398MOL0     C52420   5.487   5.469   5.685 -0.2043  0.3950 -0.6195
  398MOL0     N52421   5.392   5.538   5.766 -0.3152 -0.4427 -0.6696
  398MOL0     C52422   5.406   5.658   5.830  0.8572 -0.6102 -0.4986
  398MOL0     C52423   5.278   5.691   5.860  0.1821 -0.1050 -0.2936
  398MOL0     C52424   5.237   5.818   5.943 -0.4832 -0.2008  0.7142
  398MOL0     C52425   5.099   5.821   6.014 -0.3460 -0.1274  0.2468
  398MOL0     C52426   5.089   5.957   6.075  0.5051  0.2973 -0.1413
  398MOL0     C52427   4.956   5.958   6.145 -0.5281  0.0446  0.1706
  398MOL0     O52428   4.951   6.085   6.212  0.1497  0.1419  0.1111
  398MOL0     C52429   4.831   6.130   6.248 -0.5923  0.1934  0.4207
  398MOL0     C52430   4.716   6.058   6.252 -0.1972  0.0820 -0.4402
  398MOL0     C52431   4.597   6.116   6.281 -0.2133 -0.0878 -0.8876
  398MOL0     C52432   4.585   6.253   6.318 -0.1097  0.4391  0.4288
  398MOL0     C52433   4.453   6.313   6.335  0.1475  0.5965  0.4986
  398MOL0     O52434   4.347   6.248   6.276  0.6561  0.2211 -0.8073
  398MOL0     C52435   4.221   6.307   6.283  1.0480 -0.4990 -0.3933
  398MOL0     C52436   4.145   6.296   6.401 -0.8452 -0.3441  0.6032
  398MOL0     C52437   4.014   6.352   6.404  0.1063 -0.4611 -0.6542
  398MOL0     C52438   3.947   6.404   6.296 -0.2653 -0.3235  0.9529
  398MOL0     O52439   3.812   6.424   6.287 -0.0347 -0.1953 -1.1535
  398MOL0     C52440   3.735   6.382   6.401  0.4514  0.2017 -0.5660
  398MOL0     C52441   3.594   6.438   6.365 -0.2156  0.0947  0.1032
  398MOL0     C52442   3.518   6.406   6.489  0.4414 -1.0200 -0.5258
  398MOL0     C52443   3.369   6.442   6.474 -0.7518  0.4924  0.2380
  398MOL0     C52444   3.297   6.322   6.424  0.9417  0.9522 -0.2923
  398MOL0     C52445   3.148   6.370   6.409  0.3680 -0.2556  0.2103
  398MOL0     C52446   3.061   6.263   6.357  0.2454 -0.1512 -0.5191
  398MOL0     C52447   2.909   6.298   6.365  0.4300 -0.5348 -0.5987
  398MOL0    Cl52448   2.844   6.247   6.531 -0.0709 -0.3322 -0.4303
  398MOL0     C52449   4.024   6.416   6.180  0.0877 -0.9924  0.5029
  398MOL0     C52450   4.159   6.369   6.181  0.3018 -0.3592  0.4082
  398MOL0     O52451   4.450   6.413   6.408  0.0297 -0.0851  0.2334
  398MOL0     C52452   4.702   6.328   6.309  0.8095 -0.2559  0.5251
  398MOL0     C52453   4.826   6.263   6.276 -0.3371 -0.0640  0.3289
  398MOL0     N52454   5.191   5.599   5.809  0.4347 -0.5248 -0.7338
  398MOL0     N52455   5.256   5.501   5.764 -0.5810 -0.4903  0.2708
  398MOL0     C52456   6.323   4.651   5.697 -0.0715  0.3186 -0.3527
  398MOL0     C52457   6.448   4.586   5.699 -0.0683  0.1737 -0.6949
  398MOL0     C52458   6.871   4.458   5.721  0.5671  0.5849  1.6484
  398MOL0     C52459   6.970   4.453   5.814  0.1292 -0.7956 -1.0281
  398MOL0     C52460   7.100   4.400   5.788 -0.6389 -0.4407 -0.0569
  398MOL0     C52461   7.139   4.349   5.663 -0.0862  0.4975  0.4010
  398MOL0     O52462   7.263   4.291   5.641 -0.2790  0.0670 -0.1555
  398MOL0     C52463   7.277   4.199   5.533  0.9574  0.5406  1.1697
  398MOL0     C52464   7.423   4.158   5.526 -0.7426 -0.8547 -0.0659
  398MOL0     C52465   7.461   4.053   5.408  0.0293 -0.5686 -0.6301
  398MOL0     C52466   7.605   4.023   5.408 -0.1037  0.0011  0.1561
  398MOL0     C52467   7.640   3.953   5.290 -0.0565  0.2477  0.0849
  398MOL0     C52468   7.662   3.915   5.181 -0.0138  0.0109 -0.6366
  398MOL0     C52469   7.035   4.355   5.563  0.0453  0.3499  0.1561
  398MOL0     C52470   6.903   4.407   5.591 -0.5938  0.4265  0.3446
  398MOL0     H52471   6.601   4.816   5.500 -1.5850  2.0151  0.3245
  398MOL0     H52472   6.403   4.932   5.534 -3.7161  0.7818  0.1490
  398MOL0     H52473   6.027   4.764   5.755  1.4976  0.8034  1.0398
  398MOL0     H52474   6.071   4.720   5.581 -1.2235  0.9702 -1.7351
  398MOL0     H52475   5.893   4.849   5.547 -0.3652  1.3138  0.5546
  398MOL0     H52476   6.018   4.978   5.549  1.1454  0.3011  0.3572
  398MOL0     H52477   5.956   5.015   5.780  0.4590  0.9836 -1.8871
  398MOL0     H52478   5.812   4.901   5.758 -0.7396 -0.9785 -2.3139
  398MOL0     H52479   5.867   5.144   5.593 -2.0651  0.6879 -0.0040
  398MOL0     H52480   5.729   5.032   5.586  1.0117  2.2730 -2.9555
  398MOL0     H52481   5.792   5.247   5.799  1.5542 -0.3828 -1.9979
  398MOL0     H52482   5.683   5.109   5.828  2.8519 -0.6827  1.1991
  398MOL0     H52483   5.560   5.200   5.615 -0.7615 -1.0632  1.4334
  398MOL0     H52484   5.674   5.334   5.603  0.9060 -3.1825 -2.2564
  398MOL0     H52485   5.465   5.288   5.813  0.7750 -1.8815  0.1723
  398MOL0     H52486   5.598   5.402   5.850 -0.3176 -0.2261 -0.0021
  398MOL0     H52487   5.434   5.425   5.600 -1.5871 -0.3451  0.5711
  398MOL0     H52488   5.556   5.547   5.652 -0.9487  1.0418 -0.6772
  398MOL0     H52489   5.497   5.714   5.848 -0.3564  1.2610 -0.0322
  398MOL0     H52490   5.251   5.901   5.874 -0.4345 -0.8783 -0.1095
  398MOL0     H52491   5.309   5.837   6.023  2.4146 -3.2930 -0.9168
  398MOL0     H52492   5.091   5.745   6.093  3.2105  0.1184  0.9790
  398MOL0     H52493   5.020   5.795   5.942 -1.0381  1.0557  0.5441
  398MOL0     H52494   5.166   5.981   6.150  0.3347  1.8805 -0.4356
  398MOL0     H52495   5.092   6.038   6.002  4.3393 -1.6101 -2.4182
  398MOL0     H52496   4.940   5.873   6.212  0.8092  0.8529  1.5789
  398MOL0     H52497   4.882   5.959   6.064 -2.9879  2.1971  2.2934
  398MOL0     H52498   4.718   5.952   6.230 -1.0229 -0.2409  0.9326
  398MOL0     H52499   4.508   6.054   6.274 -0.3703  0.2956 -2.6148
  398MOL0     H52500   4.185   6.243   6.487 -1.8202 -1.3677  0.4572
  398MOL0     H52501   3.966   6.339   6.500  0.3618 -2.2073 -0.7228
  398MOL0     H52502   3.761   6.432   6.494 -2.2961 -0.8646  0.8570
  398MOL0     H52503   3.730   6.273   6.405 -6.3776  0.1320 -0.6855
  398MOL0     H52504   3.560   6.378   6.280  0.0562 -1.0087  0.7564
  398MOL0     H52505   3.594   6.545   6.341  1.2131  0.3638  1.1729
  398MOL0     H52506   3.561   6.468   6.569 -0.0182 -0.5892 -0.6030
  398MOL0     H52507   3.535   6.304   6.523  2.7129 -0.5018  0.0230
  398MOL0     H52508   3.324   6.471   6.569 -1.5231 -0.8955  0.3105
  398MOL0     H52509   3.360   6.522   6.400  0.5078 -1.1194 -1.7959
  398MOL0     H52510   3.306   6.244   6.501 -0.3110  1.2875  0.2218
  398MOL0     H52511   3.329   6.287   6.326 -1.8794 -3.1873  0.0039
  398MOL0     H52512   3.148   6.454   6.339  0.2377  1.9086  2.6204
  398MOL0     H52513   3.105   6.406   6.504  0.5810 -0.2423  0.3043
  398MOL0     H52514   3.103   6.250   6.257  3.2966 -1.7126  0.8356
  398MOL0     H52515   3.075   6.171   6.414 -1.1982 -1.9096 -2.8157
  398MOL0     H52516   2.840   6.256   6.292 -2.1355 -0.7335  1.7955
  398MOL0     H52517   2.906   6.406   6.350  3.7811 -0.5030 -1.9898
  398MOL0     H52518   3.991   6.468   6.091  0.8731  0.8437  1.2451
  398MOL0     H52519   4.218   6.367   6.090 -1.0861 -1.2805 -0.5010
  398MOL0     H52520   4.711   6.432   6.338  1.4595  0.2055 -1.2389
  398MOL0     H52521   4.922   6.313   6.280 -0.7135  0.6889  0.0882
  398MOL0     H52522   6.241   4.609   5.754  1.4254 -1.6946  0.4106
  398MOL0     H52523   6.451   4.488   5.745  2.2658  0.6879  0.4499
  398MOL0     H52524   6.950   4.477   5.918  1.4708  0.9621 -1.1349
  398MOL0     H52525   7.172   4.410   5.869 -1.7899  0.6119  0.8718
  398MOL0     H52526   7.251   4.241   5.435 -0.9562 -0.3514  1.2456
  398MOL0     H52527   7.214   4.112   5.552 -1.3899  1.5633 -1.2691
  398MOL0     H52528   7.479   4.246   5.492  0.3869 -2.4590 -2.6983
  398MOL0     H52529   7.463   4.116   5.619  3.3608 -0.1295 -1.3042
  398MOL0     H52530   7.414   4.090   5.317 -0.8057  1.3157  0.5069
  398MOL0     H52531   7.419   3.955   5.431  0.3899 -0.3028  1.3577
  398MOL0     H52532   7.654   4.120   5.399 -0.2968 -0.1026 -2.6995
  398MOL0     H52533   7.649   3.971   5.494  0.7449 -0.7326 -0.7101
  398MOL0     H52534   7.691   3.874   5.086  0.6042  2.9928 -1.8407
  398MOL0     H52535   7.048   4.313   5.464 -1.0725 -0.6161  0.4052
  398MOL0     H52536   6.832   4.420   5.510 -1.7234 -2.9741  0.6269
  399MOL0     O52537   8.975   5.436   9.114 -0.3800  0.1633 -0.1151
  399MOL0     C52538   9.084   5.392   9.083  0.3870 -0.7329  0.4323
  399MOL0     O52539   9.118   5.263   9.084  0.0171 -0.3484 -0.6213
  399MOL0     C52540   9.016   5.175   9.101  0.5808 -0.4977 -0.8886
  399MOL0     C52541   8.977   5.152   9.232  0.4194  0.0783  0.2107
  399MOL0     C52542   8.880   5.049   9.253 -0.5344  0.2465 -0.6564
  399MOL0     C52543   8.824   4.974   9.147 -0.8205  0.0601  0.3074
  399MOL0     O52544   8.729   4.882   9.157 -0.3269  0.0748 -0.4447
  399MOL0     C52545   8.688   4.832   9.291 -0.0917 -0.7377 -0.6836
  399MOL0     C52546   8.766   4.697   9.319 -0.3851  0.0793 -0.6782
  399MOL0     C52547   8.702   4.594   9.418  0.1977 -0.7921 -0.0394
  399MOL0     C52548   8.773   4.466   9.431  0.2396  0.3293  0.0393
  399MOL0     C52549   8.707   4.384   9.542  0.2339 -0.1894  0.3914
  399MOL0     C52550   8.774   4.255   9.585  0.3357 -0.2804  1.0673
  399MOL0     C52551   8.924   4.246   9.601  0.2357  0.0831  0.5657
  399MOL0     C52552   8.983   4.357   9.694  0.7746 -0.1949 -0.3291
  399MOL0     N52553   9.115   4.330   9.744 -1.2015 -0.2132 -0.5529
  399MOL0     C52554   9.232   4.331   9.673 -0.2669  0.4979  0.5975
  399MOL0     C52555   9.321   4.302   9.765 -0.6789 -0.1938 -0.2828
  399MOL0     C52556   9.471   4.281   9.739  0.4155 -0.1290 -0.1166
  399MOL0     C52557   9.566   4.321   9.857  0.0926  0.1174  1.0022
  399MOL0     C52558   9.711   4.291   9.831 -0.0593  0.5400 -0.5908
  399MOL0     C52559   9.809   4.319   9.943  0.1940  0.0395  0.4914
  399MOL0     O52560   9.934   4.262   9.913 -0.8625 -0.0322  0.5258
  399MOL0     C52561  10.049   4.339   9.941 -0.3945  0.4878  0.5523
  399MOL0     C52562  10.064   4.428  10.044 -0.0093  0.6456  0.3028
  399MOL0     C52563  10.187   4.494  10.068 -0.2935  0.1403  0.1160
  399MOL0     C52564  10.295   4.486   9.980 -0.5868 -0.4728  0.2670
  399MOL0     C52565  10.422   4.559   9.987  0.0225  0.5641 -0.2398
  399MOL0     O52566  10.525   4.527   9.899 -0.2094  0.2932 -0.0918
  399MOL0     C52567  10.647   4.580   9.927  0.3268  0.0511 -0.6018
  399MOL0     C52568  10.701   4.660   9.828  0.6369 -0.8265  0.4073
  399MOL0     C52569  10.829   4.707   9.839  0.5432 -0.2132  0.8700
  399MOL0     C52570  10.916   4.669   9.941  0.8793  0.4094 -0.1712
  399MOL0     O52571  11.044   4.695   9.953  0.0760  0.3061 -0.0559
  399MOL0     C52572  11.131   4.654   9.845  0.3713  0.1159  0.3214
  399MOL0     C52573  11.280   4.682   9.879  0.5162  0.2163  0.0607
  399MOL0     C52574  11.397   4.643   9.782 -0.3937 -0.1844  0.3854
  399MOL0     C52575  11.522   4.710   9.830  0.2849 -0.4551 -0.1204
  399MOL0     C52576  11.644   4.612   9.817  0.0142  0.9499 -0.4011
  399MOL0     C52577  11.779   4.667   9.883  0.4505  0.3117  0.0787
  399MOL0     C52578  11.852   4.772   9.805  0.0800  0.9341  0.0848
  399MOL0     C52579  11.959   4.836   9.891  0.1008  0.6681  0.4914
  399MOL0    Cl52580  12.098   4.722   9.883 -0.0929  0.3727  0.2547
  399MOL0     C52581  10.849   4.602  10.049 -0.6500  0.0290 -0.3827
  399MOL0     C52582  10.718   4.557  10.041 -0.3570 -0.6370 -0.0387
  399MOL0     O52583  10.440   4.640  10.080  0.5522 -0.1348  0.6975
  399MOL0     C52584  10.278   4.398   9.870  0.5367 -0.0707  0.5403
  399MOL0     C52585  10.162   4.323   9.857 -0.2813  0.9685 -0.7994
  399MOL0     N52586   9.263   4.301   9.892 -0.4964  0.2390 -0.3007
  399MOL0     N52587   9.140   4.318   9.878 -0.1025  0.2649 -0.2704
  399MOL0     C52588   8.861   5.006   9.015 -0.2573 -1.2855  0.0996
  399MOL0     C52589   8.956   5.110   8.991 -0.4183  0.0233  0.4177
  399MOL0     C52590   9.190   5.489   9.055 -0.2920  0.0009  0.2983
  399MOL0     C52591   9.162   5.624   9.033 -0.3712 -0.2047  0.3517
  399MOL0     C52592   9.264   5.717   9.008 -0.1047  0.3369 -0.0446
  399MOL0     C52593   9.398   5.667   9.004 -0.7500  0.5531 -0.8060
  399MOL0     O52594   9.519   5.739   8.984  0.6654  0.6819 -0.4242
  399MOL0     C52595   9.511   5.880   8.973  0.3999 -0.4589 -0.7412
  399MOL0     C52596   9.516   5.953   9.109  0.6547 -0.4169 -0.0598
  399MOL0     C52597   9.551   6.102   9.088 -0.4593 -0.5536 -0.1816
  399MOL0     C52598   9.707   6.123   9.054  0.5791 -0.2825 -0.5212
  399MOL0     C52599   9.799   6.068   9.155  0.1588 -0.0823  0.1368
  399MOL0     C52600   9.886   6.021   9.227  0.1090  0.0467 -0.3806
  399MOL0     C52601   9.424   5.523   9.015  0.3918 -0.5432  0.4445
  399MOL0     C52602   9.323   5.435   9.042  0.1247  0.3197 -0.3797
  399MOL0     H52603   9.015   5.202   9.320  0.5928  1.1134 -0.4368
  399MOL0     H52604   8.855   5.023   9.355 -1.3937 -0.0520 -0.9391
  399MOL0     H52605   8.584   4.806   9.268 -0.2872  1.2174 -2.2684
  399MOL0     H52606   8.709   4.900   9.374  0.3416 -1.4897 -0.1672
  399MOL0     H52607   8.867   4.725   9.349 -0.2470 -1.8515  0.8458
  399MOL0     H52608   8.777   4.642   9.225 -1.5321 -1.8392  0.2534
  399MOL0     H52609   8.602   4.587   9.373  0.5186  2.8606 -1.7419
  399MOL0     H52610   8.684   4.629   9.520 -3.0871 -2.3095  0.0402
  399MOL0     H52611   8.776   4.410   9.337  1.8761 -1.1651  0.9188
  399MOL0     H52612   8.878   4.476   9.458  0.0886  0.2183  0.6962
  399MOL0     H52613   8.605   4.359   9.512 -0.6945  2.9600  0.5441
  399MOL0     H52614   8.704   4.452   9.628  6.5083  0.7384  0.3847
  399MOL0     H52615   8.733   4.182   9.514 -0.7749  1.7125 -0.4545
  399MOL0     H52616   8.737   4.224   9.683 -0.5783 -1.0837  0.4912
  399MOL0     H52617   8.949   4.150   9.646 -0.5269  0.7796  2.6194
  399MOL0     H52618   8.975   4.258   9.505  2.4857 -0.7479  1.5811
  399MOL0     H52619   8.916   4.375   9.779  1.7473 -0.9436  0.6223
  399MOL0     H52620   8.978   4.450   9.638  0.2167  0.2621  0.4508
  399MOL0     H52621   9.235   4.345   9.566 -2.8695 -1.4360  0.2037
  399MOL0     H52622   9.501   4.326   9.644  1.5795 -0.6084  0.0150
  399MOL0     H52623   9.486   4.173   9.723  2.2812  0.2987 -1.6566
  399MOL0     H52624   9.535   4.264   9.944 -0.1440  1.0894  1.5661
  399MOL0     H52625   9.557   4.423   9.895 -2.7746 -0.7988  3.0963
  399MOL0     H52626   9.713   4.182   9.821  0.9924  0.6707 -1.9835
  399MOL0     H52627   9.735   4.345   9.739  0.1527  0.4487 -0.5900
  399MOL0     H52628   9.776   4.280  10.040  1.1445 -2.7968 -0.2350
  399MOL0     H52629   9.813   4.426   9.967  0.7571  0.0683  0.2727
  399MOL0     H52630   9.986   4.444  10.118 -0.4765  0.2982 -0.1114
  399MOL0     H52631  10.201   4.550  10.160 -1.0908  1.1328 -0.3507
  399MOL0     H52632  10.643   4.683   9.739  0.8325  1.0425  0.7338
  399MOL0     H52633  10.851   4.786   9.768 -2.2212  1.2875  1.5577
  399MOL0     H52634  11.095   4.701   9.753 -0.4481 -0.8747  0.1269
  399MOL0     H52635  11.127   4.547   9.824  0.5809  0.1263  0.2233
  399MOL0     H52636  11.301   4.631   9.974  0.3052 -1.6645 -0.8593
  399MOL0     H52637  11.286   4.792   9.883 -0.8272  0.3399 -0.6104
  399MOL0     H52638  11.393   4.677   9.678  1.9097 -3.4998 -0.9397
  399MOL0     H52639  11.405   4.534   9.774 -0.9793 -0.1399 -0.9942
  399MOL0     H52640  11.549   4.806   9.785  1.4619  1.0187  3.3797
  399MOL0     H52641  11.496   4.726   9.935 -1.1562 -0.2451 -0.4921
  399MOL0     H52642  11.671   4.595   9.712  0.0104  3.4472 -0.8722
  399MOL0     H52643  11.620   4.523   9.875 -1.1050  1.7579  0.4040
  399MOL0     H52644  11.843   4.579   9.891  0.3639  0.0077 -1.9519
  399MOL0     H52645  11.764   4.703   9.985 -0.8740  1.3713 -0.4489
  399MOL0     H52646  11.891   4.731   9.712  2.5096  1.1205  0.9446
  399MOL0     H52647  11.783   4.852   9.776  0.3323  0.7735 -0.9847
  399MOL0     H52648  11.921   4.860   9.990  1.0247  2.6330  0.4155
  399MOL0     H52649  11.976   4.934   9.844 -4.4434  0.9527 -1.0255
  399MOL0     H52650  10.912   4.588  10.136 -0.9962  1.6112  0.1610
  399MOL0     H52651  10.674   4.493  10.118 -0.9795  0.6588  0.7076
  399MOL0     H52652  10.353   4.390   9.792  1.0377  1.8078  0.7845
  399MOL0     H52653  10.150   4.254   9.774  1.4041  2.9220 -2.7895
  399MOL0     H52654   8.822   4.955   8.928  1.0955 -1.7085 -0.2790
  399MOL0     H52655   8.995   5.141   8.895  1.3562 -1.6860  0.5172
  399MOL0     H52656   9.058   5.657   9.033 -0.6327 -0.9719  1.2706
  399MOL0     H52657   9.238   5.821   8.994 -0.7838  0.5698  2.3917
  399MOL0     H52658   9.419   5.910   8.922  1.2639  1.1455 -1.3988
  399MOL0     H52659   9.586   5.914   8.901  1.0609 -0.3578 -0.0106
  399MOL0     H52660   9.416   5.946   9.154 -0.1741 -0.8275 -1.8526
  399MOL0     H52661   9.597   5.917   9.173  0.4600 -1.8342 -0.5677
  399MOL0     H52662   9.539   6.156   9.183  3.5227  0.4082 -0.0570
  399MOL0     H52663   9.498   6.161   9.013  4.4603  2.0295 -2.0358
  399MOL0     H52664   9.744   6.075   8.962  4.4971 -0.3315  0.9042
  399MOL0     H52665   9.719   6.230   9.038  0.9176 -0.3787 -0.9201
  399MOL0     H52666   9.960   5.983   9.294  0.0615  0.5076 -0.0584
  399MOL0     H52667   9.521   5.474   9.011 -0.7307 -2.8047 -1.7345
  399MOL0     H52668   9.347   5.330   9.032  0.6397  0.6590 -3.6929
  400MOL0     O52669   5.293   6.882   2.881  0.2331  0.3116 -1.0330
  400MOL0     C52670   5.281   6.763   2.846  0.1713  0.0151 -0.0757
  400MOL0     O52671   5.169   6.689   2.865  0.2987 -0.1226 -0.5667
  400MOL0     C52672   5.068   6.726   2.952 -0.2816 -0.2105 -0.7473
  400MOL0     C52673   4.941   6.685   2.918  0.3313 -0.1651  1.0644
  400MOL0     C52674   4.833   6.721   3.001  0.4359  0.6130 -0.3523
  400MOL0     C52675   4.850   6.801   3.114 -0.6432 -0.2266  0.1014
  400MOL0     O52676   4.737   6.838   3.178 -0.3925 -0.0907  0.5055
  400MOL0     C52677   4.728   6.930   3.284 -0.5819  0.5976  0.0240
  400MOL0     C52678   4.589   6.972   3.322 -0.3542  1.0596 -0.1849
  400MOL0     C52679   4.528   6.866   3.418 -0.6236 -0.4334 -0.1199
  400MOL0     C52680   4.392   6.905   3.451  0.6520 -0.0432 -0.5715
  400MOL0     C52681   4.351   6.812   3.568  0.4474 -0.6000  0.5165
  400MOL0     C52682   4.195   6.802   3.557 -0.5610  0.1647 -0.0387
  400MOL0     C52683   4.144   6.725   3.686  0.4386  0.0377 -0.6494
  400MOL0     C52684   3.987   6.678   3.662 -0.3521 -0.0419 -0.1621
  400MOL0     N52685   3.889   6.785   3.646 -0.0943 -0.3324  0.6691
  400MOL0     C52686   3.849   6.883   3.739 -0.8057  0.8383 -0.2974
  400MOL0     C52687   3.805   6.990   3.672  0.0770  0.6462 -0.3220
  400MOL0     C52688   3.749   7.120   3.715  0.0922 -0.5442  0.4824
  400MOL0     C52689   3.586   7.137   3.726  0.0221  0.2019  0.8806
  400MOL0     C52690   3.530   7.162   3.587 -0.2122  0.4149  0.2610
  400MOL0     C52691   3.377   7.155   3.588 -0.0726 -0.0933  0.3225
  400MOL0     O52692   3.304   7.255   3.519  0.1129  0.1445  0.0303
  400MOL0     C52693   3.172   7.259   3.548 -0.1955 -0.8494 -0.1217
  400MOL0     C52694   3.096   7.147   3.544 -0.3428  0.1315  1.3638
  400MOL0     C52695   2.967   7.156   3.597  0.4298 -0.3070 -0.0386
  400MOL0     C52696   2.909   7.280   3.642 -0.5670  0.4666 -0.5398
  400MOL0     C52697   2.776   7.274   3.696  0.4231 -0.2096  0.7437
  400MOL0     O52698   2.712   7.156   3.693  0.1787  0.2228  0.1361
  400MOL0     C52699   2.573   7.144   3.731  0.5798 -0.6678 -0.6650
  400MOL0     C52700   2.477   7.232   3.676  0.4360 -0.0787 -0.1807
  400MOL0     C52701   2.343   7.208   3.700 -0.4074 -0.2471 -0.4227
  400MOL0     C52702   2.299   7.105   3.777  1.1409  1.3416 -0.2846
  400MOL0     O52703   2.163   7.095   3.787  0.1491  0.2586  0.4184
  400MOL0     C52704   2.113   6.963   3.747  0.7271  0.0445 -1.0851
  400MOL0     C52705   1.974   6.954   3.800  0.4953  0.8629  0.6925
  400MOL0     C52706   1.901   6.821   3.779 -0.2434 -0.4664  0.7609
  400MOL0     C52707   1.752   6.829   3.797 -0.2208  0.2245 -0.0628
  400MOL0     C52708   1.680   6.849   3.658 -0.3099 -0.0568 -0.7792
  400MOL0     C52709   1.533   6.840   3.676  1.1501  0.5323  0.7650
  400MOL0     C52710   1.469   6.976   3.709  0.1486 -0.3101 -0.5581
  400MOL0     C52711   1.446   7.076   3.582  0.2944  0.4615 -0.1587
  400MOL0    Cl52712   1.364   6.986   3.446  0.3764 -0.3119 -0.0920
  400MOL0     C52713   2.396   7.020   3.841 -0.4922 -0.4524 -0.0797
  400MOL0     C52714   2.537   7.039   3.817  0.5956  0.3103 -0.1526
  400MOL0     O52715   2.730   7.377   3.736 -0.3906  0.1356  0.6447
  400MOL0     C52716   2.987   7.392   3.622 -1.1387  0.6782  0.1194
  400MOL0     C52717   3.121   7.386   3.579 -0.8503  0.3603  0.4485
  400MOL0     N52718   3.800   6.949   3.546 -0.2928  0.0376 -0.0166
  400MOL0     N52719   3.847   6.830   3.530  0.0548 -0.4893 -0.1835
  400MOL0     C52720   4.984   6.834   3.144  0.9533 -1.0265  0.2189
  400MOL0     C52721   5.088   6.805   3.065 -2.2447  0.7215  0.5537
  400MOL0     C52722   5.408   6.704   2.793 -0.2615 -0.1316 -0.0806
  400MOL0     C52723   5.507   6.787   2.741  0.0751 -0.0590  0.1123
  400MOL0     C52724   5.624   6.729   2.690  0.5757  0.9915 -0.1828
  400MOL0     C52725   5.645   6.587   2.708 -0.0528  0.5267  0.1012
  400MOL0     O52726   5.759   6.514   2.675  0.3067  0.3382  0.7146
  400MOL0     C52727   5.848   6.584   2.586 -0.9653 -0.3176  0.4387
  400MOL0     C52728   5.946   6.483   2.543 -0.4326  0.0751  0.4083
  400MOL0     C52729   6.056   6.553   2.451  0.1280 -0.0024  0.1555
  400MOL0     C52730   6.150   6.457   2.376 -0.1479  0.3873  0.2942
  400MOL0     C52731   6.251   6.531   2.299  0.5479 -0.1915 -0.9590
  400MOL0     C52732   6.334   6.602   2.232  1.2050  0.3631  0.0450
  400MOL0     C52733   5.543   6.508   2.759 -0.1054  0.4531 -0.0090
  400MOL0     C52734   5.427   6.563   2.815 -1.1957 -1.1470 -0.5717
  400MOL0     H52735   4.912   6.628   2.830 -2.7044  1.5861  0.8035
  400MOL0     H52736   4.733   6.698   2.967  0.8852 -2.9675  0.3289
  400MOL0     H52737   4.783   7.020   3.257  0.8239 -0.3559 -0.4032
  400MOL0     H52738   4.770   6.880   3.372  0.1510  1.4072  0.1525
  400MOL0     H52739   4.535   6.975   3.227 -1.3770  4.2427  0.3671
  400MOL0     H52740   4.601   7.065   3.378  1.0217 -0.5386  2.3756
  400MOL0     H52741   4.586   6.867   3.511  0.5381  3.0378 -0.7600
  400MOL0     H52742   4.547   6.767   3.375 -0.3517 -0.0691 -0.8505
  400MOL0     H52743   4.384   7.011   3.477 -1.9509 -0.7263  1.8960
  400MOL0     H52744   4.337   6.892   3.358 -0.6898 -0.0241  0.1940
  400MOL0     H52745   4.374   6.854   3.667  0.6836 -1.1595  0.7009
  400MOL0     H52746   4.399   6.714   3.568 -1.2720 -1.4693  0.6754
  400MOL0     H52747   4.158   6.747   3.470 -2.2424  0.3735  0.5115
  400MOL0     H52748   4.156   6.904   3.560  0.8278  0.7349 -0.5672
  400MOL0     H52749   4.205   6.638   3.712  1.5748  0.8778 -0.4030
  400MOL0     H52750   4.143   6.790   3.774 -1.1210 -1.1652  0.2679
  400MOL0     H52751   3.957   6.621   3.750  0.8675  1.9363  1.6562
  400MOL0     H52752   3.987   6.614   3.574  0.1285  0.9149 -0.8823
  400MOL0     H52753   3.874   6.875   3.844  0.8694 -3.2376 -0.8455
  400MOL0     H52754   3.788   7.204   3.656 -1.5397  1.8779  2.6169
  400MOL0     H52755   3.799   7.139   3.811 -0.3467 -0.0086  0.6085
  400MOL0     H52756   3.570   7.223   3.792 -2.3946 -1.1083  2.1452
  400MOL0     H52757   3.544   7.042   3.761  3.8183 -1.7715  0.6487
  400MOL0     H52758   3.551   7.264   3.555 -4.1956  1.2671 -0.2085
  400MOL0     H52759   3.576   7.098   3.511 -1.7083  1.7073 -1.8408
  400MOL0     H52760   3.358   7.161   3.696 -0.7092  0.4767  0.1860
  400MOL0     H52761   3.355   7.053   3.553  2.2473 -0.5301 -0.0047
  400MOL0     H52762   3.144   7.054   3.517 -1.1609 -0.7982  2.9881
  400MOL0     H52763   2.907   7.066   3.601  0.6542 -0.4896 -0.6890
  400MOL0     H52764   2.507   7.308   3.606 -0.9377 -0.4406 -1.2201
  400MOL0     H52765   2.266   7.271   3.656 -1.4044  0.5863  2.3326
  400MOL0     H52766   2.169   6.885   3.800  0.6386  2.1529  2.3916
  400MOL0     H52767   2.116   6.961   3.637  1.6002  3.3628 -1.2166
  400MOL0     H52768   1.920   7.034   3.750  0.3396 -1.3214 -3.0488
  400MOL0     H52769   1.985   6.982   3.905 -1.2477 -1.9253  1.7353
  400MOL0     H52770   1.944   6.748   3.848 -2.9284 -3.0853 -0.0812
  400MOL0     H52771   1.920   6.794   3.674 -3.6002  0.1689 -0.1375
  400MOL0     H52772   1.702   6.739   3.833 -2.6949  1.3532 -0.4347
  400MOL0     H52773   1.729   6.905   3.871  2.2533  0.9118  0.0858
  400MOL0     H52774   1.705   6.773   3.584 -0.4403 -2.2471  1.3228
  400MOL0     H52775   1.722   6.943   3.621  2.0669 -0.5068  0.5363
  400MOL0     H52776   1.510   6.769   3.756 -1.8497 -2.1896 -2.1928
  400MOL0     H52777   1.489   6.807   3.582  0.5331 -0.2585  1.3151
  400MOL0     H52778   1.372   6.963   3.757  0.4644  1.3734  0.6089
  400MOL0     H52779   1.525   7.032   3.784  1.1835  1.1293 -2.3269
  400MOL0     H52780   1.546   7.107   3.551  0.1109  1.2254 -0.0206
  400MOL0     H52781   1.390   7.166   3.612 -3.4339 -0.5339 -3.3298
  400MOL0     H52782   2.366   6.934   3.898 -2.9854  1.1624  1.2256
  400MOL0     H52783   2.614   6.966   3.839 -1.0467 -1.6622 -0.6140
  400MOL0     H52784   2.958   7.487   3.665  2.3565  1.2592  1.4989
  400MOL0     H52785   3.186   7.473   3.575  2.0335 -1.5542  1.9965
  400MOL0     H52786   4.992   6.889   3.237  0.8032 -2.0894  0.8765
  400MOL0     H52787   5.187   6.829   3.103 -2.1900  2.3070 -0.5279
  400MOL0     H52788   5.493   6.895   2.734  0.1611 -0.1436 -2.0356
  400MOL0     H52789   5.696   6.799   2.649  0.8351  2.2510  2.2131
  400MOL0     H52790   5.912   6.664   2.625  1.5848  1.0190 -5.4311
  400MOL0     H52791   5.791   6.625   2.503 -1.0368 -1.7604 -0.2583
  400MOL0     H52792   5.994   6.442   2.632 -0.1324 -0.1532  0.1417
  400MOL0     H52793   5.893   6.410   2.481 -1.3573 -0.4706  1.8182
  400MOL0     H52794   6.120   6.609   2.520  0.6034  0.8021 -0.9157
  400MOL0     H52795   6.008   6.622   2.381 -0.7410  1.3669  2.0148
  400MOL0     H52796   6.197   6.389   2.448  2.5655  0.4116 -1.3380
  400MOL0     H52797   6.093   6.408   2.296  0.4856  2.0555 -1.2103
  400MOL0     H52798   6.392   6.667   2.170 -1.0554  1.9425 -0.5571
  400MOL0     H52799   5.558   6.401   2.760 -3.6002 -0.1780 -1.3072
  400MOL0     H52800   5.345   6.507   2.859 -1.3483  0.8586  1.9528
  401MOL0     O52801   4.064  11.092   7.010  0.7112  0.3124 -0.0788
  401MOL0     C52802   4.088  11.083   7.127  0.1440 -0.9675 -1.1403
  401MOL0     O52803   3.988  11.096   7.225 -0.6726  0.1927 -0.1607
  401MOL0     C52804   3.856  11.136   7.203  0.9464 -0.7218 -0.4780
  401MOL0     C52805   3.755  11.081   7.287  0.6536 -0.7721  0.3174
  401MOL0     C52806   3.612  11.098   7.259 -0.8376  0.2012  0.4794
  401MOL0     C52807   3.571  11.179   7.150 -0.4923 -0.6980  0.2269
  401MOL0     O52808   3.440  11.198   7.134  0.5047  0.0941  0.1519
  401MOL0     C52809   3.394  11.215   6.997 -0.4793 -0.2877  0.5912
  401MOL0     C52810   3.245  11.210   6.998 -0.3959 -1.1637  0.0102
  401MOL0     C52811   3.181  11.331   7.065 -0.5455 -0.4613  0.1803
  401MOL0     C52812   3.032  11.315   7.050  0.3143 -0.6420 -0.6135
  401MOL0     C52813   2.946  11.427   7.111 -0.2676 -0.1274  0.0792
  401MOL0     C52814   2.943  11.554   7.036 -0.0507  0.3335  0.1464
  401MOL0     C52815   2.862  11.652   7.110 -0.0800 -0.3980 -0.3729
  401MOL0     C52816   2.930  11.780   7.164  0.2189 -0.7689  0.4059
  401MOL0     N52817   2.989  11.753   7.303 -0.1031 -0.1496  0.8066
  401MOL0     C52818   3.126  11.725   7.326 -0.0521  0.7567 -0.3977
  401MOL0     C52819   3.143  11.728   7.456  0.9107 -0.4138  0.8326
  401MOL0     C52820   3.267  11.704   7.542  0.4645 -0.1047  0.0694
  401MOL0     C52821   3.360  11.596   7.484  0.0240 -0.6128  0.1756
  401MOL0     C52822   3.468  11.644   7.379  0.1825 -0.4406  0.1854
  401MOL0     C52823   3.575  11.525   7.373 -0.0110 -0.2833 -0.3476
  401MOL0     O52824   3.684  11.577   7.293  0.2083  0.2817 -0.4207
  401MOL0     C52825   3.806  11.530   7.320 -0.3517  0.3739 -0.2725
  401MOL0     C52826   3.842  11.417   7.395  0.2598  0.4586  0.5026
  401MOL0     C52827   3.974  11.378   7.398 -0.2586  0.5775 -0.3261
  401MOL0     C52828   4.082  11.450   7.345 -0.3754 -0.2526 -0.0281
  401MOL0     C52829   4.223  11.416   7.371  0.1739 -0.1080  1.0837
  401MOL0     O52830   4.318  11.491   7.302 -0.2243 -0.1650  0.2256
  401MOL0     C52831   4.457  11.465   7.311 -0.3029  0.0121  0.5776
  401MOL0     C52832   4.558  11.568   7.299  0.0025  0.1115 -0.1696
  401MOL0     C52833   4.687  11.545   7.317  0.4471  0.4629  0.5474
  401MOL0     C52834   4.731  11.414   7.347 -0.4137  0.4222  0.4713
  401MOL0     O52835   4.859  11.380   7.372  0.0679 -0.4410  0.7622
  401MOL0     C52836   4.967  11.469   7.335 -0.7740  0.0826  0.7156
  401MOL0     C52837   5.093  11.389   7.317 -0.5009  0.5717 -0.1875
  401MOL0     C52838   5.153  11.311   7.430 -0.7597 -0.7167 -0.4154
  401MOL0     C52839   5.302  11.285   7.396  0.2198  0.2089  0.6874
  401MOL0     C52840   5.367  11.212   7.507  0.1564  0.0087 -0.4065
  401MOL0     C52841   5.521  11.219   7.482 -0.5380 -0.2900 -0.1009
  401MOL0     C52842   5.573  11.170   7.342  0.0934 -0.2100 -0.3533
  401MOL0     C52843   5.717  11.122   7.345 -0.0114 -0.1106  0.5351
  401MOL0    Cl52844   5.765  11.116   7.170  0.4884 -0.0256 -0.1784
  401MOL0     C52845   4.639  11.306   7.363  0.2514  0.3205  0.1484
  401MOL0     C52846   4.501  11.333   7.333  0.0002  0.6850 -1.1414
  401MOL0     O52847   4.242  11.344   7.467 -0.5850 -0.2546  0.4204
  401MOL0     C52848   4.048  11.565   7.284 -0.0561  0.2976  0.4684
  401MOL0     C52849   3.910  11.609   7.264 -0.6329  0.7144  0.2049
  401MOL0     N52850   3.018  11.747   7.517 -0.2188  0.0063 -0.1481
  401MOL0     N52851   2.927  11.771   7.424 -0.2779  0.2056 -0.4063
  401MOL0     C52852   3.674  11.231   7.068  0.6256 -0.2815 -0.0995
  401MOL0     C52853   3.808  11.209   7.085 -0.6202  0.9618  0.2771
  401MOL0     C52854   4.225  11.049   7.167 -0.1928  0.2348 -0.3109
  401MOL0     C52855   4.259  11.029   7.301 -0.3603 -0.0310 -0.7167
  401MOL0     C52856   4.391  10.990   7.337  0.8301  0.0513 -0.0841
  401MOL0     C52857   4.495  10.986   7.248  1.4388 -0.1249  0.9285
  401MOL0     O52858   4.612  10.945   7.297  0.1332 -0.6368  0.1187
  401MOL0     C52859   4.722  10.900   7.216  0.1982  0.2346  0.3339
  401MOL0     C52860   4.812  11.018   7.197  1.1231  1.1402 -0.5506
  401MOL0     C52861   4.900  11.050   7.324 -0.0989 -0.3484 -0.3550
  401MOL0     C52862   5.010  10.946   7.339 -0.4717 -0.1275 -0.0858
  401MOL0     C52863   5.121  10.968   7.257 -0.1652  0.4155  1.0367
  401MOL0     C52864   5.215  10.985   7.175  0.0098  0.4055 -0.8709
  401MOL0     C52865   4.469  11.021   7.115  0.0755 -0.4199 -0.2073
  401MOL0     C52866   4.331  11.047   7.074 -0.4592 -0.7687 -0.6315
  401MOL0     H52867   3.767  11.025   7.379 -1.1473  0.3188  1.2712
  401MOL0     H52868   3.538  11.056   7.326 -0.6507  3.1678  2.7341
  401MOL0     H52869   3.422  11.128   6.938  1.3711  0.6970 -0.0393
  401MOL0     H52870   3.431  11.307   6.951 -0.4603 -2.4277 -4.2234
  401MOL0     H52871   3.216  11.117   7.047 -3.0510 -0.4729 -0.0837
  401MOL0     H52872   3.214  11.215   6.893 -1.5917  2.7890  0.3715
  401MOL0     H52873   3.212  11.423   7.014  1.8339 -0.1362  2.0433
  401MOL0     H52874   3.222  11.343   7.166  2.2030  0.2112 -0.9077
  401MOL0     H52875   3.017  11.300   6.942 -2.1336 -0.0003 -0.4155
  401MOL0     H52876   2.998  11.227   7.104 -1.4591  0.1983 -0.2898
  401MOL0     H52877   2.980  11.451   7.213 -1.5197  2.3734 -0.0102
  401MOL0     H52878   2.849  11.380   7.130 -0.8966  1.5715  1.4259
  401MOL0     H52879   2.907  11.528   6.936 -1.9755 -0.2783  0.9493
  401MOL0     H52880   3.042  11.587   7.004  1.0045 -3.9548 -1.7141
  401MOL0     H52881   2.783  11.688   7.043  1.4940  1.0663 -1.5171
  401MOL0     H52882   2.816  11.597   7.193  1.0019 -2.0734 -0.8258
  401MOL0     H52883   2.853  11.859   7.166  1.0274  0.0750 -0.6931
  401MOL0     H52884   3.013  11.807   7.099 -0.4113 -0.1118 -0.1527
  401MOL0     H52885   3.198  11.710   7.246  1.8277  0.5056  1.2454
  401MOL0     H52886   3.242  11.686   7.647  0.8322 -0.8689  0.0318
  401MOL0     H52887   3.323  11.797   7.527 -0.1386  0.1743 -0.5271
  401MOL0     H52888   3.299  11.524   7.428  0.5470  0.6933 -2.1993
  401MOL0     H52889   3.407  11.553   7.573  0.9055  1.8716  0.9960
  401MOL0     H52890   3.423  11.653   7.280 -0.9862  1.2286  0.8284
  401MOL0     H52891   3.517  11.736   7.411  0.3714 -0.3611 -0.3173
  401MOL0     H52892   3.546  11.422   7.351 -1.4540 -0.3235  1.4254
  401MOL0     H52893   3.607  11.509   7.476 -1.8501  2.1713  0.7057
  401MOL0     H52894   3.756  11.358   7.425 -2.9177  3.0518 -2.6294
  401MOL0     H52895   3.999  11.295   7.463  0.4133  1.8307  1.0671
  401MOL0     H52896   4.528  11.672   7.285 -2.2817 -0.7485 -2.4296
  401MOL0     H52897   4.764  11.621   7.318  1.0811 -0.0835 -1.8020
  401MOL0     H52898   4.978  11.551   7.406  0.6465  0.2742  0.3094
  401MOL0     H52899   4.945  11.523   7.243 -1.7710  0.2277  1.0270
  401MOL0     H52900   5.161  11.467   7.279  1.6950 -0.1025  2.0730
  401MOL0     H52901   5.074  11.314   7.240  2.9433 -3.1013  2.1190
  401MOL0     H52902   5.094  11.221   7.442 -0.8737 -0.4342  1.6486
  401MOL0     H52903   5.147  11.372   7.521 -0.5633  1.8862 -2.0279
  401MOL0     H52904   5.296  11.226   7.304  0.1307  0.6058  0.4328
  401MOL0     H52905   5.363  11.370   7.362  2.5507 -1.6081  0.0408
  401MOL0     H52906   5.346  11.104   7.503 -0.4367  0.1308 -0.8275
  401MOL0     H52907   5.336  11.245   7.606 -0.0880 -2.6110  0.4717
  401MOL0     H52908   5.562  11.157   7.562 -1.7242 -1.0805 -0.0869
  401MOL0     H52909   5.550  11.321   7.509 -1.8519 -0.2178  1.1298
  401MOL0     H52910   5.504  11.096   7.300  1.4423 -2.1829  0.7285
  401MOL0     H52911   5.574  11.257   7.276  4.1313  0.0189 -0.2672
  401MOL0     H52912   5.721  11.022   7.391  0.2792 -0.6012 -0.5203
  401MOL0     H52913   5.789  11.186   7.397 -0.1778  0.9479 -0.5114
  401MOL0     H52914   4.676  11.207   7.386  4.2672  1.7454  0.6496
  401MOL0     H52915   4.439  11.244   7.339  2.0652 -0.7682  3.2411
  401MOL0     H52916   4.126  11.620   7.233  3.5882 -4.0767  0.6711
  401MOL0     H52917   3.893  11.692   7.197  1.2877  1.4175  0.5554
  401MOL0     H52918   3.648  11.280   6.975 -0.3050  2.1874  1.3426
  401MOL0     H52919   3.881  11.228   7.007 -0.9737  0.9419 -0.0633
  401MOL0     H52920   4.182  11.043   7.377  2.1902 -1.6607  2.4250
  401MOL0     H52921   4.413  10.978   7.443  0.3376  0.4788  0.0748
  401MOL0     H52922   4.688  10.869   7.117 -2.9252  2.0004  0.7003
  401MOL0     H52923   4.769  10.811   7.258 -0.8619 -0.4939  0.0387
  401MOL0     H52924   4.875  10.995   7.111 -0.7575 -1.7927 -1.2795
  401MOL0     H52925   4.752  11.106   7.174 -0.8157  0.2961  0.9778
  401MOL0     H52926   4.841  11.043   7.416  0.3016 -1.6808 -0.1741
  401MOL0     H52927   4.940  11.151   7.309  0.9389 -0.5113  1.0377
  401MOL0     H52928   5.039  10.963   7.443 -3.1401  1.4147  0.5103
  401MOL0     H52929   4.966  10.847   7.324  1.2659 -0.7105 -1.7247
  401MOL0     H52930   5.288  11.004   7.099  0.3040  0.7461 -0.5052
  401MOL0     H52931   4.545  11.039   7.038 -0.3432 -1.3824 -0.8637
  401MOL0     H52932   4.311  11.076   6.972 -1.0490 -1.6425 -0.7768
  402MOL0     O52933   5.044  10.177   4.920  0.5272  0.0643 -0.1207
  402MOL0     C52934   5.136  10.129   4.846 -0.0174  0.2340  0.2935
  402MOL0     O52935   5.116  10.083   4.725 -0.1319 -0.7084  0.0961
  402MOL0     C52936   4.994  10.071   4.665  0.2709 -0.3261  0.2329
  402MOL0     C52937   4.887   9.993   4.720 -0.1399  0.4252 -0.0639
  402MOL0     C52938   4.766   9.976   4.645  0.5642 -1.5881 -0.2296
  402MOL0     C52939   4.741  10.050   4.525  0.1126  0.4210 -0.5263
  402MOL0     O52940   4.619  10.056   4.457  0.1249 -0.1256  0.3490
  402MOL0     C52941   4.538   9.941   4.458 -0.0466  0.2135 -0.1429
  402MOL0     C52942   4.591   9.847   4.348  0.3501 -0.8916 -0.0914
  402MOL0     C52943   4.562   9.907   4.212 -0.3904 -0.3539 -0.1224
  402MOL0     C52944   4.595   9.797   4.116 -0.5205 -0.1321  0.2180
  402MOL0     C52945   4.470   9.712   4.083  0.6755  0.1646  0.1799
  402MOL0     C52946   4.491   9.638   3.950 -0.2123  0.1833  0.5784
  402MOL0     C52947   4.367   9.547   3.905 -0.3739  0.2944 -0.2541
  402MOL0     C52948   4.251   9.636   3.864 -0.2672  0.2409 -0.4018
  402MOL0     N52949   4.131   9.578   3.903 -0.0063 -0.1357 -0.7698
  402MOL0     C52950   4.032   9.510   3.825 -0.3022 -0.2896  0.3100
  402MOL0     C52951   3.937   9.479   3.911  0.0901  0.4010 -0.2629
  402MOL0     C52952   3.801   9.434   3.859 -0.8124  0.1413 -0.4487
  402MOL0     C52953   3.691   9.535   3.873  0.5645 -0.4735 -0.4469
  402MOL0     C52954   3.549   9.485   3.911 -0.4737 -0.5924 -0.1381
  402MOL0     C52955   3.489   9.381   3.804 -0.3041  0.4389  0.8705
  402MOL0     O52956   3.347   9.346   3.828  0.1424  0.1849 -0.2309
  402MOL0     C52957   3.279   9.259   3.751 -0.3122  0.2157  0.6278
  402MOL0     C52958   3.159   9.207   3.798 -0.1412  0.0514 -1.3863
  402MOL0     C52959   3.078   9.141   3.708 -0.1903  0.0481 -0.7835
  402MOL0     C52960   3.129   9.093   3.587 -0.1220 -1.0190 -0.6738
  402MOL0     C52961   3.041   9.024   3.495 -0.3386  0.3015 -0.1013
  402MOL0     O52962   3.093   8.994   3.375 -0.3563  0.2208  0.9902
  402MOL0     C52963   3.010   8.935   3.277  0.0078  0.6577 -0.4019
  402MOL0     C52964   3.077   8.819   3.230  0.0404  1.0300  0.3456
  402MOL0     C52965   3.014   8.745   3.130 -0.2804  0.0096 -1.1822
  402MOL0     C52966   2.893   8.775   3.077  0.1438 -0.0998  0.8268
  402MOL0     O52967   2.865   8.695   2.964 -0.6402  0.4866  0.3580
  402MOL0     C52968   2.752   8.715   2.878  0.2440  0.1955  0.4549
  402MOL0     C52969   2.633   8.655   2.941 -0.8093  0.2388  0.1311
  402MOL0     C52970   2.503   8.709   2.890  0.1900 -0.9855  0.0928
  402MOL0     C52971   2.381   8.625   2.924  0.4464 -0.0900 -0.4344
  402MOL0     C52972   2.261   8.644   2.831  0.1199 -0.2931  0.2552
  402MOL0     C52973   2.139   8.598   2.903 -0.1747  1.1760 -0.0798
  402MOL0     C52974   2.009   8.626   2.829 -0.3249  0.8341  0.7060
  402MOL0     C52975   2.024   8.655   2.673  0.7099  0.3866 -0.2081
  402MOL0    Cl52976   1.863   8.658   2.594  0.0005  0.2166  0.1712
  402MOL0     C52977   2.826   8.897   3.123 -0.3224  0.1084  0.6432
  402MOL0     C52978   2.883   8.972   3.230 -0.1646 -0.4678  0.2303
  402MOL0     O52979   2.937   8.981   3.535  0.6644 -0.4946 -0.0904
  402MOL0     C52980   3.264   9.108   3.556 -1.0603 -0.3475 -0.6907
  402MOL0     C52981   3.329   9.206   3.627  0.0649  0.0478 -0.0618
  402MOL0     N52982   3.976   9.522   4.035  1.1220 -0.3775  0.2393
  402MOL0     N52983   4.093   9.583   4.034 -0.2553 -0.2262  0.0052
  402MOL0     C52984   4.850  10.116   4.478 -0.6484  1.0347  0.6369
  402MOL0     C52985   4.974  10.134   4.544  0.3318 -0.4153 -0.9170
  402MOL0     C52986   5.270  10.135   4.902 -1.2879  0.4546 -1.2162
  402MOL0     C52987   5.284  10.141   5.041  0.1341 -0.3181 -0.3472
  402MOL0     C52988   5.406  10.139   5.103  0.0035  0.2979  0.0824
  402MOL0     C52989   5.527  10.153   5.029 -0.9139 -0.3743 -0.5951
  402MOL0     O52990   5.634  10.173   5.112 -0.6077  0.8328  0.7288
  402MOL0     C52991   5.758  10.173   5.039  0.3734  1.1435 -0.2484
  402MOL0     C52992   5.869  10.149   5.147  1.0141 -0.9347  0.1520
  402MOL0     C52993   6.002  10.207   5.106  0.2587 -0.0494  0.8183
  402MOL0     C52994   6.075  10.107   5.012 -0.7363  0.3268  0.7127
  402MOL0     C52995   6.200  10.167   4.965 -0.7176  0.4934 -0.3016
  402MOL0     C52996   6.295  10.210   4.918 -0.5178 -0.3254 -0.0956
  402MOL0     C52997   5.513  10.174   4.889 -0.0263 -0.6054 -0.3627
  402MOL0     C52998   5.394  10.145   4.828  0.5579 -0.4585  0.1917
  402MOL0     H52999   4.901   9.945   4.816 -2.2547 -0.4472 -0.1563
  402MOL0     H53000   4.686   9.923   4.697 -0.8013 -0.7794 -1.4285
  402MOL0     H53001   4.433   9.966   4.440  0.0275 -0.5091 -1.7089
  402MOL0     H53002   4.529   9.883   4.550 -0.4721  0.9947  0.3222
  402MOL0     H53003   4.543   9.749   4.348 -0.4682 -0.5973 -3.2951
  402MOL0     H53004   4.700   9.835   4.352  0.3998 -0.3096  0.4853
  402MOL0     H53005   4.623   9.993   4.185 -1.0310  1.1820  2.9453
  402MOL0     H53006   4.460   9.946   4.204 -0.3775  0.2413  2.1205
  402MOL0     H53007   4.635   9.829   4.020 -4.0802 -0.8283 -1.6535
  402MOL0     H53008   4.673   9.731   4.154  0.5250 -0.1899 -1.9198
  402MOL0     H53009   4.384   9.779   4.091  1.6167  2.0831 -3.4329
  402MOL0     H53010   4.446   9.633   4.155 -2.0995 -0.1497 -0.9567
  402MOL0     H53011   4.580   9.575   3.949  0.0038  0.3584 -2.8927
  402MOL0     H53012   4.508   9.717   3.875 -0.7751 -0.5556 -0.3548
  402MOL0     H53013   4.392   9.479   3.823  0.1761 -1.3513  1.2243
  402MOL0     H53014   4.333   9.485   3.989  0.5658 -2.0368 -1.5036
  402MOL0     H53015   4.246   9.659   3.758 -0.4180 -1.4562 -0.8028
  402MOL0     H53016   4.265   9.725   3.926  1.3742 -1.0136  1.1557
  402MOL0     H53017   4.052   9.488   3.720  0.4787  1.4356  0.0711
  402MOL0     H53018   3.763   9.344   3.908  1.3224 -1.1060 -0.9280
  402MOL0     H53019   3.816   9.411   3.753 -0.1921 -0.2925 -0.2768
  402MOL0     H53020   3.676   9.578   3.773 -0.3129 -0.2882 -0.2440
  402MOL0     H53021   3.713   9.608   3.951 -2.0408  0.4471 -0.4479
  402MOL0     H53022   3.540   9.446   4.013  0.8677  0.5557  0.4499
  402MOL0     H53023   3.497   9.580   3.905  2.5443  1.3244  1.4586
  402MOL0     H53024   3.549   9.289   3.803  0.2428  0.7648 -1.3732
  402MOL0     H53025   3.514   9.418   3.705  0.9931  0.2635  1.1131
  402MOL0     H53026   3.122   9.256   3.887  2.9282 -0.4673  0.2907
  402MOL0     H53027   2.977   9.123   3.746  0.1846  0.7197  0.6231
  402MOL0     H53028   3.173   8.788   3.271  1.0558  3.1315 -0.3223
  402MOL0     H53029   3.059   8.654   3.093  1.9584  1.5267 -2.4304
  402MOL0     H53030   2.768   8.669   2.780  0.0070  0.7136  0.1708
  402MOL0     H53031   2.740   8.823   2.867  0.8044  0.2766  0.6185
  402MOL0     H53032   2.628   8.686   3.046  2.1161 -1.7222  0.9658
  402MOL0     H53033   2.630   8.546   2.934 -0.7189  0.1083  1.6080
  402MOL0     H53034   2.524   8.702   2.783 -0.8771  1.7866 -0.3722
  402MOL0     H53035   2.486   8.814   2.917 -1.0375 -0.1020 -3.5365
  402MOL0     H53036   2.405   8.518   2.931  0.9653  0.1008  1.2402
  402MOL0     H53037   2.347   8.646   3.026  1.1057 -0.0478 -0.2196
  402MOL0     H53038   2.280   8.594   2.736 -1.1342  1.5651 -1.0316
  402MOL0     H53039   2.240   8.750   2.813 -0.6940 -0.5213 -0.1907
  402MOL0     H53040   2.126   8.643   3.001 -0.5488 -0.9244  0.8837
  402MOL0     H53041   2.146   8.489   2.913 -5.0813  0.6414 -0.1416
  402MOL0     H53042   1.941   8.541   2.844  1.3384 -0.3166  2.1999
  402MOL0     H53043   1.963   8.700   2.895 -2.2702 -3.0426  4.1743
  402MOL0     H53044   2.096   8.588   2.626  3.4942  2.2279  1.1316
  402MOL0     H53045   2.063   8.755   2.650 -1.2791  1.4786  0.8847
  402MOL0     H53046   2.733   8.916   3.072  1.5173  0.4190 -2.9396
  402MOL0     H53047   2.847   9.072   3.253 -1.8984 -0.5908 -1.6895
  402MOL0     H53048   3.300   9.068   3.462 -0.7760 -4.1991  0.8638
  402MOL0     H53049   3.427   9.238   3.592  0.2551 -0.3656  0.0860
  402MOL0     H53050   4.843  10.176   4.388  0.6447  1.8203  1.0176
  402MOL0     H53051   5.066  10.176   4.505  1.4132 -1.7808  0.0735
  402MOL0     H53052   5.194  10.135   5.103  0.0602 -3.8043 -0.6289
  402MOL0     H53053   5.401  10.149   5.211  0.0309 -1.5231  0.2860
  402MOL0     H53054   5.773  10.272   4.994 -0.0060  0.6954 -1.3870
  402MOL0     H53055   5.753  10.095   4.963 -2.6573  2.1555 -1.2591
  402MOL0     H53056   5.843  10.211   5.234  3.0002  0.1871 -0.0039
  402MOL0     H53057   5.870  10.045   5.181 -1.6202 -1.3125 -0.7476
  402MOL0     H53058   6.065  10.225   5.194 -0.7698  0.4716  1.4708
  402MOL0     H53059   5.991  10.300   5.049  0.6940  0.0279  0.8532
  402MOL0     H53060   6.100  10.014   5.063  0.2811  0.7693  1.0426
  402MOL0     H53061   6.013  10.089   4.924 -2.1011  0.0421  1.7011
  402MOL0     H53062   6.384  10.265   4.894 -1.2199  1.7255  1.6507
  402MOL0     H53063   5.601  10.193   4.829 -0.3191 -1.2766 -1.0356
  402MOL0     H53064   5.383  10.152   4.720  2.0240  2.7962  0.1376
  403MOL0     O53065   4.815   1.534   0.473 -0.3361  0.1578  0.0797
  403MOL0     C53066   4.864   1.430   0.514  0.2675  0.5233 -0.0420
  403MOL0     O53067   4.796   1.316   0.540  0.3076 -0.0070 -0.2227
  403MOL0     C53068   4.661   1.319   0.524  0.6702  0.7993 -0.9435
  403MOL0     C53069   4.607   1.202   0.465 -0.0151  0.0850  0.6876
  403MOL0     C53070   4.464   1.190   0.459  0.4070  0.8362  0.1927
  403MOL0     C53071   4.370   1.291   0.508 -0.7598  0.5929  0.0867
  403MOL0     O53072   4.237   1.276   0.516 -0.4081 -0.3512  0.5588
  403MOL0     C53073   4.185   1.153   0.446 -0.5549 -0.1099  0.0279
  403MOL0     C53074   4.040   1.140   0.471 -0.6737  0.8110  0.2674
  403MOL0     C53075   3.969   1.032   0.382 -1.0595  0.2125 -0.1918
  403MOL0     C53076   3.814   1.036   0.397 -0.8839  0.1081 -0.1607
  403MOL0     C53077   3.765   0.945   0.280  1.0427 -0.4511 -0.8984
  403MOL0     C53078   3.613   0.941   0.275 -0.2352 -0.1508  0.1260
  403MOL0     C53079   3.555   1.077   0.232  0.8946  0.8256 -0.1656
  403MOL0     C53080   3.423   1.067   0.170 -0.1839 -0.1391 -0.2772
  403MOL0     N53081   3.321   0.989   0.252  0.4169 -0.3856 -0.0047
  403MOL0     C53082   3.277   0.875   0.205  0.6841  0.4890  0.4498
  403MOL0     C53083   3.202   0.818   0.308  0.4043 -0.6310  0.6357
  403MOL0     C53084   3.136   0.679   0.310  0.1298 -0.6058  0.2118
  403MOL0     C53085   2.984   0.696   0.310  0.4282 -0.5010 -0.1819
  403MOL0     C53086   2.912   0.565   0.358  0.5827 -0.0753  0.0186
  403MOL0     C53087   2.759   0.578   0.350 -0.0060 -0.3283 -0.2200
  403MOL0     O53088   2.725   0.671   0.458 -0.1400  0.9431  0.7433
  403MOL0     C53089   2.601   0.707   0.486  0.6565 -0.1782  0.9744
  403MOL0     C53090   2.570   0.789   0.588 -0.8532 -0.1532  0.4530
  403MOL0     C53091   2.435   0.824   0.622  0.0446 -0.4553 -0.2410
  403MOL0     C53092   2.328   0.762   0.550 -0.2869  0.1236  0.5064
  403MOL0     C53093   2.189   0.805   0.572  0.4530 -0.7995 -0.4925
  403MOL0     O53094   2.111   0.787   0.467 -0.7604  0.6634 -0.9574
  403MOL0     C53095   1.982   0.827   0.466  0.4452 -0.3666 -0.5817
  403MOL0     C53096   1.940   0.892   0.351 -0.5972 -0.7098 -0.5230
  403MOL0     C53097   1.809   0.942   0.336 -0.3630 -0.2320  0.6794
  403MOL0     C53098   1.717   0.931   0.447 -0.4729  0.2500  0.1305
  403MOL0     O53099   1.595   0.978   0.438 -0.0292 -0.6278  0.3571
  403MOL0     C53100   1.607   1.120   0.427 -0.1573  0.4345  0.8844
  403MOL0     C53101   1.476   1.192   0.440  0.6954  0.1824 -0.2345
  403MOL0     C53102   1.419   1.197   0.580  0.4458 -0.7945  0.4915
  403MOL0     C53103   1.289   1.279   0.598 -0.9771  0.7985  0.1439
  403MOL0     C53104   1.218   1.229   0.729 -0.1634  0.2008  0.0907
  403MOL0     C53105   1.088   1.295   0.753 -0.5639  0.0678  0.0168
  403MOL0     C53106   1.106   1.441   0.795  1.2625  0.3223  0.1319
  403MOL0     C53107   0.991   1.484   0.884  0.5209 -0.3141 -0.4639
  403MOL0    Cl53108   0.980   1.389   1.026  0.0721  0.0934 -0.8378
  403MOL0     C53109   1.754   0.865   0.561 -0.1969  0.1220  0.6086
  403MOL0     C53110   1.881   0.811   0.574  0.4532 -0.4080  0.6012
  403MOL0     O53111   2.156   0.860   0.675 -0.0715 -0.3469 -0.6396
  403MOL0     C53112   2.363   0.689   0.437  0.5636  0.7823  0.9163
  403MOL0     C53113   2.494   0.661   0.405  0.5814  0.1814 -0.5047
  403MOL0     N53114   3.210   0.899   0.412 -0.1693 -0.5669 -0.0780
  403MOL0     N53115   3.273   1.011   0.379  0.2113  0.9195  1.0008
  403MOL0     C53116   4.431   1.406   0.559  0.0972  0.2553 -0.3018
  403MOL0     C53117   4.569   1.417   0.573 -0.4813 -0.6829  0.1606
  403MOL0     C53118   5.005   1.421   0.537 -1.0092 -0.6895  0.0780
  403MOL0     C53119   5.085   1.539   0.545 -0.2714  0.1790  0.5628
  403MOL0     C53120   5.223   1.532   0.553 -0.6964 -0.5743 -0.2731
  403MOL0     C53121   5.292   1.414   0.563  0.9330  0.2803  0.4134
  403MOL0     O53122   5.427   1.400   0.585  0.0532  0.5438  0.1750
  403MOL0     C53123   5.502   1.286   0.554 -0.0300  0.1991  0.1850
  403MOL0     C53124   5.654   1.313   0.554  0.4072 -0.4596  0.3862
  403MOL0     C53125   5.748   1.192   0.603  0.3252  0.1626 -0.4051
  403MOL0     C53126   5.885   1.241   0.651 -0.8375  0.0726 -1.3581
  403MOL0     C53127   5.976   1.276   0.539  0.0814 -0.9247  0.6306
  403MOL0     C53128   6.055   1.314   0.449  0.6490  0.2638  0.8149
  403MOL0     C53129   5.209   1.298   0.575 -0.3513  0.0443  0.6905
  403MOL0     C53130   5.073   1.302   0.557 -0.4780  0.2205  0.2656
  403MOL0     H53131   4.678   1.128   0.430  1.2459  1.5521  0.0105
  403MOL0     H53132   4.424   1.097   0.419 -1.4104  0.2229  3.1261
  403MOL0     H53133   4.233   1.061   0.483 -0.2428 -0.3578 -0.9599
  403MOL0     H53134   4.201   1.158   0.338  0.6617  0.6066  0.2257
  403MOL0     H53135   3.986   1.232   0.447 -1.5785  0.5496  1.2440
  403MOL0     H53136   4.021   1.129   0.578 -0.1084 -0.8871  0.2146
  403MOL0     H53137   4.003   0.931   0.409 -0.7204  0.9914  2.5722
  403MOL0     H53138   3.982   1.053   0.276 -0.9659  1.2128  0.0112
  403MOL0     H53139   3.787   1.003   0.497 -0.4480  0.8565  0.2096
  403MOL0     H53140   3.779   1.138   0.378  1.4078  1.1450  0.8263
  403MOL0     H53141   3.796   0.841   0.293  0.8693 -0.6576 -2.0366
  403MOL0     H53142   3.813   0.981   0.189 -0.0975  1.0558 -0.9534
  403MOL0     H53143   3.569   0.923   0.373  1.6052 -0.7679  0.8891
  403MOL0     H53144   3.578   0.864   0.205 -1.4806  0.8074 -0.3468
  403MOL0     H53145   3.534   1.137   0.320 -2.7202 -0.1993 -0.1870
  403MOL0     H53146   3.614   1.135   0.160 -2.4580  1.5881 -2.5731
  403MOL0     H53147   3.418   1.040   0.064  1.7915  3.4399 -1.4371
  403MOL0     H53148   3.388   1.171   0.173 -1.7730 -0.5676 -2.0295
  403MOL0     H53149   3.313   0.829   0.113 -2.0840  0.2006 -0.5718
  403MOL0     H53150   3.178   0.617   0.390 -0.5309 -0.5605  0.5996
  403MOL0     H53151   3.155   0.622   0.218 -1.7620 -1.1763  0.1311
  403MOL0     H53152   2.958   0.735   0.211  4.4171 -2.8921 -2.4532
  403MOL0     H53153   2.972   0.772   0.388  3.1537 -1.2269  1.0825
  403MOL0     H53154   2.938   0.494   0.279 -0.8630  0.4923 -1.0072
  403MOL0     H53155   2.925   0.531   0.462 -0.9954 -1.3912 -0.1705
  403MOL0     H53156   2.711   0.480   0.355 -0.5438 -0.0237  0.8460
  403MOL0     H53157   2.734   0.629   0.257  2.0207  0.3762 -0.4317
  403MOL0     H53158   2.647   0.830   0.653 -2.2981 -1.7507  3.3497
  403MOL0     H53159   2.405   0.891   0.702 -0.2658  1.4592 -1.8761
  403MOL0     H53160   2.010   0.907   0.269  0.8791 -1.3106  0.5937
  403MOL0     H53161   1.780   0.989   0.243  1.6399  0.0062  0.1309
  403MOL0     H53162   1.660   1.152   0.337  1.5050  0.1563  1.7240
  403MOL0     H53163   1.670   1.153   0.510  0.0665 -1.2210  1.4167
  403MOL0     H53164   1.393   1.164   0.375  0.2946 -0.6453  0.5975
  403MOL0     H53165   1.508   1.294   0.419 -0.2141  0.2162 -1.5599
  403MOL0     H53166   1.488   1.237   0.656  1.2141  0.0900 -0.6250
  403MOL0     H53167   1.401   1.092   0.604  0.7953 -1.5648 -2.1997
  403MOL0     H53168   1.311   1.386   0.589 -0.9481  0.6560 -2.0120
  403MOL0     H53169   1.229   1.255   0.509 -1.7011  0.8087  0.6159
  403MOL0     H53170   1.278   1.246   0.819 -1.8949  0.7102  1.1957
  403MOL0     H53171   1.190   1.124   0.724 -0.7952  0.1757  2.9095
  403MOL0     H53172   1.035   1.230   0.823  1.7029  0.7770  2.5561
  403MOL0     H53173   1.021   1.292   0.667 -2.4885  3.3139  1.2395
  403MOL0     H53174   1.201   1.455   0.847 -0.6981  1.5890  3.7011
  403MOL0     H53175   1.108   1.511   0.712 -3.0587  3.7433  2.4633
  403MOL0     H53176   0.907   1.471   0.815  0.0579 -2.6857  0.4515
  403MOL0     H53177   1.006   1.586   0.920  4.2669 -0.8692 -0.1229
  403MOL0     H53178   1.683   0.861   0.643 -0.1752  0.5169  0.6479
  403MOL0     H53179   1.895   0.742   0.656 -1.4902 -1.8920 -0.2337
  403MOL0     H53180   2.281   0.643   0.384  1.2841  1.3334 -0.7306
  403MOL0     H53181   2.507   0.586   0.327  1.9203 -0.3555  0.1927
  403MOL0     H53182   4.362   1.478   0.602  1.2229  1.5711 -0.6331
  403MOL0     H53183   4.604   1.510   0.618  1.9729 -1.2807 -0.3672
  403MOL0     H53184   5.035   1.635   0.534  2.1405  1.6423  1.5967
  403MOL0     H53185   5.285   1.620   0.559  0.0249 -1.0076 -1.1379
  403MOL0     H53186   5.474   1.247   0.456 -0.8618 -1.7583  1.1628
  403MOL0     H53187   5.478   1.215   0.633  0.1573  0.8651  0.8477
  403MOL0     H53188   5.686   1.331   0.451 -4.2443 -2.8566 -1.8234
  403MOL0     H53189   5.670   1.398   0.620 -0.7595  0.8356 -0.9475
  403MOL0     H53190   5.766   1.124   0.519 -1.0872 -2.7145  1.4267
  403MOL0     H53191   5.695   1.147   0.688 -0.2470  0.7803 -0.4260
  403MOL0     H53192   5.863   1.330   0.711 -1.6969 -0.5802 -0.6773
  403MOL0     H53193   5.936   1.159   0.702  0.8956  1.2718 -1.0967
  403MOL0     H53194   6.102   1.369   0.371 -0.8644  0.8702  0.3068
  403MOL0     H53195   5.256   1.203   0.601  0.0763 -0.1284 -0.6506
  403MOL0     H53196   5.017   1.209   0.563  2.1518 -1.6817 -1.7769
  404MOL0     O53197   8.920   0.206   3.308  0.0439 -0.5229 -0.1177
  404MOL0     C53198   8.965   0.277   3.401  0.3906  0.4843  0.2129
  404MOL0     O53199   8.886   0.349   3.483 -0.1008 -1.3841  0.0781
  404MOL0     C53200   8.750   0.337   3.486  0.3674  1.0271  0.0738
  404MOL0     C53201   8.684   0.399   3.591  1.2357  0.2557 -0.4921
  404MOL0     C53202   8.548   0.396   3.625  0.1567  0.0691  0.1250
  404MOL0     C53203   8.467   0.312   3.552 -0.5411  0.4391 -0.9949
  404MOL0     O53204   8.330   0.292   3.570  0.1635 -0.7177  0.3272
  404MOL0     C53205   8.253   0.335   3.682  0.4157 -0.5571  0.2602
  404MOL0     C53206   8.240   0.489   3.690  0.1854 -0.4193 -0.2725
  404MOL0     C53207   8.226   0.538   3.835 -0.3594  0.3074 -0.7033
  404MOL0     C53208   8.099   0.475   3.903  0.0819  0.2913 -0.4771
  404MOL0     C53209   7.966   0.518   3.834 -0.3752  0.8898 -0.0973
  404MOL0     C53210   7.840   0.489   3.906 -0.0801  0.0243 -0.2346
  404MOL0     C53211   7.720   0.528   3.824  0.1006  0.5345 -0.6772
  404MOL0     C53212   7.597   0.486   3.914  0.1773  0.4074 -0.6164
  404MOL0     N53213   7.472   0.544   3.864 -0.0801  0.1012 -1.0391
  404MOL0     C53214   7.361   0.476   3.848  0.5387 -0.2449  0.6590
  404MOL0     C53215   7.260   0.571   3.842  0.2879  0.3742 -0.5964
  404MOL0     C53216   7.113   0.547   3.831  0.1113 -0.0196  0.3807
  404MOL0     C53217   7.022   0.638   3.916 -0.3257 -0.0261  0.1667
  404MOL0     C53218   6.888   0.669   3.843 -0.3058 -0.4015  0.3648
  404MOL0     C53219   6.796   0.767   3.923 -0.3820 -0.1631  0.0459
  404MOL0     O53220   6.696   0.795   3.825  0.4861 -0.0014 -0.5911
  404MOL0     C53221   6.579   0.828   3.887 -0.5831  0.3630  0.2783
  404MOL0     C53222   6.482   0.730   3.912 -1.2431 -0.5483  0.0118
  404MOL0     C53223   6.356   0.769   3.961 -0.1342  0.4254 -1.1114
  404MOL0     C53224   6.318   0.905   3.984 -0.4863  0.2388 -0.2838
  404MOL0     C53225   6.184   0.946   4.025  0.3223  0.0423  0.5388
  404MOL0     O53226   6.094   0.856   4.007 -0.3732  0.2678 -0.4879
  404MOL0     C53227   5.976   0.853   4.078  0.2715 -0.1139  0.7278
  404MOL0     C53228   5.851   0.828   4.015  0.1023  0.6301 -0.3532
  404MOL0     C53229   5.734   0.828   4.092  0.4517 -0.3908  0.2311
  404MOL0     C53230   5.730   0.857   4.231 -1.7116  0.3532  0.0456
  404MOL0     O53231   5.612   0.859   4.313  0.3509 -0.1682  0.4231
  404MOL0     C53232   5.493   0.803   4.260 -0.5782 -0.2681  0.6052
  404MOL0     C53233   5.401   0.913   4.218  0.6696  0.0865  0.5844
  404MOL0     C53234   5.355   1.006   4.333  0.7165  0.0927 -0.0568
  404MOL0     C53235   5.277   1.122   4.267 -0.2632  0.8357 -0.1775
  404MOL0     C53236   5.150   1.156   4.353 -0.2736 -0.3994  0.0279
  404MOL0     C53237   5.026   1.074   4.316 -0.6652  0.0722  0.1726
  404MOL0     C53238   4.898   1.149   4.368  0.0445 -0.6814 -0.0895
  404MOL0     C53239   4.757   1.076   4.365 -0.3640 -0.2837 -0.0186
  404MOL0    Cl53240   4.619   1.180   4.361 -0.0397  0.2005  0.1536
  404MOL0     C53241   5.857   0.866   4.295  0.1051  0.2341  0.3741
  404MOL0     C53242   5.973   0.877   4.211  0.4659 -1.2850 -0.0800
  404MOL0     O53243   6.162   1.064   4.058 -0.3634 -0.5650  0.1190
  404MOL0     C53244   6.421   1.003   3.955 -0.4178  0.6459  0.5796
  404MOL0     C53245   6.548   0.960   3.907 -0.3593 -0.6840 -0.7614
  404MOL0     N53246   7.323   0.695   3.857 -0.7841  0.0613  0.1151
  404MOL0     N53247   7.447   0.675   3.869 -0.1200  0.1840 -0.1287
  404MOL0     C53248   8.523   0.244   3.441 -0.7841  0.8205 -0.1665
  404MOL0     C53249   8.658   0.256   3.410 -0.7738 -0.1149  0.4333
  404MOL0     C53250   9.110   0.280   3.412 -0.5616  0.3640 -0.0414
  404MOL0     C53251   9.204   0.213   3.323 -0.3732  0.1905  0.1593
  404MOL0     C53252   9.337   0.213   3.365 -0.0405 -1.1932 -0.0779
  404MOL0     C53253   9.397   0.294   3.459  0.5904  0.0244 -0.3081
  404MOL0     O53254   9.535   0.282   3.478 -0.3797 -0.3915  0.3231
  404MOL0     C53255   9.611   0.389   3.547 -0.0562 -0.0903 -0.0471
  404MOL0     C53256   9.755   0.369   3.500 -0.1213 -0.7755 -0.4478
  404MOL0     C53257   9.839   0.277   3.589  0.9578 -0.0858 -0.2249
  404MOL0     C53258   9.989   0.284   3.555  0.7757  0.4353 -0.3183
  404MOL0     C53259  10.071   0.208   3.649 -0.2256  0.0323 -0.3045
  404MOL0     C53260  10.135   0.124   3.709 -0.4421 -0.1591 -0.1371
  404MOL0     C53261   9.304   0.357   3.544  0.7438  0.3470  0.2667
  404MOL0     C53262   9.169   0.352   3.521  0.7050  0.2500  0.5563
  404MOL0     H53263   8.753   0.463   3.645  2.6645 -0.1325 -1.7849
  404MOL0     H53264   8.524   0.459   3.710  2.2330  1.8228 -0.4918
  404MOL0     H53265   8.287   0.295   3.778  1.0042 -0.4504  0.1003
  404MOL0     H53266   8.150   0.303   3.663  0.1238  1.6389 -2.6066
  404MOL0     H53267   8.149   0.512   3.633  0.8749 -2.5344 -2.3782
  404MOL0     H53268   8.323   0.535   3.636 -1.1312  0.5994 -1.5232
  404MOL0     H53269   8.219   0.647   3.840 -2.2714  0.2167 -0.7355
  404MOL0     H53270   8.323   0.519   3.882 -0.4590  2.3479  0.4062
  404MOL0     H53271   8.110   0.366   3.915 -0.1914  0.4418  1.4989
  404MOL0     H53272   8.091   0.508   4.007  2.6001  0.6748 -0.3360
  404MOL0     H53273   7.960   0.456   3.744  0.6397  0.2744  0.2389
  404MOL0     H53274   7.959   0.621   3.798 -2.7684  0.3424 -1.4028
  404MOL0     H53275   7.835   0.547   3.999  1.6480  1.4225 -0.9613
  404MOL0     H53276   7.852   0.381   3.923 -0.3360 -0.1451 -1.1163
  404MOL0     H53277   7.720   0.635   3.801  2.2579  0.6129 -0.5439
  404MOL0     H53278   7.725   0.475   3.728 -4.1202 -1.8453  0.1847
  404MOL0     H53279   7.623   0.529   4.011  2.8683  0.6505 -1.3506
  404MOL0     H53280   7.584   0.377   3.916  0.4116  0.3434 -1.8359
  404MOL0     H53281   7.339   0.369   3.848  0.9699 -0.3701  2.2445
  404MOL0     H53282   7.090   0.443   3.857 -0.0920  0.0073  0.3122
  404MOL0     H53283   7.089   0.555   3.725 -0.7430  2.4755  0.6890
  404MOL0     H53284   7.079   0.730   3.918  2.0097 -1.4145  1.6732
  404MOL0     H53285   7.012   0.603   4.019 -1.9858 -0.1314  0.0076
  404MOL0     H53286   6.910   0.701   3.741  1.1879 -0.5136  0.6189
  404MOL0     H53287   6.826   0.581   3.824 -3.1347  1.3929  0.7296
  404MOL0     H53288   6.845   0.859   3.956  0.3620 -0.1768 -0.9586
  404MOL0     H53289   6.753   0.715   4.009 -0.6496  1.4782  0.9328
  404MOL0     H53290   6.495   0.625   3.886  1.3773 -0.4808  0.7587
  404MOL0     H53291   6.292   0.681   3.975  0.7728 -0.0349  0.3967
  404MOL0     H53292   5.843   0.801   3.910  0.0508 -2.9292  0.4452
  404MOL0     H53293   5.645   0.803   4.035  1.0658 -1.8601 -0.1167
  404MOL0     H53294   5.447   0.750   4.344  0.6311 -1.3765  0.6117
  404MOL0     H53295   5.512   0.728   4.183 -2.7114 -0.5066  0.2565
  404MOL0     H53296   5.317   0.870   4.162  0.8087 -0.1821  0.5801
  404MOL0     H53297   5.448   0.981   4.146 -3.3894  2.0898 -0.4518
  404MOL0     H53298   5.439   1.043   4.392  0.7943 -0.4577  0.1858
  404MOL0     H53299   5.292   0.948   4.400  0.6184  1.6542  1.2706
  404MOL0     H53300   5.347   1.206   4.277  1.3842 -0.6838  1.8986
  404MOL0     H53301   5.255   1.108   4.161 -0.3113  0.7846 -0.1611
  404MOL0     H53302   5.124   1.260   4.330 -0.9575 -0.4619  0.4839
  404MOL0     H53303   5.174   1.153   4.460 -2.8622  0.3036  0.7141
  404MOL0     H53304   5.033   0.973   4.357  2.6463  0.1139 -0.0236
  404MOL0     H53305   5.016   1.068   4.207  0.0297  1.0813  0.0426
  404MOL0     H53306   4.909   1.181   4.472  2.1539 -0.0935 -0.4545
  404MOL0     H53307   4.875   1.233   4.301 -0.8455 -2.1421 -1.7174
  404MOL0     H53308   4.726   1.002   4.439  0.3239 -1.1032 -0.5334
  404MOL0     H53309   4.756   1.013   4.275  1.8995 -1.5278  0.7412
  404MOL0     H53310   5.865   0.869   4.404 -1.6592 -2.1413  0.6437
  404MOL0     H53311   6.065   0.903   4.262 -0.4915  2.0916  0.2119
  404MOL0     H53312   6.390   1.107   3.964  1.6882  1.4726 -0.8734
  404MOL0     H53313   6.616   1.041   3.882 -4.2851  3.1933 -0.0611
  404MOL0     H53314   8.457   0.184   3.380 -0.1880 -0.3669  0.3227
  404MOL0     H53315   8.685   0.204   3.319 -0.7858  2.2317 -1.0019
  404MOL0     H53316   9.169   0.162   3.234  0.5843  1.3883 -0.9467
  404MOL0     H53317   9.410   0.162   3.303 -0.9549 -1.4693 -0.9428
  404MOL0     H53318   9.598   0.363   3.653  2.5702  0.3515  0.4491
  404MOL0     H53319   9.563   0.486   3.539  1.3695  0.8872  2.2132
  404MOL0     H53320   9.752   0.328   3.398  2.5327  0.2660 -1.0142
  404MOL0     H53321   9.817   0.458   3.492  1.4953 -1.4814  2.7860
  404MOL0     H53322   9.803   0.176   3.571 -1.9821  0.2475  2.7973
  404MOL0     H53323   9.810   0.305   3.691 -1.7262  1.1100 -1.2286
  404MOL0     H53324   9.994   0.220   3.466 -0.4214 -2.2810  1.4220
  404MOL0     H53325  10.011   0.389   3.537 -0.5383  0.4798 -1.9421
  404MOL0     H53326  10.186   0.045   3.760 -3.1530 -2.2856 -0.4647
  404MOL0     H53327   9.338   0.416   3.629 -1.8185  0.9008  0.9893
  404MOL0     H53328   9.098   0.402   3.586  0.8403 -0.7078  1.4791
  405MOL0     O53329  10.224   1.359   9.467  0.3589 -0.2253  0.3371
  405MOL0     C53330  10.208   1.471   9.525 -0.1717  0.5318  0.4097
  405MOL0     O53331  10.096   1.539   9.541 -0.1377 -0.0701  0.4715
  405MOL0     C53332   9.970   1.494   9.497  0.0854 -0.2851 -0.3279
  405MOL0     C53333   9.906   1.374   9.559 -0.3383 -0.4235 -0.1565
  405MOL0     C53334   9.783   1.336   9.501  0.7281 -0.5149  0.9838
  405MOL0     C53335   9.725   1.411   9.391  0.3575  0.0745 -0.0444
  405MOL0     O53336   9.612   1.384   9.319  0.5354 -0.2097  0.3529
  405MOL0     C53337   9.532   1.295   9.396 -0.4285 -0.5805  0.6159
  405MOL0     C53338   9.396   1.268   9.316  0.0406 -0.5086  0.6489
  405MOL0     C53339   9.417   1.240   9.164  0.1556 -0.2986 -0.1754
  405MOL0     C53340   9.287   1.190   9.111 -0.4644 -0.3436 -0.6579
  405MOL0     C53341   9.290   1.167   8.960  0.4626  0.3346 -0.9345
  405MOL0     C53342   9.147   1.120   8.913 -0.0083 -1.1898 -0.5106
  405MOL0     C53343   9.044   1.237   8.914 -0.5903  0.1039  0.2084
  405MOL0     C53344   8.908   1.200   8.849  0.3522 -0.2922  0.5918
  405MOL0     N53345   8.817   1.313   8.812 -0.3772 -0.3107 -0.2283
  405MOL0     C53346   8.813   1.436   8.872  0.5500 -0.7526 -0.1033
  405MOL0     C53347   8.694   1.488   8.832  0.4977 -0.2662 -0.6872
  405MOL0     C53348   8.642   1.623   8.872 -0.2498 -0.1419 -1.4421
  405MOL0     C53349   8.492   1.645   8.848  0.5645 -0.3766  1.6883
  405MOL0     C53350   8.409   1.571   8.952 -0.4074 -0.3039 -0.5217
  405MOL0     C53351   8.401   1.651   9.083  0.2883 -0.7147 -0.8922
  405MOL0     O53352   8.308   1.594   9.177  0.7334 -0.0680  0.5247
  405MOL0     C53353   8.173   1.622   9.184  1.0231  0.1080  0.5229
  405MOL0     C53354   8.108   1.707   9.096  0.1792 -0.0366 -0.0613
  405MOL0     C53355   7.974   1.727   9.110  0.7061  0.2449  0.6992
  405MOL0     C53356   7.897   1.665   9.215 -0.6498 -0.3013 -1.4171
  405MOL0     C53357   7.753   1.686   9.244 -0.4550 -0.4250  0.2367
  405MOL0     O53358   7.687   1.629   9.338  0.5426  0.2074  0.6152
  405MOL0     C53359   7.550   1.616   9.320 -0.1703 -1.0683  0.1771
  405MOL0     C53360   7.456   1.721   9.358  0.6774  0.2495  0.0630
  405MOL0     C53361   7.323   1.702   9.341 -0.2149 -0.3572 -0.2917
  405MOL0     C53362   7.271   1.574   9.290 -0.2163  0.0392  0.9241
  405MOL0     O53363   7.131   1.561   9.278 -0.4960  0.7577 -0.3934
  405MOL0     C53364   7.043   1.673   9.263 -0.6372  0.6161 -0.3781
  405MOL0     C53365   6.912   1.621   9.203  0.5187 -0.0774  0.6299
  405MOL0     C53366   6.942   1.523   9.087  0.1187 -0.0164 -0.1304
  405MOL0     C53367   6.815   1.474   9.014 -0.8847 -0.4117  0.9046
  405MOL0     C53368   6.715   1.400   9.093  0.4381  1.0939 -0.3688
  405MOL0     C53369   6.743   1.257   9.131 -0.9811 -0.1674  0.1730
  405MOL0     C53370   6.743   1.162   9.013 -0.2501  0.3229  0.8939
  405MOL0     C53371   6.774   1.017   9.055 -0.1016 -0.0550  0.5726
  405MOL0    Cl53372   6.640   0.948   9.150  0.5865  0.1188 -0.2816
  405MOL0     C53373   7.365   1.477   9.251  0.4071  0.6349  1.4734
  405MOL0     C53374   7.503   1.498   9.269 -0.2549  1.2607 -0.6115
  405MOL0     O53375   7.700   1.755   9.161  0.2210  0.1658 -0.2641
  405MOL0     C53376   7.963   1.581   9.303 -0.4074 -1.0217 -0.3399
  405MOL0     C53377   8.095   1.563   9.285 -0.4518  0.5298  0.6344
  405MOL0     N53378   8.632   1.400   8.743  0.4022  0.0409  0.2799
  405MOL0     N53379   8.716   1.305   8.721 -0.0380  0.1311 -0.1908
  405MOL0     C53380   9.781   1.532   9.352  0.6790 -1.2227  0.9485
  405MOL0     C53381   9.903   1.573   9.404  0.5578 -0.1876 -0.8391
  405MOL0     C53382  10.338   1.531   9.568  0.0853  0.2448  0.9477
  405MOL0     C53383  10.458   1.481   9.511 -1.1421 -0.6246  0.2742
  405MOL0     C53384  10.572   1.555   9.536  0.3130  0.0392 -0.1454
  405MOL0     C53385  10.574   1.669   9.619  0.7055  0.8277  0.3612
  405MOL0     O53386  10.697   1.734   9.637  0.5897 -0.1099  0.5885
  405MOL0     C53387  10.708   1.852   9.719  1.0196  0.1890 -0.7188
  405MOL0     C53388  10.847   1.868   9.744  0.1192 -0.5766 -0.7559
  405MOL0     C53389  10.936   1.907   9.624  0.8148 -0.4282 -0.4026
  405MOL0     C53390  11.084   1.920   9.668 -0.6108 -0.0827 -1.0688
  405MOL0     C53391  11.110   2.041   9.747 -0.0980 -0.5961  0.1329
  405MOL0     C53392  11.121   2.143   9.806  0.0530  0.5286 -0.1395
  405MOL0     C53393  10.452   1.714   9.677  0.5600 -0.5600  0.0731
  405MOL0     C53394  10.335   1.650   9.647  0.1004 -0.4564 -1.1380
  405MOL0     H53395   9.971   1.325   9.631 -0.5018  0.9061  0.9550
  405MOL0     H53396   9.744   1.241   9.537  1.5243 -0.6861  1.4221
  405MOL0     H53397   9.517   1.338   9.495  2.5745  0.4091  0.7541
  405MOL0     H53398   9.588   1.202   9.408 -0.2071 -0.2056  3.0636
  405MOL0     H53399   9.325   1.350   9.331  0.8590  1.3400 -4.0038
  405MOL0     H53400   9.355   1.178   9.363 -1.9564 -0.0045 -0.0272
  405MOL0     H53401   9.487   1.156   9.154 -0.3006 -1.1275  2.6578
  405MOL0     H53402   9.462   1.322   9.107  1.0112 -0.2576  0.5238
  405MOL0     H53403   9.253   1.102   9.166 -3.7444  0.2558 -1.5358
  405MOL0     H53404   9.214   1.268   9.133  0.9447  0.5639  1.0193
  405MOL0     H53405   9.354   1.082   8.935 -1.3223 -1.4317  0.1615
  405MOL0     H53406   9.327   1.257   8.912  0.0498  1.0134 -0.0121
  405MOL0     H53407   9.116   1.035   8.973  0.8701  0.5883  2.7233
  405MOL0     H53408   9.173   1.080   8.814  0.7950 -1.5349 -0.1681
  405MOL0     H53409   9.018   1.282   9.010 -3.0317 -0.0917 -0.2965
  405MOL0     H53410   9.082   1.322   8.857 -0.3087  0.7232  1.2925
  405MOL0     H53411   8.845   1.142   8.917  0.9412  0.9839  2.3151
  405MOL0     H53412   8.930   1.138   8.762  1.5789 -1.5239  1.7127
  405MOL0     H53413   8.885   1.483   8.938  1.9256  0.2195 -2.1860
  405MOL0     H53414   8.705   1.692   8.815 -1.9274  0.7122 -2.3319
  405MOL0     H53415   8.668   1.634   8.978  0.3593 -0.3257 -1.5708
  405MOL0     H53416   8.469   1.593   8.755  0.8817  1.5371  0.5069
  405MOL0     H53417   8.461   1.748   8.829 -2.2665 -1.3471  0.4987
  405MOL0     H53418   8.306   1.553   8.921  0.0650 -4.7073 -0.1296
  405MOL0     H53419   8.447   1.469   8.966 -3.2910 -1.3367  0.6880
  405MOL0     H53420   8.373   1.755   9.064  0.2991 -0.8258 -1.5515
  405MOL0     H53421   8.494   1.666   9.137 -0.9985 -1.6151  1.7327
  405MOL0     H53422   8.166   1.758   9.021  1.6099  1.1272  1.7432
  405MOL0     H53423   7.924   1.800   9.046  1.3959  1.5987  1.6708
  405MOL0     H53424   7.492   1.812   9.405  1.6074 -0.7118  1.2986
  405MOL0     H53425   7.264   1.787   9.375  0.5508  0.6501 -1.3752
  405MOL0     H53426   7.091   1.740   9.191  1.0857  0.0019  0.1512
  405MOL0     H53427   7.032   1.723   9.359  0.1278 -1.4519  0.8333
  405MOL0     H53428   6.852   1.702   9.160  1.1462 -1.4141 -3.1816
  405MOL0     H53429   6.864   1.575   9.289 -0.4029  2.5866  1.6417
  405MOL0     H53430   6.998   1.433   9.114  1.1872  0.5935 -0.2531
  405MOL0     H53431   7.002   1.575   9.011  1.4074 -1.2380  0.0206
  405MOL0     H53432   6.760   1.563   8.981 -0.3914  0.9989  3.5975
  405MOL0     H53433   6.845   1.429   8.919  1.9547 -0.2023  1.6213
  405MOL0     H53434   6.621   1.423   9.041  0.3079  0.9002 -0.2216
  405MOL0     H53435   6.710   1.450   9.190  4.0420  0.2158  0.4173
  405MOL0     H53436   6.670   1.222   9.205  1.4659 -1.6737  2.0409
  405MOL0     H53437   6.839   1.247   9.184 -1.0367  1.4835  0.6484
  405MOL0     H53438   6.658   1.173   8.944  1.3948 -1.7412 -1.6480
  405MOL0     H53439   6.817   1.190   8.937 -1.6787  1.1211 -0.2687
  405MOL0     H53440   6.872   1.001   9.102 -0.1628 -1.6022  0.2235
  405MOL0     H53441   6.769   0.962   8.961  1.3986  2.7378 -1.2773
  405MOL0     H53442   7.328   1.381   9.218 -1.6130  1.4596  1.1652
  405MOL0     H53443   7.561   1.412   9.237 -0.1851  0.0398  2.4393
  405MOL0     H53444   7.919   1.551   9.397  1.6369 -3.8093 -0.1479
  405MOL0     H53445   8.148   1.491   9.347 -5.2438 -0.5646  4.0171
  405MOL0     H53446   9.735   1.590   9.272 -0.2319 -1.4063  1.3255
  405MOL0     H53447   9.970   1.654   9.377  1.3660  0.0308  1.5890
  405MOL0     H53448  10.458   1.396   9.443  0.4239 -0.5882  0.2066
  405MOL0     H53449  10.665   1.529   9.486  0.1362  0.5032 -0.7277
  405MOL0     H53450  10.673   1.836   9.821 -0.6092  1.3234 -1.0509
  405MOL0     H53451  10.672   1.940   9.664  0.5465  0.5689  0.1696
  405MOL0     H53452  10.849   1.954   9.812 -1.0745 -0.5950 -0.6787
  405MOL0     H53453  10.873   1.778   9.802 -0.6051  0.5582  1.4626
  405MOL0     H53454  10.905   2.007   9.591  1.1459 -0.2511 -0.1831
  405MOL0     H53455  10.939   1.827   9.549  1.0423  0.4175 -1.3268
  405MOL0     H53456  11.112   1.822   9.708 -0.3221  0.9785  1.5494
  405MOL0     H53457  11.151   1.928   9.582  2.5174 -0.5193  1.1574
  405MOL0     H53458  11.132   2.240   9.851  1.9908  2.7641 -4.7715
  405MOL0     H53459  10.457   1.801   9.742  0.0592 -0.5784  0.1357
  405MOL0     H53460  10.236   1.690   9.664 -0.4737 -0.3381 -4.1394
  406MOL0     O53461   6.088   7.223   2.373  0.5297 -0.2710  0.3839
  406MOL0     C53462   6.017   7.119   2.337  0.5338 -0.7773  0.0002
  406MOL0     O53463   6.030   6.998   2.374  0.2232 -0.0258 -0.4393
  406MOL0     C53464   6.143   6.955   2.429  0.0593 -0.0941  0.5192
  406MOL0     C53465   6.145   6.906   2.562  0.4452  0.7926  0.8386
  406MOL0     C53466   6.261   6.840   2.603  0.1888  0.2720 -0.3254
  406MOL0     C53467   6.375   6.832   2.519  0.1935  0.5879  1.0485
  406MOL0     O53468   6.487   6.771   2.577  0.3351  0.8320 -0.1018
  406MOL0     C53469   6.545   6.671   2.496 -0.5776  0.4180  1.0472
  406MOL0     C53470   6.659   6.584   2.560  0.2439 -0.7555 -0.3665
  406MOL0     C53471   6.782   6.669   2.596 -0.0251  0.4738 -0.4581
  406MOL0     C53472   6.898   6.591   2.661  0.4357 -0.6364 -0.2135
  406MOL0     C53473   7.027   6.679   2.691  0.3522 -0.0285  1.0218
  406MOL0     C53474   7.135   6.597   2.752  0.2456 -1.5203 -0.2284
  406MOL0     C53475   7.249   6.697   2.820  1.3082  0.2120 -0.0035
  406MOL0     C53476   7.368   6.693   2.720 -0.6717 -0.1244 -0.1040
  406MOL0     N53477   7.482   6.763   2.787  0.2420  0.0457 -0.2345
  406MOL0     C53478   7.474   6.893   2.845  0.6338  0.9169  0.3301
  406MOL0     C53479   7.595   6.910   2.891  0.2268  0.2793  0.0762
  406MOL0     C53480   7.649   7.045   2.948 -0.6113  0.2983 -1.2139
  406MOL0     C53481   7.747   7.123   2.870 -0.3119  0.6396 -0.5351
  406MOL0     C53482   7.763   7.260   2.943  0.9366  0.5572 -0.3046
  406MOL0     C53483   7.661   7.359   2.886 -0.5352 -1.1677 -0.5695
  406MOL0     O53484   7.529   7.328   2.949  0.3522 -0.2565 -0.5784
  406MOL0     C53485   7.424   7.416   2.949  0.5417  0.4051  0.5828
  406MOL0     C53486   7.298   7.369   2.975  0.8233 -0.7068  1.1596
  406MOL0     C53487   7.188   7.446   2.949 -0.0333  0.3677 -0.1737
  406MOL0     C53488   7.206   7.575   2.907  0.3248 -0.3332  0.1470
  406MOL0     C53489   7.081   7.653   2.855  0.0459 -0.0400 -0.3944
  406MOL0     O53490   7.105   7.766   2.790 -0.2988 -0.8974  0.5039
  406MOL0     C53491   7.020   7.829   2.703 -0.4517  0.2588 -0.0011
  406MOL0     C53492   6.894   7.783   2.656  0.2474 -0.0403  0.2952
  406MOL0     C53493   6.823   7.857   2.562  0.2777  0.7095 -0.9529
  406MOL0     C53494   6.875   7.973   2.502 -0.1024 -0.3241 -0.8740
  406MOL0     O53495   6.804   8.053   2.412 -0.5583 -0.0132  0.4916
  406MOL0     C53496   6.700   8.132   2.473  0.4184  0.5451 -0.5658
  406MOL0     C53497   6.737   8.213   2.596 -0.6640 -0.0487 -0.0107
  406MOL0     C53498   6.638   8.322   2.654  0.2447 -0.7269 -0.5195
  406MOL0     C53499   6.493   8.299   2.625 -0.5309  0.4842 -0.2879
  406MOL0     C53500   6.408   8.431   2.654  0.3842 -0.5947  0.3789
  406MOL0     C53501   6.356   8.443   2.790 -0.6033 -1.1352  0.1553
  406MOL0     C53502   6.339   8.579   2.852  0.1189 -0.0072  0.3673
  406MOL0     C53503   6.209   8.646   2.810 -0.2178 -0.9727  0.0258
  406MOL0    Cl53504   6.096   8.632   2.941 -0.2251  0.5239 -0.0515
  406MOL0     C53505   6.999   8.019   2.546 -0.5083  0.3608  0.0072
  406MOL0     C53506   7.068   7.944   2.641  0.2365 -0.0508 -0.3016
  406MOL0     O53507   6.971   7.606   2.875 -0.1105 -0.0739 -0.1195
  406MOL0     C53508   7.332   7.631   2.890  0.2621  1.0397 -0.1275
  406MOL0     C53509   7.440   7.549   2.917  0.3729 -1.2288 -0.9922
  406MOL0     N53510   7.673   6.802   2.865  0.2482  1.1896 -0.0181
  406MOL0     N53511   7.606   6.709   2.803  0.4962  0.2006  0.1076
  406MOL0     C53512   6.369   6.891   2.390 -0.0402 -0.7938 -0.0657
  406MOL0     C53513   6.259   6.946   2.346 -0.5673 -0.2976  0.1442
  406MOL0     C53514   5.917   7.136   2.229 -0.0377  0.1958 -1.1030
  406MOL0     C53515   5.835   7.031   2.182  0.4026  0.4402 -0.1575
  406MOL0     C53516   5.742   7.060   2.078  0.7127  0.1463 -0.1976
  406MOL0     C53517   5.728   7.188   2.028 -0.2996 -0.7702  0.2006
  406MOL0     O53518   5.618   7.202   1.942 -0.1579 -0.3982 -0.2113
  406MOL0     C53519   5.561   7.324   1.924  0.6560 -0.2110  0.2349
  406MOL0     C53520   5.464   7.328   1.814  1.2281  0.3836  0.4031
  406MOL0     C53521   5.375   7.460   1.814 -0.4953 -0.4282  1.2444
  406MOL0     C53522   5.248   7.439   1.724 -0.3452  0.1865 -1.1570
  406MOL0     C53523   5.294   7.403   1.594 -0.8314 -0.1495  0.3942
  406MOL0     C53524   5.337   7.386   1.477  0.8266  0.0938  0.2916
  406MOL0     C53525   5.806   7.294   2.079 -1.3855  0.2303  0.3982
  406MOL0     C53526   5.895   7.267   2.174 -0.0684 -0.3076 -0.0180
  406MOL0     H53527   6.048   6.904   2.611 -1.3804 -0.0621 -2.5136
  406MOL0     H53528   6.268   6.806   2.706  2.4638  0.2783 -0.4359
  406MOL0     H53529   6.578   6.715   2.402  1.2094 -2.4303  0.2249
  406MOL0     H53530   6.463   6.606   2.463 -0.7824  0.2474  1.8664
  406MOL0     H53531   6.686   6.504   2.491  0.6298  0.1210 -1.2676
  406MOL0     H53532   6.632   6.534   2.654 -0.0670 -0.2243 -0.1651
  406MOL0     H53533   6.752   6.748   2.666  0.4044 -1.9931  2.7102
  406MOL0     H53534   6.820   6.718   2.506 -0.0525  2.1522  0.3942
  406MOL0     H53535   6.852   6.553   2.753 -1.0799  1.1833 -0.1507
  406MOL0     H53536   6.934   6.508   2.600  0.4619 -0.0671 -0.9834
  406MOL0     H53537   6.997   6.759   2.759  2.6173  3.3053 -1.5244
  406MOL0     H53538   7.064   6.726   2.599  0.5227 -1.4760  0.3232
  406MOL0     H53539   7.181   6.534   2.675  0.8320 -0.5265 -0.7106
  406MOL0     H53540   7.090   6.539   2.833  0.9529 -1.3491  0.3010
  406MOL0     H53541   7.209   6.799   2.822 -0.9645 -0.3185 -4.3442
  406MOL0     H53542   7.284   6.671   2.920  3.3382  2.0482 -0.1714
  406MOL0     H53543   7.330   6.749   2.634 -0.1146  0.8938  0.2887
  406MOL0     H53544   7.399   6.589   2.705 -0.2323 -0.2788  1.6277
  406MOL0     H53545   7.384   6.952   2.843 -1.6730 -2.3251  0.5930
  406MOL0     H53546   7.704   7.030   3.041  0.3008  1.6698 -1.5009
  406MOL0     H53547   7.571   7.119   2.970  1.9200  2.3051  2.0725
  406MOL0     H53548   7.726   7.130   2.763 -0.4847 -0.2306 -0.5692
  406MOL0     H53549   7.844   7.072   2.877 -0.0429  0.5685 -3.4694
  406MOL0     H53550   7.753   7.253   3.052  4.8557  1.8805  0.2824
  406MOL0     H53551   7.865   7.298   2.940  0.0842  3.2654  1.2293
  406MOL0     H53552   7.652   7.366   2.777 -0.6507  4.5786 -0.5202
  406MOL0     H53553   7.695   7.462   2.903 -1.5768 -0.2586 -3.4007
  406MOL0     H53554   7.277   7.265   2.998 -2.4419 -0.0511  1.6282
  406MOL0     H53555   7.091   7.403   2.974  1.4121 -3.1796 -0.0610
  406MOL0     H53556   6.839   7.697   2.691  0.1922  0.0155  0.3461
  406MOL0     H53557   6.720   7.838   2.532 -0.7872  2.1454  1.4824
  406MOL0     H53558   6.632   8.056   2.511 -0.0982 -0.1634 -2.7784
  406MOL0     H53559   6.657   8.188   2.389 -1.0461 -0.9784 -0.8694
  406MOL0     H53560   6.839   8.252   2.583 -0.6620 -0.7569 -2.8117
  406MOL0     H53561   6.737   8.139   2.677 -3.0662  0.1453  0.2287
  406MOL0     H53562   6.675   8.421   2.625 -0.5657  0.1953  1.4242
  406MOL0     H53563   6.648   8.322   2.763 -0.4157  1.4714 -0.4139
  406MOL0     H53564   6.484   8.273   2.519 -0.8446 -0.9581  0.0671
  406MOL0     H53565   6.462   8.218   2.693  1.6647  0.3273  0.6000
  406MOL0     H53566   6.324   8.418   2.585 -1.8107 -1.7903  3.0636
  406MOL0     H53567   6.475   8.515   2.634  3.0843 -2.5487  0.7469
  406MOL0     H53568   6.441   8.408   2.849  0.1245 -1.0885 -0.8518
  406MOL0     H53569   6.274   8.372   2.802 -1.4612 -0.4449 -1.2968
  406MOL0     H53570   6.335   8.562   2.960 -0.1229  0.9030  0.5124
  406MOL0     H53571   6.429   8.638   2.833  0.2760  0.0856  1.3515
  406MOL0     H53572   6.173   8.605   2.715  1.6611  1.7854 -2.0367
  406MOL0     H53573   6.229   8.750   2.784  1.3430 -0.4839  2.7619
  406MOL0     H53574   7.042   8.110   2.506 -0.6972  0.8237  0.8311
  406MOL0     H53575   7.166   7.977   2.672  0.7512 -1.6418 -0.1660
  406MOL0     H53576   7.351   7.732   2.854 -0.4530  2.0896  2.2218
  406MOL0     H53577   7.531   7.600   2.891 -1.5695  2.7323 -0.7145
  406MOL0     H53578   6.457   6.909   2.330 -1.1570 -0.1350 -1.5722
  406MOL0     H53579   6.257   6.985   2.245  1.1752 -1.8064 -0.5376
  406MOL0     H53580   5.845   6.933   2.227  1.4064  0.0977 -1.0880
  406MOL0     H53581   5.675   6.983   2.042  1.9401 -1.5552  0.9687
  406MOL0     H53582   5.647   7.388   1.900 -0.2031  1.3960  1.3286
  406MOL0     H53583   5.513   7.358   2.016 -0.5625  1.5838 -0.9983
  406MOL0     H53584   5.516   7.341   1.718  2.0634  1.5038  0.9782
  406MOL0     H53585   5.397   7.242   1.819 -1.2355  1.6490 -4.5682
  406MOL0     H53586   5.429   7.552   1.791 -1.8056  0.8082  2.7864
  406MOL0     H53587   5.339   7.484   1.915 -1.9279  1.4599  0.3414
  406MOL0     H53588   5.175   7.360   1.745  1.4145 -1.8292 -2.1961
  406MOL0     H53589   5.191   7.532   1.726  1.1273  1.2006 -2.8846
  406MOL0     H53590   5.371   7.389   1.375  2.2086  0.0645  0.7291
  406MOL0     H53591   5.790   7.394   2.039 -1.8378  0.1379  0.3332
  406MOL0     H53592   5.954   7.354   2.201  1.2719 -0.2367 -2.7353
  407MOL0     O53593   3.123   8.009   1.526 -0.4032 -0.1151  0.6088
  407MOL0     C53594   3.223   7.936   1.540  0.0352 -1.1072 -0.5367
  407MOL0     O53595   3.220   7.802   1.570 -0.4951 -0.4936 -0.5140
  407MOL0     C53596   3.097   7.740   1.579  0.5001 -0.1037 -0.2020
  407MOL0     C53597   3.053   7.644   1.490 -0.7548  0.0841  0.7257
  407MOL0     C53598   2.940   7.568   1.527 -0.0701  0.1498 -0.0786
  407MOL0     C53599   2.865   7.599   1.638 -0.6922 -0.4696  0.7721
  407MOL0     O53600   2.748   7.539   1.653  0.9842 -0.6953  0.0770
  407MOL0     C53601   2.727   7.450   1.767 -0.0699 -0.3572  0.4569
  407MOL0     C53602   2.715   7.304   1.741 -0.9196 -0.3343  0.5395
  407MOL0     C53603   2.580   7.261   1.674 -0.4814  0.9403  0.3187
  407MOL0     C53604   2.459   7.331   1.732 -0.1092  0.0799 -0.1398
  407MOL0     C53605   2.330   7.266   1.682  0.2424 -0.8032  0.5132
  407MOL0     C53606   2.215   7.356   1.724 -0.9141  0.7488 -0.1399
  407MOL0     C53607   2.086   7.304   1.660  1.0246  0.4208  0.2692
  407MOL0     C53608   2.062   7.354   1.514 -0.5715 -0.4321 -0.1413
  407MOL0     N53609   1.936   7.294   1.466 -0.6944 -0.4736  0.5560
  407MOL0     C53610   1.816   7.360   1.442 -0.4450 -0.6602  1.0366
  407MOL0     C53611   1.733   7.260   1.413 -0.3218  0.7015  0.1103
  407MOL0     C53612   1.590   7.283   1.366  0.3111 -0.1844  0.1338
  407MOL0     C53613   1.497   7.160   1.356 -0.6330  0.1441  0.4525
  407MOL0     C53614   1.429   7.121   1.491  0.2225 -0.3186 -0.7479
  407MOL0     C53615   1.308   7.023   1.472  0.5125  0.0452 -0.7012
  407MOL0     O53616   1.186   7.105   1.478  0.2089 -0.0467  0.0124
  407MOL0     C53617   1.059   7.048   1.456 -0.8541  0.2959  0.0234
  407MOL0     C53618   1.047   6.910   1.441 -0.5379 -0.1537 -0.6953
  407MOL0     C53619   0.921   6.846   1.418 -0.7008  0.9745  0.0536
  407MOL0     C53620   0.802   6.917   1.406 -0.0750 -0.0780  0.2247
  407MOL0     C53621   0.671   6.844   1.402 -0.1612 -0.7526 -1.1621
  407MOL0     O53622   0.677   6.708   1.410  1.4069 -0.0317  0.0959
  407MOL0     C53623   0.554   6.641   1.401 -0.1402  0.1415 -0.2341
  407MOL0     C53624   0.477   6.633   1.509 -0.0373  0.9834  0.4167
  407MOL0     C53625   0.341   6.594   1.503  0.2775  0.5158  0.2524
  407MOL0     C53626   0.287   6.562   1.382 -0.5607  0.2843  0.4653
  407MOL0     O53627   0.156   6.537   1.375  0.3054  0.3013  0.3643
  407MOL0     C53628   0.101   6.458   1.266  0.1576 -0.1691 -1.1373
  407MOL0     C53629  -0.033   6.408   1.300  0.2343  0.3351  0.2487
  407MOL0     C53630  -0.147   6.512   1.313  0.7173 -0.9251  0.0614
  407MOL0     C53631  -0.285   6.444   1.332  0.7948 -0.5137 -0.3046
  407MOL0     C53632  -0.397   6.550   1.301  0.0018  0.2817 -0.3931
  407MOL0     C53633  -0.520   6.479   1.229 -0.2915 -1.0189  0.0284
  407MOL0     C53634  -0.640   6.569   1.201 -0.8824  0.2549 -0.7752
  407MOL0     C53635  -0.614   6.682   1.095  0.3162  0.3979 -0.6577
  407MOL0    Cl53636  -0.603   6.605   0.934 -0.0189 -0.3632  0.2100
  407MOL0     C53637   0.371   6.565   1.264 -0.0361  0.0756  0.9421
  407MOL0     C53638   0.505   6.600   1.272 -0.6842  0.1253 -0.2591
  407MOL0     O53639   0.572   6.909   1.365 -0.9964  0.2140 -0.3626
  407MOL0     C53640   0.815   7.055   1.432  0.1702  0.0964  0.3211
  407MOL0     C53641   0.941   7.125   1.443 -0.4403  0.6494  0.5392
  407MOL0     N53642   1.809   7.142   1.409  0.6682 -0.2936 -0.2611
  407MOL0     N53643   1.930   7.162   1.441  0.0433  0.2854  0.1707
  407MOL0     C53644   2.909   7.698   1.728 -0.6310 -0.3394  0.0852
  407MOL0     C53645   3.032   7.762   1.701  0.6580 -0.5900  0.8575
  407MOL0     C53646   3.356   8.005   1.542  0.0920  0.8957 -0.5538
  407MOL0     C53647   3.465   7.945   1.608  1.0289  0.1063  0.1178
  407MOL0     C53648   3.593   8.007   1.600 -0.0988 -1.0645  0.5206
  407MOL0     C53649   3.616   8.114   1.521  0.2777 -0.8286  0.4727
  407MOL0     O53650   3.751   8.150   1.527  0.2173 -0.2654 -0.0235
  407MOL0     C53651   3.782   8.260   1.441 -0.0919  0.0436 -0.4232
  407MOL0     C53652   3.928   8.303   1.444 -0.4568 -0.0506 -0.5804
  407MOL0     C53653   3.964   8.348   1.589 -0.4577 -1.0262  0.0454
  407MOL0     C53654   4.110   8.401   1.613  0.2129  0.1212 -0.0428
  407MOL0     C53655   4.201   8.295   1.562  0.0152  0.0638 -0.0259
  407MOL0     C53656   4.300   8.225   1.525  0.7224  0.4530  0.8175
  407MOL0     C53657   3.514   8.173   1.452  0.1531  0.7279  0.4923
  407MOL0     C53658   3.384   8.116   1.464  0.2722 -0.2073  0.0600
  407MOL0     H53659   3.110   7.623   1.400 -1.8275 -1.3394  0.3306
  407MOL0     H53660   2.907   7.487   1.463  0.0899 -0.3996  0.5347
  407MOL0     H53661   2.639   7.494   1.814 -0.8521  1.6024 -2.5554
  407MOL0     H53662   2.808   7.458   1.840  0.1836  2.3990 -0.0272
  407MOL0     H53663   2.725   7.246   1.833 -0.6981 -0.5906  0.3542
  407MOL0     H53664   2.799   7.269   1.680 -0.9833 -1.5579  1.1260
  407MOL0     H53665   2.560   7.154   1.686 -1.3275  0.9506 -0.7639
  407MOL0     H53666   2.586   7.271   1.565 -0.3429 -3.7648 -0.3000
  407MOL0     H53667   2.470   7.319   1.841 -0.8274 -0.3961 -0.1092
  407MOL0     H53668   2.467   7.433   1.693  1.7311 -0.0517 -0.1554
  407MOL0     H53669   2.314   7.163   1.714 -2.4361 -0.8242 -0.6243
  407MOL0     H53670   2.353   7.261   1.575  0.5625 -1.5485  0.6133
  407MOL0     H53671   2.238   7.454   1.680 -1.2380  1.7618  1.8602
  407MOL0     H53672   2.207   7.365   1.832 -1.4823 -1.1251  0.0044
  407MOL0     H53673   2.083   7.195   1.666 -0.5287  0.3685 -0.8807
  407MOL0     H53674   1.999   7.333   1.720 -0.2344 -1.5117 -0.4959
  407MOL0     H53675   2.153   7.331   1.459  2.0118  2.9707  2.2319
  407MOL0     H53676   2.059   7.463   1.510  0.3282 -0.3576  0.6390
  407MOL0     H53677   1.805   7.468   1.438 -1.6073 -0.7927  0.4786
  407MOL0     H53678   1.591   7.336   1.270  0.6045  2.0569  1.3120
  407MOL0     H53679   1.539   7.347   1.438  1.8652  2.0942 -0.6712
  407MOL0     H53680   1.547   7.075   1.308 -0.6377  0.5647 -0.3194
  407MOL0     H53681   1.416   7.180   1.285 -0.6253  2.8540  1.0959
  407MOL0     H53682   1.502   7.070   1.554 -2.9203 -1.7078  2.0297
  407MOL0     H53683   1.398   7.213   1.541 -1.0922 -0.7649 -0.7111
  407MOL0     H53684   1.321   6.950   1.554  3.5815  0.6590 -0.5030
  407MOL0     H53685   1.307   6.968   1.377  2.0613  2.3084 -2.1168
  407MOL0     H53686   1.127   6.841   1.466 -1.3861 -1.4160 -1.3770
  407MOL0     H53687   0.924   6.739   1.436 -3.4367  1.1589  2.2884
  407MOL0     H53688   0.514   6.672   1.603  1.5188  2.4331 -0.7582
  407MOL0     H53689   0.272   6.589   1.586  0.8916  1.4095  0.8292
  407MOL0     H53690   0.174   6.381   1.240 -1.2148 -0.9946 -2.7008
  407MOL0     H53691   0.097   6.516   1.174 -1.4950  0.6242 -0.6081
  407MOL0     H53692  -0.033   6.356   1.397 -2.5066 -0.9371 -0.3212
  407MOL0     H53693  -0.057   6.333   1.224 -0.6970  0.3373  0.5240
  407MOL0     H53694  -0.142   6.580   1.227  0.6570 -1.5841 -0.4781
  407MOL0     H53695  -0.122   6.574   1.399  0.2826  0.9780 -1.1171
  407MOL0     H53696  -0.290   6.371   1.251 -2.3396  1.0855 -1.7287
  407MOL0     H53697  -0.294   6.398   1.431  1.0177  1.2329  0.5864
  407MOL0     H53698  -0.366   6.624   1.227  1.6544 -0.3697 -0.4002
  407MOL0     H53699  -0.432   6.607   1.388 -3.2969  0.2767 -1.5624
  407MOL0     H53700  -0.550   6.392   1.289 -1.0045 -1.8541 -1.4699
  407MOL0     H53701  -0.484   6.443   1.132  0.8408 -2.3460  0.8914
  407MOL0     H53702  -0.724   6.509   1.164 -0.9954 -0.1651  0.1491
  407MOL0     H53703  -0.675   6.619   1.291  0.8623 -1.2191  0.7954
  407MOL0     H53704  -0.520   6.733   1.119  0.3901 -0.0829  0.0784
  407MOL0     H53705  -0.692   6.759   1.102 -1.0790 -1.0231 -0.0831
  407MOL0     H53706   0.335   6.531   1.167  0.3632  0.1589  0.7650
  407MOL0     H53707   0.570   6.616   1.186 -1.8891  1.7014 -0.9152
  407MOL0     H53708   0.729   7.122   1.432 -0.0340 -0.1477  1.2634
  407MOL0     H53709   0.943   7.233   1.443  2.8416  0.7111 -1.4841
  407MOL0     H53710   2.852   7.706   1.820  0.9285 -1.4524  1.1964
  407MOL0     H53711   3.067   7.844   1.763 -1.0131  0.3006  0.7000
  407MOL0     H53712   3.453   7.863   1.679 -4.9716  1.3957  1.1119
  407MOL0     H53713   3.686   7.959   1.628  1.0782  0.4413 -0.6071
  407MOL0     H53714   3.722   8.347   1.467 -0.9234  0.0613 -2.2361
  407MOL0     H53715   3.756   8.224   1.341 -0.2018  0.9499 -0.7316
  407MOL0     H53716   3.992   8.216   1.426  1.8972  1.8685 -2.2672
  407MOL0     H53717   3.957   8.366   1.360  2.1303 -2.3446 -1.5656
  407MOL0     H53718   3.974   8.255   1.647  0.5564  1.5768  4.4804
  407MOL0     H53719   3.884   8.412   1.627 -1.1598 -0.7260 -1.8501
  407MOL0     H53720   4.134   8.495   1.563 -0.3844 -0.3421 -1.2444
  407MOL0     H53721   4.138   8.408   1.718  1.7684  1.1244 -0.4892
  407MOL0     H53722   4.388   8.169   1.500 -0.0643 -0.4446  0.0133
  407MOL0     H53723   3.521   8.258   1.384  1.8024  0.9034  0.8393
  407MOL0     H53724   3.312   8.166   1.400  2.4530  0.0347 -2.4003
  408MOL0     O53725   4.663  10.649   6.917 -0.5867 -0.1477  0.0440
  408MOL0     C53726   4.686  10.608   7.033  0.5096 -1.0156  0.1823
  408MOL0     O53727   4.596  10.568   7.120 -0.4170 -0.9426  0.1450
  408MOL0     C53728   4.459  10.570   7.081  0.5698  0.3944 -0.1354
  408MOL0     C53729   4.405  10.488   6.972  0.6950 -0.3523 -0.6310
  408MOL0     C53730   4.264  10.486   6.949  0.7134 -0.9034  0.8155
  408MOL0     C53731   4.180  10.573   7.023 -0.0431  0.6866 -0.7396
  408MOL0     O53732   4.046  10.547   7.002  0.4373  0.0692  0.0648
  408MOL0     C53733   3.952  10.656   7.023 -0.0038 -0.3253  1.1302
  408MOL0     C53734   3.826  10.648   6.934 -0.0380  0.2483  0.2863
  408MOL0     C53735   3.851  10.587   6.789 -0.0584  0.1845  0.3912
  408MOL0     C53736   3.728  10.597   6.695 -0.0830  0.7732  0.1925
  408MOL0     C53737   3.758  10.530   6.556 -0.8700 -0.5295 -0.5019
  408MOL0     C53738   3.632  10.531   6.474  0.9066  0.0437  0.4493
  408MOL0     C53739   3.587  10.668   6.431  0.2578  0.2743  0.1818
  408MOL0     C53740   3.462  10.652   6.335 -0.1204  0.0175 -0.6957
  408MOL0     N53741   3.434  10.759   6.247  0.0635 -0.2045  0.6474
  408MOL0     C53742   3.413  10.757   6.108 -0.2892 -0.3677  0.8349
  408MOL0     C53743   3.369  10.884   6.079 -0.8361  0.2775 -0.0066
  408MOL0     C53744   3.361  10.946   5.942  0.4917  0.4738  0.0252
  408MOL0     C53745   3.220  10.918   5.874 -0.1503  0.2977  0.4742
  408MOL0     C53746   3.178  10.771   5.822 -1.0979  0.1558 -0.5896
  408MOL0     C53747   3.260  10.740   5.698 -1.0088 -1.0338  0.1348
  408MOL0     O53748   3.392  10.702   5.731  0.8389 -0.3871 -0.3602
  408MOL0     C53749   3.492  10.720   5.635  0.0224  0.1874 -0.7874
  408MOL0     C53750   3.615  10.739   5.688 -0.3896  0.6228 -0.5128
  408MOL0     C53751   3.715  10.737   5.594 -0.7031 -0.5035  0.4385
  408MOL0     C53752   3.695  10.724   5.457 -0.7366  0.0300 -0.2544
  408MOL0     C53753   3.808  10.705   5.362  0.2553 -0.5897  0.0735
  408MOL0     O53754   3.926  10.668   5.411 -0.2711 -0.3546  0.2075
  408MOL0     C53755   4.037  10.685   5.334 -0.2266 -0.8103 -0.6645
  408MOL0     C53756   4.065  10.797   5.265  0.1644 -0.1123  0.0516
  408MOL0     C53757   4.179  10.811   5.183  0.5557 -0.0727  0.3714
  408MOL0     C53758   4.274  10.706   5.181 -0.6832 -0.6016  0.0109
  408MOL0     O53759   4.372  10.732   5.093 -0.5923  1.0297 -1.3947
  408MOL0     C53760   4.490  10.663   5.119  0.1116  0.4917  0.2907
  408MOL0     C53761   4.499  10.546   5.024  0.2951  0.6397  0.1938
  408MOL0     C53762   4.625  10.456   5.053  0.4636 -0.2527  0.6361
  408MOL0     C53763   4.615  10.373   5.180  0.0017 -0.3162 -0.5268
  408MOL0     C53764   4.720  10.266   5.177 -0.1559 -0.4010  0.1464
  408MOL0     C53765   4.822  10.299   5.277 -0.0104  0.9089 -0.1351
  408MOL0     C53766   4.933  10.191   5.272 -0.0074 -0.4305 -0.7058
  408MOL0     C53767   5.043  10.217   5.374 -0.0060  0.1176  0.4534
  408MOL0    Cl53768   5.131  10.359   5.329  0.3420  0.0913 -0.0501
  408MOL0     C53769   4.250  10.592   5.255 -0.9172  0.2068 -0.0492
  408MOL0     C53770   4.136  10.580   5.330  0.2599  0.5425  0.6874
  408MOL0     O53771   3.787  10.722   5.241  0.0542 -0.1389  0.2613
  408MOL0     C53772   3.565  10.720   5.407  0.2504 -0.3515  0.0776
  408MOL0     C53773   3.466  10.719   5.495  0.4816 -0.6789  0.2871
  408MOL0     N53774   3.333  10.949   6.199  0.5316  0.4603 -0.1595
  408MOL0     N53775   3.372  10.871   6.297  0.3616  0.0525  0.3171
  408MOL0     C53776   4.233  10.650   7.126 -1.3754 -0.2650  0.5384
  408MOL0     C53777   4.370  10.641   7.157  0.2034  0.5487  0.0007
  408MOL0     C53778   4.825  10.617   7.073 -0.0254  0.6924  0.4980
  408MOL0     C53779   4.870  10.540   7.186 -0.0528 -0.8560 -0.2007
  408MOL0     C53780   5.005  10.520   7.214  0.3205 -0.0712 -0.7080
  408MOL0     C53781   5.102  10.593   7.139 -0.2489 -0.2032 -0.2205
  408MOL0     O53782   5.230  10.560   7.172 -0.7742 -0.6588 -0.2900
  408MOL0     C53783   5.339  10.640   7.124  0.3904 -0.2558 -0.7295
  408MOL0     C53784   5.469  10.585   7.182 -0.2374 -0.7002 -0.0166
  408MOL0     C53785   5.591  10.625   7.098  0.7374  0.2048  0.1585
  408MOL0     C53786   5.642  10.773   7.107  0.4362 -0.4615  0.0173
  408MOL0     C53787   5.776  10.792   7.051 -0.7182 -0.5828 -1.2038
  408MOL0     C53788   5.885  10.793   6.995 -0.4822  0.5511 -0.5204
  408MOL0     C53789   5.056  10.684   7.047  0.1327 -0.2777  0.4568
  408MOL0     C53790   4.919  10.695   7.005  0.2822  0.2164  0.9124
  408MOL0     H53791   4.474  10.425   6.917  3.3772  0.7773  1.2030
  408MOL0     H53792   4.234  10.417   6.871  1.1215 -1.8534  1.4766
  408MOL0     H53793   4.002  10.753   7.011  1.3802 -0.7576  2.9113
  408MOL0     H53794   3.921  10.666   7.127 -0.4299  3.0197  0.8015
  408MOL0     H53795   3.791  10.750   6.915 -1.9014  0.4965  4.1323
  408MOL0     H53796   3.755  10.587   6.991  0.7980  0.8537  2.0169
  408MOL0     H53797   3.884  10.484   6.806  4.0989  1.5803  1.9937
  408MOL0     H53798   3.928  10.649   6.742 -0.0527 -0.8935 -1.0765
  408MOL0     H53799   3.644  10.556   6.752  0.3600  1.6856  1.5724
  408MOL0     H53800   3.703  10.703   6.682 -1.3669  0.4050 -0.4692
  408MOL0     H53801   3.790  10.426   6.570 -0.1061 -0.1412  0.9022
  408MOL0     H53802   3.839  10.587   6.509  1.2098 -0.5237  2.7204
  408MOL0     H53803   3.559  10.473   6.531  1.8924 -1.0615  0.6269
  408MOL0     H53804   3.652  10.476   6.382 -2.4222  2.3248 -1.8251
  408MOL0     H53805   3.559  10.729   6.518 -1.0465  0.7115 -0.5179
  408MOL0     H53806   3.672  10.727   6.396  0.2912  0.3200  0.3390
  408MOL0     H53807   3.376  10.631   6.399  1.5650 -1.7191  1.1474
  408MOL0     H53808   3.466  10.564   6.270 -2.4643  0.9257 -2.2185
  408MOL0     H53809   3.433  10.677   6.038 -0.3590 -0.7830  1.2753
  408MOL0     H53810   3.440  10.907   5.877 -1.9448 -2.5423 -1.3489
  408MOL0     H53811   3.371  11.051   5.971  0.6574  0.3448  0.4457
  408MOL0     H53812   3.223  10.974   5.780  0.5196 -2.0767 -1.0029
  408MOL0     H53813   3.145  10.956   5.944  0.5949  0.6892  1.0720
  408MOL0     H53814   3.193  10.697   5.901 -2.3022  0.3261 -0.1808
  408MOL0     H53815   3.074  10.775   5.790 -0.6111 -0.7942 -2.4615
  408MOL0     H53816   3.262  10.821   5.625  1.8071  0.4477  1.7032
  408MOL0     H53817   3.230  10.646   5.651 -1.4088 -0.9912  0.3059
  408MOL0     H53818   3.635  10.755   5.793 -0.7409 -3.8363  0.4089
  408MOL0     H53819   3.815  10.745   5.634  0.0834 -3.0393 -0.8040
  408MOL0     H53820   3.994  10.879   5.272  0.4858  0.1717  0.0022
  408MOL0     H53821   4.189  10.894   5.113 -1.9197  0.0088  0.0358
  408MOL0     H53822   4.507  10.623   5.219  0.1939 -3.3629 -1.1009
  408MOL0     H53823   4.567  10.736   5.091  0.6304 -0.3328 -0.5043
  408MOL0     H53824   4.515  10.582   4.922  0.3635  0.1648  0.0314
  408MOL0     H53825   4.406  10.490   5.032 -1.2921  3.0316 -0.5949
  408MOL0     H53826   4.723  10.505   5.047  0.8967 -1.1802 -0.0105
  408MOL0     H53827   4.617  10.380   4.975 -2.5733 -0.2134  0.7890
  408MOL0     H53828   4.623  10.438   5.267 -1.4485  2.8645 -2.5704
  408MOL0     H53829   4.521  10.319   5.191  0.7660 -1.5525  0.1709
  408MOL0     H53830   4.762  10.248   5.078  2.3921 -0.1756  1.1324
  408MOL0     H53831   4.673  10.173   5.210 -1.0230 -0.0300  0.0123
  408MOL0     H53832   4.781  10.305   5.378  0.4867 -1.0103  0.2186
  408MOL0     H53833   4.880  10.387   5.246  3.7651 -1.4293 -0.3877
  408MOL0     H53834   4.886  10.095   5.293 -1.2479  0.5930  1.5633
  408MOL0     H53835   4.970  10.183   5.170  0.5483  0.0336 -0.5460
  408MOL0     H53836   5.111  10.132   5.366 -2.0566 -1.4998 -0.4659
  408MOL0     H53837   5.000  10.214   5.475  0.8136 -2.7087  0.7959
  408MOL0     H53838   4.307  10.500   5.240  1.4847  1.8709 -1.9927
  408MOL0     H53839   4.109  10.489   5.383  0.4574 -0.0522 -0.2057
  408MOL0     H53840   3.538  10.711   5.303 -1.2989 -0.9775  0.4975
  408MOL0     H53841   3.366  10.705   5.455 -0.5678  1.6316  1.9138
  408MOL0     H53842   4.170  10.721   7.180  0.7277 -0.5248  3.5152
  408MOL0     H53843   4.412  10.707   7.232 -1.6011  2.1314 -0.3258
  408MOL0     H53844   4.792  10.486   7.239 -1.9010  1.7320 -0.0698
  408MOL0     H53845   5.032  10.446   7.289 -0.6130  1.6087  1.3898
  408MOL0     H53846   5.328  10.745   7.156  2.0636 -0.6275  1.3310
  408MOL0     H53847   5.329  10.638   7.015 -1.4904  2.3949 -0.7019
  408MOL0     H53848   5.480  10.617   7.286 -0.8968 -1.0378  0.1569
  408MOL0     H53849   5.453  10.477   7.188  1.5654 -1.0275 -0.4558
  408MOL0     H53850   5.585  10.609   6.990  0.4180  2.8751 -0.2862
  408MOL0     H53851   5.674  10.563   7.134  1.6190  1.8784  1.1162
  408MOL0     H53852   5.563  10.828   7.055  0.0488  0.3309  1.3981
  408MOL0     H53853   5.641  10.803   7.212 -0.5778 -4.1845  1.2311
  408MOL0     H53854   5.970  10.804   6.931  0.0063  0.5579  0.1195
  408MOL0     H53855   5.127  10.735   6.983 -1.6780 -0.4350 -1.7910
  408MOL0     H53856   4.907  10.764   6.922 -1.9115  0.2836  1.2509
  409MOL0     O53857   3.877   9.185   9.844  0.2806  0.4963 -0.3716
  409MOL0     C53858   3.961   9.187   9.934  0.6734  0.1993  0.2115
  409MOL0     O53859   3.975   9.105  10.046  0.3531 -0.2123  0.3854
  409MOL0     C53860   3.893   8.999  10.060  0.1630  0.3819 -0.4597
  409MOL0     C53861   3.854   8.911   9.953 -0.2024 -0.0042 -1.0925
  409MOL0     C53862   3.764   8.808   9.985 -0.7632  0.9676 -1.2607
  409MOL0     C53863   3.712   8.788  10.118 -0.1985 -0.5276  0.6862
  409MOL0     O53864   3.614   8.701  10.153  0.2053  0.9529  0.6124
  409MOL0     C53865   3.611   8.584  10.065  0.1756 -0.8950  0.3827
  409MOL0     C53866   3.542   8.469  10.131 -0.6387 -0.2149  0.1890
  409MOL0     C53867   3.398   8.493  10.141  0.3245  1.1320 -0.0240
  409MOL0     C53868   3.311   8.439  10.028 -0.1610 -0.3012  0.0366
  409MOL0     C53869   3.159   8.459  10.044  0.0661 -0.9825 -0.1158
  409MOL0     C53870   3.078   8.398   9.933  0.0501 -0.5655 -0.4264
  409MOL0     C53871   2.923   8.376   9.958 -0.8252 -0.8938 -0.5969
  409MOL0     C53872   2.848   8.307   9.851 -0.1916 -0.1391  0.9488
  409MOL0     N53873   2.899   8.337   9.712  0.2498 -0.4933 -0.4348
  409MOL0     C53874   3.012   8.269   9.668 -0.0486  0.3919 -0.1498
  409MOL0     C53875   3.054   8.344   9.563  0.6214  0.2080  0.5206
  409MOL0     C53876   3.191   8.340   9.494 -0.3494  0.0570  0.0162
  409MOL0     C53877   3.217   8.220   9.415  0.3822  1.3270 -0.4242
  409MOL0     C53878   3.348   8.244   9.338 -0.0789 -0.0688 -0.9918
  409MOL0     C53879   3.390   8.124   9.256 -0.7136  0.2130  0.6863
  409MOL0     O53880   3.296   8.081   9.161  0.0834  0.4640  0.5394
  409MOL0     C53881   3.263   8.160   9.046  0.6352  0.2094 -0.1342
  409MOL0     C53882   3.142   8.122   8.993  0.3338  1.0558 -0.0001
  409MOL0     C53883   3.094   8.195   8.880 -0.4527 -0.0155  0.1274
  409MOL0     C53884   3.181   8.298   8.823  0.2138  0.0012 -0.2788
  409MOL0     C53885   3.126   8.365   8.697 -0.2687 -0.0066 -0.4671
  409MOL0     O53886   3.019   8.309   8.637 -0.1452 -0.0059  0.6867
  409MOL0     C53887   2.965   8.355   8.517 -0.5790  0.1515  0.3424
  409MOL0     C53888   2.923   8.484   8.502 -0.2230  0.1335 -0.4464
  409MOL0     C53889   2.840   8.517   8.397  0.0147 -0.0280 -0.5138
  409MOL0     C53890   2.795   8.416   8.307  0.0920  0.1217 -0.7941
  409MOL0     O53891   2.707   8.441   8.200 -0.2124  0.8684 -0.5098
  409MOL0     C53892   2.583   8.376   8.207  0.1185 -0.1935 -0.8722
  409MOL0     C53893   2.461   8.469   8.159 -0.3713  0.3735 -0.3185
  409MOL0     C53894   2.416   8.568   8.275  0.6955  0.2180 -0.2369
  409MOL0     C53895   2.288   8.651   8.239  0.6507  0.2481 -0.4939
  409MOL0     C53896   2.270   8.779   8.330 -0.0819 -0.1116 -0.3414
  409MOL0     C53897   2.193   8.739   8.454  0.7813  0.4707 -0.1390
  409MOL0     C53898   2.171   8.872   8.538  0.5112 -0.2884 -0.9589
  409MOL0     C53899   2.019   8.892   8.563 -0.0074  0.0027 -0.4269
  409MOL0    Cl53900   2.024   9.036   8.674  0.2413  0.0725  0.1998
  409MOL0     C53901   2.842   8.284   8.326 -0.3011 -0.0826 -0.6933
  409MOL0     C53902   2.915   8.254   8.436  0.3085  0.4921  0.1534
  409MOL0     O53903   3.184   8.469   8.668  0.2806  0.0744  0.3483
  409MOL0     C53904   3.302   8.338   8.885  0.4196  0.3372  0.2943
  409MOL0     C53905   3.345   8.263   9.004  0.1026 -0.2748  1.3769
  409MOL0     N53906   2.978   8.452   9.552  0.2503  0.1276  0.6709
  409MOL0     N53907   2.888   8.454   9.642  0.0452 -0.7431 -0.1451
  409MOL0     C53908   3.759   8.876  10.214 -0.2122  0.6457  0.1717
  409MOL0     C53909   3.844   8.981  10.189  0.4771  0.5866 -0.6306
  409MOL0     C53910   4.066   9.291   9.927  0.6793 -1.1155 -0.2584
  409MOL0     C53911   4.140   9.319  10.043  0.4395 -0.1740 -0.2208
  409MOL0     C53912   4.244   9.410  10.046 -1.0212 -0.5160  0.4455
  409MOL0     C53913   4.293   9.459   9.925  0.6380  0.2001  0.1506
  409MOL0     O53914   4.402   9.539   9.904 -0.2775 -0.1912  0.0081
  409MOL0     C53915   4.481   9.564  10.020  0.3418  0.9162  0.9506
  409MOL0     C53916   4.609   9.644  10.002  0.7843  0.0927  0.1313
  409MOL0     C53917   4.720   9.546   9.945  0.1094 -0.9620 -0.4188
  409MOL0     C53918   4.861   9.575   9.997  0.9609  0.4465  0.6165
  409MOL0     C53919   4.951   9.506   9.911  0.0179  0.3974 -0.3137
  409MOL0     C53920   5.027   9.460   9.831  0.2292 -1.3262 -0.3538
  409MOL0     C53921   4.223   9.433   9.805  0.9712 -0.0453  0.7866
  409MOL0     C53922   4.104   9.358   9.806  0.5945  0.6261 -0.2289
  409MOL0     H53923   3.901   8.929   9.856  0.2629 -0.0655 -0.8827
  409MOL0     H53924   3.747   8.732   9.909  0.1385  0.0143 -0.5486
  409MOL0     H53925   3.712   8.560  10.031  1.0783  2.5559  0.3202
  409MOL0     H53926   3.559   8.624   9.977  3.5980  0.5052 -1.1729
  409MOL0     H53927   3.596   8.457  10.226 -1.9729  0.6717  1.0878
  409MOL0     H53928   3.562   8.385  10.063 -1.4333 -0.6961  0.5341
  409MOL0     H53929   3.380   8.601  10.149 -0.5696  1.0051 -0.2131
  409MOL0     H53930   3.358   8.444  10.231  0.2597  2.2243  0.5699
  409MOL0     H53931   3.350   8.496   9.943  0.7059 -0.7546  0.1209
  409MOL0     H53932   3.329   8.332  10.008  1.8526  0.4280 -2.6437
  409MOL0     H53933   3.136   8.566  10.042 -1.6955 -1.3118  0.5197
  409MOL0     H53934   3.121   8.409  10.134 -1.1182  0.0193 -0.0263
  409MOL0     H53935   3.124   8.299   9.921  0.4093 -0.7621  2.0597
  409MOL0     H53936   3.091   8.466   9.848  3.8513  0.1630  0.5378
  409MOL0     H53937   2.912   8.316  10.049  0.7658  1.2571  1.1248
  409MOL0     H53938   2.881   8.474   9.985  0.8807 -0.4930  0.7356
  409MOL0     H53939   2.741   8.332   9.844 -0.8809 -3.2875 -1.6088
  409MOL0     H53940   2.847   8.199   9.862  4.1731 -0.4152  0.3990
  409MOL0     H53941   3.054   8.182   9.718 -0.9952  0.4986  0.8406
  409MOL0     H53942   3.267   8.351   9.572  0.9817  1.5467 -1.4471
  409MOL0     H53943   3.203   8.426   9.428  0.9218 -1.3774 -1.7163
  409MOL0     H53944   3.140   8.194   9.341  0.1307  2.0735 -0.4282
  409MOL0     H53945   3.222   8.125   9.470  1.7366  1.4564 -0.3131
  409MOL0     H53946   3.353   8.332   9.273  1.0550  0.8041  0.2300
  409MOL0     H53947   3.427   8.267   9.410 -1.9923  2.9721  0.2994
  409MOL0     H53948   3.392   8.043   9.329  1.5755 -0.3319  0.1001
  409MOL0     H53949   3.485   8.145   9.205 -1.4720  4.5583  0.6610
  409MOL0     H53950   3.096   8.034   9.038  1.3297 -0.3190 -1.5678
  409MOL0     H53951   2.994   8.185   8.839 -0.1291  1.6133 -1.1853
  409MOL0     H53952   2.947   8.560   8.576  1.6394  0.5171 -1.3888
  409MOL0     H53953   2.799   8.617   8.394  2.4606  1.0865  0.6160
  409MOL0     H53954   2.566   8.324   8.302 -3.2196 -0.5585 -1.5506
  409MOL0     H53955   2.592   8.303   8.126  0.3215 -2.5000  1.1099
  409MOL0     H53956   2.377   8.404   8.134  1.2773 -1.1323 -2.2563
  409MOL0     H53957   2.473   8.516   8.061 -0.8267 -0.8896 -0.9952
  409MOL0     H53958   2.504   8.627   8.301  0.2534  0.2878  1.2000
  409MOL0     H53959   2.398   8.507   8.364  0.2444 -0.7785 -1.0010
  409MOL0     H53960   2.300   8.682   8.135  1.0221 -0.5393 -0.6889
  409MOL0     H53961   2.198   8.589   8.244  2.2293 -2.5555 -3.3350
  409MOL0     H53962   2.213   8.860   8.283 -1.5250  0.7069  2.5917
  409MOL0     H53963   2.365   8.824   8.362 -0.7869  0.9049  0.3867
  409MOL0     H53964   2.238   8.662   8.517 -0.1226 -0.4575 -0.5997
  409MOL0     H53965   2.100   8.691   8.421  1.5079  0.4048 -2.2245
  409MOL0     H53966   2.224   8.870   8.633  2.1190 -3.4482 -1.7756
  409MOL0     H53967   2.219   8.958   8.492  1.8588 -0.1367  0.6733
  409MOL0     H53968   1.974   8.808   8.616 -1.9403  1.5771  0.6075
  409MOL0     H53969   1.964   8.905   8.469 -0.3980 -2.0332 -0.5220
  409MOL0     H53970   2.798   8.205   8.267 -0.5796 -1.3482  1.1352
  409MOL0     H53971   2.939   8.148   8.450 -0.4948  0.1127 -1.2084
  409MOL0     H53972   3.368   8.418   8.854 -0.3427  1.4071  1.3386
  409MOL0     H53973   3.441   8.281   9.049 -0.2946  0.6877  1.8751
  409MOL0     H53974   3.714   8.862  10.311 -0.9110 -3.2271 -0.5308
  409MOL0     H53975   3.862   9.044  10.276 -0.4768  1.2561 -0.9113
  409MOL0     H53976   4.105   9.280  10.138 -2.3519  1.9345 -0.2646
  409MOL0     H53977   4.299   9.424  10.138 -0.9356 -0.1774  0.3446
  409MOL0     H53978   4.499   9.463  10.058 -1.6744  0.4128  0.6497
  409MOL0     H53979   4.423   9.615  10.098  0.4607 -0.7413  2.1771
  409MOL0     H53980   4.586   9.732   9.941 -1.4962  0.5084  1.5071
  409MOL0     H53981   4.641   9.691  10.095  1.0042  0.4797 -0.1348
  409MOL0     H53982   4.710   9.569   9.838 -1.1580  1.6216  0.1800
  409MOL0     H53983   4.705   9.440   9.967 -0.6380 -0.5382  1.2195
  409MOL0     H53984   4.867   9.684   9.999 -2.1862  0.7083 -0.1400
  409MOL0     H53985   4.874   9.540  10.100 -1.1282  1.3413  1.2281
  409MOL0     H53986   5.094   9.426   9.754 -1.1568  0.6572 -2.5618
  409MOL0     H53987   4.241   9.485   9.712  3.5712  0.0160  1.2489
  409MOL0     H53988   4.045   9.352   9.715 -0.9432 -0.9540  0.8049
  410MOL0     O53989   4.673  10.837   3.382 -0.3035  0.2223 -0.1717
  410MOL0     C53990   4.795  10.812   3.367 -0.0744  0.0383 -0.2063
  410MOL0     O53991   4.850  10.721   3.275 -0.3364  0.3025  0.2646
  410MOL0     C53992   4.769  10.638   3.214 -0.1036 -0.2486  0.1788
  410MOL0     C53993   4.740  10.522   3.289  0.1782 -0.8870 -0.9481
  410MOL0     C53994   4.652  10.427   3.237 -0.8001 -1.3806 -0.2340
  410MOL0     C53995   4.602  10.444   3.106 -0.7033  0.2287 -0.1358
  410MOL0     O53996   4.523  10.350   3.064  0.2364  0.5732  0.5068
  410MOL0     C53997   4.414  10.304   3.145  0.6319 -0.0626 -0.0327
  410MOL0     C53998   4.320  10.238   3.046  0.2820  0.6203  1.2096
  410MOL0     C53999   4.271  10.328   2.930  0.4013  0.1020  0.3272
  410MOL0     C54000   4.174  10.259   2.838  0.3149  0.9708 -0.9374
  410MOL0     C54001   4.037  10.235   2.909 -0.0293  0.8936  0.7790
  410MOL0     C54002   3.937  10.168   2.817  0.3491 -0.0147 -0.1632
  410MOL0     C54003   3.796  10.152   2.877 -0.5171 -0.3421 -0.3548
  410MOL0     C54004   3.712  10.063   2.789 -0.1380 -0.1846  0.1960
  410MOL0     N54005   3.575  10.054   2.845  0.0973 -0.0076  0.7386
  410MOL0     C54006   3.510   9.945   2.894 -0.2941  0.3959 -0.0885
  410MOL0     C54007   3.389   9.990   2.932  0.1775 -0.4510 -1.1661
  410MOL0     C54008   3.277   9.907   2.990  0.3266  0.1889  0.0260
  410MOL0     C54009   3.261   9.769   2.916 -0.3623  0.3939  0.1705
  410MOL0     C54010   3.224   9.782   2.770 -0.1238 -0.0666 -0.3150
  410MOL0     C54011   3.114   9.886   2.730 -0.2669  0.4093  0.5037
  410MOL0     O54012   3.001   9.889   2.813  0.3786 -0.6456 -0.0192
  410MOL0     C54013   2.894   9.811   2.771  0.4994  0.3962  0.4477
  410MOL0     C54014   2.767   9.851   2.811  0.2727  0.2999 -0.5099
  410MOL0     C54015   2.649   9.788   2.771  0.0480 -0.2999 -0.1071
  410MOL0     C54016   2.650   9.673   2.693 -0.0188 -0.4918 -0.6437
  410MOL0     C54017   2.528   9.598   2.661 -0.1932  0.8510 -0.1056
  410MOL0     O54018   2.411   9.656   2.697  0.6439  0.3885 -0.2133
  410MOL0     C54019   2.295   9.582   2.703  0.5878 -0.4829 -0.8758
  410MOL0     C54020   2.259   9.524   2.822 -0.0466 -0.0346  0.2821
  410MOL0     C54021   2.132   9.471   2.847  0.4132  0.0876 -0.4968
  410MOL0     C54022   2.055   9.447   2.734 -1.4668 -0.0010  0.6300
  410MOL0     O54023   1.950   9.368   2.733 -0.3757  0.4592  0.9170
  410MOL0     C54024   1.931   9.267   2.832 -0.4465  0.1772 -0.0544
  410MOL0     C54025   1.797   9.209   2.806 -0.0593  0.2343 -1.7882
  410MOL0     C54026   1.791   9.120   2.680 -0.0254  0.8032 -0.0976
  410MOL0     C54027   1.645   9.085   2.649 -0.3897 -0.4180  0.9695
  410MOL0     C54028   1.621   8.993   2.528  0.6779 -0.0451  0.3903
  410MOL0     C54029   1.466   8.950   2.524 -0.0300  0.1731 -0.1664
  410MOL0     C54030   1.424   8.898   2.387  0.0645  0.5423 -0.7683
  410MOL0     C54031   1.295   8.818   2.401 -0.9462 -1.0681  0.4667
  410MOL0    Cl54032   1.349   8.654   2.453 -0.8153  0.0264  0.0330
  410MOL0     C54033   2.091   9.501   2.614 -0.2436  0.0687 -0.0698
  410MOL0     C54034   2.204   9.573   2.599 -0.0348  1.2583 -0.1174
  410MOL0     O54035   2.538   9.489   2.608  0.4441 -0.3137  0.2287
  410MOL0     C54036   2.781   9.625   2.653  0.6322  0.2393 -0.8497
  410MOL0     C54037   2.902   9.696   2.685  0.1085 -0.4115 -0.1809
  410MOL0     N54038   3.395  10.131   2.927 -0.1068 -0.0169 -0.9095
  410MOL0     N54039   3.504  10.169   2.864  0.6886 -0.1192 -0.2439
  410MOL0     C54040   4.637  10.558   3.034  0.2660  0.3985 -0.2839
  410MOL0     C54041   4.718  10.658   3.091  0.1568  0.5978 -1.0132
  410MOL0     C54042   4.885  10.895   3.450 -0.7935  0.4960  0.0046
  410MOL0     C54043   4.835  10.995   3.526  0.3514  0.2937 -0.9404
  410MOL0     C54044   4.918  11.064   3.609 -0.9395 -0.2363 -0.1223
  410MOL0     C54045   5.064  11.049   3.597  0.1505 -0.3158  0.4125
  410MOL0     O54046   5.160  11.111   3.667 -0.3396 -0.5425 -0.2153
  410MOL0     C54047   5.142  11.251   3.709  0.1812 -0.8923 -0.2089
  410MOL0     C54048   5.136  11.342   3.585 -0.3162  0.2908  0.0287
  410MOL0     C54049   5.253  11.338   3.492  0.1607  0.1428  0.3179
  410MOL0     C54050   5.222  11.252   3.368 -0.4963 -0.0329  0.1109
  410MOL0     C54051   5.351  11.206   3.315  0.8685 -0.3663 -0.0161
  410MOL0     C54052   5.462  11.176   3.280  0.5989  0.2268  1.0085
  410MOL0     C54053   5.109  10.947   3.516 -0.5124 -0.0672 -0.4559
  410MOL0     C54054   5.031  10.878   3.429  0.0855 -0.1046 -0.2173
  410MOL0     H54055   4.757  10.521   3.397 -0.6942 -0.7972 -0.7999
  410MOL0     H54056   4.632  10.336   3.293  1.6314 -2.1460 -0.5211
  410MOL0     H54057   4.368  10.389   3.197  1.8975  1.1459 -0.8068
  410MOL0     H54058   4.442  10.224   3.214  0.0262  0.1682  0.4966
  410MOL0     H54059   4.230  10.223   3.106 -0.8000  0.9451 -0.2949
  410MOL0     H54060   4.356  10.140   3.014  0.7177  0.9912  0.5255
  410MOL0     H54061   4.362  10.360   2.878  0.5565  1.8590  1.6090
  410MOL0     H54062   4.226  10.413   2.982  2.8244  0.5092  1.9125
  410MOL0     H54063   4.154  10.325   2.753 -0.7609  1.3193 -0.4316
  410MOL0     H54064   4.213  10.161   2.812 -4.1174 -0.8170 -1.7547
  410MOL0     H54065   4.000  10.332   2.943 -0.4383  0.5576  1.2985
  410MOL0     H54066   4.043  10.158   2.986 -3.0078 -0.9064 -0.5892
  410MOL0     H54067   3.977  10.069   2.794  1.0579 -0.1768  1.5878
  410MOL0     H54068   3.920  10.220   2.723  0.4261 -1.8336 -1.2120
  410MOL0     H54069   3.797  10.112   2.979  2.3097  0.3953 -0.0238
  410MOL0     H54070   3.745  10.248   2.888  0.2179 -0.1690  2.3791
  410MOL0     H54071   3.752   9.963   2.772 -1.7132 -0.7418 -0.3639
  410MOL0     H54072   3.707  10.102   2.687  1.9610 -0.5656 -0.0933
  410MOL0     H54073   3.556   9.847   2.903  0.2619  0.6063 -0.5907
  410MOL0     H54074   3.182   9.960   2.981 -0.0017 -0.6641 -1.9449
  410MOL0     H54075   3.305   9.881   3.093  2.3236  2.1034  0.0402
  410MOL0     H54076   3.198   9.701   2.976  1.9536 -0.5893  1.6461
  410MOL0     H54077   3.354   9.712   2.910 -1.2813 -1.0989 -0.4077
  410MOL0     H54078   3.314   9.812   2.716 -1.0202 -2.0327 -3.1537
  410MOL0     H54079   3.195   9.683   2.734  2.5301 -1.1331  0.2525
  410MOL0     H54080   3.093   9.872   2.623 -0.5782  3.8356  0.0253
  410MOL0     H54081   3.154   9.987   2.740 -1.3623  0.8211  0.8540
  410MOL0     H54082   2.756   9.931   2.884  0.0567  2.0930 -2.4398
  410MOL0     H54083   2.558   9.836   2.806  0.0068 -0.9410  0.6905
  410MOL0     H54084   2.332   9.537   2.902  0.5929  1.7821 -0.5272
  410MOL0     H54085   2.100   9.433   2.943 -1.7617 -1.2286 -1.6626
  410MOL0     H54086   1.940   9.301   2.936 -0.9114 -2.7459  1.0516
  410MOL0     H54087   2.009   9.191   2.821 -1.4152 -0.6263 -1.8727
  410MOL0     H54088   1.724   9.289   2.793 -1.3467 -1.1004 -3.3063
  410MOL0     H54089   1.760   9.158   2.895 -1.6142  1.3567 -1.7365
  410MOL0     H54090   1.855   9.035   2.704 -0.0525  0.8734  0.2220
  410MOL0     H54091   1.824   9.179   2.594 -2.7653  2.5432 -0.0771
  410MOL0     H54092   1.596   9.041   2.737 -0.7306 -0.0233  0.9775
  410MOL0     H54093   1.594   9.179   2.629  0.3826 -0.5099 -1.7505
  410MOL0     H54094   1.689   8.908   2.539 -2.0896 -2.3579  0.7564
  410MOL0     H54095   1.638   9.053   2.437  2.2031 -2.4805 -1.0597
  410MOL0     H54096   1.410   9.042   2.541 -1.3657 -0.4266 -1.2107
  410MOL0     H54097   1.437   8.877   2.600 -2.7348  1.3911  0.0846
  410MOL0     H54098   1.424   8.990   2.327  0.6016  2.1131  1.5326
  410MOL0     H54099   1.497   8.827   2.346  0.0977 -0.4740  0.9624
  410MOL0     H54100   1.249   8.814   2.302  0.8874 -0.3717 -0.4670
  410MOL0     H54101   1.227   8.854   2.479  1.0382  1.9244  1.0038
  410MOL0     H54102   2.035   9.491   2.521 -2.5754  1.6020  1.1026
  410MOL0     H54103   2.230   9.616   2.502 -2.4432  0.9865 -0.9367
  410MOL0     H54104   2.782   9.534   2.594 -2.8340 -0.3739 -0.2034
  410MOL0     H54105   2.999   9.651   2.665  0.4644  0.8127 -1.3161
  410MOL0     H54106   4.604  10.578   2.932  0.0716  0.0215 -0.2960
  410MOL0     H54107   4.756  10.743   3.034  0.8048  1.6383  0.8637
  410MOL0     H54108   4.732  11.025   3.538  0.4308  0.1778  0.0949
  410MOL0     H54109   4.882  11.140   3.677 -1.1386 -0.1212 -0.3507
  410MOL0     H54110   5.233  11.289   3.756 -0.4297  2.1043 -1.2200
  410MOL0     H54111   5.053  11.262   3.771  0.9465  0.5645  0.6884
  410MOL0     H54112   5.040  11.333   3.533 -1.0698  2.2292  0.9618
  410MOL0     H54113   5.144  11.443   3.627  2.7750 -1.1265  3.3687
  410MOL0     H54114   5.341  11.304   3.549  0.3525 -0.5862 -0.4002
  410MOL0     H54115   5.286  11.430   3.444 -0.3946 -1.3161 -3.1674
  410MOL0     H54116   5.158  11.165   3.383 -1.1289  0.3538 -0.2726
  410MOL0     H54117   5.171  11.320   3.298 -1.6747  1.1108  1.9833
  410MOL0     H54118   5.552  11.166   3.223 -0.9087 -1.5630 -1.2777
  410MOL0     H54119   5.217  10.939   3.511 -0.3546  1.6708 -0.3484
  410MOL0     H54120   5.092  10.810   3.370  2.5466  0.8202  1.1232
  411MOL0     O54121   0.622   4.567   7.326  0.3431 -0.7131  0.3006
  411MOL0     C54122   0.726   4.511   7.359 -0.6857 -0.8269 -0.7237
  411MOL0     O54123   0.743   4.374   7.362 -0.9349  0.2038 -0.6427
  411MOL0     C54124   0.644   4.282   7.336  0.1205  0.1511 -1.0247
  411MOL0     C54125   0.498   4.294   7.344  0.2004  0.4285  0.2461
  411MOL0     C54126   0.414   4.186   7.305 -0.4677  0.1599 -0.9349
  411MOL0     C54127   0.474   4.065   7.265 -0.3775 -0.6550 -0.6047
  411MOL0     O54128   0.385   3.971   7.227 -0.4789  0.2326 -0.6097
  411MOL0     C54129   0.410   3.842   7.268  0.3911  0.1860  0.2850
  411MOL0     C54130   0.274   3.797   7.338 -0.3404 -0.3289 -0.0950
  411MOL0     C54131   0.143   3.817   7.258  0.0873  0.0344  0.0088
  411MOL0     C54132   0.018   3.745   7.318 -0.5053 -0.4712 -0.3650
  411MOL0     C54133  -0.102   3.815   7.250  0.3807 -0.3193 -0.2506
  411MOL0     C54134  -0.131   3.754   7.116  1.1628  0.5156  0.3998
  411MOL0     C54135  -0.283   3.718   7.097 -0.8846 -0.2225  0.1929
  411MOL0     C54136  -0.311   3.649   6.966 -0.2307  0.4736 -0.4675
  411MOL0     N54137  -0.452   3.614   6.947  0.4668 -0.2916  0.7109
  411MOL0     C54138  -0.512   3.502   6.996 -0.7609 -0.5801 -0.9096
  411MOL0     C54139  -0.640   3.529   6.967 -0.0357  0.8041 -0.9900
  411MOL0     C54140  -0.758   3.437   7.009 -1.1554 -0.5374 -0.4537
  411MOL0     C54141  -0.831   3.501   7.131 -0.1484 -0.0869  0.0736
  411MOL0     C54142  -0.823   3.401   7.252 -0.0605 -0.0275  0.4901
  411MOL0     C54143  -0.928   3.396   7.359  0.9440 -0.2940 -0.4275
  411MOL0     O54144  -0.892   3.354   7.487  0.3025 -0.6474  0.5404
  411MOL0     C54145  -0.994   3.318   7.570 -0.1214  0.3112 -0.2802
  411MOL0     C54146  -0.957   3.265   7.698  0.9936 -0.6752 -0.1523
  411MOL0     C54147  -1.049   3.250   7.807  0.3198  0.4661  0.9867
  411MOL0     C54148  -1.180   3.300   7.803  0.8232 -0.1610 -0.0870
  411MOL0     C54149  -1.274   3.293   7.916 -1.0617 -0.1347 -0.3620
  411MOL0     O54150  -1.397   3.337   7.873  0.3523 -0.2108  0.3883
  411MOL0     C54151  -1.514   3.352   7.946 -0.4734  0.2561  0.5784
  411MOL0     C54152  -1.633   3.383   7.878 -0.3240 -0.7662  0.5121
  411MOL0     C54153  -1.758   3.373   7.948 -0.2926 -0.8701  0.8798
  411MOL0     C54154  -1.765   3.345   8.078  0.7672 -0.9393 -0.7388
  411MOL0     O54155  -1.888   3.342   8.140  0.3541 -0.0711  0.2263
  411MOL0     C54156  -1.913   3.234   8.229  0.6006 -0.2855  0.1982
  411MOL0     C54157  -2.052   3.198   8.265  1.1737  0.2169 -0.1055
  411MOL0     C54158  -2.133   3.140   8.150  0.4654 -0.2394 -0.8212
  411MOL0     C54159  -2.280   3.112   8.181  0.3138 -0.0101  0.5794
  411MOL0     C54160  -2.355   3.250   8.199 -1.3926 -0.1035  0.2029
  411MOL0     C54161  -2.498   3.209   8.224 -0.4079  0.3218  0.6560
  411MOL0     C54162  -2.585   3.316   8.265  0.5566 -0.0669 -0.3986
  411MOL0     C54163  -2.724   3.273   8.317  0.1880 -0.2384 -0.0065
  411MOL0    Cl54164  -2.844   3.401   8.334 -0.1631 -0.4251 -0.3150
  411MOL0     C54165  -1.654   3.344   8.145 -0.6305  0.3189 -0.3664
  411MOL0     C54166  -1.524   3.343   8.086 -0.2456 -0.3915 -0.8664
  411MOL0     O54167  -1.248   3.252   8.033  0.8073  0.1170  0.0659
  411MOL0     C54168  -1.225   3.341   7.669 -0.1194  0.5578 -0.2457
  411MOL0     C54169  -1.134   3.345   7.564 -0.3554 -0.0408 -0.9198
  411MOL0     N54170  -0.660   3.649   6.893  0.5007  0.4635  0.2098
  411MOL0     N54171  -0.542   3.695   6.878  0.5312 -0.2394 -0.2547
  411MOL0     C54172   0.612   4.058   7.268  0.5704 -0.0126 -0.0407
  411MOL0     C54173   0.693   4.167   7.296 -0.0386  0.3130  0.0134
  411MOL0     C54174   0.844   4.589   7.404  0.0900  0.5015 -0.6514
  411MOL0     C54175   0.951   4.522   7.456  1.3049  0.5977 -0.8748
  411MOL0     C54176   1.069   4.587   7.492  0.3391  0.1927 -0.5209
  411MOL0     C54177   1.085   4.718   7.462 -0.3058  0.3949 -0.2184
  411MOL0     O54178   1.190   4.791   7.474  0.3833  0.2288 -0.9256
  411MOL0     C54179   1.314   4.731   7.463 -0.5522  0.3000  0.6105
  411MOL0     C54180   1.425   4.850   7.460  0.5789 -0.2963 -0.6710
  411MOL0     C54181   1.438   4.904   7.604 -0.6406  0.0303 -0.5642
  411MOL0     C54182   1.562   4.987   7.629  0.6864  0.2460  0.7019
  411MOL0     C54183   1.673   4.906   7.656 -0.3593 -0.6399  0.0984
  411MOL0     C54184   1.771   4.834   7.683  0.7606 -0.1478  0.0125
  411MOL0     C54185   0.972   4.787   7.415  0.7219 -0.0708  0.4433
  411MOL0     C54186   0.851   4.726   7.382 -0.2835 -0.9009 -0.0795
  411MOL0     H54187   0.452   4.389   7.367  0.4038  0.4391  0.6294
  411MOL0     H54188   0.310   4.210   7.286 -0.1589  3.2271  0.4929
  411MOL0     H54189   0.491   3.826   7.340 -0.6860 -2.6686  1.0011
  411MOL0     H54190   0.439   3.779   7.183  0.0621  0.9219 -0.3867
  411MOL0     H54191   0.264   3.845   7.436  0.8697 -5.5704  2.9531
  411MOL0     H54192   0.292   3.690   7.345  0.2336 -0.2634 -0.5299
  411MOL0     H54193   0.162   3.784   7.156  2.4915 -0.8571  0.6644
  411MOL0     H54194   0.116   3.923   7.262 -0.9088 -0.0928 -1.9789
  411MOL0     H54195  -0.004   3.640   7.300  1.0469 -1.1825  1.5122
  411MOL0     H54196   0.018   3.774   7.423 -0.0143 -0.9869 -0.2205
  411MOL0     H54197  -0.090   3.923   7.236  2.7869 -0.4964 -0.0005
  411MOL0     H54198  -0.186   3.790   7.315 -0.4090 -0.4100 -1.2831
  411MOL0     H54199  -0.076   3.661   7.099  0.6727  0.6649 -2.4338
  411MOL0     H54200  -0.098   3.817   7.033 -0.5281  1.6070  0.5109
  411MOL0     H54201  -0.308   3.652   7.181  2.7826 -1.3543  0.6049
  411MOL0     H54202  -0.342   3.810   7.096 -1.5854 -0.6750 -0.3915
  411MOL0     H54203  -0.247   3.562   6.951 -1.0491 -0.2753  0.2795
  411MOL0     H54204  -0.276   3.729   6.899  0.9853  1.2936  1.0805
  411MOL0     H54205  -0.470   3.418   7.051  0.4478  0.3632 -0.3496
  411MOL0     H54206  -0.724   3.336   7.033 -0.7066 -0.6561 -1.5487
  411MOL0     H54207  -0.832   3.415   6.931 -0.5078 -0.4528 -1.1011
  411MOL0     H54208  -0.937   3.521   7.114 -0.5658 -2.1450 -0.0073
  411MOL0     H54209  -0.793   3.600   7.157  0.1314 -0.3142  0.5499
  411MOL0     H54210  -0.843   3.302   7.210  1.0899 -0.0035 -0.1527
  411MOL0     H54211  -0.721   3.414   7.291  0.5680  0.7225 -1.3083
  411MOL0     H54212  -1.018   3.352   7.316  0.6288  3.0289 -3.7379
  411MOL0     H54213  -0.953   3.500   7.383 -0.3423 -1.3141  3.3348
  411MOL0     H54214  -0.851   3.247   7.717  0.7165 -0.3955  1.9335
  411MOL0     H54215  -1.016   3.226   7.907  0.8192  1.6494  1.1203
  411MOL0     H54216  -1.618   3.423   7.778  1.7826  0.8321  1.3833
  411MOL0     H54217  -1.853   3.399   7.901  0.5733 -0.4388 -0.6731
  411MOL0     H54218  -1.859   3.262   8.321  0.5366 -0.7382  0.3743
  411MOL0     H54219  -1.858   3.147   8.193 -1.3403 -1.5689  0.2188
  411MOL0     H54220  -2.103   3.288   8.299 -0.0554 -0.9517  1.2680
  411MOL0     H54221  -2.055   3.122   8.343  0.8037  1.3247  0.9842
  411MOL0     H54222  -2.078   3.055   8.108  1.5151  1.1804 -2.4889
  411MOL0     H54223  -2.134   3.211   8.066  0.0889  0.5096 -0.1922
  411MOL0     H54224  -2.325   3.053   8.100  2.6104  0.7616 -1.3621
  411MOL0     H54225  -2.301   3.050   8.269 -2.1268 -2.9821 -1.8396
  411MOL0     H54226  -2.342   3.328   8.124  1.6786  2.1193  2.8031
  411MOL0     H54227  -2.320   3.309   8.284 -2.0901  2.8410 -1.4348
  411MOL0     H54228  -2.498   3.127   8.296 -0.4905 -3.6940 -3.4671
  411MOL0     H54229  -2.536   3.181   8.125 -0.4176 -1.6842  1.1836
  411MOL0     H54230  -2.543   3.393   8.330  0.7979 -0.3053 -0.2696
  411MOL0     H54231  -2.600   3.372   8.172  0.8534  1.2794  0.3470
  411MOL0     H54232  -2.718   3.218   8.411 -1.8969 -1.3384 -0.4527
  411MOL0     H54233  -2.773   3.215   8.238 -0.0992 -0.2355  0.1698
  411MOL0     H54234  -1.670   3.330   8.252  0.5704  0.7016 -0.1210
  411MOL0     H54235  -1.443   3.332   8.157 -2.9088  0.4440  2.5790
  411MOL0     H54236  -1.327   3.366   7.641 -0.5183 -1.8932 -1.2423
  411MOL0     H54237  -1.173   3.380   7.469  0.5915  1.3237 -0.8249
  411MOL0     H54238   0.655   3.960   7.249  0.3998 -0.0168 -0.4201
  411MOL0     H54239   0.797   4.141   7.279  0.2922 -0.0736  2.3997
  411MOL0     H54240   0.924   4.423   7.491 -1.7630  2.1068  1.4715
  411MOL0     H54241   1.146   4.538   7.551  0.9766  1.1471 -0.5411
  411MOL0     H54242   1.319   4.664   7.377 -3.5840  0.0845  0.4997
  411MOL0     H54243   1.325   4.667   7.551 -0.7703  1.3891  1.4550
  411MOL0     H54244   1.516   4.806   7.418  1.4279  0.9071 -0.1675
  411MOL0     H54245   1.403   4.939   7.400 -1.0104  0.6124  1.1397
  411MOL0     H54246   1.434   4.821   7.675  4.0577  2.1181  2.6488
  411MOL0     H54247   1.350   4.966   7.617  0.7365  2.0348 -0.3975
  411MOL0     H54248   1.586   5.036   7.534 -0.4748  0.4422  0.4920
  411MOL0     H54249   1.547   5.057   7.712  0.2970  1.3593 -0.2748
  411MOL0     H54250   1.848   4.763   7.706  0.9680 -0.4534 -1.5457
  411MOL0     H54251   0.959   4.894   7.399 -0.5954 -0.1873  0.6056
  411MOL0     H54252   0.770   4.793   7.356 -1.4368 -1.0518  2.7774
  412MOL0     O54253   5.729   0.763   4.965  0.1303  0.0155  0.6505
  412MOL0     C54254   5.784   0.721   5.069  0.4359 -0.8170  0.0018
  412MOL0     O54255   5.710   0.677   5.180 -0.1451 -0.1476  0.0172
  412MOL0     C54256   5.574   0.659   5.173 -0.3912  1.1704 -0.4848
  412MOL0     C54257   5.485   0.753   5.114  0.2319  0.1361  0.3738
  412MOL0     C54258   5.346   0.730   5.107  0.2145 -0.0929  1.1592
  412MOL0     C54259   5.283   0.619   5.157 -0.7145 -0.4106 -0.1289
  412MOL0     O54260   5.153   0.600   5.180  0.4461 -0.1348 -0.0657
  412MOL0     C54261   5.075   0.717   5.212  0.0542  0.1579 -0.0439
  412MOL0     C54262   4.950   0.656   5.261 -0.7825 -0.1188 -0.2409
  412MOL0     C54263   4.966   0.597   5.404 -0.3462 -0.0016  0.0119
  412MOL0     C54264   4.839   0.542   5.475  0.6185 -0.0101  0.3249
  412MOL0     C54265   4.842   0.566   5.627 -1.8522  0.2198  1.2348
  412MOL0     C54266   4.757   0.472   5.698 -0.4970 -1.0557  0.2418
  412MOL0     C54267   4.609   0.502   5.704 -0.3740 -0.2765  0.5652
  412MOL0     C54268   4.531   0.406   5.621 -0.6333  0.2355 -0.3841
  412MOL0     N54269   4.398   0.448   5.581 -0.8180 -0.1479 -0.7259
  412MOL0     C54270   4.288   0.410   5.649 -0.3311  0.3048 -0.0135
  412MOL0     C54271   4.185   0.462   5.576 -0.4653 -0.4529  1.1654
  412MOL0     C54272   4.039   0.433   5.595 -0.8625  0.3856 -0.5064
  412MOL0     C54273   3.963   0.503   5.708 -0.2524 -0.4622  0.5545
  412MOL0     C54274   3.810   0.503   5.729  0.1868 -0.6896  0.1026
  412MOL0     C54275   3.766   0.568   5.862 -0.5619 -0.2996 -0.6589
  412MOL0     O54276   3.660   0.493   5.914 -0.2996 -0.0807  0.2157
  412MOL0     C54277   3.670   0.370   5.979  0.1336  0.3386 -0.3624
  412MOL0     C54278   3.554   0.316   6.042 -0.5914  0.5898 -0.2942
  412MOL0     C54279   3.555   0.186   6.098 -0.1130  0.2533 -0.0637
  412MOL0     C54280   3.671   0.109   6.084  0.6481 -0.7144  0.1002
  412MOL0     C54281   3.686  -0.023   6.151  0.1799 -0.1069 -0.1361
  412MOL0     O54282   3.815  -0.071   6.146  0.5326 -0.0422  0.8423
  412MOL0     C54283   3.846  -0.205   6.169 -0.1797  0.5178 -0.2150
  412MOL0     C54284   3.759  -0.320   6.147  1.1677  0.2669 -0.1128
  412MOL0     C54285   3.796  -0.445   6.183  0.2340 -0.3461 -0.3053
  412MOL0     C54286   3.925  -0.475   6.215 -0.2143  0.7016 -0.2976
  412MOL0     O54287   3.942  -0.607   6.260  0.5282 -0.1540  0.2989
  412MOL0     C54288   4.075  -0.656   6.245 -0.1974  0.2589  0.7752
  412MOL0     C54289   4.076  -0.803   6.242  0.5887 -0.6248 -0.5637
  412MOL0     C54290   3.986  -0.874   6.142 -0.3978  0.1474 -0.2584
  412MOL0     C54291   4.012  -1.028   6.142  0.1778  0.0867 -0.3667
  412MOL0     C54292   3.923  -1.094   6.036 -0.9648  0.0766  0.5404
  412MOL0     C54293   3.978  -1.233   5.993  1.0210  0.4953 -0.2603
  412MOL0     C54294   3.961  -1.353   6.096 -0.1573  0.6496 -0.3379
  412MOL0     C54295   3.807  -1.377   6.109 -0.2779 -0.3283 -0.3760
  412MOL0    Cl54296   3.776  -1.455   6.282 -0.4432  0.4950  0.1127
  412MOL0     C54297   4.015  -0.371   6.230 -0.1894 -0.3757 -0.0251
  412MOL0     C54298   3.978  -0.236   6.209  0.3789 -0.5408 -0.3606
  412MOL0     O54299   3.592  -0.076   6.207  0.4324 -0.1628  0.6223
  412MOL0     C54300   3.776   0.160   6.001 -1.2394  0.4144  0.0295
  412MOL0     C54301   3.781   0.284   5.950  0.7626  0.0683 -0.0815
  412MOL0     N54302   4.239   0.527   5.467 -0.3595  0.4092 -0.6530
  412MOL0     N54303   4.369   0.522   5.472  0.0914 -0.0858 -0.4363
  412MOL0     C54304   5.377   0.519   5.210  0.3649  0.3912 -0.3471
  412MOL0     C54305   5.522   0.534   5.212  0.0127 -0.6914  0.0087
  412MOL0     C54306   5.937   0.730   5.075  0.1811  0.4069 -0.0899
  412MOL0     C54307   6.014   0.683   4.963  0.3239  0.6443 -0.8777
  412MOL0     C54308   6.149   0.699   4.952 -0.7799  0.1885 -0.0563
  412MOL0     C54309   6.225   0.754   5.054  0.3306 -0.1852  0.1922
  412MOL0     O54310   6.357   0.783   5.032  0.5518  0.1631 -0.4947
  412MOL0     C54311   6.418   0.900   5.087  0.0513  0.0771  0.7295
  412MOL0     C54312   6.380   1.014   4.993 -0.2309  0.1263  0.1459
  412MOL0     C54313   6.485   1.131   5.007  0.6129 -0.3578 -0.2222
  412MOL0     C54314   6.442   1.254   4.941  0.0963  0.0850  0.7534
  412MOL0     C54315   6.533   1.366   4.944  0.8490 -0.5304  0.6300
  412MOL0     C54316   6.613   1.456   4.955  0.0585 -0.3326 -0.2428
  412MOL0     C54317   6.156   0.791   5.167  0.2386  0.1302 -0.4653
  412MOL0     C54318   6.015   0.788   5.182  0.0648  0.5479  0.5776
  412MOL0     H54319   5.524   0.848   5.079  0.0376 -0.6265 -2.1102
  412MOL0     H54320   5.279   0.804   5.064  1.6531 -0.4550 -2.0147
  412MOL0     H54321   5.046   0.771   5.122  0.7087 -3.3671 -2.5691
  412MOL0     H54322   5.128   0.787   5.277 -1.7273  2.4811 -0.9904
  412MOL0     H54323   4.922   0.575   5.194 -2.7031 -0.3802  0.8151
  412MOL0     H54324   4.875   0.736   5.261 -0.3168  0.3303 -0.5198
  412MOL0     H54325   5.018   0.677   5.457 -0.0199  1.0381 -1.7979
  412MOL0     H54326   5.034   0.513   5.388  0.9790  0.5539  2.2549
  412MOL0     H54327   4.760   0.601   5.429  3.5681  3.9084 -0.1844
  412MOL0     H54328   4.831   0.439   5.439  1.7628  0.0509 -0.1430
  412MOL0     H54329   4.814   0.671   5.636  0.9089  1.1655  0.1455
  412MOL0     H54330   4.944   0.576   5.665 -1.4969  1.6360  0.0385
  412MOL0     H54331   4.771   0.486   5.806 -2.5012  0.5079  0.3680
  412MOL0     H54332   4.776   0.367   5.672  0.9126 -0.9559  0.8040
  412MOL0     H54333   4.553   0.516   5.797  0.5540  2.0673  0.8462
  412MOL0     H54334   4.591   0.600   5.658  0.0890  0.2413  1.4545
  412MOL0     H54335   4.541   0.306   5.663 -1.2450  0.0319 -0.7076
  412MOL0     H54336   4.596   0.402   5.534  0.8121 -1.9120  0.7262
  412MOL0     H54337   4.280   0.356   5.743  0.3163 -1.0605 -0.7214
  412MOL0     H54338   4.031   0.326   5.618  0.0763 -0.3506 -3.1726
  412MOL0     H54339   3.987   0.443   5.499 -1.9551 -0.0484  0.0344
  412MOL0     H54340   3.992   0.607   5.692 -0.7314 -0.6156 -1.6463
  412MOL0     H54341   4.001   0.467   5.804  0.6415  1.1158  0.8332
  412MOL0     H54342   3.772   0.557   5.641 -0.0793  0.9689  1.1953
  412MOL0     H54343   3.761   0.406   5.717 -1.2688  0.1787 -1.4741
  412MOL0     H54344   3.734   0.670   5.840 -1.7208 -1.1871 -3.6588
  412MOL0     H54345   3.848   0.568   5.934 -2.2864 -1.9692  1.4772
  412MOL0     H54346   3.464   0.375   6.058 -1.5587 -0.6087 -1.1173
  412MOL0     H54347   3.471   0.152   6.157 -0.3623  0.9290 -0.0173
  412MOL0     H54348   3.661  -0.300   6.105  2.2345 -2.2997 -4.5237
  412MOL0     H54349   3.729  -0.530   6.182  1.0317 -0.9882 -0.6279
  412MOL0     H54350   4.145  -0.612   6.317  1.7131 -0.0200 -0.8413
  412MOL0     H54351   4.117  -0.624   6.149 -1.5891 -0.3643 -0.0632
  412MOL0     H54352   4.050  -0.839   6.342  2.0092 -1.2060 -0.3732
  412MOL0     H54353   4.173  -0.849   6.218  0.7676 -0.3949 -0.3025
  412MOL0     H54354   4.031  -0.832   6.052  0.7479  1.7769  1.0277
  412MOL0     H54355   3.879  -0.850   6.153 -0.7315 -0.6356 -1.5176
  412MOL0     H54356   4.118  -1.050   6.123  0.1744 -1.4164  1.1519
  412MOL0     H54357   3.988  -1.075   6.238 -1.2081 -0.1402 -0.8092
  412MOL0     H54358   3.932  -1.033   5.946  1.7233  0.2517  0.8337
  412MOL0     H54359   3.817  -1.093   6.064 -1.1064  3.3836  0.2253
  412MOL0     H54360   4.086  -1.225   5.973  0.2322  2.0248 -5.2383
  412MOL0     H54361   3.939  -1.262   5.895  1.3152 -0.2179 -0.1768
  412MOL0     H54362   4.012  -1.444   6.065 -0.0115 -0.5107  2.8742
  412MOL0     H54363   3.995  -1.325   6.196 -3.1229 -0.6742  1.1690
  412MOL0     H54364   3.789  -1.452   6.031  2.9781  0.4874 -2.1253
  412MOL0     H54365   3.740  -1.293   6.091 -0.2654  0.0460  1.2085
  412MOL0     H54366   4.119  -0.393   6.251  0.7531  1.1609 -2.5741
  412MOL0     H54367   4.054  -0.159   6.217 -2.1108  2.0377 -0.0193
  412MOL0     H54368   3.862   0.103   5.967  0.2857  3.8029 -2.2594
  412MOL0     H54369   3.858   0.318   5.881  0.2809  0.1811 -0.5738
  412MOL0     H54370   5.324   0.426   5.228 -2.0381  1.3327 -2.0191
  412MOL0     H54371   5.596   0.471   5.260  0.5151  0.0895  0.2735
  412MOL0     H54372   5.962   0.619   4.893 -0.4648  0.0935  0.1783
  412MOL0     H54373   6.203   0.653   4.870  0.7139  0.6299  0.6496
  412MOL0     H54374   6.528   0.900   5.084  0.0333  0.6216  0.1185
  412MOL0     H54375   6.394   0.933   5.189 -0.8681  1.3681  0.1185
  412MOL0     H54376   6.384   0.972   4.892 -2.4043 -2.6125  1.0682
  412MOL0     H54377   6.283   1.051   5.026  0.0101  1.3230 -0.4500
  412MOL0     H54378   6.577   1.107   4.953  0.5001 -0.3017 -0.4391
  412MOL0     H54379   6.507   1.153   5.112  3.1296  1.0962 -0.9727
  412MOL0     H54380   6.423   1.218   4.839  1.8655 -1.1517  0.8074
  412MOL0     H54381   6.351   1.284   4.994  0.8255 -2.4488  3.7321
  412MOL0     H54382   6.692   1.528   4.950  0.0380 -0.3560 -1.1557
  412MOL0     H54383   6.204   0.832   5.255 -0.3469  1.8902 -0.9231
  412MOL0     H54384   5.978   0.838   5.272  1.3425  0.6746  1.0496
  413MOL0     O54385   8.899   2.386   4.299  0.3105  0.1959 -0.0332
  413MOL0     C54386   8.957   2.326   4.207  0.3553 -0.0098  0.4661
  413MOL0     O54387   8.907   2.214   4.129 -0.3260  0.7408 -1.1810
  413MOL0     C54388   8.782   2.183   4.153 -0.2305 -0.3298 -0.6714
  413MOL0     C54389   8.737   2.126   4.275  0.0369 -0.3056 -0.5353
  413MOL0     C54390   8.605   2.094   4.282 -0.7857  0.1676  0.4067
  413MOL0     C54391   8.509   2.122   4.184 -0.3133 -0.4071 -0.4833
  413MOL0     O54392   8.378   2.079   4.211 -0.4886  0.5488  0.1783
  413MOL0     C54393   8.274   2.176   4.174 -0.2244  1.1733 -0.1749
  413MOL0     C54394   8.135   2.113   4.178  0.8531 -0.0589  0.0837
  413MOL0     C54395   8.104   2.002   4.068 -0.0123 -0.6398  0.1203
  413MOL0     C54396   7.951   1.960   4.089 -0.2275 -0.1140 -0.8260
  413MOL0     C54397   7.904   1.872   3.980  1.2969  0.4078 -0.0974
  413MOL0     C54398   7.941   1.724   3.984 -0.7632 -0.0165 -0.7620
  413MOL0     C54399   7.903   1.649   3.858  0.1792  0.1767 -0.3587
  413MOL0     C54400   7.908   1.498   3.870  0.3333 -0.6275 -0.2050
  413MOL0     N54401   8.037   1.439   3.855 -0.4028 -0.5319 -0.5106
  413MOL0     C54402   8.133   1.420   3.947 -0.1903 -0.5913  0.9388
  413MOL0     C54403   8.229   1.347   3.884  0.6070 -0.2283 -0.3580
  413MOL0     C54404   8.354   1.276   3.934  0.0959 -0.6255 -0.2102
  413MOL0     C54405   8.417   1.349   4.048 -0.1876 -0.5667  0.1665
  413MOL0     C54406   8.564   1.302   4.087 -0.0811  0.4375  0.6651
  413MOL0     C54407   8.674   1.339   3.978  0.6615 -0.2379 -0.8983
  413MOL0     O54408   8.799   1.282   4.018  0.0170  0.4657  0.1256
  413MOL0     C54409   8.915   1.351   4.029  0.3191 -0.0331  0.4611
  413MOL0     C54410   9.018   1.299   4.099 -0.2387 -1.1143 -0.3514
  413MOL0     C54411   9.150   1.355   4.073  0.5497 -0.0784 -0.7830
  413MOL0     C54412   9.175   1.457   3.981 -0.3886  0.0807 -0.0250
  413MOL0     C54413   9.313   1.519   3.967  0.8797  0.3341  0.0757
  413MOL0     O54414   9.424   1.459   4.031 -0.1299 -1.1326  0.3277
  413MOL0     C54415   9.553   1.515   4.017 -0.6444 -0.1021  0.6675
  413MOL0     C54416   9.578   1.653   4.003  0.4207  0.7044  0.1114
  413MOL0     C54417   9.709   1.693   3.996 -0.5294 -0.1941  0.1252
  413MOL0     C54418   9.819   1.600   4.002  0.2858 -0.1628 -0.2265
  413MOL0     O54419   9.944   1.653   3.978  0.5021 -0.3240 -0.0868
  413MOL0     C54420  10.064   1.569   3.973  0.2864 -0.2005  0.0408
  413MOL0     C54421  10.187   1.660   3.948 -0.2300 -0.3487 -0.1422
  413MOL0     C54422  10.317   1.600   4.004 -0.2480  0.3372  0.3547
  413MOL0     C54423  10.425   1.704   3.968  0.2969  0.0369  0.0561
  413MOL0     C54424  10.557   1.641   3.984 -1.0483  0.4586 -1.0209
  413MOL0     C54425  10.586   1.601   4.129  0.3146  0.6186  0.2181
  413MOL0     C54426  10.591   1.717   4.233 -0.1452 -0.1951  1.4423
  413MOL0     C54427  10.589   1.689   4.384  0.2498 -0.3277  0.3605
  413MOL0    Cl54428  10.717   1.571   4.424 -0.1639 -0.1377 -0.2681
  413MOL0     C54429   9.788   1.468   4.027  0.7329  0.6445 -0.1501
  413MOL0     C54430   9.661   1.428   4.038 -0.2655  1.1728 -0.2380
  413MOL0     O54431   9.318   1.608   3.887  0.5421  0.3205 -1.0558
  413MOL0     C54432   9.072   1.507   3.907 -0.3674  0.1790  0.3355
  413MOL0     C54433   8.944   1.451   3.937 -0.2989 -1.7769 -0.2691
  413MOL0     N54434   8.195   1.342   3.754 -0.5456 -0.4973  0.8504
  413MOL0     N54435   8.080   1.392   3.736 -0.5493  0.5161 -0.2282
  413MOL0     C54436   8.551   2.177   4.064  0.4721  0.4846 -0.8497
  413MOL0     C54437   8.686   2.218   4.053  0.1733  0.6502 -0.5323
  413MOL0     C54438   9.089   2.380   4.175 -0.3316  0.8386 -0.3493
  413MOL0     C54439   9.147   2.328   4.058  0.1084  0.6970 -0.1975
  413MOL0     C54440   9.268   2.381   4.015 -0.2219 -0.1388 -0.1308
  413MOL0     C54441   9.327   2.484   4.091  0.3280  0.2902 -0.0416
  413MOL0     O54442   9.454   2.510   4.061 -0.8089  0.0267  0.1520
  413MOL0     C54443   9.534   2.591   4.143  0.7114 -0.3297  0.0805
  413MOL0     C54444   9.662   2.597   4.070  1.3218  0.2868  0.2149
  413MOL0     C54445   9.743   2.460   4.069 -0.8315 -0.8123 -0.4938
  413MOL0     C54446   9.893   2.492   4.049  0.7075  0.5206  0.6836
  413MOL0     C54447   9.960   2.553   4.166  0.5030 -0.3833  0.7472
  413MOL0     C54448  10.022   2.617   4.247 -0.4118 -0.8565  0.3431
  413MOL0     C54449   9.272   2.537   4.214  0.2204  0.3606 -0.0222
  413MOL0     C54450   9.152   2.476   4.249 -0.3667  0.1620  0.6202
  413MOL0     H54451   8.805   2.110   4.358  0.6222  4.2243  0.1261
  413MOL0     H54452   8.556   2.054   4.370 -0.6158  2.2311  1.4979
  413MOL0     H54453   8.289   2.223   4.076 -0.6652  1.2534 -0.2050
  413MOL0     H54454   8.281   2.255   4.250  0.3053  1.4700 -0.5180
  413MOL0     H54455   8.060   2.188   4.152 -0.6795 -1.1642  1.1176
  413MOL0     H54456   8.116   2.084   4.282 -0.0933 -0.3345 -0.1572
  413MOL0     H54457   8.174   1.919   4.070 -0.1110 -0.7751  3.6077
  413MOL0     H54458   8.101   2.051   3.970 -2.0935 -1.4616 -0.2809
  413MOL0     H54459   7.939   1.911   4.186  1.0299 -0.3811 -0.7836
  413MOL0     H54460   7.896   2.054   4.096  0.4576  0.2234  0.5799
  413MOL0     H54461   7.933   1.916   3.884  1.9767 -1.9465 -1.0296
  413MOL0     H54462   7.796   1.877   3.993  0.6321 -3.0617 -2.8198
  413MOL0     H54463   7.882   1.672   4.059 -0.5148  1.8135  0.7874
  413MOL0     H54464   8.050   1.714   3.997 -0.9728  0.0805  1.4682
  413MOL0     H54465   7.796   1.671   3.848  0.4889  2.0416  0.0465
  413MOL0     H54466   7.964   1.683   3.774  0.8508 -0.8733 -0.3015
  413MOL0     H54467   7.846   1.464   3.787  0.0795 -0.4057 -0.1058
  413MOL0     H54468   7.855   1.466   3.961  0.3743 -0.8303 -0.2522
  413MOL0     H54469   8.110   1.435   4.052 -2.0480 -1.5180  0.6970
  413MOL0     H54470   8.419   1.270   3.847  0.6340  1.3659  0.0140
  413MOL0     H54471   8.325   1.172   3.955 -1.6513 -0.1342 -0.0470
  413MOL0     H54472   8.349   1.344   4.133 -0.1229 -1.7618  0.1734
  413MOL0     H54473   8.432   1.453   4.019  1.8857  0.1504  3.2891
  413MOL0     H54474   8.584   1.352   4.182 -1.3431  2.6003 -0.1133
  413MOL0     H54475   8.562   1.194   4.103  1.8912  0.4568  1.2786
  413MOL0     H54476   8.682   1.448   3.979 -2.6339  0.1349 -1.9956
  413MOL0     H54477   8.640   1.307   3.879  0.6469  1.5987 -1.5335
  413MOL0     H54478   9.016   1.221   4.174 -0.3402  0.1225  0.9838
  413MOL0     H54479   9.236   1.322   4.131 -2.3671 -0.0713  4.1784
  413MOL0     H54480   9.503   1.731   4.001  1.1992  1.5154  1.2652
  413MOL0     H54481   9.725   1.800   3.986 -1.2417 -0.1147 -0.2887
  413MOL0     H54482  10.044   1.497   3.894 -0.5323 -0.6402  0.6372
  413MOL0     H54483  10.083   1.512   4.064  1.6906 -0.4128 -0.3700
  413MOL0     H54484  10.171   1.750   4.008  1.0906 -1.3643  1.8238
  413MOL0     H54485  10.186   1.689   3.842 -1.7669  1.5633  0.3199
  413MOL0     H54486  10.343   1.503   3.962 -1.4424  1.0026 -2.1150
  413MOL0     H54487  10.303   1.584   4.111  0.7388 -0.5026  0.3653
  413MOL0     H54488  10.414   1.737   3.864  2.5980  1.2840  0.1518
  413MOL0     H54489  10.414   1.786   4.040 -1.8473 -1.4658  1.5820
  413MOL0     H54490  10.638   1.712   3.966 -0.7972  0.1766 -1.0098
  413MOL0     H54491  10.569   1.556   3.917  3.1839 -1.5231  1.8315
  413MOL0     H54492  10.685   1.553   4.134 -0.0269 -0.5321 -2.2634
  413MOL0     H54493  10.522   1.518   4.161  1.2955 -0.2755 -0.0652
  413MOL0     H54494  10.671   1.788   4.208  0.5098 -1.7461 -1.1477
  413MOL0     H54495  10.497   1.770   4.213 -1.4515 -1.9457  2.6947
  413MOL0     H54496  10.499   1.629   4.395 -1.4254  2.1418  1.0220
  413MOL0     H54497  10.578   1.775   4.451 -0.2728  0.0906 -0.2513
  413MOL0     H54498   9.870   1.400   4.050 -0.9699 -1.3134  0.3633
  413MOL0     H54499   9.635   1.327   4.070 -2.5513  1.2206 -1.6918
  413MOL0     H54500   9.081   1.586   3.833  2.9019 -1.1169 -0.8153
  413MOL0     H54501   8.863   1.488   3.876  1.3657  1.0914 -0.9309
  413MOL0     H54502   8.468   2.198   3.997 -1.6376  0.6586  1.6326
  413MOL0     H54503   8.727   2.260   3.961  1.3602 -3.6368 -2.2365
  413MOL0     H54504   9.091   2.250   4.007 -0.1215  0.9516 -0.3390
  413MOL0     H54505   9.314   2.356   3.920  2.7999 -1.0854  1.4259
  413MOL0     H54506   9.559   2.552   4.242 -0.8538 -2.0970 -0.1681
  413MOL0     H54507   9.484   2.688   4.157  1.3128 -0.2512  1.9961
  413MOL0     H54508   9.641   2.635   3.970  0.5544 -0.8372 -0.0562
  413MOL0     H54509   9.713   2.677   4.125  0.4194  1.5637 -0.7577
  413MOL0     H54510   9.706   2.397   3.989 -1.4018  0.7072 -1.4714
  413MOL0     H54511   9.740   2.404   4.163 -1.0606 -0.5693 -0.3556
  413MOL0     H54512   9.940   2.398   4.021 -3.2072 -1.5830  0.6078
  413MOL0     H54513   9.914   2.559   3.964  1.6230 -3.0296 -2.1459
  413MOL0     H54514  10.076   2.692   4.301 -1.4991  0.1004  0.1376
  413MOL0     H54515   9.319   2.606   4.284  1.6785 -1.0153  0.4295
  413MOL0     H54516   9.096   2.520   4.331  0.6854  0.7546  1.0457
  414MOL0     O54517   0.010   9.236   3.342  0.1851  0.0301 -0.3501
  414MOL0     C54518   0.050   9.149   3.262 -0.8792 -0.4604  0.1355
  414MOL0     O54519  -0.022   9.060   3.193  0.4006  0.4065 -0.7604
  414MOL0     C54520  -0.158   9.066   3.214 -0.3210  0.4117 -0.5719
  414MOL0     C54521  -0.232   9.178   3.187  0.8430  0.2060  0.3792
  414MOL0     C54522  -0.377   9.179   3.180 -0.7560 -0.0086 -0.5034
  414MOL0     C54523  -0.446   9.064   3.206  0.0893 -0.3691  0.6546
  414MOL0     O54524  -0.581   9.058   3.222 -0.0932  0.4143  0.1065
  414MOL0     C54525  -0.655   9.068   3.098 -0.2884  0.0272  0.0006
  414MOL0     C54526  -0.807   9.046   3.114  0.1845  0.9535 -0.8219
  414MOL0     C54527  -0.875   9.180   3.146 -0.0986  0.4105 -0.0240
  414MOL0     C54528  -0.943   9.243   3.022  0.0908 -0.3379  0.0714
  414MOL0     C54529  -1.076   9.304   3.055 -0.1067  0.2067 -1.0451
  414MOL0     C54530  -1.153   9.354   2.926  0.0756 -0.0230 -0.1438
  414MOL0     C54531  -1.290   9.415   2.971 -0.5636  0.0538 -0.1953
  414MOL0     C54532  -1.376   9.474   2.856 -0.5291  0.0610 -0.1245
  414MOL0     N54533  -1.506   9.541   2.896 -0.7627 -0.3394 -1.1626
  414MOL0     C54534  -1.611   9.475   2.962  0.6687  0.3670 -0.1552
  414MOL0     C54535  -1.692   9.573   3.004  0.0888 -0.0772 -0.2768
  414MOL0     C54536  -1.819   9.553   3.086 -0.3293 -0.2568  0.0902
  414MOL0     C54537  -1.937   9.647   3.053  0.5974  0.3406 -0.0847
  414MOL0     C54538  -2.051   9.603   3.137 -0.1697  0.0837 -0.2363
  414MOL0     C54539  -2.174   9.690   3.109  0.5164 -0.1708  0.6487
  414MOL0     O54540  -2.288   9.651   3.189 -0.0927  0.2649 -0.0023
  414MOL0     C54541  -2.393   9.742   3.210  0.1834  0.3207 -0.3334
  414MOL0     C54542  -2.432   9.839   3.116 -0.0193  0.3387 -0.0957
  414MOL0     C54543  -2.542   9.922   3.146 -0.6682  0.2767 -0.1933
  414MOL0     C54544  -2.621   9.898   3.254 -0.7487  0.1943  0.3009
  414MOL0     C54545  -2.733   9.988   3.284 -0.3758 -0.7871 -0.6500
  414MOL0     O54546  -2.786   9.983   3.410 -0.0562 -0.1788 -0.4819
  414MOL0     C54547  -2.904  10.043   3.447  0.2202 -0.4813  0.7160
  414MOL0     C54548  -3.019  10.059   3.369  0.5610 -0.0997  1.0191
  414MOL0     C54549  -3.135  10.098   3.430 -0.0186 -0.4659  0.2714
  414MOL0     C54550  -3.136  10.138   3.557 -0.1224 -0.2046 -0.1979
  414MOL0     O54551  -3.258  10.189   3.604 -0.4150 -0.4238 -0.0311
  414MOL0     C54552  -3.237  10.275   3.718  0.1455  0.3600 -0.4561
  414MOL0     C54553  -3.374  10.345   3.729  0.3283 -0.1534  0.1872
  414MOL0     C54554  -3.389  10.438   3.847 -0.0230 -0.1694 -0.5425
  414MOL0     C54555  -3.481  10.374   3.949  0.3814  0.0641  0.6758
  414MOL0     C54556  -3.630  10.382   3.901 -0.3051 -0.1580 -0.5020
  414MOL0     C54557  -3.681  10.523   3.918  0.1323  0.0282 -0.1178
  414MOL0     C54558  -3.719  10.558   4.054 -0.2889 -0.3722  0.4308
  414MOL0     C54559  -3.864  10.519   4.081  0.4711 -0.0579  0.1410
  414MOL0    Cl54560  -3.919  10.622   4.215  0.0539  0.1606 -0.6023
  414MOL0     C54561  -3.019  10.139   3.636 -0.7337  0.9781  0.0726
  414MOL0     C54562  -2.908  10.079   3.580  0.3330  0.1553 -0.2875
  414MOL0     O54563  -2.788  10.045   3.191 -1.4564 -0.5520  0.3367
  414MOL0     C54564  -2.588   9.794   3.347 -0.3779 -0.3655  0.1793
  414MOL0     C54565  -2.473   9.720   3.327 -0.1691  0.2466 -0.0438
  414MOL0     N54566  -1.637   9.693   2.962  0.6420 -0.1054 -0.1085
  414MOL0     N54567  -1.530   9.677   2.904 -0.3494  0.2132 -0.1469
  414MOL0     C54568  -0.374   8.951   3.233 -0.3849  0.2308 -0.2893
  414MOL0     C54569  -0.236   8.948   3.237 -0.3676 -0.3563  0.1516
  414MOL0     C54570   0.196   9.133   3.257 -0.4695  0.5162  0.1352
  414MOL0     C54571   0.273   9.159   3.368  0.8226 -0.1401  0.6837
  414MOL0     C54572   0.409   9.133   3.361  0.1894 -0.2484  0.2641
  414MOL0     C54573   0.473   9.089   3.243  0.5137 -0.6599 -0.2540
  414MOL0     O54574   0.603   9.095   3.235 -0.4719  0.4366 -0.5478
  414MOL0     C54575   0.679   9.038   3.124  0.3067 -0.4205  0.0638
  414MOL0     C54576   0.665   8.887   3.108 -0.9851 -0.0245  0.1247
  414MOL0     C54577   0.752   8.805   3.201  0.3748 -0.2519 -0.0122
  414MOL0     C54578   0.735   8.653   3.201  0.2389  0.3412  0.1825
  414MOL0     C54579   0.811   8.589   3.305  0.2544 -1.2012  0.1514
  414MOL0     C54580   0.890   8.545   3.386 -0.3488  0.8875  0.1023
  414MOL0     C54581   0.382   9.051   3.139  0.6629 -0.6071  0.0611
  414MOL0     C54582   0.252   9.072   3.136 -0.0687 -0.0019 -0.3222
  414MOL0     H54583  -0.183   9.274   3.172  0.9184  0.0852 -0.1610
  414MOL0     H54584  -0.427   9.270   3.147  1.5544  1.3608 -0.4274
  414MOL0     H54585  -0.607   9.000   3.026 -0.8176 -1.2906  0.8606
  414MOL0     H54586  -0.638   9.166   3.053  0.4390  0.0408  0.2940
  414MOL0     H54587  -0.811   8.986   3.206  0.3583  0.8336 -0.8914
  414MOL0     H54588  -0.856   8.981   3.041 -2.6130 -1.5320  2.9207
  414MOL0     H54589  -0.810   9.255   3.192 -1.2103  0.5067  1.4545
  414MOL0     H54590  -0.948   9.162   3.225  1.0863 -1.3195  0.7464
  414MOL0     H54591  -0.879   9.309   2.963 -0.1442  1.8857  2.1400
  414MOL0     H54592  -0.962   9.167   2.946 -0.0993 -1.6164  1.3346
  414MOL0     H54593  -1.062   9.380   3.132  0.6275 -1.0502  0.1194
  414MOL0     H54594  -1.138   9.226   3.099 -0.9999  1.5290  0.1305
  414MOL0     H54595  -1.181   9.272   2.859  1.7215 -0.9005  0.1879
  414MOL0     H54596  -1.084   9.428   2.884  1.4256  0.5288  2.8314
  414MOL0     H54597  -1.353   9.336   3.013 -0.8754  0.0599 -0.6453
  414MOL0     H54598  -1.293   9.493   3.047 -1.7829 -0.7725  0.6418
  414MOL0     H54599  -1.409   9.396   2.786 -1.4783  2.1337 -2.1006
  414MOL0     H54600  -1.309   9.547   2.810  2.6294 -0.8370  2.6812
  414MOL0     H54601  -1.631   9.368   2.972 -1.0774  0.7875  1.5678
  414MOL0     H54602  -1.791   9.573   3.191 -0.1172  0.6991 -0.1344
  414MOL0     H54603  -1.848   9.448   3.087 -1.0190 -0.0826 -0.9338
  414MOL0     H54604  -1.966   9.622   2.950 -1.9397  0.2944  0.5756
  414MOL0     H54605  -1.922   9.755   3.064 -1.6881  0.7517 -0.3901
  414MOL0     H54606  -2.082   9.502   3.107 -0.1516  0.6114 -2.1344
  414MOL0     H54607  -2.024   9.604   3.243 -0.4011  0.3472 -0.1813
  414MOL0     H54608  -2.206   9.676   3.005 -0.6489  1.1474  0.8039
  414MOL0     H54609  -2.149   9.795   3.128  0.1335  0.2183 -0.8259
  414MOL0     H54610  -2.376   9.864   3.026 -0.1061 -0.7206 -0.4496
  414MOL0     H54611  -2.560  10.001   3.073  3.1404 -0.5502 -2.3395
  414MOL0     H54612  -3.018  10.012   3.271 -0.8625 -1.6269  1.6903
  414MOL0     H54613  -3.224  10.093   3.368 -1.0211 -0.6665  1.6703
  414MOL0     H54614  -3.166  10.357   3.704  0.9615  0.1701  2.0788
  414MOL0     H54615  -3.211  10.214   3.805  1.5971  0.2988 -0.9126
  414MOL0     H54616  -3.459  10.280   3.708 -0.3493  0.6606  0.3583
  414MOL0     H54617  -3.373  10.407   3.639 -0.9708 -2.2590 -1.3649
  414MOL0     H54618  -3.428  10.532   3.807 -2.1346 -0.5139  0.5742
  414MOL0     H54619  -3.294  10.462   3.895  0.1610  1.1506 -1.5045
  414MOL0     H54620  -3.464  10.266   3.950 -0.8870 -0.2638 -2.2619
  414MOL0     H54621  -3.461  10.409   4.051  1.8707 -1.7640  1.0792
  414MOL0     H54622  -3.700  10.317   3.954 -2.3153  0.7324 -1.9444
  414MOL0     H54623  -3.638  10.357   3.795  3.7108  1.4225 -1.3635
  414MOL0     H54624  -3.766  10.526   3.849  1.1137 -0.8496 -1.4338
  414MOL0     H54625  -3.608  10.595   3.879  1.8141 -2.7828 -2.5507
  414MOL0     H54626  -3.639  10.527   4.122  0.8943  3.9771  1.3591
  414MOL0     H54627  -3.731  10.666   4.065 -0.7997 -0.2667 -0.9755
  414MOL0     H54628  -3.868  10.414   4.109  0.5948  0.2692  1.4482
  414MOL0     H54629  -3.942  10.532   4.006  0.0477  1.7923  0.8342
  414MOL0     H54630  -3.022  10.176   3.738 -3.6583  4.8027 -1.1657
  414MOL0     H54631  -2.819  10.079   3.643  1.8169 -0.4606 -2.2721
  414MOL0     H54632  -2.643   9.776   3.439  0.4450  2.1735  1.2541
  414MOL0     H54633  -2.436   9.633   3.381 -0.7519 -2.0334 -3.0308
  414MOL0     H54634  -0.435   8.867   3.264  0.2719 -0.1988 -0.1368
  414MOL0     H54635  -0.184   8.854   3.252  0.2102 -0.4022 -1.8317
  414MOL0     H54636   0.231   9.183   3.465  2.9657  0.4903  1.5127
  414MOL0     H54637   0.481   9.154   3.439 -0.5311  0.0393  0.8573
  414MOL0     H54638   0.785   9.060   3.138  0.1766  0.3559 -0.1169
  414MOL0     H54639   0.649   9.095   3.035 -1.5479  2.2853  2.2478
  414MOL0     H54640   0.558   8.861   3.114 -1.5796  2.3675  0.8209
  414MOL0     H54641   0.693   8.865   3.005 -0.2101  3.6407 -0.5961
  414MOL0     H54642   0.743   8.839   3.304  2.1619  2.2105 -0.5809
  414MOL0     H54643   0.857   8.823   3.176  1.2284 -4.5010 -0.3177
  414MOL0     H54644   0.631   8.621   3.209 -0.7518  3.4539  1.1774
  414MOL0     H54645   0.763   8.610   3.104 -0.8186 -0.5851  0.2767
  414MOL0     H54646   0.956   8.512   3.464 -1.7522 -0.9934  0.5372
  414MOL0     H54647   0.415   8.996   3.052  0.9239 -2.0584  1.0339
  414MOL0     H54648   0.196   9.037   3.050  0.0358  1.0535 -0.8319
  415MOL0     O54649   2.404   5.208   3.038  0.2130 -0.8196 -0.1593
  415MOL0     C54650   2.528   5.207   3.032  0.1916  0.2133  0.2373
  415MOL0     O54651   2.610   5.242   2.928  0.2486 -0.0566  0.6611
  415MOL0     C54652   2.551   5.306   2.818 -0.0774 -0.1550  0.3494
  415MOL0     C54653   2.564   5.443   2.805 -0.0245 -0.4512  0.7047
  415MOL0     C54654   2.510   5.499   2.688  0.6125  0.1704 -0.3331
  415MOL0     C54655   2.454   5.426   2.584  0.0494  0.3947  0.1956
  415MOL0     O54656   2.413   5.497   2.477 -0.1946  0.0757  0.0259
  415MOL0     C54657   2.332   5.444   2.364 -0.4257 -0.7038  0.1094
  415MOL0     C54658   2.192   5.428   2.422 -0.8379 -0.3482 -1.1568
  415MOL0     C54659   2.090   5.382   2.320  0.2399  0.5917 -0.0054
  415MOL0     C54660   2.097   5.246   2.252  0.5962 -0.4322  0.5439
  415MOL0     C54661   2.098   5.129   2.347 -0.7591 -0.1385  1.2430
  415MOL0     C54662   2.115   4.998   2.270 -0.4017  0.0514 -0.6359
  415MOL0     C54663   2.168   4.901   2.377  0.3586  0.0075 -0.2988
  415MOL0     C54664   2.219   4.775   2.327  0.0150  0.7530 -0.1581
  415MOL0     N54665   2.253   4.673   2.430 -0.5288  0.0722 -0.0981
  415MOL0     C54666   2.156   4.597   2.490  0.4846  0.2822 -0.1827
  415MOL0     C54667   2.222   4.487   2.532  0.0001 -0.1686 -0.2981
  415MOL0     C54668   2.161   4.368   2.602  0.6348  0.2198 -0.3043
  415MOL0     C54669   2.222   4.347   2.738  0.6661  0.3345  0.8360
  415MOL0     C54670   2.189   4.214   2.821 -0.4389 -0.3899  0.2927
  415MOL0     C54671   2.052   4.169   2.807  0.3091  0.1575  0.0841
  415MOL0     O54672   2.034   4.058   2.898  0.2780  1.0131  0.2652
  415MOL0     C54673   1.909   4.009   2.914 -0.6061 -0.3272 -0.0702
  415MOL0     C54674   1.900   3.898   2.994  0.0074  0.5978 -0.2530
  415MOL0     C54675   1.781   3.823   3.006 -0.8616 -0.2021  0.4948
  415MOL0     C54676   1.665   3.869   2.939 -0.0684 -0.1924 -0.0826
  415MOL0     C54677   1.534   3.800   2.958  0.0662  0.4080  0.1820
  415MOL0     O54678   1.430   3.857   2.894 -0.2305 -0.0496  0.3068
  415MOL0     C54679   1.300   3.816   2.900  0.3979 -0.2569  0.3337
  415MOL0     C54680   1.222   3.852   2.786 -0.2139 -0.1431 -0.5796
  415MOL0     C54681   1.093   3.817   2.786 -0.2959 -0.1038 -0.2280
  415MOL0     C54682   1.032   3.744   2.889 -1.1372 -0.4819 -0.0959
  415MOL0     O54683   0.894   3.720   2.902 -0.6279  0.1309  1.0144
  415MOL0     C54684   0.824   3.742   2.778 -0.3852 -0.0096 -0.1704
  415MOL0     C54685   0.681   3.701   2.791  0.4970  0.3702 -1.0339
  415MOL0     C54686   0.599   3.786   2.876  0.1044 -0.1095  0.2507
  415MOL0     C54687   0.445   3.748   2.870  0.0677 -0.3790 -0.3171
  415MOL0     C54688   0.409   3.611   2.948  0.1035  0.5032 -0.6936
  415MOL0     C54689   0.270   3.546   2.894  0.1263 -0.5590  0.5232
  415MOL0     C54690   0.140   3.611   2.947 -0.0320 -0.1683  0.2131
  415MOL0     C54691   0.023   3.565   2.862 -0.1934 -0.6826 -0.0456
  415MOL0    Cl54692  -0.112   3.658   2.930 -0.1186 -0.1425  0.2588
  415MOL0     C54693   1.110   3.699   2.997 -0.7465  0.2879  0.3001
  415MOL0     C54694   1.243   3.738   2.999 -0.0622 -0.1266  0.3075
  415MOL0     O54695   1.536   3.694   3.021 -0.1381 -0.3477  0.1899
  415MOL0     C54696   1.675   3.975   2.856  0.6092 -0.4140  0.4475
  415MOL0     C54697   1.794   4.042   2.840 -0.1332  0.9700 -0.4024
  415MOL0     N54698   2.346   4.493   2.485  0.3428 -0.1535  0.8252
  415MOL0     N54699   2.369   4.610   2.431  0.6115  0.0238  0.0516
  415MOL0     C54700   2.450   5.287   2.599  0.4301 -0.2692 -0.2947
  415MOL0     C54701   2.495   5.227   2.716 -0.0299  0.0767 -0.6211
  415MOL0     C54702   2.603   5.159   3.153  0.0912 -0.1672  0.4725
  415MOL0     C54703   2.536   5.130   3.276 -0.1058  0.2187 -0.2707
  415MOL0     C54704   2.617   5.105   3.389  0.4587  0.0077  0.7185
  415MOL0     C54705   2.754   5.104   3.380  0.0337 -0.4875 -0.5569
  415MOL0     O54706   2.820   5.064   3.491 -0.2160 -0.3604  0.3627
  415MOL0     C54707   2.962   5.081   3.495 -0.8275 -0.9178  0.1740
  415MOL0     C54708   3.018   5.031   3.629  0.5683  0.5739  0.7991
  415MOL0     C54709   3.014   4.880   3.648  0.4572  0.1751 -0.7514
  415MOL0     C54710   3.055   4.839   3.793  0.0453 -0.6725  0.2931
  415MOL0     C54711   2.925   4.784   3.849  0.1116 -0.7509 -0.3339
  415MOL0     C54712   2.816   4.744   3.887 -0.1333 -0.6785  0.2231
  415MOL0     C54713   2.819   5.132   3.262  0.8966 -0.8145 -0.1495
  415MOL0     C54714   2.744   5.163   3.144 -0.5119  0.8367 -0.4259
  415MOL0     H54715   2.613   5.507   2.878  1.1092  1.4763 -1.5745
  415MOL0     H54716   2.516   5.607   2.674 -0.6352  0.1679 -1.1263
  415MOL0     H54717   2.379   5.356   2.319 -1.6348 -0.8915 -0.8283
  415MOL0     H54718   2.335   5.526   2.291  0.9002 -0.9542 -0.1507
  415MOL0     H54719   2.160   5.523   2.464 -1.0395  0.3038 -2.6921
  415MOL0     H54720   2.199   5.364   2.510 -2.1151  0.5141 -0.4007
  415MOL0     H54721   2.082   5.457   2.241  0.2665  0.2853 -0.3055
  415MOL0     H54722   1.989   5.393   2.361 -0.4366 -3.8740  0.0644
  415MOL0     H54723   2.017   5.239   2.178 -0.4404  0.5443  1.5175
  415MOL0     H54724   2.197   5.254   2.210  0.7490  1.5730  1.1453
  415MOL0     H54725   2.021   5.123   2.424  1.3320 -1.8804  3.3497
  415MOL0     H54726   2.175   5.129   2.424 -3.4702  0.6021  4.1799
  415MOL0     H54727   2.191   5.014   2.192 -0.9149 -0.4091 -1.2403
  415MOL0     H54728   2.018   4.964   2.234  0.4435 -0.2570 -2.7911
  415MOL0     H54729   2.256   4.938   2.430 -0.4809  0.5917  0.7133
  415MOL0     H54730   2.095   4.897   2.458  2.7555 -2.1162  1.9318
  415MOL0     H54731   2.304   4.794   2.260 -1.5334  1.2921 -2.0823
  415MOL0     H54732   2.137   4.746   2.260 -0.9149  1.0411  0.8327
  415MOL0     H54733   2.051   4.616   2.512  0.5886  0.3902  0.2250
  415MOL0     H54734   2.174   4.283   2.534 -0.8991 -0.5153  0.2959
  415MOL0     H54735   2.053   4.378   2.608  0.7347  0.9567  0.4751
  415MOL0     H54736   2.192   4.433   2.798  0.0482 -0.3282  1.4873
  415MOL0     H54737   2.329   4.359   2.716  0.0932  1.2032 -1.8778
  415MOL0     H54738   2.269   4.144   2.795 -0.6714 -0.5915  0.1110
  415MOL0     H54739   2.203   4.223   2.929  2.1283 -1.7476  0.1438
  415MOL0     H54740   2.040   4.142   2.702  2.0639  0.4610 -0.2195
  415MOL0     H54741   1.976   4.244   2.831  1.2530  0.8982  0.8840
  415MOL0     H54742   1.992   3.870   3.045  0.3878  1.1475 -0.6305
  415MOL0     H54743   1.767   3.736   3.070 -1.1474  0.5057  1.4152
  415MOL0     H54744   1.269   3.912   2.709  0.8060 -0.3035 -0.1038
  415MOL0     H54745   1.035   3.847   2.699  0.7919 -0.4320 -1.0964
  415MOL0     H54746   0.872   3.689   2.695  1.1349 -0.8375  1.1881
  415MOL0     H54747   0.819   3.849   2.755 -1.0054  0.5892  2.3991
  415MOL0     H54748   0.673   3.595   2.816  0.3103  0.5202 -0.4273
  415MOL0     H54749   0.634   3.699   2.692 -4.4758 -0.9510  1.0131
  415MOL0     H54750   0.604   3.886   2.833 -0.8400  0.3088  1.0691
  415MOL0     H54751   0.637   3.791   2.979 -1.9272 -0.1524  1.0546
  415MOL0     H54752   0.388   3.828   2.918  0.0565 -1.4946  1.6484
  415MOL0     H54753   0.407   3.744   2.768 -1.2451  0.7666  0.1016
  415MOL0     H54754   0.401   3.615   3.057  0.3601 -2.2960 -0.5106
  415MOL0     H54755   0.484   3.536   2.922  2.5871  2.4489  0.3583
  415MOL0     H54756   0.256   3.447   2.937 -1.2164 -1.1927 -1.2925
  415MOL0     H54757   0.275   3.541   2.785  1.2805 -2.2945  0.6234
  415MOL0     H54758   0.127   3.586   3.053 -1.1383 -1.6734 -0.2588
  415MOL0     H54759   0.154   3.720   2.944  0.1176 -0.2071 -0.4999
  415MOL0     H54760  -0.009   3.462   2.881  0.5477 -1.1060 -1.0163
  415MOL0     H54761   0.033   3.585   2.755  0.4764 -1.3153 -0.1046
  415MOL0     H54762   1.066   3.629   3.068  0.4608 -0.0721  0.7206
  415MOL0     H54763   1.301   3.704   3.085 -1.8345 -0.4009  1.4340
  415MOL0     H54764   1.597   4.002   2.786  2.0932  1.8450 -0.4333
  415MOL0     H54765   1.799   4.123   2.768 -1.0546 -0.0589 -1.6944
  415MOL0     H54766   2.405   5.229   2.519 -0.5561  1.6573 -1.2075
  415MOL0     H54767   2.483   5.122   2.741 -0.5062  0.4070  0.6200
  415MOL0     H54768   2.428   5.124   3.282  0.0321 -2.4114  2.7081
  415MOL0     H54769   2.565   5.071   3.478  0.4202 -0.9734  0.3287
  415MOL0     H54770   2.976   5.189   3.480 -0.4166 -1.0447 -0.3507
  415MOL0     H54771   3.014   5.033   3.412  4.3634  1.4937  1.6566
  415MOL0     H54772   3.123   5.062   3.635  1.3420 -1.6761  0.1612
  415MOL0     H54773   2.953   5.069   3.708  1.0002  1.2047  0.8527
  415MOL0     H54774   3.077   4.835   3.570 -0.6819  0.3806 -1.8115
  415MOL0     H54775   2.911   4.851   3.627  1.2809 -1.8364 -2.4926
  415MOL0     H54776   3.133   4.765   3.779  0.8986  0.2214  0.2471
  415MOL0     H54777   3.085   4.917   3.863 -3.0167 -0.4993  1.6108
  415MOL0     H54778   2.715   4.712   3.904 -1.2917  1.3993 -2.1644
  415MOL0     H54779   2.926   5.150   3.253  0.8485 -1.1945 -2.0797
  415MOL0     H54780   2.789   5.188   3.049 -2.2808 -0.7956 -1.7660
  416MOL0     O54781   9.682   0.862   3.430  0.2506 -0.5612 -0.3144
  416MOL0     C54782   9.650   0.975   3.392  0.3257 -0.0478 -0.2296
  416MOL0     O54783   9.510   1.026   3.385  0.5123  0.2239  0.5717
  416MOL0     C54784   9.405   0.936   3.379 -0.2845  0.4945  0.2267
  416MOL0     C54785   9.277   0.995   3.381 -0.5629 -0.0239 -0.3759
  416MOL0     C54786   9.165   0.913   3.383  0.1969  0.1319  1.2618
  416MOL0     C54787   9.171   0.776   3.379 -0.3360  0.1948 -0.3564
  416MOL0     O54788   9.068   0.686   3.378  0.2479  0.5007  0.0532
  416MOL0     C54789   8.941   0.736   3.328 -0.5024  0.2636  0.7935
  416MOL0     C54790   8.832   0.636   3.302 -0.2154  0.4549  0.0543
  416MOL0     C54791   8.704   0.706   3.255 -0.3753 -0.3584 -0.2177
  416MOL0     C54792   8.577   0.624   3.264 -0.5045  0.0391 -0.2763
  416MOL0     C54793   8.456   0.713   3.241  0.3206 -0.6529 -0.8993
  416MOL0     C54794   8.319   0.653   3.223  0.6385  0.5880 -0.1467
  416MOL0     C54795   8.268   0.600   3.362 -0.1138 -0.2543  0.3549
  416MOL0     C54796   8.160   0.487   3.343  0.5150 -0.1477  0.7154
  416MOL0     N54797   8.026   0.549   3.362  0.3063  0.6548 -0.9937
  416MOL0     C54798   7.959   0.646   3.288 -0.3968 -0.2937  0.1114
  416MOL0     C54799   7.854   0.686   3.358  0.4734  0.1794 -1.2618
  416MOL0     C54800   7.755   0.789   3.322 -0.1648  0.4412 -0.9046
  416MOL0     C54801   7.614   0.768   3.391  0.0973 -0.0830  1.1481
  416MOL0     C54802   7.581   0.869   3.502 -0.2099  0.1824 -0.1298
  416MOL0     C54803   7.447   0.829   3.554  0.3249 -0.7173 -0.1980
  416MOL0     O54804   7.350   0.873   3.463 -0.7631  0.6538  0.0263
  416MOL0     C54805   7.224   0.900   3.508  0.7653 -0.1001  1.1756
  416MOL0     C54806   7.136   0.930   3.400 -0.5326  0.0513  0.0569
  416MOL0     C54807   7.008   0.981   3.417 -0.1848 -0.7672  0.2229
  416MOL0     C54808   6.959   0.999   3.544  0.0266 -0.8854 -0.0932
  416MOL0     C54809   6.815   1.049   3.563 -0.0140  0.2999 -0.1293
  416MOL0     O54810   6.730   1.078   3.452  0.0775  0.4294 -0.0015
  416MOL0     C54811   6.599   1.117   3.483  0.3431 -0.1444  0.1125
  416MOL0     C54812   6.545   1.233   3.422 -0.2342 -0.4130  0.4324
  416MOL0     C54813   6.427   1.278   3.476  0.6626  0.5522  0.8509
  416MOL0     C54814   6.354   1.206   3.568  0.1513  0.2704  0.8677
  416MOL0     O54815   6.235   1.267   3.608 -0.5134 -0.4128 -0.0914
  416MOL0     C54816   6.162   1.200   3.715 -0.6409  0.3866 -0.5140
  416MOL0     C54817   6.030   1.267   3.734  0.7147 -0.0731  0.1555
  416MOL0     C54818   5.939   1.203   3.839  0.0774  0.6005 -0.0632
  416MOL0     C54819   5.805   1.275   3.859  0.5086  0.3425 -0.5702
  416MOL0     C54820   5.791   1.305   4.009 -0.4202  0.4133 -0.5149
  416MOL0     C54821   5.649   1.335   4.045  0.1884 -0.8329 -0.0368
  416MOL0     C54822   5.623   1.362   4.190  0.3066  0.2649  0.1597
  416MOL0     C54823   5.644   1.242   4.280 -0.2039 -0.1319 -0.2067
  416MOL0    Cl54824   5.598   1.278   4.447  0.0993  0.2000 -0.3574
  416MOL0     C54825   6.405   1.076   3.611  0.5243  0.2978 -0.0707
  416MOL0     C54826   6.525   1.026   3.564  0.6171 -0.3432 -0.1328
  416MOL0     O54827   6.785   1.065   3.680  0.1479  0.1150 -0.0734
  416MOL0     C54828   7.049   0.972   3.648  0.3875 -0.4186  0.6921
  416MOL0     C54829   7.181   0.925   3.633  0.7446  0.3064  0.5444
  416MOL0     N54830   7.858   0.608   3.473 -0.3972 -0.2887  0.0329
  416MOL0     N54831   7.953   0.525   3.471 -0.0830  0.4630  0.3241
  416MOL0     C54832   9.296   0.718   3.380 -0.2204 -0.1479 -0.3778
  416MOL0     C54833   9.415   0.792   3.375 -0.6169  1.1181 -0.1546
  416MOL0     C54834   9.760   1.062   3.359 -0.2515 -0.1778 -0.1619
  416MOL0     C54835   9.893   1.025   3.386  0.8232 -0.3783  0.0634
  416MOL0     C54836   9.995   1.109   3.370  0.8980  1.2845  0.6651
  416MOL0     C54837   9.973   1.236   3.338  0.3584  0.5162 -0.7592
  416MOL0     O54838  10.080   1.318   3.346 -0.3900  0.3973 -0.0844
  416MOL0     C54839  10.152   1.337   3.221  0.7428 -0.7606  0.6023
  416MOL0     C54840  10.293   1.397   3.251  0.4131 -0.1138  0.4637
  416MOL0     C54841  10.375   1.314   3.349 -0.1448  0.1161 -0.2113
  416MOL0     C54842  10.499   1.384   3.407  0.4115  0.3286 -0.7979
  416MOL0     C54843  10.469   1.446   3.541  0.5399  0.2659  0.3133
  416MOL0     C54844  10.438   1.473   3.649  0.4999  0.8709  0.3416
  416MOL0     C54845   9.840   1.283   3.311 -0.3107  0.5304 -1.0180
  416MOL0     C54846   9.739   1.194   3.321  0.1803 -0.6364  0.4291
  416MOL0     H54847   9.258   1.102   3.380  0.3824  0.1541  0.1784
  416MOL0     H54848   9.063   0.950   3.388 -0.2928 -0.6295 -1.5478
  416MOL0     H54849   8.962   0.779   3.229  2.5196 -4.3519 -0.9170
  416MOL0     H54850   8.901   0.808   3.400  0.4277  0.2049  1.3810
  416MOL0     H54851   8.811   0.589   3.398  0.8767 -0.7606 -0.2553
  416MOL0     H54852   8.861   0.557   3.231 -0.2933 -2.2873  2.8812
  416MOL0     H54853   8.716   0.741   3.152 -2.3043 -0.2746 -0.4436
  416MOL0     H54854   8.692   0.790   3.324 -0.2611 -0.4026 -0.1432
  416MOL0     H54855   8.579   0.544   3.189 -0.1735  0.3124 -0.5638
  416MOL0     H54856   8.579   0.568   3.358  0.2975 -0.4130 -0.5456
  416MOL0     H54857   8.473   0.782   3.158  2.6660  2.4285  1.8683
  416MOL0     H54858   8.440   0.779   3.327  0.0665 -2.6635  0.6739
  416MOL0     H54859   8.327   0.571   3.152  2.1035 -0.3426  1.0084
  416MOL0     H54860   8.243   0.728   3.200  0.8811  0.5707 -1.0221
  416MOL0     H54861   8.356   0.554   3.407  0.0223  0.6245  1.0127
  416MOL0     H54862   8.229   0.679   3.427  1.2195  1.0155 -0.3394
  416MOL0     H54863   8.170   0.408   3.419  0.1330 -2.3693 -1.4149
  416MOL0     H54864   8.157   0.430   3.250 -3.4827  0.4687  0.2717
  416MOL0     H54865   7.994   0.696   3.198 -3.0989 -1.7448 -1.8786
  416MOL0     H54866   7.747   0.793   3.213  1.7493 -2.5429 -1.2853
  416MOL0     H54867   7.795   0.884   3.360  1.4738 -1.8790  4.0647
  416MOL0     H54868   7.605   0.673   3.443 -0.1967  1.3581  3.9217
  416MOL0     H54869   7.544   0.778   3.307  0.9313  1.3082  0.5656
  416MOL0     H54870   7.650   0.865   3.587  2.3217 -0.4215 -2.0753
  416MOL0     H54871   7.581   0.971   3.463  0.3782  1.1696  2.2422
  416MOL0     H54872   7.441   0.873   3.654 -0.8264  0.2948 -0.6838
  416MOL0     H54873   7.435   0.721   3.567 -3.8522 -0.8484 -3.1918
  416MOL0     H54874   7.179   0.941   3.301  1.3001 -0.6444  0.7434
  416MOL0     H54875   6.942   0.994   3.332  1.9013 -0.9834 -1.5025
  416MOL0     H54876   6.583   1.289   3.336 -2.2855 -1.7927 -1.4660
  416MOL0     H54877   6.384   1.373   3.447  0.6010  0.9389  2.1539
  416MOL0     H54878   6.216   1.198   3.810 -0.5743  0.9315 -0.5367
  416MOL0     H54879   6.141   1.098   3.682 -1.2054 -0.2165  1.5258
  416MOL0     H54880   5.978   1.275   3.638 -0.7663  0.2021  0.9533
  416MOL0     H54881   6.046   1.370   3.766 -1.7740  0.5930 -0.5496
  416MOL0     H54882   5.997   1.201   3.931  1.6776 -1.3448 -1.0267
  416MOL0     H54883   5.913   1.100   3.810  1.2819  0.3151 -0.1958
  416MOL0     H54884   5.793   1.362   3.794  0.2236  2.5175  2.1716
  416MOL0     H54885   5.734   1.194   3.841  0.9237 -0.6708  1.9313
  416MOL0     H54886   5.858   1.387   4.037 -1.3062  0.0908  2.9656
  416MOL0     H54887   5.827   1.222   4.071 -0.5962  1.5466  1.1690
  416MOL0     H54888   5.581   1.251   4.032  0.3280 -1.0790  0.7672
  416MOL0     H54889   5.615   1.426   3.995 -0.0390 -0.6615  0.4198
  416MOL0     H54890   5.686   1.436   4.239  3.0092 -2.9427  1.9703
  416MOL0     H54891   5.517   1.383   4.205 -0.4403 -1.1814 -2.4658
  416MOL0     H54892   5.750   1.216   4.281  1.3446  4.9448 -2.4398
  416MOL0     H54893   5.579   1.161   4.246 -1.6872 -0.7110  3.4914
  416MOL0     H54894   6.338   1.016   3.672 -0.5015  1.9492  0.5135
  416MOL0     H54895   6.558   0.927   3.593 -0.3692 -1.4885 -2.6620
  416MOL0     H54896   7.019   0.978   3.752  3.7349  0.3679  1.7656
  416MOL0     H54897   7.253   0.906   3.712  2.7286  0.6097 -1.1197
  416MOL0     H54898   9.302   0.610   3.387 -0.7474 -0.3032 -1.8041
  416MOL0     H54899   9.505   0.733   3.366 -0.8561  0.6906  0.2190
  416MOL0     H54900   9.922   0.925   3.419  0.6930 -1.0670 -1.7570
  416MOL0     H54901  10.093   1.071   3.395  0.1520  0.2057  2.1510
  416MOL0     H54902  10.088   1.385   3.147 -0.9884  0.5102  2.7713
  416MOL0     H54903  10.163   1.244   3.164  1.4486 -0.2875 -0.0419
  416MOL0     H54904  10.360   1.398   3.165  0.2646  0.4912  0.3510
  416MOL0     H54905  10.291   1.500   3.288 -0.5115  0.1913 -0.3878
  416MOL0     H54906  10.412   1.229   3.292  2.1998 -0.0025  1.3308
  416MOL0     H54907  10.322   1.282   3.439  2.0821 -0.5190  0.9283
  416MOL0     H54908  10.577   1.307   3.406 -1.1979 -1.3986 -2.0499
  416MOL0     H54909  10.546   1.453   3.336  0.1866  0.0407 -1.2350
  416MOL0     H54910  10.409   1.492   3.750  2.2737 -1.3049  1.3643
  416MOL0     H54911   9.832   1.391   3.305  3.7644  1.1228  0.8917
  416MOL0     H54912   9.643   1.246   3.317  1.4461  1.7697 -1.1210
  417MOL0     O54913   8.659   3.630   3.400  0.5361 -1.0543 -0.0277
  417MOL0     C54914   8.745   3.559   3.362 -0.2135  0.4581  0.3508
  417MOL0     O54915   8.730   3.434   3.312  0.2567 -0.3275  0.2436
  417MOL0     C54916   8.596   3.405   3.291 -0.4619 -1.6103  0.0534
  417MOL0     C54917   8.512   3.472   3.200 -0.3561 -0.4756  0.3035
  417MOL0     C54918   8.376   3.440   3.182  0.2863  0.3482  0.3943
  417MOL0     C54919   8.321   3.326   3.238 -0.3984  1.1314  0.4532
  417MOL0     O54920   8.187   3.295   3.212 -0.2565  0.5430 -0.2741
  417MOL0     C54921   8.151   3.151   3.236 -0.0088 -0.4996  0.4588
  417MOL0     C54922   8.018   3.123   3.156 -0.1779  0.1553  0.1072
  417MOL0     C54923   7.897   3.188   3.217 -0.1199 -0.5651 -0.5924
  417MOL0     C54924   7.769   3.161   3.151  0.3539 -0.2761  0.0671
  417MOL0     C54925   7.644   3.228   3.223 -0.7713  0.3402 -0.5546
  417MOL0     C54926   7.513   3.222   3.135 -0.0984 -0.3269  0.2629
  417MOL0     C54927   7.394   3.289   3.207 -0.6733  0.3690  0.0968
  417MOL0     C54928   7.334   3.184   3.305 -0.6223 -0.5200  0.1088
  417MOL0     N54929   7.216   3.241   3.366  0.6725 -0.6559  0.3143
  417MOL0     C54930   7.205   3.369   3.422 -0.1803  0.0246 -0.9053
  417MOL0     C54931   7.085   3.368   3.471 -0.7709 -0.2365  0.3141
  417MOL0     C54932   7.017   3.465   3.561 -0.0556 -0.4618  0.4625
  417MOL0     C54933   7.042   3.424   3.704  1.2007  0.4344 -0.5774
  417MOL0     C54934   7.018   3.544   3.797 -0.3516 -0.4221 -0.3131
  417MOL0     C54935   6.869   3.553   3.834  0.3526 -0.1304  0.2180
  417MOL0     O54936   6.791   3.594   3.713  0.1643 -0.0379  0.1309
  417MOL0     C54937   6.662   3.639   3.725 -0.3639  0.0301  0.2561
  417MOL0     C54938   6.599   3.683   3.603 -0.1213  0.6493 -0.4871
  417MOL0     C54939   6.465   3.728   3.605 -1.2416 -0.9128  0.3496
  417MOL0     C54940   6.386   3.706   3.721 -0.4417  1.0986  0.1652
  417MOL0     C54941   6.243   3.735   3.731 -0.2578  0.1626  0.1309
  417MOL0     O54942   6.195   3.771   3.858  0.7096  0.2054 -0.3884
  417MOL0     C54943   6.064   3.772   3.904  0.2812 -0.6466 -0.0233
  417MOL0     C54944   5.958   3.724   3.825 -0.0979 -0.8094 -0.0927
  417MOL0     C54945   5.826   3.721   3.873  0.1985  0.6522  0.3241
  417MOL0     C54946   5.794   3.770   4.002 -0.1275 -0.7353  0.5668
  417MOL0     O54947   5.671   3.774   4.056  0.2947  0.3440  1.0655
  417MOL0     C54948   5.548   3.750   3.979 -0.9074  0.0717  0.7761
  417MOL0     C54949   5.427   3.761   4.063  0.4512 -0.0505  0.0539
  417MOL0     C54950   5.292   3.730   3.999 -0.3543  0.0319 -0.6619
  417MOL0     C54951   5.180   3.735   4.097  0.5280 -0.0337 -0.0484
  417MOL0     C54952   5.055   3.676   4.051 -0.8196  0.2770 -0.0648
  417MOL0     C54953   4.937   3.714   4.144 -0.5942  0.5741  0.0738
  417MOL0     C54954   4.811   3.624   4.136 -0.4519  0.0095  0.5712
  417MOL0     C54955   4.695   3.671   4.221 -0.4165 -1.1071 -0.8208
  417MOL0    Cl54956   4.620   3.829   4.151  0.1867 -0.4066  0.1629
  417MOL0     C54957   5.901   3.822   4.077 -0.3780 -0.6779  0.1675
  417MOL0     C54958   6.038   3.819   4.031  0.3686 -0.8807 -0.0965
  417MOL0     O54959   6.180   3.714   3.632  0.2930 -0.1719  0.0781
  417MOL0     C54960   6.456   3.664   3.839  0.1044 -0.2158  0.4028
  417MOL0     C54961   6.589   3.631   3.841 -0.4589 -0.5450  0.1201
  417MOL0     N54962   7.009   3.263   3.435 -0.4874  0.3427  0.3210
  417MOL0     N54963   7.102   3.181   3.378  0.2526 -0.9933  0.2244
  417MOL0     C54964   8.408   3.250   3.320  0.8193 -0.1818  0.7652
  417MOL0     C54965   8.541   3.293   3.351 -0.2322 -0.4856 -0.2121
  417MOL0     C54966   8.881   3.616   3.363  0.2167  0.6736  0.1935
  417MOL0     C54967   8.908   3.750   3.404  0.9098 -0.2064 -0.4563
  417MOL0     C54968   9.037   3.805   3.392  1.3679  0.2760 -0.4426
  417MOL0     C54969   9.143   3.725   3.357 -0.6635  0.6383  0.2222
  417MOL0     O54970   9.265   3.785   3.356 -0.4780  0.2900 -0.1569
  417MOL0     C54971   9.381   3.698   3.369 -0.1793  0.1297 -0.3348
  417MOL0     C54972   9.452   3.694   3.232 -0.0937  0.4027 -0.0870
  417MOL0     C54973   9.568   3.599   3.221  0.1538 -0.2423  0.8519
  417MOL0     C54974   9.645   3.638   3.097 -0.6636 -0.1208  0.7586
  417MOL0     C54975   9.739   3.534   3.046 -0.1977  0.4243 -0.7888
  417MOL0     C54976   9.811   3.446   3.008 -0.4382  0.0859  0.1141
  417MOL0     C54977   9.121   3.584   3.321 -0.2186 -0.8116 -0.5501
  417MOL0     C54978   8.993   3.537   3.328  0.2347 -0.2479 -0.1191
  417MOL0     H54979   8.554   3.561   3.153 -0.3421  0.3861  1.8749
  417MOL0     H54980   8.306   3.505   3.130 -0.9460 -0.1040  1.4461
  417MOL0     H54981   8.143   3.125   3.342 -2.1849  2.3805  1.1019
  417MOL0     H54982   8.230   3.085   3.197  0.2011  0.8404 -1.5192
  417MOL0     H54983   8.003   3.015   3.148 -0.6020  0.3486 -2.4621
  417MOL0     H54984   8.040   3.161   3.056  2.2719  2.0414  1.2644
  417MOL0     H54985   7.916   3.295   3.224 -2.0175 -0.2980  3.2575
  417MOL0     H54986   7.887   3.144   3.317 -1.6970 -1.2173 -1.0105
  417MOL0     H54987   7.771   3.186   3.044 -1.6983  0.3200  0.1211
  417MOL0     H54988   7.747   3.055   3.159  1.4283 -0.4218  1.5318
  417MOL0     H54989   7.675   3.333   3.227  1.4858 -0.2870 -0.1419
  417MOL0     H54990   7.631   3.187   3.324 -0.3311 -1.2449 -1.1098
  417MOL0     H54991   7.476   3.121   3.114 -1.8593  0.3959 -0.3380
  417MOL0     H54992   7.539   3.270   3.040  2.7092 -1.3005  0.4522
  417MOL0     H54993   7.424   3.382   3.257  0.4090  0.4910 -0.7428
  417MOL0     H54994   7.319   3.322   3.135 -0.0558  0.3822 -0.5558
  417MOL0     H54995   7.407   3.159   3.381  3.0175  0.3309 -2.8241
  417MOL0     H54996   7.298   3.098   3.247  0.5356 -0.4564 -0.7309
  417MOL0     H54997   7.279   3.444   3.447  0.3723  0.1912 -2.9285
  417MOL0     H54998   6.911   3.458   3.535  0.4067 -0.4934 -1.6197
  417MOL0     H54999   7.056   3.567   3.554  0.9634 -0.8569  0.1999
  417MOL0     H55000   7.150   3.406   3.711  1.0937  0.2047  0.7135
  417MOL0     H55001   6.981   3.338   3.733 -0.5191  1.1341 -1.9599
  417MOL0     H55002   7.077   3.526   3.887 -0.3982 -2.0041 -0.5750
  417MOL0     H55003   7.058   3.640   3.762  0.1845 -0.7577 -0.6331
  417MOL0     H55004   6.851   3.622   3.916  0.5280  2.9245 -2.1336
  417MOL0     H55005   6.834   3.457   3.873  2.2817 -0.3627  1.5679
  417MOL0     H55006   6.658   3.685   3.512 -1.2464  0.9036 -1.2281
  417MOL0     H55007   6.419   3.768   3.516  1.1467  0.4227 -0.3610
  417MOL0     H55008   5.977   3.689   3.725  2.6048  1.0576 -0.3277
  417MOL0     H55009   5.749   3.680   3.807 -0.2524 -3.4155  3.0313
  417MOL0     H55010   5.545   3.656   3.923 -2.1425 -0.1008  1.1013
  417MOL0     H55011   5.538   3.830   3.905  0.0932 -0.9876 -0.5503
  417MOL0     H55012   5.425   3.858   4.115  0.7258  1.1122 -2.0169
  417MOL0     H55013   5.433   3.688   4.144 -1.6432  0.4977  0.7857
  417MOL0     H55014   5.298   3.629   3.958 -1.9101 -0.9523  1.3268
  417MOL0     H55015   5.271   3.804   3.922 -0.0268  1.8707  0.9111
  417MOL0     H55016   5.218   3.688   4.189  1.5088  0.9105  0.0475
  417MOL0     H55017   5.161   3.838   4.129  0.8050 -0.1961  0.6668
  417MOL0     H55018   5.063   3.567   4.046 -0.0196  0.3140  0.2319
  417MOL0     H55019   5.034   3.695   3.945 -0.6701 -2.6126 -0.7119
  417MOL0     H55020   4.902   3.817   4.128 -1.7886  0.3351  1.0095
  417MOL0     H55021   4.975   3.703   4.246 -2.4839  0.0399  0.7657
  417MOL0     H55022   4.781   3.629   4.031 -0.0704 -1.4111  0.3780
  417MOL0     H55023   4.840   3.522   4.162 -1.6617 -1.0603 -1.9009
  417MOL0     H55024   4.717   3.687   4.327 -3.7493 -2.0803  0.1415
  417MOL0     H55025   4.622   3.590   4.213 -1.5269 -0.1534 -0.7284
  417MOL0     H55026   5.886   3.884   4.165  1.9519  3.0482 -1.8109
  417MOL0     H55027   6.122   3.848   4.093  0.2369 -0.3383 -0.1648
  417MOL0     H55028   6.402   3.638   3.929 -0.3875 -0.2395  0.1043
  417MOL0     H55029   6.629   3.593   3.935  1.8027 -0.2114 -0.6508
  417MOL0     H55030   8.363   3.169   3.377 -2.4224  1.5175  0.8635
  417MOL0     H55031   8.610   3.248   3.422  1.2165  1.2628 -0.4440
  417MOL0     H55032   8.825   3.817   3.424  1.1760  0.0596 -0.2296
  417MOL0     H55033   9.051   3.912   3.405  3.5965  0.1140 -0.9728
  417MOL0     H55034   9.363   3.601   3.416 -0.8072 -0.1530 -1.1311
  417MOL0     H55035   9.446   3.748   3.441 -0.0389 -1.0310  0.3687
  417MOL0     H55036   9.375   3.657   3.163 -0.1201  0.7713 -0.2576
  417MOL0     H55037   9.488   3.796   3.212 -0.5434  0.8418  1.2997
  417MOL0     H55038   9.528   3.498   3.205 -0.0432 -0.0542  0.1423
  417MOL0     H55039   9.629   3.597   3.312 -1.5817  0.2122  2.0648
  417MOL0     H55040   9.578   3.679   3.021  0.6243  2.0841  0.7356
  417MOL0     H55041   9.712   3.721   3.120  2.0666 -2.2330  0.9832
  417MOL0     H55042   9.886   3.371   2.987 -1.5825 -0.9992 -0.2287
  417MOL0     H55043   9.213   3.527   3.309 -0.2559 -0.9397 -0.2372
  417MOL0     H55044   8.969   3.436   3.297  0.0387  0.5090 -2.6668
  418MOL0     O55045   0.463   1.595   3.788  0.3059 -0.5332 -0.6672
  418MOL0     C55046   0.500   1.503   3.713 -1.3027 -1.3904 -0.6480
  418MOL0     O55047   0.428   1.441   3.613  0.5929 -0.2023  0.1744
  418MOL0     C55048   0.295   1.482   3.588 -0.9272 -0.7986 -0.1168
  418MOL0     C55049   0.235   1.605   3.615  0.2853  0.3576  0.4789
  418MOL0     C55050   0.096   1.621   3.609 -0.1835 -0.2063  0.2189
  418MOL0     C55051   0.021   1.521   3.554 -0.3707  0.6267 -0.5606
  418MOL0     O55052  -0.115   1.545   3.544 -0.3131 -0.2274  0.0736
  418MOL0     C55053  -0.202   1.466   3.471 -0.2239  0.0938  0.6086
  418MOL0     C55054  -0.352   1.481   3.525  0.5229  0.4046  0.2279
  418MOL0     C55055  -0.435   1.585   3.456 -0.0103  0.2312 -0.0365
  418MOL0     C55056  -0.371   1.723   3.441  0.6955  0.0931 -0.2021
  418MOL0     C55057  -0.445   1.824   3.350  0.1295 -0.0827  0.9922
  418MOL0     C55058  -0.597   1.844   3.375 -0.0818  0.6380  0.3600
  418MOL0     C55059  -0.664   1.935   3.266 -0.6473 -0.2108 -1.0200
  418MOL0     C55060  -0.810   1.963   3.296 -1.0490 -0.0239 -0.0277
  418MOL0     N55061  -0.863   2.081   3.230 -0.4311  0.2642  0.0318
  418MOL0     C55062  -0.844   2.112   3.098  0.2975  1.4836  0.7766
  418MOL0     C55063  -0.950   2.196   3.067 -0.6734  0.1732  0.0629
  418MOL0     C55064  -0.953   2.282   2.936  0.7812 -0.7122  0.1056
  418MOL0     C55065  -1.094   2.276   2.879  0.6847  0.5275 -0.3252
  418MOL0     C55066  -1.096   2.348   2.742 -0.0474 -0.4393  0.1134
  418MOL0     C55067  -1.217   2.440   2.750  0.2581  1.0638 -0.0000
  418MOL0     O55068  -1.341   2.364   2.750 -0.0855  0.0403 -0.1880
  418MOL0     C55069  -1.465   2.422   2.728 -0.3351  0.3688  0.2076
  418MOL0     C55070  -1.472   2.558   2.690  0.7837  0.3753 -0.4983
  418MOL0     C55071  -1.598   2.622   2.675  0.3841 -0.4358  0.1297
  418MOL0     C55072  -1.717   2.552   2.684  0.7471 -0.0878  0.5917
  418MOL0     C55073  -1.846   2.620   2.649 -0.4471  0.7519  0.2914
  418MOL0     O55074  -1.832   2.753   2.624 -0.3462 -0.0828  0.6214
  418MOL0     C55075  -1.937   2.840   2.638  0.3043 -0.3487 -0.2294
  418MOL0     C55076  -2.029   2.846   2.749 -0.5305  0.1496  0.9527
  418MOL0     C55077  -2.124   2.938   2.764  0.5310  0.9863 -0.0253
  418MOL0     C55078  -2.136   3.044   2.672 -0.5037  1.0611  0.0008
  418MOL0     O55079  -2.227   3.137   2.685 -0.1443  0.3117  0.1448
  418MOL0     C55080  -2.235   3.205   2.810 -0.4822 -0.5486  0.3124
  418MOL0     C55081  -2.305   3.344   2.790 -0.7729  0.1393 -1.1775
  418MOL0     C55082  -2.346   3.411   2.927  0.9337 -0.6733 -0.2025
  418MOL0     C55083  -2.404   3.553   2.929  0.4486 -0.4285 -0.5468
  418MOL0     C55084  -2.541   3.554   2.851 -0.2915 -0.4106 -0.1477
  418MOL0     C55085  -2.598   3.699   2.868  0.2197 -0.2051 -0.1397
  418MOL0     C55086  -2.750   3.708   2.845 -0.2420  0.3946  0.8460
  418MOL0     C55087  -2.806   3.846   2.848  1.0263 -0.7213 -0.4014
  418MOL0    Cl55088  -2.970   3.829   2.916  0.3154 -0.1843 -0.0724
  418MOL0     C55089  -2.044   3.046   2.560  0.6144 -0.6286 -0.4497
  418MOL0     C55090  -1.951   2.943   2.538  0.2296  0.3406 -0.2189
  418MOL0     O55091  -1.946   2.550   2.653 -0.4457  0.8591 -0.6536
  418MOL0     C55092  -1.713   2.408   2.713 -0.2927  0.0733 -0.6103
  418MOL0     C55093  -1.583   2.345   2.736 -0.0980 -0.9333  0.1046
  418MOL0     N55094  -1.024   2.214   3.176 -0.6513  0.6318 -0.5864
  418MOL0     N55095  -0.987   2.131   3.267 -0.5644  0.0890 -0.5173
  418MOL0     C55096   0.078   1.406   3.509  0.4747 -0.3419 -0.1516
  418MOL0     C55097   0.216   1.384   3.530 -0.4099  0.6309  0.2494
  418MOL0     C55098   0.639   1.461   3.751 -0.3682 -0.3908  0.4948
  418MOL0     C55099   0.709   1.501   3.867 -0.0662 -0.7985  0.1924
  418MOL0     C55100   0.831   1.450   3.904  0.4508 -1.2269 -0.5549
  418MOL0     C55101   0.899   1.365   3.826 -0.1165 -0.0266  0.2981
  418MOL0     O55102   1.003   1.298   3.896 -0.2766  0.4746  0.3349
  418MOL0     C55103   1.120   1.249   3.820  0.3859  0.3642 -0.0777
  418MOL0     C55104   1.200   1.373   3.771 -0.5151 -0.0885  0.3531
  418MOL0     C55105   1.279   1.442   3.889  0.2658  0.8374 -0.3690
  418MOL0     C55106   1.372   1.547   3.834  0.2065 -0.5536  0.2117
  418MOL0     C55107   1.456   1.585   3.947 -0.5271 -0.3493  0.1452
  418MOL0     C55108   1.533   1.632   4.029 -0.7093 -0.3882 -0.2960
  418MOL0     C55109   0.846   1.332   3.703  0.6828 -0.0371 -0.1363
  418MOL0     C55110   0.713   1.379   3.667  0.4422 -0.3550  0.2607
  418MOL0     H55111   0.299   1.689   3.640  0.2803  1.3406 -2.4400
  418MOL0     H55112   0.055   1.715   3.644 -2.6926 -2.1331  3.0199
  418MOL0     H55113  -0.172   1.363   3.492  2.1004  0.3681 -1.0494
  418MOL0     H55114  -0.197   1.475   3.362  0.3243 -0.3715  0.5911
  418MOL0     H55115  -0.356   1.493   3.634  1.4067 -2.1143  0.5927
  418MOL0     H55116  -0.398   1.388   3.491 -0.2399  0.8997 -0.1284
  418MOL0     H55117  -0.530   1.596   3.508 -0.2333  0.3068 -0.4582
  418MOL0     H55118  -0.459   1.555   3.354 -1.6644  0.9662  0.1176
  418MOL0     H55119  -0.351   1.765   3.540  2.0850  0.0912 -0.4691
  418MOL0     H55120  -0.274   1.712   3.393 -0.0578  4.0716 -3.2360
  418MOL0     H55121  -0.418   1.791   3.249  2.6013  2.2826  0.7500
  418MOL0     H55122  -0.395   1.921   3.361 -1.3735  1.3611 -3.0482
  418MOL0     H55123  -0.612   1.886   3.475  0.8456  1.9264 -0.0041
  418MOL0     H55124  -0.647   1.748   3.363  2.0704 -0.2948 -2.0975
  418MOL0     H55125  -0.619   2.034   3.263  1.2289 -0.9648  0.2999
  418MOL0     H55126  -0.658   1.890   3.167 -1.3799 -1.2396 -0.6276
  418MOL0     H55127  -0.812   1.980   3.404 -1.9009  0.0512 -0.0476
  418MOL0     H55128  -0.870   1.875   3.270 -0.1965 -0.0517 -2.0515
  418MOL0     H55129  -0.769   2.084   3.025 -2.0247  1.3285 -1.6882
  418MOL0     H55130  -0.889   2.234   2.862 -0.2177  1.8630 -2.6523
  418MOL0     H55131  -0.934   2.386   2.961 -2.7961 -0.5302  2.7883
  418MOL0     H55132  -1.181   2.303   2.939 -0.8163 -2.1612 -1.1351
  418MOL0     H55133  -1.118   2.170   2.868 -2.7757  1.2516 -1.1922
  418MOL0     H55134  -1.009   2.409   2.717 -0.2671 -0.2375 -0.1739
  418MOL0     H55135  -1.115   2.270   2.667  0.6978  0.2293 -0.7948
  418MOL0     H55136  -1.224   2.503   2.661 -1.8209 -1.9969 -2.2406
  418MOL0     H55137  -1.204   2.490   2.846 -0.4874 -2.9509  2.4379
  418MOL0     H55138  -1.386   2.624   2.687  0.7691  0.8654  3.6257
  418MOL0     H55139  -1.586   2.721   2.633 -0.5550 -0.6920 -0.7697
  418MOL0     H55140  -2.016   2.769   2.824  0.0986 -0.6578  0.0425
  418MOL0     H55141  -2.194   2.929   2.846  0.1791 -0.0164 -0.4212
  418MOL0     H55142  -2.137   3.232   2.851 -0.0766  3.1237 -2.6156
  418MOL0     H55143  -2.294   3.151   2.885 -2.7156 -0.0891 -1.0228
  418MOL0     H55144  -2.391   3.321   2.726 -0.9306 -2.6139 -0.0895
  418MOL0     H55145  -2.234   3.402   2.730  1.3091  0.1953  1.1503
  418MOL0     H55146  -2.259   3.409   2.993  0.0402 -2.5393  1.0097
  418MOL0     H55147  -2.425   3.351   2.974 -1.3975 -1.0918 -4.1730
  418MOL0     H55148  -2.420   3.577   3.035 -1.5165 -2.5954 -0.2617
  418MOL0     H55149  -2.324   3.618   2.894  0.4992 -0.6836 -0.9073
  418MOL0     H55150  -2.606   3.484   2.904  3.2444 -1.6613  2.9132
  418MOL0     H55151  -2.534   3.533   2.744  1.9325  1.4022 -0.4194
  418MOL0     H55152  -2.550   3.755   2.787 -1.2640  0.9171 -0.2977
  418MOL0     H55153  -2.563   3.747   2.960  2.1043 -0.6995 -0.5614
  418MOL0     H55154  -2.772   3.664   2.748  2.3687  0.3566  0.1997
  418MOL0     H55155  -2.806   3.651   2.920 -1.3967  1.2782  0.6762
  418MOL0     H55156  -2.805   3.892   2.748  1.3062  1.0351  0.3672
  418MOL0     H55157  -2.750   3.911   2.915  2.4895 -3.0037  0.6994
  418MOL0     H55158  -2.071   3.115   2.481  2.8347 -1.0223 -1.6053
  418MOL0     H55159  -1.899   2.946   2.443  1.1415  1.3480  0.2883
  418MOL0     H55160  -1.808   2.357   2.723 -1.5864  2.2926 -0.8946
  418MOL0     H55161  -1.579   2.241   2.769 -1.3528 -1.0078  0.0948
  418MOL0     H55162   0.030   1.318   3.467  0.3586 -0.0968 -0.5417
  418MOL0     H55163   0.250   1.285   3.503  3.7253  2.0253 -0.2787
  418MOL0     H55164   0.675   1.584   3.929  3.0284  0.8553 -0.1393
  418MOL0     H55165   0.873   1.462   4.003  1.0271 -0.4594 -0.8771
  418MOL0     H55166   1.079   1.200   3.731  0.9543 -0.2484 -0.0128
  418MOL0     H55167   1.176   1.178   3.882 -0.2427  0.6967  0.8986
  418MOL0     H55168   1.282   1.328   3.714 -3.5829 -1.4016 -3.4171
  418MOL0     H55169   1.142   1.435   3.703 -3.4679 -1.4805  1.4388
  418MOL0     H55170   1.335   1.365   3.944 -0.4058 -0.0663 -0.9178
  418MOL0     H55171   1.208   1.483   3.962  1.2300  0.3199  0.9005
  418MOL0     H55172   1.437   1.505   3.757 -2.0656  0.8211 -2.6505
  418MOL0     H55173   1.317   1.630   3.788  2.5392  0.3469 -1.1088
  418MOL0     H55174   1.597   1.679   4.102 -1.7161  0.1933  0.2377
  418MOL0     H55175   0.903   1.256   3.650 -0.1201 -0.5633 -0.2640
  418MOL0     H55176   0.673   1.346   3.572 -0.0255 -0.3460  0.4529
  419MOL0     O55177   4.680   3.600   0.918 -0.5671 -0.7353 -0.3146
  419MOL0     C55178   4.714   3.480   0.903 -0.3159 -0.1535 -0.1132
  419MOL0     O55179   4.626   3.379   0.901 -0.5597  0.1366  0.5079
  419MOL0     C55180   4.488   3.393   0.923 -0.6348 -0.9699  0.2472
  419MOL0     C55181   4.391   3.330   0.837  0.1443 -0.0022  0.4462
  419MOL0     C55182   4.251   3.342   0.850 -0.3352  0.7777 -0.0829
  419MOL0     C55183   4.205   3.407   0.963 -0.6017 -0.5706  0.0694
  419MOL0     O55184   4.073   3.426   0.991 -0.2206 -0.6229 -0.6079
  419MOL0     C55185   3.975   3.354   0.920 -0.2095 -0.0032  0.0232
  419MOL0     C55186   3.849   3.346   1.003 -0.6623 -0.0076 -0.8227
  419MOL0     C55187   3.727   3.312   0.914  0.7534 -0.0687  0.0618
  419MOL0     C55188   3.588   3.352   0.984 -0.4226  0.1380  0.3083
  419MOL0     C55189   3.471   3.308   0.899  0.3751 -0.1711 -0.0059
  419MOL0     C55190   3.336   3.360   0.959 -0.5593  0.0373 -0.0640
  419MOL0     C55191   3.227   3.285   0.888  0.2629  0.3576 -0.0564
  419MOL0     C55192   3.089   3.306   0.966 -0.1219 -0.0083 -0.0386
  419MOL0     N55193   3.051   3.192   1.058 -0.7667 -0.1223  0.4101
  419MOL0     C55194   3.001   3.219   1.181  0.3088 -0.5672  0.0192
  419MOL0     C55195   2.982   3.100   1.238 -0.7192  0.8714 -0.0006
  419MOL0     C55196   2.918   3.049   1.366 -1.0581  0.6376 -0.9357
  419MOL0     C55197   2.771   3.028   1.350  1.0953 -0.0215  0.4555
  419MOL0     C55198   2.709   2.938   1.463 -0.3768 -0.0714  0.2233
  419MOL0     C55199   2.765   2.969   1.605 -0.2135  0.2768 -0.0319
  419MOL0     O55200   2.733   3.103   1.639 -0.0084 -0.8815 -0.5500
  419MOL0     C55201   2.596   3.121   1.665  0.2871 -0.5313  0.7323
  419MOL0     C55202   2.500   3.027   1.683 -0.2462  0.1192 -0.0294
  419MOL0     C55203   2.370   3.063   1.694  0.7342  0.4712 -1.0742
  419MOL0     C55204   2.332   3.197   1.684  0.0544 -1.7174 -0.8541
  419MOL0     C55205   2.189   3.243   1.698 -0.6547 -0.4069 -0.1192
  419MOL0     O55206   2.165   3.378   1.674 -0.1608  0.3298  0.7823
  419MOL0     C55207   2.039   3.422   1.700  0.4870 -0.2697 -0.0618
  419MOL0     C55208   1.929   3.393   1.621 -0.4328  0.4089 -0.1162
  419MOL0     C55209   1.807   3.434   1.646  0.3433  0.0050 -1.2532
  419MOL0     C55210   1.790   3.527   1.751  0.2254  0.4800  1.1976
  419MOL0     O55211   1.671   3.583   1.784 -0.2251 -0.0798  0.1822
  419MOL0     C55212   1.546   3.545   1.726 -1.4217 -0.4916  0.6825
  419MOL0     C55213   1.429   3.645   1.767 -0.7021  0.0221  0.0602
  419MOL0     C55214   1.295   3.579   1.728 -0.8272  0.0269  0.5289
  419MOL0     C55215   1.188   3.691   1.736  0.0243 -0.8355  0.7678
  419MOL0     C55216   1.064   3.681   1.648  0.2727 -0.3322  0.5790
  419MOL0     C55217   1.092   3.701   1.494 -0.4941  0.3179  0.1036
  419MOL0     C55218   0.963   3.726   1.410 -0.2223  0.0029 -0.6096
  419MOL0     C55219   0.867   3.608   1.414  0.0178 -0.4978  0.2385
  419MOL0    Cl55220   0.903   3.461   1.334  0.5760  0.2039 -0.1088
  419MOL0     C55221   1.901   3.578   1.820  0.0516  0.2783  0.7472
  419MOL0     C55222   2.031   3.526   1.791  0.0446  0.0359 -0.7808
  419MOL0     O55223   2.097   3.155   1.716 -0.0249 -1.1170  0.4709
  419MOL0     C55224   2.429   3.295   1.656  1.0403 -0.8818 -0.1500
  419MOL0     C55225   2.562   3.254   1.652  1.0664 -0.7073  0.7569
  419MOL0     N55226   3.025   3.001   1.145  0.1663  0.9710 -0.4124
  419MOL0     N55227   3.074   3.059   1.039 -0.5164 -0.0001  0.2503
  419MOL0     C55228   4.294   3.473   1.048 -0.1085 -0.3545 -0.4243
  419MOL0     C55229   4.438   3.470   1.031  0.6724  0.2648 -0.0410
  419MOL0     C55230   4.850   3.449   0.919 -0.4435 -0.1275 -0.1239
  419MOL0     C55231   4.890   3.318   0.890  0.1041  0.3451  0.3894
  419MOL0     C55232   5.026   3.284   0.881  0.9448 -0.6629  0.6047
  419MOL0     C55233   5.127   3.377   0.908 -0.0165  0.4911  0.3286
  419MOL0     O55234   5.260   3.332   0.893 -0.8362  0.1435  0.7478
  419MOL0     C55235   5.372   3.385   0.965 -0.0110  0.5263  0.8019
  419MOL0     C55236   5.460   3.272   1.030 -0.1451  0.0447  0.0821
  419MOL0     C55237   5.550   3.228   0.918 -0.1958  0.9510  0.5631
  419MOL0     C55238   5.632   3.107   0.962  0.8263 -0.3615  0.8238
  419MOL0     C55239   5.743   3.145   1.046  0.3144 -0.2100  0.2313
  419MOL0     C55240   5.827   3.188   1.120  0.3277 -0.9055 -1.0197
  419MOL0     C55241   5.089   3.508   0.943  0.3965 -0.1123  0.1705
  419MOL0     C55242   4.952   3.541   0.958  0.6283  0.5622  0.0796
  419MOL0     H55243   4.422   3.254   0.766  0.3955 -0.6034  1.1938
  419MOL0     H55244   4.178   3.293   0.786 -1.5811 -2.3415  3.3582
  419MOL0     H55245   3.999   3.247   0.913 -1.9958 -0.5940  1.8922
  419MOL0     H55246   3.959   3.406   0.825  2.0401 -0.7739 -0.8272
  419MOL0     H55247   3.835   3.436   1.062 -0.1358 -2.2108  2.9901
  419MOL0     H55248   3.866   3.269   1.078  2.7747  1.1511 -0.2527
  419MOL0     H55249   3.725   3.204   0.892  1.0803  0.4413 -2.9843
  419MOL0     H55250   3.750   3.361   0.819  1.1459 -1.0660 -0.3712
  419MOL0     H55251   3.577   3.292   1.075 -0.4719  0.0354  0.2365
  419MOL0     H55252   3.581   3.459   1.004  0.1095  0.2341  0.0093
  419MOL0     H55253   3.463   3.200   0.886 -0.4805 -0.2041  0.7269
  419MOL0     H55254   3.497   3.348   0.800  0.2756  0.2751  0.1469
  419MOL0     H55255   3.318   3.466   0.942 -1.5364  0.4128  2.7696
  419MOL0     H55256   3.325   3.336   1.065  1.0550  2.2926  0.7032
  419MOL0     H55257   3.214   3.310   0.782 -1.2766 -2.3802 -0.6288
  419MOL0     H55258   3.250   3.178   0.876  2.6913  0.7240  0.9106
  419MOL0     H55259   3.005   3.325   0.897 -1.6293 -0.7493  1.5255
  419MOL0     H55260   3.084   3.403   1.016  0.0641  0.7212 -1.3774
  419MOL0     H55261   2.965   3.313   1.219  2.6539 -0.2722  1.7302
  419MOL0     H55262   2.944   3.127   1.438  0.7516  0.8051 -1.7099
  419MOL0     H55263   2.968   2.954   1.386 -1.5479  0.5880  0.1413
  419MOL0     H55264   2.769   2.977   1.253 -1.2810 -2.6916  1.7761
  419MOL0     H55265   2.720   3.124   1.359  0.7037 -0.3019  1.3234
  419MOL0     H55266   2.600   2.930   1.456 -0.4966  1.1085  0.6605
  419MOL0     H55267   2.744   2.838   1.436  0.2058 -0.2698  1.6394
  419MOL0     H55268   2.873   2.954   1.605 -0.1451  0.5596  1.6961
  419MOL0     H55269   2.731   2.892   1.674 -1.1080  0.2415 -0.5010
  419MOL0     H55270   2.523   2.921   1.675  1.4442  0.4950 -0.5345
  419MOL0     H55271   2.285   2.996   1.707 -1.3129  3.0836 -0.2103
  419MOL0     H55272   1.945   3.316   1.546  1.0710 -1.6132  2.1049
  419MOL0     H55273   1.720   3.386   1.601  0.7564 -1.3395 -0.6571
  419MOL0     H55274   1.523   3.440   1.741 -0.5020 -0.7763  0.1555
  419MOL0     H55275   1.559   3.556   1.618  0.4293 -0.5395  0.8746
  419MOL0     H55276   1.457   3.739   1.719 -0.0851  0.0146  0.3961
  419MOL0     H55277   1.432   3.660   1.875  0.2745 -0.4493  0.1134
  419MOL0     H55278   1.267   3.490   1.784  0.8963 -0.8770  0.0042
  419MOL0     H55279   1.321   3.554   1.625 -3.0288  1.2061 -0.3946
  419MOL0     H55280   1.151   3.697   1.838 -1.9347  0.7588  0.0217
  419MOL0     H55281   1.244   3.780   1.705  0.3294 -1.1965  0.2589
  419MOL0     H55282   0.986   3.750   1.680 -0.7691  0.6305 -3.4173
  419MOL0     H55283   1.029   3.580   1.673  1.9336 -0.0099  4.8807
  419MOL0     H55284   1.147   3.614   1.458  0.4624 -0.0869  2.3669
  419MOL0     H55285   1.159   3.784   1.469  0.6088 -1.4975 -3.7371
  419MOL0     H55286   0.916   3.820   1.444 -0.0725  1.3609 -3.8299
  419MOL0     H55287   0.982   3.745   1.304 -0.6851 -0.1907 -0.7288
  419MOL0     H55288   0.780   3.647   1.359 -0.5908 -0.7831  0.9755
  419MOL0     H55289   0.841   3.572   1.514 -0.2962 -0.6670  0.0997
  419MOL0     H55290   1.889   3.663   1.886 -1.4546 -1.4738  2.8453
  419MOL0     H55291   2.118   3.570   1.839 -0.2071 -1.7146  1.4232
  419MOL0     H55292   2.418   3.402   1.643 -0.7136 -0.7304  2.0944
  419MOL0     H55293   2.628   3.340   1.643  0.0124  0.4466  3.2256
  419MOL0     H55294   4.256   3.524   1.137  2.3685 -0.3410  0.6925
  419MOL0     H55295   4.506   3.519   1.100 -0.0813 -0.2501  1.0866
  419MOL0     H55296   4.827   3.232   0.869  1.7969 -1.6545  2.8262
  419MOL0     H55297   5.046   3.182   0.852 -2.1394 -0.9131 -1.0132
  419MOL0     H55298   5.347   3.457   1.044  0.7454  1.2653  0.3881
  419MOL0     H55299   5.432   3.452   0.902 -0.2998  2.4951  2.4965
  419MOL0     H55300   5.525   3.326   1.100  1.1316 -2.4715  0.9524
  419MOL0     H55301   5.396   3.196   1.077 -0.7936  0.4226 -0.1766
  419MOL0     H55302   5.621   3.310   0.907  2.4153 -1.3890 -1.3705
  419MOL0     H55303   5.493   3.214   0.826  0.7046  0.5373  0.0558
  419MOL0     H55304   5.569   3.030   1.009  0.0095  0.0558  0.4093
  419MOL0     H55305   5.679   3.052   0.879  1.2924 -2.2004  2.2189
  419MOL0     H55306   5.878   3.245   1.195 -0.9586 -0.2987 -0.5793
  419MOL0     H55307   5.170   3.570   0.982  0.3485 -0.3084  0.5924
  419MOL0     H55308   4.907   3.636   0.986  1.1859  1.2301 -1.1997
  420MOL0     O55309   9.144   5.249   8.308  0.3100  0.1904 -0.1680
  420MOL0     C55310   9.137   5.130   8.304  0.1048  0.2088 -0.2585
  420MOL0     O55311   9.028   5.052   8.266 -0.1076 -0.3726  0.0009
  420MOL0     C55312   8.909   5.116   8.241  0.3431 -0.9227  0.5203
  420MOL0     C55313   8.795   5.074   8.305  0.0492  0.1935  0.1461
  420MOL0     C55314   8.675   5.143   8.291 -0.5078  0.8095 -0.1021
  420MOL0     C55315   8.654   5.235   8.191 -0.4720 -0.1383 -0.0945
  420MOL0     O55316   8.532   5.286   8.181 -0.3570 -0.3423 -0.3318
  420MOL0     C55317   8.484   5.333   8.055 -0.4068 -0.4426 -0.0413
  420MOL0     C55318   8.331   5.301   8.050 -0.0243  0.2844  0.4929
  420MOL0     C55319   8.252   5.412   8.112  0.6355 -0.3724  0.6383
  420MOL0     C55320   8.102   5.374   8.108 -0.9259 -0.4623  0.5304
  420MOL0     C55321   8.016   5.477   8.177  0.2600 -0.9341 -0.2698
  420MOL0     C55322   7.878   5.422   8.216  0.0266  0.9390  0.3594
  420MOL0     C55323   7.778   5.528   8.261  0.2604 -0.3806 -0.6538
  420MOL0     C55324   7.632   5.487   8.262 -0.1701  0.0363  0.3681
  420MOL0     N55325   7.549   5.600   8.308  0.1002  0.4093 -0.3167
  420MOL0     C55326   7.537   5.641   8.434  0.9121  0.5413 -0.6032
  420MOL0     C55327   7.490   5.764   8.428  0.2610 -0.8596  0.1012
  420MOL0     C55328   7.475   5.858   8.544  0.2138  1.0318  0.2459
  420MOL0     C55329   7.321   5.879   8.579  0.1927 -0.2493 -0.2495
  420MOL0     C55330   7.298   5.982   8.692 -0.3491  0.5388  0.2747
  420MOL0     C55331   7.157   5.962   8.754 -0.3463 -0.3952  0.5229
  420MOL0     O55332   7.151   6.041   8.881 -0.0206 -0.4942  0.7018
  420MOL0     C55333   7.025   6.041   8.936 -0.0232  0.1580  0.2553
  420MOL0     C55334   6.924   6.108   8.874  0.3148 -0.0204  0.2103
  420MOL0     C55335   6.794   6.107   8.941  0.2728  0.1608  0.4899
  420MOL0     C55336   6.777   6.048   9.069 -0.1308  0.2378 -0.0453
  420MOL0     C55337   6.655   6.067   9.156  0.2573 -0.2898  0.0873
  420MOL0     O55338   6.655   6.013   9.277  0.4897 -0.2673 -0.6634
  420MOL0     C55339   6.543   6.028   9.363  0.9461 -0.1970 -1.0455
  420MOL0     C55340   6.546   6.100   9.484  0.5407 -0.2263  0.6564
  420MOL0     C55341   6.429   6.111   9.568 -0.8863 -0.0816  0.4427
  420MOL0     C55342   6.318   6.035   9.545 -0.1834 -0.4208  0.9783
  420MOL0     O55343   6.218   6.029   9.637 -0.1088  0.2039 -0.1473
  420MOL0     C55344   6.081   6.044   9.585  1.1668  0.2966  0.4216
  420MOL0     C55345   5.984   6.070   9.707  0.5317 -0.3901  0.3517
  420MOL0     C55346   5.834   6.081   9.654 -0.1118 -0.2127 -0.2868
  420MOL0     C55347   5.746   6.085   9.768 -0.8363 -0.5857 -0.5401
  420MOL0     C55348   5.593   6.099   9.743 -0.1471 -0.6196  0.4613
  420MOL0     C55349   5.509   6.035   9.850  0.1637  0.0218 -0.5276
  420MOL0     C55350   5.352   6.070   9.833 -0.4833 -0.1296  0.1070
  420MOL0     C55351   5.260   5.996   9.937 -0.3394 -0.0989 -0.0210
  420MOL0    Cl55352   5.094   6.072   9.925  0.1200 -0.0592 -0.4106
  420MOL0     C55353   6.316   5.951   9.422 -0.3885  0.0136  0.9317
  420MOL0     C55354   6.420   5.960   9.336 -0.1942  0.3070 -0.5640
  420MOL0     O55355   6.580   6.157   9.120  0.6251  0.0504  0.2016
  420MOL0     C55356   6.883   5.972   9.113  0.7204  0.2909 -0.2560
  420MOL0     C55357   7.002   5.972   9.053 -0.1819 -0.8568 -0.4267
  420MOL0     N55358   7.454   5.795   8.295 -0.0358 -0.4867  0.5140
  420MOL0     N55359   7.484   5.691   8.229  0.9035  0.1748 -0.0826
  420MOL0     C55360   8.763   5.278   8.122  0.3754 -0.4424 -0.3434
  420MOL0     C55361   8.891   5.220   8.139 -0.3093  0.3086 -0.4250
  420MOL0     C55362   9.257   5.046   8.329 -0.8711 -0.5169  0.0496
  420MOL0     C55363   9.377   5.094   8.400  0.6546 -0.6464 -0.8471
  420MOL0     C55364   9.486   5.011   8.423  0.0342  0.1452  0.4321
  420MOL0     C55365   9.497   4.878   8.372 -0.0952 -0.0758 -0.8526
  420MOL0     O55366   9.619   4.808   8.381  0.0004 -0.2015 -0.3452
  420MOL0     C55367   9.594   4.684   8.438  0.3620 -0.0946 -0.3861
  420MOL0     C55368   9.695   4.662   8.554 -0.3838  0.0533  0.5499
  420MOL0     C55369   9.697   4.779   8.657 -0.1691  0.0136 -0.1534
  420MOL0     C55370   9.787   4.740   8.773 -0.7372 -0.2055  0.4384
  420MOL0     C55371   9.929   4.752   8.731  0.2372  0.2575  0.0489
  420MOL0     C55372  10.046   4.754   8.698 -0.3481  0.8030 -0.0935
  420MOL0     C55373   9.384   4.831   8.304  0.3463 -0.0665 -0.1557
  420MOL0     C55374   9.264   4.913   8.281 -0.4612 -0.4520  0.3509
  420MOL0     H55375   8.799   5.001   8.385 -1.3234  0.0818  0.1413
  420MOL0     H55376   8.600   5.106   8.361 -0.0437  0.9668  0.4907
  420MOL0     H55377   8.529   5.281   7.969  0.1606  2.2056 -1.4483
  420MOL0     H55378   8.503   5.441   8.051  1.5603 -0.7449 -0.1256
  420MOL0     H55379   8.314   5.208   8.106 -1.1250  0.6574  0.7930
  420MOL0     H55380   8.292   5.284   7.950  2.3684  0.8317 -0.6099
  420MOL0     H55381   8.281   5.502   8.057  2.1814 -1.3176 -0.1454
  420MOL0     H55382   8.291   5.431   8.213 -1.1218 -2.3587  1.7651
  420MOL0     H55383   8.066   5.364   8.005 -1.5327 -0.4052  0.7344
  420MOL0     H55384   8.082   5.279   8.158 -4.8718 -0.7690 -1.2883
  420MOL0     H55385   8.014   5.568   8.116 -1.5373 -2.4269 -2.6188
  420MOL0     H55386   8.062   5.503   8.273  0.7216 -2.4168 -0.0598
  420MOL0     H55387   7.894   5.356   8.302 -0.5452  0.7219  0.3085
  420MOL0     H55388   7.835   5.368   8.131  1.3480  2.0455 -1.0574
  420MOL0     H55389   7.794   5.556   8.365 -0.4322 -2.1995 -0.0219
  420MOL0     H55390   7.792   5.614   8.195 -3.0072  0.5016 -0.3992
  420MOL0     H55391   7.624   5.401   8.329  2.3948 -2.0298 -1.7313
  420MOL0     H55392   7.602   5.449   8.163 -1.1985  1.1264  0.2365
  420MOL0     H55393   7.581   5.591   8.519 -1.4779  0.3894  0.6060
  420MOL0     H55394   7.514   5.958   8.519 -0.4679  1.9944  2.7671
  420MOL0     H55395   7.523   5.810   8.630 -0.2376 -1.1850 -0.6651
  420MOL0     H55396   7.276   5.789   8.621  0.5998 -1.3097 -1.9660
  420MOL0     H55397   7.271   5.909   8.486  0.0506  1.5958  0.3849
  420MOL0     H55398   7.374   5.974   8.771 -2.1934  0.5732  2.1278
  420MOL0     H55399   7.309   6.079   8.643 -2.3756  0.1979 -0.9474
  420MOL0     H55400   7.139   5.858   8.780 -3.1379 -0.1368 -0.0531
  420MOL0     H55401   7.086   5.987   8.675 -0.5180 -0.8909  0.5228
  420MOL0     H55402   6.946   6.160   8.782 -1.6850 -0.1387 -0.3791
  420MOL0     H55403   6.714   6.169   8.901 -0.1468 -0.6584  0.0245
  420MOL0     H55404   6.638   6.148   9.516  1.0909 -0.4416 -0.5527
  420MOL0     H55405   6.444   6.160   9.664  1.3692  0.0964  0.0520
  420MOL0     H55406   6.041   5.951   9.543  0.1131 -0.8838  3.7426
  420MOL0     H55407   6.068   6.123   9.510  1.7053 -0.0781 -0.0798
  420MOL0     H55408   6.010   6.165   9.755  0.2268  0.9082 -1.9055
  420MOL0     H55409   5.991   5.980   9.768  0.2185 -1.0398 -0.5416
  420MOL0     H55410   5.820   5.992   9.594  0.0932  0.3169 -1.1368
  420MOL0     H55411   5.813   6.176   9.604 -1.6440  0.8558  2.2173
  420MOL0     H55412   5.767   5.996   9.827  1.2992  0.5070  0.4874
  420MOL0     H55413   5.769   6.170   9.833  1.0909 -1.1918 -0.3425
  420MOL0     H55414   5.581   6.051   9.645  0.1644 -1.8509  1.0081
  420MOL0     H55415   5.572   6.206   9.730  2.0745  0.0728  1.9361
  420MOL0     H55416   5.548   6.072   9.945  0.8558  2.2732 -1.6186
  420MOL0     H55417   5.513   5.926   9.841 -1.1934 -0.0206 -0.9391
  420MOL0     H55418   5.331   6.177   9.839 -1.7990 -0.3200 -0.7838
  420MOL0     H55419   5.318   6.054   9.730 -0.2598  1.9373 -0.3303
  420MOL0     H55420   5.301   6.004  10.038 -2.0530  1.4213  0.6234
  420MOL0     H55421   5.259   5.890   9.909  2.2130  0.1426 -1.3419
  420MOL0     H55422   6.223   5.899   9.403 -1.1199  0.9595  1.8387
  420MOL0     H55423   6.409   5.914   9.239 -0.0203  3.0835 -2.0060
  420MOL0     H55424   6.865   5.895   9.187  1.0516 -1.0797 -1.5504
  420MOL0     H55425   7.079   5.905   9.090  0.6983  0.0797 -0.5140
  420MOL0     H55426   8.760   5.365   8.057  0.7163  0.1298  0.3869
  420MOL0     H55427   8.977   5.251   8.081 -0.2538  3.9023  1.2956
  420MOL0     H55428   9.396   5.197   8.429  0.4075 -0.6842 -0.5537
  420MOL0     H55429   9.579   5.042   8.470  0.7099 -2.4630  1.0174
  420MOL0     H55430   9.610   4.607   8.362 -0.4837 -1.6580  0.9382
  420MOL0     H55431   9.489   4.674   8.469  0.4688 -0.2957 -0.0935
  420MOL0     H55432   9.665   4.571   8.605  0.6666 -0.7195 -0.1769
  420MOL0     H55433   9.796   4.658   8.512  0.3692 -0.5417  2.3255
  420MOL0     H55434   9.601   4.791   8.708 -0.3728 -0.0064 -0.5228
  420MOL0     H55435   9.736   4.874   8.619  1.0687 -0.0515  0.8762
  420MOL0     H55436   9.763   4.805   8.857 -0.7813  0.9711 -0.4619
  420MOL0     H55437   9.771   4.636   8.804  0.4780 -0.1262  1.4090
  420MOL0     H55438  10.143   4.748   8.654 -1.0548 -0.7077 -1.5585
  420MOL0     H55439   9.396   4.733   8.257  0.5438 -0.6371  1.0529
  420MOL0     H55440   9.188   4.865   8.221  1.6404 -1.8274 -1.3405
  421MOL0     O55441   4.758   8.234   9.231 -0.0396  0.0497  0.5752
  421MOL0     C55442   4.876   8.268   9.209 -0.0516 -0.2636 -0.5081
  421MOL0     O55443   4.914   8.338   9.100 -0.4878 -0.2734 -0.7751
  421MOL0     C55444   4.822   8.349   8.998 -0.2667  0.3724  0.2780
  421MOL0     C55445   4.796   8.234   8.921  0.0092 -0.1511 -0.0835
  421MOL0     C55446   4.714   8.250   8.811  0.1447 -0.7254  1.0089
  421MOL0     C55447   4.649   8.372   8.784 -0.0541 -0.0849 -0.2218
  421MOL0     O55448   4.571   8.385   8.671 -0.3159  0.5395  0.3676
  421MOL0     C55449   4.481   8.490   8.655 -0.0224 -0.6681  0.0458
  421MOL0     C55450   4.362   8.466   8.749  0.9119  0.6310  0.0057
  421MOL0     C55451   4.297   8.327   8.714 -0.1868 -0.6409 -0.1808
  421MOL0     C55452   4.170   8.314   8.805 -0.1214 -0.0883 -0.1421
  421MOL0     C55453   4.100   8.196   8.746  0.6690  0.0237 -0.1239
  421MOL0     C55454   4.174   8.067   8.771 -0.2552  0.6092  0.2231
  421MOL0     C55455   4.080   7.944   8.769 -0.5670 -0.3098  0.2957
  421MOL0     C55456   4.156   7.808   8.756 -0.5429 -0.8611  0.4511
  421MOL0     N55457   4.063   7.696   8.746  0.4989 -0.1630 -0.3031
  421MOL0     C55458   4.014   7.663   8.616  0.1541 -0.3769 -0.4932
  421MOL0     C55459   3.895   7.595   8.627  0.9214  0.4860  0.7097
  421MOL0     C55460   3.815   7.535   8.515 -0.7822  0.1640  0.0252
  421MOL0     C55461   3.708   7.445   8.568 -0.9269 -0.3252 -0.7420
  421MOL0     C55462   3.594   7.446   8.470  0.8148  0.1423  0.0513
  421MOL0     C55463   3.476   7.361   8.525  0.3858  0.0067 -0.7876
  421MOL0     O55464   3.379   7.367   8.422  0.6462 -0.2345 -0.0960
  421MOL0     C55465   3.249   7.346   8.465 -0.2534 -0.2890  1.2980
  421MOL0     C55466   3.215   7.278   8.572 -0.2735 -1.1778  0.0062
  421MOL0     C55467   3.080   7.257   8.619  0.1503  0.4998  1.3914
  421MOL0     C55468   2.976   7.316   8.539  0.4303  0.0027 -0.3078
  421MOL0     C55469   2.832   7.285   8.564 -0.8730  0.9242 -0.0918
  421MOL0     O55470   2.743   7.353   8.487  0.8006  0.0297 -0.2971
  421MOL0     C55471   2.609   7.338   8.498 -0.1314  0.0203 -0.0529
  421MOL0     C55472   2.546   7.368   8.379  0.3085  0.1429  0.0080
  421MOL0     C55473   2.406   7.373   8.377  0.1197  1.0864  0.0599
  421MOL0     C55474   2.325   7.351   8.498  0.4821 -0.7880 -0.2892
  421MOL0     O55475   2.186   7.375   8.505 -0.2055 -0.4374  0.1833
  421MOL0     C55476   2.116   7.404   8.383  1.2221  0.3303 -1.0181
  421MOL0     C55477   1.974   7.403   8.413  0.1445  0.5816  0.5809
  421MOL0     C55478   1.917   7.260   8.445 -0.1529 -0.3273  0.9015
  421MOL0     C55479   1.971   7.195   8.571  0.3623 -0.0552 -0.9560
  421MOL0     C55480   1.922   7.042   8.573  0.1255 -0.5233 -1.0411
  421MOL0     C55481   1.791   7.029   8.658 -0.8532 -0.5787  0.3880
  421MOL0     C55482   1.729   6.893   8.629 -0.0343  0.1073 -0.1822
  421MOL0     C55483   1.598   6.885   8.717 -0.3124 -0.2239 -0.5325
  421MOL0    Cl55484   1.488   7.029   8.715 -0.1791 -0.0266 -0.2359
  421MOL0     C55485   2.399   7.306   8.608  0.7611  0.2753 -0.2832
  421MOL0     C55486   2.539   7.300   8.611  0.4040 -0.9205  0.4168
  421MOL0     O55487   2.808   7.201   8.654 -0.5705 -0.4088  0.1464
  421MOL0     C55488   3.015   7.396   8.432 -0.5364 -1.0350  0.1541
  421MOL0     C55489   3.149   7.402   8.392  1.3523 -0.0656 -1.4844
  421MOL0     N55490   3.863   7.602   8.757 -1.0211 -0.3850 -0.0578
  421MOL0     N55491   3.961   7.662   8.826  0.3871 -0.3050  0.2845
  421MOL0     C55492   4.672   8.484   8.874  0.0287  0.5324 -0.3265
  421MOL0     C55493   4.758   8.470   8.978  0.1335  0.1354 -0.4479
  421MOL0     C55494   4.976   8.221   9.312  0.1880 -0.7542  0.1506
  421MOL0     C55495   4.963   8.105   9.399  0.1429 -0.8011  0.4814
  421MOL0     C55496   5.062   8.073   9.490 -0.1948  0.6691  0.0607
  421MOL0     C55497   5.186   8.131   9.486 -0.6050  0.8782 -1.0316
  421MOL0     O55498   5.293   8.082   9.558 -0.5979 -0.0005 -0.3859
  421MOL0     C55499   5.435   8.105   9.521 -0.3764  0.3867 -0.3327
  421MOL0     C55500   5.520   8.061   9.643 -0.0500  0.5901 -0.3542
  421MOL0     C55501   5.521   7.911   9.640 -0.5682  0.4173  0.0502
  421MOL0     C55502   5.623   7.857   9.745 -1.1104  0.1367 -0.4267
  421MOL0     C55503   5.764   7.861   9.693 -0.1483  1.6010  0.4639
  421MOL0     C55504   5.880   7.864   9.648  0.2538  0.2832 -0.4006
  421MOL0     C55505   5.201   8.239   9.398  0.5610 -0.3495 -0.0180
  421MOL0     C55506   5.097   8.292   9.322  0.7358 -0.1102  0.5825
  421MOL0     H55507   4.853   8.142   8.933 -0.3722 -0.3653  0.1096
  421MOL0     H55508   4.709   8.173   8.735 -3.5069  0.5420 -0.2635
  421MOL0     H55509   4.437   8.494   8.555  2.8895 -0.7518 -1.3397
  421MOL0     H55510   4.523   8.590   8.667  2.2819 -1.3262 -1.7266
  421MOL0     H55511   4.287   8.545   8.742  0.9210  0.7402  0.9902
  421MOL0     H55512   4.404   8.461   8.850  1.2947  0.9499 -0.1371
  421MOL0     H55513   4.362   8.242   8.732  0.3774 -0.0565  0.5891
  421MOL0     H55514   4.274   8.328   8.607  1.4223 -0.1101 -0.5402
  421MOL0     H55515   4.187   8.292   8.911 -0.9472 -0.2664 -0.0405
  421MOL0     H55516   4.108   8.403   8.800 -1.6549 -1.0826  0.4343
  421MOL0     H55517   4.087   8.218   8.640 -1.5574 -0.7399 -0.0644
  421MOL0     H55518   4.000   8.188   8.790  1.9972 -2.5130  2.8674
  421MOL0     H55519   4.229   8.062   8.866  0.6968 -0.7550 -0.3492
  421MOL0     H55520   4.253   8.046   8.698  0.9803  2.2029  1.0158
  421MOL0     H55521   4.021   7.956   8.860 -0.6729 -0.4454  0.2442
  421MOL0     H55522   4.012   7.948   8.684 -0.5247 -1.6172  0.1860
  421MOL0     H55523   4.216   7.800   8.847  0.0742  3.7501  0.6579
  421MOL0     H55524   4.236   7.810   8.682 -1.5767  0.2782 -0.6646
  421MOL0     H55525   4.079   7.697   8.536  1.2728 -2.0768 -0.3678
  421MOL0     H55526   3.876   7.477   8.446  0.5035 -0.8693  1.9538
  421MOL0     H55527   3.760   7.618   8.469 -0.7533  0.1272 -0.0744
  421MOL0     H55528   3.670   7.477   8.666  0.2891 -0.3802 -0.2332
  421MOL0     H55529   3.743   7.343   8.582  1.8182  0.2757 -2.5376
  421MOL0     H55530   3.568   7.548   8.442  0.5833  0.5306  1.5631
  421MOL0     H55531   3.623   7.384   8.384  0.9460 -1.1519  0.9938
  421MOL0     H55532   3.445   7.415   8.616  2.8888  0.3064 -0.0477
  421MOL0     H55533   3.497   7.262   8.565 -2.6963  0.0020  1.1893
  421MOL0     H55534   3.284   7.252   8.652 -1.2327 -1.1833  0.8517
  421MOL0     H55535   3.059   7.204   8.712  1.7569 -2.8418  0.0349
  421MOL0     H55536   2.593   7.397   8.286  0.0400  0.7670  0.0591
  421MOL0     H55537   2.353   7.397   8.285  1.0529 -0.7278 -1.0187
  421MOL0     H55538   2.142   7.318   8.320  2.9231 -0.9313  1.2148
  421MOL0     H55539   2.149   7.497   8.336  1.4465  0.3547 -0.8189
  421MOL0     H55540   1.925   7.431   8.319  0.8219 -2.6329 -0.8741
  421MOL0     H55541   1.950   7.471   8.495  1.2039 -1.2611  2.4918
  421MOL0     H55542   1.935   7.195   8.358 -1.0755 -0.9501  1.1506
  421MOL0     H55543   1.810   7.272   8.466  0.2158  2.6374  1.4615
  421MOL0     H55544   2.078   7.206   8.588  0.3263  0.8798 -1.2308
  421MOL0     H55545   1.935   7.250   8.658  3.3206 -0.5451  0.6793
  421MOL0     H55546   1.995   6.977   8.620 -0.8289 -0.6072  0.4049
  421MOL0     H55547   1.905   7.015   8.468  0.7725 -0.7736 -1.0856
  421MOL0     H55548   1.724   7.114   8.642  3.4110  3.3199  1.0171
  421MOL0     H55549   1.811   7.045   8.765  2.2186 -0.1114 -0.1611
  421MOL0     H55550   1.716   6.874   8.522 -0.6145  1.4883 -0.3745
  421MOL0     H55551   1.801   6.824   8.674 -1.1224 -1.5782 -0.9148
  421MOL0     H55552   1.613   6.857   8.822 -1.8786 -0.5188 -0.3698
  421MOL0     H55553   1.527   6.814   8.674 -0.6971  0.6372 -1.3473
  421MOL0     H55554   2.332   7.289   8.692  0.2200 -0.5193 -0.8596
  421MOL0     H55555   2.587   7.269   8.704  2.4899  1.1253  0.1095
  421MOL0     H55556   2.948   7.464   8.381  0.3101  1.6708  2.4207
  421MOL0     H55557   3.167   7.464   8.304 -0.2058 -0.0124 -1.7994
  421MOL0     H55558   4.614   8.575   8.864  1.1536  1.1434 -1.5768
  421MOL0     H55559   4.779   8.557   9.039  2.1815 -1.2268  0.9266
  421MOL0     H55560   4.872   8.046   9.401  0.8527 -2.1535 -2.3153
  421MOL0     H55561   5.051   7.994   9.563  1.0834  1.4658  1.1668
  421MOL0     H55562   5.450   8.212   9.506 -1.3207  0.3413 -1.8659
  421MOL0     H55563   5.481   8.059   9.433  0.3516  1.5963 -0.6048
  421MOL0     H55564   5.623   8.092   9.622 -0.7992  2.8017 -1.1053
  421MOL0     H55565   5.487   8.110   9.735  1.5312  0.8037  0.1317
  421MOL0     H55566   5.543   7.880   9.537  2.4158 -2.2157  1.3104
  421MOL0     H55567   5.420   7.875   9.662  0.1104 -2.3451 -0.9696
  421MOL0     H55568   5.612   7.916   9.837 -1.9532 -0.8466  0.1296
  421MOL0     H55569   5.589   7.755   9.762  0.1772 -0.4606 -1.2891
  421MOL0     H55570   5.982   7.870   9.615  1.2451  0.7745  2.4335
  421MOL0     H55571   5.298   8.288   9.386 -0.1626  0.8893 -1.0222
  421MOL0     H55572   5.124   8.376   9.259  0.6269  0.2077  0.9592
  422MOL0     O55573   9.037  10.885   7.531  0.6399  0.7331  0.6429
  422MOL0     C55574   9.130  10.940   7.591  1.0376 -0.2616 -0.0138
  422MOL0     O55575   9.133  10.967   7.724 -0.4126  1.3819 -0.1315
  422MOL0     C55576   9.018  10.966   7.799  0.3145 -0.3536  0.2484
  422MOL0     C55577   8.902  11.022   7.751  1.5346  0.1521 -0.5344
  422MOL0     C55578   8.784  11.025   7.824  0.5230 -0.1829 -0.3620
  422MOL0     C55579   8.789  10.976   7.954 -0.0976  0.4817 -1.0685
  422MOL0     O55580   8.685  10.978   8.042  0.0847  0.4191 -0.4090
  422MOL0     C55581   8.546  11.005   7.998  0.3481 -0.1376  0.1204
  422MOL0     C55582   8.463  10.991   8.125  0.4120 -0.0150  0.4818
  422MOL0     C55583   8.326  10.939   8.094  0.1959 -0.1553 -0.4616
  422MOL0     C55584   8.234  10.942   8.218 -0.1278  0.4767  0.1639
  422MOL0     C55585   8.110  10.868   8.198  0.6218  0.0078  0.0316
  422MOL0     C55586   8.015  10.918   8.081 -0.5314  0.3227  0.5401
  422MOL0     C55587   7.977  11.065   8.112  0.9912 -0.0782 -0.6913
  422MOL0     C55588   7.840  11.101   8.050 -0.4485  0.4398  0.1066
  422MOL0     N55589   7.736  11.077   8.145  0.2731  0.6317 -0.5495
  422MOL0     C55590   7.676  10.958   8.186  0.1094 -0.9992  0.4569
  422MOL0     C55591   7.567  10.991   8.260  0.1885  1.0837  0.0928
  422MOL0     C55592   7.470  10.913   8.348  0.2268  0.3205 -0.3938
  422MOL0     C55593   7.323  10.921   8.301  0.5637 -0.0639 -0.0904
  422MOL0     C55594   7.304  10.843   8.173  0.4938 -0.8825 -0.3226
  422MOL0     C55595   7.172  10.884   8.104  0.2387  0.1404  0.0866
  422MOL0     O55596   7.076  10.801   8.162  0.4539 -0.7217  0.0445
  422MOL0     C55597   6.949  10.790   8.114  1.0698  0.1082  0.0737
  422MOL0     C55598   6.866  10.711   8.190 -0.1966  0.2047 -0.3181
  422MOL0     C55599   6.726  10.704   8.177 -0.3351 -1.0313 -0.7448
  422MOL0     C55600   6.660  10.778   8.073 -0.7101  0.0386  0.3399
  422MOL0     C55601   6.517  10.773   8.054 -0.3828 -0.2677 -0.9267
  422MOL0     O55602   6.447  10.678   8.123 -0.4952  0.3414 -0.0824
  422MOL0     C55603   6.308  10.663   8.117 -0.0729  0.6716 -0.7354
  422MOL0     C55604   6.217  10.724   8.028  0.8435 -0.0969  0.5756
  422MOL0     C55605   6.079  10.705   8.025 -0.8132  0.7426  0.7431
  422MOL0     C55606   6.028  10.613   8.116 -0.1095  0.1868 -0.0550
  422MOL0     O55607   5.887  10.601   8.119 -0.3375  0.1777  0.0881
  422MOL0     C55608   5.833  10.591   8.254 -0.7570  0.2364 -0.0937
  422MOL0     C55609   5.725  10.690   8.263 -0.1287 -0.4266  0.7938
  422MOL0     C55610   5.589  10.633   8.235 -0.6469  0.5025  0.3973
  422MOL0     C55611   5.481  10.738   8.248  0.4034  0.0904  0.3961
  422MOL0     C55612   5.340  10.690   8.208 -1.2914  0.1498 -1.5017
  422MOL0     C55613   5.247  10.804   8.222 -0.1746  0.5863 -0.9679
  422MOL0     C55614   5.101  10.771   8.173  0.2211 -1.2566  0.8330
  422MOL0     C55615   5.016  10.891   8.187  0.6955 -0.5058 -0.6847
  422MOL0    Cl55616   4.861  10.848   8.126 -0.5798  0.3044 -0.3078
  422MOL0     C55617   6.113  10.546   8.211  0.3751  0.1537 -1.1243
  422MOL0     C55618   6.255  10.570   8.206  0.2961 -0.1868  0.7951
  422MOL0     O55619   6.465  10.856   7.989  0.3565  0.0322 -0.8026
  422MOL0     C55620   6.748  10.854   7.993  0.5690 -0.3076  0.2208
  422MOL0     C55621   6.884  10.863   8.012 -0.8986 -0.5120 -0.2340
  422MOL0     N55622   7.559  11.129   8.250 -0.8378 -0.4156  0.1268
  422MOL0     N55623   7.663  11.177   8.191  0.0277 -0.3650  0.0146
  422MOL0     C55624   8.907  10.923   8.002 -0.0985  0.2586  1.1700
  422MOL0     C55625   9.018  10.903   7.930 -0.0753 -1.2277  0.8771
  422MOL0     C55626   9.241  10.992   7.508 -0.0098  0.0859 -0.4128
  422MOL0     C55627   9.245  10.995   7.370  0.1948  0.5148 -0.3599
  422MOL0     C55628   9.347  11.039   7.289 -0.0107  0.2137  0.1251
  422MOL0     C55629   9.464  11.074   7.348  0.6060 -0.9268 -0.5847
  422MOL0     O55630   9.569  11.110   7.266 -0.2309  0.6017 -0.8343
  422MOL0     C55631   9.573  11.247   7.243  0.0261  0.2499  1.1896
  422MOL0     C55632   9.655  11.312   7.346 -1.1316  0.8317  0.3156
  422MOL0     C55633   9.804  11.274   7.358 -0.1128  0.4929 -1.2740
  422MOL0     C55634   9.808  11.168   7.473 -0.4860 -0.4724 -0.0647
  422MOL0     C55635   9.949  11.161   7.507  0.3489  0.7576 -0.1224
  422MOL0     C55636  10.063  11.131   7.523 -0.0065  0.5777  0.6621
  422MOL0     C55637   9.478  11.065   7.488  0.2842 -0.6198 -0.3862
  422MOL0     C55638   9.363  11.025   7.566 -0.5163 -0.5239  0.6487
  422MOL0     H55639   8.906  11.056   7.648  1.3556  1.3166 -0.1716
  422MOL0     H55640   8.688  11.063   7.788 -0.7918 -0.9329  2.0801
  422MOL0     H55641   8.508  10.937   7.921 -1.6667 -3.0130  3.3712
  422MOL0     H55642   8.529  11.105   7.957 -2.3525 -1.6995 -3.1433
  422MOL0     H55643   8.453  11.088   8.175 -2.3283  1.7185 -2.9347
  422MOL0     H55644   8.508  10.918   8.193 -1.0382 -0.6077  0.8228
  422MOL0     H55645   8.325  10.835   8.061 -1.3378 -0.4303  0.3771
  422MOL0     H55646   8.277  11.009   8.026 -0.0206  2.6437  2.3499
  422MOL0     H55647   8.295  10.897   8.297  0.3266  0.8008  0.0071
  422MOL0     H55648   8.220  11.042   8.258  0.4314  0.2652  0.9138
  422MOL0     H55649   8.062  10.872   8.296 -0.1005 -2.6818 -0.1387
  422MOL0     H55650   8.136  10.763   8.180 -1.5566 -0.7423  0.9955
  422MOL0     H55651   7.930  10.851   8.072 -0.7812  0.5739  1.0049
  422MOL0     H55652   8.068  10.911   7.985  1.1700 -1.1055  1.5144
  422MOL0     H55653   7.969  11.075   8.221  0.4429 -1.9920 -0.5088
  422MOL0     H55654   8.049  11.142   8.083 -2.0754  3.0527 -0.5552
  422MOL0     H55655   7.814  11.046   7.959 -0.4495 -0.8660  0.8841
  422MOL0     H55656   7.836  11.207   8.022 -0.2180  0.3333 -0.3437
  422MOL0     H55657   7.715  10.859   8.163 -1.2143 -1.5661  0.5443
  422MOL0     H55658   7.480  10.953   8.449 -1.1819 -0.8117  0.2192
  422MOL0     H55659   7.509  10.811   8.359  2.7919  1.2968  0.4530
  422MOL0     H55660   7.305  11.027   8.280 -1.7608 -0.4838 -0.4601
  422MOL0     H55661   7.250  10.872   8.366  0.6298 -1.9364 -1.3624
  422MOL0     H55662   7.373  10.858   8.090  0.1188 -0.1071 -0.5064
  422MOL0     H55663   7.293  10.737   8.198  0.4325 -0.6388  0.7096
  422MOL0     H55664   7.176  10.865   7.996  4.3319 -2.6892  0.5126
  422MOL0     H55665   7.150  10.990   8.118 -2.1527 -0.0320 -1.7063
  422MOL0     H55666   6.909  10.677   8.284 -1.6199  2.0686  1.0891
  422MOL0     H55667   6.684  10.634   8.248 -0.4225 -0.6007 -0.3671
  422MOL0     H55668   6.252  10.794   7.953 -1.8670  0.0848 -0.6015
  422MOL0     H55669   6.008  10.758   7.962  0.3508 -0.7922 -2.0576
  422MOL0     H55670   5.912  10.615   8.325  1.0356 -1.5502 -1.3652
  422MOL0     H55671   5.798  10.489   8.274  1.2750 -0.8222 -1.5273
  422MOL0     H55672   5.750  10.780   8.206 -0.0682 -0.7757  0.2678
  422MOL0     H55673   5.711  10.712   8.370 -2.2374  1.9305  0.1406
  422MOL0     H55674   5.552  10.560   8.308 -1.6637  3.1957  2.7835
  422MOL0     H55675   5.589  10.596   8.132 -0.5454  0.1522  0.5209
  422MOL0     H55676   5.480  10.766   8.354  2.9495  1.0257  0.2525
  422MOL0     H55677   5.502  10.831   8.195 -0.3302  2.3459  3.7141
  422MOL0     H55678   5.298  10.610   8.271 -0.4798  2.1177  1.7933
  422MOL0     H55679   5.323  10.654   8.106 -2.6545 -2.8695 -0.3423
  422MOL0     H55680   5.287  10.885   8.160 -1.0466  2.9256  1.3171
  422MOL0     H55681   5.236  10.832   8.327 -0.2853  0.8122 -1.0381
  422MOL0     H55682   5.094  10.732   8.071  0.8961 -0.3606  0.4320
  422MOL0     H55683   5.065  10.691   8.238 -1.7294  0.5348  2.1042
  422MOL0     H55684   5.042  10.987   8.143 -2.7957  2.6645  3.2399
  422MOL0     H55685   4.983  10.906   8.291  0.1472  0.0237 -0.9289
  422MOL0     H55686   6.079  10.481   8.291 -0.4770  1.6643 -0.2120
  422MOL0     H55687   6.326  10.514   8.267 -0.2232 -2.4539 -0.5480
  422MOL0     H55688   6.691  10.910   7.919 -3.3401 -1.3790  2.1506
  422MOL0     H55689   6.948  10.933   7.959 -1.0193  0.8936  1.3700
  422MOL0     H55690   8.902  10.891   8.106 -0.8584  0.2379  1.1359
  422MOL0     H55691   9.104  10.851   7.971  0.7630 -3.8967 -3.5548
  422MOL0     H55692   9.158  10.951   7.322 -0.3640  4.3117 -3.4175
  422MOL0     H55693   9.330  11.048   7.182 -0.0025 -2.2595 -0.1439
  422MOL0     H55694   9.474  11.292   7.244  0.3851  1.1220 -0.0900
  422MOL0     H55695   9.613  11.269   7.144 -0.1524 -0.2262  1.0077
  422MOL0     H55696   9.657  11.414   7.308 -0.6204  0.9004  0.5144
  422MOL0     H55697   9.602  11.301   7.441 -2.1239 -0.6172 -0.3678
  422MOL0     H55698   9.867  11.360   7.379  0.5761 -0.2760 -0.1140
  422MOL0     H55699   9.843  11.221   7.271  1.5115 -2.5648  1.1129
  422MOL0     H55700   9.762  11.202   7.567  2.5720  0.2694  1.2922
  422MOL0     H55701   9.782  11.067   7.439 -1.3092  0.2222 -1.5779
  422MOL0     H55702  10.165  11.100   7.526 -0.0629 -0.3474 -2.5168
  422MOL0     H55703   9.573  11.089   7.533 -1.4097  1.1868  2.6184
  422MOL0     H55704   9.362  11.010   7.673  0.5443 -0.5737  0.6627
  423MOL0     O55705   5.552   1.178  10.592  0.0482  0.0044 -0.2712
  423MOL0     C55706   5.586   1.297  10.588  0.1303  0.1652  0.7312
  423MOL0     O55707   5.511   1.393  10.541  0.2433 -0.5431 -0.0508
  423MOL0     C55708   5.376   1.391  10.552 -0.5093 -0.1723  0.0253
  423MOL0     C55709   5.300   1.325  10.645 -0.4670 -0.0563 -0.4433
  423MOL0     C55710   5.163   1.316  10.633 -0.2595 -0.1515 -0.4380
  423MOL0     C55711   5.102   1.372  10.518 -0.2181  1.0761  0.0584
  423MOL0     O55712   4.962   1.369  10.509 -0.0569  0.7579  0.0479
  423MOL0     C55713   4.897   1.457  10.420 -0.2933 -0.5769 -0.3105
  423MOL0     C55714   4.748   1.468  10.431 -0.7129  0.6264 -0.0922
  423MOL0     C55715   4.678   1.335  10.388  0.5646  0.3604  1.1157
  423MOL0     C55716   4.571   1.354  10.277 -0.2149  0.3209  0.0455
  423MOL0     C55717   4.482   1.226  10.264  0.5284  0.3144  0.4465
  423MOL0     C55718   4.380   1.225  10.145  0.0298 -0.2488  0.0021
  423MOL0     C55719   4.303   1.097  10.117 -0.2850 -0.0451 -0.3365
  423MOL0     C55720   4.202   1.087  10.232  1.1427 -0.0010 -0.6390
  423MOL0     N55721   4.100   1.186  10.223  0.0837  0.7312  0.2582
  423MOL0     C55722   4.025   1.206  10.115 -0.0619  0.1618  0.1125
  423MOL0     C55723   3.946   1.304  10.152  0.4078  0.7681  0.1128
  423MOL0     C55724   3.842   1.360  10.067  0.8882 -0.2012  0.1102
  423MOL0     C55725   3.691   1.339  10.123  0.7426  0.7072 -0.1077
  423MOL0     C55726   3.650   1.469  10.209  0.1181  0.2304  1.7619
  423MOL0     C55727   3.509   1.476  10.247  1.0071  0.9329 -0.6853
  423MOL0     O55728   3.501   1.586  10.333 -0.3777 -0.2637  0.1815
  423MOL0     C55729   3.382   1.612  10.400 -0.5954 -0.1813  0.1112
  423MOL0     C55730   3.380   1.734  10.468  0.0881 -0.0576 -0.3293
  423MOL0     C55731   3.271   1.768  10.543 -0.5967  0.6370 -0.3504
  423MOL0     C55732   3.155   1.690  10.553 -0.2988  0.4384  0.7811
  423MOL0     C55733   3.039   1.746  10.623 -0.0986 -0.2702 -0.2032
  423MOL0     O55734   2.954   1.654  10.658  0.0875  0.1882  0.2033
  423MOL0     C55735   2.843   1.689  10.733  0.0957 -0.0401  0.4509
  423MOL0     C55736   2.749   1.783  10.679  0.3491  1.4451 -0.1555
  423MOL0     C55737   2.626   1.813  10.743  0.5164  0.5058 -0.0448
  423MOL0     C55738   2.592   1.741  10.859 -0.0001  0.4338 -0.1004
  423MOL0     O55739   2.470   1.755  10.923  0.3055 -0.4210 -0.0417
  423MOL0     C55740   2.377   1.857  10.884 -0.0980  0.1657 -0.3185
  423MOL0     C55741   2.227   1.812  10.857 -1.0516  0.6130 -0.4637
  423MOL0     C55742   2.180   1.711  10.962 -0.0598  0.6701 -1.2400
  423MOL0     C55743   2.033   1.678  10.956 -0.2622 -0.3284  0.4920
  423MOL0     C55744   1.982   1.591  11.068  0.0144  0.0761 -1.0161
  423MOL0     C55745   1.834   1.552  11.047  0.2323  0.8556  0.4508
  423MOL0     C55746   1.792   1.455  11.167 -0.5030 -0.8941  1.0803
  423MOL0     C55747   1.838   1.312  11.139 -0.6121  0.2248  0.1932
  423MOL0    Cl55748   1.801   1.206  11.271 -0.0044 -0.2020 -0.1665
  423MOL0     C55749   2.681   1.653  10.917 -0.4454  0.7408  0.8031
  423MOL0     C55750   2.809   1.636  10.857  0.0939  0.6817 -0.2700
  423MOL0     O55751   3.028   1.870  10.642  1.0936 -0.0375 -0.3119
  423MOL0     C55752   3.159   1.573  10.483  0.1324 -0.2566 -1.2347
  423MOL0     C55753   3.272   1.528  10.417  0.4035 -0.2525  0.4048
  423MOL0     N55754   3.991   1.359  10.273  0.0382  0.0313  0.9132
  423MOL0     N55755   4.093   1.292  10.305  0.0552 -0.1129  0.8131
  423MOL0     C55756   5.180   1.437  10.429  1.3663 -0.0385 -0.1049
  423MOL0     C55757   5.316   1.437  10.442 -0.0296 -0.2552  0.6035
  423MOL0     C55758   5.719   1.326  10.641 -0.3685  0.1174 -0.0508
  423MOL0     C55759   5.798   1.232  10.711  0.5361 -0.5703 -0.1189
  423MOL0     C55760   5.923   1.258  10.762  0.0865 -1.2614  1.3678
  423MOL0     C55761   5.973   1.387  10.739  0.6356  1.0309 -0.3632
  423MOL0     O55762   6.084   1.418  10.815  0.0562 -0.3287  0.2911
  423MOL0     C55763   6.152   1.542  10.818  0.5655  0.1111  0.1931
  423MOL0     C55764   6.254   1.553  10.698 -0.1494  0.1065 -1.0916
  423MOL0     C55765   6.359   1.667  10.711 -0.4280  0.1536  0.1372
  423MOL0     C55766   6.490   1.624  10.789 -0.2770 -0.2432  0.5924
  423MOL0     C55767   6.561   1.531  10.702  0.0201  0.1430 -0.1833
  423MOL0     C55768   6.600   1.435  10.640  0.4675  0.5028 -0.1312
  423MOL0     C55769   5.912   1.472  10.655  0.3122  1.0412 -0.1826
  423MOL0     C55770   5.785   1.446  10.599  0.4519  0.9473  0.3168
  423MOL0     H55771   5.344   1.269  10.727 -1.2777 -0.7188 -0.4440
  423MOL0     H55772   5.116   1.257  10.711  2.1389  0.3159  1.4775
  423MOL0     H55773   4.930   1.421  10.322 -2.0644 -2.0292 -0.4185
  423MOL0     H55774   4.939   1.555  10.442 -4.4042  1.5148 -0.8183
  423MOL0     H55775   4.709   1.547  10.367 -0.1239  1.4922  0.5935
  423MOL0     H55776   4.719   1.488  10.535  0.7874 -4.2494  1.5727
  423MOL0     H55777   4.629   1.284  10.472 -0.7591 -0.2119  0.0328
  423MOL0     H55778   4.748   1.259  10.353 -1.6493 -1.7676  1.0262
  423MOL0     H55779   4.505   1.437  10.304  4.0259  4.0715 -0.0749
  423MOL0     H55780   4.612   1.397  10.185 -0.3979  1.8613  0.6484
  423MOL0     H55781   4.429   1.208  10.358  0.0917 -0.5266  0.0507
  423MOL0     H55782   4.543   1.139  10.239  3.7720  1.4100  3.6811
  423MOL0     H55783   4.443   1.238  10.056  1.0134 -1.2114  0.5364
  423MOL0     H55784   4.317   1.315  10.142 -0.1431 -0.2433  2.4314
  423MOL0     H55785   4.259   1.103  10.017 -1.4859 -1.1988  0.1002
  423MOL0     H55786   4.361   1.005  10.119  0.5130  0.4411 -0.6443
  423MOL0     H55787   4.250   1.086  10.330 -2.1390  0.7347  1.1302
  423MOL0     H55788   4.152   0.990  10.225 -0.7506  0.8801  0.1592
  423MOL0     H55789   4.028   1.149  10.022 -2.4028 -0.0373  0.0981
  423MOL0     H55790   3.850   1.312   9.969 -2.2357 -0.2907 -0.1994
  423MOL0     H55791   3.857   1.468  10.053  1.2401 -0.3976 -1.2296
  423MOL0     H55792   3.694   1.246  10.180  2.4620  1.6902  1.4945
  423MOL0     H55793   3.625   1.328  10.036 -0.4669  1.0067  0.7472
  423MOL0     H55794   3.720   1.479  10.292  4.0369  2.6186 -1.4549
  423MOL0     H55795   3.672   1.558  10.149  2.0101 -1.2484  0.1344
  423MOL0     H55796   3.490   1.386  10.306  2.6517  0.8391 -0.2257
  423MOL0     H55797   3.437   1.494  10.167 -0.1778  0.5437  0.2569
  423MOL0     H55798   3.462   1.802  10.450 -1.3554  2.0196  0.4734
  423MOL0     H55799   3.259   1.863  10.595 -2.3389  0.6134 -0.6640
  423MOL0     H55800   2.775   1.835  10.587  0.3802  0.4248 -0.7389
  423MOL0     H55801   2.565   1.885  10.689  3.7411  1.5931 -2.6367
  423MOL0     H55802   2.419   1.920  10.805  2.2227 -0.1657  0.5721
  423MOL0     H55803   2.364   1.932  10.963  0.4272  1.1415 -1.1398
  423MOL0     H55804   2.230   1.780  10.753 -0.4972  1.8335 -0.8419
  423MOL0     H55805   2.166   1.903  10.852 -1.9131  0.1691  1.0897
  423MOL0     H55806   2.202   1.744  11.064 -1.4093 -0.0825 -0.6777
  423MOL0     H55807   2.239   1.619  10.952  0.0425  0.6083 -0.1759
  423MOL0     H55808   1.982   1.775  10.965 -1.8660 -1.1869  0.9033
  423MOL0     H55809   2.003   1.638  10.859  0.8282  0.6626 -0.2908
  423MOL0     H55810   2.001   1.638  11.164 -0.6261  0.5130 -1.1051
  423MOL0     H55811   2.042   1.500  11.082 -0.1066  0.1454 -0.0391
  423MOL0     H55812   1.809   1.506  10.951  2.2077 -3.0856  1.5720
  423MOL0     H55813   1.775   1.643  11.055 -0.3391  0.4297  1.2963
  423MOL0     H55814   1.823   1.493  11.265  0.3500  0.9385  0.1623
  423MOL0     H55815   1.683   1.444  11.168 -0.8913  1.0650 -2.3049
  423MOL0     H55816   1.945   1.305  11.118 -0.4500 -2.3243  1.4276
  423MOL0     H55817   1.785   1.288  11.046 -0.1054  1.5324 -0.4493
  423MOL0     H55818   2.652   1.601  11.008 -2.5040 -0.9044 -0.7010
  423MOL0     H55819   2.888   1.576  10.901 -0.6557  0.2035  0.4571
  423MOL0     H55820   3.078   1.501  10.491 -0.5324  0.6752  1.3970
  423MOL0     H55821   3.276   1.432  10.368 -1.4015  0.7861 -1.9821
  423MOL0     H55822   5.142   1.472  10.333  0.5620 -0.6341 -0.0128
  423MOL0     H55823   5.376   1.488  10.367 -0.5234 -1.2453 -0.4995
  423MOL0     H55824   5.764   1.129  10.716 -0.3699 -0.3671 -1.5389
  423MOL0     H55825   5.992   1.194  10.816  1.2426 -2.5907 -1.4725
  423MOL0     H55826   6.200   1.546  10.916 -1.7635  0.9066  1.3793
  423MOL0     H55827   6.090   1.633  10.819  1.6956  0.9066  0.7476
  423MOL0     H55828   6.303   1.455  10.699 -1.2043 -0.4384 -0.7893
  423MOL0     H55829   6.198   1.567  10.605  0.2690 -0.4211 -1.4307
  423MOL0     H55830   6.312   1.754  10.757 -0.2782  0.0256  0.5408
  423MOL0     H55831   6.395   1.698  10.613 -0.1780 -0.9731 -0.1500
  423MOL0     H55832   6.553   1.713  10.805 -1.5482  0.5899  1.0858
  423MOL0     H55833   6.469   1.589  10.890 -0.1249  0.2886  0.8122
  423MOL0     H55834   6.638   1.346  10.594  0.5219 -1.2056  2.9396
  423MOL0     H55835   5.965   1.565  10.644  1.9707 -0.0183 -1.5916
  423MOL0     H55836   5.728   1.522  10.546 -4.4696 -1.4493  1.5402
  424MOL0     O55837   3.130   7.528   7.989  0.6165 -0.0982 -0.6012
  424MOL0     C55838   3.132   7.644   7.966 -0.7100 -0.3983 -0.5073
  424MOL0     O55839   3.056   7.712   7.882  0.5067 -0.0459  0.0304
  424MOL0     C55840   2.946   7.650   7.826 -0.1520 -0.1883  0.0162
  424MOL0     C55841   2.960   7.555   7.724 -0.6532  0.5168  0.8543
  424MOL0     C55842   2.853   7.494   7.664  0.4425 -0.1454  0.5126
  424MOL0     C55843   2.728   7.550   7.690  0.9711 -0.1745  0.5541
  424MOL0     O55844   2.620   7.511   7.611  0.2243  0.3194  0.0842
  424MOL0     C55845   2.489   7.574   7.636 -0.5273 -0.4818 -0.1520
  424MOL0     C55846   2.384   7.522   7.542  0.1584  0.5722  0.0880
  424MOL0     C55847   2.239   7.577   7.578  0.2573 -0.0989  0.6450
  424MOL0     C55848   2.129   7.556   7.459  0.4800  0.1847 -0.5688
  424MOL0     C55849   1.986   7.607   7.489  0.4734  0.0448 -0.1422
  424MOL0     C55850   1.895   7.602   7.357 -0.5006 -1.4047  0.1861
  424MOL0     C55851   1.758   7.631   7.401  1.3213 -0.0807  0.3433
  424MOL0     C55852   1.646   7.586   7.306  0.9466 -0.6366  0.4766
  424MOL0     N55853   1.505   7.638   7.333 -0.9475  0.2113  0.2593
  424MOL0     C55854   1.397   7.555   7.355  0.0160 -0.1496  0.5216
  424MOL0     C55855   1.288   7.635   7.345  0.3326 -1.0403  0.0801
  424MOL0     C55856   1.140   7.598   7.345 -0.0564  0.0196 -0.0373
  424MOL0     C55857   1.061   7.681   7.440  0.6024  0.5645  0.0886
  424MOL0     C55858   0.924   7.714   7.380 -0.0389  0.1006  0.1030
  424MOL0     C55859   0.838   7.588   7.354  0.3518 -0.7447 -0.1456
  424MOL0     O55860   0.737   7.639   7.271  0.1979  0.2994 -0.0852
  424MOL0     C55861   0.628   7.561   7.229 -0.1099 -0.3657  0.1367
  424MOL0     C55862   0.509   7.620   7.203  1.0511  0.0722  0.2092
  424MOL0     C55863   0.392   7.545   7.168 -0.0200  0.0793  0.7727
  424MOL0     C55864   0.405   7.408   7.157  0.3117 -0.2944  0.3481
  424MOL0     C55865   0.273   7.330   7.139 -0.1118 -0.8989  0.9488
  424MOL0     O55866   0.159   7.409   7.104  0.1958 -0.0636  0.3005
  424MOL0     C55867   0.045   7.345   7.058  0.3480  0.5169 -0.0710
  424MOL0     C55868  -0.072   7.421   7.058 -0.4829 -0.7011 -1.3171
  424MOL0     C55869  -0.195   7.383   7.010  1.1460  0.0213  0.3850
  424MOL0     C55870  -0.214   7.253   6.972 -0.1600  0.5497  0.6247
  424MOL0     O55871  -0.324   7.196   6.916  0.4696 -0.0937  0.7277
  424MOL0     C55872  -0.417   7.289   6.855 -0.0373 -0.3033  0.9345
  424MOL0     C55873  -0.565   7.231   6.849 -0.6087 -0.8063 -0.3608
  424MOL0     C55874  -0.589   7.097   6.780 -0.0923 -0.1349  0.6821
  424MOL0     C55875  -0.588   7.110   6.620  0.8816  0.7500 -1.1077
  424MOL0     C55876  -0.636   6.965   6.567 -0.5509 -0.2822  1.1565
  424MOL0     C55877  -0.631   6.952   6.410  0.0202 -0.2360 -0.0652
  424MOL0     C55878  -0.685   6.822   6.359 -0.8293 -0.0120  0.4235
  424MOL0     C55879  -0.692   6.814   6.210  0.0162  0.5621  0.1702
  424MOL0    Cl55880  -0.839   6.897   6.157 -0.0074  0.3524 -0.1263
  424MOL0     C55881  -0.108   7.166   6.984  0.6578  0.2918 -0.6514
  424MOL0     C55882   0.021   7.209   7.014  0.2043  0.0250  0.4547
  424MOL0     O55883   0.287   7.212   7.162 -0.3817  0.0552  0.4535
  424MOL0     C55884   0.529   7.347   7.177 -0.7902  0.2228 -0.6985
  424MOL0     C55885   0.645   7.420   7.210  0.3059 -0.5355  0.0820
  424MOL0     N55886   1.333   7.757   7.319 -0.1271 -0.7769  0.1930
  424MOL0     N55887   1.458   7.761   7.316 -1.1444  0.8014 -0.3819
  424MOL0     C55888   2.716   7.654   7.785  0.3819 -1.1296 -0.0367
  424MOL0     C55889   2.820   7.699   7.855  0.9536 -0.2354 -0.0995
  424MOL0     C55890   3.257   7.709   8.004  0.0767 -0.1724 -0.1501
  424MOL0     C55891   3.354   7.632   8.085  0.7125 -0.7399  0.1196
  424MOL0     C55892   3.474   7.687   8.127 -0.2303  0.1627 -0.2383
  424MOL0     C55893   3.511   7.817   8.094  0.2391 -0.9658 -0.0665
  424MOL0     O55894   3.635   7.862   8.133  0.2754  0.0539 -0.4228
  424MOL0     C55895   3.692   7.988   8.104  0.2091  0.0480  0.0161
  424MOL0     C55896   3.824   8.018   8.176  0.3302 -0.3055  0.2114
  424MOL0     C55897   3.814   8.006   8.325  0.0398  0.6070 -0.0840
  424MOL0     C55898   3.902   7.884   8.383 -0.4020 -0.0791  0.1857
  424MOL0     C55899   4.042   7.925   8.408  0.8800 -0.4442 -0.0178
  424MOL0     C55900   4.155   7.941   8.440 -0.3503 -0.2444  0.1224
  424MOL0     C55901   3.433   7.893   8.012  0.5359 -0.0478 -0.3723
  424MOL0     C55902   3.301   7.842   7.969 -0.7279 -0.1890  0.3481
  424MOL0     H55903   3.059   7.513   7.704 -1.4510 -1.2007  0.3483
  424MOL0     H55904   2.858   7.416   7.588 -2.6520 -0.5678  0.6120
  424MOL0     H55905   2.504   7.678   7.604  1.5654 -1.3594 -2.3236
  424MOL0     H55906   2.461   7.570   7.741  2.0269 -1.7181  0.5683
  424MOL0     H55907   2.375   7.416   7.567 -3.6564  0.4909 -1.0477
  424MOL0     H55908   2.410   7.540   7.438 -0.7608 -0.2686 -0.3130
  424MOL0     H55909   2.258   7.684   7.591  0.5760 -0.0789  0.0688
  424MOL0     H55910   2.200   7.529   7.668  0.2637 -1.4334 -0.0336
  424MOL0     H55911   2.176   7.598   7.369  3.1655 -0.0696  0.6255
  424MOL0     H55912   2.124   7.449   7.436  2.4334  0.5414 -3.1109
  424MOL0     H55913   1.985   7.714   7.512 -1.7165  0.0175  0.0689
  424MOL0     H55914   1.946   7.552   7.574  0.5318 -1.1988 -0.8984
  424MOL0     H55915   1.902   7.500   7.317  2.0240 -0.5154 -1.8404
  424MOL0     H55916   1.935   7.668   7.280  2.9981 -4.1356 -0.6102
  424MOL0     H55917   1.746   7.588   7.500  1.0666 -1.0008 -0.0764
  424MOL0     H55918   1.752   7.740   7.412  0.5175  0.0458 -1.0267
  424MOL0     H55919   1.635   7.477   7.303 -1.3853 -0.4340 -0.7632
  424MOL0     H55920   1.673   7.628   7.208  0.8241 -0.7880  0.3764
  424MOL0     H55921   1.394   7.447   7.366 -1.0459  0.0069  2.1018
  424MOL0     H55922   1.129   7.493   7.375 -1.7478 -0.0738 -0.8286
  424MOL0     H55923   1.099   7.595   7.243 -0.9236 -2.2492  0.2998
  424MOL0     H55924   1.104   7.776   7.471 -0.8203  2.0520 -2.1968
  424MOL0     H55925   1.043   7.635   7.537  1.3202 -0.2569 -0.1529
  424MOL0     H55926   0.881   7.775   7.460 -1.7376 -1.6724  0.6111
  424MOL0     H55927   0.933   7.767   7.285  1.8945 -4.4471 -2.5993
  424MOL0     H55928   0.795   7.562   7.451  0.1297 -0.7601 -0.2483
  424MOL0     H55929   0.899   7.503   7.323  0.8345 -1.1507  1.7820
  424MOL0     H55930   0.512   7.727   7.222 -0.4901  0.3041 -0.7305
  424MOL0     H55931   0.302   7.606   7.166  0.7943  1.3179  0.2247
  424MOL0     H55932  -0.061   7.520   7.102 -0.9099 -1.7222  1.2402
  424MOL0     H55933  -0.277   7.452   7.023  0.6998 -0.5397  0.5896
  424MOL0     H55934  -0.385   7.320   6.755 -0.6679 -1.8290  0.2264
  424MOL0     H55935  -0.437   7.375   6.920 -1.0437 -1.5871  2.3891
  424MOL0     H55936  -0.620   7.308   6.794  2.9234  1.4208 -1.0974
  424MOL0     H55937  -0.613   7.211   6.945  0.7454 -1.2234  0.2584
  424MOL0     H55938  -0.690   7.064   6.805 -0.2191 -1.3086 -1.1917
  424MOL0     H55939  -0.519   7.023   6.821  0.5586 -0.9646 -1.7869
  424MOL0     H55940  -0.673   7.176   6.598  0.0588  1.8059  4.0324
  424MOL0     H55941  -0.493   7.143   6.577  1.3645 -1.2477 -1.6859
  424MOL0     H55942  -0.739   6.953   6.600 -0.9985  2.2848  0.9127
  424MOL0     H55943  -0.562   6.902   6.618  1.4165  3.8952  4.0565
  424MOL0     H55944  -0.527   6.963   6.380 -0.0907  0.6153 -0.1688
  424MOL0     H55945  -0.690   7.038   6.376 -0.0232 -0.1324  0.2665
  424MOL0     H55946  -0.606   6.751   6.387  1.1505  0.4911 -3.3236
  424MOL0     H55947  -0.786   6.812   6.401 -1.1182  0.1332 -0.2292
  424MOL0     H55948  -0.685   6.706   6.192  1.4908  0.8983 -1.5835
  424MOL0     H55949  -0.599   6.858   6.174 -0.0202  1.4170  1.0888
  424MOL0     H55950  -0.119   7.063   6.951 -0.4952  0.4578 -0.8482
  424MOL0     H55951   0.101   7.137   7.000 -0.6923 -1.0120  0.5160
  424MOL0     H55952   0.550   7.240   7.175 -1.0250  0.1826 -1.3451
  424MOL0     H55953   0.743   7.376   7.222  0.6286  0.5899  2.0075
  424MOL0     H55954   2.623   7.708   7.801  2.8527  3.1615  1.7237
  424MOL0     H55955   2.809   7.781   7.926  2.3249 -0.5708  0.5538
  424MOL0     H55956   3.334   7.529   8.113  2.7627 -1.2123  0.0408
  424MOL0     H55957   3.546   7.634   8.188 -1.7616 -0.7563  0.8554
  424MOL0     H55958   3.616   8.066   8.109 -2.1304 -2.0508 -0.6388
  424MOL0     H55959   3.721   7.973   8.000  0.3201 -0.2799  0.0940
  424MOL0     H55960   3.906   7.951   8.149  1.6005  1.2656  0.0269
  424MOL0     H55961   3.841   8.123   8.148 -2.5685 -0.3130 -2.2065
  424MOL0     H55962   3.708   7.996   8.352  0.3419  2.4094  2.1303
  424MOL0     H55963   3.839   8.102   8.372 -0.7307  0.4328  0.7157
  424MOL0     H55964   3.867   7.866   8.486  2.5259  0.0237  1.2798
  424MOL0     H55965   3.881   7.797   8.320 -0.8293 -1.2561  1.8612
  424MOL0     H55966   4.258   7.958   8.465  0.8617 -3.2892 -2.1055
  424MOL0     H55967   3.458   7.996   7.991 -0.5694  0.5081  0.8657
  424MOL0     H55968   3.239   7.905   7.906 -2.3640 -0.1522  1.9347
  425MOL0     O55969   5.282   1.324   9.278 -0.5315  0.0202 -0.3443
  425MOL0     C55970   5.303   1.201   9.284 -0.2374 -0.2686  0.8688
  425MOL0     O55971   5.219   1.103   9.316  0.2998  0.2800 -0.4261
  425MOL0     C55972   5.083   1.114   9.297  0.3427  0.0485 -0.1237
  425MOL0     C55973   5.009   1.016   9.363  0.1534  0.1546  0.2881
  425MOL0     C55974   4.871   1.006   9.349  0.3934  0.0784 -1.1648
  425MOL0     C55975   4.802   1.100   9.273 -0.3082 -0.5877 -0.8297
  425MOL0     O55976   4.669   1.076   9.255 -0.2486 -0.0878 -0.0176
  425MOL0     C55977   4.603   1.155   9.151  0.1728  0.2236  0.3965
  425MOL0     C55978   4.456   1.115   9.137  0.6753 -0.5878 -0.8237
  425MOL0     C55979   4.370   1.149   9.259  0.1177  0.6917 -0.9385
  425MOL0     C55980   4.387   1.035   9.362  0.7816  0.2395  0.5609
  425MOL0     C55981   4.265   1.045   9.463  0.0453 -0.7072 -0.0179
  425MOL0     C55982   4.285   0.944   9.575  0.0589 -0.4159  0.5509
  425MOL0     C55983   4.170   0.956   9.678 -0.4126  0.4898  0.0466
  425MOL0     C55984   4.188   0.851   9.794 -0.0027 -0.2834  0.0072
  425MOL0     N55985   4.067   0.868   9.869 -0.0116  0.9839  0.1600
  425MOL0     C55986   3.937   0.834   9.823 -0.4286 -0.9373  0.1345
  425MOL0     C55987   3.868   0.830   9.938 -0.7616  0.6913  1.4457
  425MOL0     C55988   3.732   0.770   9.957  0.4459 -0.4209  0.1219
  425MOL0     C55989   3.628   0.880   9.980 -0.2320 -0.2762 -0.5510
  425MOL0     C55990   3.490   0.822   9.962 -0.6636  0.4289  0.4400
  425MOL0     C55991   3.400   0.878  10.061 -0.6831 -1.0168 -1.0661
  425MOL0     O55992   3.389   1.022  10.063 -0.5339  0.0048  0.8949
  425MOL0     C55993   3.272   1.080  10.114 -0.3915  0.1487 -0.1345
  425MOL0     C55994   3.180   1.011  10.195 -0.4721 -0.7647 -0.6149
  425MOL0     C55995   3.061   1.076  10.242 -0.0502 -0.4700 -0.4592
  425MOL0     C55996   3.027   1.205  10.197 -0.4247 -0.1021 -0.8703
  425MOL0     C55997   2.899   1.269  10.232  0.2062  0.2516  0.4035
  425MOL0     O55998   2.893   1.402  10.215 -0.0751 -0.6071  0.4102
  425MOL0     C55999   2.771   1.467  10.243 -0.5573  0.4512 -0.1109
  425MOL0     C56000   2.658   1.437  10.170  0.8206 -0.6003 -0.5174
  425MOL0     C56001   2.535   1.489  10.211  0.1751  0.7406  0.2466
  425MOL0     C56002   2.518   1.552  10.338  0.0171  0.5966  0.3486
  425MOL0     O56003   2.389   1.557  10.382 -0.1396  0.6636  0.0166
  425MOL0     C56004   2.364   1.578  10.525 -0.4577  0.7127 -0.3131
  425MOL0     C56005   2.215   1.569  10.534 -0.8471 -0.0696  0.7530
  425MOL0     C56006   2.164   1.423  10.529 -0.0091 -0.3403  0.3352
  425MOL0     C56007   2.024   1.406  10.592 -0.2178 -0.5525  0.0575
  425MOL0     C56008   1.965   1.281  10.538  0.3645  0.0740  0.3618
  425MOL0     C56009   1.820   1.289  10.576  0.2854 -0.4075  0.5205
  425MOL0     C56010   1.740   1.177  10.518 -0.0905 -0.1048 -0.7298
  425MOL0     C56011   1.597   1.157  10.576  0.2102  0.2241  0.0397
  425MOL0    Cl56012   1.592   1.171  10.751  0.1315 -0.2158  0.3522
  425MOL0     C56013   2.641   1.583  10.405  0.0791  0.6868 -0.3240
  425MOL0     C56014   2.764   1.544  10.360 -0.4452  0.2412  1.0206
  425MOL0     O56015   2.812   1.201  10.294  0.1325  0.7070  0.4764
  425MOL0     C56016   3.127   1.277  10.124  0.8836 -0.6962 -0.3657
  425MOL0     C56017   3.243   1.208  10.082 -0.0847 -0.4977 -0.3228
  425MOL0     N56018   3.940   0.860  10.042 -0.1104 -0.4617 -0.3339
  425MOL0     N56019   4.059   0.863  10.006 -1.1441 -0.1576 -0.1579
  425MOL0     C56020   4.879   1.206   9.209 -0.2713  0.1049  0.4560
  425MOL0     C56021   5.016   1.207   9.217  0.4937 -0.5688 -0.1669
  425MOL0     C56022   5.447   1.152   9.283 -0.1350 -0.7853 -0.5492
  425MOL0     C56023   5.552   1.230   9.241  1.2412 -0.2722  0.8875
  425MOL0     C56024   5.679   1.177   9.223 -0.2403 -0.0171 -0.2759
  425MOL0     C56025   5.714   1.055   9.266  0.3157  0.5922 -0.1425
  425MOL0     O56026   5.829   0.983   9.225  0.2574 -0.6844 -0.5107
  425MOL0     C56027   5.952   1.055   9.233  0.8620 -0.1396 -0.0713
  425MOL0     C56028   5.997   1.063   9.087  0.3181  0.7157 -0.5075
  425MOL0     C56029   6.147   1.098   9.080  0.4169  0.3431 -0.8685
  425MOL0     C56030   6.196   1.115   8.940  0.3436 -0.0459 -0.3624
  425MOL0     C56031   6.185   0.987   8.861  0.2294 -0.1088  0.2989
  425MOL0     C56032   6.150   0.897   8.787 -0.1409  0.0335  0.6237
  425MOL0     C56033   5.617   0.976   9.325  0.5770 -0.5700  0.4608
  425MOL0     C56034   5.484   1.022   9.328  0.2330 -0.3575 -0.0514
  425MOL0     H56035   5.047   0.937   9.426 -0.2483 -0.3536 -0.0965
  425MOL0     H56036   4.814   0.930   9.402 -2.3835  2.7034 -0.1316
  425MOL0     H56037   4.660   1.144   9.058  2.8932  0.5829  1.9084
  425MOL0     H56038   4.588   1.261   9.173  0.6034  0.9616 -2.4523
  425MOL0     H56039   4.441   1.012   9.102  1.6440 -1.8899  2.2572
  425MOL0     H56040   4.418   1.173   9.052 -3.0076 -0.7331  0.5531
  425MOL0     H56041   4.263   1.157   9.237 -0.0297  2.3390  0.1992
  425MOL0     H56042   4.405   1.242   9.304  4.4631 -0.4656 -1.4639
  425MOL0     H56043   4.367   0.939   9.314 -1.0433  0.9373 -0.1222
  425MOL0     H56044   4.486   1.039   9.411  2.3231 -2.8228 -1.9294
  425MOL0     H56045   4.176   1.019   9.405  0.5087 -2.3505 -0.0499
  425MOL0     H56046   4.258   1.144   9.509  0.8143  0.1699 -1.7159
  425MOL0     H56047   4.379   0.961   9.629  1.0621 -1.4065 -0.8103
  425MOL0     H56048   4.280   0.842   9.538  3.2171 -1.8483  3.5357
  425MOL0     H56049   4.146   1.057   9.711  2.4162  0.7913  1.5186
  425MOL0     H56050   4.084   0.920   9.620  0.5631 -0.5336 -0.8377
  425MOL0     H56051   4.270   0.882   9.860 -0.0608  1.2694 -0.5983
  425MOL0     H56052   4.205   0.749   9.759  0.2552  0.1246 -1.1342
  425MOL0     H56053   3.900   0.808   9.725  0.9177  2.8577 -1.5648
  425MOL0     H56054   3.727   0.723  10.056 -0.7782  0.4674  0.5161
  425MOL0     H56055   3.706   0.695   9.881  1.6742  0.5243 -1.2867
  425MOL0     H56056   3.639   0.971   9.920  0.6719 -1.9944 -3.1934
  425MOL0     H56057   3.648   0.909  10.084  0.9177 -4.0164  0.4147
  425MOL0     H56058   3.459   0.854   9.862 -1.7398 -1.2807  0.1963
  425MOL0     H56059   3.498   0.714   9.975 -0.1041  0.5564  1.2702
  425MOL0     H56060   3.440   0.847  10.158 -0.7064  0.3069 -0.6204
  425MOL0     H56061   3.299   0.838  10.043 -1.1222 -1.0990  1.2450
  425MOL0     H56062   3.209   0.911  10.224 -0.6974 -1.2914 -2.1159
  425MOL0     H56063   2.992   1.017  10.300 -3.0893  2.2017 -1.0480
  425MOL0     H56064   2.669   1.382  10.076 -2.3243  0.9987 -1.9859
  425MOL0     H56065   2.443   1.463  10.159  1.1857  0.8729 -1.7074
  425MOL0     H56066   2.411   1.670  10.560  0.3275  0.8049 -1.5439
  425MOL0     H56067   2.414   1.495  10.574  1.1226  2.2856  0.8782
  425MOL0     H56068   2.170   1.631  10.456 -1.1619 -2.0971 -0.7378
  425MOL0     H56069   2.198   1.613  10.633  1.0955  0.4080  0.9336
  425MOL0     H56070   2.234   1.357  10.582  1.6487  1.0357 -0.0387
  425MOL0     H56071   2.150   1.393  10.425 -2.4358 -0.1566  0.5512
  425MOL0     H56072   2.037   1.401  10.701  0.8189  0.6007  0.0043
  425MOL0     H56073   1.963   1.496  10.580 -4.4760 -3.0610  0.7063
  425MOL0     H56074   2.014   1.193  10.582  0.6784 -0.2353 -0.5758
  425MOL0     H56075   1.978   1.284  10.429  1.7301 -0.5022  0.4880
  425MOL0     H56076   1.775   1.381  10.536 -2.9280 -2.0928 -0.0374
  425MOL0     H56077   1.813   1.311  10.683 -2.4172  5.7061 -0.4950
  425MOL0     H56078   1.739   1.179  10.408 -0.9904 -1.4744 -0.7741
  425MOL0     H56079   1.805   1.090  10.535  0.6001  0.8436  1.7785
  425MOL0     H56080   1.541   1.070  10.541 -3.9057  2.9083 -0.6587
  425MOL0     H56081   1.528   1.236  10.548 -2.7267 -1.3756  2.1593
  425MOL0     H56082   2.629   1.628  10.503 -1.1411 -0.1731 -0.0567
  425MOL0     H56083   2.850   1.564  10.423  1.8560 -1.1925 -1.4290
  425MOL0     H56084   3.112   1.379  10.090 -0.0109 -0.8236 -0.3951
  425MOL0     H56085   3.315   1.272  10.031  0.1802 -1.3075 -0.9789
  425MOL0     H56086   4.825   1.277   9.146  0.3946 -0.2400 -0.5392
  425MOL0     H56087   5.063   1.284   9.158 -1.6486  2.3210  1.6212
  425MOL0     H56088   5.537   1.318   9.180 -0.6871 -2.3958 -1.9588
  425MOL0     H56089   5.744   1.231   9.155 -0.5995  1.6218  0.6474
  425MOL0     H56090   6.021   0.988   9.285  0.9731 -1.5174 -1.8955
  425MOL0     H56091   5.947   1.155   9.276  0.9166 -0.2634  0.2304
  425MOL0     H56092   5.975   0.971   9.032  3.3975 -1.0847  1.0352
  425MOL0     H56093   5.937   1.142   9.041 -0.4396  1.0297  0.9600
  425MOL0     H56094   6.216   1.028   9.128 -0.7999  0.0391  0.4664
  425MOL0     H56095   6.164   1.189   9.139 -1.4630 -1.7925  3.3033
  425MOL0     H56096   6.146   1.194   8.884  2.8604  2.9927  1.3595
  425MOL0     H56097   6.301   1.144   8.934 -0.0685  1.5598 -0.3690
  425MOL0     H56098   6.115   0.819   8.722  0.8898 -1.0330  1.2932
  425MOL0     H56099   5.641   0.873   9.348  1.2773 -0.5844 -0.2814
  425MOL0     H56100   5.407   0.960   9.372  0.9293 -1.1618  0.0431
  426MOL0     O56101   8.382   6.233   5.431 -0.2130  0.3267 -0.2037
  426MOL0     C56102   8.386   6.353   5.444 -0.9883 -0.4827 -0.3261
  426MOL0     O56103   8.485   6.423   5.503 -0.2479  0.2015 -0.1396
  426MOL0     C56104   8.595   6.362   5.559  0.1830  0.6545  0.3830
  426MOL0     C56105   8.714   6.436   5.546  0.1230  0.0981 -0.2820
  426MOL0     C56106   8.831   6.379   5.601 -0.0624 -0.0553 -0.5430
  426MOL0     C56107   8.825   6.262   5.683  0.3717  0.7973  0.3716
  426MOL0     O56108   8.931   6.218   5.763  0.6087 -0.9073 -0.6712
  426MOL0     C56109   8.938   6.291   5.885  0.3533 -0.5126 -0.3410
  426MOL0     C56110   9.080   6.295   5.944 -0.2503 -0.4783 -0.3135
  426MOL0     C56111   9.171   6.405   5.881 -0.2490  0.3330 -0.2188
  426MOL0     C56112   9.162   6.541   5.951  0.2156 -0.3366  0.2170
  426MOL0     C56113   9.233   6.635   5.841  0.1867  0.8578  0.4115
  426MOL0     C56114   9.275   6.757   5.919 -0.2645 -0.0318 -0.1688
  426MOL0     C56115   9.345   6.864   5.833  0.0597  0.0488  0.7089
  426MOL0     C56116   9.387   6.988   5.914  0.4048 -0.5329 -0.3382
  426MOL0     N56117   9.288   7.050   6.000  0.6051 -0.2201  0.7218
  426MOL0     C56118   9.185   7.124   5.960  0.6060  0.5184 -0.2951
  426MOL0     C56119   9.108   7.143   6.072 -0.1673 -0.0202 -0.0392
  426MOL0     C56120   8.981   7.232   6.068  0.3752 -0.6190  0.1434
  426MOL0     C56121   8.904   7.237   6.197  1.1570 -0.0921  0.1308
  426MOL0     C56122   8.820   7.108   6.224 -1.0772  0.0914  0.3898
  426MOL0     C56123   8.711   7.092   6.114  0.2213 -0.0225 -0.4628
  426MOL0     O56124   8.614   7.004   6.175  0.4927  0.2071  0.2327
  426MOL0     C56125   8.517   6.968   6.080  0.3403 -0.1061  0.3425
  426MOL0     C56126   8.524   6.966   5.939  0.2289  0.0906 -0.2314
  426MOL0     C56127   8.416   6.913   5.870  0.1507  0.0289  0.0569
  426MOL0     C56128   8.293   6.882   5.938  0.4794 -0.3349 -0.5158
  426MOL0     C56129   8.170   6.839   5.868  0.3408 -0.6116  0.8075
  426MOL0     O56130   8.060   6.811   5.937  0.1271 -0.8400 -0.2325
  426MOL0     C56131   7.934   6.784   5.883 -0.5213  0.0769  1.5707
  426MOL0     C56132   7.913   6.735   5.754 -0.3942 -0.0361 -0.0496
  426MOL0     C56133   7.780   6.735   5.706  0.5348  0.1138  0.2710
  426MOL0     C56134   7.675   6.761   5.787 -0.0253  1.0908 -0.1302
  426MOL0     O56135   7.543   6.726   5.747 -0.0970  0.3169 -0.4684
  426MOL0     C56136   7.486   6.806   5.642  0.3297  0.3223 -0.5675
  426MOL0     C56137   7.339   6.765   5.623 -0.0776  0.1055 -0.5818
  426MOL0     C56138   7.270   6.876   5.529  0.4857 -0.3813 -0.9346
  426MOL0     C56139   7.116   6.844   5.514  0.3369  0.2579 -0.4284
  426MOL0     C56140   7.060   6.943   5.414 -0.0711  0.0809 -0.1084
  426MOL0     C56141   6.917   6.894   5.386 -0.5741  0.2088 -0.2415
  426MOL0     C56142   6.867   6.990   5.288 -0.1593  0.4002 -0.3515
  426MOL0     C56143   6.724   6.958   5.247 -0.2137 -0.1122  0.1551
  426MOL0    Cl56144   6.614   7.022   5.377 -0.1964  0.2520 -0.0305
  426MOL0     C56145   7.698   6.795   5.922  0.1934  0.4908  0.3224
  426MOL0     C56146   7.823   6.811   5.972 -0.4992  0.2585 -0.4904
  426MOL0     O56147   8.183   6.828   5.742  0.1539  0.2319 -0.6307
  426MOL0     C56148   8.285   6.895   6.074  0.0313 -0.1880  0.9623
  426MOL0     C56149   8.396   6.931   6.145  0.1269 -0.2453 -0.2974
  426MOL0     N56150   9.169   7.077   6.182  0.6482 -0.6403  0.0146
  426MOL0     N56151   9.281   7.026   6.135 -0.7012 -0.5632 -0.3000
  426MOL0     C56152   8.701   6.193   5.692 -0.7824 -0.3533  0.2523
  426MOL0     C56153   8.593   6.231   5.624 -0.0880  0.0823  0.0634
  426MOL0     C56154   8.271   6.441   5.392  0.0215 -0.9605 -0.2886
  426MOL0     C56155   8.163   6.410   5.305  0.5424 -0.5077  0.3730
  426MOL0     C56156   8.057   6.498   5.273 -0.0386  0.6927  0.4247
  426MOL0     C56157   8.055   6.620   5.345  0.3310 -0.2467  0.0960
  426MOL0     O56158   7.955   6.708   5.346  0.5446  0.0493  0.8105
  426MOL0     C56159   7.830   6.676   5.283  0.1542  1.1761  0.2686
  426MOL0     C56160   7.731   6.774   5.319  0.5988 -0.2728  0.6271
  426MOL0     C56161   7.586   6.727   5.308  0.7551 -1.2660 -0.4012
  426MOL0     C56162   7.519   6.703   5.171  0.1697  0.1162  0.3143
  426MOL0     C56163   7.575   6.588   5.099 -1.4409 -0.7628  0.3989
  426MOL0     C56164   7.620   6.488   5.034  0.7062 -0.3348  0.4567
  426MOL0     C56165   8.158   6.653   5.428 -1.2245  0.6368 -0.5155
  426MOL0     C56166   8.264   6.568   5.455  0.3023  0.3525 -0.6075
  426MOL0     H56167   8.716   6.531   5.494 -0.0941  0.4589  0.3618
  426MOL0     H56168   8.930   6.425   5.596 -0.1409  0.2875  0.7005
  426MOL0     H56169   8.873   6.238   5.955 -1.9131 -1.1554 -2.7646
  426MOL0     H56170   8.902   6.393   5.874 -0.4818 -0.5708  1.5292
  426MOL0     H56171   9.127   6.198   5.927  1.1598  0.1943 -0.4562
  426MOL0     H56172   9.084   6.314   6.051  2.7468  0.3708 -0.4730
  426MOL0     H56173   9.134   6.404   5.778 -2.8866 -1.2387  0.6416
  426MOL0     H56174   9.275   6.375   5.889 -0.1561  0.8372  0.6576
  426MOL0     H56175   9.055   6.554   5.972  0.3246 -1.0782  1.2982
  426MOL0     H56176   9.222   6.560   6.040  0.5238 -1.5478  0.2892
  426MOL0     H56177   9.162   6.657   5.760 -4.1543  1.8656  4.0976
  426MOL0     H56178   9.323   6.596   5.794  0.1367  2.9991 -1.6314
  426MOL0     H56179   9.344   6.727   5.998 -1.9875  1.0174  1.8222
  426MOL0     H56180   9.188   6.798   5.970  0.2526  1.7077 -0.5975
  426MOL0     H56181   9.438   6.819   5.796  0.7926  0.2008  2.2951
  426MOL0     H56182   9.286   6.901   5.749  0.6655  2.4144  1.2720
  426MOL0     H56183   9.416   7.057   5.834  1.8010  1.3082  1.6669
  426MOL0     H56184   9.475   6.964   5.975 -0.2797 -3.5451 -0.3514
  426MOL0     H56185   9.160   7.168   5.864 -2.8766 -1.2649 -0.3909
  426MOL0     H56186   8.922   7.196   5.983 -0.5007 -0.1372  0.5347
  426MOL0     H56187   9.006   7.336   6.047  0.4648 -0.4003  1.3004
  426MOL0     H56188   8.838   7.323   6.187 -2.4269 -2.5625  0.3265
  426MOL0     H56189   8.969   7.269   6.278  1.9211  1.4366 -1.0445
  426MOL0     H56190   8.881   7.017   6.219 -0.5717  0.3726  1.3506
  426MOL0     H56191   8.769   7.113   6.321 -2.2383 -5.2118  0.3582
  426MOL0     H56192   8.754   7.053   6.022  2.0009  1.5266 -0.3435
  426MOL0     H56193   8.660   7.187   6.095 -4.2019 -1.3102  3.0208
  426MOL0     H56194   8.617   6.998   5.894  1.0864  1.7792  2.4936
  426MOL0     H56195   8.416   6.902   5.762 -1.6938 -0.6889  0.1005
  426MOL0     H56196   7.997   6.709   5.690 -0.4172  0.9124 -0.4741
  426MOL0     H56197   7.757   6.695   5.608 -1.1603  0.0408  0.6595
  426MOL0     H56198   7.536   6.797   5.545 -0.2175 -0.3844 -0.7916
  426MOL0     H56199   7.497   6.910   5.672  1.8486  0.6533 -2.0515
  426MOL0     H56200   7.295   6.753   5.723  1.8889 -0.4870  0.2600
  426MOL0     H56201   7.333   6.669   5.572  3.7694  0.4536 -1.9819
  426MOL0     H56202   7.321   6.873   5.432  0.6923 -1.0927 -0.8069
  426MOL0     H56203   7.282   6.976   5.573  3.7204 -0.6864 -0.8866
  426MOL0     H56204   7.105   6.743   5.475  2.8995 -0.0984 -0.4295
  426MOL0     H56205   7.067   6.851   5.612 -0.3968  1.2451 -0.8481
  426MOL0     H56206   7.117   6.946   5.320 -0.9487  2.4466 -0.6117
  426MOL0     H56207   7.063   7.036   5.470 -1.0631 -0.1933  0.4114
  426MOL0     H56208   6.859   6.908   5.477 -1.7742 -2.5601 -0.4844
  426MOL0     H56209   6.906   6.790   5.355 -0.5066 -0.5086  2.0230
  426MOL0     H56210   6.871   7.089   5.335  4.3211 -0.3919  1.4287
  426MOL0     H56211   6.926   6.993   5.196  3.4773 -2.1049  1.6504
  426MOL0     H56212   6.701   6.853   5.228 -3.3313  0.8122 -1.8981
  426MOL0     H56213   6.693   7.003   5.153  1.4888 -2.4134 -1.6358
  426MOL0     H56214   7.606   6.813   5.977 -0.3753 -0.1125 -0.4225
  426MOL0     H56215   7.845   6.843   6.073  2.2094 -2.1061 -0.1829
  426MOL0     H56216   8.198   6.872   6.136  0.1126  0.0397  1.1642
  426MOL0     H56217   8.394   6.927   6.253  4.8330 -0.8691 -0.0193
  426MOL0     H56218   8.681   6.118   5.768  0.3388  1.2608  2.2378
  426MOL0     H56219   8.497   6.180   5.630 -0.4084  0.8025  1.3642
  426MOL0     H56220   8.154   6.312   5.259  1.2609 -1.9618  3.1646
  426MOL0     H56221   7.984   6.468   5.198  1.3111  0.2176 -0.7506
  426MOL0     H56222   7.792   6.583   5.327 -0.4460  0.2020 -2.1043
  426MOL0     H56223   7.836   6.657   5.175  0.1252  0.8228  0.3272
  426MOL0     H56224   7.745   6.805   5.423 -2.4677 -0.9224  1.3360
  426MOL0     H56225   7.735   6.859   5.251 -1.8235  0.0954  0.8290
  426MOL0     H56226   7.519   6.800   5.354 -0.6578 -2.8953  0.2228
  426MOL0     H56227   7.574   6.642   5.376  1.0261  0.2355  1.6432
  426MOL0     H56228   7.412   6.690   5.189 -0.5640  3.0903 -1.3202
  426MOL0     H56229   7.534   6.791   5.108 -0.9903  0.4632  0.4904
  426MOL0     H56230   7.666   6.405   4.983 -1.3491  0.1420 -2.4031
  426MOL0     H56231   8.172   6.751   5.474  3.1166  0.4410 -0.9812
  426MOL0     H56232   8.338   6.596   5.530 -0.1923  0.7000 -0.2457
  427MOL0     O56233   7.985   5.147   4.307 -0.0535 -0.2208 -0.6044
  427MOL0     C56234   8.078   5.181   4.236 -0.0437  0.7720 -0.5591
  427MOL0     O56235   8.073   5.197   4.100  0.9205  0.0091 -0.2720
  427MOL0     C56236   7.955   5.154   4.040  1.0099  0.1798 -0.3537
  427MOL0     C56237   7.877   5.256   3.985 -0.9624 -0.6809 -0.6458
  427MOL0     C56238   7.752   5.216   3.935 -0.4362  1.3416  0.2979
  427MOL0     C56239   7.711   5.081   3.937 -0.6481  0.6052 -0.2903
  427MOL0     O56240   7.585   5.034   3.892 -0.8735 -0.1014  0.2512
  427MOL0     C56241   7.518   5.114   3.797 -0.3245  0.3880 -0.5431
  427MOL0     C56242   7.391   5.051   3.742  0.3300 -0.2136  0.7426
  427MOL0     C56243   7.293   5.016   3.849 -0.2058 -0.0762 -0.3654
  427MOL0     C56244   7.165   4.954   3.782  0.1261 -1.6478 -0.2924
  427MOL0     C56245   7.069   4.895   3.893  0.0220  0.1260 -0.5135
  427MOL0     C56246   6.945   4.852   3.810 -0.7896  0.1853  0.1148
  427MOL0     C56247   6.847   4.757   3.874  0.0356  0.1054  0.0019
  427MOL0     C56248   6.794   4.820   3.997 -0.2480 -0.1028 -0.0283
  427MOL0     N56249   6.654   4.770   4.031  0.6520  0.3294 -0.1630
  427MOL0     C56250   6.631   4.631   4.049  0.3377 -0.8673 -0.7112
  427MOL0     C56251   6.504   4.616   4.006  0.8470  0.0591  0.2087
  427MOL0     C56252   6.415   4.491   3.982 -0.3445 -0.2842 -0.4561
  427MOL0     C56253   6.267   4.500   4.034  0.9950  0.4994 -0.7076
  427MOL0     C56254   6.190   4.376   4.035  0.0644 -0.1255 -0.1341
  427MOL0     C56255   6.046   4.387   4.098 -0.0667 -0.2863  0.4663
  427MOL0     O56256   5.978   4.261   4.067  0.3309 -0.3585 -0.7995
  427MOL0     C56257   5.839   4.247   4.079 -0.1027 -0.2659 -0.2751
  427MOL0     C56258   5.767   4.313   4.176 -0.8280  0.4836 -0.4763
  427MOL0     C56259   5.631   4.295   4.179  0.3807 -0.3867  0.1591
  427MOL0     C56260   5.564   4.203   4.098 -0.0309  0.8272  0.5638
  427MOL0     C56261   5.415   4.177   4.120  1.2808  0.5026  0.5529
  427MOL0     O56262   5.358   4.239   4.227  0.0946 -0.3123 -0.7472
  427MOL0     C56263   5.221   4.232   4.254 -0.4258  0.2100  0.3193
  427MOL0     C56264   5.169   4.340   4.325  0.0747 -0.5565  0.0470
  427MOL0     C56265   5.035   4.349   4.357  0.2744 -0.3461  0.8643
  427MOL0     C56266   4.948   4.254   4.310 -0.2260 -0.5319  0.6612
  427MOL0     O56267   4.809   4.263   4.320 -0.0458  0.4775  0.4698
  427MOL0     C56268   4.753   4.221   4.443 -0.1300 -0.0718  0.0647
  427MOL0     C56269   4.651   4.103   4.416  0.0003  0.4626 -0.6015
  427MOL0     C56270   4.521   4.126   4.498 -0.4135 -0.6134  0.1085
  427MOL0     C56271   4.413   4.019   4.458 -0.8793 -0.6148  0.7670
  427MOL0     C56272   4.295   4.012   4.560 -0.2059  0.6013  0.3635
  427MOL0     C56273   4.209   4.141   4.558 -0.2690 -0.1229  0.5368
  427MOL0     C56274   4.089   4.126   4.648  0.1204  0.0008 -0.2115
  427MOL0     C56275   3.991   4.244   4.642  0.6341 -0.3515 -0.2872
  427MOL0    Cl56276   3.895   4.253   4.797  0.4625 -0.8852 -0.5378
  427MOL0     C56277   4.996   4.147   4.237 -0.5947  0.3960  0.4393
  427MOL0     C56278   5.132   4.131   4.221  0.5375  0.8762  0.4081
  427MOL0     O56279   5.361   4.086   4.050 -0.8401 -0.3931 -0.3140
  427MOL0     C56280   5.636   4.128   4.005 -0.6420 -0.5614  0.2478
  427MOL0     C56281   5.772   4.158   3.992 -0.6754  0.3120  0.2509
  427MOL0     N56282   6.443   4.737   3.985 -0.2440  0.3103  0.3205
  427MOL0     N56283   6.536   4.828   3.995 -0.1650 -0.4477  0.6456
  427MOL0     C56284   7.788   4.980   3.996 -0.8090  0.1779 -0.0863
  427MOL0     C56285   7.914   5.016   4.049  0.3101 -0.2572  0.5815
  427MOL0     C56286   8.196   5.239   4.303 -0.4237 -0.1226 -0.3356
  427MOL0     C56287   8.233   5.193   4.429 -0.2994 -0.0362  0.4152
  427MOL0     C56288   8.349   5.233   4.496 -0.3049  0.3159  0.5733
  427MOL0     C56289   8.421   5.341   4.441 -0.3238  0.6070 -0.5767
  427MOL0     O56290   8.546   5.377   4.482 -0.0722  0.8668 -0.3708
  427MOL0     C56291   8.602   5.333   4.611 -0.3522  0.6175 -0.1494
  427MOL0     C56292   8.699   5.437   4.667 -0.4507  0.5279  0.4581
  427MOL0     C56293   8.752   5.398   4.806 -0.4039 -0.5731  0.0088
  427MOL0     C56294   8.735   5.516   4.903 -0.5893 -0.1065  0.1135
  427MOL0     C56295   8.842   5.616   4.883 -0.1387  0.0332  0.1247
  427MOL0     C56296   8.935   5.688   4.858 -0.8050 -0.7388 -0.6521
  427MOL0     C56297   8.387   5.396   4.316  0.7034  0.1214 -1.0455
  427MOL0     C56298   8.275   5.344   4.242  0.1967  0.0332  0.2986
  427MOL0     H56299   7.918   5.357   3.984 -0.4520 -0.8212  1.3237
  427MOL0     H56300   7.682   5.285   3.889  0.1498  1.4683 -0.4265
  427MOL0     H56301   7.583   5.143   3.714  0.8771 -0.1263  0.1952
  427MOL0     H56302   7.480   5.202   3.851 -0.7557 -0.2235  0.1679
  427MOL0     H56303   7.418   4.960   3.686  2.4312  1.9368 -2.0522
  427MOL0     H56304   7.356   5.131   3.676  0.3656 -1.3171 -0.6607
  427MOL0     H56305   7.281   5.102   3.914 -1.6319 -1.7855  1.7766
  427MOL0     H56306   7.331   4.937   3.915 -1.7756  0.1693  0.8699
  427MOL0     H56307   7.115   5.036   3.730  1.5915  1.1971  2.4625
  427MOL0     H56308   7.200   4.880   3.710  1.0468  0.4820 -2.1553
  427MOL0     H56309   7.036   4.971   3.963 -1.3997  0.0126 -1.0246
  427MOL0     H56310   7.107   4.813   3.955  0.6700  1.3838  0.7743
  427MOL0     H56311   6.978   4.796   3.722 -1.9078  0.4229 -0.4798
  427MOL0     H56312   6.898   4.944   3.776 -0.7115  1.3628  2.9061
  427MOL0     H56313   6.769   4.739   3.799 -0.9314 -1.1884  1.2556
  427MOL0     H56314   6.900   4.664   3.895  3.2440  1.6011 -0.8517
  427MOL0     H56315   6.784   4.928   3.986 -3.1078 -0.0042  2.1877
  427MOL0     H56316   6.872   4.805   4.072  0.0125 -0.5834 -0.3894
  427MOL0     H56317   6.705   4.552   4.058  2.8642  1.3875 -0.2468
  427MOL0     H56318   6.462   4.401   4.022 -5.1802 -1.8035  2.7541
  427MOL0     H56319   6.408   4.480   3.873 -1.2192 -0.1369 -0.4263
  427MOL0     H56320   6.219   4.572   3.967 -0.9229  0.3583  0.4228
  427MOL0     H56321   6.257   4.539   4.136  0.9691  1.4222 -1.0481
  427MOL0     H56322   6.177   4.340   3.933 -0.3791 -2.1429  0.5877
  427MOL0     H56323   6.243   4.288   4.073  1.0503 -1.1788 -3.6215
  427MOL0     H56324   5.987   4.472   4.062  1.0998  0.4876  0.3452
  427MOL0     H56325   6.066   4.403   4.204 -0.4382  1.2692  0.3232
  427MOL0     H56326   5.805   4.391   4.240 -0.5391  0.6060 -0.7907
  427MOL0     H56327   5.583   4.356   4.255 -0.1149 -2.2325  1.3886
  427MOL0     H56328   5.242   4.413   4.359  0.8907 -1.4003  0.1544
  427MOL0     H56329   4.988   4.427   4.416  1.5259 -0.0907  1.5441
  427MOL0     H56330   4.702   4.312   4.476 -0.3696 -0.5091  0.9221
  427MOL0     H56331   4.832   4.204   4.517 -0.1791 -0.5769  0.0055
  427MOL0     H56332   4.707   4.010   4.431 -3.3763 -1.9119 -1.4962
  427MOL0     H56333   4.616   4.108   4.312 -0.8785  0.7806 -0.3021
  427MOL0     H56334   4.476   4.220   4.465  2.3346  0.7125 -0.1969
  427MOL0     H56335   4.533   4.126   4.607  0.7149  2.0721  0.0864
  427MOL0     H56336   4.364   4.025   4.360  0.9229 -1.9162 -0.2818
  427MOL0     H56337   4.466   3.923   4.461  0.6489  0.2062  1.4742
  427MOL0     H56338   4.339   3.990   4.658  1.8412  2.5684 -0.0120
  427MOL0     H56339   4.230   3.925   4.545 -1.6521  1.5122  1.1204
  427MOL0     H56340   4.178   4.157   4.454  0.6455 -0.5561  0.1916
  427MOL0     H56341   4.273   4.223   4.591  0.5382  0.5299 -2.3512
  427MOL0     H56342   4.035   4.032   4.629  0.5148 -0.2237 -0.2224
  427MOL0     H56343   4.127   4.118   4.750  0.6840  0.3302 -0.3910
  427MOL0     H56344   3.921   4.230   4.559 -0.4289  0.2070  0.4820
  427MOL0     H56345   4.051   4.332   4.614 -1.4964  2.1119  2.2506
  427MOL0     H56346   4.939   4.071   4.184  0.8289 -1.1971  1.0904
  427MOL0     H56347   5.162   4.034   4.181  1.0340  0.6338  1.3197
  427MOL0     H56348   5.597   4.049   3.941 -0.7795  1.5772 -2.5068
  427MOL0     H56349   5.825   4.098   3.918 -3.0796  0.0809 -1.3863
  427MOL0     H56350   7.749   4.879   3.995  0.4515 -0.3810 -3.2745
  427MOL0     H56351   7.975   4.949   4.109 -1.7096 -2.2721  0.4940
  427MOL0     H56352   8.179   5.115   4.482  2.0334  0.7992  4.3708
  427MOL0     H56353   8.382   5.184   4.587 -2.1137 -0.7469  0.7172
  427MOL0     H56354   8.655   5.239   4.595  0.2651  1.0498 -0.6977
  427MOL0     H56355   8.522   5.305   4.681  2.3777 -1.1592  2.5007
  427MOL0     H56356   8.788   5.455   4.606 -1.0090  0.4821 -0.3956
  427MOL0     H56357   8.651   5.535   4.665  3.6305  2.7464 -2.3467
  427MOL0     H56358   8.857   5.368   4.810 -0.6231 -1.2569  2.2526
  427MOL0     H56359   8.696   5.313   4.846 -0.2681  0.0612  1.6491
  427MOL0     H56360   8.638   5.565   4.890 -1.1222 -1.1389  0.0915
  427MOL0     H56361   8.745   5.486   5.007  0.5353 -1.1307 -0.2627
  427MOL0     H56362   9.025   5.739   4.830  0.3934 -1.2927  1.8748
  427MOL0     H56363   8.440   5.477   4.267  0.7932  0.4842 -0.3558
  427MOL0     H56364   8.257   5.384   4.143  2.6848  1.3020  0.2757
  428MOL0     O56365   6.210   8.267   0.252 -1.1373 -0.2617  0.5228
  428MOL0     C56366   6.213   8.375   0.196  0.4473 -0.4965  0.4396
  428MOL0     O56367   6.115   8.422   0.102  0.2436 -0.8998 -0.0498
  428MOL0     C56368   6.034   8.327   0.054 -0.2107 -0.4768  0.1050
  428MOL0     C56369   5.931   8.273   0.128  0.0699  0.5105 -0.5969
  428MOL0     C56370   5.838   8.184   0.082  0.0727 -0.3249  0.3985
  428MOL0     C56371   5.840   8.144  -0.052  0.7163 -0.1365  0.1464
  428MOL0     O56372   5.737   8.063  -0.099 -0.8138  0.5934 -0.2123
  428MOL0     C56373   5.741   8.021  -0.237  0.2768 -0.1220 -0.5868
  428MOL0     C56374   5.641   7.912  -0.261  0.3610 -0.4743 -0.0366
  428MOL0     C56375   5.500   7.933  -0.206  0.5278  0.3488  0.0699
  428MOL0     C56376   5.399   7.831  -0.262 -0.2565  0.6931 -0.2680
  428MOL0     C56377   5.259   7.853  -0.187  0.7434  0.4879 -0.5062
  428MOL0     C56378   5.183   7.984  -0.188 -0.1677 -0.4024 -0.0001
  428MOL0     C56379   5.028   7.967  -0.168  0.0106  0.8117 -0.3574
  428MOL0     C56380   4.983   7.895  -0.042  0.0320  0.3250 -0.4895
  428MOL0     N56381   4.971   7.984   0.064  0.3271 -0.4834 -0.3715
  428MOL0     C56382   5.063   8.034   0.154  0.1197 -0.2911  0.7559
  428MOL0     C56383   4.990   8.123   0.237 -0.0349  0.5213 -0.4757
  428MOL0     C56384   5.037   8.216   0.345  0.5458  1.0038 -0.6278
  428MOL0     C56385   5.186   8.194   0.376 -0.7791  0.1537  0.6612
  428MOL0     C56386   5.231   8.239   0.516 -0.1400 -0.1548  0.6158
  428MOL0     C56387   5.135   8.173   0.623 -0.5541  0.5392  0.5123
  428MOL0     O56388   5.211   8.144   0.740 -0.1367  0.5584  0.2777
  428MOL0     C56389   5.162   8.081   0.850  0.4649 -0.7151  0.1109
  428MOL0     C56390   5.035   8.105   0.903 -0.0810  0.2791 -0.5798
  428MOL0     C56391   4.988   8.042   1.021  0.0444 -0.2351  0.5441
  428MOL0     C56392   5.074   7.954   1.092  0.0929  0.3956 -0.2596
  428MOL0     C56393   5.033   7.887   1.215  0.0381 -0.0051  0.5542
  428MOL0     O56394   5.129   7.801   1.276 -0.3727  0.8279  0.1692
  428MOL0     C56395   5.083   7.720   1.374  0.1861  1.0336  0.6387
  428MOL0     C56396   5.063   7.581   1.342  0.0697  0.3710 -0.2484
  428MOL0     C56397   4.982   7.508   1.427 -0.3702 -0.2200 -0.3606
  428MOL0     C56398   4.932   7.549   1.556 -0.2215 -0.0639  0.6821
  428MOL0     O56399   4.873   7.471   1.649 -0.3462  0.0353 -0.4185
  428MOL0     C56400   4.903   7.326   1.646  0.3056  0.0370  0.2036
  428MOL0     C56401   4.839   7.259   1.763 -0.1373  0.2706 -0.3230
  428MOL0     C56402   4.680   7.279   1.770 -0.0845  0.9734  0.0820
  428MOL0     C56403   4.621   7.188   1.656 -0.1765 -1.4367 -1.2143
  428MOL0     C56404   4.474   7.175   1.664  0.2477  0.5697 -0.4280
  428MOL0     C56405   4.393   7.305   1.654  0.4521 -0.4383  0.1927
  428MOL0     C56406   4.422   7.396   1.534  0.6878  0.4001 -0.4981
  428MOL0     C56407   4.331   7.516   1.525 -0.2438  0.9841 -1.1069
  428MOL0    Cl56408   4.157   7.472   1.520  0.1584 -0.0493 -0.1953
  428MOL0     C56409   4.957   7.685   1.584  0.7818 -0.1491 -0.1242
  428MOL0     C56410   5.026   7.772   1.491  0.3494  0.4505 -0.6745
  428MOL0     O56411   4.912   7.898   1.253  0.1444 -0.1779  0.7850
  428MOL0     C56412   5.198   7.921   1.035 -0.1059 -0.3537 -0.3729
  428MOL0     C56413   5.237   7.992   0.914 -0.0688  0.4957 -0.0853
  428MOL0     N56414   4.860   8.118   0.194 -0.3531  1.1567  0.4601
  428MOL0     N56415   4.850   8.042   0.094  0.2866  0.6202  0.2561
  428MOL0     C56416   5.942   8.203  -0.130  0.0607 -0.9818 -0.1911
  428MOL0     C56417   6.034   8.295  -0.082  0.4441  0.5419 -0.1967
  428MOL0     C56418   6.320   8.470   0.243  0.2139 -0.1472  0.6955
  428MOL0     C56419   6.294   8.606   0.245  1.4114 -0.2394  0.1148
  428MOL0     C56420   6.385   8.706   0.294  0.2363  0.3784 -0.2599
  428MOL0     C56421   6.507   8.665   0.345  0.0559  0.3933  0.3505
  428MOL0     O56422   6.603   8.745   0.395 -0.1028 -0.4275 -0.4847
  428MOL0     C56423   6.627   8.870   0.344 -0.1012 -0.1922 -0.3805
  428MOL0     C56424   6.706   8.963   0.438 -1.3714  0.7800  0.5287
  428MOL0     C56425   6.862   8.925   0.441  0.1433  0.0279  0.2642
  428MOL0     C56426   6.947   9.010   0.538 -0.1293 -0.1359  0.3019
  428MOL0     C56427   6.917   9.151   0.538 -0.7819  1.0051 -0.4743
  428MOL0     C56428   6.867   9.256   0.533  0.1677 -0.8226 -0.9012
  428MOL0     C56429   6.527   8.530   0.350  0.0409  0.8287 -0.1982
  428MOL0     C56430   6.437   8.431   0.307  0.5512 -0.2861 -0.8376
  428MOL0     H56431   5.927   8.302   0.233  0.6034  1.0099 -0.7029
  428MOL0     H56432   5.760   8.152   0.151 -1.3170  0.3188 -0.8125
  428MOL0     H56433   5.838   7.974  -0.259 -0.4109 -1.5112 -0.7947
  428MOL0     H56434   5.718   8.112  -0.293  0.2571  0.7664  0.8201
  428MOL0     H56435   5.683   7.816  -0.231 -0.6350 -0.9739 -0.1993
  428MOL0     H56436   5.611   7.899  -0.366  1.6535  1.2754 -0.6596
  428MOL0     H56437   5.464   8.036  -0.211 -2.4039 -0.6401 -1.5049
  428MOL0     H56438   5.511   7.922  -0.098 -0.7156  2.4043  0.4525
  428MOL0     H56439   5.376   7.834  -0.369 -1.9338  0.0614  0.0354
  428MOL0     H56440   5.427   7.733  -0.224 -0.8737  0.8206  0.5457
  428MOL0     H56441   5.257   7.810  -0.086 -2.3251 -0.6576 -0.9464
  428MOL0     H56442   5.193   7.786  -0.243 -0.0560  0.5883  0.2949
  428MOL0     H56443   5.202   8.035  -0.283  1.4435 -0.3878  0.3020
  428MOL0     H56444   5.227   8.043  -0.107  3.8222  1.1179 -2.9322
  428MOL0     H56445   4.991   8.070  -0.172  0.5475  0.9872 -1.0727
  428MOL0     H56446   4.985   7.915  -0.254  0.0466 -1.2229  0.7885
  428MOL0     H56447   5.037   7.802  -0.022 -1.1893 -0.1920  0.4794
  428MOL0     H56448   4.880   7.866  -0.063  0.2859  0.6134 -2.3149
  428MOL0     H56449   5.170   8.016   0.159  0.0614 -1.1178 -0.6787
  428MOL0     H56450   4.977   8.179   0.429  2.6209 -2.3570 -0.4222
  428MOL0     H56451   5.004   8.319   0.328 -0.9091  1.0713  2.0122
  428MOL0     H56452   5.248   8.226   0.292 -1.4643 -1.8519 -0.6909
  428MOL0     H56453   5.204   8.088   0.394  0.1763  0.7549  4.0973
  428MOL0     H56454   5.330   8.193   0.513 -0.3866 -0.7115  0.8789
  428MOL0     H56455   5.241   8.347   0.531 -0.7600 -0.3367  2.6605
  428MOL0     H56456   5.094   8.081   0.579  1.5201  0.0919 -0.5888
  428MOL0     H56457   5.057   8.248   0.642 -0.0830  0.4359  3.2587
  428MOL0     H56458   4.973   8.185   0.864 -1.5366 -1.0242 -1.0267
  428MOL0     H56459   4.894   8.075   1.063 -0.1693 -0.4577  0.2392
  428MOL0     H56460   5.088   7.550   1.241 -1.8340  0.9782 -0.9448
  428MOL0     H56461   4.963   7.405   1.398 -0.0268 -0.6399  0.8167
  428MOL0     H56462   5.011   7.310   1.636  0.0010 -1.1222 -2.1995
  428MOL0     H56463   4.861   7.282   1.554  0.0984 -0.8134  0.6921
  428MOL0     H56464   4.872   7.312   1.852 -0.3369  0.8671 -0.6013
  428MOL0     H56465   4.871   7.154   1.768  2.4013  1.0379  0.7514
  428MOL0     H56466   4.647   7.382   1.754 -3.8079 -0.5047 -3.4792
  428MOL0     H56467   4.646   7.245   1.868  3.1197 -1.2286  0.5754
  428MOL0     H56468   4.643   7.229   1.557 -0.8704  1.0431 -0.3914
  428MOL0     H56469   4.663   7.087   1.666 -1.5110 -1.9364 -0.3751
  428MOL0     H56470   4.440   7.110   1.745 -0.6483  2.6180  0.9031
  428MOL0     H56471   4.459   7.112   1.576 -0.2548 -1.7115  1.1877
  428MOL0     H56472   4.401   7.356   1.750  0.4794 -3.6518  2.0300
  428MOL0     H56473   4.289   7.272   1.657  0.3585 -0.0753  2.6045
  428MOL0     H56474   4.524   7.437   1.531  0.8104  0.3718  1.6841
  428MOL0     H56475   4.401   7.336   1.446 -1.2114 -1.1307  0.9136
  428MOL0     H56476   4.348   7.578   1.436  1.2108  0.8279 -0.9564
  428MOL0     H56477   4.355   7.571   1.616 -0.8202 -0.5564  0.0068
  428MOL0     H56478   4.926   7.732   1.677  2.0399 -2.6552  1.6840
  428MOL0     H56479   5.041   7.879   1.506  1.0022  0.4563 -1.2788
  428MOL0     H56480   5.275   7.857   1.078 -0.2882 -0.2744  0.0728
  428MOL0     H56481   5.329   7.972   0.859  1.3195  1.0199  1.9049
  428MOL0     H56482   5.965   8.170  -0.231  0.6650 -2.0614  0.2854
  428MOL0     H56483   6.113   8.334  -0.146  2.4638 -0.1273  1.7307
  428MOL0     H56484   6.198   8.641   0.206  1.0938 -2.5515 -1.3764
  428MOL0     H56485   6.361   8.812   0.300  1.3616  0.5750  1.7309
  428MOL0     H56486   6.534   8.926   0.327  0.8120  1.3294 -0.4730
  428MOL0     H56487   6.666   8.853   0.243 -0.8746  1.1858 -0.9384
  428MOL0     H56488   6.700   9.065   0.399 -2.6831  1.2642  1.9091
  428MOL0     H56489   6.660   8.960   0.537  1.3643  2.4815  1.9926
  428MOL0     H56490   6.902   8.939   0.341  1.2507  1.3823  0.8624
  428MOL0     H56491   6.880   8.819   0.461  6.9145  0.7207  0.0428
  428MOL0     H56492   6.945   8.959   0.635  2.6141 -0.1019  0.4769
  428MOL0     H56493   7.051   9.001   0.505  0.2465  0.2869  1.3416
  428MOL0     H56494   6.832   9.354   0.561  0.8303 -0.7369 -0.3449
  428MOL0     H56495   6.614   8.481   0.391 -1.1279 -0.6457  0.6085
  428MOL0     H56496   6.474   8.329   0.311  1.1393 -0.2829 -3.7091
  429MOL0     O56497   9.959   3.362   4.561 -0.6275 -0.3132 -0.4829
  429MOL0     C56498  10.053   3.445   4.529 -0.1378  0.1895  0.3528
  429MOL0     O56499  10.082   3.566   4.586  0.3032  0.0309  0.4016
  429MOL0     C56500  10.030   3.595   4.713 -0.5940  0.4188 -0.6175
  429MOL0     C56501   9.921   3.669   4.734 -0.3487  0.7714  0.1433
  429MOL0     C56502   9.871   3.694   4.861 -0.8467  0.3801 -0.1168
  429MOL0     C56503   9.954   3.674   4.974  0.3398 -0.3933 -0.6718
  429MOL0     O56504   9.922   3.710   5.106  0.4220 -0.0283 -0.2747
  429MOL0     C56505   9.799   3.786   5.126  0.1139 -0.0197 -0.5455
  429MOL0     C56506   9.680   3.699   5.146  0.2829  0.0565  0.3937
  429MOL0     C56507   9.547   3.768   5.186  0.1743 -0.3012  0.0405
  429MOL0     C56508   9.427   3.662   5.184  1.0698 -0.6658 -0.1159
  429MOL0     C56509   9.287   3.716   5.203 -0.7840  0.7678 -0.5661
  429MOL0     C56510   9.270   3.800   5.335 -0.6291  0.2744  0.5345
  429MOL0     C56511   9.137   3.871   5.347 -0.3265 -0.5489  0.6066
  429MOL0     C56512   9.125   3.955   5.474  0.0729  0.5329  0.1644
  429MOL0     N56513   8.993   4.003   5.487 -0.0453  0.1379 -0.5353
  429MOL0     C56514   8.945   4.126   5.448  0.4577 -0.9233  0.0348
  429MOL0     C56515   8.813   4.120   5.474 -0.4705 -0.3429  1.2387
  429MOL0     C56516   8.718   4.238   5.455 -0.6376  0.2787  1.0233
  429MOL0     C56517   8.635   4.259   5.580  0.3559 -0.0808  0.2529
  429MOL0     C56518   8.509   4.178   5.580  0.0835 -0.4541  0.2726
  429MOL0     C56519   8.438   4.189   5.712  0.3557  0.2451 -0.3494
  429MOL0     O56520   8.372   4.320   5.737  0.0985 -0.0008  0.4850
  429MOL0     C56521   8.247   4.339   5.688  0.3585 -0.1134 -0.8757
  429MOL0     C56522   8.193   4.450   5.735  0.8744  0.5153  0.4252
  429MOL0     C56523   8.054   4.478   5.703  0.0804 -0.3381 -0.7031
  429MOL0     C56524   7.986   4.397   5.613  0.9126 -0.2258  0.5448
  429MOL0     C56525   7.842   4.421   5.589  0.3833 -0.3571 -0.2867
  429MOL0     O56526   7.798   4.544   5.642  0.4982 -0.2643 -0.3647
  429MOL0     C56527   7.667   4.580   5.616  0.2152 -0.1183 -0.1455
  429MOL0     C56528   7.553   4.516   5.673 -0.2119  0.1327 -0.0872
  429MOL0     C56529   7.427   4.577   5.646 -0.4749 -0.3982 -0.1992
  429MOL0     C56530   7.418   4.694   5.563 -1.0141  0.3034 -0.6316
  429MOL0     O56531   7.302   4.763   5.534 -0.4583  0.4581  0.3281
  429MOL0     C56532   7.187   4.732   5.604 -0.7198 -0.0268 -0.4420
  429MOL0     C56533   7.091   4.844   5.543  0.0900  0.4548  0.5273
  429MOL0     C56534   6.945   4.813   5.575 -0.3838  0.9502  0.6442
  429MOL0     C56535   6.859   4.931   5.538  0.1197  0.4997 -0.2146
  429MOL0     C56536   6.825   4.936   5.386  0.0122  0.5685  0.7346
  429MOL0     C56537   6.721   5.038   5.378 -1.1989  0.0120 -0.1240
  429MOL0     C56538   6.663   5.036   5.240  0.8071 -0.2225 -0.4052
  429MOL0     C56539   6.560   5.152   5.199 -0.2677  0.0944 -0.4036
  429MOL0    Cl56540   6.523   5.131   5.023  0.3257  0.0608 -0.2333
  429MOL0     C56541   7.537   4.753   5.512 -0.1102  0.5925 -0.2097
  429MOL0     C56542   7.666   4.696   5.542 -0.3325  0.4215 -0.0976
  429MOL0     O56543   7.773   4.348   5.517 -0.5485  0.1404  0.1246
  429MOL0     C56544   8.054   4.289   5.562  0.2887 -0.2791  0.6496
  429MOL0     C56545   8.177   4.254   5.600 -0.1140 -0.4676 -0.8497
  429MOL0     N56546   8.780   3.993   5.516 -0.1338  0.2915  0.8525
  429MOL0     N56547   8.888   3.924   5.514 -0.7406  0.1375 -0.3967
  429MOL0     C56548  10.082   3.616   4.955  0.2542  0.0820  0.0495
  429MOL0     C56549  10.120   3.571   4.821  0.4068  0.6913 -0.9499
  429MOL0     C56550  10.136   3.397   4.420  0.0472 -0.6960 -0.2915
  429MOL0     C56551  10.255   3.469   4.393  0.0577 -0.4858  0.4739
  429MOL0     C56552  10.347   3.420   4.297 -0.5646  0.1325  0.0804
  429MOL0     C56553  10.321   3.307   4.216  0.6246  0.5501 -0.0397
  429MOL0     O56554  10.415   3.236   4.141 -0.3216  0.2159  0.0500
  429MOL0     C56555  10.557   3.248   4.192  0.3587 -0.1243  0.7085
  429MOL0     C56556  10.626   3.129   4.124  0.5731 -0.1354 -0.0568
  429MOL0     C56557  10.782   3.136   4.165  1.3405 -0.2214 -0.1293
  429MOL0     C56558  10.834   3.001   4.159 -1.4572  0.2601 -0.1398
  429MOL0     C56559  10.984   3.012   4.178  0.7655  0.8351  0.4319
  429MOL0     C56560  11.099   3.017   4.218 -0.0666  0.3627 -0.0549
  429MOL0     C56561  10.191   3.249   4.232  0.4589 -0.0929  0.0553
  429MOL0     C56562  10.115   3.292   4.335 -0.5150  0.2723 -0.0275
  429MOL0     H56563   9.869   3.699   4.643  1.4463  1.1187 -0.8255
  429MOL0     H56564   9.772   3.738   4.869 -1.9609 -1.6518 -1.7407
  429MOL0     H56565   9.793   3.855   5.042  0.6656  0.8179  0.0924
  429MOL0     H56566   9.799   3.847   5.217 -0.9893 -0.2709 -0.3667
  429MOL0     H56567   9.715   3.623   5.217  1.8073  1.4602  1.2192
  429MOL0     H56568   9.664   3.655   5.047  3.9426  0.0517 -0.3345
  429MOL0     H56569   9.545   3.850   5.113 -0.3215 -0.0058  0.3816
  429MOL0     H56570   9.556   3.814   5.285  0.5563 -1.0585  0.3643
  429MOL0     H56571   9.438   3.607   5.090  2.1191  0.3033 -0.5907
  429MOL0     H56572   9.437   3.587   5.262  0.6631 -0.6762 -0.0674
  429MOL0     H56573   9.219   3.633   5.224  1.0755 -1.1773 -1.8610
  429MOL0     H56574   9.253   3.769   5.113  2.3086  2.9169 -0.6192
  429MOL0     H56575   9.355   3.869   5.340 -1.3010  1.2798 -1.0125
  429MOL0     H56576   9.287   3.726   5.413  0.1711  1.0650  1.1272
  429MOL0     H56577   9.123   3.942   5.265  1.9967  0.0091  0.6299
  429MOL0     H56578   9.047   3.811   5.329 -0.2394 -1.3695  2.6234
  429MOL0     H56579   9.201   4.033   5.471 -0.2631  0.8325 -0.8195
  429MOL0     H56580   9.146   3.891   5.560  1.3057 -1.4277 -1.4918
  429MOL0     H56581   9.002   4.210   5.410 -1.4285 -1.4201 -4.5666
  429MOL0     H56582   8.654   4.236   5.367  2.4404 -0.7624 -1.3834
  429MOL0     H56583   8.778   4.329   5.441  0.0557 -0.6117 -2.6926
  429MOL0     H56584   8.605   4.363   5.593 -3.5566 -1.0174  0.0761
  429MOL0     H56585   8.688   4.225   5.669  0.8546 -1.3865 -0.5158
  429MOL0     H56586   8.442   4.209   5.500  1.9937 -2.8220 -2.4876
  429MOL0     H56587   8.538   4.077   5.548  0.5372 -0.5550  0.9697
  429MOL0     H56588   8.507   4.168   5.795  2.5562  3.6486 -1.1326
  429MOL0     H56589   8.359   4.113   5.716  1.2659 -0.6842  0.6781
  429MOL0     H56590   8.263   4.514   5.787  0.3437  0.8855  0.6886
  429MOL0     H56591   8.021   4.577   5.734  0.5744 -0.6387  0.9157
  429MOL0     H56592   7.560   4.436   5.747  2.9672  0.3541 -0.0097
  429MOL0     H56593   7.332   4.550   5.691 -2.6618  2.2009 -2.8311
  429MOL0     H56594   7.191   4.742   5.713 -0.1104 -0.6234 -0.4001
  429MOL0     H56595   7.161   4.628   5.580  0.4879 -0.0537 -1.7430
  429MOL0     H56596   7.107   4.860   5.436  2.3290 -1.6748  0.4518
  429MOL0     H56597   7.108   4.941   5.589 -0.4349  1.0263 -0.4596
  429MOL0     H56598   6.940   4.790   5.682  1.2507 -3.9910 -0.0685
  429MOL0     H56599   6.909   4.722   5.526  0.4898 -0.4091  2.3817
  429MOL0     H56600   6.764   4.911   5.588  0.6672 -0.1305  0.5878
  429MOL0     H56601   6.903   5.025   5.572 -0.4926  0.7958 -0.2142
  429MOL0     H56602   6.781   4.842   5.353 -1.8578  0.9441  2.0024
  429MOL0     H56603   6.910   4.963   5.323  0.8854  0.6138  1.8997
  429MOL0     H56604   6.778   5.131   5.380  2.9950 -2.1924 -2.3985
  429MOL0     H56605   6.645   5.036   5.456 -1.4821 -0.3459 -0.4039
  429MOL0     H56606   6.732   5.043   5.155 -0.1497 -0.7828 -1.2542
  429MOL0     H56607   6.612   4.940   5.229  0.2319  0.2107 -1.6883
  429MOL0     H56608   6.586   5.255   5.224 -3.4184  1.1342 -1.0061
  429MOL0     H56609   6.465   5.126   5.247 -1.1735  2.5155 -0.7557
  429MOL0     H56610   7.526   4.837   5.445 -0.1965  0.6447 -0.1303
  429MOL0     H56611   7.759   4.742   5.510  0.6386 -0.2266  1.6348
  429MOL0     H56612   8.004   4.225   5.490 -0.2080  0.2837  0.4812
  429MOL0     H56613   8.220   4.166   5.552 -2.5290 -1.2296 -1.7636
  429MOL0     H56614  10.144   3.604   5.043 -1.1471  1.3358  1.2773
  429MOL0     H56615  10.206   3.508   4.805 -0.7079 -0.3660 -3.2278
  429MOL0     H56616  10.286   3.552   4.455 -2.1921  0.8261 -0.0384
  429MOL0     H56617  10.441   3.472   4.304 -0.2057 -0.6618  1.7098
  429MOL0     H56618  10.567   3.242   4.301  1.5245  2.0122  0.7751
  429MOL0     H56619  10.611   3.336   4.156 -0.8858  0.7752  0.9514
  429MOL0     H56620  10.586   3.036   4.166  2.1074 -1.4689 -1.4193
  429MOL0     H56621  10.615   3.122   4.015  3.5097 -0.3213 -0.4194
  429MOL0     H56622  10.793   3.176   4.266 -0.9359 -0.7404  0.3805
  429MOL0     H56623  10.843   3.183   4.087 -0.2102 -1.6087 -2.2989
  429MOL0     H56624  10.800   2.932   4.237  0.4968 -4.3644 -2.9689
  429MOL0     H56625  10.813   2.955   4.063 -2.1267  1.5296 -0.6173
  429MOL0     H56626  11.194   3.013   4.267 -0.3530  0.6252  0.5272
  429MOL0     H56627  10.150   3.167   4.174 -1.4163  1.0606 -0.2927
  429MOL0     H56628  10.015   3.250   4.348 -1.1218  1.5596 -0.4175
  430MOL0     O56629   3.764   1.376   7.355  0.4051 -0.4946  0.2337
  430MOL0     C56630   3.785   1.263   7.318 -0.5720  0.5939 -1.1610
  430MOL0     O56631   3.686   1.160   7.305 -0.6273 -0.7721 -0.6823
  430MOL0     C56632   3.553   1.184   7.333  1.3839  0.5072  0.2400
  430MOL0     C56633   3.503   1.224   7.450 -0.6358 -0.1926 -0.5358
  430MOL0     C56634   3.362   1.250   7.466  0.6616 -0.3918 -0.7289
  430MOL0     C56635   3.285   1.254   7.346  0.1070 -0.0555 -0.0406
  430MOL0     O56636   3.149   1.289   7.347  0.4775 -0.3582 -0.0450
  430MOL0     C56637   3.093   1.327   7.466 -0.2066 -0.8135  0.4453
  430MOL0     C56638   2.940   1.315   7.465  0.2377 -0.5292 -0.1216
  430MOL0     C56639   2.866   1.423   7.376  0.2616  0.0852  0.0560
  430MOL0     C56640   2.721   1.395   7.359 -0.5102 -0.2044  0.0295
  430MOL0     C56641   2.660   1.482   7.253 -0.1438  0.4496 -0.3308
  430MOL0     C56642   2.511   1.501   7.254 -0.0988 -0.5270  0.5075
  430MOL0     C56643   2.451   1.601   7.363 -0.5316  0.6523 -0.2094
  430MOL0     C56644   2.316   1.534   7.424  0.7821  0.1547  0.4878
  430MOL0     N56645   2.218   1.509   7.313 -0.8285 -1.3695 -0.7111
  430MOL0     C56646   2.117   1.603   7.272 -0.8245  0.4335  0.4823
  430MOL0     C56647   2.032   1.529   7.195  0.1298 -0.5024  0.3223
  430MOL0     C56648   1.928   1.582   7.105 -0.2249  0.5009 -0.4447
  430MOL0     C56649   1.852   1.696   7.167  0.9954 -0.4294  0.1756
  430MOL0     C56650   1.710   1.718   7.111 -0.5262 -0.2701  0.1342
  430MOL0     C56651   1.607   1.614   7.157  0.0807 -0.4242  0.1155
  430MOL0     O56652   1.479   1.660   7.127  0.3734  0.0188  1.2308
  430MOL0     C56653   1.376   1.569   7.132  0.6235  1.1638  0.0419
  430MOL0     C56654   1.384   1.434   7.171 -0.0546 -0.1528 -0.1379
  430MOL0     C56655   1.265   1.354   7.179 -1.1097 -0.2010 -1.0142
  430MOL0     C56656   1.142   1.409   7.152 -0.0119 -0.5505  0.8112
  430MOL0     C56657   1.017   1.325   7.162 -0.4570 -0.5735 -0.5352
  430MOL0     O56658   0.896   1.393   7.138 -0.8667  0.0293 -0.6344
  430MOL0     C56659   0.790   1.319   7.107 -0.1517  0.2952  0.3165
  430MOL0     C56660   0.764   1.312   6.973  0.1009 -0.8718 -0.7584
  430MOL0     C56661   0.662   1.237   6.920 -0.1554 -0.2016 -0.2021
  430MOL0     C56662   0.582   1.156   6.999  0.0860  0.1576 -0.1222
  430MOL0     O56663   0.485   1.077   6.946  0.0716  0.2736 -0.3533
  430MOL0     C56664   0.353   1.131   6.953 -0.0972 -0.8160 -0.1629
  430MOL0     C56665   0.275   1.046   6.870  0.1396  0.7639  0.1599
  430MOL0     C56666   0.128   1.081   6.855  0.4766  0.8366 -0.9577
  430MOL0     C56667   0.059   0.989   6.752  0.3348  0.1358 -0.4882
  430MOL0     C56668  -0.092   1.036   6.742 -0.4087  0.3011  0.2666
  430MOL0     C56669  -0.156   0.973   6.611  0.9322  0.0069  0.3989
  430MOL0     C56670  -0.271   1.064   6.575  0.3953  0.2285  0.7937
  430MOL0     C56671  -0.357   1.003   6.456 -0.6585  0.6984 -0.1370
  430MOL0    Cl56672  -0.430   0.850   6.523  0.3573 -0.5117 -0.1903
  430MOL0     C56673   0.602   1.167   7.141 -0.3656  0.4678  0.0872
  430MOL0     C56674   0.714   1.239   7.194  0.3716 -0.4850  0.1577
  430MOL0     O56675   1.023   1.205   7.189 -0.6217 -0.4141  0.6793
  430MOL0     C56676   1.140   1.538   7.105 -0.1338  0.7170 -0.6041
  430MOL0     C56677   1.254   1.615   7.106  0.3458  0.0912 -0.1474
  430MOL0     N56678   2.082   1.401   7.197  0.3767 -0.1530  0.2487
  430MOL0     N56679   2.188   1.391   7.271  0.5961  0.3076  0.4348
  430MOL0     C56680   3.337   1.199   7.230  0.2162 -0.5109  0.7334
  430MOL0     C56681   3.466   1.161   7.226 -0.2660 -0.0771  0.6000
  430MOL0     C56682   3.923   1.221   7.278 -0.2094 -1.0573 -0.2765
  430MOL0     C56683   3.943   1.105   7.203  0.1867 -0.5947 -0.4426
  430MOL0     C56684   4.072   1.065   7.163  0.7570  0.3471 -0.6510
  430MOL0     C56685   4.188   1.156   7.178  0.2145  0.2149 -1.6431
  430MOL0     O56686   4.319   1.107   7.164  0.0729  0.1699  0.4544
  430MOL0     C56687   4.418   1.206   7.161 -0.1442  0.7793  0.1203
  430MOL0     C56688   4.543   1.128   7.111 -0.3495 -0.6893 -0.4827
  430MOL0     C56689   4.514   1.065   6.976 -0.7542 -0.5161 -0.7758
  430MOL0     C56690   4.524   1.160   6.859 -0.2067 -0.5679 -0.0922
  430MOL0     C56691   4.501   1.097   6.733 -0.3664 -0.2225  1.3024
  430MOL0     C56692   4.485   1.047   6.619  0.6935  0.0171  0.0859
  430MOL0     C56693   4.160   1.278   7.247  0.2415  0.1811  0.9842
  430MOL0     C56694   4.032   1.301   7.302  0.9715 -0.3843 -0.2208
  430MOL0     H56695   3.573   1.235   7.532 -1.1839 -0.0340 -0.0803
  430MOL0     H56696   3.318   1.284   7.559 -1.3580 -0.4865 -1.6109
  430MOL0     H56697   3.122   1.426   7.504  0.1769 -0.4692 -0.7071
  430MOL0     H56698   3.120   1.252   7.542 -0.3905  0.4716  1.8324
  430MOL0     H56699   2.912   1.323   7.571 -1.1007 -0.8712 -0.4297
  430MOL0     H56700   2.903   1.220   7.425  0.4581 -0.2261 -1.0755
  430MOL0     H56701   2.922   1.431   7.282 -0.0101 -0.6443 -0.1720
  430MOL0     H56702   2.864   1.523   7.421 -3.3769  1.3882 -2.5263
  430MOL0     H56703   2.704   1.289   7.338  3.9085 -1.7184  2.7393
  430MOL0     H56704   2.665   1.408   7.452  0.7754  1.9454  0.5597
  430MOL0     H56705   2.700   1.433   7.164 -0.6265 -1.6674  0.5699
  430MOL0     H56706   2.711   1.579   7.255  0.0817  0.3262  0.2705
  430MOL0     H56707   2.468   1.402   7.275  0.8959 -1.2371 -0.6664
  430MOL0     H56708   2.475   1.531   7.155 -3.3450 -0.8229  1.4816
  430MOL0     H56709   2.527   1.630   7.436 -0.9999 -2.5733  1.8037
  430MOL0     H56710   2.424   1.684   7.298  1.5509  1.1898 -0.4497
  430MOL0     H56711   2.266   1.587   7.506 -1.1177  0.5413 -0.8404
  430MOL0     H56712   2.351   1.439   7.466 -0.8272 -0.6678  0.0321
  430MOL0     H56713   2.123   1.711   7.276  2.9347  0.3806  0.0581
  430MOL0     H56714   1.860   1.500   7.079  2.8197 -2.0345 -1.0830
  430MOL0     H56715   1.974   1.617   7.012  2.1173  1.0442  0.8294
  430MOL0     H56716   1.912   1.786   7.149  0.3296  0.0954  0.5397
  430MOL0     H56717   1.856   1.682   7.276 -0.1300  0.4902  0.3515
  430MOL0     H56718   1.678   1.820   7.133  1.0320 -0.2596  2.7965
  430MOL0     H56719   1.720   1.704   7.003  0.5215 -0.7424  0.2741
  430MOL0     H56720   1.628   1.599   7.263  2.1622  2.2530  0.2029
  430MOL0     H56721   1.619   1.522   7.099 -1.5767  0.7874 -2.3573
  430MOL0     H56722   1.477   1.385   7.199  0.7827 -0.1097 -2.5512
  430MOL0     H56723   1.274   1.254   7.221 -1.5248 -0.1562 -0.8095
  430MOL0     H56724   0.830   1.363   6.904  0.9472 -1.6581 -0.5544
  430MOL0     H56725   0.656   1.229   6.812 -0.0026 -2.9353 -0.0777
  430MOL0     H56726   0.349   1.231   6.912 -2.6793 -0.8791 -0.1863
  430MOL0     H56727   0.317   1.136   7.056 -1.3057  0.0078 -0.6149
  430MOL0     H56728   0.283   0.940   6.895 -0.9543  0.3086 -1.2653
  430MOL0     H56729   0.320   1.048   6.770 -0.2279  0.7045 -0.0112
  430MOL0     H56730   0.109   1.185   6.824 -1.7892  0.1323 -2.1958
  430MOL0     H56731   0.085   1.072   6.955 -0.0651  3.4993 -0.8754
  430MOL0     H56732   0.100   1.000   6.651  0.7132 -0.3130 -0.3883
  430MOL0     H56733   0.070   0.884   6.781  2.7200  0.4058 -0.1852
  430MOL0     H56734  -0.091   1.143   6.720 -2.1862 -0.1914 -2.8831
  430MOL0     H56735  -0.142   1.005   6.834 -1.2024 -0.2458 -0.3347
  430MOL0     H56736  -0.178   0.869   6.638  2.4961 -0.3845  0.2673
  430MOL0     H56737  -0.078   0.970   6.535  0.3635 -2.1605 -0.1891
  430MOL0     H56738  -0.327   1.087   6.666  2.2121  1.8282  1.5843
  430MOL0     H56739  -0.232   1.163   6.548 -1.2857  0.3439 -1.4956
  430MOL0     H56740  -0.295   0.976   6.369 -1.9691 -3.8866  0.0794
  430MOL0     H56741  -0.424   1.080   6.417 -0.1412  1.4997  0.5368
  430MOL0     H56742   0.544   1.099   7.202  1.1346 -1.7917 -0.8771
  430MOL0     H56743   0.745   1.245   7.298 -2.4458  0.0848  1.0371
  430MOL0     H56744   1.043   1.577   7.075 -0.8616 -0.7254 -0.2033
  430MOL0     H56745   1.233   1.720   7.094 -0.3294  0.4383  3.0154
  430MOL0     H56746   3.281   1.178   7.140  2.5858  0.8108 -1.1783
  430MOL0     H56747   3.513   1.112   7.142 -1.5964  2.2572 -1.6501
  430MOL0     H56748   3.858   1.041   7.180  0.6039 -0.8583 -1.3126
  430MOL0     H56749   4.085   0.970   7.113 -2.6659 -1.2002  1.0085
  430MOL0     H56750   4.455   1.253   7.253 -4.2293  3.2940  0.7258
  430MOL0     H56751   4.382   1.283   7.093  0.1888  1.3418  0.5667
  430MOL0     H56752   4.627   1.198   7.102 -2.7743  2.2238 -2.4721
  430MOL0     H56753   4.564   1.062   7.196 -0.0135  0.1871  0.1235
  430MOL0     H56754   4.414   1.021   6.981 -1.1979  0.3984 -1.2521
  430MOL0     H56755   4.590   0.988   6.960  0.6457  0.3129  1.4208
  430MOL0     H56756   4.454   1.243   6.869  0.4496 -0.2253  2.4956
  430MOL0     H56757   4.624   1.203   6.858 -1.2267  1.9640  0.0553
  430MOL0     H56758   4.463   1.010   6.521 -1.9953 -1.9002  1.2831
  430MOL0     H56759   4.234   1.355   7.269 -0.9631  1.5033  0.5822
  430MOL0     H56760   4.021   1.396   7.353  0.9858 -0.8366  0.6345
  431MOL0     O56761   3.941   5.865   9.789 -0.3932 -0.1891  0.0539
  431MOL0     C56762   3.956   5.817   9.678  0.8298  0.4130  0.3628
  431MOL0     O56763   3.875   5.825   9.568 -0.5493  0.1516 -0.3336
  431MOL0     C56764   3.747   5.880   9.583 -0.6591  0.0618  1.0419
  431MOL0     C56765   3.672   5.902   9.698  0.0805  0.9678 -1.4276
  431MOL0     C56766   3.534   5.923   9.693 -0.5050  0.1220  0.6217
  431MOL0     C56767   3.475   5.964   9.571 -0.0661  0.6360 -1.1488
  431MOL0     O56768   3.345   5.994   9.551  0.5304  0.1180 -0.3380
  431MOL0     C56769   3.240   5.899   9.585  0.5114 -0.4092 -0.4510
  431MOL0     C56770   3.107   5.958   9.530 -0.2279  0.1306 -0.3252
  431MOL0     C56771   2.995   5.855   9.535 -1.0300 -0.3769 -0.6761
  431MOL0     C56772   2.864   5.914   9.491 -0.1173  0.2501  0.0112
  431MOL0     C56773   2.767   5.794   9.479  0.7627 -0.3720 -0.2929
  431MOL0     C56774   2.626   5.841   9.434  0.0094  0.3831  0.0921
  431MOL0     C56775   2.524   5.731   9.430  0.7549  0.6106  0.1537
  431MOL0     C56776   2.385   5.785   9.394 -0.0510 -0.0439 -0.5717
  431MOL0     N56777   2.275   5.689   9.385 -0.7579  0.6055 -0.2335
  431MOL0     C56778   2.254   5.599   9.285 -0.6226  0.2856  0.5053
  431MOL0     C56779   2.141   5.537   9.319 -0.2592  0.5440  0.0390
  431MOL0     C56780   2.096   5.422   9.229 -0.0238  0.6120 -0.0579
  431MOL0     C56781   1.980   5.337   9.284 -0.7823  0.5315 -0.0913
  431MOL0     C56782   1.846   5.418   9.297 -0.0816 -0.4510 -0.4532
  431MOL0     C56783   1.745   5.314   9.374 -0.2166  0.1177  0.0836
  431MOL0     O56784   1.627   5.389   9.400  0.6664 -0.6029 -0.4935
  431MOL0     C56785   1.519   5.363   9.321 -0.3649 -0.3344  0.1298
  431MOL0     C56786   1.414   5.289   9.381  0.1209 -0.1878 -1.0546
  431MOL0     C56787   1.303   5.263   9.303  0.2245  0.0433  0.7674
  431MOL0     C56788   1.282   5.311   9.174 -0.3182 -0.4285 -0.1702
  431MOL0     C56789   1.155   5.298   9.100  0.4994 -0.4769  0.3807
  431MOL0     O56790   1.053   5.238   9.161 -0.2135  0.7784 -0.2583
  431MOL0     C56791   0.937   5.230   9.097  0.1779  0.6867  1.1879
  431MOL0     C56792   0.857   5.333   9.036  0.1899 -0.1461 -0.1529
  431MOL0     C56793   0.725   5.305   8.994  0.2664 -0.4069  0.7598
  431MOL0     C56794   0.680   5.175   8.992  0.9560  0.1963  0.1617
  431MOL0     O56795   0.550   5.150   8.945 -0.0469 -0.1694 -0.3298
  431MOL0     C56796   0.529   5.054   8.840 -0.2935  0.0771 -0.0855
  431MOL0     C56797   0.383   5.006   8.810 -0.1668 -0.3071 -0.2170
  431MOL0     C56798   0.291   5.040   8.920 -0.1876 -0.0202 -0.3509
  431MOL0     C56799   0.149   4.992   8.902  0.5817  0.1705  0.0243
  431MOL0     C56800   0.068   5.019   9.027  0.3576 -0.3355  0.3244
  431MOL0     C56801  -0.083   5.008   8.992 -0.3288  0.3526  0.0600
  431MOL0     C56802  -0.154   5.030   9.126 -0.3315 -1.6625 -0.4381
  431MOL0     C56803  -0.301   5.050   9.110 -1.1554 -0.0114  0.2623
  431MOL0    Cl56804  -0.335   5.223   9.065  0.2109  0.2843 -0.1559
  431MOL0     C56805   0.764   5.070   9.036  0.0317 -0.2397  0.7497
  431MOL0     C56806   0.889   5.099   9.090 -0.0062 -0.3312 -0.2112
  431MOL0     O56807   1.146   5.359   8.993 -0.1516  0.0068 -0.5243
  431MOL0     C56808   1.388   5.384   9.119  0.0580  0.6887 -0.4233
  431MOL0     C56809   1.509   5.410   9.188  0.4858 -0.1927 -0.3812
  431MOL0     N56810   2.081   5.590   9.426 -0.2735  0.6070 -0.4250
  431MOL0     N56811   2.168   5.679   9.469 -0.7440  0.2591 -0.4477
  431MOL0     C56812   3.557   5.960   9.457  0.4373  0.4782  0.2668
  431MOL0     C56813   3.686   5.906   9.459 -0.6896  0.7729 -0.3049
  431MOL0     C56814   4.075   5.729   9.666 -0.2548  0.2001  0.0989
  431MOL0     C56815   4.084   5.629   9.564  1.0627  0.1079  0.4992
  431MOL0     C56816   4.201   5.546   9.555  0.0347 -0.0178 -0.2434
  431MOL0     C56817   4.298   5.549   9.647 -0.2514 -0.4101 -0.5802
  431MOL0     O56818   4.398   5.456   9.628  0.0161 -0.2687  0.0746
  431MOL0     C56819   4.516   5.466   9.714 -0.8342  0.4690  0.2246
  431MOL0     C56820   4.633   5.372   9.672 -0.0002 -0.4785 -0.2675
  431MOL0     C56821   4.668   5.359   9.525  0.0236 -0.7958  0.0125
  431MOL0     C56822   4.795   5.284   9.505  0.5468  0.1546 -0.4664
  431MOL0     C56823   4.805   5.249   9.358 -0.1448 -0.8888 -0.6751
  431MOL0     C56824   4.827   5.260   9.240  0.3362 -0.2846 -0.1208
  431MOL0     C56825   4.286   5.640   9.758  0.4461  0.8974  0.5428
  431MOL0     C56826   4.183   5.741   9.761 -0.0582  0.4087  0.2570
  431MOL0     H56827   3.713   5.881   9.796 -0.6091  1.8440 -0.9368
  431MOL0     H56828   3.479   5.933   9.785  0.8368  0.2697  1.4324
  431MOL0     H56829   3.243   5.884   9.693  0.1301 -0.1149 -0.3955
  431MOL0     H56830   3.262   5.803   9.537  0.9213 -0.2832 -0.5201
  431MOL0     H56831   3.122   5.987   9.426  0.4260  1.5362  0.1476
  431MOL0     H56832   3.070   6.039   9.593  0.8816  0.2835  0.1410
  431MOL0     H56833   2.984   5.814   9.636  3.2945  2.6387  1.3444
  431MOL0     H56834   3.022   5.766   9.476  1.4362 -0.1200 -0.0341
  431MOL0     H56835   2.831   5.990   9.562  2.9353  1.8327 -0.1318
  431MOL0     H56836   2.880   5.965   9.396 -0.6658 -0.1967 -0.3323
  431MOL0     H56837   2.753   5.763   9.583  0.8307 -0.0266 -0.1822
  431MOL0     H56838   2.810   5.727   9.405 -0.0828  2.6780 -3.8647
  431MOL0     H56839   2.632   5.868   9.328  3.1573 -1.4840 -0.3619
  431MOL0     H56840   2.591   5.916   9.505 -1.2239  0.8971 -1.0262
  431MOL0     H56841   2.548   5.669   9.343  0.1529  0.9620 -0.2736
  431MOL0     H56842   2.513   5.680   9.525  0.3567  1.9974  0.8804
  431MOL0     H56843   2.389   5.853   9.308 -0.2033  1.9019  0.8752
  431MOL0     H56844   2.346   5.850   9.473  0.0117  0.3035 -0.8239
  431MOL0     H56845   2.320   5.573   9.202 -1.6478 -0.1548 -0.1894
  431MOL0     H56846   2.187   5.364   9.211  1.8126  4.0715 -3.9609
  431MOL0     H56847   2.063   5.446   9.127 -3.6255 -1.8089  0.3846
  431MOL0     H56848   2.003   5.301   9.385 -3.2974 -0.9129  0.0548
  431MOL0     H56849   1.969   5.252   9.217  1.5321  0.3855 -0.3451
  431MOL0     H56850   1.861   5.503   9.364 -0.1744 -1.2625  0.6290
  431MOL0     H56851   1.834   5.449   9.193  2.9025 -0.1482 -0.8148
  431MOL0     H56852   1.797   5.284   9.466  1.1417 -1.1481 -1.0417
  431MOL0     H56853   1.734   5.228   9.307  0.9126 -1.0399  1.3073
  431MOL0     H56854   1.421   5.256   9.484 -1.2824  0.1725 -0.8124
  431MOL0     H56855   1.221   5.205   9.345  0.2696 -0.2221  0.4938
  431MOL0     H56856   0.905   5.430   9.028  0.1409 -0.1865 -0.9892
  431MOL0     H56857   0.666   5.379   8.941 -0.9270 -1.5638  0.4461
  431MOL0     H56858   0.588   4.964   8.861 -0.7771  0.1143  1.5382
  431MOL0     H56859   0.558   5.099   8.745 -0.4998 -0.0844 -0.2248
  431MOL0     H56860   0.385   4.899   8.790  0.3067 -0.9940  2.9095
  431MOL0     H56861   0.350   5.055   8.718  0.7090 -1.1493 -0.9956
  431MOL0     H56862   0.293   5.146   8.946  1.6214 -0.6415  2.4716
  431MOL0     H56863   0.338   4.995   9.007 -3.9092 -0.9539  1.3941
  431MOL0     H56864   0.101   5.060   8.831 -3.0953  1.1770  3.1423
  431MOL0     H56865   0.144   4.887   8.873  1.1794 -0.2411  1.3662
  431MOL0     H56866   0.090   5.118   9.066  2.8024 -1.7150  2.7648
  431MOL0     H56867   0.096   4.950   9.107  4.2104 -0.8229 -1.2153
  431MOL0     H56868  -0.097   4.906   8.955  2.5811 -0.2569  0.3894
  431MOL0     H56869  -0.114   5.081   8.917 -0.2431  0.2985 -0.0285
  431MOL0     H56870  -0.136   4.942   9.189  1.4546 -0.4121  0.8980
  431MOL0     H56871  -0.114   5.117   9.180 -2.1400 -1.0898  0.0432
  431MOL0     H56872  -0.351   5.034   9.205 -0.1425 -0.5214  0.7229
  431MOL0     H56873  -0.337   4.979   9.035 -1.0484  1.1580 -0.9392
  431MOL0     H56874   0.725   4.969   9.035 -1.1630  0.1638 -1.1973
  431MOL0     H56875   0.964   5.025   9.116  0.2201 -0.9759 -2.5084
  431MOL0     H56876   1.388   5.427   9.019 -1.6206  0.3861 -0.5866
  431MOL0     H56877   1.588   5.468   9.142  0.1245  2.1027  1.6511
  431MOL0     H56878   3.520   5.983   9.358  3.0694 -2.2415 -1.5396
  431MOL0     H56879   3.746   5.889   9.370 -0.9515 -0.8870 -0.1868
  431MOL0     H56880   4.005   5.623   9.491 -2.8628  2.2552  4.1545
  431MOL0     H56881   4.216   5.480   9.470  0.3943 -2.0991  1.3614
  431MOL0     H56882   4.484   5.459   9.819  0.9123  5.3103  1.3571
  431MOL0     H56883   4.555   5.568   9.715  3.0937 -0.8745 -0.8368
  431MOL0     H56884   4.717   5.395   9.739 -0.8958 -2.3011  1.5696
  431MOL0     H56885   4.595   5.272   9.691 -0.9409 -0.8609 -3.4870
  431MOL0     H56886   4.679   5.459   9.482 -0.7965 -1.1317 -1.0072
  431MOL0     H56887   4.581   5.316   9.475 -1.2189  0.4844  0.9984
  431MOL0     H56888   4.877   5.353   9.527  0.5828  1.4666 -4.0760
  431MOL0     H56889   4.806   5.199   9.574  1.1121  0.5203 -0.0982
  431MOL0     H56890   4.842   5.288   9.138  0.2910  1.2943  0.2851
  431MOL0     H56891   4.344   5.646   9.849 -2.8072 -1.3494  2.9855
  431MOL0     H56892   4.179   5.811   9.843 -0.4218  2.7232 -1.6307
  432MOL0     O56893   4.877   5.724   8.844 -0.2721 -0.0751 -0.1059
  432MOL0     C56894   4.926   5.693   8.952  0.4038  0.3239  1.0166
  432MOL0     O56895   4.876   5.722   9.075  0.6554  0.6166  0.2355
  432MOL0     C56896   4.740   5.733   9.092  0.1319 -0.6850  1.5951
  432MOL0     C56897   4.670   5.634   9.164 -0.3521 -0.5906  0.7388
  432MOL0     C56898   4.536   5.655   9.181 -0.3734 -0.7932  0.2885
  432MOL0     C56899   4.469   5.751   9.115  0.1389 -0.1763  0.5498
  432MOL0     O56900   4.334   5.769   9.125  0.0343  0.3507 -0.1585
  432MOL0     C56901   4.263   5.752   9.248 -0.6445  0.4286  0.3513
  432MOL0     C56902   4.138   5.822   9.243 -0.7582 -1.0925  0.8716
  432MOL0     C56903   4.142   5.981   9.254 -0.2463  0.3560  0.3312
  432MOL0     C56904   4.008   6.046   9.256 -0.8435  0.1593  0.2592
  432MOL0     C56905   3.987   6.193   9.233  0.0390  0.3548  0.0573
  432MOL0     C56906   3.842   6.223   9.183  0.5234  0.1497 -0.9584
  432MOL0     C56907   3.809   6.364   9.172  0.0295  0.3583 -0.8979
  432MOL0     C56908   3.849   6.471   9.273  0.3388 -0.1072  0.1916
  432MOL0     N56909   3.823   6.607   9.217  0.6440  0.4851 -0.2527
  432MOL0     C56910   3.704   6.644   9.167 -0.6104  0.7472 -0.4703
  432MOL0     C56911   3.730   6.766   9.116  0.2627  0.7977 -0.2154
  432MOL0     C56912   3.632   6.848   9.039 -0.0798 -0.6775  0.0869
  432MOL0     C56913   3.494   6.880   9.106 -0.8064  0.1460  0.5594
  432MOL0     C56914   3.508   6.881   9.256  0.5159 -0.4283 -0.2741
  432MOL0     C56915   3.392   6.957   9.333  0.3311  1.0693 -0.3314
  432MOL0     O56916   3.270   6.884   9.309 -0.2504 -0.2714  0.5022
  432MOL0     C56917   3.151   6.931   9.364 -0.1553 -0.3749 -0.0942
  432MOL0     C56918   3.138   7.034   9.463  0.4588  0.4760 -0.4603
  432MOL0     C56919   3.011   7.085   9.503 -0.5671  0.4794 -0.2507
  432MOL0     C56920   2.900   7.033   9.443  0.0760 -0.6850  0.2196
  432MOL0     C56921   2.762   7.072   9.492 -0.4335 -0.4623 -0.5087
  432MOL0     O56922   2.663   7.028   9.403  0.2156  0.2705 -0.5398
  432MOL0     C56923   2.534   7.062   9.412 -0.0352 -0.6766 -0.4744
  432MOL0     C56924   2.491   7.201   9.409  0.4035  0.1459  0.3960
  432MOL0     C56925   2.353   7.224   9.388 -0.1981 -0.2034  0.4018
  432MOL0     C56926   2.255   7.131   9.392  0.1261 -0.0102 -0.1125
  432MOL0     O56927   2.119   7.151   9.378  0.3057 -0.5197 -0.6396
  432MOL0     C56928   2.070   7.283   9.426 -0.3551  0.0183  0.5365
  432MOL0     C56929   1.948   7.270   9.515 -0.1771 -0.1416  0.2794
  432MOL0     C56930   1.824   7.247   9.436  0.9483 -1.3956 -0.1022
  432MOL0     C56931   1.710   7.189   9.520 -0.2237 -0.0425 -0.3582
  432MOL0     C56932   1.604   7.120   9.431 -0.1514  0.1379 -0.5994
  432MOL0     C56933   1.463   7.134   9.486  0.3051 -0.1670  0.4708
  432MOL0     C56934   1.436   7.063   9.635 -0.1542 -1.1038  0.0928
  432MOL0     C56935   1.288   7.073   9.691 -0.2544 -0.3423  0.0866
  432MOL0    Cl56936   1.238   7.252   9.703 -0.3268  0.4248 -0.0090
  432MOL0     C56937   2.299   6.999   9.395  0.1720  0.6739 -0.4831
  432MOL0     C56938   2.432   6.967   9.399 -0.2455  0.6029  0.0601
  432MOL0     O56939   2.744   7.129   9.598  0.3998  0.6848  0.6295
  432MOL0     C56940   2.903   6.935   9.344  0.0464 -0.3502  0.9057
  432MOL0     C56941   3.029   6.887   9.303  0.1677  0.3293  0.8714
  432MOL0     N56942   3.860   6.787   9.121  0.7135  0.0340  0.5698
  432MOL0     N56943   3.923   6.690   9.173  0.0617 -0.1630 -0.5618
  432MOL0     C56944   4.530   5.840   9.033 -0.2980 -0.1418  0.2158
  432MOL0     C56945   4.667   5.831   9.015  0.8655  0.0705 -0.6355
  432MOL0     C56946   5.067   5.639   8.951  0.0346  0.7370  0.1080
  432MOL0     C56947   5.111   5.562   8.834 -0.3312 -0.2913 -0.5934
  432MOL0     C56948   5.242   5.514   8.825  0.6017 -0.3584 -0.4529
  432MOL0     C56949   5.317   5.534   8.947 -0.2149  0.3393 -0.4275
  432MOL0     O56950   5.440   5.466   8.950  0.1444 -0.1772  1.2551
  432MOL0     C56951   5.525   5.461   9.056  0.2581 -0.2101 -0.2800
  432MOL0     C56952   5.473   5.374   9.171 -1.2587 -0.0349  1.1651
  432MOL0     C56953   5.480   5.222   9.125  0.4310 -1.0451 -0.1832
  432MOL0     C56954   5.445   5.144   9.250 -0.0870  0.0870 -0.6509
  432MOL0     C56955   5.301   5.179   9.285  0.0361 -0.6610  0.4362
  432MOL0     C56956   5.188   5.214   9.318 -0.0945 -1.3243 -0.4721
  432MOL0     C56957   5.279   5.614   9.056 -0.7128  1.0111  0.1544
  432MOL0     C56958   5.155   5.672   9.054 -0.6100 -0.8377 -0.7436
  432MOL0     H56959   4.732   5.558   9.211 -1.2230 -0.1907  2.5964
  432MOL0     H56960   4.491   5.583   9.249  1.1431 -1.0947  1.0373
  432MOL0     H56961   4.323   5.779   9.335  1.2418  2.4359 -1.4535
  432MOL0     H56962   4.240   5.645   9.256 -1.6057  0.4968 -1.2116
  432MOL0     H56963   4.077   5.774   9.321  1.5409 -1.5871  2.4745
  432MOL0     H56964   4.106   5.803   9.140  2.9583  3.1010 -1.4043
  432MOL0     H56965   4.193   6.013   9.162 -1.4547  1.1246 -0.0863
  432MOL0     H56966   4.197   6.014   9.343  0.7675 -0.1072 -0.1035
  432MOL0     H56967   3.945   6.010   9.173 -3.1336  2.8997  0.6341
  432MOL0     H56968   3.942   6.008   9.335 -0.4405 -0.1451  0.4527
  432MOL0     H56969   4.058   6.230   9.159 -1.6402  0.1767 -1.7079
  432MOL0     H56970   3.998   6.240   9.332 -1.7512  0.6643  0.1419
  432MOL0     H56971   3.764   6.190   9.252 -0.9840  1.7527 -1.8316
  432MOL0     H56972   3.829   6.174   9.087 -2.9180  0.4226 -0.7514
  432MOL0     H56973   3.845   6.401   9.076  1.1983 -0.1326 -0.6652
  432MOL0     H56974   3.701   6.358   9.161 -0.1698  0.2313  0.7859
  432MOL0     H56975   3.956   6.461   9.291 -0.1217 -0.1276  3.6915
  432MOL0     H56976   3.793   6.463   9.367  2.8207 -2.4797  1.6117
  432MOL0     H56977   3.614   6.584   9.151 -0.3190  0.5430 -1.4236
  432MOL0     H56978   3.621   6.808   8.938 -0.3162  0.4397 -0.3404
  432MOL0     H56979   3.670   6.947   9.014  0.1951 -0.8328 -0.1132
  432MOL0     H56980   3.432   6.795   9.077 -0.1871  0.0800 -0.6229
  432MOL0     H56981   3.453   6.973   9.065 -0.5768 -0.3087 -0.7351
  432MOL0     H56982   3.519   6.778   9.292  1.9368 -0.7791 -1.5717
  432MOL0     H56983   3.595   6.939   9.288 -0.5777  1.0300  0.1483
  432MOL0     H56984   3.392   7.061   9.301  1.7503  1.2010  0.0058
  432MOL0     H56985   3.412   6.963   9.441 -3.6313  0.3106  0.6011
  432MOL0     H56986   3.226   7.075   9.513  1.5069 -1.5837 -0.4895
  432MOL0     H56987   3.023   7.167   9.574  5.1085 -1.0879  1.1043
  432MOL0     H56988   2.553   7.290   9.417 -0.1979  0.9206 -2.3411
  432MOL0     H56989   2.321   7.328   9.382  3.5180  1.3184  3.0887
  432MOL0     H56990   2.029   7.343   9.344 -2.1653  0.4947  1.7357
  432MOL0     H56991   2.148   7.339   9.479 -0.2125 -1.0724  1.5058
  432MOL0     H56992   1.943   7.361   9.575  1.9412  0.1819  0.0414
  432MOL0     H56993   1.963   7.184   9.581 -0.4434 -0.3009  0.1339
  432MOL0     H56994   1.850   7.186   9.349  0.9156  2.2813 -2.9065
  432MOL0     H56995   1.789   7.346   9.406 -0.5362 -1.7577  0.3426
  432MOL0     H56996   1.742   7.113   9.592  0.4354 -1.1316 -1.7485
  432MOL0     H56997   1.671   7.279   9.570  3.3252  1.6549 -0.3111
  432MOL0     H56998   1.632   7.015   9.418  2.8843  0.9836 -1.7260
  432MOL0     H56999   1.608   7.170   9.334  0.7565 -0.2937 -0.7952
  432MOL0     H57000   1.391   7.104   9.410 -2.3453 -0.8686  3.0747
  432MOL0     H57001   1.439   7.238   9.510 -0.1973 -1.0080  4.3721
  432MOL0     H57002   1.449   6.958   9.611 -0.4267 -1.0802 -0.1593
  432MOL0     H57003   1.509   7.098   9.708  0.7674  0.0091 -1.2956
  432MOL0     H57004   1.282   7.043   9.796  3.7160  1.8941  1.1639
  432MOL0     H57005   1.216   7.024   9.625  0.5330  0.1149 -1.1381
  432MOL0     H57006   2.232   6.915   9.383  0.9924  0.1740 -1.8484
  432MOL0     H57007   2.451   6.860   9.398  0.7272  0.7525  1.0678
  432MOL0     H57008   2.814   6.886   9.306  0.0521  0.0459  0.3682
  432MOL0     H57009   3.051   6.819   9.222  1.0124 -0.1747  1.5081
  432MOL0     H57010   4.484   5.923   8.982 -1.7137 -0.6862  0.5614
  432MOL0     H57011   4.711   5.909   8.953  0.4931  0.8031  0.0031
  432MOL0     H57012   5.044   5.534   8.752  1.1066 -0.2738 -1.8163
  432MOL0     H57013   5.273   5.457   8.738 -2.5075  0.6332 -2.3936
  432MOL0     H57014   5.556   5.562   9.083 -1.6422  0.4635 -0.4964
  432MOL0     H57015   5.616   5.421   9.010 -0.0905  0.4334 -1.5971
  432MOL0     H57016   5.548   5.374   9.251  0.6331  0.7141 -0.5064
  432MOL0     H57017   5.379   5.419   9.203 -1.8177 -0.8706  0.7405
  432MOL0     H57018   5.580   5.200   9.088  1.6760  1.9017  1.1114
  432MOL0     H57019   5.415   5.196   9.041  1.3816 -1.6250 -0.7591
  432MOL0     H57020   5.460   5.038   9.232 -0.0489  0.3589 -2.3619
  432MOL0     H57021   5.512   5.171   9.332 -0.7450  0.3567 -0.1845
  432MOL0     H57022   5.086   5.245   9.333  0.8169  2.6022 -1.2318
  432MOL0     H57023   5.347   5.632   9.139 -0.5832  3.3386 -0.3903
  432MOL0     H57024   5.119   5.736   9.134  1.2726 -1.3956  0.6244
  433MOL0     O57025  10.138   6.919   4.037 -0.8698 -0.7495  0.2533
  433MOL0     C57026  10.219   6.852   3.970  0.2986  0.5441  0.9112
  433MOL0     O57027  10.187   6.759   3.879 -0.3150 -0.3318 -0.2713
  433MOL0     C57028  10.067   6.744   3.835  0.5738  0.6655 -0.2283
  433MOL0     C57029   9.967   6.844   3.806 -1.8039 -0.1543  0.7730
  433MOL0     C57030   9.838   6.805   3.793  0.3137 -0.1710 -0.3172
  433MOL0     C57031   9.795   6.675   3.787 -0.0038 -0.5793  0.6223
  433MOL0     O57032   9.663   6.648   3.775 -0.0974 -0.1976 -0.0838
  433MOL0     C57033   9.616   6.528   3.706 -0.3639  0.2201 -0.6875
  433MOL0     C57034   9.461   6.534   3.702  0.6537  0.6606 -0.0866
  433MOL0     C57035   9.397   6.631   3.593  0.0872 -0.8065  0.6520
  433MOL0     C57036   9.415   6.600   3.442  0.2800  0.1542 -0.7788
  433MOL0     C57037   9.338   6.708   3.358 -0.0740 -0.3708  0.3866
  433MOL0     C57038   9.358   6.678   3.217 -1.0593 -0.0219  0.2216
  433MOL0     C57039   9.282   6.778   3.128 -0.4107 -0.3414 -0.4084
  433MOL0     C57040   9.364   6.902   3.103  0.3100 -0.5635  0.0538
  433MOL0     N57041   9.286   7.006   3.028  0.8698 -0.3913  1.0340
  433MOL0     C57042   9.284   7.011   2.890 -0.1236 -0.6652 -0.1479
  433MOL0     C57043   9.228   7.126   2.859  0.5555  0.4753 -0.4899
  433MOL0     C57044   9.203   7.182   2.732  1.4174 -0.5043  0.3280
  433MOL0     C57045   9.049   7.170   2.688  0.1337  0.2891 -0.7702
  433MOL0     C57046   9.027   7.202   2.544 -0.8793 -0.7371 -0.6265
  433MOL0     C57047   8.879   7.202   2.518 -0.0979 -0.2628 -0.0932
  433MOL0     O57048   8.810   7.090   2.571  0.1241  0.3709 -0.6418
  433MOL0     C57049   8.680   7.081   2.539 -0.4513 -0.9610  0.4699
  433MOL0     C57050   8.623   6.960   2.571  0.2399 -0.1885 -0.2887
  433MOL0     C57051   8.486   6.939   2.548 -0.0479  0.2038 -0.3016
  433MOL0     C57052   8.412   7.030   2.476 -0.4226  0.0969 -0.1266
  433MOL0     C57053   8.274   6.987   2.429 -0.6593  0.3018 -0.7577
  433MOL0     O57054   8.207   6.903   2.503  0.7707 -0.7030  0.3631
  433MOL0     C57055   8.083   6.856   2.465  0.4335 -0.4637 -0.8846
  433MOL0     C57056   7.983   6.847   2.553 -0.6099  0.5211  0.2722
  433MOL0     C57057   7.859   6.801   2.523  0.1875  0.1166  0.6530
  433MOL0     C57058   7.829   6.751   2.399 -0.0437  0.8948 -0.0222
  433MOL0     O57059   7.707   6.703   2.367  0.3049  0.2185 -0.0079
  433MOL0     C57060   7.631   6.646   2.460  0.5139  0.6139  0.0447
  433MOL0     C57061   7.517   6.555   2.407 -0.5998 -0.0854 -0.0867
  433MOL0     C57062   7.404   6.639   2.338 -0.5258  0.4941  0.0409
  433MOL0     C57063   7.273   6.564   2.332 -1.5595  0.4070 -0.0186
  433MOL0     C57064   7.173   6.627   2.235 -0.5307 -0.4179 -0.1460
  433MOL0     C57065   7.021   6.607   2.262 -0.3502  0.3553 -0.4773
  433MOL0     C57066   6.948   6.668   2.144  0.1922  0.0752 -0.5219
  433MOL0     C57067   6.798   6.678   2.181 -0.2830 -0.3704  0.8077
  433MOL0    Cl57068   6.730   6.517   2.222  0.0324 -0.3337  0.4877
  433MOL0     C57069   7.930   6.759   2.303  0.3381 -0.3174  0.8485
  433MOL0     C57070   8.059   6.813   2.336  0.7917  0.4323 -0.1353
  433MOL0     O57071   8.232   7.042   2.329 -0.5878  0.0572  0.7053
  433MOL0     C57072   8.473   7.149   2.435  1.1767  0.3498  0.5155
  433MOL0     C57073   8.602   7.178   2.472  0.2930 -0.1725  0.9684
  433MOL0     N57074   9.195   7.196   2.980  0.5769 -0.5424  0.2536
  433MOL0     N57075   9.248   7.128   3.076  0.1726  0.0110 -0.2719
  433MOL0     C57076   9.899   6.577   3.798 -0.1115  0.5231  0.0506
  433MOL0     C57077  10.029   6.612   3.838  0.5105  0.3958  0.7057
  433MOL0     C57078  10.361   6.867   4.004 -0.2413 -0.2753  0.2738
  433MOL0     C57079  10.456   6.763   3.982 -0.0626 -0.7453 -0.2448
  433MOL0     C57080  10.587   6.794   4.011 -0.8015  0.1114 -0.0845
  433MOL0     C57081  10.636   6.921   4.060 -0.4316 -0.8547 -0.0467
  433MOL0     O57082  10.760   6.955   4.093  0.2946 -0.1964  0.1078
  433MOL0     C57083  10.866   6.860   4.097  0.2304 -0.3378 -0.4215
  433MOL0     C57084  10.985   6.923   4.025 -0.8881 -0.1267  1.1802
  433MOL0     C57085  11.093   6.809   3.997 -0.2066  0.0384 -0.2010
  433MOL0     C57086  11.195   6.789   4.115 -0.1069 -0.2437 -0.4141
  433MOL0     C57087  11.298   6.901   4.126 -0.0852 -0.3927 -0.0110
  433MOL0     C57088  11.389   6.987   4.126  0.2048  0.1933  0.6767
  433MOL0     C57089  10.537   7.015   4.085  0.9019  0.0567 -0.1125
  433MOL0     C57090  10.408   6.992   4.055  0.1156  0.8079  0.0597
  433MOL0     H57091  10.009   6.944   3.802 -1.5163 -0.3159 -1.1643
  433MOL0     H57092   9.755   6.874   3.790  0.2185 -0.2377  0.4780
  433MOL0     H57093   9.655   6.444   3.764 -0.5934 -1.2124 -2.5197
  433MOL0     H57094   9.666   6.517   3.609  3.2931 -1.7176  1.2435
  433MOL0     H57095   9.421   6.556   3.801 -5.9686  0.0954 -2.1085
  433MOL0     H57096   9.429   6.431   3.686  0.3486  0.8758 -0.9182
  433MOL0     H57097   9.435   6.732   3.612  2.0924 -1.3173 -0.3781
  433MOL0     H57098   9.289   6.647   3.604 -0.1390  1.8673 -3.4544
  433MOL0     H57099   9.519   6.586   3.411  0.8156 -2.1876  1.7256
  433MOL0     H57100   9.370   6.501   3.430 -2.9044  1.2174  1.2131
  433MOL0     H57101   9.365   6.810   3.388  2.2278 -0.4561 -1.0937
  433MOL0     H57102   9.232   6.702   3.385 -0.1818  1.6480  0.5872
  433MOL0     H57103   9.326   6.574   3.210 -0.6715 -0.0578 -1.3568
  433MOL0     H57104   9.464   6.675   3.189 -1.0787  2.5169 -0.4569
  433MOL0     H57105   9.261   6.735   3.030 -0.3852 -0.1995 -0.4767
  433MOL0     H57106   9.187   6.804   3.175  0.5188 -0.0244  1.3754
  433MOL0     H57107   9.447   6.862   3.044 -0.4206 -0.8718 -0.7796
  433MOL0     H57108   9.399   6.946   3.197 -2.2216  0.9430  0.4007
  433MOL0     H57109   9.326   6.937   2.822  0.7294  0.5748 -1.0114
  433MOL0     H57110   9.271   7.132   2.662  2.7448  1.3695  0.1787
  433MOL0     H57111   9.231   7.288   2.733  4.2028 -1.0269 -2.7366
  433MOL0     H57112   8.999   7.238   2.759  3.0517  0.5744  1.2126
  433MOL0     H57113   9.016   7.069   2.711 -0.7309  0.5133 -1.0132
  433MOL0     H57114   9.071   7.301   2.528  0.6773 -0.8538  2.2909
  433MOL0     H57115   9.091   7.131   2.491  1.9161  0.5523  0.7955
  433MOL0     H57116   8.863   7.209   2.410 -1.0282 -2.5132 -0.1626
  433MOL0     H57117   8.842   7.296   2.560  0.9372  0.1854 -0.1501
  433MOL0     H57118   8.697   6.892   2.612  0.3413  0.5895  0.8845
  433MOL0     H57119   8.438   6.845   2.573 -1.5754  1.1236  0.4234
  433MOL0     H57120   8.019   6.865   2.654  1.2242 -1.9040  0.1272
  433MOL0     H57121   7.790   6.794   2.606  0.5668 -1.8817  0.8662
  433MOL0     H57122   7.588   6.721   2.527 -0.1483 -1.4554  2.0934
  433MOL0     H57123   7.700   6.586   2.520  2.6324  2.0607 -0.8301
  433MOL0     H57124   7.475   6.505   2.494  2.1571  0.4150  1.6492
  433MOL0     H57125   7.562   6.476   2.346  0.1313  0.4235 -0.2163
  433MOL0     H57126   7.440   6.645   2.235 -1.6652 -2.0770 -0.5682
  433MOL0     H57127   7.385   6.739   2.378 -0.8095 -0.9980  4.0737
  433MOL0     H57128   7.293   6.462   2.300  0.8233 -0.0751  2.6066
  433MOL0     H57129   7.226   6.569   2.431  2.7886  0.4767  2.3097
  433MOL0     H57130   7.201   6.588   2.137 -0.7193 -0.4240 -0.1975
  433MOL0     H57131   7.194   6.735   2.234 -0.2619 -0.4499 -2.1881
  433MOL0     H57132   6.999   6.643   2.363  2.2309 -0.9329  0.6293
  433MOL0     H57133   6.999   6.500   2.260  1.5015 -0.0612 -0.0505
  433MOL0     H57134   6.981   6.768   2.114 -0.5756  0.7733  0.8918
  433MOL0     H57135   6.961   6.595   2.063  0.9541 -2.9423  2.1450
  433MOL0     H57136   6.739   6.713   2.095 -0.0747  3.0642  1.9082
  433MOL0     H57137   6.771   6.755   2.254  0.0182  0.3640  0.1585
  433MOL0     H57138   7.917   6.739   2.198  2.9147 -1.1542  0.6229
  433MOL0     H57139   8.134   6.821   2.258  0.6296 -1.6142 -0.5549
  433MOL0     H57140   8.414   7.220   2.378  0.4753  0.1349  0.9603
  433MOL0     H57141   8.649   7.274   2.450  1.5808 -1.1462 -0.8188
  433MOL0     H57142   9.869   6.473   3.806  0.6201  0.2975 -0.0657
  433MOL0     H57143  10.100   6.534   3.864 -0.6376 -1.0635 -0.4053
  433MOL0     H57144  10.419   6.666   3.950 -2.5928  0.1095 -0.1384
  433MOL0     H57145  10.662   6.716   4.010 -0.2851  0.5616  1.2701
  433MOL0     H57146  10.846   6.764   4.048  0.6822 -0.3995 -0.4873
  433MOL0     H57147  10.885   6.828   4.200 -4.3360 -2.8486 -0.0718
  433MOL0     H57148  10.942   6.956   3.930 -2.9060 -1.9150  1.4002
  433MOL0     H57149  11.032   7.005   4.082  0.3809 -1.3490  1.9664
  433MOL0     H57150  11.150   6.820   3.905 -0.4035 -1.6938 -0.5627
  433MOL0     H57151  11.040   6.713   3.990 -2.0195  0.8901  1.0978
  433MOL0     H57152  11.145   6.765   4.209 -3.0726 -3.0178 -2.4848
  433MOL0     H57153  11.255   6.703   4.083 -0.8212 -0.9805  0.1929
  433MOL0     H57154  11.461   7.066   4.134  1.8368 -1.3836  3.2268
  433MOL0     H57155  10.559   7.118   4.112  0.1807 -0.1190  1.2217
  433MOL0     H57156  10.324   7.060   4.048 -0.9924 -0.4798  0.3415
  434MOL0     O57157  10.703   9.393   4.153  0.4261 -0.2747 -0.0202
  434MOL0     C57158  10.778   9.301   4.109 -0.5126 -0.1647 -0.2517
  434MOL0     O57159  10.750   9.215   4.005  0.0006 -0.5218 -0.3556
  434MOL0     C57160  10.619   9.225   3.957 -0.2066 -0.2512 -0.9820
  434MOL0     C57161  10.588   9.338   3.877  0.2614  0.1431 -0.1062
  434MOL0     C57162  10.455   9.334   3.821  0.0626 -0.1680  0.5915
  434MOL0     C57163  10.364   9.234   3.837  0.2914  1.1053  0.6459
  434MOL0     O57164  10.236   9.244   3.776 -0.4486 -0.1316 -0.4868
  434MOL0     C57165  10.151   9.134   3.815 -0.5623 -0.0237 -0.6412
  434MOL0     C57166  10.007   9.142   3.782 -0.0898 -0.1082 -0.0092
  434MOL0     C57167   9.913   9.240   3.854  1.1259 -0.7691  0.3597
  434MOL0     C57168   9.764   9.220   3.815  0.2644  0.3183  0.1842
  434MOL0     C57169   9.692   9.113   3.892 -0.0973  0.9457 -0.0748
  434MOL0     C57170   9.576   9.060   3.809  0.3387 -0.0862  0.7466
  434MOL0     C57171   9.468   9.169   3.783  0.2113 -0.3636 -0.5365
  434MOL0     C57172   9.413   9.242   3.909  0.0208 -1.3764 -0.3372
  434MOL0     N57173   9.282   9.311   3.877  0.5535 -0.6520 -0.3309
  434MOL0     C57174   9.275   9.440   3.833  0.0064 -1.2757  0.2463
  434MOL0     C57175   9.147   9.453   3.791  0.5307  0.0333 -0.3481
  434MOL0     C57176   9.095   9.581   3.742  0.9763  0.3804  0.1019
  434MOL0     C57177   8.945   9.585   3.746  0.5439  0.4623  0.1735
  434MOL0     C57178   8.892   9.724   3.715  0.4498 -0.2962  0.4609
  434MOL0     C57179   8.737   9.746   3.720  0.1356 -0.2666  0.2902
  434MOL0     O57180   8.702   9.756   3.858  0.3211  0.7185 -0.0118
  434MOL0     C57181   8.571   9.798   3.876  0.2103  0.9705 -0.9997
  434MOL0     C57182   8.559   9.893   3.976  0.8369 -0.5258  0.1724
  434MOL0     C57183   8.431   9.943   4.001  0.0405  0.2630 -0.2126
  434MOL0     C57184   8.314   9.909   3.929 -0.0288  0.2513 -0.5366
  434MOL0     C57185   8.170   9.950   3.972  0.2085 -0.4228 -0.3135
  434MOL0     O57186   8.171  10.031   4.089 -0.1389  0.0775  1.6498
  434MOL0     C57187   8.053  10.074   4.141 -0.2913 -0.0793  0.5865
  434MOL0     C57188   7.929  10.005   4.155 -0.0512  0.1737 -0.0545
  434MOL0     C57189   7.819  10.058   4.222 -0.2819 -0.5115  1.4481
  434MOL0     C57190   7.835  10.179   4.285  0.3103 -0.6640  0.0714
  434MOL0     O57191   7.722  10.221   4.353  0.2046 -0.0851  0.4192
  434MOL0     C57192   7.720  10.344   4.425  0.3383 -0.5171  0.5314
  434MOL0     C57193   7.576  10.401   4.437  0.1391 -0.8299 -0.3798
  434MOL0     C57194   7.458  10.301   4.442 -0.6699  0.0490 -0.3168
  434MOL0     C57195   7.338  10.367   4.499  0.8843  0.5401 -0.3535
  434MOL0     C57196   7.221  10.263   4.481  0.2210  0.8210  0.3632
  434MOL0     C57197   7.097  10.319   4.547 -0.1038  0.4833 -0.6913
  434MOL0     C57198   6.971  10.235   4.509  0.6154  0.7258 -0.4153
  434MOL0     C57199   6.989  10.089   4.551  0.0198  0.1314 -0.2044
  434MOL0    Cl57200   6.837  10.007   4.501  0.3841  0.1286 -0.5371
  434MOL0     C57201   7.964  10.241   4.287 -0.1657  0.1821  0.7026
  434MOL0     C57202   8.067  10.190   4.211 -0.6326 -0.1961 -0.9458
  434MOL0     O57203   8.077   9.913   3.906  0.4568 -0.5496 -0.0808
  434MOL0     C57204   8.334   9.816   3.829 -0.3167 -0.5699  0.0601
  434MOL0     C57205   8.461   9.752   3.805 -0.3066  0.2379 -0.4709
  434MOL0     N57206   9.071   9.333   3.821  0.0145 -0.1470  0.5681
  434MOL0     N57207   9.157   9.254   3.884 -0.3211  0.0272 -0.3524
  434MOL0     C57208  10.410   9.121   3.913 -0.4928 -0.5097 -0.0778
  434MOL0     C57209  10.534   9.125   3.974  0.2219  0.6185 -0.4162
  434MOL0     C57210  10.908   9.280   4.181 -0.3396 -0.8185  0.5267
  434MOL0     C57211  10.946   9.370   4.274  0.0296  0.0062 -1.0649
  434MOL0     C57212  11.071   9.367   4.344 -0.1151  0.1438 -0.0736
  434MOL0     C57213  11.168   9.271   4.307  0.6694  0.5136 -0.3461
  434MOL0     O57214  11.291   9.275   4.359 -0.2177  0.1832  0.2730
  434MOL0     C57215  11.390   9.171   4.331  0.5305 -2.0703  0.3108
  434MOL0     C57216  11.388   9.063   4.438 -0.1130  0.8338 -0.0716
  434MOL0     C57217  11.492   8.948   4.415 -1.0105  0.2210  0.6195
  434MOL0     C57218  11.461   8.849   4.302 -0.0836  0.3257  0.6607
  434MOL0     C57219  11.322   8.803   4.298  0.2399  0.1660  0.2969
  434MOL0     C57220  11.213   8.760   4.292  0.1222 -0.1480  0.1526
  434MOL0     C57221  11.136   9.166   4.214  0.2626  0.7022 -0.1957
  434MOL0     C57222  11.007   9.177   4.158  0.0978  0.3399  0.7042
  434MOL0     H57223  10.658   9.413   3.841  0.6342 -0.9027 -1.6888
  434MOL0     H57224  10.429   9.437   3.799  3.5933  1.1682  2.0257
  434MOL0     H57225  10.161   9.127   3.924  3.5854 -2.9028 -1.0008
  434MOL0     H57226  10.200   9.042   3.781 -1.5483 -1.2630  1.1128
  434MOL0     H57227   9.962   9.043   3.789 -0.3717  0.1138  1.8950
  434MOL0     H57228  10.001   9.173   3.678 -0.5020 -0.9044 -0.2279
  434MOL0     H57229   9.941   9.343   3.828 -0.0400 -0.9782 -2.0055
  434MOL0     H57230   9.913   9.226   3.963 -1.1985 -0.5683  0.4494
  434MOL0     H57231   9.697   9.307   3.812 -2.2358 -1.4766 -2.2415
  434MOL0     H57232   9.772   9.188   3.711  2.6768  0.1293  0.3820
  434MOL0     H57233   9.658   9.157   3.987 -0.1194 -2.1723  1.5136
  434MOL0     H57234   9.757   9.027   3.911  2.4257  2.5696 -0.9297
  434MOL0     H57235   9.539   8.969   3.859 -1.8998  1.1027  1.4100
  434MOL0     H57236   9.611   9.027   3.711 -1.1214 -1.3218  0.6108
  434MOL0     H57237   9.511   9.244   3.717 -1.6503  0.5730 -0.7471
  434MOL0     H57238   9.390   9.110   3.733 -0.1424 -0.1080 -0.2910
  434MOL0     H57239   9.483   9.324   3.929 -0.8854 -0.3931 -1.0258
  434MOL0     H57240   9.390   9.179   3.995 -0.3769  0.0254  0.6303
  434MOL0     H57241   9.356   9.513   3.834  0.7409 -2.0403  2.1195
  434MOL0     H57242   9.118   9.586   3.635 -0.7549 -0.9484 -0.3780
  434MOL0     H57243   9.135   9.656   3.811  3.8705 -0.2435 -0.7622
  434MOL0     H57244   8.917   9.567   3.850  0.7339  1.1061  0.3423
  434MOL0     H57245   8.903   9.510   3.678 -2.2247  1.6155  0.4756
  434MOL0     H57246   8.936   9.795   3.786 -1.7067  3.9057 -1.9800
  434MOL0     H57247   8.918   9.754   3.614  0.3161 -0.1294  0.4758
  434MOL0     H57248   8.687   9.673   3.657  0.8140 -0.2441 -0.2894
  434MOL0     H57249   8.708   9.844   3.680 -2.0834 -0.5874  1.0208
  434MOL0     H57250   8.647   9.927   4.029 -0.4204  2.1616  0.7487
  434MOL0     H57251   8.421  10.013   4.084  2.4303  0.4988 -0.0392
  434MOL0     H57252   7.939   9.901   4.124 -1.9592 -0.4704  1.2996
  434MOL0     H57253   7.727  10.001   4.229 -0.5058 -0.2014  1.0504
  434MOL0     H57254   7.785  10.418   4.378  0.6916 -1.6883 -0.8831
  434MOL0     H57255   7.748  10.312   4.526 -1.0563  0.3086  1.2189
  434MOL0     H57256   7.561  10.476   4.359  1.3843 -2.8294 -2.6807
  434MOL0     H57257   7.584  10.460   4.529 -0.9450 -2.6345  0.9262
  434MOL0     H57258   7.481  10.216   4.508 -2.8789 -0.0282  0.4224
  434MOL0     H57259   7.444  10.271   4.338  2.4665 -1.5855 -0.4234
  434MOL0     H57260   7.354  10.395   4.603  1.0000  0.7329 -0.4227
  434MOL0     H57261   7.314  10.456   4.440  0.7991  0.4951 -0.3875
  434MOL0     H57262   7.251  10.165   4.519 -1.5206  0.4034  0.7700
  434MOL0     H57263   7.207  10.269   4.372 -1.7750  2.2160  0.6266
  434MOL0     H57264   7.071  10.415   4.501 -1.8943  1.0993  1.4237
  434MOL0     H57265   7.106  10.329   4.655 -1.5425  1.7599 -0.6527
  434MOL0     H57266   6.882  10.278   4.554  1.0931  2.6726 -1.2453
  434MOL0     H57267   6.952  10.230   4.401  0.1775 -0.6816 -0.2990
  434MOL0     H57268   6.998  10.081   4.660  2.1388  0.0439 -0.3421
  434MOL0     H57269   7.068  10.027   4.508  0.6858 -0.8580  2.2461
  434MOL0     H57270   7.976  10.335   4.339 -2.9485  1.5681 -0.8944
  434MOL0     H57271   8.161  10.242   4.194 -0.8385  0.9345  1.1418
  434MOL0     H57272   8.253   9.796   3.759  0.5078 -0.1033 -1.0711
  434MOL0     H57273   8.467   9.674   3.729 -1.8593 -1.7236  1.2747
  434MOL0     H57274  10.338   9.044   3.940 -1.4154 -1.0247 -3.5061
  434MOL0     H57275  10.562   9.041   4.036 -0.5126  2.4022  2.5325
  434MOL0     H57276  10.882   9.455   4.295 -0.0423 -0.2353 -0.2751
  434MOL0     H57277  11.091   9.443   4.419 -1.8441  0.2088  0.3484
  434MOL0     H57278  11.487   9.218   4.312 -2.2364  3.8616 -1.6409
  434MOL0     H57279  11.384   9.124   4.233  2.3362 -1.1345 -0.3020
  434MOL0     H57280  11.403   9.102   4.539 -2.8788  0.7753  0.4229
  434MOL0     H57281  11.289   9.019   4.449 -0.4644  1.5628 -0.2740
  434MOL0     H57282  11.516   8.897   4.509  1.5521  1.9263  0.9971
  434MOL0     H57283  11.592   8.986   4.392  0.2322 -3.8402 -1.6370
  434MOL0     H57284  11.472   8.905   4.208  4.0778 -2.0375 -0.5053
  434MOL0     H57285  11.518   8.755   4.294 -2.2538 -1.0896  0.9354
  434MOL0     H57286  11.111   8.730   4.276  0.7853 -2.7051  0.3653
  434MOL0     H57287  11.209   9.098   4.172  0.6972  1.0062  0.0689
  434MOL0     H57288  10.978   9.099   4.088  0.7243 -1.9375  2.8334
  435MOL0     O57289  10.827   9.203   8.102 -0.8710 -0.6990 -0.4927
  435MOL0     C57290  10.908   9.146   8.028  0.3216  0.3675 -0.4247
  435MOL0     O57291  10.907   9.143   7.890 -0.7276 -0.6225  0.4772
  435MOL0     C57292  10.786   9.186   7.823 -0.8585 -0.4635 -0.3346
  435MOL0     C57293  10.785   9.308   7.764  0.2252  0.0306 -0.5411
  435MOL0     C57294  10.679   9.341   7.670 -0.1444 -0.5007 -0.2347
  435MOL0     C57295  10.560   9.258   7.672 -0.5017 -0.4520 -0.0252
  435MOL0     O57296  10.445   9.277   7.599 -0.1542  0.0946  0.4568
  435MOL0     C57297  10.398   9.413   7.581 -0.0318 -0.1212 -0.5796
  435MOL0     C57298  10.244   9.432   7.596 -0.4446  0.0079 -0.7267
  435MOL0     C57299  10.201   9.577   7.633  0.0963 -0.2318 -0.0366
  435MOL0     C57300  10.051   9.587   7.683 -0.2634 -0.7042 -0.3545
  435MOL0     C57301  10.021   9.546   7.831  1.0087  0.3070 -0.5708
  435MOL0     C57302   9.876   9.595   7.861  0.3530  0.0616 -0.0743
  435MOL0     C57303   9.866   9.707   7.969  0.1331 -0.2345 -0.1882
  435MOL0     C57304   9.728   9.784   7.955 -0.5787  0.2817 -0.7663
  435MOL0     N57305   9.622   9.714   8.026 -0.6566 -0.7686  0.0048
  435MOL0     C57306   9.552   9.613   7.967  0.7309 -0.9470 -0.2029
  435MOL0     C57307   9.477   9.561   8.063  0.0350  0.4349  0.4845
  435MOL0     C57308   9.392   9.436   8.066 -1.5429 -0.1180  0.1424
  435MOL0     C57309   9.253   9.450   8.013  0.3770  0.4159 -0.4364
  435MOL0     C57310   9.176   9.307   8.024 -0.3261 -0.5960 -0.6216
  435MOL0     C57311   9.057   9.324   7.941  0.0774 -0.0969  0.4281
  435MOL0     O57312   8.979   9.419   8.013 -0.4790  0.2310 -0.0638
  435MOL0     C57313   8.844   9.415   7.976 -0.1757  0.7397  0.0030
  435MOL0     C57314   8.814   9.407   7.842  0.0795 -0.5030 -0.8119
  435MOL0     C57315   8.681   9.413   7.793 -0.4466  0.8693  0.1225
  435MOL0     C57316   8.571   9.432   7.881 -0.0606  1.2095  0.5147
  435MOL0     C57317   8.432   9.464   7.828 -0.1205 -0.1969  0.1600
  435MOL0     O57318   8.411   9.450   7.694 -0.9263  0.2965  0.2416
  435MOL0     C57319   8.282   9.468   7.646  0.0810  0.5594 -0.5710
  435MOL0     C57320   8.199   9.354   7.650  0.2034  0.0270  0.1992
  435MOL0     C57321   8.067   9.366   7.619 -0.7325  0.4240  0.1555
  435MOL0     C57322   8.012   9.485   7.586  0.7069 -0.1648  0.1621
  435MOL0     O57323   7.883   9.495   7.553  0.0359 -0.8003 -1.0382
  435MOL0     C57324   7.822   9.404   7.465  0.3931  0.6674 -0.0046
  435MOL0     C57325   7.726   9.482   7.374 -0.3632  0.3113 -0.8456
  435MOL0     C57326   7.614   9.388   7.332  0.0479 -0.5868 -0.9761
  435MOL0     C57327   7.502   9.352   7.425  0.7095  0.0784 -0.6660
  435MOL0     C57328   7.380   9.308   7.347 -0.0345  0.3483  0.4974
  435MOL0     C57329   7.385   9.171   7.293 -0.3515  0.6945  0.4965
  435MOL0     C57330   7.253   9.123   7.236 -0.1935  0.3789  0.5334
  435MOL0     C57331   7.218   9.155   7.096 -0.8791 -0.4664 -0.6372
  435MOL0    Cl57332   7.312   9.052   6.984  0.2007  0.0308 -0.0705
  435MOL0     C57333   8.090   9.598   7.591  0.2919 -0.0211  0.4682
  435MOL0     C57334   8.224   9.592   7.621 -1.0811 -0.0637  0.3420
  435MOL0     O57335   8.342   9.505   7.905 -0.7268  0.5708 -0.0602
  435MOL0     C57336   8.605   9.437   8.023  0.0275  0.2848  0.7718
  435MOL0     C57337   8.743   9.435   8.071  0.0092 -0.1888 -0.1710
  435MOL0     N57338   9.492   9.648   8.177 -0.4134  0.5449 -0.6881
  435MOL0     N57339   9.589   9.733   8.161  0.3666 -0.1695 -0.5351
  435MOL0     C57340  10.561   9.146   7.747  0.7242 -0.1308  0.1834
  435MOL0     C57341  10.673   9.104   7.814 -0.0141  0.3441  0.3125
  435MOL0     C57342  11.019   9.077   8.079  0.3142  0.4710  0.1466
  435MOL0     C57343  11.067   9.107   8.207 -1.1175  0.5170 -0.9017
  435MOL0     C57344  11.176   9.035   8.264  0.3875  0.0915  0.5888
  435MOL0     C57345  11.231   8.932   8.204  0.9720 -0.3661  0.1201
  435MOL0     O57346  11.335   8.873   8.268  0.8785  0.8584  0.7902
  435MOL0     C57347  11.294   8.751   8.346  0.1181 -0.6461 -1.2485
  435MOL0     C57348  11.259   8.787   8.494 -0.3628 -0.1017 -0.0087
  435MOL0     C57349  11.365   8.853   8.575 -0.3552  0.6792  0.1485
  435MOL0     C57350  11.502   8.790   8.544 -0.3086 -0.0109  0.3796
  435MOL0     C57351  11.601   8.834   8.646  0.4204 -0.1108  0.8352
  435MOL0     C57352  11.682   8.857   8.728  0.3149 -0.2523  0.5154
  435MOL0     C57353  11.181   8.889   8.076  0.1695 -1.3762  0.0024
  435MOL0     C57354  11.078   8.970   8.013  0.8143 -0.4293 -0.9529
  435MOL0     H57355  10.880   9.360   7.766  3.4040 -4.9528 -1.9145
  435MOL0     H57356  10.691   9.433   7.613  0.2709  0.1000  0.8014
  435MOL0     H57357  10.427   9.453   7.482  0.0051  3.4281  0.7068
  435MOL0     H57358  10.451   9.480   7.649  1.2715 -0.3309 -1.3389
  435MOL0     H57359  10.217   9.361   7.675  3.6381 -0.6831  0.2765
  435MOL0     H57360  10.196   9.398   7.504  2.1415 -0.7284 -1.8981
  435MOL0     H57361  10.216   9.623   7.535 -0.3124 -0.2933 -0.1274
  435MOL0     H57362  10.270   9.625   7.704  2.4700  0.0413 -2.3660
  435MOL0     H57363  10.031   9.693   7.667  1.0330 -0.4466 -0.3709
  435MOL0     H57364   9.985   9.528   7.619  1.9549 -2.1188 -1.4462
  435MOL0     H57365  10.090   9.599   7.897  0.4399  0.2173  0.1102
  435MOL0     H57366  10.041   9.438   7.831 -0.7780 -0.0671 -1.8053
  435MOL0     H57367   9.810   9.513   7.890  0.0248 -0.4445 -2.1046
  435MOL0     H57368   9.821   9.644   7.779  0.2128  0.1205  0.0540
  435MOL0     H57369   9.880   9.662   8.068 -0.6759  3.5222  1.7960
  435MOL0     H57370   9.952   9.774   7.959 -0.2250 -0.1190 -3.5233
  435MOL0     H57371   9.705   9.796   7.849  1.9103 -0.2505 -1.4306
  435MOL0     H57372   9.728   9.887   7.991 -0.5482  0.1154 -0.2839
  435MOL0     H57373   9.539   9.581   7.865 -2.1047 -1.9591  0.3758
  435MOL0     H57374   9.381   9.392   8.166 -3.9975  3.5650  1.7409
  435MOL0     H57375   9.454   9.369   8.007  0.0957 -0.8092  2.4906
  435MOL0     H57376   9.249   9.486   7.910  0.3906  1.3995 -0.1103
  435MOL0     H57377   9.201   9.526   8.072 -0.4112  0.4308 -1.1264
  435MOL0     H57378   9.243   9.228   7.989  1.0941  0.3133 -0.0563
  435MOL0     H57379   9.141   9.294   8.126 -0.3581 -2.1974 -0.8078
  435MOL0     H57380   8.998   9.233   7.926  0.0544 -0.0146 -0.0027
  435MOL0     H57381   9.100   9.350   7.843 -1.3428  0.5440 -0.0523
  435MOL0     H57382   8.891   9.395   7.766 -1.0705 -0.9066 -1.9560
  435MOL0     H57383   8.676   9.411   7.685  1.2518  3.6149 -0.0952
  435MOL0     H57384   8.230   9.250   7.658  1.4744  0.2631 -1.3281
  435MOL0     H57385   8.002   9.278   7.617  1.1736 -1.0461 -1.9186
  435MOL0     H57386   7.766   9.330   7.523  0.6893 -0.4582 -1.0992
  435MOL0     H57387   7.890   9.355   7.394  1.8861 -3.6508  3.9098
  435MOL0     H57388   7.793   9.524   7.299  3.1603  3.8980  3.6939
  435MOL0     H57389   7.689   9.570   7.428  2.3925  0.5550  0.8563
  435MOL0     H57390   7.659   9.291   7.306 -1.0927 -0.9861 -1.5135
  435MOL0     H57391   7.562   9.431   7.246 -0.0265  1.7851  0.1909
  435MOL0     H57392   7.519   9.280   7.507 -0.9364  0.9230  0.4778
  435MOL0     H57393   7.472   9.443   7.477  0.6282 -0.7109  0.7455
  435MOL0     H57394   7.362   9.372   7.261  0.3238  0.3993  0.4566
  435MOL0     H57395   7.301   9.332   7.419  0.9478  1.4633  1.2371
  435MOL0     H57396   7.413   9.101   7.372  0.8522  1.1490  0.4917
  435MOL0     H57397   7.464   9.152   7.219  1.0685 -0.5672  2.2380
  435MOL0     H57398   7.259   9.014   7.248 -1.1639 -0.0304 -2.1124
  435MOL0     H57399   7.174   9.162   7.301  0.6090  2.5320  0.2808
  435MOL0     H57400   7.244   9.260   7.081 -0.0187 -0.1595  2.4697
  435MOL0     H57401   7.112   9.131   7.079 -0.9969 -1.0056  0.7470
  435MOL0     H57402   8.027   9.683   7.571 -2.1394 -0.7256  4.0090
  435MOL0     H57403   8.289   9.678   7.619 -0.3154 -0.6453 -0.9866
  435MOL0     H57404   8.533   9.459   8.101  1.4682  2.9170  1.4952
  435MOL0     H57405   8.764   9.438   8.177  0.1105  0.2432 -0.2012
  435MOL0     H57406  10.463   9.100   7.753 -0.0227  1.3744  0.1451
  435MOL0     H57407  10.674   9.015   7.876  2.4720 -0.7443 -1.1714
  435MOL0     H57408  11.034   9.192   8.266 -0.0992  0.8098 -0.7335
  435MOL0     H57409  11.204   9.062   8.366 -0.4861  1.1457  0.5751
  435MOL0     H57410  11.369   8.672   8.339 -1.6401 -2.7970  1.9763
  435MOL0     H57411  11.199   8.712   8.307  0.2265 -1.9573 -0.2577
  435MOL0     H57412  11.164   8.837   8.515  0.8714  1.6421  1.8001
  435MOL0     H57413  11.237   8.698   8.553  1.3384  0.0375  0.8755
  435MOL0     H57414  11.345   8.851   8.682  4.1794  1.4357  1.2066
  435MOL0     H57415  11.376   8.957   8.542  0.9440  0.0777 -1.4543
  435MOL0     H57416  11.493   8.682   8.554 -3.5265  0.1323  0.1393
  435MOL0     H57417  11.527   8.820   8.441  0.8042  1.6298  1.0898
  435MOL0     H57418  11.769   8.880   8.786  1.5133 -0.0828 -1.2622
  435MOL0     H57419  11.229   8.804   8.028 -0.4075 -2.3053  1.0209
  435MOL0     H57420  11.034   8.935   7.921 -1.5181  0.1864 -0.1326
  436MOL0     O57421  10.043   0.433  11.157  0.4023 -0.6655 -0.4070
  436MOL0     C57422   9.999   0.346  11.231  0.0558  1.5800  0.1132
  436MOL0     O57423   9.875   0.341  11.295 -0.1248  0.1085 -0.7422
  436MOL0     C57424   9.788   0.442  11.263 -0.8309 -0.5576 -0.3394
  436MOL0     C57425   9.740   0.459  11.129 -0.0416 -0.1310 -0.1655
  436MOL0     C57426   9.629   0.536  11.109  0.2305  0.1279 -0.4403
  436MOL0     C57427   9.580   0.627  11.213  0.2372 -0.3981 -0.5967
  436MOL0     O57428   9.476   0.712  11.208  0.7155 -0.4140 -0.8470
  436MOL0     C57429   9.402   0.728  11.088 -0.0270  0.8726  0.1543
  436MOL0     C57430   9.283   0.827  11.095  0.5744  0.2362  0.7304
  436MOL0     C57431   9.229   0.861  10.953  0.5748 -0.4896  0.0050
  436MOL0     C57432   9.099   0.933  10.950  1.4175 -0.7863 -0.1259
  436MOL0     C57433   9.025   0.928  10.817  0.1771  0.2200  0.8022
  436MOL0     C57434   8.908   1.034  10.812 -0.2143  0.3993  0.0036
  436MOL0     C57435   8.802   1.013  10.918  0.3691  0.3521 -0.1999
  436MOL0     C57436   8.682   1.106  10.894 -0.5920 -0.7392  0.5959
  436MOL0     N57437   8.575   1.090  10.987  0.5186  0.0586 -0.8739
  436MOL0     C57438   8.501   0.972  10.998 -0.2238 -0.1350 -0.8491
  436MOL0     C57439   8.396   1.009  11.073 -0.7086 -0.2033 -0.0499
  436MOL0     C57440   8.281   0.933  11.120 -0.0584 -0.2486 -0.1702
  436MOL0     C57441   8.259   0.939  11.272  0.7148  0.1487  1.1250
  436MOL0     C57442   8.108   0.917  11.297 -0.0006  0.5484 -0.5648
  436MOL0     C57443   8.062   0.954  11.437  0.0523 -0.8510  0.5448
  436MOL0     O57444   8.072   1.092  11.471 -1.0556 -0.0081  0.5436
  436MOL0     C57445   8.042   1.147  11.593 -0.0786  0.3001 -0.6441
  436MOL0     C57446   7.994   1.064  11.698  0.3327  0.0966  0.3158
  436MOL0     C57447   7.956   1.120  11.813 -0.0093  0.0704  1.0238
  436MOL0     C57448   7.976   1.254  11.837  0.0168  0.4945 -0.4297
  436MOL0     C57449   7.936   1.312  11.960 -0.4963  0.0413  0.3649
  436MOL0     O57450   7.950   1.443  11.973 -0.0121 -0.4680  0.2923
  436MOL0     C57451   7.894   1.506  12.079 -0.1157  0.3576  0.5126
  436MOL0     C57452   7.923   1.487  12.218  0.0613 -0.0466  0.3556
  436MOL0     C57453   7.845   1.554  12.320  0.5252  0.2902 -0.2386
  436MOL0     C57454   7.746   1.644  12.277 -1.1943 -0.2035 -0.0121
  436MOL0     O57455   7.658   1.711  12.359 -0.4933  0.0972  0.3521
  436MOL0     C57456   7.640   1.658  12.493 -0.3130  0.7971  0.4504
  436MOL0     C57457   7.490   1.663  12.529  0.6138 -0.1101  0.1952
  436MOL0     C57458   7.407   1.545  12.466  0.4551  0.5047 -0.0202
  436MOL0     C57459   7.415   1.419  12.543 -0.5851  0.5591 -0.2220
  436MOL0     C57460   7.300   1.323  12.518 -0.3133  0.4274 -0.0084
  436MOL0     C57461   7.326   1.179  12.557  0.2785 -0.2961 -0.4201
  436MOL0     C57462   7.430   1.112  12.463  0.6825 -0.3140  0.0171
  436MOL0     C57463   7.520   1.019  12.541 -1.0683  0.3902  0.8641
  436MOL0    Cl57464   7.675   1.001  12.455  0.0520 -0.3734  0.6587
  436MOL0     C57465   7.718   1.663  12.142 -0.0415 -0.2894 -0.1018
  436MOL0     C57466   7.794   1.596  12.043 -0.4462  0.1292  0.4069
  436MOL0     O57467   7.893   1.242  12.052 -0.8204 -0.6832  0.0527
  436MOL0     C57468   8.021   1.341  11.731 -0.2185 -0.2750 -0.4373
  436MOL0     C57469   8.058   1.287  11.610  0.7888  0.3237 -0.1919
  436MOL0     N57470   8.416   1.140  11.102 -0.0547  0.0241  0.4072
  436MOL0     N57471   8.533   1.187  11.073 -0.3147 -0.4533 -0.1236
  436MOL0     C57472   9.640   0.617  11.341  0.4204 -0.8117 -0.3529
  436MOL0     C57473   9.739   0.522  11.362 -0.1446 -0.6583 -0.9496
  436MOL0     C57474  10.083   0.216  11.251  0.0451  0.2030 -0.4758
  436MOL0     C57475  10.207   0.210  11.197 -0.1225  0.5753 -0.9548
  436MOL0     C57476  10.286   0.095  11.221 -0.6833  0.8801  0.1317
  436MOL0     C57477  10.239  -0.013  11.295 -0.6191  0.6521 -0.3211
  436MOL0     O57478  10.311  -0.130  11.315  0.2887  0.7238 -0.5455
  436MOL0     C57479  10.440  -0.152  11.254  0.5947  0.5883  0.7616
  436MOL0     C57480  10.419  -0.173  11.100 -0.2578 -0.3141  0.1745
  436MOL0     C57481  10.555  -0.196  11.027 -0.1052 -0.9699  0.0888
  436MOL0     C57482  10.547  -0.237  10.883 -0.7074 -0.6194  0.4212
  436MOL0     C57483  10.486  -0.127  10.805  0.1451  0.1734 -0.2277
  436MOL0     C57484  10.428  -0.035  10.746  0.1235 -1.3491  0.5546
  436MOL0     C57485  10.120   0.003  11.348  1.6700  0.3866  0.1456
  436MOL0     C57486  10.041   0.113  11.337 -0.2135 -0.8745  1.3935
  436MOL0     H57487   9.792   0.407  11.050  1.4044  1.2630 -0.1776
  436MOL0     H57488   9.578   0.544  11.014  0.1526 -1.4347 -0.5603
  436MOL0     H57489   9.359   0.635  11.049 -0.0368  1.3683 -1.0607
  436MOL0     H57490   9.471   0.770  11.014  1.9131  1.8776  2.3949
  436MOL0     H57491   9.322   0.917  11.144  0.4854  0.8993 -0.3650
  436MOL0     H57492   9.203   0.778  11.151  2.6431 -1.9913  1.9596
  436MOL0     H57493   9.202   0.762  10.917 -0.3913 -1.2004  2.4655
  436MOL0     H57494   9.303   0.905  10.886 -1.9408 -0.9784 -3.3790
  436MOL0     H57495   9.032   0.893  11.027 -0.3683  2.9301  0.4884
  436MOL0     H57496   9.126   1.034  10.984  0.1165 -0.7453  0.8338
  436MOL0     H57497   8.986   0.829  10.794  0.9503  0.1088 -0.0851
  436MOL0     H57498   9.098   0.941  10.737 -3.4423 -0.0033 -2.8941
  436MOL0     H57499   8.865   1.048  10.713 -0.0562 -0.8709 -0.2659
  436MOL0     H57500   8.949   1.131  10.841 -0.0069  0.3306 -0.0622
  436MOL0     H57501   8.771   0.908  10.913 -0.1050  0.5452 -2.5067
  436MOL0     H57502   8.850   1.039  11.013 -1.2794  1.0343  0.4800
  436MOL0     H57503   8.660   1.084  10.790  0.2322  0.6205  0.1050
  436MOL0     H57504   8.712   1.210  10.915 -0.9282 -0.2617 -1.1436
  436MOL0     H57505   8.506   0.871  10.960 -1.1457 -0.3856 -0.3439
  436MOL0     H57506   8.289   0.830  11.086 -0.3671 -0.4188  0.2683
  436MOL0     H57507   8.199   0.986  11.072 -0.2264  0.2363  0.6266
  436MOL0     H57508   8.287   1.042  11.294 -0.3598  1.0794 -1.4781
  436MOL0     H57509   8.326   0.865  11.318 -1.3653 -1.8502  1.1097
  436MOL0     H57510   8.055   0.985  11.229 -0.2417  0.1722 -0.7519
  436MOL0     H57511   8.077   0.815  11.274 -0.7183  1.2169 -2.8284
  436MOL0     H57512   8.125   0.913  11.517  1.0256  0.9294  0.7513
  436MOL0     H57513   7.964   0.908  11.450 -0.9316  0.9281 -0.2683
  436MOL0     H57514   7.990   0.957  11.680 -1.5308 -0.0082  1.1950
  436MOL0     H57515   7.916   1.060  11.895 -2.9653  2.4763  1.4961
  436MOL0     H57516   7.996   1.422  12.265  0.8246  0.6319  0.1322
  436MOL0     H57517   7.868   1.557  12.427 -1.1726 -1.8883  0.2515
  436MOL0     H57518   7.697   1.710  12.571  1.7515 -1.1870  0.3873
  436MOL0     H57519   7.662   1.552  12.504 -0.2389  0.7052 -0.5110
  436MOL0     H57520   7.452   1.758  12.490  1.3224 -0.6204 -1.8390
  436MOL0     H57521   7.475   1.661  12.638 -3.8549 -1.3742 -0.2192
  436MOL0     H57522   7.438   1.537  12.361  1.3476  0.3326  0.2555
  436MOL0     H57523   7.301   1.575  12.473  0.5097  0.2483  3.1718
  436MOL0     H57524   7.505   1.373  12.500 -0.8952 -1.0035  0.7193
  436MOL0     H57525   7.423   1.439  12.650  1.0716 -0.2578 -0.1581
  436MOL0     H57526   7.270   1.320  12.413 -2.4293 -2.2581  0.5591
  436MOL0     H57527   7.212   1.364  12.568 -0.5695  0.9037 -0.8426
  436MOL0     H57528   7.232   1.123  12.564 -0.1635  0.3636 -1.0593
  436MOL0     H57529   7.357   1.181  12.662  0.0826  0.3379 -0.3711
  436MOL0     H57530   7.394   1.065  12.371 -1.1551  0.4875  0.2805
  436MOL0     H57531   7.489   1.194  12.421 -1.2710  0.8999 -0.5294
  436MOL0     H57532   7.478   0.919  12.555 -0.2668 -0.2458 -1.0121
  436MOL0     H57533   7.541   1.068  12.637 -2.8803  2.5856  0.2302
  436MOL0     H57534   7.629   1.719  12.112 -0.8390 -0.6801  1.4461
  436MOL0     H57535   7.771   1.605  11.938  1.1079 -1.8384 -0.1592
  436MOL0     H57536   8.033   1.447  11.749  1.2137 -0.2984 -1.1394
  436MOL0     H57537   8.101   1.354  11.537  1.5910 -0.1068 -0.1175
  436MOL0     H57538   9.611   0.684  11.421  1.3419 -2.2336  1.2403
  436MOL0     H57539   9.781   0.514  11.461 -1.3532 -0.9621 -0.4415
  436MOL0     H57540  10.245   0.300  11.149 -0.9277 -0.2007 -3.1738
  436MOL0     H57541  10.380   0.099  11.166 -1.1193  2.8221 -0.5381
  436MOL0     H57542  10.481  -0.247  11.290 -0.9037 -0.8573 -1.1031
  436MOL0     H57543  10.502  -0.063  11.268  0.7212  0.6625 -0.2290
  436MOL0     H57544  10.363  -0.265  11.080  0.9116 -0.7913 -1.0823
  436MOL0     H57545  10.357  -0.095  11.056 -2.2286 -1.4217  0.8469
  436MOL0     H57546  10.599  -0.278  11.084  2.6156 -0.0118 -0.4919
  436MOL0     H57547  10.624  -0.112  11.041  0.2134 -1.1189 -0.6009
  436MOL0     H57548  10.645  -0.252  10.835 -0.5983  0.7920  0.1455
  436MOL0     H57549  10.484  -0.326  10.876 -3.2227  1.1459 -1.5432
  436MOL0     H57550  10.392   0.056  10.702  0.3874 -1.0967  0.8492
  436MOL0     H57551  10.073  -0.077  11.405 -1.9920  2.3720  0.1942
  436MOL0     H57552   9.950   0.122  11.395 -0.9742  2.6134 -0.1006
  437MOL0     O57553   9.700   0.273   8.393  0.1990 -0.2359  0.0618
  437MOL0     C57554   9.796   0.209   8.431  0.3909  0.4672 -0.0120
  437MOL0     O57555   9.794   0.075   8.433 -0.6228  0.2300 -0.1659
  437MOL0     C57556   9.682  -0.000   8.416  0.6367 -0.5125 -0.1710
  437MOL0     C57557   9.675  -0.103   8.316  0.3722 -1.2528 -0.0977
  437MOL0     C57558   9.561  -0.180   8.291 -0.1047 -0.1351 -0.4617
  437MOL0     C57559   9.447  -0.154   8.373  0.2560 -0.6379  0.8269
  437MOL0     O57560   9.326  -0.214   8.353 -0.0726  0.0414  0.5807
  437MOL0     C57561   9.316  -0.318   8.262 -0.4854  0.0999  0.9137
  437MOL0     C57562   9.186  -0.394   8.261  0.4112  0.1743 -0.2220
  437MOL0     C57563   9.108  -0.375   8.395  0.2352  0.2153  0.1708
  437MOL0     C57564   8.959  -0.420   8.379 -0.2948  0.5051 -0.4089
  437MOL0     C57565   8.941  -0.568   8.346  0.5080  0.2436  0.8794
  437MOL0     C57566   8.800  -0.623   8.363 -0.4520  0.0582 -0.5867
  437MOL0     C57567   8.698  -0.546   8.274  0.0678  0.4606  0.0341
  437MOL0     C57568   8.567  -0.632   8.271  0.0997 -0.1049 -1.0028
  437MOL0     N57569   8.590  -0.750   8.185 -0.6469  0.3566 -0.6150
  437MOL0     C57570   8.610  -0.747   8.046 -1.0315  0.0013 -0.2706
  437MOL0     C57571   8.642  -0.877   8.009  0.1100 -0.1920  0.1707
  437MOL0     C57572   8.653  -0.933   7.866 -1.0414  0.1213  0.2934
  437MOL0     C57573   8.533  -1.038   7.839 -1.2226 -0.7990  0.2566
  437MOL0     C57574   8.514  -1.072   7.690 -0.1517  0.2444 -0.3569
  437MOL0     C57575   8.462  -0.963   7.599  0.5897  0.4286 -0.1093
  437MOL0     O57576   8.329  -0.915   7.640 -0.1099 -0.0468  0.1414
  437MOL0     C57577   8.223  -1.005   7.630  0.6227 -0.6297  0.3808
  437MOL0     C57578   8.106  -0.972   7.701 -0.1720 -0.1574 -0.5072
  437MOL0     C57579   7.990  -1.046   7.685 -0.3794  0.6703  0.3290
  437MOL0     C57580   7.984  -1.147   7.590  0.0292  0.1962 -0.5855
  437MOL0     C57581   7.858  -1.230   7.577  0.0713  0.0842  1.1024
  437MOL0     O57582   7.749  -1.179   7.642 -0.9967  0.4549  0.4465
  437MOL0     C57583   7.639  -1.250   7.634 -0.3381 -0.4538 -0.4556
  437MOL0     C57584   7.523  -1.187   7.580  0.1097  0.8567 -0.3123
  437MOL0     C57585   7.404  -1.263   7.562 -0.0890 -0.1421  0.0620
  437MOL0     C57586   7.399  -1.399   7.587 -0.0434  1.0227 -0.4909
  437MOL0     O57587   7.277  -1.458   7.574  0.4918  0.7607 -0.1854
  437MOL0     C57588   7.265  -1.605   7.571 -0.0535  0.5259  0.6534
  437MOL0     C57589   7.125  -1.648   7.540 -0.1805  0.7732  0.0546
  437MOL0     C57590   7.030  -1.630   7.655  0.0750 -0.7633 -0.0787
  437MOL0     C57591   6.885  -1.667   7.601  0.0840 -0.9852  0.4086
  437MOL0     C57592   6.782  -1.666   7.717 -0.0238 -0.1692 -0.1345
  437MOL0     C57593   6.634  -1.700   7.684  0.3987 -0.1656  0.1225
  437MOL0     C57594   6.557  -1.729   7.811 -1.0568  0.7127  0.0458
  437MOL0     C57595   6.429  -1.802   7.777  1.1120  0.2714 -1.4320
  437MOL0    Cl57596   6.304  -1.717   7.673 -0.0644  0.1886  0.0974
  437MOL0     C57597   7.510  -1.448   7.643 -0.2830  0.0344  0.4973
  437MOL0     C57598   7.632  -1.385   7.669 -0.1552  0.4927 -0.1466
  437MOL0     O57599   7.852  -1.326   7.495 -0.1846 -0.9842  0.0207
  437MOL0     C57600   8.105  -1.183   7.523  0.2666  0.7607 -0.4022
  437MOL0     C57601   8.218  -1.112   7.542 -0.0602 -0.4514  0.0218
  437MOL0     N57602   8.655  -0.945   8.128  0.3458  0.2929 -0.5428
  437MOL0     N57603   8.622  -0.879   8.232 -0.1291 -1.5077  0.2069
  437MOL0     C57604   9.453  -0.056   8.476 -0.6129  0.2696 -0.2090
  437MOL0     C57605   9.568   0.021   8.500  0.0216 -0.0957 -0.1739
  437MOL0     C57606   9.919   0.271   8.467 -1.2933  0.3492  0.4901
  437MOL0     C57607   9.922   0.407   8.462  0.6720  0.1412 -0.8790
  437MOL0     C57608  10.031   0.485   8.502 -0.7289 -0.4570 -0.1054
  437MOL0     C57609  10.151   0.423   8.549  0.3340 -0.2251  0.3272
  437MOL0     O57610  10.264   0.492   8.592  0.0279 -0.2849  0.8836
  437MOL0     C57611  10.260   0.628   8.566 -0.0533 -0.4646 -0.6931
  437MOL0     C57612  10.388   0.696   8.612 -0.2349  0.1648  0.8297
  437MOL0     C57613  10.387   0.846   8.589  0.2328 -0.2339  0.0687
  437MOL0     C57614  10.523   0.912   8.586  0.1113 -0.8723 -0.3889
  437MOL0     C57615  10.589   0.925   8.723  0.1473 -0.1006 -0.3245
  437MOL0     C57616  10.638   0.928   8.830  1.0084 -0.0201 -0.7208
  437MOL0     C57617  10.149   0.281   8.547  0.0180  0.5105  0.3576
  437MOL0     C57618  10.032   0.211   8.518  1.0269  0.5151 -0.2715
  437MOL0     H57619   9.762  -0.117   8.253 -1.7823  0.6690 -3.9106
  437MOL0     H57620   9.566  -0.246   8.205  0.5892  0.7947 -1.1524
  437MOL0     H57621   9.396  -0.387   8.290  1.4616  0.1432 -3.6949
  437MOL0     H57622   9.329  -0.282   8.159 -0.7676 -2.8647 -0.2511
  437MOL0     H57623   9.199  -0.498   8.228 -0.1860 -0.1207  0.4466
  437MOL0     H57624   9.115  -0.356   8.188 -0.0631  0.8376  0.5692
  437MOL0     H57625   9.109  -0.280   8.449 -4.0968 -0.0237  1.0599
  437MOL0     H57626   9.152  -0.443   8.469  0.4419 -0.6628 -0.7327
  437MOL0     H57627   8.904  -0.408   8.473 -0.8717 -1.8452 -0.4008
  437MOL0     H57628   8.903  -0.362   8.306 -3.0566  1.4472  2.2612
  437MOL0     H57629   9.013  -0.633   8.396  0.2611 -1.6537 -1.0373
  437MOL0     H57630   8.963  -0.576   8.239 -2.8732 -0.1013  0.0792
  437MOL0     H57631   8.776  -0.609   8.469 -0.2648 -0.8923 -0.4026
  437MOL0     H57632   8.789  -0.730   8.341 -1.1767 -0.4640  2.0055
  437MOL0     H57633   8.677  -0.446   8.313 -0.8171  0.5588 -0.6605
  437MOL0     H57634   8.737  -0.531   8.173 -0.1628 -0.5640 -0.2247
  437MOL0     H57635   8.481  -0.573   8.237 -2.3793 -2.9462 -0.1467
  437MOL0     H57636   8.547  -0.673   8.371  1.9077 -0.8625 -0.9151
  437MOL0     H57637   8.572  -0.675   7.974  2.5481 -1.5351 -4.0932
  437MOL0     H57638   8.748  -0.987   7.864 -0.4150  1.1466 -2.4321
  437MOL0     H57639   8.658  -0.860   7.785 -0.1659  0.9271  1.0528
  437MOL0     H57640   8.435  -1.001   7.870 -1.3150 -0.5067 -0.3574
  437MOL0     H57641   8.556  -1.128   7.897  1.8690 -0.9398 -1.0043
  437MOL0     H57642   8.609  -1.108   7.648 -0.5052  0.3607 -1.2663
  437MOL0     H57643   8.448  -1.158   7.675  1.1194 -0.5477 -1.6369
  437MOL0     H57644   8.446  -0.995   7.496 -2.3590 -1.2956  0.7778
  437MOL0     H57645   8.530  -0.877   7.595 -0.0266  0.8994 -0.7739
  437MOL0     H57646   8.100  -0.895   7.777  0.0306 -2.4425  2.0212
  437MOL0     H57647   7.908  -1.019   7.751 -0.3234  3.7886 -0.7444
  437MOL0     H57648   7.537  -1.080   7.568 -0.9388  0.7489 -3.0672
  437MOL0     H57649   7.317  -1.214   7.519 -0.4107 -0.4088  0.4082
  437MOL0     H57650   7.283  -1.655   7.666 -1.5226 -3.3026 -0.8758
  437MOL0     H57651   7.318  -1.645   7.484 -1.4858  1.2491 -0.6057
  437MOL0     H57652   7.130  -1.757   7.526  4.0287  0.8271  0.1156
  437MOL0     H57653   7.087  -1.596   7.452 -0.0693  2.8551  1.1792
  437MOL0     H57654   7.026  -1.530   7.698 -0.8767 -0.7440 -0.1778
  437MOL0     H57655   7.064  -1.702   7.729  0.0073  0.3027  1.0097
  437MOL0     H57656   6.851  -1.584   7.538  1.8475  0.6473  1.4819
  437MOL0     H57657   6.885  -1.753   7.533  1.5680  0.6630 -1.8171
  437MOL0     H57658   6.774  -1.566   7.761  1.3428 -0.8892  1.8548
  437MOL0     H57659   6.816  -1.734   7.795  2.1397  0.6410 -0.3232
  437MOL0     H57660   6.635  -1.781   7.610  0.2295  0.9867 -1.1807
  437MOL0     H57661   6.574  -1.618   7.643 -0.0597  0.3609  1.8023
  437MOL0     H57662   6.614  -1.796   7.875 -0.7726  0.0050 -0.9323
  437MOL0     H57663   6.533  -1.639   7.869 -1.4495  0.9956 -0.5377
  437MOL0     H57664   6.379  -1.832   7.870 -0.0943  2.4206 -1.3071
  437MOL0     H57665   6.459  -1.888   7.717 -1.4543 -1.5210 -0.3553
  437MOL0     H57666   7.524  -1.556   7.649 -0.9986 -0.0188  1.4422
  437MOL0     H57667   7.722  -1.439   7.697  1.6859  2.0582 -2.6129
  437MOL0     H57668   8.103  -1.264   7.451  2.4898 -0.5339  0.8517
  437MOL0     H57669   8.301  -1.144   7.481  1.7957  1.4834  1.3796
  437MOL0     H57670   9.359  -0.033   8.526 -1.2415 -1.0173 -0.7748
  437MOL0     H57671   9.564   0.099   8.577  1.1082  0.5950 -0.7884
  437MOL0     H57672   9.829   0.461   8.447  1.4448  1.3071 -1.6103
  437MOL0     H57673  10.017   0.592   8.497 -0.5137 -0.4791 -1.4948
  437MOL0     H57674  10.181   0.679   8.622  1.1004  0.8455 -0.1884
  437MOL0     H57675  10.240   0.657   8.462 -3.3536  1.6292  0.3440
  437MOL0     H57676  10.410   0.671   8.716  3.0306 -0.6608  0.0738
  437MOL0     H57677  10.473   0.659   8.554  0.1483 -2.8013  3.0557
  437MOL0     H57678  10.320   0.907   8.650  0.6499  0.5826 -0.2609
  437MOL0     H57679  10.362   0.878   8.487  0.2525 -0.0404  0.1221
  437MOL0     H57680  10.585   0.864   8.510  0.5273  0.3303 -0.8297
  437MOL0     H57681  10.502   1.015   8.554 -0.4809 -1.3822 -1.7065
  437MOL0     H57682  10.703   0.920   8.915  1.7486  0.4007 -1.2293
  437MOL0     H57683  10.235   0.221   8.575 -1.2826 -0.5350  2.3681
  437MOL0     H57684  10.047   0.104   8.520 -0.4567  0.2939  0.0574
  438MOL0     O57685   2.566  10.611   2.720  0.6308 -0.0218 -0.2548
  438MOL0     C57686   2.549  10.729   2.735 -0.1498  0.1062  0.7891
  438MOL0     O57687   2.432  10.797   2.772 -0.2203  0.3182  1.4030
  438MOL0     C57688   2.339  10.721   2.837  0.3771  0.8200 -0.1596
  438MOL0     C57689   2.215  10.709   2.773 -0.3518  0.0437  0.0426
  438MOL0     C57690   2.119  10.625   2.826 -0.1031  0.2195 -1.0384
  438MOL0     C57691   2.137  10.557   2.947 -0.6605  0.5571 -0.2823
  438MOL0     O57692   2.057  10.461   3.020  0.3773 -0.4689 -0.5361
  438MOL0     C57693   1.952  10.408   2.940  0.2287 -0.5641  0.0170
  438MOL0     C57694   1.897  10.300   3.023  0.0054  0.4162 -0.6644
  438MOL0     C57695   1.798  10.211   2.954  0.0433 -0.2130 -0.1332
  438MOL0     C57696   1.705  10.146   3.064 -0.6871 -0.3729 -0.0040
  438MOL0     C57697   1.646  10.026   2.983  0.3312  0.7355 -0.3347
  438MOL0     C57698   1.532   9.956   3.064  0.0018 -0.8314  0.6152
  438MOL0     C57699   1.469   9.844   2.980 -0.2000  0.3990 -0.6270
  438MOL0     C57700   1.404   9.741   3.060 -0.0833  0.2134 -0.7101
  438MOL0     N57701   1.295   9.792   3.148  0.1282 -0.6311  0.6124
  438MOL0     C57702   1.264   9.762   3.282 -0.1341 -0.1464  0.2890
  438MOL0     C57703   1.157   9.852   3.308  0.8772  0.2825 -0.5482
  438MOL0     C57704   1.101   9.859   3.449 -0.2224 -0.2537 -0.4715
  438MOL0     C57705   1.012   9.742   3.497  0.1429  0.1965 -0.5017
  438MOL0     C57706   0.877   9.751   3.425 -0.2378 -0.5394 -1.3443
  438MOL0     C57707   0.768   9.811   3.517  0.3442 -1.2667  0.2983
  438MOL0     O57708   0.652   9.836   3.428 -1.3675 -0.2223 -0.4612
  438MOL0     C57709   0.536   9.874   3.483 -0.0019  0.1778  0.0675
  438MOL0     C57710   0.524   9.885   3.622 -0.2288 -0.1835  1.3992
  438MOL0     C57711   0.399   9.923   3.679 -0.8164 -0.0859 -0.0220
  438MOL0     C57712   0.285   9.948   3.599  0.1522  0.1394  0.2113
  438MOL0     C57713   0.158   9.976   3.668 -1.3087 -0.4948 -0.0689
  438MOL0     O57714   0.071  10.054   3.601 -0.0507  0.5509  0.0344
  438MOL0     C57715  -0.050  10.083   3.664 -0.3676  0.9545  0.0125
  438MOL0     C57716  -0.084  10.211   3.701  0.7707  1.1298 -0.8178
  438MOL0     C57717  -0.214  10.243   3.753  0.5097 -0.6446  0.1172
  438MOL0     C57718  -0.303  10.136   3.783 -0.1603 -0.5527 -0.0676
  438MOL0     O57719  -0.431  10.166   3.831 -0.4032  0.2466 -0.2573
  438MOL0     C57720  -0.478  10.299   3.820 -0.2600  0.5406 -0.2063
  438MOL0     C57721  -0.621  10.305   3.850  0.7145  0.0339  0.6230
  438MOL0     C57722  -0.706  10.199   3.776  0.1915 -0.0302 -0.6192
  438MOL0     C57723  -0.848  10.251   3.753  0.1009 -0.6166 -1.2476
  438MOL0     C57724  -0.947  10.128   3.745 -0.7092  0.1732  0.4023
  438MOL0     C57725  -1.086  10.176   3.749 -0.8287 -0.0201 -0.7845
  438MOL0     C57726  -1.132  10.204   3.890  0.2845 -0.1578  0.4657
  438MOL0     C57727  -1.279  10.216   3.899  0.1522  0.2493  0.5002
  438MOL0    Cl57728  -1.334  10.219   4.070  0.3936  0.0749 -0.4242
  438MOL0     C57729  -0.260  10.010   3.757  0.4702  0.2258 -0.0150
  438MOL0     C57730  -0.134   9.973   3.694  0.2756  0.2719 -0.0464
  438MOL0     O57731   0.140   9.927   3.783 -0.4535 -0.0874 -0.0084
  438MOL0     C57732   0.302   9.943   3.459  0.7128  0.5908  0.7321
  438MOL0     C57733   0.425   9.899   3.402 -1.0067  0.2666  0.0458
  438MOL0     N57734   1.120   9.916   3.192  0.1563 -0.0545 -0.3824
  438MOL0     N57735   1.197   9.877   3.098  0.2547  0.2348 -0.3148
  438MOL0     C57736   2.265  10.567   3.006  0.3636 -0.1010  0.7160
  438MOL0     C57737   2.361  10.643   2.950 -0.1576 -0.3864  0.3150
  438MOL0     C57738   2.658  10.822   2.713 -0.2274 -0.0637  0.5643
  438MOL0     C57739   2.646  10.953   2.665 -0.3034 -0.8388 -0.8328
  438MOL0     C57740   2.756  11.036   2.657  0.2344 -1.0424 -0.1178
  438MOL0     C57741   2.883  10.996   2.701 -0.4139  0.6048 -0.6488
  438MOL0     O57742   2.993  11.075   2.703  0.4889  0.2050 -0.0103
  438MOL0     C57743   3.036  11.087   2.565  0.1229 -0.0806 -0.0079
  438MOL0     C57744   3.179  11.126   2.553  0.0863 -0.3497 -0.6007
  438MOL0     C57745   3.269  11.005   2.606  0.4074  0.6564  0.0912
  438MOL0     C57746   3.415  11.057   2.618  0.0896  0.1055 -0.5978
  438MOL0     C57747   3.491  10.934   2.647  0.2059 -0.0848 -0.0850
  438MOL0     C57748   3.539  10.822   2.665 -0.5914  0.3389 -0.1699
  438MOL0     C57749   2.889  10.864   2.750  0.0665  0.8710  0.5919
  438MOL0     C57750   2.782  10.776   2.749  0.4033 -0.5567 -0.8048
  438MOL0     H57751   2.188  10.764   2.683 -1.4498 -0.2511  0.1749
  438MOL0     H57752   2.019  10.614   2.787 -1.4435  1.9040  1.5866
  438MOL0     H57753   1.987  10.367   2.844  1.4018 -2.1434  1.0734
  438MOL0     H57754   1.876  10.483   2.917 -0.0570 -1.2592 -1.4229
  438MOL0     H57755   1.858  10.352   3.111  0.5743  0.7492 -0.6020
  438MOL0     H57756   1.975  10.235   3.064 -0.0824  1.6646  1.6669
  438MOL0     H57757   1.862  10.144   2.897  0.4839  1.3880 -1.6334
  438MOL0     H57758   1.739  10.263   2.877  1.8305 -0.0557 -1.4512
  438MOL0     H57759   1.754  10.117   3.157  1.5163  0.1345 -0.9589
  438MOL0     H57760   1.627  10.217   3.093 -0.3009  0.3811 -0.7576
  438MOL0     H57761   1.721   9.954   2.950  1.0294  1.2032  0.2303
  438MOL0     H57762   1.603  10.062   2.889  2.3065  1.8929 -0.8397
  438MOL0     H57763   1.459  10.037   3.067  0.2796 -0.3193 -2.7389
  438MOL0     H57764   1.549   9.923   3.167 -1.6966 -2.8845  0.3166
  438MOL0     H57765   1.396   9.882   2.908 -1.0761  0.6739  0.3850
  438MOL0     H57766   1.556   9.803   2.928  0.3987  1.0990 -0.2009
  438MOL0     H57767   1.480   9.704   3.130 -0.3726  0.3977 -0.2925
  438MOL0     H57768   1.371   9.663   2.991 -1.2963  1.9101 -2.1265
  438MOL0     H57769   1.320   9.705   3.355 -0.7413  2.0274  2.5857
  438MOL0     H57770   1.035   9.946   3.457 -0.9269 -0.9496  3.3745
  438MOL0     H57771   1.175   9.873   3.528  0.8071  1.2667 -1.6490
  438MOL0     H57772   1.004   9.738   3.606  1.6282 -3.5033 -0.3820
  438MOL0     H57773   1.060   9.647   3.474 -0.3215 -0.8886  2.5878
  438MOL0     H57774   0.889   9.816   3.337  0.2865 -1.1610 -1.7359
  438MOL0     H57775   0.851   9.650   3.393  0.6806 -0.5205 -2.2064
  438MOL0     H57776   0.803   9.906   3.560  1.6306 -1.5502 -0.0609
  438MOL0     H57777   0.743   9.743   3.599  0.9894  2.3192  3.7902
  438MOL0     H57778   0.607   9.868   3.689 -0.4110 -3.2164  0.9813
  438MOL0     H57779   0.391   9.922   3.788 -1.2757  0.3776 -0.0483
  438MOL0     H57780  -0.005  10.283   3.685 -0.1102  1.9305 -1.7166
  438MOL0     H57781  -0.235  10.348   3.772  4.0319  0.0906  0.5769
  438MOL0     H57782  -0.466  10.338   3.718 -1.0811  1.3768  0.0035
  438MOL0     H57783  -0.419  10.368   3.880  0.0026  1.0078 -0.9798
  438MOL0     H57784  -0.657  10.405   3.828  0.1335 -0.3788 -0.3412
  438MOL0     H57785  -0.635  10.303   3.959  0.2719 -1.7096  0.5616
  438MOL0     H57786  -0.704  10.111   3.841 -1.3871  1.3593  1.4627
  438MOL0     H57787  -0.658  10.176   3.681  3.8457  3.3471  0.1118
  438MOL0     H57788  -0.875  10.321   3.832  1.9811 -0.2318 -0.9092
  438MOL0     H57789  -0.849  10.309   3.659  1.4010  3.0993  0.8153
  438MOL0     H57790  -0.928  10.054   3.823  1.5223  0.1511 -0.1044
  438MOL0     H57791  -0.930  10.077   3.650 -0.9991 -0.5263  0.7178
  438MOL0     H57792  -1.148  10.098   3.704 -0.5599  0.1472 -1.4622
  438MOL0     H57793  -1.097  10.263   3.684  0.0018 -1.0426 -2.3744
  438MOL0     H57794  -1.091  10.138   3.967  1.5870 -0.7531 -0.6997
  438MOL0     H57795  -1.108  10.303   3.929 -0.2665  0.0314  0.3353
  438MOL0     H57796  -1.330  10.136   3.846  1.5932  0.3254 -1.0854
  438MOL0     H57797  -1.312  10.309   3.851 -0.2074 -0.8537 -1.5148
  438MOL0     H57798  -0.334   9.933   3.775 -0.1234  0.1897 -2.3126
  438MOL0     H57799  -0.113   9.870   3.667 -3.2461 -0.9433  1.2220
  438MOL0     H57800   0.211   9.954   3.401  0.6501  0.1712  0.7505
  438MOL0     H57801   0.452   9.867   3.302 -3.8040 -1.6105 -0.2514
  438MOL0     H57802   2.285  10.513   3.098  0.1455  1.1832  1.5419
  438MOL0     H57803   2.466  10.636   2.974 -0.0071 -1.0294 -0.4662
  438MOL0     H57804   2.544  10.982   2.643 -0.6517 -0.5799  0.9746
  438MOL0     H57805   2.742  11.138   2.624  0.2012  0.2040  3.3243
  438MOL0     H57806   2.984  11.174   2.523 -0.1297  0.8307  2.0993
  438MOL0     H57807   3.022  10.995   2.508  3.1344 -0.7726  0.1756
  438MOL0     H57808   3.190  11.144   2.446 -1.1648 -1.2976 -0.9053
  438MOL0     H57809   3.199  11.215   2.614 -3.8934 -0.1022  0.6035
  438MOL0     H57810   3.263  10.923   2.534 -1.0628  0.7263  0.0901
  438MOL0     H57811   3.235  10.965   2.702  3.7485 -1.1980  0.6308
  438MOL0     H57812   3.447  11.105   2.525 -2.8106 -3.0170 -3.4973
  438MOL0     H57813   3.414  11.137   2.691  1.7097 -0.1131 -0.2998
  438MOL0     H57814   3.576  10.725   2.693 -2.1599 -0.0972  0.4758
  438MOL0     H57815   2.980  10.818   2.786  0.1686  1.0094  0.5130
  438MOL0     H57816   2.786  10.677   2.793 -3.4503 -1.1827 -1.5384
  439MOL0     O57817   4.387   7.664   2.878  0.0369  0.3980  0.3718
  439MOL0     C57818   4.310   7.699   2.790 -0.1774 -0.3703  0.7291
  439MOL0     O57819   4.172   7.673   2.770 -0.4777 -0.1126 -0.7116
  439MOL0     C57820   4.120   7.604   2.878 -0.0567 -1.0579  0.0898
  439MOL0     C57821   4.008   7.642   2.961 -0.4572 -0.7147  0.0463
  439MOL0     C57822   3.943   7.548   3.046  0.4027 -0.6492  0.0080
  439MOL0     C57823   3.993   7.417   3.043  0.2524 -0.3011  0.2865
  439MOL0     O57824   3.930   7.333   3.132 -0.0637  0.0729  0.5702
  439MOL0     C57825   3.964   7.202   3.132 -0.1984 -0.9572  1.5697
  439MOL0     C57826   3.859   7.137   3.214 -0.6063 -0.0827 -0.1702
  439MOL0     C57827   3.738   7.099   3.124  0.5453 -0.4025 -0.9278
  439MOL0     C57828   3.633   7.038   3.222 -0.5701 -0.2788  0.5449
  439MOL0     C57829   3.509   6.964   3.159 -0.5862  0.1669  0.1677
  439MOL0     C57830   3.417   6.918   3.278 -0.2018  0.9304  0.5851
  439MOL0     C57831   3.292   6.845   3.231  0.6555  1.0921  0.0871
  439MOL0     C57832   3.186   6.950   3.188 -0.2075  0.6682  0.0988
  439MOL0     N57833   3.052   6.889   3.169  0.7632  0.6189 -0.7923
  439MOL0     C57834   2.944   6.926   3.246  0.2593  0.5293 -0.5444
  439MOL0     C57835   2.843   6.863   3.191  0.0918 -0.2498 -0.7414
  439MOL0     C57836   2.691   6.886   3.226  0.0068  0.1141 -1.1969
  439MOL0     C57837   2.603   6.759   3.206 -0.1854 -0.0563 -0.3003
  439MOL0     C57838   2.535   6.748   3.071 -0.1334 -0.0103  0.6442
  439MOL0     C57839   2.413   6.843   3.051 -0.7997 -0.7540 -0.7579
  439MOL0     O57840   2.316   6.808   3.154  0.5580 -0.4771  0.1225
  439MOL0     C57841   2.211   6.722   3.137  0.5947 -0.0247  0.0199
  439MOL0     C57842   2.108   6.731   3.229  0.5483 -0.7010 -0.4844
  439MOL0     C57843   2.001   6.650   3.213  0.0752 -1.1183 -0.3124
  439MOL0     C57844   1.987   6.546   3.120  0.2593 -0.0042  0.3893
  439MOL0     C57845   1.877   6.451   3.112  0.0006 -0.5716 -0.5419
  439MOL0     O57846   1.782   6.457   3.213  0.2479  0.1466  0.1862
  439MOL0     C57847   1.659   6.393   3.213 -0.1554  0.4230  0.6593
  439MOL0     C57848   1.560   6.444   3.295 -0.7296  0.1947 -0.2789
  439MOL0     C57849   1.441   6.372   3.314  0.4162 -0.6995 -0.1356
  439MOL0     C57850   1.421   6.256   3.254 -0.4654 -0.3083  0.0618
  439MOL0     O57851   1.300   6.195   3.273 -0.0606  0.4036 -0.4510
  439MOL0     C57852   1.288   6.061   3.228  0.1714 -0.1556  0.2082
  439MOL0     C57853   1.156   5.997   3.276  1.6269 -0.0449  0.4882
  439MOL0     C57854   1.036   6.087   3.236 -0.0310 -0.1649 -0.7786
  439MOL0     C57855   0.904   6.033   3.294  0.5793  0.0324 -0.2395
  439MOL0     C57856   0.784   6.116   3.239  0.2289  0.0579 -1.1219
  439MOL0     C57857   0.647   6.059   3.287 -0.0280 -0.1445 -0.6495
  439MOL0     C57858   0.547   6.182   3.321 -0.0864  0.3480  0.2098
  439MOL0     C57859   0.425   6.139   3.402  0.1596  0.0976 -0.5175
  439MOL0    Cl57860   0.364   6.251   3.520 -0.1046 -0.5611 -0.1651
  439MOL0     C57861   1.515   6.213   3.160 -0.4362 -0.1874 -0.3342
  439MOL0     C57862   1.637   6.276   3.139 -0.0209  0.0951  0.2866
  439MOL0     O57863   1.883   6.383   3.007  0.5898 -0.5009  0.0014
  439MOL0     C57864   2.104   6.533   3.029 -0.1431  1.1327 -0.6108
  439MOL0     C57865   2.207   6.625   3.035  0.2901 -0.5205  0.5816
  439MOL0     N57866   2.887   6.792   3.083  0.3592  0.2521  0.0913
  439MOL0     N57867   3.015   6.788   3.083  0.4920  0.1625  0.0282
  439MOL0     C57868   4.104   7.378   2.962 -0.5789 -0.7491 -0.0359
  439MOL0     C57869   4.158   7.469   2.875 -0.6431 -0.5744 -0.3975
  439MOL0     C57870   4.377   7.788   2.689 -0.3606 -0.3138 -0.1152
  439MOL0     C57871   4.335   7.799   2.564 -0.0041  1.0886  0.2235
  439MOL0     C57872   4.392   7.869   2.463  0.0897 -0.5021  0.5152
  439MOL0     C57873   4.508   7.946   2.491 -0.6002  0.0447 -0.3232
  439MOL0     O57874   4.557   8.030   2.402 -0.0582  0.1139  1.2161
  439MOL0     C57875   4.699   8.061   2.398  0.7831  0.6066 -0.6172
  439MOL0     C57876   4.747   8.095   2.262 -0.0681  0.2494  0.8533
  439MOL0     C57877   4.898   8.107   2.263  0.1989  0.3422 -0.8739
  439MOL0     C57878   4.938   8.189   2.137  0.3352 -0.4228  0.8457
  439MOL0     C57879   5.081   8.218   2.127 -0.1402  0.0917 -0.8724
  439MOL0     C57880   5.203   8.230   2.106  0.6678 -0.6270  0.3600
  439MOL0     C57881   4.545   7.953   2.626  0.4925 -0.0348  0.2736
  439MOL0     C57882   4.485   7.875   2.721  0.4870  0.7657  0.1305
  439MOL0     H57883   3.982   7.747   2.972 -1.4159 -0.9535  0.1531
  439MOL0     H57884   3.863   7.576   3.113  0.1482  0.8870 -0.9027
  439MOL0     H57885   4.065   7.188   3.171  0.7379  1.1358  0.1048
  439MOL0     H57886   3.966   7.158   3.031 -1.6388 -0.1366  1.1586
  439MOL0     H57887   3.838   7.208   3.295  0.8609 -1.7298  1.7561
  439MOL0     H57888   3.890   7.041   3.257  2.3815  1.8856  2.5355
  439MOL0     H57889   3.761   7.029   3.043  0.9850  0.3416 -1.4588
  439MOL0     H57890   3.694   7.189   3.081 -2.8854 -0.9614  1.0600
  439MOL0     H57891   3.678   6.960   3.284  0.2116 -2.9103 -2.9889
  439MOL0     H57892   3.609   7.122   3.287  0.9316  0.9699 -0.4393
  439MOL0     H57893   3.543   6.873   3.110  1.8629  0.4672  1.1788
  439MOL0     H57894   3.462   7.035   3.090 -0.5944 -0.7224 -0.7724
  439MOL0     H57895   3.391   7.001   3.344  1.4095  1.4214  0.6338
  439MOL0     H57896   3.477   6.848   3.337 -1.7179 -0.5799  0.4061
  439MOL0     H57897   3.305   6.767   3.156 -1.0877 -0.4044  1.2668
  439MOL0     H57898   3.254   6.790   3.317 -3.1012  0.6108 -1.6695
  439MOL0     H57899   3.225   6.984   3.091  2.0191  0.8174  0.9717
  439MOL0     H57900   3.179   7.037   3.254  1.9376  2.3319 -1.7139
  439MOL0     H57901   2.941   7.004   3.321 -0.1436  4.3110 -4.1197
  439MOL0     H57902   2.646   6.966   3.165  1.1767  0.4124 -1.6921
  439MOL0     H57903   2.693   6.926   3.328 -2.4158  0.1922 -1.1299
  439MOL0     H57904   2.527   6.769   3.284 -1.3205  1.0937 -1.4831
  439MOL0     H57905   2.667   6.674   3.229 -1.9392 -1.1943  0.5469
  439MOL0     H57906   2.623   6.776   3.014  1.0133 -1.7781  1.4766
  439MOL0     H57907   2.504   6.645   3.052  3.6950 -0.8887 -1.6564
  439MOL0     H57908   2.373   6.836   2.950 -1.0822  2.1104 -0.9316
  439MOL0     H57909   2.441   6.946   3.073  1.5152 -0.9322 -2.4233
  439MOL0     H57910   2.109   6.804   3.310 -0.9774 -1.9847  0.7664
  439MOL0     H57911   1.924   6.662   3.288  0.6611  0.3316  0.0871
  439MOL0     H57912   1.584   6.531   3.355  2.4741 -0.9604  0.2929
  439MOL0     H57913   1.361   6.411   3.377 -1.5092 -0.8394 -2.3608
  439MOL0     H57914   1.371   5.999   3.261  1.1718  1.0179 -0.0111
  439MOL0     H57915   1.288   6.061   3.118 -2.2407 -1.4379  0.1465
  439MOL0     H57916   1.161   5.986   3.384  0.1059  2.8208  0.9464
  439MOL0     H57917   1.144   5.900   3.227  0.5701  0.3585 -0.1054
  439MOL0     H57918   1.037   6.096   3.127  2.3235  0.6418 -0.7462
  439MOL0     H57919   1.053   6.187   3.276  1.9897 -1.2318  1.3109
  439MOL0     H57920   0.890   5.929   3.261  1.3569 -0.2653  0.3272
  439MOL0     H57921   0.896   6.040   3.403  1.3431  2.3158 -0.2780
  439MOL0     H57922   0.786   6.118   3.129 -0.9264  0.8550 -1.1393
  439MOL0     H57923   0.806   6.217   3.274  2.0194 -0.8064  0.4831
  439MOL0     H57924   0.667   5.997   3.375  1.3364  1.3636  0.1657
  439MOL0     H57925   0.604   5.995   3.210 -1.5652 -1.7063  1.3989
  439MOL0     H57926   0.617   6.243   3.379  0.3152 -1.1752  1.4145
  439MOL0     H57927   0.514   6.227   3.227 -0.5315 -2.0258 -0.8446
  439MOL0     H57928   0.451   6.047   3.456  0.1045 -0.9824 -2.2599
  439MOL0     H57929   0.342   6.106   3.338  1.0231  1.2670 -2.3116
  439MOL0     H57930   1.495   6.123   3.104 -1.1254 -0.0329 -0.3451
  439MOL0     H57931   1.700   6.245   3.056 -2.0801 -3.2534 -0.2242
  439MOL0     H57932   2.100   6.444   2.967 -1.0585  0.2787  0.6092
  439MOL0     H57933   2.292   6.612   2.968  0.4824  0.0807  0.6994
  439MOL0     H57934   4.138   7.275   2.969 -0.1405 -0.5074  3.8837
  439MOL0     H57935   4.245   7.445   2.815  0.2391  2.1005 -0.3180
  439MOL0     H57936   4.245   7.743   2.544  0.9217 -0.9883  1.5659
  439MOL0     H57937   4.342   7.870   2.367 -0.4015 -2.8738  0.6979
  439MOL0     H57938   4.754   7.977   2.441 -0.3077  0.2124  0.0236
  439MOL0     H57939   4.718   8.151   2.459 -0.6354  0.5676 -0.0802
  439MOL0     H57940   4.694   8.028   2.193 -1.6610  1.1732  1.1339
  439MOL0     H57941   4.712   8.197   2.244  0.5297  0.3579  0.2420
  439MOL0     H57942   4.951   8.012   2.256  1.6902  1.1810 -1.4170
  439MOL0     H57943   4.927   8.168   2.348 -1.1854  0.6823 -0.6115
  439MOL0     H57944   4.907   8.133   2.049 -3.4009  2.5253  0.0306
  439MOL0     H57945   4.886   8.286   2.136 -2.1739 -1.6798 -1.2253
  439MOL0     H57946   5.309   8.216   2.095  1.2441  1.1002  2.8306
  439MOL0     H57947   4.620   8.026   2.653 -0.0370  0.0253  1.6606
  439MOL0     H57948   4.512   7.886   2.826  0.8687  0.4442  0.0669
  440MOL0     O57949   4.591   8.208   4.056 -0.8016 -0.8467  0.6345
  440MOL0     C57950   4.622   8.114   3.985 -0.5378  0.4846 -0.4991
  440MOL0     O57951   4.543   7.996   3.970 -0.3666  0.9949 -0.0246
  440MOL0     C57952   4.410   8.005   3.995 -0.7678  0.0333  0.1896
  440MOL0     C57953   4.335   8.118   3.943  0.2530  0.2614  0.0821
  440MOL0     C57954   4.198   8.138   3.970  0.5451 -0.3936  0.8082
  440MOL0     C57955   4.132   8.046   4.053  0.3355  0.7229  0.5642
  440MOL0     O57956   3.996   8.048   4.078  0.6118  0.0265  0.6923
  440MOL0     C57957   3.926   8.173   4.077  0.5440  0.0242  0.1448
  440MOL0     C57958   3.771   8.169   4.107 -1.0505  0.9087 -0.8428
  440MOL0     C57959   3.726   8.022   4.128  0.1847 -0.2985  0.1838
  440MOL0     C57960   3.571   8.014   4.147  0.5641 -0.3454  0.2477
  440MOL0     C57961   3.512   7.874   4.194  0.0072 -0.4901  0.3353
  440MOL0     C57962   3.361   7.855   4.188  0.2019 -0.5260 -0.1717
  440MOL0     C57963   3.315   7.717   4.196 -0.2968 -0.0126  1.2315
  440MOL0     C57964   3.168   7.692   4.252 -0.1706 -0.0836 -0.1703
  440MOL0     N57965   3.071   7.791   4.221  0.4819  0.4718 -0.3331
  440MOL0     C57966   3.044   7.899   4.294 -0.5273  0.5083  0.6433
  440MOL0     C57967   2.914   7.923   4.254 -0.3469 -0.0505  0.2967
  440MOL0     C57968   2.816   8.012   4.324 -0.7620 -0.7401  0.1242
  440MOL0     C57969   2.794   7.961   4.466  1.1348 -0.1402  0.2674
  440MOL0     C57970   2.716   7.826   4.481 -0.0131  0.3758  0.0297
  440MOL0     C57971   2.577   7.836   4.440  0.3417  0.4931 -0.2426
  440MOL0     O57972   2.502   7.709   4.463 -0.4398  0.0673 -0.8215
  440MOL0     C57973   2.367   7.716   4.459  0.1607 -0.0189  0.2462
  440MOL0     C57974   2.297   7.599   4.479  0.3042  0.7815 -0.2420
  440MOL0     C57975   2.154   7.591   4.474 -0.1573  0.2618  0.5484
  440MOL0     C57976   2.080   7.704   4.461  0.2769 -0.0358 -0.2983
  440MOL0     C57977   1.929   7.702   4.455  0.1684  0.5238  0.2243
  440MOL0     O57978   1.864   7.590   4.505  0.3790  0.1586 -0.7256
  440MOL0     C57979   1.727   7.584   4.507 -0.1873  0.1542  0.6574
  440MOL0     C57980   1.636   7.646   4.425  0.3303 -0.0458 -0.1030
  440MOL0     C57981   1.500   7.644   4.447 -0.1787  0.1823  0.1263
  440MOL0     C57982   1.450   7.566   4.551 -0.1489  0.1256 -0.0807
  440MOL0     O57983   1.312   7.563   4.576  0.5279  0.1829 -0.1316
  440MOL0     C57984   1.238   7.496   4.475 -0.2938 -0.0118 -0.2287
  440MOL0     C57985   1.104   7.432   4.522 -0.6326 -0.4771  0.6664
  440MOL0     C57986   1.053   7.350   4.399 -0.8027  1.2168  0.4379
  440MOL0     C57987   0.920   7.286   4.433 -0.4497 -0.0817 -0.0295
  440MOL0     C57988   0.876   7.183   4.324 -0.1965  0.4410  0.0319
  440MOL0     C57989   0.956   7.058   4.328 -0.5788  0.6869  0.5808
  440MOL0     C57990   0.923   6.968   4.207  0.0959  0.3372  0.7707
  440MOL0     C57991   0.768   6.938   4.180  0.4470  0.4048  0.1312
  440MOL0    Cl57992   0.769   6.795   4.070 -0.0660 -0.0786 -0.0005
  440MOL0     C57993   1.537   7.481   4.624 -0.1267 -0.1593 -0.0763
  440MOL0     C57994   1.677   7.499   4.606  0.7311 -0.5024  0.1690
  440MOL0     O57995   1.874   7.797   4.410 -0.3761  0.0087 -0.4911
  440MOL0     C57996   2.155   7.827   4.449  0.8677  0.5878 -0.1401
  440MOL0     C57997   2.292   7.834   4.452  0.2136 -0.4314 -0.4999
  440MOL0     N57998   2.885   7.853   4.139  0.5457  0.6053 -0.3004
  440MOL0     N57999   2.984   7.776   4.117  0.6437 -0.2672  0.0255
  440MOL0     C58000   4.200   7.938   4.100  0.7667  0.5447 -0.7371
  440MOL0     C58001   4.335   7.913   4.072 -0.1597 -0.8796 -0.2319
  440MOL0     C58002   4.753   8.111   3.917 -0.5986  0.7824  0.2976
  440MOL0     C58003   4.833   8.222   3.902 -0.2100 -0.0258  0.2823
  440MOL0     C58004   4.956   8.223   3.841 -0.1658  0.2870  0.1552
  440MOL0     C58005   5.009   8.100   3.794 -0.4846 -0.2906 -0.5857
  440MOL0     O58006   5.137   8.090   3.737  0.4998 -0.0750  0.9447
  440MOL0     C58007   5.216   8.195   3.672  0.6798 -0.5314  0.1543
  440MOL0     C58008   5.349   8.143   3.632 -0.1052  0.4410 -0.1770
  440MOL0     C58009   5.425   8.251   3.551 -0.1514  0.1660 -0.1039
  440MOL0     C58010   5.563   8.192   3.532 -1.1606 -0.0943 -0.3403
  440MOL0     C58011   5.652   8.273   3.445  0.8937  0.4395 -0.4339
  440MOL0     C58012   5.745   8.326   3.390  0.1237  0.4492  0.4216
  440MOL0     C58013   4.935   7.980   3.811 -0.5100 -0.1340 -0.4092
  440MOL0     C58014   4.801   7.987   3.864 -0.5753  0.1430 -0.4216
  440MOL0     H58015   4.383   8.201   3.893  0.7786  0.0654  0.2579
  440MOL0     H58016   4.142   8.221   3.930  2.2916 -0.5764 -2.4017
  440MOL0     H58017   3.935   8.226   3.982  0.8252  1.1559  0.7865
  440MOL0     H58018   3.971   8.232   4.157  0.3225  0.3964 -0.0034
  440MOL0     H58019   3.704   8.217   4.034 -0.5522 -0.4210 -2.2191
  440MOL0     H58020   3.754   8.230   4.196 -0.8858 -2.0807  1.3725
  440MOL0     H58021   3.771   7.993   4.224 -1.6447  1.0602  1.5402
  440MOL0     H58022   3.767   7.952   4.055  2.3435 -0.4840  1.4722
  440MOL0     H58023   3.538   8.080   4.227 -3.6727 -1.5392 -0.2354
  440MOL0     H58024   3.524   8.050   4.054  0.1370  0.1109  0.6347
  440MOL0     H58025   3.551   7.844   4.292 -0.4885  1.2499  1.1113
  440MOL0     H58026   3.561   7.796   4.136  2.1169 -0.6175  2.1401
  440MOL0     H58027   3.329   7.892   4.090 -0.5604  0.4494  0.4300
  440MOL0     H58028   3.309   7.920   4.259  1.2596  2.1692 -1.6932
  440MOL0     H58029   3.346   7.669   4.102  1.0560  0.0144  1.6407
  440MOL0     H58030   3.378   7.659   4.264  2.3406  1.0014 -0.2074
  440MOL0     H58031   3.166   7.700   4.362  0.7589 -2.4613  0.0783
  440MOL0     H58032   3.143   7.590   4.224  1.0307 -0.1781 -0.9478
  440MOL0     H58033   3.085   7.945   4.384  2.0446 -1.7393  0.7330
  440MOL0     H58034   2.719   8.008   4.274 -1.5209  0.0960  1.4598
  440MOL0     H58035   2.846   8.117   4.327 -2.9052 -0.0414 -0.7637
  440MOL0     H58036   2.743   8.045   4.515 -2.3730 -0.3246 -2.7091
  440MOL0     H58037   2.892   7.934   4.507  2.5645  1.3543 -1.9986
  440MOL0     H58038   2.775   7.753   4.424 -1.6272 -1.8038  0.9898
  440MOL0     H58039   2.720   7.821   4.591  2.5723  2.3744  0.1456
  440MOL0     H58040   2.578   7.845   4.331  1.3002 -1.7096 -0.4642
  440MOL0     H58041   2.528   7.927   4.477 -0.7394 -0.3046  0.3282
  440MOL0     H58042   2.352   7.507   4.497  0.4251  0.6072 -1.3986
  440MOL0     H58043   2.106   7.495   4.490 -1.3139  0.5720 -0.8887
  440MOL0     H58044   1.680   7.700   4.342 -1.8492  1.5693 -0.2963
  440MOL0     H58045   1.449   7.709   4.377 -0.8994 -0.9656 -0.4472
  440MOL0     H58046   1.300   7.412   4.442 -1.0665 -0.8775  0.4532
  440MOL0     H58047   1.227   7.572   4.397  1.9980  2.5632  1.7460
  440MOL0     H58048   1.029   7.503   4.558 -1.2020 -1.1628  0.8593
  440MOL0     H58049   1.122   7.365   4.607  0.5704 -1.7417 -0.5298
  440MOL0     H58050   1.125   7.273   4.373 -0.5687  2.0112 -1.3784
  440MOL0     H58051   1.045   7.403   4.304 -0.1465 -1.5433 -1.2562
  440MOL0     H58052   0.920   7.244   4.534  1.4144 -1.0779 -0.3959
  440MOL0     H58053   0.856   7.374   4.434 -0.6472 -0.1674  2.6371
  440MOL0     H58054   0.891   7.227   4.225  3.1741  3.2031  1.5286
  440MOL0     H58055   0.772   7.154   4.340 -0.9318  2.3894 -0.8142
  440MOL0     H58056   0.949   7.010   4.426  0.8785 -0.7498  0.0424
  440MOL0     H58057   1.062   7.079   4.308 -0.3247 -0.5038  0.5843
  440MOL0     H58058   0.960   7.019   4.118 -0.8338 -1.2995 -0.6136
  440MOL0     H58059   0.977   6.874   4.205  0.2191  0.4156  0.3537
  440MOL0     H58060   0.713   7.023   4.139 -0.2252 -0.4438 -0.7762
  440MOL0     H58061   0.717   6.901   4.270 -2.0009  2.1715 -0.4159
  440MOL0     H58062   1.496   7.411   4.696  0.9075 -1.5753 -0.8292
  440MOL0     H58063   1.746   7.461   4.681 -0.3382 -1.0146  0.9122
  440MOL0     H58064   2.090   7.912   4.435 -1.3193 -1.0614 -0.4195
  440MOL0     H58065   2.333   7.935   4.447  1.5401 -0.9508 -0.3428
  440MOL0     H58066   4.154   7.872   4.172  0.7444  2.7555  1.3812
  440MOL0     H58067   4.388   7.823   4.104 -1.8516 -1.1033  2.2661
  440MOL0     H58068   4.797   8.312   3.951 -2.2904 -0.5985 -0.0844
  440MOL0     H58069   5.008   8.317   3.827  0.8039 -0.5174 -2.0944
  440MOL0     H58070   5.227   8.283   3.736  0.4927  1.4510 -2.3768
  440MOL0     H58071   5.158   8.229   3.586 -2.3943 -1.4306  1.7107
  440MOL0     H58072   5.407   8.125   3.723  1.2193  2.0080 -0.6563
  440MOL0     H58073   5.342   8.048   3.578 -0.8122 -0.3404  1.2246
  440MOL0     H58074   5.432   8.339   3.616 -2.3322  1.7407 -1.8565
  440MOL0     H58075   5.386   8.273   3.451  3.8109 -0.3947 -1.9887
  440MOL0     H58076   5.618   8.186   3.626  3.1722 -2.9709 -2.7131
  440MOL0     H58077   5.553   8.099   3.476 -0.0046 -0.8366  0.6288
  440MOL0     H58078   5.828   8.369   3.338  0.7009 -0.6998  0.3825
  440MOL0     H58079   4.977   7.885   3.779  0.4622 -0.5508  1.9127
  440MOL0     H58080   4.746   7.894   3.865 -1.4161  0.6074 -1.4249
  441MOL0     O58081   4.755   7.436   3.416 -0.5224  0.8680  0.6036
  441MOL0     C58082   4.773   7.335   3.485 -0.7573  0.6765 -1.2373
  441MOL0     O58083   4.871   7.242   3.469  0.0553  0.2969 -0.0899
  441MOL0     C58084   4.982   7.275   3.395 -0.1985  0.0923 -0.1590
  441MOL0     C58085   5.049   7.153   3.360  0.0700 -0.7001 -0.3613
  441MOL0     C58086   5.171   7.173   3.285 -0.2999 -0.1764  0.2526
  441MOL0     C58087   5.241   7.292   3.262  0.2417  0.1473  0.0379
  441MOL0     O58088   5.363   7.302   3.199 -0.5246 -0.4702  0.8356
  441MOL0     C58089   5.445   7.184   3.191  0.1713  0.2419  0.0120
  441MOL0     C58090   5.567   7.213   3.114 -0.5812 -0.2479  0.8844
  441MOL0     C58091   5.664   7.310   3.186 -0.0161  0.1868 -0.3134
  441MOL0     C58092   5.792   7.330   3.107 -1.0496  0.4767  0.1979
  441MOL0     C58093   5.873   7.443   3.177 -0.4563  0.6089  0.1928
  441MOL0     C58094   6.022   7.432   3.133  0.0890 -0.1433  0.1734
  441MOL0     C58095   6.096   7.546   3.203 -0.0229 -0.3374  0.2199
  441MOL0     C58096   6.248   7.512   3.221  0.0110 -0.2112  0.2347
  441MOL0     N58097   6.267   7.390   3.297  0.9324  0.1813 -0.2984
  441MOL0     C58098   6.313   7.274   3.246 -0.2708 -0.2067 -0.5423
  441MOL0     C58099   6.309   7.181   3.345  0.0140  0.3084  0.1154
  441MOL0     C58100   6.349   7.033   3.335  0.0859 -0.7061  0.0548
  441MOL0     C58101   6.227   6.938   3.334 -0.5099  0.8049 -0.3284
  441MOL0     C58102   6.150   6.952   3.472 -0.4456 -0.4214 -0.1045
  441MOL0     C58103   6.064   6.832   3.502 -0.0653  0.4493  0.1510
  441MOL0     O58104   5.972   6.811   3.391  0.4905  0.1008  0.1231
  441MOL0     C58105   5.845   6.853   3.417 -0.1743  0.4269  0.1456
  441MOL0     C58106   5.764   6.753   3.464  0.1755  1.0482 -0.4039
  441MOL0     C58107   5.629   6.779   3.506 -0.1151  0.0823 -0.1412
  441MOL0     C58108   5.576   6.909   3.490  0.0652 -0.3989 -0.7430
  441MOL0     C58109   5.438   6.936   3.538  0.5589  0.4137 -0.3048
  441MOL0     O58110   5.369   6.835   3.601 -0.2246 -0.4046 -0.1483
  441MOL0     C58111   5.240   6.841   3.642  0.2191  0.8014  0.6101
  441MOL0     C58112   5.145   6.948   3.627  0.3592  1.2329 -0.0546
  441MOL0     C58113   5.020   6.951   3.697 -0.4521  0.0754  0.6279
  441MOL0     C58114   4.973   6.845   3.765 -0.5016  0.2404 -1.2613
  441MOL0     O58115   4.853   6.853   3.825 -0.2535 -0.2028 -0.1064
  441MOL0     C58116   4.803   6.740   3.893  0.3865 -1.0213  0.1329
  441MOL0     C58117   4.651   6.756   3.923 -0.5253  0.4438  0.2131
  441MOL0     C58118   4.576   6.625   3.903 -0.0838  0.0015  1.3884
  441MOL0     C58119   4.439   6.634   3.956 -0.7335 -0.4730  0.4791
  441MOL0     C58120   4.365   6.506   3.999 -0.1470 -0.9871 -0.3007
  441MOL0     C58121   4.323   6.409   3.889 -0.3478  0.2767 -0.6115
  441MOL0     C58122   4.249   6.290   3.956 -0.6009  0.2194  0.6617
  441MOL0     C58123   4.192   6.182   3.853  0.2006  0.1132 -0.3260
  441MOL0    Cl58124   4.153   6.039   3.952  0.4286 -0.5706 -0.3368
  441MOL0     C58125   5.058   6.732   3.768 -0.1681  0.4189 -0.1177
  441MOL0     C58126   5.188   6.732   3.720 -0.0222 -0.4116  1.0028
  441MOL0     O58127   5.394   7.045   3.509 -0.3585 -0.0787 -1.1659
  441MOL0     C58128   5.663   7.013   3.439  0.3784 -0.1976 -0.0580
  441MOL0     C58129   5.801   6.986   3.420 -0.1762  0.3288  0.7294
  441MOL0     N58130   6.263   7.246   3.461  0.4657  0.6913 -0.3324
  441MOL0     N58131   6.232   7.366   3.425  0.4457 -0.1639 -0.3487
  441MOL0     C58132   5.169   7.400   3.297  0.0946  0.0944 -0.4129
  441MOL0     C58133   5.044   7.399   3.366 -0.4105  0.1157  0.3740
  441MOL0     C58134   4.665   7.292   3.581 -0.4087  0.2293 -0.5229
  441MOL0     C58135   4.542   7.355   3.590 -1.0322 -0.5728  0.0716
  441MOL0     C58136   4.445   7.323   3.686  0.3166 -0.3325  0.2213
  441MOL0     C58137   4.469   7.219   3.769  0.4445  0.7566  0.8298
  441MOL0     O58138   4.391   7.164   3.863  0.5101  0.2636  1.1763
  441MOL0     C58139   4.254   7.221   3.884 -1.0673  0.7214 -0.2244
  441MOL0     C58140   4.176   7.150   4.001 -0.0853  0.2527 -0.1954
  441MOL0     C58141   4.133   7.007   3.959  0.3637  0.2613  0.3984
  441MOL0     C58142   4.060   6.926   4.075  0.5378 -0.3505 -0.0958
  441MOL0     C58143   4.028   6.779   4.059  0.0054  0.3053 -0.2047
  441MOL0     C58144   4.024   6.663   4.047  0.0390 -0.3335 -0.7191
  441MOL0     C58145   4.594   7.157   3.773  0.1027 -0.5194 -0.5165
  441MOL0     C58146   4.687   7.196   3.680 -0.0514  0.0221 -0.2637
  441MOL0     H58147   5.013   7.052   3.380  0.4756 -0.8353 -0.3110
  441MOL0     H58148   5.214   7.076   3.264 -0.6517 -0.4404  0.7361
  441MOL0     H58149   5.399   7.111   3.124 -0.8296  0.9512 -0.0953
  441MOL0     H58150   5.480   7.145   3.288 -2.2122 -2.8822 -0.2001
  441MOL0     H58151   5.537   7.262   3.020 -0.8308  2.0525  2.1015
  441MOL0     H58152   5.632   7.127   3.102  1.8280  1.5139  0.6562
  441MOL0     H58153   5.688   7.256   3.278 -0.8383  0.8131  0.2923
  441MOL0     H58154   5.623   7.407   3.216  0.4333  0.5115 -0.7504
  441MOL0     H58155   5.847   7.236   3.121 -1.1271  0.1979 -1.1950
  441MOL0     H58156   5.775   7.350   3.001 -1.2091  0.6374  0.2536
  441MOL0     H58157   5.857   7.427   3.284  1.8868 -1.9401  0.2557
  441MOL0     H58158   5.822   7.537   3.153 -3.1024 -0.5439  0.8624
  441MOL0     H58159   6.038   7.437   3.025 -2.8740  2.6238 -0.3221
  441MOL0     H58160   6.059   7.334   3.165  2.8547  1.3799  2.1286
  441MOL0     H58161   6.094   7.636   3.141  0.4571 -1.6042 -1.7104
  441MOL0     H58162   6.044   7.564   3.297 -1.0727 -1.7824 -0.0491
  441MOL0     H58163   6.299   7.598   3.266  1.7535 -2.0480  1.9931
  441MOL0     H58164   6.288   7.506   3.120 -2.9386  2.3481 -1.2696
  441MOL0     H58165   6.332   7.241   3.144  0.7364  0.1179 -0.4769
  441MOL0     H58166   6.402   7.023   3.430 -1.8439  0.2786  1.3002
  441MOL0     H58167   6.427   7.020   3.260  1.3721  0.1730  1.2003
  441MOL0     H58168   6.270   6.839   3.320 -0.0829  1.0889 -1.0689
  441MOL0     H58169   6.170   6.960   3.243  1.8784 -1.3199 -2.5065
  441MOL0     H58170   6.236   6.952   3.539  1.0692  0.4137 -1.9436
  441MOL0     H58171   6.097   7.045   3.491  1.1863  0.2352  1.6263
  441MOL0     H58172   6.011   6.843   3.597 -2.0496  3.3402 -1.1703
  441MOL0     H58173   6.129   6.744   3.490  3.3124  2.8667 -0.8112
  441MOL0     H58174   5.816   6.658   3.457 -0.6424  0.6705 -1.5312
  441MOL0     H58175   5.560   6.704   3.541 -0.4178  0.0869 -0.7116
  441MOL0     H58176   5.168   7.034   3.565  0.8115 -1.1265 -3.4126
  441MOL0     H58177   4.951   7.034   3.687  2.2750  2.3273 -0.6916
  441MOL0     H58178   4.854   6.727   3.989 -0.8757  0.9200  1.1267
  441MOL0     H58179   4.828   6.659   3.824  0.7741  0.4598 -1.5392
  441MOL0     H58180   4.610   6.826   3.851 -1.0497 -0.4183 -0.3439
  441MOL0     H58181   4.636   6.800   4.022  5.7079  3.4588  0.3360
  441MOL0     H58182   4.631   6.548   3.957  0.0083 -0.9029  0.0637
  441MOL0     H58183   4.581   6.598   3.797 -0.2385 -1.3594  1.7076
  441MOL0     H58184   4.443   6.702   4.042  0.3080 -1.3012  1.1018
  441MOL0     H58185   4.375   6.686   3.884  0.5536  1.5062  0.6878
  441MOL0     H58186   4.278   6.542   4.054  0.5829 -0.7527  0.7288
  441MOL0     H58187   4.423   6.454   4.076 -0.1627 -1.1416 -0.3930
  441MOL0     H58188   4.410   6.380   3.830 -0.7174 -0.6139 -0.7258
  441MOL0     H58189   4.256   6.458   3.817 -0.4377  1.9687  0.5692
  441MOL0     H58190   4.320   6.253   4.030 -0.9737  2.2075  2.1118
  441MOL0     H58191   4.169   6.327   4.022 -0.3784 -0.3806  1.2780
  441MOL0     H58192   4.280   6.160   3.792 -0.3979  3.5543 -2.6939
  441MOL0     H58193   4.107   6.222   3.798  0.8919  0.5485 -1.0961
  441MOL0     H58194   5.030   6.636   3.812  2.4988  0.2336  1.3902
  441MOL0     H58195   5.258   6.653   3.744 -3.0555 -3.2648  1.2039
  441MOL0     H58196   5.631   7.116   3.442 -1.8511 -0.8465  0.5097
  441MOL0     H58197   5.858   7.076   3.401 -0.9908  0.6906 -0.0698
  441MOL0     H58198   5.222   7.489   3.264 -1.0896  0.0678 -2.5517
  441MOL0     H58199   4.989   7.492   3.377  1.7619  1.6123 -0.6377
  441MOL0     H58200   4.517   7.436   3.522  3.7381  3.2150  2.2434
  441MOL0     H58201   4.351   7.376   3.689 -0.3615 -1.5376  0.6118
  441MOL0     H58202   4.189   7.212   3.796 -1.1497  3.5258 -0.5295
  441MOL0     H58203   4.261   7.326   3.912  2.0833  1.2308 -2.2824
  441MOL0     H58204   4.246   7.158   4.085  0.7462 -0.2216 -0.8256
  441MOL0     H58205   4.084   7.204   4.026 -0.1719  0.4137 -0.8436
  441MOL0     H58206   4.221   6.948   3.932 -1.1727 -1.4265 -1.2975
  441MOL0     H58207   4.064   7.013   3.874 -2.3629  3.8426  2.5858
  441MOL0     H58208   4.127   6.933   4.161  0.1647  4.1338  0.0572
  441MOL0     H58209   3.967   6.978   4.097  0.6763  2.7608 -5.2547
  441MOL0     H58210   4.023   6.559   4.022  0.5423 -0.8725  1.3119
  441MOL0     H58211   4.607   7.083   3.852 -0.7830  0.1787  0.3119
  441MOL0     H58212   4.785   7.150   3.688  2.1284  4.3855  0.5760
  442MOL0     O58213   8.170   2.699   6.973  0.8973  0.6135  0.1726
  442MOL0     C58214   8.219   2.675   7.078  0.2166 -0.0672  0.0971
  442MOL0     O58215   8.144   2.652   7.190 -0.4242  0.4704  0.0074
  442MOL0     C58216   8.004   2.661   7.190 -0.3500  0.1695 -0.1311
  442MOL0     C58217   7.910   2.631   7.086 -1.2543 -0.0658  0.3099
  442MOL0     C58218   7.776   2.649   7.103  0.0100 -0.1107  1.0721
  442MOL0     C58219   7.727   2.700   7.227 -0.5700  0.0162  0.8239
  442MOL0     O58220   7.596   2.730   7.217 -0.2502 -0.3719  0.1747
  442MOL0     C58221   7.536   2.776   7.340  0.9316  0.2624  0.0013
  442MOL0     C58222   7.573   2.914   7.376  0.4883  0.3455 -0.0446
  442MOL0     C58223   7.474   2.985   7.467  0.5139  0.4207  0.5344
  442MOL0     C58224   7.464   2.920   7.600  0.8326 -0.6240 -0.5561
  442MOL0     C58225   7.400   3.007   7.704  0.0479 -0.2346  0.1682
  442MOL0     C58226   7.248   3.011   7.685  0.2207  0.1796  0.7371
  442MOL0     C58227   7.186   3.065   7.810  0.2241 -0.2814  0.4759
  442MOL0     C58228   7.042   3.111   7.789  0.0050  0.0327  0.4444
  442MOL0     N58229   6.959   3.017   7.718  0.0077  0.1940  0.4396
  442MOL0     C58230   6.917   2.890   7.763 -0.0617  0.2060  0.2620
  442MOL0     C58231   6.832   2.843   7.664 -0.3048 -0.7443 -0.3989
  442MOL0     C58232   6.748   2.720   7.678 -0.0839  0.3345 -0.6393
  442MOL0     C58233   6.784   2.619   7.785  0.1833  0.1927  0.7883
  442MOL0     C58234   6.713   2.493   7.757  0.5627  0.0089  0.6523
  442MOL0     C58235   6.758   2.389   7.853  0.2613 -0.2736 -0.9564
  442MOL0     O58236   6.692   2.266   7.822  0.5474 -0.3385  0.1998
  442MOL0     C58237   6.715   2.143   7.888 -0.2647 -0.4777  0.1755
  442MOL0     C58238   6.836   2.108   7.952  0.3196 -0.0253 -0.3402
  442MOL0     C58239   6.848   1.981   8.007 -0.9321 -0.4132  0.0766
  442MOL0     C58240   6.739   1.888   8.010  0.0306  0.5381 -0.0025
  442MOL0     C58241   6.748   1.749   8.063  0.2931 -0.4276  0.6052
  442MOL0     O58242   6.627   1.704   8.111  0.5719  0.2471 -0.7084
  442MOL0     C58243   6.612   1.574   8.138 -0.5322 -0.5157 -0.2557
  442MOL0     C58244   6.648   1.473   8.047 -1.4179 -0.3367 -0.2993
  442MOL0     C58245   6.659   1.340   8.092  0.1795  0.7118 -0.2121
  442MOL0     C58246   6.647   1.306   8.224 -0.4700  0.0847 -0.1440
  442MOL0     O58247   6.669   1.189   8.285 -0.5052  0.2600 -0.2353
  442MOL0     C58248   6.780   1.110   8.235  0.6457 -0.0134 -0.2538
  442MOL0     C58249   6.838   1.020   8.335  0.1209  0.5298  0.1941
  442MOL0     C58250   6.934   0.914   8.267  0.2916 -0.1537 -0.0689
  442MOL0     C58251   7.078   0.966   8.232 -0.2546 -0.6231  0.5872
  442MOL0     C58252   7.082   1.002   8.082 -0.0875  0.1613  0.6634
  442MOL0     C58253   7.212   1.072   8.053 -0.0202  0.3961  0.1122
  442MOL0     C58254   7.204   1.093   7.899 -0.8261 -0.0336  0.8257
  442MOL0     C58255   7.285   1.212   7.849 -0.3150  0.2040 -0.0041
  442MOL0    Cl58256   7.318   1.227   7.675 -0.1447 -0.0825 -0.0812
  442MOL0     C58257   6.619   1.415   8.307  1.2584  0.8511 -1.3844
  442MOL0     C58258   6.593   1.543   8.267  0.6726  0.0504  0.6185
  442MOL0     O58259   6.853   1.689   8.068 -0.3271 -0.6067  0.1235
  442MOL0     C58260   6.624   1.930   7.949 -0.4647 -0.0206 -0.8805
  442MOL0     C58261   6.614   2.051   7.890  0.8253 -0.1227 -0.5525
  442MOL0     N58262   6.843   2.933   7.557 -0.7711  0.5089  0.3513
  442MOL0     N58263   6.917   3.036   7.586 -0.5569  0.5092 -0.5221
  442MOL0     C58264   7.815   2.721   7.333  0.7215 -0.4464 -0.3445
  442MOL0     C58265   7.947   2.705   7.309  0.1796 -1.0064  0.0533
  442MOL0     C58266   8.361   2.700   7.101 -0.4345  0.6534 -0.6060
  442MOL0     C58267   8.434   2.645   7.209  0.0539  0.0550 -1.1366
  442MOL0     C58268   8.563   2.689   7.234 -0.8070  0.0876  0.6145
  442MOL0     C58269   8.637   2.745   7.141 -1.0449 -0.2846 -0.3992
  442MOL0     O58270   8.771   2.769   7.171  0.3833 -0.5105  0.2592
  442MOL0     C58271   8.866   2.692   7.101  0.7077 -0.4672  0.0933
  442MOL0     C58272   8.896   2.755   6.964 -0.4328  0.4275  0.0696
  442MOL0     C58273   8.915   2.913   6.973 -0.4808  0.2581 -0.9294
  442MOL0     C58274   9.034   2.962   7.069  0.2208  0.3801  0.5924
  442MOL0     C58275   9.153   2.883   7.023  0.1644 -0.5428  0.3730
  442MOL0     C58276   9.261   2.818   7.021 -0.8905  1.2517  0.5697
  442MOL0     C58277   8.570   2.793   7.030  0.1302 -0.3715  0.4057
  442MOL0     C58278   8.432   2.775   7.005 -0.6482 -0.2000 -0.0976
  442MOL0     H58279   7.944   2.585   6.995  0.3850 -1.0572  1.3757
  442MOL0     H58280   7.709   2.639   7.018  1.5144 -1.1231 -0.0502
  442MOL0     H58281   7.556   2.709   7.425 -0.1208  0.3674  0.3479
  442MOL0     H58282   7.430   2.771   7.316  0.9223 -0.8037  0.2080
  442MOL0     H58283   7.590   2.960   7.279  3.8846 -0.9895 -0.2374
  442MOL0     H58284   7.670   2.919   7.426  0.3092  0.0864  0.3333
  442MOL0     H58285   7.375   2.987   7.419  0.1923 -2.9162  0.8016
  442MOL0     H58286   7.492   3.093   7.465 -0.7287  0.6434 -0.7367
  442MOL0     H58287   7.422   2.820   7.594 -0.9117  0.0650 -0.3277
  442MOL0     H58288   7.568   2.909   7.634  0.6218 -3.8101 -0.6616
  442MOL0     H58289   7.445   3.107   7.704  0.5502 -0.4569 -0.3060
  442MOL0     H58290   7.412   2.960   7.802 -1.0011 -1.9915 -0.4969
  442MOL0     H58291   7.204   2.913   7.669 -0.4613  0.3554  1.4750
  442MOL0     H58292   7.215   3.075   7.603  2.3286 -0.1434 -0.4405
  442MOL0     H58293   7.187   2.979   7.878 -0.6166  0.0296  0.9025
  442MOL0     H58294   7.253   3.144   7.845  2.4494 -0.9174 -2.0395
  442MOL0     H58295   7.047   3.209   7.739  0.8604  0.4737  1.3712
  442MOL0     H58296   6.990   3.115   7.885 -0.3564  1.9759  0.2044
  442MOL0     H58297   6.943   2.849   7.860  0.6831  2.5973  1.1579
  442MOL0     H58298   6.748   2.674   7.579  2.7754 -0.6342 -0.2467
  442MOL0     H58299   6.648   2.755   7.708  0.6096  1.8536 -0.0164
  442MOL0     H58300   6.764   2.649   7.888  2.2060 -4.0816  2.6884
  442MOL0     H58301   6.893   2.606   7.785 -0.0565 -2.4296  0.9620
  442MOL0     H58302   6.605   2.505   7.752  0.6753  0.6668 -3.5459
  442MOL0     H58303   6.743   2.458   7.658 -0.0797  1.8948 -0.2510
  442MOL0     H58304   6.729   2.417   7.955  0.0011  4.3307 -2.0933
  442MOL0     H58305   6.864   2.364   7.845  0.5334 -0.8496  2.5471
  442MOL0     H58306   6.924   2.171   7.942  1.7318 -1.9791 -0.9791
  442MOL0     H58307   6.943   1.965   8.057  1.4203  3.2540 -2.6473
  442MOL0     H58308   6.658   1.496   7.942  1.0349 -0.4784 -0.1556
  442MOL0     H58309   6.684   1.252   8.034  1.0001 -0.4737  1.8523
  442MOL0     H58310   6.865   1.164   8.193 -0.9938  0.7255 -2.8323
  442MOL0     H58311   6.744   1.040   8.159 -3.0908 -0.8825  2.0309
  442MOL0     H58312   6.748   0.973   8.374 -0.3564 -1.2260 -2.7133
  442MOL0     H58313   6.879   1.067   8.425  1.5559 -1.5343  0.6788
  442MOL0     H58314   6.882   0.874   8.179 -0.0497  2.1329 -0.9828
  442MOL0     H58315   6.935   0.836   8.344 -3.1441  0.8184  1.1876
  442MOL0     H58316   7.114   1.054   8.286  0.2387 -1.1810  1.1937
  442MOL0     H58317   7.148   0.891   8.271 -0.6351  0.1290  2.9079
  442MOL0     H58318   6.995   1.061   8.050 -0.3480 -0.9670 -0.8672
  442MOL0     H58319   7.073   0.911   8.021  0.2049  0.9169 -0.5576
  442MOL0     H58320   7.300   1.016   8.085 -1.3372 -2.1741 -0.5188
  442MOL0     H58321   7.210   1.165   8.111  1.7450  0.6712 -0.2139
  442MOL0     H58322   7.249   1.008   7.846  0.4179  0.9699  0.2397
  442MOL0     H58323   7.102   1.104   7.862  0.1314 -2.6408 -3.2813
  442MOL0     H58324   7.384   1.216   7.895  0.1434  3.9450 -1.0035
  442MOL0     H58325   7.230   1.302   7.878 -3.0537 -1.3596  0.0759
  442MOL0     H58326   6.626   1.403   8.415  0.0310 -0.4948 -1.4275
  442MOL0     H58327   6.578   1.620   8.341  2.5480 -0.1234  1.2238
  442MOL0     H58328   6.540   1.862   7.951  0.9678 -1.8757 -0.8770
  442MOL0     H58329   6.519   2.072   7.844  0.0205 -0.4517  0.8814
  442MOL0     H58330   7.779   2.752   7.431 -1.0061  1.1479 -1.4193
  442MOL0     H58331   8.010   2.730   7.394  0.2760  0.1896 -0.3457
  442MOL0     H58332   8.383   2.593   7.290 -3.8271  4.4372 -0.3283
  442MOL0     H58333   8.602   2.674   7.334  0.4906 -1.6162 -0.1046
  442MOL0     H58334   8.826   2.593   7.078  3.1523 -1.5496  0.2298
  442MOL0     H58335   8.964   2.672   7.145  1.2676  0.6773 -0.6051
  442MOL0     H58336   8.984   2.716   6.912 -0.1611 -0.4046  1.1000
  442MOL0     H58337   8.812   2.729   6.900  1.4095 -0.9989 -1.9286
  442MOL0     H58338   8.821   2.955   7.011 -0.4102 -0.6045  0.2419
  442MOL0     H58339   8.918   2.965   6.877 -1.7940  0.8961 -0.6514
  442MOL0     H58340   9.048   3.070   7.059  1.8992  0.0196 -1.6689
  442MOL0     H58341   9.006   2.934   7.171 -2.5402 -1.2445 -0.4719
  442MOL0     H58342   9.353   2.763   7.017 -0.6873  1.6580 -2.3080
  442MOL0     H58343   8.634   2.844   6.959 -0.1491 -2.3341 -1.3494
  442MOL0     H58344   8.380   2.823   6.923  0.4544  3.0512  0.9699
  443MOL0     O58345   1.643   6.074   5.836  0.6260 -0.3195  0.5639
  443MOL0     C58346   1.606   5.961   5.800 -0.6075 -0.7569 -0.2589
  443MOL0     O58347   1.651   5.845   5.855  0.3525 -0.1577 -0.1754
  443MOL0     C58348   1.762   5.851   5.936  0.3902  0.4710  0.3753
  443MOL0     C58349   1.883   5.814   5.884 -0.8577 -0.2638  0.4021
  443MOL0     C58350   2.002   5.827   5.968  0.0818  0.3864  0.6275
  443MOL0     C58351   2.004   5.881   6.099 -1.2859  0.5731  0.2150
  443MOL0     O58352   2.122   5.880   6.164 -0.0434 -0.4512  0.2112
  443MOL0     C58353   2.111   5.877   6.305 -0.2293  0.3892  0.5397
  443MOL0     C58354   2.132   6.021   6.352 -0.3922  0.0301  0.7013
  443MOL0     C58355   2.278   6.058   6.369 -0.2766 -0.1281 -0.3084
  443MOL0     C58356   2.337   5.979   6.485  0.1824  0.9083 -0.0727
  443MOL0     C58357   2.443   6.063   6.560  0.1544  0.0095  0.3985
  443MOL0     C58358   2.465   6.017   6.698  0.0456  0.8772 -0.2964
  443MOL0     C58359   2.361   6.053   6.807  0.3242  0.3558  0.1400
  443MOL0     C58360   2.388   5.975   6.941  0.5248  0.5531 -0.0097
  443MOL0     N58361   2.297   6.004   7.055  0.4898  0.3015  0.1136
  443MOL0     C58362   2.160   6.006   7.049  0.1316 -1.4901  1.2248
  443MOL0     C58363   2.125   6.031   7.175  0.0413  0.7900  0.0257
  443MOL0     C58364   1.984   6.077   7.212  0.1329  0.3148  0.5176
  443MOL0     C58365   1.917   5.962   7.277  0.4535 -0.5857 -0.0837
  443MOL0     C58366   1.782   6.010   7.338 -0.3875  0.1878 -0.5681
  443MOL0     C58367   1.668   5.988   7.237  0.4326  0.6123 -0.8156
  443MOL0     O58368   1.691   6.072   7.130  0.6992 -0.3356  0.4350
  443MOL0     C58369   1.587   6.098   7.039 -0.2336  0.2609 -0.5503
  443MOL0     C58370   1.606   6.202   6.954 -0.9988  0.1083 -0.2538
  443MOL0     C58371   1.502   6.234   6.857 -0.9984  0.0888 -0.3951
  443MOL0     C58372   1.391   6.147   6.846  0.8868  0.7433 -0.5616
  443MOL0     C58373   1.296   6.172   6.737  0.5727 -1.1350  1.2327
  443MOL0     O58374   1.209   6.071   6.703  0.0782  0.1004  0.1294
  443MOL0     C58375   1.108   6.099   6.615 -1.0347  0.4264 -0.8069
  443MOL0     C58376   0.978   6.094   6.663 -0.2974 -0.2207 -0.5259
  443MOL0     C58377   0.871   6.142   6.581  0.4499 -0.6244  0.3565
  443MOL0     C58378   0.893   6.193   6.453 -0.3011 -0.6881 -0.1589
  443MOL0     O58379   0.798   6.229   6.355 -0.9711 -0.4834 -0.0765
  443MOL0     C58380   0.656   6.251   6.393 -0.3033 -0.2835  0.8204
  443MOL0     C58381   0.596   6.122   6.354  0.2262 -0.4489  0.1944
  443MOL0     C58382   0.451   6.152   6.306 -0.0338 -0.2245  0.5253
  443MOL0     C58383   0.455   6.180   6.155 -0.5685 -0.2948 -0.3440
  443MOL0     C58384   0.313   6.202   6.115  0.7172 -0.7005  0.0722
  443MOL0     C58385   0.316   6.264   5.975 -0.2160 -0.1468  0.5259
  443MOL0     C58386   0.384   6.178   5.856 -0.3710 -0.8020 -0.0863
  443MOL0     C58387   0.336   6.041   5.849 -0.1531 -0.0837 -0.3930
  443MOL0    Cl58388   0.162   6.038   5.836 -0.1690 -0.3908  0.2112
  443MOL0     C58389   1.024   6.205   6.404  0.6917  0.3711 -0.3813
  443MOL0     C58390   1.129   6.148   6.480 -0.4407  0.3630 -0.5656
  443MOL0     O58391   1.297   6.282   6.684 -0.0289  0.2562  0.4937
  443MOL0     C58392   1.382   6.041   6.931 -0.0720 -0.4185  0.6218
  443MOL0     C58393   1.477   6.019   7.029 -0.1310  0.1316  0.2750
  443MOL0     N58394   2.230   6.051   7.253 -0.5239  0.1147 -0.0857
  443MOL0     N58395   2.335   6.031   7.178  0.6113  0.8160 -0.6070
  443MOL0     C58396   1.875   5.909   6.144 -0.1378  0.2453 -0.1085
  443MOL0     C58397   1.755   5.890   6.061 -0.0285  0.0963 -0.5276
  443MOL0     C58398   1.499   5.940   5.700 -0.3893 -0.1141 -0.9216
  443MOL0     C58399   1.486   5.807   5.646 -0.9561  0.5735 -0.5239
  443MOL0     C58400   1.386   5.782   5.554  0.7914 -0.3787  0.0313
  443MOL0     C58401   1.289   5.881   5.515  0.0692 -0.8791  0.6104
  443MOL0     O58402   1.179   5.848   5.441 -0.3303  0.9178  0.0890
  443MOL0     C58403   1.082   5.934   5.390  0.1020 -0.0382 -0.0055
  443MOL0     C58404   1.004   5.872   5.273  0.9842 -0.4595  0.0319
  443MOL0     C58405   0.937   5.984   5.190  0.5996  0.0468 -0.1237
  443MOL0     C58406   0.897   5.935   5.057  1.1168 -0.3769  0.3562
  443MOL0     C58407   0.830   6.056   4.995  0.1305  0.2756 -0.9029
  443MOL0     C58408   0.784   6.166   4.958  0.2523 -0.1368  0.1592
  443MOL0     C58409   1.314   6.010   5.562 -0.4019 -0.9620 -0.5600
  443MOL0     C58410   1.406   6.033   5.654 -0.0759 -0.3602  0.4391
  443MOL0     H58411   1.901   5.775   5.785 -0.4914 -0.9159  0.7192
  443MOL0     H58412   2.089   5.778   5.927 -0.0640  0.9221 -0.3577
  443MOL0     H58413   2.199   5.817   6.329 -0.1543 -1.7316 -3.9979
  443MOL0     H58414   2.024   5.829   6.351  0.0484 -0.6678 -0.0139
  443MOL0     H58415   2.072   6.033   6.442  0.5482 -0.1019  1.3559
  443MOL0     H58416   2.094   6.102   6.289 -0.0824 -1.0446 -0.9493
  443MOL0     H58417   2.291   6.164   6.392 -1.7788 -0.1528  0.8410
  443MOL0     H58418   2.331   6.047   6.274  1.1900  2.1767  0.1916
  443MOL0     H58419   2.259   5.945   6.554 -0.0305  2.7309  0.6243
  443MOL0     H58420   2.387   5.887   6.452 -0.3853 -0.1054  1.7728
  443MOL0     H58421   2.416   6.168   6.574 -0.9475 -0.4136  1.6287
  443MOL0     H58422   2.536   6.052   6.502  0.8898  0.1069  1.5240
  443MOL0     H58423   2.559   6.065   6.728  1.5518 -2.7578  1.4740
  443MOL0     H58424   2.479   5.908   6.698 -2.2104  0.5264 -1.9366
  443MOL0     H58425   2.359   6.162   6.807 -0.6457  0.3633 -1.6435
  443MOL0     H58426   2.264   6.012   6.777 -0.7173  3.7318 -1.4960
  443MOL0     H58427   2.492   5.991   6.972  0.2785 -0.4000  1.3857
  443MOL0     H58428   2.374   5.868   6.925  1.6906  0.2036  1.1817
  443MOL0     H58429   2.097   6.008   6.960  0.4468  2.4378  0.9158
  443MOL0     H58430   1.930   6.109   7.123 -0.4025 -1.0982  0.3071
  443MOL0     H58431   1.992   6.157   7.286 -1.9818 -0.5949  1.8331
  443MOL0     H58432   1.972   5.926   7.364 -0.8171 -1.8773  0.2286
  443MOL0     H58433   1.883   5.878   7.215 -1.9224 -0.5206  0.9987
  443MOL0     H58434   1.770   5.966   7.438  1.6168  0.7208 -0.0526
  443MOL0     H58435   1.778   6.116   7.364  0.7612  0.4347 -1.3475
  443MOL0     H58436   1.577   6.025   7.285 -0.3734  0.6946 -2.3268
  443MOL0     H58437   1.647   5.884   7.210 -0.5592  1.3208 -2.9896
  443MOL0     H58438   1.702   6.253   6.960 -0.0692 -1.4030 -1.4326
  443MOL0     H58439   1.518   6.318   6.791  1.3557 -1.2042 -1.5721
  443MOL0     H58440   0.959   6.054   6.762  3.3359 -0.7583  0.0626
  443MOL0     H58441   0.769   6.126   6.615 -1.0437  1.6326 -2.5823
  443MOL0     H58442   0.619   6.332   6.328 -0.6420 -2.1388 -1.4394
  443MOL0     H58443   0.651   6.289   6.495  1.3968 -0.6093  1.0454
  443MOL0     H58444   0.593   6.059   6.443  3.2760  0.6946  1.2615
  443MOL0     H58445   0.661   6.066   6.286 -0.0544  0.8600 -1.2095
  443MOL0     H58446   0.399   6.234   6.357  1.1893  2.4692 -2.2249
  443MOL0     H58447   0.384   6.067   6.320  1.8990 -2.0048 -0.4272
  443MOL0     H58448   0.508   6.274   6.138 -1.4416  0.5901  1.5940
  443MOL0     H58449   0.498   6.099   6.094  0.6451  1.0232 -1.3029
  443MOL0     H58450   0.262   6.285   6.166  2.3496  3.4752 -4.3337
  443MOL0     H58451   0.247   6.116   6.124  1.1825 -1.2981 -1.8193
  443MOL0     H58452   0.371   6.358   5.974  0.7139 -0.5737  3.1364
  443MOL0     H58453   0.212   6.295   5.959 -0.6153 -0.7712  1.7311
  443MOL0     H58454   0.382   6.240   5.766  2.8519  0.4898  0.5578
  443MOL0     H58455   0.492   6.170   5.871 -0.4717 -1.9993  0.0908
  443MOL0     H58456   0.360   5.981   5.937 -2.7997  1.4396  1.5309
  443MOL0     H58457   0.365   5.993   5.755 -0.1810 -1.7530  0.4102
  443MOL0     H58458   1.036   6.242   6.303  1.9291 -1.1054 -0.8076
  443MOL0     H58459   1.229   6.161   6.438 -1.5160 -1.1852 -3.9636
  443MOL0     H58460   1.304   5.968   6.914  0.1917 -0.3316 -1.1267
  443MOL0     H58461   1.458   5.929   7.087 -0.3457 -0.6931 -1.0369
  443MOL0     H58462   1.860   5.952   6.243  0.2839 -1.7346  0.8631
  443MOL0     H58463   1.662   5.928   6.103  1.3224  3.6987 -0.4013
  443MOL0     H58464   1.553   5.726   5.671 -1.2117  0.1249 -1.2880
  443MOL0     H58465   1.369   5.679   5.523 -1.3199 -0.7974  2.2820
  443MOL0     H58466   1.136   6.020   5.348  0.6024  0.0602  0.7995
  443MOL0     H58467   1.019   5.980   5.467 -0.1395 -0.9221  0.3366
  443MOL0     H58468   1.074   5.815   5.211  0.8420 -0.1975 -0.3713
  443MOL0     H58469   0.930   5.803   5.314  1.0907  0.2490  1.4699
  443MOL0     H58470   1.007   6.066   5.171 -2.4504  2.4689 -1.9702
  443MOL0     H58471   0.857   6.035   5.245 -1.3358 -1.0998 -1.7462
  443MOL0     H58472   0.980   5.905   4.992  1.4676 -1.3143  1.2225
  443MOL0     H58473   0.829   5.850   5.057  2.5693 -1.6981 -2.3752
  443MOL0     H58474   0.744   6.250   4.905 -0.0765 -0.7598 -0.6035
  443MOL0     H58475   1.255   6.095   5.532  1.6113  0.3313 -1.0390
  443MOL0     H58476   1.411   6.128   5.707  2.6522 -1.1142  1.7063
  444MOL0     O58477   5.378  10.313   2.783  0.4668  0.9790 -0.4568
  444MOL0     C58478   5.344  10.285   2.670  0.0285 -0.5316 -0.3261
  444MOL0     O58479   5.246  10.353   2.599 -1.1226  0.5344  0.1719
  444MOL0     C58480   5.182  10.467   2.633  0.5568 -0.2480 -0.6045
  444MOL0     C58481   5.067  10.501   2.563  0.1666 -0.0739  0.3228
  444MOL0     C58482   4.994  10.620   2.602  0.4517  0.6647 -0.0207
  444MOL0     C58483   5.035  10.707   2.706  0.3815  0.0273 -0.3823
  444MOL0     O58484   4.961  10.819   2.743  0.1520  0.1476 -0.1054
  444MOL0     C58485   4.832  10.845   2.683 -0.2021  0.8371  0.2230
  444MOL0     C58486   4.792  10.986   2.721  0.5768 -0.1271 -0.4195
  444MOL0     C58487   4.647  11.024   2.684  0.2207  0.1382  0.0668
  444MOL0     C58488   4.535  10.949   2.759 -0.4290 -0.5324 -0.3993
  444MOL0     C58489   4.540  10.991   2.906  1.1034  0.2872  0.1276
  444MOL0     C58490   4.443  10.905   2.988 -0.2502  0.5613 -0.1263
  444MOL0     C58491   4.460  10.938   3.140  0.1342  0.3782 -0.8437
  444MOL0     C58492   4.366  10.856   3.228  1.0083  0.4810  0.9524
  444MOL0     N58493   4.227  10.899   3.233  0.0830 -1.0275 -0.0431
  444MOL0     C58494   4.185  11.028   3.252  0.6709 -0.8303  0.3188
  444MOL0     C58495   4.048  11.014   3.225 -1.0441 -0.1606  0.1426
  444MOL0     C58496   3.952  11.125   3.215  0.1541  1.0171  0.0197
  444MOL0     C58497   3.943  11.225   3.327 -0.2539  0.8243  0.0752
  444MOL0     C58498   3.891  11.168   3.460 -0.5882  0.8617 -0.9850
  444MOL0     C58499   3.771  11.075   3.444  0.5018  0.2485  0.1829
  444MOL0     O58500   3.723  11.044   3.573  0.1966  0.9491 -0.9468
  444MOL0     C58501   3.597  10.986   3.587  0.0784 -0.0835  0.0004
  444MOL0     C58502   3.560  10.949   3.711  0.0950  0.3181 -0.4156
  444MOL0     C58503   3.437  10.880   3.737 -0.2566  0.8046 -0.3903
  444MOL0     C58504   3.344  10.845   3.633 -0.2179 -0.7588  0.3553
  444MOL0     C58505   3.213  10.787   3.658 -0.1846  0.2969 -0.1941
  444MOL0     O58506   3.166  10.786   3.792  0.6705  0.9723  0.5625
  444MOL0     C58507   3.034  10.732   3.811  0.1386  0.7273  0.8894
  444MOL0     C58508   2.922  10.812   3.778  0.1309 -0.8114  0.1675
  444MOL0     C58509   2.785  10.769   3.796 -0.3201 -0.1465  0.3054
  444MOL0     C58510   2.761  10.639   3.831  1.5627 -0.3775  1.0752
  444MOL0     O58511   2.642  10.587   3.855  0.0863  0.3299 -0.0735
  444MOL0     C58512   2.529  10.661   3.898  0.3849  0.1153 -0.1646
  444MOL0     C58513   2.468  10.719   3.772 -0.5669  0.7001  0.4681
  444MOL0     C58514   2.321  10.682   3.761  0.9536 -0.7929  0.1203
  444MOL0     C58515   2.289  10.536   3.742 -0.0321  0.2251  0.2285
  444MOL0     C58516   2.143  10.501   3.757  0.6887  0.4366  0.2227
  444MOL0     C58517   2.064  10.544   3.884 -1.2774  0.1796  0.2593
  444MOL0     C58518   2.125  10.499   4.013  0.5095 -0.4484 -0.4733
  444MOL0     C58519   2.065  10.365   4.053  0.2518 -0.3797 -0.2765
  444MOL0    Cl58520   2.147  10.303   4.194 -0.1734  0.0837 -0.0965
  444MOL0     C58521   2.871  10.561   3.876 -1.9109 -0.3565 -0.9600
  444MOL0     C58522   3.011  10.607   3.859  0.4453  1.2623 -0.3615
  444MOL0     O58523   3.154  10.744   3.563 -0.6727  0.4962 -0.2419
  444MOL0     C58524   3.383  10.897   3.500 -0.2756  0.3293 -0.4085
  444MOL0     C58525   3.515  10.953   3.477  0.7894  0.5437  0.5984
  444MOL0     N58526   4.019  10.893   3.174  0.1146  0.6647 -0.5456
  444MOL0     N58527   4.129  10.815   3.176  0.0751  0.2386  0.1181
  444MOL0     C58528   5.153  10.670   2.775  0.9155 -0.0246  0.0411
  444MOL0     C58529   5.221  10.556   2.734 -0.0926 -0.1370 -0.0368
  444MOL0     C58530   5.403  10.175   2.598  0.0243  0.3151 -0.1023
  444MOL0     C58531   5.535  10.134   2.620 -0.0862 -0.0401 -0.4701
  444MOL0     C58532   5.596  10.025   2.550  1.0902 -0.4730 -0.2553
  444MOL0     C58533   5.520   9.969   2.444 -0.8238 -0.2740  0.4424
  444MOL0     O58534   5.590   9.876   2.384 -0.0015 -0.3018  0.2097
  444MOL0     C58535   5.529   9.811   2.269 -0.3910  0.1671 -0.9665
  444MOL0     C58536   5.635   9.726   2.203 -1.0289  0.1274  0.3035
  444MOL0     C58537   5.749   9.807   2.138  0.6325  0.4962 -1.1516
  444MOL0     C58538   5.811   9.736   2.008 -0.1664  0.2648 -0.2268
  444MOL0     C58539   5.918   9.818   1.951 -0.3380  0.3580  0.4976
  444MOL0     C58540   6.008   9.890   1.938 -0.1027 -0.0461  0.4094
  444MOL0     C58541   5.384  10.007   2.430 -0.7397  0.9768  0.3206
  444MOL0     C58542   5.329  10.102   2.500  1.1256  0.5306 -0.4104
  444MOL0     H58543   5.026  10.424   2.498 -3.4822  1.9296  0.0369
  444MOL0     H58544   4.898  10.632   2.554  0.7739  0.1665 -0.8050
  444MOL0     H58545   4.758  10.777   2.727  1.5439 -0.8865  0.6871
  444MOL0     H58546   4.837  10.841   2.574  2.3979  1.1903  0.2543
  444MOL0     H58547   4.859  11.049   2.661 -1.1074 -1.1183 -3.5567
  444MOL0     H58548   4.799  11.010   2.827 -0.6196 -1.3422 -0.0460
  444MOL0     H58549   4.629  11.011   2.577  0.3001  1.2964 -0.0964
  444MOL0     H58550   4.632  11.128   2.715 -3.5017  0.4061 -2.0203
  444MOL0     H58551   4.438  10.987   2.725  0.1234  3.3480  1.7453
  444MOL0     H58552   4.549  10.841   2.746 -1.2528 -1.1807  2.9853
  444MOL0     H58553   4.511  11.097   2.907  1.2142  0.3935 -2.6715
  444MOL0     H58554   4.641  10.964   2.938  0.2726 -1.1586  1.6474
  444MOL0     H58555   4.466  10.799   2.970 -0.6558  0.5996 -0.8733
  444MOL0     H58556   4.342  10.922   2.951 -0.4835  0.2001  0.3285
  444MOL0     H58557   4.563  10.911   3.163  0.7898  3.2114 -0.0665
  444MOL0     H58558   4.442  11.045   3.156  0.8554  0.8302 -2.8303
  444MOL0     H58559   4.414  10.858   3.326 -0.7756  2.4154  1.8632
  444MOL0     H58560   4.375  10.748   3.214  1.8307  0.5557  0.8634
  444MOL0     H58561   4.239  11.112   3.295 -1.5341 -0.0833  1.8314
  444MOL0     H58562   3.851  11.084   3.203  0.1385  1.2387 -0.6410
  444MOL0     H58563   3.978  11.189   3.131 -0.4801 -0.0034 -0.9903
  444MOL0     H58564   3.871  11.302   3.300 -0.8603  0.8803  1.7169
  444MOL0     H58565   4.041  11.272   3.338  1.5664 -2.6574  0.1146
  444MOL0     H58566   3.970  11.100   3.493 -2.0049  0.2853  1.5158
  444MOL0     H58567   3.877  11.242   3.539  2.5798 -1.3893  1.9860
  444MOL0     H58568   3.791  10.976   3.401 -2.5796  0.0122 -0.9723
  444MOL0     H58569   3.696  11.123   3.380 -0.4886 -1.7702 -0.2725
  444MOL0     H58570   3.623  10.965   3.798 -3.7724  0.5503  2.6235
  444MOL0     H58571   3.417  10.843   3.837  1.1406  2.2367  0.4705
  444MOL0     H58572   2.936  10.910   3.735 -0.5455 -2.3483 -4.0391
  444MOL0     H58573   2.715  10.848   3.768  1.9632  1.6645 -0.6634
  444MOL0     H58574   2.548  10.739   3.972  3.0720 -0.7480  0.1602
  444MOL0     H58575   2.454  10.600   3.950 -1.4462  2.8395  0.6218
  444MOL0     H58576   2.525  10.685   3.686 -1.7239 -0.8688  0.2601
  444MOL0     H58577   2.478  10.828   3.770  1.4258  0.5443 -0.4086
  444MOL0     H58578   2.282  10.736   3.674 -0.1591 -1.2918  0.2806
  444MOL0     H58579   2.265  10.712   3.850  0.5423  0.3240 -0.4878
  444MOL0     H58580   2.319  10.500   3.643 -0.2390  3.3005 -1.0636
  444MOL0     H58581   2.337  10.474   3.819 -2.5505  0.3325  1.9886
  444MOL0     H58582   2.141  10.392   3.754 -1.3826  0.3335  2.5396
  444MOL0     H58583   2.090  10.547   3.674  0.0639 -0.4736  0.1029
  444MOL0     H58584   1.959  10.513   3.874 -1.7179  1.8994 -0.9491
  444MOL0     H58585   2.070  10.654   3.890 -2.2053  0.4988 -2.9115
  444MOL0     H58586   2.234  10.498   4.005  0.5576  1.7982 -0.7703
  444MOL0     H58587   2.097  10.562   4.098  2.1802 -1.2101  0.6849
  444MOL0     H58588   2.084  10.302   3.966  2.2830 -2.2377  1.3854
  444MOL0     H58589   1.958  10.370   4.073  0.5805  0.3981  1.4306
  444MOL0     H58590   2.859  10.464   3.922 -3.1890 -0.9312 -2.4202
  444MOL0     H58591   3.104  10.562   3.891  1.8852  2.2354 -2.8313
  444MOL0     H58592   3.313  10.881   3.419 -0.3478 -2.0930  0.0705
  444MOL0     H58593   3.536  10.960   3.371 -1.3380 -1.0455  0.0014
  444MOL0     H58594   5.182  10.730   2.861 -2.5517 -0.4506  1.6963
  444MOL0     H58595   5.313  10.563   2.791  0.0191  1.5657 -0.3712
  444MOL0     H58596   5.596  10.205   2.675 -1.5070  2.5745 -2.0699
  444MOL0     H58597   5.700  10.001   2.565  0.3861 -2.8219  1.4753
  444MOL0     H58598   5.501   9.891   2.200  0.1939  0.5757 -0.7490
  444MOL0     H58599   5.444   9.752   2.304 -0.5869  1.6268  1.2163
  444MOL0     H58600   5.667   9.641   2.263  0.9503 -0.3304 -1.2864
  444MOL0     H58601   5.585   9.667   2.126 -0.6224 -0.9672  0.8671
  444MOL0     H58602   5.829   9.824   2.210  1.0599 -3.5871 -0.4028
  444MOL0     H58603   5.709   9.901   2.101  0.5992  2.1502  2.6938
  444MOL0     H58604   5.856   9.638   2.025  1.0312  0.2071 -3.1127
  444MOL0     H58605   5.721   9.718   1.948  0.7667  1.9226 -2.2552
  444MOL0     H58606   6.091   9.955   1.919 -0.4165  0.4214  0.6259
  444MOL0     H58607   5.327   9.949   2.358 -0.8959  1.1363  0.3151
  444MOL0     H58608   5.229  10.126   2.466  0.1064 -1.5881  0.8734
  445MOL0     O58609  10.083   9.700   7.118 -0.2506 -0.5828  0.2471
  445MOL0     C58610  10.079   9.750   7.236  0.4116  0.0983 -0.2918
  445MOL0     O58611  10.170   9.832   7.290  0.5797  0.6743  0.1376
  445MOL0     C58612  10.299   9.816   7.249  0.4006  0.1861  0.2547
  445MOL0     C58613  10.384   9.920   7.266 -0.0606  0.8556 -0.3639
  445MOL0     C58614  10.519   9.909   7.249 -0.3415 -0.3817 -0.0513
  445MOL0     C58615  10.566   9.782   7.212 -0.3427 -0.5485  0.4288
  445MOL0     O58616  10.703   9.787   7.205  0.3166  0.5280 -0.7127
  445MOL0     C58617  10.767   9.709   7.101 -0.8405  0.4481 -0.4942
  445MOL0     C58618  10.879   9.627   7.156  0.4912  0.4046 -0.0281
  445MOL0     C58619  10.813   9.505   7.222  0.0347 -0.7926  0.6933
  445MOL0     C58620  10.924   9.408   7.269  0.3991  0.3354  0.3869
  445MOL0     C58621  10.855   9.273   7.306  0.0723  0.9163  0.9477
  445MOL0     C58622  10.953   9.200   7.401 -0.0726 -1.2289 -0.2880
  445MOL0     C58623  11.086   9.160   7.332  0.0273 -0.1646 -0.2399
  445MOL0     C58624  11.172   9.047   7.391  0.3271 -0.6675  0.3523
  445MOL0     N58625  11.092   8.926   7.404 -0.1814 -0.6008  0.4523
  445MOL0     C58626  11.051   8.872   7.523 -0.1508  0.3862 -0.2081
  445MOL0     C58627  10.987   8.760   7.485 -1.0199 -0.9014 -0.1708
  445MOL0     C58628  10.924   8.650   7.571  0.3852  0.5342  0.5097
  445MOL0     C58629  10.937   8.502   7.514 -0.1664 -0.6886 -0.1293
  445MOL0     C58630  10.948   8.395   7.614 -0.0122  0.3299  0.4108
  445MOL0     C58631  10.818   8.396   7.690  1.3682 -0.8103  1.0478
  445MOL0     O58632  10.724   8.343   7.589 -0.7104 -0.3448 -0.3903
  445MOL0     C58633  10.602   8.300   7.633  0.5494 -0.2381  0.9884
  445MOL0     C58634  10.545   8.207   7.552 -0.6380  0.5823  0.4003
  445MOL0     C58635  10.416   8.169   7.573 -0.3475 -0.8022 -0.2672
  445MOL0     C58636  10.338   8.227   7.683 -0.1248  0.3940  0.2729
  445MOL0     C58637  10.198   8.194   7.701  0.5614 -0.0711 -0.2319
  445MOL0     O58638  10.143   8.116   7.595 -0.3893 -0.5726  0.1592
  445MOL0     C58639  10.017   8.077   7.618 -0.1130 -0.3397  0.2410
  445MOL0     C58640   9.989   7.953   7.676 -0.7623  0.5602 -0.6648
  445MOL0     C58641   9.852   7.924   7.694  0.3309 -0.5545  0.1032
  445MOL0     C58642   9.749   8.016   7.672 -0.8162  1.2101 -0.0210
  445MOL0     O58643   9.623   7.954   7.681  0.4097  0.0415 -0.2737
  445MOL0     C58644   9.508   8.037   7.648  0.5508 -0.5461 -0.1480
  445MOL0     C58645   9.470   8.035   7.498 -0.2226 -0.8685 -0.2586
  445MOL0     C58646   9.331   8.102   7.459 -0.1577 -0.4668 -0.6245
  445MOL0     C58647   9.212   8.027   7.514  0.0016 -0.4978 -0.2590
  445MOL0     C58648   9.085   8.101   7.485 -0.0243 -1.0647  0.3727
  445MOL0     C58649   8.965   8.018   7.510  0.0882 -0.0429 -0.3270
  445MOL0     C58650   8.940   7.997   7.657 -0.1016  0.1612 -0.5808
  445MOL0     C58651   8.790   7.986   7.689  1.2645  0.1956  0.2170
  445MOL0    Cl58652   8.771   7.940   7.857 -0.0624  0.2344  0.1510
  445MOL0     C58653   9.783   8.144   7.623 -0.8126 -0.0101  0.6726
  445MOL0     C58654   9.918   8.172   7.599 -0.1250 -0.2500  0.4755
  445MOL0     O58655  10.138   8.231   7.796  0.1232 -0.2088 -0.4858
  445MOL0     C58656  10.398   8.317   7.770 -0.5319 -0.2762 -0.2706
  445MOL0     C58657  10.533   8.346   7.749 -0.6417  0.2449  0.4398
  445MOL0     N58658  10.979   8.747   7.346  0.1505  0.3234 -0.0909
  445MOL0     N58659  11.041   8.849   7.306  1.0076 -0.5729  0.2551
  445MOL0     C58660  10.486   9.668   7.193  0.1670  0.6717  0.0681
  445MOL0     C58661  10.352   9.691   7.224 -0.4124  0.1349 -0.0775
  445MOL0     C58662   9.957   9.727   7.310 -0.3623 -0.1189 -0.1621
  445MOL0     C58663   9.930   9.804   7.430 -0.1293 -0.1357  0.8200
  445MOL0     C58664   9.809   9.778   7.495  0.3851 -0.1046 -0.2612
  445MOL0     C58665   9.711   9.695   7.448  0.2707 -0.8189 -0.3716
  445MOL0     O58666   9.603   9.691   7.533 -0.4751 -0.5063 -0.0532
  445MOL0     C58667   9.479   9.642   7.481 -0.2183 -0.4866  0.0940
  445MOL0     C58668   9.366   9.630   7.577 -0.1188 -0.2301  0.0620
  445MOL0     C58669   9.343   9.759   7.659 -0.0473 -0.2791  1.3346
  445MOL0     C58670   9.193   9.796   7.642  0.7816 -0.1229 -0.3389
  445MOL0     C58671   9.148   9.892   7.740 -0.3513 -0.8418  0.1331
  445MOL0     C58672   9.081  10.042   7.851 -0.6818  0.0132 -0.2415
  445MOL0     C58673   9.737   9.618   7.337  0.4223 -0.1059  0.2616
  445MOL0     C58674   9.855   9.640   7.265 -0.4089  0.1760 -0.0522
  445MOL0     H58675  10.345  10.015   7.301 -1.8255 -0.0190  0.1696
  445MOL0     H58676  10.577   9.996   7.277 -1.5650  1.0455 -1.7311
  445MOL0     H58677  10.820   9.788   7.046  1.6201 -1.7052 -1.4351
  445MOL0     H58678  10.707   9.655   7.027 -0.6477  0.7781 -0.8976
  445MOL0     H58679  10.948   9.682   7.221  0.5325  0.6502 -0.2757
  445MOL0     H58680  10.934   9.599   7.065 -2.7070  0.1392 -2.0353
  445MOL0     H58681  10.758   9.442   7.152  0.0682 -2.7679  2.3738
  445MOL0     H58682  10.753   9.533   7.309  0.1080  0.7859  0.2741
  445MOL0     H58683  10.983   9.376   7.183  1.8845 -0.9841  1.8157
  445MOL0     H58684  10.988   9.441   7.351 -0.9641  0.3544  1.4743
  445MOL0     H58685  10.822   9.221   7.215 -0.3200  2.6775  0.0386
  445MOL0     H58686  10.765   9.303   7.360 -1.9896 -1.8003 -0.7061
  445MOL0     H58687  10.913   9.099   7.413  0.6238 -1.5452 -0.5823
  445MOL0     H58688  10.979   9.253   7.493 -1.1919  1.6422 -1.5352
  445MOL0     H58689  11.052   9.118   7.237 -0.5605 -0.7342  0.2123
  445MOL0     H58690  11.143   9.252   7.317 -1.1814  0.1596 -3.4298
  445MOL0     H58691  11.216   9.083   7.484  2.3444  0.4052 -0.9446
  445MOL0     H58692  11.252   9.035   7.318 -0.3691 -0.2458 -0.5108
  445MOL0     H58693  11.079   8.897   7.625 -2.4640 -0.7462  0.7613
  445MOL0     H58694  10.818   8.673   7.565  0.0996 -0.6383  0.7371
  445MOL0     H58695  10.963   8.656   7.674 -0.4771  2.1210  0.7709
  445MOL0     H58696  11.031   8.504   7.459 -1.1106  0.5631 -1.8061
  445MOL0     H58697  10.857   8.490   7.441 -0.4850 -1.2129  0.2999
  445MOL0     H58698  10.962   8.298   7.566 -0.3601  0.7147 -0.4736
  445MOL0     H58699  11.031   8.411   7.683  0.3024 -0.6477  0.2817
  445MOL0     H58700  10.782   8.494   7.723  0.5490  0.8277 -3.9006
  445MOL0     H58701  10.816   8.326   7.774  0.7752 -1.7007  0.3105
  445MOL0     H58702  10.607   8.177   7.469 -0.2195  2.3456  0.0440
  445MOL0     H58703  10.382   8.092   7.504  2.1875 -1.2294 -1.1807
  445MOL0     H58704  10.068   7.882   7.699 -2.3324 -1.1283 -0.2823
  445MOL0     H58705   9.836   7.820   7.717  3.2103 -1.2981 -0.7934
  445MOL0     H58706   9.528   8.141   7.674  2.8604 -0.6176 -1.3879
  445MOL0     H58707   9.423   7.995   7.703 -1.0867  1.9492 -0.6403
  445MOL0     H58708   9.468   7.930   7.467 -1.2448 -0.5115 -1.5229
  445MOL0     H58709   9.546   8.077   7.432  0.9340 -2.4311  0.0250
  445MOL0     H58710   9.322   8.089   7.351  1.1438 -2.4366 -0.5331
  445MOL0     H58711   9.313   8.207   7.485 -1.3549 -1.1302  1.4006
  445MOL0     H58712   9.220   7.933   7.458  3.5128 -0.4104 -0.1437
  445MOL0     H58713   9.222   8.009   7.621  2.4445  2.6536  0.1853
  445MOL0     H58714   9.087   8.139   7.383  3.4320 -0.9413  0.3889
  445MOL0     H58715   9.073   8.190   7.549  1.3207 -1.8571  1.7752
  445MOL0     H58716   8.969   7.925   7.452 -3.6854 -0.2845 -0.4432
  445MOL0     H58717   8.871   8.064   7.477 -1.6213 -3.3425 -0.3990
  445MOL0     H58718   9.007   7.917   7.689  0.0536  0.6211  0.2903
  445MOL0     H58719   8.980   8.084   7.710 -1.0415  1.3794 -1.8015
  445MOL0     H58720   8.749   7.901   7.634  1.9269  0.7441 -1.1708
  445MOL0     H58721   8.740   8.081   7.667 -0.5193 -0.2253  2.1115
  445MOL0     H58722   9.703   8.204   7.581 -0.8192 -1.2760 -1.2476
  445MOL0     H58723   9.945   8.269   7.558 -1.1456 -0.1801 -0.0611
  445MOL0     H58724  10.350   8.376   7.848  0.8744  1.3694 -0.5864
  445MOL0     H58725  10.578   8.411   7.823  1.1227  0.3909 -0.7142
  445MOL0     H58726  10.539   9.574   7.178 -0.3644 -0.0601  2.3874
  445MOL0     H58727  10.297   9.598   7.235  0.6307 -0.4152  0.5751
  445MOL0     H58728  10.002   9.880   7.461 -1.0530  0.5232  1.4338
  445MOL0     H58729   9.792   9.815   7.596  0.6320 -0.8676  0.0644
  445MOL0     H58730   9.492   9.552   7.420 -2.1028  3.2741 -7.0557
  445MOL0     H58731   9.451   9.707   7.397  1.5450  2.0020  1.3059
  445MOL0     H58732   9.270   9.604   7.532  0.1645 -1.8088  0.3091
  445MOL0     H58733   9.387   9.539   7.634  0.8826 -2.0922 -3.0266
  445MOL0     H58734   9.409   9.835   7.616 -1.1369 -0.1752 -0.2298
  445MOL0     H58735   9.374   9.748   7.763 -0.2941  0.5381  1.5027
  445MOL0     H58736   9.174   9.834   7.541 -1.4118  4.0703  1.3630
  445MOL0     H58737   9.129   9.719   7.685  1.3133  0.0354  0.7585
  445MOL0     H58738   9.041  10.120   7.913 -1.0386 -0.0931 -0.3344
  445MOL0     H58739   9.665   9.544   7.302 -1.1116  1.9828 -1.2701
  445MOL0     H58740   9.875   9.595   7.169 -1.1446  2.8081 -1.5482
  446MOL0     O58741   7.834   9.246   4.583  0.2300 -0.7708  0.3012
  446MOL0     C58742   7.793   9.344   4.518  0.0607 -0.5838 -0.2599
  446MOL0     O58743   7.666   9.363   4.477 -0.1166  0.1105  1.5832
  446MOL0     C58744   7.558   9.276   4.475  0.4201 -0.0078 -0.1754
  446MOL0     C58745   7.426   9.331   4.485  0.3879 -0.2711 -0.4334
  446MOL0     C58746   7.318   9.258   4.473  0.3650 -0.4362  0.3222
  446MOL0     C58747   7.320   9.117   4.433  0.6070 -0.4120 -0.7144
  446MOL0     O58748   7.203   9.048   4.410  0.3089  0.1461  0.1223
  446MOL0     C58749   7.207   8.910   4.390 -0.5871  0.4699 -0.3050
  446MOL0     C58750   7.063   8.846   4.396 -0.5091 -0.2409  0.8424
  446MOL0     C58751   6.993   8.873   4.525 -0.2578 -0.0800 -0.0699
  446MOL0     C58752   6.846   8.841   4.507 -0.5264 -0.2728  0.0344
  446MOL0     C58753   6.769   8.836   4.641 -0.9947 -0.5117  0.5415
  446MOL0     C58754   6.624   8.828   4.607  1.1659  0.4668 -0.8937
  446MOL0     C58755   6.548   8.791   4.741  0.2840 -0.6256  0.6606
  446MOL0     C58756   6.397   8.802   4.720 -0.1713 -0.6782 -0.8106
  446MOL0     N58757   6.328   8.765   4.846  0.6243  0.4665 -0.0749
  446MOL0     C58758   6.196   8.727   4.845  0.3218 -0.2366  0.2873
  446MOL0     C58759   6.171   8.692   4.970  0.1049  0.4282 -0.1289
  446MOL0     C58760   6.034   8.663   5.028  0.1132  0.8862  0.3953
  446MOL0     C58761   6.031   8.646   5.180 -1.1912 -0.5631  0.1140
  446MOL0     C58762   5.933   8.541   5.227 -0.4029  0.0817  0.7805
  446MOL0     C58763   5.788   8.575   5.182 -0.0130 -0.4492  0.0080
  446MOL0     O58764   5.718   8.641   5.290  0.1245  0.1642 -0.4053
  446MOL0     C58765   5.575   8.639   5.288 -1.0804  0.0626 -0.6925
  446MOL0     C58766   5.496   8.582   5.186 -0.6653 -0.1711 -0.7197
  446MOL0     C58767   5.358   8.595   5.186  0.0896  0.6413  0.0637
  446MOL0     C58768   5.295   8.663   5.286  0.2825 -0.1000 -0.9877
  446MOL0     C58769   5.149   8.665   5.297  0.3551  0.0461 -0.3652
  446MOL0     O58770   5.091   8.684   5.420  0.3878  0.4618 -0.4698
  446MOL0     C58771   4.959   8.648   5.434 -0.3523  0.1342 -0.0118
  446MOL0     C58772   4.893   8.739   5.518 -0.7357  0.4434  0.1046
  446MOL0     C58773   4.763   8.711   5.564 -0.5324  0.4930  0.2649
  446MOL0     C58774   4.699   8.594   5.526  0.9794 -0.8896  0.1195
  446MOL0     O58775   4.564   8.566   5.553 -0.4620  0.0700  0.1040
  446MOL0     C58776   4.466   8.666   5.501  0.0569  0.3642  0.5817
  446MOL0     C58777   4.390   8.740   5.614 -0.5729  0.0156 -0.1333
  446MOL0     C58778   4.261   8.811   5.569  0.3247  0.0929 -0.5572
  446MOL0     C58779   4.192   8.876   5.686 -0.8726 -0.8143 -0.6862
  446MOL0     C58780   4.049   8.921   5.650  0.1414 -0.8926  0.3482
  446MOL0     C58781   3.985   9.016   5.753  0.6863 -0.2301  0.1778
  446MOL0     C58782   3.905   8.935   5.855  0.0334 -0.0821 -0.8008
  446MOL0     C58783   3.859   9.018   5.978  0.5869  0.8580  1.0869
  446MOL0    Cl58784   3.751   9.142   5.927 -0.2344 -0.1900 -0.2925
  446MOL0     C58785   4.770   8.499   5.443  0.8842  0.5998 -0.0613
  446MOL0     C58786   4.896   8.530   5.403 -0.1463  0.6386  0.7012
  446MOL0     O58787   5.086   8.666   5.192  0.0632 -0.1767 -0.0125
  446MOL0     C58788   5.369   8.713   5.393 -0.8920  0.6867 -0.1492
  446MOL0     C58789   5.508   8.704   5.389 -0.6727  0.6618 -0.1292
  446MOL0     N58790   6.284   8.704   5.043  0.2745  0.7192  0.0275
  446MOL0     N58791   6.371   8.753   4.971  0.3001  0.1649  0.4812
  446MOL0     C58792   7.457   9.060   4.430 -0.1140 -0.2992  0.1007
  446MOL0     C58793   7.569   9.136   4.452  0.0014 -0.5971 -0.4607
  446MOL0     C58794   7.878   9.461   4.490  0.1589 -0.6786 -0.3372
  446MOL0     C58795   7.831   9.560   4.398  0.3153 -0.5461 -0.6286
  446MOL0     C58796   7.909   9.665   4.357  0.2297  0.3533 -1.3546
  446MOL0     C58797   8.044   9.683   4.403 -0.6371  0.2863  0.1859
  446MOL0     O58798   8.100   9.804   4.381 -0.0985  0.4135  0.7499
  446MOL0     C58799   8.122   9.891   4.486 -0.7119  0.0175 -0.4102
  446MOL0     C58800   7.991   9.941   4.559 -0.3857 -0.7006 -0.3660
  446MOL0     C58801   8.045  10.033   4.671  0.4397 -0.0860  0.5980
  446MOL0     C58802   7.952  10.151   4.684 -0.6394 -0.5077  0.8455
  446MOL0     C58803   7.813  10.108   4.696  0.2149 -0.2991 -0.2976
  446MOL0     C58804   7.702  10.058   4.719 -0.4598  0.4782  0.0811
  446MOL0     C58805   8.093   9.587   4.489 -0.2451 -0.4069  0.2433
  446MOL0     C58806   8.009   9.482   4.541 -0.8570  0.8526 -0.8745
  446MOL0     H58807   7.413   9.439   4.481 -2.3007 -0.4195  1.5549
  446MOL0     H58808   7.221   9.307   4.473 -0.6117 -2.2961  0.4670
  446MOL0     H58809   7.267   8.874   4.474 -0.2844  4.2149  1.2704
  446MOL0     H58810   7.261   8.893   4.296  0.4235  1.5081  0.0590
  446MOL0     H58811   7.077   8.738   4.380  0.5307  0.2212 -1.8796
  446MOL0     H58812   6.999   8.886   4.317 -2.7289 -1.1102  2.1242
  446MOL0     H58813   6.990   8.974   4.567 -0.4727 -0.0301 -0.2024
  446MOL0     H58814   7.033   8.812   4.607 -2.0786  1.4343  2.0852
  446MOL0     H58815   6.799   8.916   4.443  1.5222 -0.0643 -1.2963
  446MOL0     H58816   6.845   8.748   4.449 -2.5305  0.8659 -1.9190
  446MOL0     H58817   6.776   8.931   4.696  0.9770 -1.2095  1.5718
  446MOL0     H58818   6.795   8.751   4.705 -0.5169 -1.5159 -0.9453
  446MOL0     H58819   6.595   8.752   4.534  0.1240  0.9566 -1.0048
  446MOL0     H58820   6.583   8.918   4.561 -1.1668 -0.6214 -1.1057
  446MOL0     H58821   6.569   8.685   4.756  0.2800 -0.3310  3.1301
  446MOL0     H58822   6.585   8.851   4.825 -1.5882  3.3266 -1.0479
  446MOL0     H58823   6.352   8.738   4.643 -0.9592  2.4425 -3.1641
  446MOL0     H58824   6.370   8.906   4.698  2.2171 -0.2198 -1.8425
  446MOL0     H58825   6.125   8.732   4.763  3.8149 -0.4649 -3.0483
  446MOL0     H58826   6.008   8.568   4.981  0.3559  1.2869 -0.5664
  446MOL0     H58827   5.966   8.741   4.994  1.4756  0.4027 -4.1642
  446MOL0     H58828   5.992   8.740   5.220  0.8728  1.6938 -2.7232
  446MOL0     H58829   6.134   8.640   5.216 -0.4210  1.2916 -1.5535
  446MOL0     H58830   5.948   8.447   5.172  1.7574  0.7921  0.0557
  446MOL0     H58831   5.943   8.533   5.335  2.7541  1.5693  0.7130
  446MOL0     H58832   5.740   8.480   5.157 -0.7596  0.3106 -1.6144
  446MOL0     H58833   5.795   8.621   5.083 -0.1336 -1.0980 -0.3101
  446MOL0     H58834   5.534   8.525   5.101 -1.2649 -1.5244 -0.1077
  446MOL0     H58835   5.306   8.571   5.094  1.8061 -0.6042 -0.6244
  446MOL0     H58836   4.947   8.828   5.549 -0.2677  0.6071 -1.0978
  446MOL0     H58837   4.708   8.785   5.622 -0.0645  2.5985 -1.8270
  446MOL0     H58838   4.406   8.599   5.439  2.0473 -0.6842 -0.3359
  446MOL0     H58839   4.519   8.735   5.434  0.9475 -1.7324 -1.0082
  446MOL0     H58840   4.449   8.818   5.663 -1.1403  0.8140 -0.6743
  446MOL0     H58841   4.364   8.656   5.679  2.1995 -1.2586 -0.5335
  446MOL0     H58842   4.187   8.741   5.529  1.5859 -0.9154 -1.1756
  446MOL0     H58843   4.278   8.885   5.491  0.3508 -1.2809 -1.9039
  446MOL0     H58844   4.195   8.811   5.774 -1.5054 -0.9946 -0.7897
  446MOL0     H58845   4.250   8.967   5.706 -1.1755 -0.2658 -2.1498
  446MOL0     H58846   3.989   8.833   5.625  1.3079 -1.9181  1.0228
  446MOL0     H58847   4.051   8.983   5.560  0.3291  2.4762  2.5013
  446MOL0     H58848   3.914   9.073   5.693  1.4913  0.7216  0.0978
  446MOL0     H58849   4.058   9.075   5.808  0.5648  1.0885 -1.0145
  446MOL0     H58850   3.813   8.904   5.804 -1.1134  1.1452  0.4398
  446MOL0     H58851   3.952   8.843   5.888  1.1887 -0.3119 -2.8924
  446MOL0     H58852   3.947   9.056   6.031 -0.5683  0.6551  3.2765
  446MOL0     H58853   3.795   8.959   6.044  0.5806  0.8182  1.0451
  446MOL0     H58854   4.708   8.417   5.406 -0.3094  1.5608 -0.2664
  446MOL0     H58855   4.954   8.459   5.344  2.5879  1.0068  2.7714
  446MOL0     H58856   5.314   8.762   5.472 -0.4562  3.9648 -1.6793
  446MOL0     H58857   5.574   8.754   5.459  1.8561 -0.9626 -1.2312
  446MOL0     H58858   7.463   8.954   4.410 -0.0995 -0.3234  0.2311
  446MOL0     H58859   7.668   9.093   4.447  1.0648  1.4631  1.2614
  446MOL0     H58860   7.736   9.552   4.345  0.4088 -1.1443 -0.7169
  446MOL0     H58861   7.870   9.740   4.288  0.6140 -0.0061 -1.9681
  446MOL0     H58862   8.190   9.970   4.454  1.1679 -1.8368 -1.2166
  446MOL0     H58863   8.197   9.850   4.555 -1.7378 -2.4543 -0.6590
  446MOL0     H58864   7.934  10.004   4.490 -1.1503 -1.5083 -0.4903
  446MOL0     H58865   7.935   9.853   4.592  0.7755 -0.7922  1.4701
  446MOL0     H58866   8.137  10.083   4.640 -0.7476  1.7962 -0.1541
  446MOL0     H58867   8.052   9.972   4.761 -1.2911 -2.4780 -0.7802
  446MOL0     H58868   7.983  10.207   4.773  1.6146 -2.2350  1.2632
  446MOL0     H58869   7.944  10.211   4.593  0.5240 -1.8990 -0.2285
  446MOL0     H58870   7.613  10.002   4.741  1.1116 -1.6635  1.4410
  446MOL0     H58871   8.193   9.600   4.529 -0.4695 -1.6411  1.2539
  446MOL0     H58872   8.046   9.412   4.615 -1.9392  2.6822  1.5101
  447MOL0     O58873   6.607   1.890   6.500  0.1521  0.0474  0.4016
  447MOL0     C58874   6.714   1.874   6.543 -0.1137 -0.0889 -1.0176
  447MOL0     O58875   6.744   1.862   6.676 -0.7547  0.4136  0.4625
  447MOL0     C58876   6.648   1.811   6.755  0.7373 -0.5112 -0.2084
  447MOL0     C58877   6.556   1.902   6.803  0.1690 -0.2384  0.6375
  447MOL0     C58878   6.445   1.844   6.876  0.0099  0.0597 -0.4035
  447MOL0     C58879   6.437   1.710   6.898 -0.2395  0.3692  0.1977
  447MOL0     O58880   6.337   1.669   6.978  0.1598 -0.0903  0.2136
  447MOL0     C58881   6.342   1.562   7.069 -0.8399 -0.1539  0.6570
  447MOL0     C58882   6.302   1.428   6.991 -0.3532  0.9833 -0.0373
  447MOL0     C58883   6.205   1.346   7.077  0.0948 -0.6631 -0.2740
  447MOL0     C58884   6.168   1.210   7.017  0.4967  0.9048 -0.5404
  447MOL0     C58885   6.069   1.129   7.110  1.2616 -0.1411 -0.2044
  447MOL0     C58886   6.136   1.079   7.248  0.0808 -0.4997  0.9589
  447MOL0     C58887   6.049   0.988   7.329 -0.7393 -0.0869 -0.2312
  447MOL0     C58888   6.115   0.961   7.465  0.8516 -0.1888 -0.0284
  447MOL0     N58889   6.064   0.840   7.527  0.3209  0.1489 -0.5916
  447MOL0     C58890   5.929   0.808   7.549 -1.0758 -0.5337 -0.6803
  447MOL0     C58891   5.936   0.679   7.581 -0.2824 -0.1458  0.0352
  447MOL0     C58892   5.818   0.595   7.625  0.2568 -0.2525 -0.6517
  447MOL0     C58893   5.712   0.555   7.524  0.2417  0.1269  0.0770
  447MOL0     C58894   5.615   0.445   7.567 -1.0699 -0.6219  0.9306
  447MOL0     C58895   5.474   0.486   7.529  0.3874  0.0217 -0.3544
  447MOL0     O58896   5.401   0.380   7.581  0.1439  0.2647  0.2139
  447MOL0     C58897   5.264   0.405   7.600  0.2170  0.1249 -0.5420
  447MOL0     C58898   5.190   0.503   7.534  0.4246  0.4403 -0.0169
  447MOL0     C58899   5.055   0.530   7.566  0.0411 -0.6667  0.0526
  447MOL0     C58900   4.986   0.453   7.657 -0.2517 -0.0028 -0.5218
  447MOL0     C58901   4.840   0.455   7.686  0.0514  0.2372  0.8859
  447MOL0     O58902   4.777   0.343   7.729  0.1564  0.0682  0.6589
  447MOL0     C58903   4.643   0.361   7.754  0.7603  0.5804 -0.7313
  447MOL0     C58904   4.597   0.443   7.854 -1.0213 -0.9773 -0.0460
  447MOL0     C58905   4.466   0.440   7.898 -0.2764 -0.4340 -0.3739
  447MOL0     C58906   4.368   0.373   7.829  0.8854  0.4299 -0.0585
  447MOL0     O58907   4.233   0.363   7.884 -0.7036  0.5281  0.0659
  447MOL0     C58908   4.201   0.370   8.022  0.2557 -0.1919  0.2446
  447MOL0     C58909   4.058   0.363   8.048  0.8055  0.3031  0.6286
  447MOL0     C58910   4.010   0.221   8.038 -0.4699 -0.1630  0.2520
  447MOL0     C58911   3.873   0.213   8.104  0.2389  0.1040 -0.1429
  447MOL0     C58912   3.827   0.075   8.133 -0.3356  0.4945  0.9268
  447MOL0     C58913   3.926  -0.021   8.198  0.1595  0.1451 -0.4891
  447MOL0     C58914   3.860  -0.151   8.244  0.0296 -1.2604  0.2115
  447MOL0     C58915   3.961  -0.256   8.261  0.2083  0.3814  0.1726
  447MOL0    Cl58916   3.882  -0.401   8.344 -0.2468 -0.1433 -0.2755
  447MOL0     C58917   4.404   0.297   7.719 -0.1057  0.4457 -0.3533
  447MOL0     C58918   4.545   0.292   7.679  0.6925 -0.7695 -0.1672
  447MOL0     O58919   4.786   0.561   7.656  0.0895  0.1508  0.4009
  447MOL0     C58920   5.056   0.348   7.717 -0.7162  0.6682  0.9162
  447MOL0     C58921   5.195   0.318   7.685  0.0337  0.7236 -0.5759
  447MOL0     N58922   6.066   0.620   7.568  0.8447 -0.4025 -0.0956
  447MOL0     N58923   6.145   0.725   7.543 -0.2652  0.5691 -0.5427
  447MOL0     C58924   6.536   1.616   6.854  0.5112  0.6556  0.0999
  447MOL0     C58925   6.641   1.674   6.782  0.2733 -0.3720  0.6172
  447MOL0     C58926   6.835   1.877   6.462 -0.2436 -0.0694  0.2267
  447MOL0     C58927   6.966   1.846   6.491 -0.6580  0.0143 -0.4453
  447MOL0     C58928   7.073   1.874   6.404  0.7367  0.3947  0.0229
  447MOL0     C58929   7.053   1.918   6.272  0.6318 -0.4732  0.3179
  447MOL0     O58930   7.160   1.949   6.201 -0.3375  0.4562  0.5313
  447MOL0     C58931   7.174   2.083   6.153 -0.7656  0.4503  0.6176
  447MOL0     C58932   7.288   2.101   6.052 -0.3003  0.1861  0.8509
  447MOL0     C58933   7.288   1.997   5.933  0.1406  0.1147 -0.2126
  447MOL0     C58934   7.361   1.866   5.970  0.4667  0.9303  0.6347
  447MOL0     C58935   7.399   1.782   5.857 -0.8236  0.1322  0.5687
  447MOL0     C58936   7.430   1.709   5.767 -0.2323  0.0087 -0.1028
  447MOL0     C58937   6.925   1.938   6.233  0.2640 -0.1975 -0.1262
  447MOL0     C58938   6.817   1.923   6.323  0.2519 -0.3057  0.3683
  447MOL0     H58939   6.558   2.008   6.777  3.0929 -0.6653 -1.2702
  447MOL0     H58940   6.364   1.913   6.900  0.2500  1.2484 -2.6318
  447MOL0     H58941   6.272   1.568   7.153  0.5114 -2.5824  2.0985
  447MOL0     H58942   6.440   1.558   7.119 -0.4810  1.3937  0.1308
  447MOL0     H58943   6.387   1.364   6.968 -2.0220 -1.7429  0.8706
  447MOL0     H58944   6.253   1.450   6.896 -0.9307  1.0324  0.2664
  447MOL0     H58945   6.111   1.399   7.092  0.9365  0.0149  3.4193
  447MOL0     H58946   6.261   1.338   7.170 -1.1699  1.7974  0.7807
  447MOL0     H58947   6.122   1.214   6.919  0.4942  1.8249 -0.5136
  447MOL0     H58948   6.258   1.150   7.000  0.0966 -0.0046  0.4627
  447MOL0     H58949   6.028   1.042   7.057  0.6698  0.3387 -0.5466
  447MOL0     H58950   5.986   1.199   7.124  1.2505  0.2190 -1.8781
  447MOL0     H58951   6.164   1.175   7.293 -2.0525  2.2067 -2.8518
  447MOL0     H58952   6.220   1.020   7.212 -0.3166  0.2144 -1.3538
  447MOL0     H58953   5.956   1.044   7.346 -0.1912  0.8567 -0.2806
  447MOL0     H58954   6.029   0.896   7.274  1.9388 -1.6358  1.2243
  447MOL0     H58955   6.100   1.048   7.529 -2.1938 -1.7448  1.6409
  447MOL0     H58956   6.222   0.941   7.464  0.2758 -3.9807 -0.3563
  447MOL0     H58957   5.831   0.852   7.535 -1.7887 -1.9604 -0.4063
  447MOL0     H58958   5.775   0.656   7.705 -0.3144 -1.0059 -0.3742
  447MOL0     H58959   5.860   0.504   7.669 -2.9672 -1.9061 -0.6627
  447MOL0     H58960   5.779   0.521   7.444 -0.8569 -0.9229 -0.4220
  447MOL0     H58961   5.668   0.649   7.489 -1.1225 -0.1234  1.0551
  447MOL0     H58962   5.648   0.354   7.515  0.6709  0.7500 -0.4949
  447MOL0     H58963   5.628   0.436   7.675 -0.5057 -1.7611  0.7893
  447MOL0     H58964   5.458   0.494   7.421 -1.0526  0.8082 -0.1105
  447MOL0     H58965   5.446   0.587   7.558 -0.1436  0.1233 -1.1775
  447MOL0     H58966   5.234   0.555   7.449 -0.5981  0.2977 -0.6469
  447MOL0     H58967   5.008   0.612   7.512  0.1409 -1.1517 -0.7832
  447MOL0     H58968   4.670   0.508   7.900 -1.6982  0.3429 -0.7700
  447MOL0     H58969   4.444   0.506   7.982  0.5225  1.2142 -1.4017
  447MOL0     H58970   4.240   0.467   8.054  0.9866  0.7293 -3.0487
  447MOL0     H58971   4.249   0.285   8.071  0.0545 -0.4451  0.0099
  447MOL0     H58972   4.014   0.418   7.965 -0.9916 -3.3397 -1.0718
  447MOL0     H58973   4.030   0.403   8.146 -1.1605 -3.0417  1.6143
  447MOL0     H58974   4.081   0.148   8.077  1.1830  1.5635  0.6664
  447MOL0     H58975   4.002   0.202   7.931  0.4934 -0.5092  0.2352
  447MOL0     H58976   3.872   0.266   8.199  2.3527 -1.4599  0.8591
  447MOL0     H58977   3.805   0.266   8.037  2.8303  0.7982 -2.4460
  447MOL0     H58978   3.803   0.031   8.036 -1.3830  2.1047  0.4177
  447MOL0     H58979   3.733   0.076   8.188 -1.2760  0.2129 -0.6253
  447MOL0     H58980   3.981   0.018   8.285 -0.3623 -1.8497  0.8187
  447MOL0     H58981   3.999  -0.045   8.120  1.4838  0.7061  0.5346
  447MOL0     H58982   3.804  -0.133   8.337  0.0808 -0.3649  0.0768
  447MOL0     H58983   3.790  -0.182   8.166  0.1150 -1.2742  0.1419
  447MOL0     H58984   4.039  -0.228   8.333  1.0682  0.9069 -0.9464
  447MOL0     H58985   3.999  -0.290   8.165 -2.0161  1.5128 -1.1910
  447MOL0     H58986   4.323   0.245   7.669 -0.8310  0.4636  0.7679
  447MOL0     H58987   4.572   0.231   7.594 -0.2876 -0.3603 -0.7855
  447MOL0     H58988   5.007   0.293   7.796  0.1401  0.2254  1.1589
  447MOL0     H58989   5.254   0.234   7.721 -0.0535  0.9781  0.1760
  447MOL0     H58990   6.542   1.511   6.879  2.2068 -0.0771 -2.8578
  447MOL0     H58991   6.723   1.619   6.737  0.8381 -1.4084  2.7988
  447MOL0     H58992   6.988   1.822   6.595  0.7368  4.6060  0.5597
  447MOL0     H58993   7.175   1.855   6.437  3.2234  0.7151 -6.1618
  447MOL0     H58994   7.197   2.151   6.236 -0.9698  0.4051  0.7110
  447MOL0     H58995   7.077   2.115   6.114 -1.7772 -1.3243  1.5244
  447MOL0     H58996   7.291   2.205   6.021 -0.6077  0.9556  3.1585
  447MOL0     H58997   7.377   2.085   6.115 -0.1361  3.3251  1.5570
  447MOL0     H58998   7.334   2.042   5.845 -2.1848  2.8376 -0.1468
  447MOL0     H58999   7.183   1.979   5.909  0.2391  0.1224 -0.6467
  447MOL0     H59000   7.453   1.888   6.026  1.3075  0.4150 -0.4864
  447MOL0     H59001   7.301   1.810   6.043  1.9035  0.4022  1.4645
  447MOL0     H59002   7.456   1.652   5.679  0.5059  2.9184 -1.9012
  447MOL0     H59003   6.916   1.971   6.130  0.8236 -0.3493 -0.2260
  447MOL0     H59004   6.716   1.937   6.287  0.5865 -1.7198 -1.2453
  448MOL0     O59005   4.855   9.706   7.079 -0.4033 -0.7126 -0.4926
  448MOL0     C59006   4.955   9.727   7.149  0.7620 -0.6707 -0.6187
  448MOL0     O59007   4.949   9.789   7.274  0.1031  0.3587  0.0623
  448MOL0     C59008   4.845   9.826   7.341  0.7311  0.6323 -1.0871
  448MOL0     C59009   4.857   9.940   7.429  0.0525  0.6932 -0.3589
  448MOL0     C59010   4.740   9.997   7.487 -0.3197  0.2365  0.2489
  448MOL0     C59011   4.614   9.935   7.473 -0.0451  0.4787  0.0741
  448MOL0     O59012   4.507   9.987   7.547 -0.0683  0.1615 -0.0516
  448MOL0     C59013   4.378   9.938   7.529 -0.2191  0.4324  0.1826
  448MOL0     C59014   4.282  10.024   7.616 -0.4279  0.9294 -0.2888
  448MOL0     C59015   4.295  10.008   7.764 -1.0099 -0.7543 -0.5086
  448MOL0     C59016   4.254   9.867   7.810  1.2032  0.5701 -0.0315
  448MOL0     C59017   4.232   9.865   7.965  0.4433 -0.3992  0.4645
  448MOL0     C59018   4.168   9.726   8.001 -0.6321  0.3006 -0.1495
  448MOL0     C59019   4.278   9.620   8.034  0.6836  0.2025 -0.3513
  448MOL0     C59020   4.320   9.638   8.179  0.5319 -0.6624 -0.0247
  448MOL0     N59021   4.430   9.545   8.212  0.7580 -0.4576 -0.7478
  448MOL0     C59022   4.562   9.568   8.209 -0.6793  0.0983 -0.2326
  448MOL0     C59023   4.617   9.459   8.269 -0.6121 -0.3412 -0.7409
  448MOL0     C59024   4.761   9.440   8.292 -0.6173 -0.9337  0.9351
  448MOL0     C59025   4.821   9.396   8.153  0.4679 -0.0637  0.1374
  448MOL0     C59026   4.945   9.316   8.161 -0.0865  0.3198 -0.5172
  448MOL0     C59027   5.060   9.407   8.200  0.5183 -0.2238  0.8381
  448MOL0     O59028   5.095   9.495   8.090  0.7016  0.9071  0.2828
  448MOL0     C59029   5.207   9.563   8.084 -0.2035  0.7205 -1.1837
  448MOL0     C59030   5.286   9.596   8.196  0.5149 -1.1742  0.5457
  448MOL0     C59031   5.409   9.652   8.176 -0.1352  0.2212 -0.3879
  448MOL0     C59032   5.448   9.681   8.051 -0.6576  0.5535  0.0366
  448MOL0     C59033   5.590   9.721   8.029 -0.2583  0.5156 -0.3737
  448MOL0     O59034   5.635   9.689   7.903  0.4603  0.4780  0.7590
  448MOL0     C59035   5.773   9.717   7.884 -0.0978 -0.4788  0.8455
  448MOL0     C59036   5.815   9.853   7.855  0.7228 -0.0545 -0.3879
  448MOL0     C59037   5.944   9.888   7.821 -0.0824 -0.1281 -0.3180
  448MOL0     C59038   6.036   9.787   7.832 -0.1426  0.5636  0.2267
  448MOL0     O59039   6.170   9.808   7.814 -0.1001  0.3106 -0.2116
  448MOL0     C59040   6.212   9.894   7.710  0.2466 -0.2412  0.0351
  448MOL0     C59041   6.363   9.886   7.677 -0.5967 -0.3463 -0.4526
  448MOL0     C59042   6.444   9.950   7.791  0.3129 -0.1066 -0.2185
  448MOL0     C59043   6.592   9.923   7.775 -0.1039  0.3425 -0.6804
  448MOL0     C59044   6.682  10.020   7.845  0.0524 -0.0414  0.2011
  448MOL0     C59045   6.829  10.001   7.841 -0.4007  0.5462  0.1195
  448MOL0     C59046   6.901  10.023   7.704  0.3565  0.3955 -1.1432
  448MOL0     C59047   7.055  10.023   7.736  0.4936  0.2019 -0.1496
  448MOL0    Cl59048   7.109  10.139   7.860  0.0842 -0.0436 -0.0133
  448MOL0     C59049   5.999   9.661   7.864  0.1248 -0.0061  0.0535
  448MOL0     C59050   5.868   9.623   7.895  0.4977 -0.4648  0.6466
  448MOL0     O59051   5.664   9.759   8.125  0.5512  0.6562  0.3059
  448MOL0     C59052   5.379   9.663   7.940 -0.5171  0.0910 -0.4363
  448MOL0     C59053   5.251   9.607   7.958 -0.4956  0.8500 -0.0842
  448MOL0     N59054   4.520   9.372   8.309  0.5850  0.3979  0.0360
  448MOL0     N59055   4.408   9.415   8.265  0.1830  0.2997 -0.7848
  448MOL0     C59056   4.606   9.819   7.395 -0.1945  0.0139  0.4880
  448MOL0     C59057   4.717   9.765   7.338 -0.9896 -0.7212  0.1439
  448MOL0     C59058   5.079   9.668   7.098 -0.4187 -0.7397 -0.2312
  448MOL0     C59059   5.079   9.574   6.998  0.6150  0.6217 -0.7215
  448MOL0     C59060   5.190   9.523   6.946  0.0771 -0.1886  0.0751
  448MOL0     C59061   5.319   9.570   6.981 -1.7464 -0.1972 -0.6402
  448MOL0     O59062   5.432   9.536   6.906 -0.4432  0.0428 -0.9866
  448MOL0     C59063   5.548   9.619   6.930 -0.3809 -0.2937  1.1028
  448MOL0     C59064   5.656   9.564   6.831  0.5093 -0.3618 -0.0017
  448MOL0     C59065   5.796   9.615   6.850  0.5741  0.9151  0.2576
  448MOL0     C59066   5.831   9.736   6.770 -0.2979  0.5283 -0.4743
  448MOL0     C59067   5.976   9.766   6.771  0.4529 -0.6467  0.8277
  448MOL0     C59068   6.092   9.793   6.736  0.3852  0.2110 -0.0868
  448MOL0     C59069   5.321   9.676   7.078 -0.7243 -0.6444  0.6805
  448MOL0     C59070   5.204   9.717   7.141 -0.6148 -0.2976 -0.6594
  448MOL0     H59071   4.950   9.996   7.431  0.6169 -0.2093 -0.3954
  448MOL0     H59072   4.750  10.084   7.551  1.8787 -0.4455  0.9340
  448MOL0     H59073   4.386   9.836   7.568  4.5380 -0.4388 -2.2870
  448MOL0     H59074   4.347   9.940   7.424 -1.0087  1.3505  0.4255
  448MOL0     H59075   4.181  10.001   7.583  0.0967 -0.2155 -1.1440
  448MOL0     H59076   4.300  10.129   7.587 -0.7115  1.2321  0.6079
  448MOL0     H59077   4.222  10.082   7.798 -1.3367 -0.6631 -1.3625
  448MOL0     H59078   4.396  10.038   7.791 -0.9130 -1.9365  0.5376
  448MOL0     H59079   4.160   9.840   7.761 -0.3519  1.8080  2.0860
  448MOL0     H59080   4.339   9.802   7.786  2.6006  0.8895  3.5283
  448MOL0     H59081   4.154   9.939   7.982 -0.5568 -0.9364 -1.4798
  448MOL0     H59082   4.327   9.887   8.015  0.0584 -2.6711  2.3213
  448MOL0     H59083   4.102   9.699   7.918  2.4911  0.4687 -2.8721
  448MOL0     H59084   4.108   9.725   8.092  0.2965  2.1772  0.5263
  448MOL0     H59085   4.239   9.518   8.032 -1.4019  0.8731  1.5717
  448MOL0     H59086   4.367   9.629   7.970 -0.4788  0.5843 -1.9818
  448MOL0     H59087   4.233   9.609   8.239 -1.1620  0.3127 -1.9001
  448MOL0     H59088   4.339   9.743   8.203 -1.1631 -0.5769  1.1332
  448MOL0     H59089   4.598   9.664   8.175  2.7258 -1.7535 -2.5022
  448MOL0     H59090   4.785   9.356   8.358  3.1740 -1.1466 -0.4173
  448MOL0     H59091   4.814   9.525   8.335 -0.2538 -0.6142 -0.0896
  448MOL0     H59092   4.840   9.487   8.094  0.8019 -1.4614 -2.0206
  448MOL0     H59093   4.754   9.324   8.105 -0.2584 -0.1242  1.2061
  448MOL0     H59094   4.942   9.224   8.219  1.4627  0.5579  0.0039
  448MOL0     H59095   4.965   9.273   8.063  0.0333 -0.7078 -0.0578
  448MOL0     H59096   5.142   9.343   8.235 -0.3098  0.0359  3.4387
  448MOL0     H59097   5.030   9.464   8.288  1.3757  3.5646 -1.0974
  448MOL0     H59098   5.253   9.575   8.297 -1.3898  1.6746  0.6268
  448MOL0     H59099   5.470   9.670   8.264  0.3717  3.4197 -1.2902
  448MOL0     H59100   5.735   9.926   7.867 -1.3903 -2.0461 -1.4810
  448MOL0     H59101   5.971   9.988   7.791  3.2525 -0.2728  1.7137
  448MOL0     H59102   6.186   9.996   7.737  0.6348 -0.8746  3.2472
  448MOL0     H59103   6.158   9.863   7.619  1.8530  3.1843 -2.2894
  448MOL0     H59104   6.369   9.935   7.580 -0.8263 -1.0126 -0.8085
  448MOL0     H59105   6.383   9.779   7.672 -0.3237 -0.6178  3.4035
  448MOL0     H59106   6.414   9.915   7.890  0.0437 -1.8238 -0.8764
  448MOL0     H59107   6.425  10.057   7.782  2.0640  0.2861  0.2690
  448MOL0     H59108   6.598   9.825   7.823 -3.2874 -1.0892 -2.8590
  448MOL0     H59109   6.614   9.897   7.671  2.1000 -4.2009  0.6795
  448MOL0     H59110   6.660  10.015   7.952  0.6262 -0.3589  0.3065
  448MOL0     H59111   6.657  10.114   7.795  1.3184 -0.6729 -1.7295
  448MOL0     H59112   6.852   9.910   7.897 -2.4870 -1.0271 -1.4281
  448MOL0     H59113   6.866  10.084   7.902 -0.2014 -0.6636  1.7188
  448MOL0     H59114   6.877   9.948   7.627  2.1431 -0.8154 -0.5885
  448MOL0     H59115   6.867  10.118   7.662 -1.2006  1.0749  1.3991
  448MOL0     H59116   7.102  10.052   7.642 -0.9622  3.2332 -0.0701
  448MOL0     H59117   7.095   9.925   7.762 -0.8647 -0.3583 -0.0776
  448MOL0     H59118   6.080   9.588   7.865 -0.8573 -1.2774 -2.9272
  448MOL0     H59119   5.844   9.520   7.921 -2.0809 -0.3493 -1.0026
  448MOL0     H59120   5.409   9.702   7.843 -3.0122  1.2049 -0.8463
  448MOL0     H59121   5.188   9.590   7.871 -0.0046 -0.2352 -0.2444
  448MOL0     H59122   4.514   9.763   7.381 -0.6431  1.3029 -2.7051
  448MOL0     H59123   4.705   9.669   7.288 -0.4724  0.2246 -1.9181
  448MOL0     H59124   4.990   9.537   6.950  1.1848 -0.7672 -0.7492
  448MOL0     H59125   5.185   9.439   6.877  1.0147 -2.0354  2.1441
  448MOL0     H59126   5.579   9.622   7.035  2.3553  1.8240  0.3332
  448MOL0     H59127   5.537   9.725   6.905 -0.0904 -0.8746 -1.8547
  448MOL0     H59128   5.656   9.455   6.836 -1.0074 -0.5581 -2.6607
  448MOL0     H59129   5.623   9.588   6.730  0.7677  5.1338  0.8977
  448MOL0     H59130   5.875   9.539   6.847 -1.8997 -1.8301  0.3302
  448MOL0     H59131   5.794   9.640   6.956  0.6161  0.2918  0.4082
  448MOL0     H59132   5.791   9.724   6.668 -1.8881  0.1400  0.1593
  448MOL0     H59133   5.785   9.824   6.816  2.0039  1.3779  0.2931
  448MOL0     H59134   6.187   9.827   6.702  1.9847 -2.3722  1.4654
  448MOL0     H59135   5.414   9.724   7.104  0.5895 -3.9396  2.6387
  448MOL0     H59136   5.208   9.794   7.217  0.4062 -2.3761  1.5630
  449MOL0     O59137   2.520   1.163   9.964  0.8632  0.6122 -0.5216
  449MOL0     C59138   2.586   1.080  10.022 -0.4023 -0.6953 -0.0640
  449MOL0     O59139   2.542   1.009  10.129 -0.0385 -0.2599  0.3252
  449MOL0     C59140   2.409   1.012  10.142  0.3579  0.4421 -0.2500
  449MOL0     C59141   2.318   0.946  10.056 -0.7003 -0.6880  0.1035
  449MOL0     C59142   2.177   0.950  10.072  0.2975 -0.2005 -0.2850
  449MOL0     C59143   2.125   1.036  10.164  0.2875 -0.3525  0.1496
  449MOL0     O59144   1.991   1.059  10.191 -0.7641 -0.7892  0.9816
  449MOL0     C59145   1.896   1.000  10.093  0.4495 -0.1994  0.1585
  449MOL0     C59146   1.761   1.072  10.097 -0.5596 -0.9351 -0.3114
  449MOL0     C59147   1.661   1.011   9.999  0.4046 -0.3904 -0.5050
  449MOL0     C59148   1.524   1.088   9.973 -0.7300  0.0252  0.3528
  449MOL0     C59149   1.415   0.991  10.029 -0.0015  0.0462 -0.4936
  449MOL0     C59150   1.379   0.886   9.926 -1.3412  0.9390 -0.1003
  449MOL0     C59151   1.326   0.761   9.998  0.5778  0.3237 -0.4492
  449MOL0     C59152   1.177   0.776  10.048 -0.0823  0.6168  0.1746
  449MOL0     N59153   1.146   0.672  10.147  0.7449  0.5610  1.4596
  449MOL0     C59154   1.178   0.532  10.141 -0.0805 -0.2763  0.1456
  449MOL0     C59155   1.133   0.487  10.258 -0.3922  0.2788  0.1006
  449MOL0     C59156   1.142   0.347  10.308  0.1126 -0.2017  0.3700
  449MOL0     C59157   1.036   0.248  10.251 -0.3672 -0.2776 -0.2027
  449MOL0     C59158   0.893   0.275  10.283  0.4000 -0.4314 -0.8634
  449MOL0     C59159   0.848   0.270  10.431 -0.4473 -0.6620  0.9843
  449MOL0     O59160   0.706   0.280  10.429  0.3825 -0.1945  0.3194
  449MOL0     C59161   0.624   0.301  10.542 -0.3208  0.3824 -0.9362
  449MOL0     C59162   0.485   0.281  10.545 -0.5908 -0.3973  1.5707
  449MOL0     C59163   0.402   0.313  10.647 -0.1845  0.2957  0.2538
  449MOL0     C59164   0.458   0.358  10.769 -0.1256  0.4209  0.3785
  449MOL0     C59165   0.373   0.383  10.889 -0.8127 -0.6460  0.3459
  449MOL0     O59166   0.427   0.455  10.992  0.0146 -0.1815 -0.5316
  449MOL0     C59167   0.350   0.477  11.096  0.0169 -0.9864 -0.5896
  449MOL0     C59168   0.292   0.378  11.181 -0.5006 -0.7420  0.2731
  449MOL0     C59169   0.218   0.414  11.296 -0.5784 -0.1187  0.6178
  449MOL0     C59170   0.184   0.545  11.322 -0.0490 -0.4775 -0.1999
  449MOL0     O59171   0.088   0.571  11.419 -0.2518  0.6777 -0.0694
  449MOL0     C59172   0.031   0.704  11.423  0.6426  0.4568 -0.5684
  449MOL0     C59173  -0.030   0.730  11.564  0.3026  0.2925 -0.5071
  449MOL0     C59174  -0.112   0.860  11.575  0.4481  1.0645 -0.6593
  449MOL0     C59175  -0.042   0.984  11.528 -0.5074 -0.6544 -0.4717
  449MOL0     C59176  -0.079   1.110  11.606 -0.1113  0.0291  0.3280
  449MOL0     C59177  -0.202   1.176  11.539  0.8283 -0.1282  0.1622
  449MOL0     C59178  -0.282   1.283  11.606  0.8630 -0.2456 -0.2027
  449MOL0     C59179  -0.427   1.286  11.569  0.3281 -0.4988  0.2576
  449MOL0    Cl59180  -0.516   1.397  11.668  0.3636  0.0392  0.1506
  449MOL0     C59181   0.241   0.640  11.235  0.6021  0.7415 -0.0788
  449MOL0     C59182   0.322   0.606  11.128  0.8525  0.0595 -0.0599
  449MOL0     O59183   0.261   0.328  10.885 -0.6717 -0.2048 -0.2768
  449MOL0     C59184   0.601   0.373  10.770 -0.0758  0.2146 -0.0261
  449MOL0     C59185   0.675   0.353  10.660 -0.9211  0.3087  0.2679
  449MOL0     N59186   1.073   0.588  10.329 -0.2876 -0.5059 -0.1529
  449MOL0     N59187   1.085   0.699  10.259  0.0894  0.0623 -0.1279
  449MOL0     C59188   2.210   1.112  10.246 -0.2573 -0.8412 -0.8262
  449MOL0     C59189   2.349   1.101  10.240 -0.8020 -0.9550 -0.1395
  449MOL0     C59190   2.722   1.070   9.956  0.1820  0.4279 -0.7158
  449MOL0     C59191   2.821   0.975   9.997  0.1357 -0.1118  0.0182
  449MOL0     C59192   2.949   0.983   9.947 -0.1666 -0.2245 -0.0270
  449MOL0     C59193   2.990   1.066   9.846  0.6531  0.1540  0.5214
  449MOL0     O59194   3.115   1.040   9.794 -0.2242 -0.0415 -0.4024
  449MOL0     C59195   3.180   1.144   9.714  0.7407  0.1264 -0.9985
  449MOL0     C59196   3.335   1.121   9.712 -0.0985  0.2568 -0.5940
  449MOL0     C59197   3.399   1.218   9.617  0.8769 -0.0348  0.6378
  449MOL0     C59198   3.391   1.179   9.471  0.2143 -0.0412 -0.5967
  449MOL0     C59199   3.461   1.269   9.375  0.4733 -0.6996 -1.3692
  449MOL0     C59200   3.535   1.341   9.307  1.3927 -0.4807 -0.1337
  449MOL0     C59201   2.891   1.165   9.803  0.0484 -0.5777  0.5067
  449MOL0     C59202   2.758   1.154   9.853  0.1851 -0.1967 -0.5608
  449MOL0     H59203   2.365   0.878   9.986 -0.5374 -0.7150  0.2376
  449MOL0     H59204   2.112   0.881  10.020 -0.6851  1.3911 -1.2404
  449MOL0     H59205   1.878   0.897  10.126  3.2963 -0.8125  0.0603
  449MOL0     H59206   1.927   1.001   9.988  0.6102 -0.8465  0.1948
  449MOL0     H59207   1.770   1.178  10.070  0.9743 -1.2491 -1.1370
  449MOL0     H59208   1.705   1.056  10.190  0.1442 -2.1168 -0.0704
  449MOL0     H59209   1.650   0.903  10.014  1.8568 -0.6682 -1.1751
  449MOL0     H59210   1.720   1.030   9.908  1.0768 -1.1627 -0.2436
  449MOL0     H59211   1.523   1.181  10.032  1.2934  0.2987  0.0143
  449MOL0     H59212   1.519   1.125   9.870 -0.6223  0.1615  0.3942
  449MOL0     H59213   1.318   1.031  10.060 -1.7818 -2.5446 -2.2765
  449MOL0     H59214   1.460   0.944  10.116  1.7476  0.0655 -1.3578
  449MOL0     H59215   1.472   0.845   9.887 -1.7460 -0.8131  0.6879
  449MOL0     H59216   1.314   0.925   9.848  0.4644  0.6778 -1.8149
  449MOL0     H59217   1.344   0.675   9.933  3.0329  0.9818 -0.7527
  449MOL0     H59218   1.390   0.741  10.085  0.6731  1.8729 -0.1277
  449MOL0     H59219   1.102   0.760   9.969  0.3819  1.2546 -0.4074
  449MOL0     H59220   1.151   0.875  10.087 -1.7473  0.7807 -1.2463
  449MOL0     H59221   1.240   0.484  10.066  2.4381 -0.1639  2.0616
  449MOL0     H59222   1.125   0.341  10.416  1.0458 -2.7194  0.4481
  449MOL0     H59223   1.244   0.314  10.287  1.4331  1.8712  2.9564
  449MOL0     H59224   1.058   0.147  10.285 -0.8566  0.1539  1.4996
  449MOL0     H59225   1.043   0.252  10.141 -0.8671 -1.4210 -0.2961
  449MOL0     H59226   0.868   0.370  10.236  0.4024  0.7676  1.4080
  449MOL0     H59227   0.844   0.202  10.219  0.6374 -0.3438 -1.1460
  449MOL0     H59228   0.893   0.354  10.484 -0.9062  0.2036  0.0425
  449MOL0     H59229   0.866   0.174  10.480 -1.8661 -1.6843 -0.3750
  449MOL0     H59230   0.442   0.252  10.449 -0.2321 -1.3312  1.6826
  449MOL0     H59231   0.295   0.310  10.633 -0.4755 -0.4413  2.2546
  449MOL0     H59232   0.307   0.273  11.156 -3.1018 -0.8195 -1.3168
  449MOL0     H59233   0.160   0.348  11.360 -0.4094  0.0865  0.9859
  449MOL0     H59234  -0.056   0.715  11.357 -0.0336  1.5093  0.4650
  449MOL0     H59235   0.113   0.774  11.406  2.8966 -1.8142  0.3466
  449MOL0     H59236   0.058   0.736  11.629  1.6080  0.8324 -2.2444
  449MOL0     H59237  -0.094   0.648  11.596  0.7141  0.7946  1.7176
  449MOL0     H59238  -0.144   0.866  11.679 -1.3177 -1.5849 -0.9646
  449MOL0     H59239  -0.201   0.856  11.512 -0.4702 -0.1205  0.6661
  449MOL0     H59240   0.067   0.978  11.525 -0.2791  2.0374 -0.2131
  449MOL0     H59241  -0.058   1.018  11.425 -2.5433  0.5239  0.1920
  449MOL0     H59242   0.004   1.181  11.612 -1.9116  2.3139 -0.3836
  449MOL0     H59243  -0.108   1.075  11.705 -1.9471 -0.9450 -0.5029
  449MOL0     H59244  -0.262   1.093  11.500  2.1808 -1.8520  1.5680
  449MOL0     H59245  -0.156   1.223  11.452 -2.7470 -0.7719 -2.3120
  449MOL0     H59246  -0.270   1.250  11.710  0.9045  0.2164 -0.0601
  449MOL0     H59247  -0.240   1.380  11.578 -0.8001  0.5148 -0.1704
  449MOL0     H59248  -0.476   1.189  11.577  3.3794 -2.3334 -1.2961
  449MOL0     H59249  -0.442   1.324  11.467 -1.5192  0.9245  0.9968
  449MOL0     H59250   0.241   0.745  11.262 -0.3230  0.0643  2.8616
  449MOL0     H59251   0.372   0.683  11.070 -1.1145 -1.1115 -3.6130
  449MOL0     H59252   0.656   0.410  10.855  0.5154 -1.1557  0.2161
  449MOL0     H59253   0.781   0.377  10.671 -1.4451  1.7133  3.3245
  449MOL0     H59254   2.158   1.177  10.315 -1.2275 -1.6260 -0.7940
  449MOL0     H59255   2.423   1.168  10.285  1.7228 -1.0619 -3.7117
  449MOL0     H59256   2.792   0.906  10.075 -0.7826  1.8672  1.5069
  449MOL0     H59257   3.029   0.916   9.978  0.0213  0.8860  2.0169
  449MOL0     H59258   3.166   1.243   9.758 -3.6383 -1.5652  2.0996
  449MOL0     H59259   3.129   1.141   9.618 -2.9422  1.1275  0.7360
  449MOL0     H59260   3.377   1.142   9.811  5.0075  0.2899 -2.4409
  449MOL0     H59261   3.353   1.014   9.694 -0.3630  0.2633 -0.9236
  449MOL0     H59262   3.496   1.254   9.652  1.6653 -1.1684 -0.2888
  449MOL0     H59263   3.331   1.303   9.629 -1.5237 -1.5184 -1.5253
  449MOL0     H59264   3.435   1.079   9.464 -0.7831 -0.5601  0.2369
  449MOL0     H59265   3.285   1.173   9.445  0.2690  0.6167 -1.0058
  449MOL0     H59266   3.600   1.406   9.253  0.8257 -0.4871 -0.8426
  449MOL0     H59267   2.915   1.220   9.713  3.5026 -0.4082  1.3909
  449MOL0     H59268   2.686   1.220   9.805  1.4753 -0.1522 -2.5503
  450MOL0     O59269   4.342   1.541  10.933 -0.8861 -0.5562 -0.3581
  450MOL0     C59270   4.332   1.622  11.025 -0.1078  0.5906 -0.5262
  450MOL0     O59271   4.434   1.705  11.061  0.2273  0.4942 -0.7725
  450MOL0     C59272   4.551   1.700  10.999 -0.2958  0.0198 -0.8820
  450MOL0     C59273   4.577   1.692  10.861 -0.5500 -0.3255 -0.2828
  450MOL0     C59274   4.714   1.702  10.809 -0.0156 -0.8128  0.2314
  450MOL0     C59275   4.820   1.702  10.899 -1.1246  0.0520 -0.0126
  450MOL0     O59276   4.951   1.686  10.850  0.6578 -0.0276 -0.4976
  450MOL0     C59277   5.058   1.647  10.941  0.0630 -0.2055  0.3820
  450MOL0     C59278   5.192   1.651  10.861  0.0475 -0.0430 -0.2377
  450MOL0     C59279   5.324   1.637  10.940  0.6736  0.0175 -0.3875
  450MOL0     C59280   5.423   1.618  10.823  0.4350  0.1326 -0.0926
  450MOL0     C59281   5.558   1.686  10.845 -0.3662 -0.1819 -0.0821
  450MOL0     C59282   5.637   1.641  10.968  1.8604  0.0942 -0.3160
  450MOL0     C59283   5.779   1.701  10.983  0.5478  0.2482 -0.4323
  450MOL0     C59284   5.857   1.631  11.090  0.1382  0.4578  0.2864
  450MOL0     N59285   5.987   1.700  11.113  0.0087  0.4111  0.1384
  450MOL0     C59286   6.005   1.837  11.136  0.5097  0.3210  1.0078
  450MOL0     C59287   6.143   1.863  11.156  0.5267  0.1005  0.5672
  450MOL0     C59288   6.210   1.989  11.190 -0.6259 -1.1087 -0.1683
  450MOL0     C59289   6.291   2.046  11.077  0.7068 -0.7735  0.6784
  450MOL0     C59290   6.204   2.145  10.996 -0.6075  0.2551 -0.4130
  450MOL0     C59291   6.081   2.099  10.941 -0.3991  0.6899 -0.1052
  450MOL0     O59292   6.097   1.985  10.854 -0.3184 -0.5134  0.0931
  450MOL0     C59293   5.985   1.950  10.776  0.3500 -0.8777 -0.9117
  450MOL0     C59294   5.856   1.999  10.801  0.0189 -0.0080 -1.0864
  450MOL0     C59295   5.748   1.952  10.724  0.2339 -0.1601 -0.5484
  450MOL0     C59296   5.769   1.874  10.607  0.0933 -0.3940  0.4658
  450MOL0     C59297   5.658   1.829  10.510  0.0077 -0.4377 -0.7980
  450MOL0     O59298   5.532   1.884  10.545 -0.2106 -0.4131 -0.4718
  450MOL0     C59299   5.428   1.865  10.454  0.2965  0.4462  0.0184
  450MOL0     C59300   5.299   1.825  10.494 -0.7516 -0.1889  0.3628
  450MOL0     C59301   5.201   1.806  10.401  1.0497  0.6371 -1.0053
  450MOL0     C59302   5.223   1.817  10.262 -0.3014  0.4761 -1.1967
  450MOL0     O59303   5.141   1.760  10.170  0.1869  0.3993 -0.6297
  450MOL0     C59304   4.997   1.781  10.190  0.0541 -0.5348  0.4735
  450MOL0     C59305   4.929   1.688  10.090  0.0555 -0.2304  0.2772
  450MOL0     C59306   4.772   1.708  10.089 -1.1087  0.4485 -0.0513
  450MOL0     C59307   4.702   1.628   9.977  0.0540  0.3854 -0.3611
  450MOL0     C59308   4.557   1.644   9.977 -0.5515  0.5417 -0.5823
  450MOL0     C59309   4.488   1.524   9.903  0.2274 -0.1294  0.0112
  450MOL0     C59310   4.336   1.526   9.927 -0.7982 -0.0426 -0.2177
  450MOL0     C59311   4.255   1.414   9.861  0.1704 -0.1696  0.0454
  450MOL0    Cl59312   4.309   1.386   9.687 -0.1610 -0.1536 -1.2764
  450MOL0     C59313   5.344   1.876  10.225 -0.3164 -1.1537 -0.2136
  450MOL0     C59314   5.450   1.899  10.319  0.0710 -0.4720 -0.0267
  450MOL0     O59315   5.682   1.746  10.424  0.1345 -0.1078  0.0184
  450MOL0     C59316   5.901   1.829  10.585 -0.1212 -0.1808  0.9123
  450MOL0     C59317   6.001   1.860  10.671  0.4682 -0.0952 -0.0822
  450MOL0     N59318   6.200   1.738  11.142  0.7363  0.2273  0.2275
  450MOL0     N59319   6.108   1.641  11.122  0.2284 -0.6331 -0.6636
  450MOL0     C59320   4.790   1.711  11.039  1.0001 -0.7534  0.1228
  450MOL0     C59321   4.654   1.715  11.080 -0.5869  0.3899  0.0881
  450MOL0     C59322   4.193   1.667  11.071  0.1894  0.0205  0.1359
  450MOL0     C59323   4.083   1.586  11.059 -0.3560 -0.2178  0.3643
  450MOL0     C59324   3.961   1.619  11.122 -0.3627  0.6015 -0.1831
  450MOL0     C59325   3.951   1.748  11.185  0.2823 -0.5949  0.8394
  450MOL0     O59326   3.827   1.807  11.216 -0.3645  0.3610  1.0659
  450MOL0     C59327   3.714   1.758  11.145  0.6778  0.6864 -0.1433
  450MOL0     C59328   3.581   1.832  11.175  0.7095 -0.1526  0.9894
  450MOL0     C59329   3.467   1.769  11.089 -0.0110  0.1107  0.8320
  450MOL0     C59330   3.336   1.835  11.120 -0.1960 -0.8375 -0.9196
  450MOL0     C59331   3.221   1.787  11.041 -1.1969  0.3373 -0.7197
  450MOL0     C59332   3.139   1.734  10.972  0.1451  0.3714  0.5136
  450MOL0     C59333   4.062   1.826  11.194  0.4306  0.0156 -0.2278
  450MOL0     C59334   4.181   1.788  11.129 -0.2824 -0.6060 -0.3684
  450MOL0     H59335   4.492   1.708  10.795 -1.4766  3.1883  1.5190
  450MOL0     H59336   4.727   1.698  10.701 -2.6420 -0.7570 -0.1612
  450MOL0     H59337   5.033   1.545  10.973  0.2451 -0.4672 -0.2945
  450MOL0     H59338   5.066   1.709  11.030  0.3163 -1.3920  1.2155
  450MOL0     H59339   5.197   1.749  10.814 -1.5069 -0.5850 -1.6706
  450MOL0     H59340   5.181   1.574  10.783 -0.3642 -0.1442 -0.0828
  450MOL0     H59341   5.320   1.551  11.008  0.2278 -0.0717 -0.5224
  450MOL0     H59342   5.352   1.730  10.990 -2.6810 -0.9019  3.8333
  450MOL0     H59343   5.440   1.511  10.814  0.3851 -0.0403  1.6108
  450MOL0     H59344   5.389   1.663  10.729  0.8656  0.2579 -0.1864
  450MOL0     H59345   5.532   1.791  10.854 -0.5184 -0.1376 -0.9855
  450MOL0     H59346   5.631   1.674  10.765  2.4177 -1.1429  2.3975
  450MOL0     H59347   5.640   1.532  10.966 -2.8163 -0.2532  0.0058
  450MOL0     H59348   5.573   1.667  11.053  2.2744 -1.8537  0.6552
  450MOL0     H59349   5.826   1.689  10.885 -1.3809 -0.2012 -1.3499
  450MOL0     H59350   5.759   1.804  11.012 -2.7871 -0.8328  1.7203
  450MOL0     H59351   5.874   1.530  11.052 -3.4677 -0.3614  0.4587
  450MOL0     H59352   5.805   1.617  11.185 -0.5309  0.8869 -0.0092
  450MOL0     H59353   5.922   1.907  11.141 -2.0432 -2.5477  2.7461
  450MOL0     H59354   6.285   1.957  11.264 -2.4676 -1.0119  1.8454
  450MOL0     H59355   6.144   2.058  11.243  0.8013  0.2869 -0.1310
  450MOL0     H59356   6.337   1.960  11.029 -0.1850 -1.4617  1.0294
  450MOL0     H59357   6.373   2.104  11.121  1.6539  0.3358 -2.2554
  450MOL0     H59358   6.188   2.234  11.058  0.6431 -0.4008  0.8887
  450MOL0     H59359   6.263   2.181  10.911  1.4336 -0.6760  0.5441
  450MOL0     H59360   6.042   2.184  10.884 -1.6310 -0.7086 -1.4321
  450MOL0     H59361   6.013   2.082  11.025 -2.0285  1.0157 -1.3074
  450MOL0     H59362   5.839   2.058  10.891  2.0782 -1.7721  0.5379
  450MOL0     H59363   5.645   1.970  10.754  0.9719  0.7904  1.5865
  450MOL0     H59364   5.280   1.826  10.601  1.7784  3.0118  0.9158
  450MOL0     H59365   5.109   1.759  10.437  1.4017  0.1572 -0.7217
  450MOL0     H59366   4.974   1.887  10.173 -1.4185 -0.0354  4.4355
  450MOL0     H59367   4.955   1.751  10.286 -0.4512 -2.3662 -0.2790
  450MOL0     H59368   4.965   1.585  10.098  0.2467 -0.1752  0.1283
  450MOL0     H59369   4.965   1.725   9.993  0.6983 -0.6347  0.3626
  450MOL0     H59370   4.750   1.815  10.092 -0.0813  0.6461  1.9596
  450MOL0     H59371   4.738   1.669  10.185 -1.6383 -1.6135 -1.0307
  450MOL0     H59372   4.746   1.664   9.884  2.0427 -1.0561 -0.0414
  450MOL0     H59373   4.728   1.523   9.995  0.5814  0.4555 -0.6827
  450MOL0     H59374   4.531   1.739   9.930  3.6049  2.7955  1.1458
  450MOL0     H59375   4.522   1.648  10.081 -2.2280 -2.8755 -0.8527
  450MOL0     H59376   4.519   1.426   9.942 -2.5204 -0.7003  0.9707
  450MOL0     H59377   4.515   1.528   9.797 -1.0831  0.1454 -0.3254
  450MOL0     H59378   4.317   1.519  10.035  0.2953 -1.3876 -0.0739
  450MOL0     H59379   4.304   1.629   9.908 -2.1696 -0.4704 -0.2567
  450MOL0     H59380   4.154   1.456   9.863  0.7032  1.1702  1.4518
  450MOL0     H59381   4.266   1.326   9.924  3.0700 -1.7847 -2.4259
  450MOL0     H59382   5.359   1.882  10.117 -1.0514 -1.6962 -0.3547
  450MOL0     H59383   5.549   1.935  10.294 -0.6400 -1.0587 -4.7257
  450MOL0     H59384   5.927   1.773  10.495  0.4846  1.9258 -0.3086
  450MOL0     H59385   6.102   1.818  10.668  0.2687 -0.5155 -1.8985
  450MOL0     H59386   4.863   1.714  11.119 -0.8907  2.9042  1.9491
  450MOL0     H59387   4.621   1.724  11.183  0.6124  0.4986  0.4728
  450MOL0     H59388   4.093   1.492  11.006  0.0372  0.6544 -1.1447
  450MOL0     H59389   3.876   1.553  11.109 -0.6046  1.0367 -0.8362
  450MOL0     H59390   3.700   1.653  11.172  2.6918  0.2717 -0.5271
  450MOL0     H59391   3.737   1.760  11.038 -0.3747 -0.3201 -0.4070
  450MOL0     H59392   3.548   1.827  11.279  0.5071 -0.0937  0.9282
  450MOL0     H59393   3.596   1.936  11.147 -0.5276 -0.4371 -0.9067
  450MOL0     H59394   3.457   1.664  11.116 -0.9532 -0.6376 -2.0207
  450MOL0     H59395   3.478   1.764  10.980 -3.3205 -1.7091  0.4600
  450MOL0     H59396   3.309   1.810  11.223 -2.5701  0.5034 -1.1392
  450MOL0     H59397   3.346   1.944  11.108  3.0196 -1.0025 -0.6735
  450MOL0     H59398   3.093   1.670  10.899  1.2403 -2.9805  2.5325
  450MOL0     H59399   4.046   1.928  11.228 -1.8301 -0.2704 -0.2376
  450MOL0     H59400   4.267   1.854  11.130 -0.4829 -0.2252 -2.6206
  451MOL0     O59401   6.953  10.451   3.776  0.1244  0.4318  0.5025
  451MOL0     C59402   6.983  10.500   3.667  0.5250  0.4487 -0.5962
  451MOL0     O59403   6.900  10.558   3.575  0.2027  0.3008 -0.4758
  451MOL0     C59404   6.770  10.586   3.604 -0.2321  0.8352 -0.1546
  451MOL0     C59405   6.666  10.523   3.535  1.0043  1.0790  0.8221
  451MOL0     C59406   6.533  10.550   3.552 -0.1529 -0.1878  0.0932
  451MOL0     C59407   6.503  10.646   3.653  0.4609 -0.1411  0.0739
  451MOL0     O59408   6.378  10.688   3.665  0.1882  0.0886 -0.7335
  451MOL0     C59409   6.327  10.671   3.807 -0.5800 -0.0419 -0.6607
  451MOL0     C59410   6.191  10.739   3.828 -0.6324 -0.5569  0.6615
  451MOL0     C59411   6.091  10.649   3.762 -0.1216 -0.0927  0.4816
  451MOL0     C59412   5.973  10.735   3.721 -0.9888  0.9731  0.3079
  451MOL0     C59413   5.852  10.656   3.669 -0.2125  0.1424 -0.7314
  451MOL0     C59414   5.729  10.742   3.664  0.2405  0.0393  0.0333
  451MOL0     C59415   5.634  10.712   3.545  0.3825 -0.3052  0.1845
  451MOL0     C59416   5.500  10.790   3.570 -0.4739 -0.2317  0.3363
  451MOL0     N59417   5.413  10.743   3.461 -0.2344  0.6188  0.6940
  451MOL0     C59418   5.370  10.615   3.431  0.4544  0.2556  0.1396
  451MOL0     C59419   5.320  10.616   3.311  0.0128 -0.5670 -0.3322
  451MOL0     C59420   5.268  10.496   3.236 -0.1298 -0.9136  0.0281
  451MOL0     C59421   5.120  10.460   3.249  1.3645 -0.6093 -0.2349
  451MOL0     C59422   5.083  10.314   3.205  0.3566 -0.6240  0.0985
  451MOL0     C59423   5.126  10.285   3.055  0.0349 -0.5962 -0.3550
  451MOL0     O59424   5.113  10.147   3.028 -0.2149 -0.1795  0.2963
  451MOL0     C59425   4.995  10.096   2.988 -0.4500 -0.3138  0.0820
  451MOL0     C59426   4.988   9.965   2.971 -0.6524 -0.5525 -0.2792
  451MOL0     C59427   4.871   9.904   2.923  0.1714  0.3145  0.2134
  451MOL0     C59428   4.749   9.977   2.909 -0.0745  0.6193  0.7005
  451MOL0     C59429   4.621   9.913   2.873 -0.4076 -0.2182 -0.2022
  451MOL0     O59430   4.636   9.796   2.801  0.1982  0.2357 -0.3826
  451MOL0     C59431   4.533   9.723   2.750  0.8172 -0.3013 -0.7517
  451MOL0     C59432   4.402   9.726   2.802  1.1484 -0.4352 -1.0254
  451MOL0     C59433   4.294   9.658   2.742  0.2527  0.3636 -0.7472
  451MOL0     C59434   4.315   9.588   2.627  0.1138 -0.7896  0.0115
  451MOL0     O59435   4.205   9.526   2.564 -0.2678  0.0663 -0.6253
  451MOL0     C59436   4.074   9.503   2.618 -0.7121  1.7167  0.0016
  451MOL0     C59437   3.987   9.451   2.499 -0.3346  1.0316 -0.4195
  451MOL0     C59438   3.856   9.385   2.548  0.2810 -0.1168  0.1193
  451MOL0     C59439   3.791   9.301   2.440  0.0778 -0.0084 -0.6544
  451MOL0     C59440   3.671   9.226   2.491  0.2662  0.4181 -0.5661
  451MOL0     C59441   3.694   9.128   2.606 -0.0864  0.0920  0.9648
  451MOL0     C59442   3.575   9.043   2.639 -0.4996  0.1634 -0.0659
  451MOL0     C59443   3.474   9.101   2.729 -0.3716 -0.0685 -0.2499
  451MOL0    Cl59444   3.340   8.977   2.749  0.2659  0.2244  0.2263
  451MOL0     C59445   4.435   9.589   2.565 -0.6914  0.0113 -0.0436
  451MOL0     C59446   4.544   9.652   2.630  0.0790 -0.9993  0.5786
  451MOL0     O59447   4.516   9.976   2.898  0.4322  0.6675 -0.1807
  451MOL0     C59448   4.754  10.111   2.948  0.6416  0.2479 -0.5102
  451MOL0     C59449   4.879  10.177   2.973  0.5292  0.7275 -0.2896
  451MOL0     N59450   5.325  10.748   3.264  0.0583  0.2706 -0.1464
  451MOL0     N59451   5.385  10.816   3.349 -0.4772 -0.4706  0.1885
  451MOL0     C59452   6.611  10.704   3.726 -0.2159  0.1913 -0.3970
  451MOL0     C59453   6.743  10.680   3.697 -0.4235 -0.7467 -0.6815
  451MOL0     C59454   7.123  10.504   3.618  0.0946 -0.0028 -0.1720
  451MOL0     C59455   7.167  10.586   3.510  0.6480  0.1666  0.2334
  451MOL0     C59456   7.295  10.564   3.463 -0.2248 -0.5237 -0.0418
  451MOL0     C59457   7.383  10.470   3.521  0.0229  0.0631  0.4719
  451MOL0     O59458   7.505  10.450   3.470  0.0310 -0.3277  0.2869
  451MOL0     C59459   7.615  10.499   3.542 -0.5790 -0.3244 -0.0557
  451MOL0     C59460   7.694  10.592   3.468  0.9088 -0.6260 -0.0818
  451MOL0     C59461   7.701  10.738   3.519 -0.3728  0.4094 -0.2154
  451MOL0     C59462   7.558  10.808   3.496 -0.4508 -0.5222  0.0798
  451MOL0     C59463   7.549  10.953   3.516  0.8730 -0.6164  0.0753
  451MOL0     C59464   7.557  11.072   3.523 -0.4994 -0.0709 -0.1741
  451MOL0     C59465   7.345  10.387   3.626 -0.0061 -0.7161  1.1584
  451MOL0     C59466   7.213  10.409   3.672  0.0739  0.0048  0.0753
  451MOL0     H59467   6.691  10.445   3.464 -4.2001 -1.4062  1.2287
  451MOL0     H59468   6.455  10.510   3.488  0.6781 -1.3000 -0.2563
  451MOL0     H59469   6.393  10.719   3.880 -1.6630 -1.1707  1.1323
  451MOL0     H59470   6.321  10.565   3.832  0.4795  0.0677  0.1263
  451MOL0     H59471   6.208  10.835   3.779  3.4069 -0.9327  0.9520
  451MOL0     H59472   6.172  10.761   3.933 -3.3168  4.4835 -0.5518
  451MOL0     H59473   6.055  10.573   3.833 -0.5683 -0.8747 -0.5441
  451MOL0     H59474   6.128  10.589   3.679  2.6988 -1.2275  2.4140
  451MOL0     H59475   5.940  10.805   3.798  0.4337  1.2552  0.6915
  451MOL0     H59476   6.004  10.802   3.641  0.5101 -0.1585 -0.0978
  451MOL0     H59477   5.835  10.580   3.746  1.6989 -0.2689 -0.6506
  451MOL0     H59478   5.871  10.612   3.571 -1.6509  0.0830 -0.9953
  451MOL0     H59479   5.752  10.848   3.652 -1.2191  0.2188 -1.5832
  451MOL0     H59480   5.674  10.735   3.758 -1.4864 -0.8084 -0.9779
  451MOL0     H59481   5.674  10.739   3.447 -2.0886 -0.2948 -0.9075
  451MOL0     H59482   5.624  10.604   3.553  1.7386 -0.3977  0.9310
  451MOL0     H59483   5.512  10.898   3.558 -0.2015 -0.5055 -3.0048
  451MOL0     H59484   5.448  10.771   3.664 -1.0603 -1.2968 -0.1796
  451MOL0     H59485   5.383  10.525   3.490 -2.8963 -1.6884 -1.7558
  451MOL0     H59486   5.318  10.406   3.274  0.1979  1.1550  5.5626
  451MOL0     H59487   5.291  10.526   3.134 -1.0687 -0.1971  0.0189
  451MOL0     H59488   5.055  10.531   3.197  0.1963  0.9456  3.0016
  451MOL0     H59489   5.086  10.484   3.351  0.9009  2.2030 -0.9765
  451MOL0     H59490   5.136  10.244   3.271 -2.0712 -0.6779  2.0986
  451MOL0     H59491   4.979  10.286   3.221  0.1549  0.7739  1.4554
  451MOL0     H59492   5.233  10.309   3.058 -0.2579  0.7811  2.1338
  451MOL0     H59493   5.080  10.348   2.978 -1.3931  0.9958  1.7094
  451MOL0     H59494   5.078   9.908   2.990 -0.8576 -0.4849  0.9722
  451MOL0     H59495   4.873   9.796   2.914  0.3305  0.3097  0.2972
  451MOL0     H59496   4.381   9.779   2.894 -1.4800 -2.2642 -0.4732
  451MOL0     H59497   4.202   9.666   2.797  0.0150  0.0955 -1.1058
  451MOL0     H59498   4.026   9.599   2.641  2.1879  3.2006  0.2445
  451MOL0     H59499   4.071   9.431   2.701 -0.3948 -0.0420 -1.4622
  451MOL0     H59500   4.055   9.379   2.453 -3.0250 -1.3367 -0.9707
  451MOL0     H59501   3.978   9.535   2.429  2.6994  2.4870  0.7123
  451MOL0     H59502   3.802   9.477   2.571  0.2431  0.5893 -2.3908
  451MOL0     H59503   3.875   9.323   2.635  3.4357  0.1301 -0.2720
  451MOL0     H59504   3.755   9.351   2.350  1.4621 -0.3471 -1.4151
  451MOL0     H59505   3.869   9.236   2.399 -0.3330 -0.0238 -1.4256
  451MOL0     H59506   3.630   9.164   2.410 -2.3600  0.1371  0.8845
  451MOL0     H59507   3.595   9.299   2.522  0.4971 -0.3911  2.1225
  451MOL0     H59508   3.722   9.179   2.699  1.4718  0.3394  0.3983
  451MOL0     H59509   3.780   9.067   2.576  0.8384  1.7159  0.1710
  451MOL0     H59510   3.533   8.997   2.550 -0.5914 -2.2562  1.1576
  451MOL0     H59511   3.611   8.957   2.697 -1.6638  0.6851  1.5267
  451MOL0     H59512   3.429   9.194   2.692 -4.6228 -1.9788 -0.4438
  451MOL0     H59513   3.516   9.117   2.829  2.2253 -0.6130 -1.1839
  451MOL0     H59514   4.453   9.535   2.473  1.9145  1.7567 -0.6906
  451MOL0     H59515   4.640   9.660   2.580 -0.7475 -4.0009 -1.7593
  451MOL0     H59516   4.672  10.182   2.958  0.8665  0.2340  2.4041
  451MOL0     H59517   4.874  10.283   2.997  0.6373  0.7763 -0.4839
  451MOL0     H59518   6.593  10.773   3.808 -0.1741  1.1377 -1.1652
  451MOL0     H59519   6.814  10.741   3.752 -0.6664 -0.2606 -0.9022
  451MOL0     H59520   7.093  10.653   3.467  0.9893  0.8784  0.7304
  451MOL0     H59521   7.326  10.621   3.375 -1.8294  4.7387  2.4011
  451MOL0     H59522   7.685  10.415   3.548 -0.5477 -0.5169 -2.3537
  451MOL0     H59523   7.589  10.533   3.642  0.3894 -0.1897  0.1677
  451MOL0     H59524   7.800  10.569   3.480  1.3475  2.0832  2.3158
  451MOL0     H59525   7.668  10.602   3.362 -4.2646 -0.5732  0.9503
  451MOL0     H59526   7.776  10.795   3.463  2.3756 -1.5345  1.2994
  451MOL0     H59527   7.735  10.745   3.623 -2.1299  2.0902  0.3058
  451MOL0     H59528   7.512  10.781   3.401  0.8932  0.2619 -0.8235
  451MOL0     H59529   7.489  10.773   3.573 -1.1860 -0.0610 -0.3586
  451MOL0     H59530   7.550  11.178   3.533  0.3002 -0.0602  0.3668
  451MOL0     H59531   7.421  10.317   3.660  1.4714  0.3915  0.2036
  451MOL0     H59532   7.181  10.341   3.750 -1.3370 -0.1158 -0.5583
  452MOL0     O59533   6.456   8.882   3.692  0.3449  0.1296 -0.7765
  452MOL0     C59534   6.547   8.847   3.763 -0.2380  0.5408  0.7420
  452MOL0     O59535   6.551   8.856   3.900 -0.6613  0.2459 -0.2176
  452MOL0     C59536   6.451   8.945   3.940 -0.6772 -0.5946  0.2176
  452MOL0     C59537   6.335   8.904   3.988  0.0503  1.2087 -0.5819
  452MOL0     C59538   6.237   8.995   4.032  0.3850  0.2862 -0.0858
  452MOL0     C59539   6.250   9.126   3.989  0.0808 -0.4696 -0.1258
  452MOL0     O59540   6.141   9.217   4.008  1.1137 -0.3177 -0.1641
  452MOL0     C59541   6.007   9.181   4.068 -0.2144  0.5023 -0.0932
  452MOL0     C59542   5.906   9.285   4.007  0.1810  0.1758 -0.6188
  452MOL0     C59543   5.765   9.265   4.074  0.1703 -0.0103 -0.3328
  452MOL0     C59544   5.680   9.379   4.045 -1.4060 -0.1745 -0.3243
  452MOL0     C59545   5.556   9.369   4.125  0.5174  0.1605  0.1218
  452MOL0     C59546   5.454   9.277   4.059 -0.0349 -0.2592 -0.2723
  452MOL0     C59547   5.304   9.296   4.122  0.0198 -0.1648 -0.2714
  452MOL0     C59548   5.247   9.421   4.077  0.1357  0.1549 -0.2858
  452MOL0     N59549   5.105   9.422   4.084  0.9419  0.2069 -0.7686
  452MOL0     C59550   5.021   9.348   4.165  0.7700  0.3654 -0.6506
  452MOL0     C59551   4.890   9.384   4.139 -0.8224  0.7687 -0.5599
  452MOL0     C59552   4.764   9.319   4.195 -0.8103  0.6284  0.4255
  452MOL0     C59553   4.688   9.410   4.296  0.0601  0.4516  0.2896
  452MOL0     C59554   4.577   9.331   4.382 -1.2539 -0.2916  0.3796
  452MOL0     C59555   4.468   9.292   4.280  0.0175  0.1719  0.4289
  452MOL0     O59556   4.370   9.192   4.342 -0.1116 -0.1190 -0.9441
  452MOL0     C59557   4.261   9.141   4.278 -0.2853 -0.3923  0.3253
  452MOL0     C59558   4.166   9.064   4.348 -0.0301 -0.0400 -0.6250
  452MOL0     C59559   4.050   9.018   4.293  0.8458  0.5240  0.0428
  452MOL0     C59560   4.020   9.044   4.155 -0.9050 -0.0799 -0.7323
  452MOL0     C59561   3.889   8.995   4.086  0.0794  0.2237 -0.2059
  452MOL0     O59562   3.841   9.059   3.982 -0.2202 -0.1243 -0.4252
  452MOL0     C59563   3.767   8.992   3.883  0.1279 -0.1121 -0.1875
  452MOL0     C59564   3.635   9.040   3.880 -0.0919 -0.0310 -0.1382
  452MOL0     C59565   3.542   8.969   3.809 -0.3242 -1.0695  0.0595
  452MOL0     C59566   3.583   8.855   3.737  0.3277  0.2669 -0.2306
  452MOL0     O59567   3.495   8.780   3.669  0.3872  0.2202 -0.2228
  452MOL0     C59568   3.351   8.787   3.691 -0.1893  0.2537  0.5042
  452MOL0     C59569   3.303   8.730   3.828  0.5489  0.2480 -0.9451
  452MOL0     C59570   3.156   8.726   3.824  0.6166 -0.3473 -0.1437
  452MOL0     C59571   3.099   8.707   3.959 -0.1181  0.1178 -0.6085
  452MOL0     C59572   2.970   8.764   3.986  0.5875 -1.3185  0.1019
  452MOL0     C59573   2.954   8.913   3.964 -0.2798 -0.2053 -0.7313
  452MOL0     C59574   2.817   8.961   4.030 -0.1931 -0.4643 -0.3731
  452MOL0     C59575   2.744   9.072   3.946  0.1842 -0.8091  0.5431
  452MOL0    Cl59576   2.816   9.232   3.931  0.4884  0.2957  0.2098
  452MOL0     C59577   3.714   8.815   3.730 -0.7978 -0.4224  0.8194
  452MOL0     C59578   3.809   8.880   3.805 -0.3353  0.4585  0.0274
  452MOL0     O59579   3.835   8.906   4.150 -0.2436  0.9287  0.1361
  452MOL0     C59580   4.111   9.126   4.083  0.3784  0.6435  0.1368
  452MOL0     C59581   4.232   9.167   4.142 -0.4494 -1.1684 -0.7895
  452MOL0     N59582   4.892   9.499   4.061  1.1693 -0.2745 -0.2456
  452MOL0     N59583   5.017   9.520   4.024  0.4315 -0.1549  0.0090
  452MOL0     C59584   6.360   9.169   3.927 -0.3783 -0.7889 -1.0510
  452MOL0     C59585   6.467   9.078   3.908  0.5951 -0.6720  0.4326
  452MOL0     C59586   6.669   8.790   3.703  0.3119 -0.4283 -0.2609
  452MOL0     C59587   6.788   8.778   3.777 -0.3793  0.7750 -0.4512
  452MOL0     C59588   6.906   8.739   3.713  0.7036 -0.6142  0.7418
  452MOL0     C59589   6.909   8.698   3.579  0.9361  0.0051 -0.8028
  452MOL0     O59590   7.026   8.654   3.527  0.2661 -0.0587 -0.8753
  452MOL0     C59591   7.020   8.606   3.391 -0.0250  0.3513  0.2710
  452MOL0     C59592   7.158   8.551   3.365 -0.0922  1.0317 -0.0231
  452MOL0     C59593   7.253   8.671   3.346  0.1836  0.2963  1.0887
  452MOL0     C59594   7.380   8.632   3.280  0.3477  0.3785  0.8323
  452MOL0     C59595   7.365   8.606   3.132  0.8568  0.7183 -0.6088
  452MOL0     C59596   7.334   8.589   3.019 -0.4531 -0.2496  0.2839
  452MOL0     C59597   6.795   8.718   3.507  0.0829  0.0750  0.0627
  452MOL0     C59598   6.677   8.760   3.563  0.3343  0.2796  0.8421
  452MOL0     H59599   6.324   8.803   4.025  1.7384  0.4633 -1.9560
  452MOL0     H59600   6.147   8.959   4.080 -0.7120  1.2240 -1.3917
  452MOL0     H59601   6.024   9.194   4.175 -0.9385  3.4654 -0.2515
  452MOL0     H59602   5.971   9.081   4.042 -0.2697  1.1106 -2.5823
  452MOL0     H59603   5.894   9.274   3.899  0.8927  0.9544 -0.7911
  452MOL0     H59604   5.953   9.381   4.032  0.0158  0.4521 -1.3534
  452MOL0     H59605   5.768   9.253   4.183  0.2283 -1.2317 -0.4547
  452MOL0     H59606   5.720   9.180   4.023  0.2194 -1.8872  2.5055
  452MOL0     H59607   5.728   9.471   4.080 -0.5210 -1.3315  1.7192
  452MOL0     H59608   5.673   9.384   3.936 -2.1091 -0.5470 -0.2981
  452MOL0     H59609   5.512   9.469   4.131  0.4041  0.0677  0.9698
  452MOL0     H59610   5.562   9.337   4.229 -1.0923 -1.1043 -0.1329
  452MOL0     H59611   5.485   9.178   4.091 -0.4701  0.3439  2.2986
  452MOL0     H59612   5.453   9.278   3.950  0.6677 -1.6726 -0.3065
  452MOL0     H59613   5.242   9.209   4.098  0.3009 -0.1567 -1.0568
  452MOL0     H59614   5.303   9.297   4.231 -0.5445 -4.7483 -0.0265
  452MOL0     H59615   5.281   9.434   3.974  1.3530 -0.4502  0.0225
  452MOL0     H59616   5.284   9.505   4.138  0.0910  2.5333 -3.2805
  452MOL0     H59617   5.055   9.268   4.230  0.4803 -1.5271 -2.7297
  452MOL0     H59618   4.802   9.232   4.250  1.9160  1.7397  0.4292
  452MOL0     H59619   4.701   9.276   4.117  0.8315  1.9547 -1.7121
  452MOL0     H59620   4.635   9.484   4.235 -0.6934 -0.1148  0.2486
  452MOL0     H59621   4.743   9.468   4.371 -3.6414  1.6017  2.4220
  452MOL0     H59622   4.623   9.242   4.425 -0.8364 -0.0156  0.5148
  452MOL0     H59623   4.529   9.388   4.462 -0.8365 -0.5840  0.8407
  452MOL0     H59624   4.496   9.270   4.177 -0.5216  1.8254 -0.0997
  452MOL0     H59625   4.407   9.382   4.269  0.7689  0.3427 -4.7364
  452MOL0     H59626   4.180   9.035   4.452 -1.4323 -3.3853 -1.2365
  452MOL0     H59627   3.974   8.967   4.352  0.3314  0.5157 -0.6148
  452MOL0     H59628   3.589   9.121   3.937 -0.5780  0.6012 -1.4058
  452MOL0     H59629   3.438   8.998   3.800 -0.2675 -1.4385 -3.0273
  452MOL0     H59630   3.318   8.716   3.614  0.0882  0.1869  0.4458
  452MOL0     H59631   3.310   8.887   3.676 -0.3302 -0.0857 -1.8530
  452MOL0     H59632   3.333   8.807   3.899 -2.5499  3.0500 -2.4135
  452MOL0     H59633   3.356   8.637   3.853  0.9572  0.9239  0.8733
  452MOL0     H59634   3.128   8.639   3.764  0.0491 -0.1901 -0.1146
  452MOL0     H59635   3.110   8.804   3.763 -0.3765 -0.7704  0.0486
  452MOL0     H59636   3.103   8.600   3.977 -1.7332 -0.2555 -2.1503
  452MOL0     H59637   3.172   8.755   4.026 -0.7644  2.9156 -1.7315
  452MOL0     H59638   2.937   8.747   4.089 -3.7811 -0.7731 -1.0401
  452MOL0     H59639   2.895   8.726   3.917  1.6196 -1.9816 -0.6882
  452MOL0     H59640   2.952   8.932   3.856 -1.2521 -0.6503 -0.7993
  452MOL0     H59641   3.036   8.972   4.007 -2.2185  2.3003 -0.1976
  452MOL0     H59642   2.749   8.878   4.053  0.2439 -0.1263  2.5356
  452MOL0     H59643   2.855   8.985   4.130  1.0347 -0.7049 -0.7586
  452MOL0     H59644   2.646   9.092   3.991  0.3148  4.2943 -0.7961
  452MOL0     H59645   2.718   9.039   3.845 -2.1094 -1.9199  1.4235
  452MOL0     H59646   3.730   8.727   3.668  0.6519  1.5289 -1.7448
  452MOL0     H59647   3.904   8.834   3.830  0.6805  2.4779  0.0597
  452MOL0     H59648   4.084   9.155   3.982 -1.5771  3.0580  1.2407
  452MOL0     H59649   4.309   9.211   4.080  0.1892  0.5225  1.0616
  452MOL0     H59650   6.359   9.274   3.899 -0.9409 -0.2916  0.7084
  452MOL0     H59651   6.564   9.114   3.875 -0.0403  1.0326  0.3448
  452MOL0     H59652   6.793   8.798   3.883  0.1494  2.4252 -0.7554
  452MOL0     H59653   7.001   8.755   3.762  2.0168 -0.2633 -1.7664
  452MOL0     H59654   6.993   8.678   3.314 -2.0781 -1.8193 -1.1836
  452MOL0     H59655   6.943   8.529   3.383  0.2633  0.1956 -1.2746
  452MOL0     H59656   7.193   8.490   3.449  0.8322  2.0150  0.3447
  452MOL0     H59657   7.152   8.482   3.281  0.7654  0.1879  0.5823
  452MOL0     H59658   7.271   8.723   3.441 -1.1913  0.4789  1.2645
  452MOL0     H59659   7.191   8.745   3.295  0.7051  1.5487  2.2008
  452MOL0     H59660   7.449   8.716   3.295  0.9046  0.4908 -1.8922
  452MOL0     H59661   7.423   8.542   3.326 -1.8054 -0.6699  0.8883
  452MOL0     H59662   7.297   8.572   2.920 -1.4999 -1.7655  0.8919
  452MOL0     H59663   6.788   8.682   3.405 -0.1662 -0.8054  0.3839
  452MOL0     H59664   6.590   8.761   3.498  0.3161  0.2244  0.8659
  453MOL0     O59665   1.100   8.888   7.290 -0.1596  0.2303 -0.1203
  453MOL0     C59666   1.044   8.992   7.319 -0.5294 -0.5051 -0.9560
  453MOL0     O59667   1.050   9.102   7.241 -0.4392 -0.3997 -0.4198
  453MOL0     C59668   1.032   9.106   7.108 -0.1785  0.8908 -0.8020
  453MOL0     C59669   0.969   9.004   7.036  0.5657  0.1567 -0.6690
  453MOL0     C59670   0.937   9.010   6.904  0.8905  0.5374 -0.0870
  453MOL0     C59671   0.994   9.115   6.833 -0.7795 -0.1104 -0.4999
  453MOL0     O59672   1.010   9.112   6.697 -0.9461 -0.1661  0.5129
  453MOL0     C59673   0.966   9.003   6.620  0.5196  0.1156 -0.8755
  453MOL0     C59674   1.004   9.019   6.479  0.1635 -0.3332  0.2743
  453MOL0     C59675   0.930   9.134   6.415  0.8734 -0.5474  0.0738
  453MOL0     C59676   0.968   9.143   6.275  0.0136 -0.1371  0.6935
  453MOL0     C59677   0.872   9.244   6.202  0.4887 -0.3738 -0.1722
  453MOL0     C59678   0.905   9.270   6.053  0.8138  0.3666  0.1949
  453MOL0     C59679   0.828   9.379   5.981 -0.0193 -0.1101  0.4664
  453MOL0     C59680   0.671   9.371   5.994  0.1220 -0.0406  0.0258
  453MOL0     N59681   0.619   9.443   6.108  0.3008 -0.0634  0.1343
  453MOL0     C59682   0.505   9.397   6.180 -2.0058  0.6814  0.6651
  453MOL0     C59683   0.517   9.457   6.296 -0.1796  0.7175 -0.8714
  453MOL0     C59684   0.438   9.451   6.427  0.3029 -1.1459  0.1220
  453MOL0     C59685   0.286   9.477   6.397 -0.3445  0.0953  0.0301
  453MOL0     C59686   0.207   9.507   6.525 -0.0293 -0.3175  0.5621
  453MOL0     C59687   0.188   9.394   6.620  0.1816  0.1158 -0.3975
  453MOL0     O59688   0.183   9.272   6.548  0.3218 -0.0319  0.3135
  453MOL0     C59689   0.056   9.220   6.527  0.2265  0.4831 -0.2026
  453MOL0     C59690   0.036   9.082   6.547 -0.4663  0.1041  0.2507
  453MOL0     C59691  -0.090   9.021   6.545  0.6069 -0.1954  0.1346
  453MOL0     C59692  -0.198   9.091   6.504  0.7044 -0.3743 -0.4758
  453MOL0     C59693  -0.339   9.044   6.508  0.3058  0.7747  0.0247
  453MOL0     O59694  -0.441   9.139   6.503 -0.1581  0.1148  0.7511
  453MOL0     C59695  -0.564   9.088   6.496  0.8101  1.3469 -0.2386
  453MOL0     C59696  -0.606   9.030   6.383  0.4851  0.3433  1.7058
  453MOL0     C59697  -0.739   8.987   6.373 -0.1485 -0.1001  0.2858
  453MOL0     C59698  -0.817   8.987   6.484 -0.0912  0.9810 -0.4707
  453MOL0     O59699  -0.937   8.927   6.485 -0.7364 -0.1907  0.8046
  453MOL0     C59700  -1.034   8.993   6.405 -0.1166  0.0575 -0.3062
  453MOL0     C59701  -1.167   8.917   6.375  0.2223  0.1594 -0.4289
  453MOL0     C59702  -1.254   8.930   6.501 -0.2502 -0.0541 -0.2509
  453MOL0     C59703  -1.389   8.855   6.492  0.3561 -0.0640 -0.0415
  453MOL0     C59704  -1.494   8.887   6.601 -0.6930 -0.1088  0.3139
  453MOL0     C59705  -1.633   8.834   6.568 -0.0518  0.2500 -0.4674
  453MOL0     C59706  -1.721   8.851   6.697  0.3990 -0.2531 -0.3867
  453MOL0     C59707  -1.712   8.736   6.788  0.6854 -0.3323 -0.5727
  453MOL0    Cl59708  -1.738   8.576   6.714 -0.1548  0.2495 -0.3193
  453MOL0     C59709  -0.769   9.057   6.598  0.1644  0.1951  0.7293
  453MOL0     C59710  -0.641   9.109   6.604  0.8113  0.6258  0.0991
  453MOL0     O59711  -0.348   8.918   6.502  0.2231 -0.1690 -0.0696
  453MOL0     C59712  -0.175   9.225   6.476  0.1875  0.1333 -0.0900
  453MOL0     C59713  -0.057   9.292   6.488 -0.0895  0.5431 -0.3025
  453MOL0     N59714   0.613   9.556   6.281 -0.2515  0.4369  0.3498
  453MOL0     N59715   0.671   9.549   6.164 -0.1292  0.1358  0.1371
  453MOL0     C59716   1.047   9.226   6.902  0.1191 -0.1629 -0.0599
  453MOL0     C59717   1.068   9.220   7.040  0.5248 -0.4688 -0.7563
  453MOL0     C59718   0.970   9.004   7.448  0.1730  0.6806 -0.8145
  453MOL0     C59719   0.912   9.120   7.500  0.8196  0.0466 -0.3169
  453MOL0     C59720   0.831   9.124   7.618 -0.5418  0.2427  0.4986
  453MOL0     C59721   0.821   9.006   7.694  0.5989 -0.1551  0.5899
  453MOL0     O59722   0.747   9.020   7.811  0.4201  0.0556  0.4313
  453MOL0     C59723   0.724   8.911   7.899  0.2187  0.8005 -0.0694
  453MOL0     C59724   0.606   8.830   7.852 -0.4669  0.4970 -1.3021
  453MOL0     C59725   0.632   8.678   7.862 -0.0326  0.6322  0.2074
  453MOL0     C59726   0.643   8.619   8.013 -0.3084 -0.5355 -0.4597
  453MOL0     C59727   0.673   8.471   8.013 -1.1679  0.2788 -0.8938
  453MOL0     C59728   0.708   8.353   8.027 -1.1083  0.1395  0.5415
  453MOL0     C59729   0.902   8.898   7.657  0.1703 -0.5346 -0.6756
  453MOL0     C59730   0.960   8.895   7.531 -0.0860  0.1500  0.5513
  453MOL0     H59731   0.935   8.917   7.091  0.9550  1.3244  1.5354
  453MOL0     H59732   0.879   8.928   6.866 -0.9869  2.2371 -1.0871
  453MOL0     H59733   0.859   8.981   6.625  0.3981  0.7818 -0.4169
  453MOL0     H59734   1.019   8.919   6.667 -0.8963 -0.0043  0.5723
  453MOL0     H59735   0.978   8.929   6.422  2.1951 -0.2786 -0.8447
  453MOL0     H59736   1.113   9.019   6.470  0.1723 -0.9668  0.3369
  453MOL0     H59737   0.966   9.224   6.466  2.1775 -1.9630  1.8253
  453MOL0     H59738   0.822   9.118   6.423  0.8542  0.5080  4.0970
  453MOL0     H59739   1.058   9.205   6.282 -0.6207  0.9639 -0.5709
  453MOL0     H59740   0.991   9.060   6.208  1.2116 -0.3898  1.3745
  453MOL0     H59741   0.866   9.338   6.257 -0.2902 -1.9046  2.5444
  453MOL0     H59742   0.771   9.202   6.208 -0.0482  0.9715  0.5838
  453MOL0     H59743   0.895   9.179   5.993 -1.2863  0.2066  0.7033
  453MOL0     H59744   1.008   9.303   6.036  0.3955  0.6378 -2.1202
  453MOL0     H59745   0.866   9.481   5.995  2.1566 -0.7546 -0.4821
  453MOL0     H59746   0.857   9.372   5.876  3.4592  1.4727  1.1703
  453MOL0     H59747   0.648   9.264   5.999 -0.9777  0.1694 -0.2668
  453MOL0     H59748   0.625   9.406   5.901  1.3626 -2.8509 -1.7981
  453MOL0     H59749   0.439   9.314   6.157 -0.9684 -0.1818  0.6883
  453MOL0     H59750   0.476   9.531   6.490  1.7414 -0.9818 -0.9234
  453MOL0     H59751   0.443   9.359   6.486 -4.1693 -0.5445  1.8096
  453MOL0     H59752   0.241   9.397   6.336  0.5117  0.2109 -0.7799
  453MOL0     H59753   0.277   9.566   6.334 -1.6844 -1.0230 -1.4474
  453MOL0     H59754   0.258   9.585   6.582  2.1884 -0.7366 -0.7199
  453MOL0     H59755   0.106   9.540   6.499 -0.3648 -1.5144  0.3123
  453MOL0     H59756   0.096   9.409   6.677 -0.2779 -0.8221 -0.8648
  453MOL0     H59757   0.271   9.396   6.691  1.6854 -2.0592 -1.9692
  453MOL0     H59758   0.125   9.028   6.576  0.7191  1.2008 -1.2458
  453MOL0     H59759  -0.109   8.918   6.574  0.8420  0.6141  3.7419
  453MOL0     H59760  -0.555   9.022   6.288  0.8904  1.6523  1.7993
  453MOL0     H59761  -0.771   8.941   6.280  0.4600  0.0678 -0.0097
  453MOL0     H59762  -0.988   9.003   6.306 -0.9429  0.3484 -0.6666
  453MOL0     H59763  -1.060   9.094   6.438  1.1449 -0.4268  2.4473
  453MOL0     H59764  -1.135   8.814   6.358  1.6011 -0.0349  2.6820
  453MOL0     H59765  -1.214   8.968   6.290 -0.0728  1.9110  0.7265
  453MOL0     H59766  -1.268   9.038   6.513 -1.3035 -0.4227  2.5918
  453MOL0     H59767  -1.198   8.901   6.591 -1.1700 -1.8623 -0.2238
  453MOL0     H59768  -1.433   8.869   6.393 -0.8330 -0.2773  0.4420
  453MOL0     H59769  -1.362   8.749   6.490  1.1920  0.1542 -1.0995
  453MOL0     H59770  -1.502   8.994   6.619 -2.8009  0.3342 -2.5778
  453MOL0     H59771  -1.457   8.839   6.693  2.2845  0.4967 -0.4423
  453MOL0     H59772  -1.625   8.728   6.540  0.0520  0.0140  0.4243
  453MOL0     H59773  -1.671   8.891   6.482 -1.7629 -0.5639 -0.2914
  453MOL0     H59774  -1.712   8.947   6.751 -1.4042  0.0694 -0.5840
  453MOL0     H59775  -1.824   8.867   6.664 -0.1564  1.5635  1.9043
  453MOL0     H59776  -1.790   8.748   6.864  0.1978  1.5912 -1.3279
  453MOL0     H59777  -1.613   8.736   6.836  0.8253 -1.9148 -0.8101
  453MOL0     H59778  -0.826   9.074   6.690 -1.6204 -0.6627 -0.1640
  453MOL0     H59779  -0.610   9.165   6.691 -3.3214  1.9470  0.9793
  453MOL0     H59780  -0.255   9.293   6.447 -0.4486 -0.7039 -0.3403
  453MOL0     H59781  -0.050   9.399   6.476  2.4942  0.4345 -0.3520
  453MOL0     H59782   1.074   9.319   6.854 -2.4727  1.0575  0.6549
  453MOL0     H59783   1.109   9.296   7.105 -0.7634 -0.3054 -0.1174
  453MOL0     H59784   0.915   9.216   7.450  0.5166  0.1747 -0.0879
  453MOL0     H59785   0.787   9.221   7.640 -2.1036 -0.7578  1.9460
  453MOL0     H59786   0.698   8.953   7.997  1.3545 -1.0771  1.0994
  453MOL0     H59787   0.810   8.845   7.911 -0.0795  0.7651  2.4134
  453MOL0     H59788   0.519   8.866   7.907 -1.2753 -0.1178 -2.1376
  453MOL0     H59789   0.594   8.841   7.743 -0.9413 -3.7168 -1.8491
  453MOL0     H59790   0.730   8.669   7.815  0.5731  0.1393  1.5190
  453MOL0     H59791   0.559   8.624   7.802  2.2795 -3.4506  0.7109
  453MOL0     H59792   0.713   8.673   8.076 -0.5860  1.1300 -1.5311
  453MOL0     H59793   0.544   8.628   8.061 -0.5402  1.1368 -1.2048
  453MOL0     H59794   0.733   8.251   8.045 -2.4819 -0.7364 -2.0780
  453MOL0     H59795   0.895   8.803   7.710  1.1420  1.1033  2.6155
  453MOL0     H59796   1.011   8.804   7.503 -2.2525 -0.4145 -1.9142
  454MOL0     O59797   1.636   5.477   6.376  0.2836 -0.1234 -0.6131
  454MOL0     C59798   1.684   5.388   6.444 -0.6428  0.5266  0.7597
  454MOL0     O59799   1.619   5.273   6.488  0.0904 -0.7374  0.1598
  454MOL0     C59800   1.496   5.262   6.436  0.2250 -0.8766 -0.1856
  454MOL0     C59801   1.388   5.304   6.507  0.0725 -0.3781 -0.7018
  454MOL0     C59802   1.257   5.297   6.458 -0.6491 -0.3415  0.4235
  454MOL0     C59803   1.238   5.254   6.328 -0.6024 -0.1951  0.5985
  454MOL0     O59804   1.116   5.250   6.268 -0.4223 -0.3912 -0.5880
  454MOL0     C59805   0.992   5.277   6.339  0.4240 -0.4070  0.7896
  454MOL0     C59806   0.882   5.269   6.239  0.5191  0.0371 -0.1489
  454MOL0     C59807   0.900   5.380   6.127 -0.1716  0.3535 -0.1113
  454MOL0     C59808   0.770   5.384   6.038 -0.0402 -0.1079  0.5464
  454MOL0     C59809   0.790   5.517   5.949  0.3030 -0.1732 -0.2948
  454MOL0     C59810   0.718   5.516   5.817 -0.6705 -0.2589 -0.4430
  454MOL0     C59811   0.560   5.492   5.830 -0.5935 -0.4976 -0.1267
  454MOL0     C59812   0.497   5.624   5.872 -0.4489 -0.2853  0.0393
  454MOL0     N59813   0.362   5.637   5.835  1.1234 -0.1455 -0.1964
  454MOL0     C59814   0.303   5.631   5.710 -0.6596 -0.0795 -0.2406
  454MOL0     C59815   0.172   5.677   5.723 -0.1404  1.3340 -0.4017
  454MOL0     C59816   0.060   5.671   5.632 -0.2910 -0.3705 -0.1897
  454MOL0     C59817   0.021   5.806   5.576 -0.3334  0.6837 -0.5205
  454MOL0     C59818  -0.073   5.795   5.460  0.1245 -0.1268 -0.6263
  454MOL0     C59819  -0.222   5.813   5.504  0.5535  0.3295  0.5013
  454MOL0     O59820  -0.289   5.872   5.394  0.1748 -0.0972 -0.8093
  454MOL0     C59821  -0.422   5.913   5.394  0.1460 -0.9242 -0.1630
  454MOL0     C59822  -0.509   5.881   5.498 -0.3502 -0.4058  0.3726
  454MOL0     C59823  -0.646   5.912   5.487  0.1704  0.1668  0.3450
  454MOL0     C59824  -0.708   5.957   5.371 -0.3641 -0.1694 -0.0145
  454MOL0     C59825  -0.855   5.985   5.364  1.1945 -0.5617 -0.8836
  454MOL0     O59826  -0.911   6.071   5.275 -0.7298  0.6022 -0.1899
  454MOL0     C59827  -1.043   6.099   5.271  0.7818  0.1280 -0.4227
  454MOL0     C59828  -1.145   6.014   5.229  0.6013  0.7967  0.1282
  454MOL0     C59829  -1.280   6.059   5.226  0.5843  0.9288  0.5212
  454MOL0     C59830  -1.308   6.195   5.252  0.4421  0.7987  0.7142
  454MOL0     O59831  -1.428   6.254   5.247  0.7261 -0.2712  0.3946
  454MOL0     C59832  -1.547   6.176   5.262 -0.2462 -0.2130 -1.1606
  454MOL0     C59833  -1.675   6.255   5.248 -0.1890 -0.5405 -0.4035
  454MOL0     C59834  -1.683   6.362   5.353  0.2139  0.3247  0.6024
  454MOL0     C59835  -1.812   6.444   5.360  0.2151 -0.1917  0.5837
  454MOL0     C59836  -1.795   6.540   5.476  0.2630  0.2779 -0.5256
  454MOL0     C59837  -1.726   6.666   5.422 -0.7668 -0.6068 -0.1964
  454MOL0     C59838  -1.754   6.788   5.508  0.3616 -0.2108 -0.4516
  454MOL0     C59839  -1.653   6.900   5.477  0.2357  0.7816  0.3422
  454MOL0    Cl59840  -1.603   6.989   5.637  0.1650  0.4023  0.3025
  454MOL0     C59841  -1.203   6.281   5.280 -0.6141  0.0028 -0.8011
  454MOL0     C59842  -1.071   6.233   5.293  0.3359 -0.2613  0.9873
  454MOL0     O59843  -0.923   5.932   5.456 -0.7485  0.1614  0.9548
  454MOL0     C59844  -0.621   5.979   5.260  0.0728  0.6010  0.5560
  454MOL0     C59845  -0.485   5.963   5.276 -0.4363  0.6350  0.3358
  454MOL0     N59846   0.160   5.709   5.860  0.6340  0.3398  0.2675
  454MOL0     N59847   0.267   5.686   5.927 -0.7031 -0.0767 -0.1439
  454MOL0     C59848   1.345   5.223   6.248 -0.0938  0.3055 -0.2952
  454MOL0     C59849   1.475   5.232   6.300 -1.0312  0.5697 -0.5843
  454MOL0     C59850   1.832   5.407   6.486 -0.5194  0.0174 -0.0620
  454MOL0     C59851   1.904   5.314   6.558  0.2032  0.5697 -0.4665
  454MOL0     C59852   2.029   5.341   6.609  0.2303 -0.1964  0.1377
  454MOL0     C59853   2.087   5.465   6.593 -0.5931 -0.1851  0.6946
  454MOL0     O59854   2.213   5.479   6.641 -0.0878  0.2602  0.2564
  454MOL0     C59855   2.209   5.555   6.758  0.5116 -0.0355  0.2567
  454MOL0     C59856   2.356   5.591   6.800  0.6527 -0.1989 -0.4845
  454MOL0     C59857   2.448   5.471   6.854 -0.2490  0.7467 -0.3828
  454MOL0     C59858   2.599   5.501   6.831  0.0351 -0.1377  0.4206
  454MOL0     C59859   2.642   5.619   6.905 -0.5137  0.3486  0.6576
  454MOL0     C59860   2.676   5.720   6.967 -0.3613  0.1492 -0.5807
  454MOL0     C59861   2.019   5.556   6.512 -0.0640 -0.9450 -0.9071
  454MOL0     C59862   1.897   5.526   6.458 -0.4013 -0.4884 -0.1255
  454MOL0     H59863   1.406   5.328   6.611 -0.4510 -0.8235 -0.5065
  454MOL0     H59864   1.170   5.330   6.514  0.2586  1.8765  0.6266
  454MOL0     H59865   0.983   5.372   6.391  0.3348 -1.6136  3.0886
  454MOL0     H59866   0.976   5.206   6.421  0.4424 -0.5475  0.6738
  454MOL0     H59867   0.785   5.286   6.287  0.1638  0.7826 -1.0949
  454MOL0     H59868   0.884   5.169   6.196 -2.3963  0.6839 -2.1202
  454MOL0     H59869   0.990   5.357   6.070  0.4959  1.4721  0.4654
  454MOL0     H59870   0.911   5.476   6.179  0.4232  0.1172  0.2157
  454MOL0     H59871   0.755   5.299   5.972  0.5827  0.7476 -0.7313
  454MOL0     H59872   0.682   5.395   6.103 -0.7777  2.9546 -0.7738
  454MOL0     H59873   0.895   5.525   5.919  0.4950  1.5059  0.7052
  454MOL0     H59874   0.781   5.609   6.007  2.0653 -0.8816  1.2338
  454MOL0     H59875   0.755   5.430   5.760  0.3000 -0.7295  0.8418
  454MOL0     H59876   0.739   5.610   5.765  1.3564 -1.2825 -1.6168
  454MOL0     H59877   0.528   5.473   5.727  2.1478  2.3292 -1.6892
  454MOL0     H59878   0.538   5.415   5.904 -0.7051  0.9506  1.4112
  454MOL0     H59879   0.554   5.713   5.844  0.9139 -0.7841  1.1406
  454MOL0     H59880   0.490   5.620   5.982 -3.1326  2.4656  0.1248
  454MOL0     H59881   0.348   5.606   5.615  2.0024  2.3657  0.2506
  454MOL0     H59882  -0.031   5.638   5.683 -0.0024 -0.0687  0.5302
  454MOL0     H59883   0.087   5.604   5.550  0.0046 -0.7613  0.2276
  454MOL0     H59884   0.116   5.846   5.539 -0.5636  0.2733 -1.5800
  454MOL0     H59885  -0.011   5.864   5.664 -0.7499 -3.9322  2.7650
  454MOL0     H59886  -0.050   5.888   5.407  1.9805 -0.4250 -0.3883
  454MOL0     H59887  -0.063   5.707   5.396  1.6043 -0.0598 -0.5101
  454MOL0     H59888  -0.242   5.869   5.596  0.0250  0.9204  0.0382
  454MOL0     H59889  -0.268   5.714   5.515 -2.5444  1.8032  2.2643
  454MOL0     H59890  -0.480   5.844   5.596  1.0634  1.5331  0.7437
  454MOL0     H59891  -0.694   5.899   5.583  0.0536  1.7231  0.5248
  454MOL0     H59892  -1.122   5.909   5.212 -0.1571  0.6359  0.0650
  454MOL0     H59893  -1.357   5.986   5.204  0.1586  1.2606  0.8994
  454MOL0     H59894  -1.539   6.133   5.363  3.5864  0.2772 -1.1283
  454MOL0     H59895  -1.534   6.099   5.186  2.2297  0.2114 -1.2517
  454MOL0     H59896  -1.766   6.195   5.248 -0.7239  0.1769 -2.3033
  454MOL0     H59897  -1.671   6.292   5.144  0.0399 -1.2800 -0.6617
  454MOL0     H59898  -1.592   6.422   5.341 -0.2886  0.9737 -0.1566
  454MOL0     H59899  -1.663   6.306   5.444 -0.8501 -1.8311 -0.4161
  454MOL0     H59900  -1.842   6.487   5.264  1.6397 -0.4343  0.0007
  454MOL0     H59901  -1.894   6.379   5.392  0.3006  0.1565  1.5417
  454MOL0     H59902  -1.736   6.489   5.553  0.7709  2.7633  0.8206
  454MOL0     H59903  -1.891   6.564   5.521 -1.6767  0.9647 -4.5813
  454MOL0     H59904  -1.751   6.690   5.319  1.5625  0.5920 -0.5366
  454MOL0     H59905  -1.618   6.653   5.420 -0.7560 -1.1547  1.6728
  454MOL0     H59906  -1.853   6.826   5.481 -0.5934 -0.6146  2.1910
  454MOL0     H59907  -1.743   6.759   5.613 -2.1574  1.0182  0.2290
  454MOL0     H59908  -1.683   6.965   5.395 -2.1605  1.2094  1.4695
  454MOL0     H59909  -1.560   6.855   5.441  0.2349 -0.1058  1.3800
  454MOL0     H59910  -1.216   6.388   5.293  4.6181  0.8939 -0.7512
  454MOL0     H59911  -0.998   6.302   5.335 -1.2096  2.1602 -0.1087
  454MOL0     H59912  -0.663   6.005   5.163  0.6504 -1.5200 -0.3226
  454MOL0     H59913  -0.431   5.989   5.185  0.1415  0.4204  0.6136
  454MOL0     H59914   1.317   5.175   6.155 -3.2203 -1.0767  1.1863
  454MOL0     H59915   1.548   5.186   6.234 -1.3030  0.5458 -0.8694
  454MOL0     H59916   1.857   5.216   6.565 -0.7233  1.0312 -0.0443
  454MOL0     H59917   2.090   5.266   6.658 -0.8409 -2.3997 -1.7234
  454MOL0     H59918   2.144   5.501   6.828 -1.8923  0.5046 -1.4322
  454MOL0     H59919   2.168   5.655   6.737 -1.5443 -0.2998  2.5116
  454MOL0     H59920   2.405   5.643   6.718 -1.8823  1.5587 -0.9892
  454MOL0     H59921   2.350   5.666   6.880 -1.5526 -0.0655 -0.7021
  454MOL0     H59922   2.436   5.371   6.811  1.2767 -0.4143  1.7001
  454MOL0     H59923   2.430   5.462   6.962  0.3966 -3.2918 -0.4455
  454MOL0     H59924   2.649   5.404   6.844  1.6149  0.3427 -1.6769
  454MOL0     H59925   2.609   5.531   6.726 -0.9222  0.4648  0.4892
  454MOL0     H59926   2.704   5.808   7.023 -1.5672  0.9516 -1.2089
  454MOL0     H59927   2.068   5.648   6.483  0.8778  0.0722  3.1871
  454MOL0     H59928   1.853   5.604   6.397  4.3298  1.8989 -0.9318
  455MOL0     O59929  10.447   4.253   8.442 -0.2614  0.1323  0.3609
  455MOL0     C59930  10.465   4.177   8.535  0.7045  0.0360 -0.2135
  455MOL0     O59931  10.387   4.161   8.641 -0.1399  1.0150  0.4004
  455MOL0     C59932  10.256   4.203   8.629  0.1264 -0.1500 -0.3059
  455MOL0     C59933  10.230   4.344   8.639 -0.1415  0.1504 -0.9041
  455MOL0     C59934  10.101   4.389   8.664 -0.2043  0.1319  0.5381
  455MOL0     C59935   9.998   4.301   8.681 -0.3797  0.3812 -1.6610
  455MOL0     O59936   9.876   4.357   8.708 -0.7001  0.3355 -0.1181
  455MOL0     C59937   9.775   4.263   8.753  0.3220 -0.9234 -0.6209
  455MOL0     C59938   9.649   4.341   8.794  0.6040  0.5056 -0.3984
  455MOL0     C59939   9.535   4.253   8.829 -0.0051  1.3170 -0.0575
  455MOL0     C59940   9.396   4.314   8.812 -1.1192 -0.5116 -0.0409
  455MOL0     C59941   9.267   4.223   8.837 -0.0865  0.1654 -0.0204
  455MOL0     C59942   9.260   4.094   8.752  0.9332 -0.4328  0.9500
  455MOL0     C59943   9.133   4.022   8.790  0.0528  0.6091  0.1815
  455MOL0     C59944   9.114   3.889   8.715 -0.5020  0.5978 -0.1521
  455MOL0     N59945   8.982   3.839   8.740 -0.2313 -0.4325  0.6428
  455MOL0     C59946   8.879   3.831   8.655  0.4286  0.1521 -0.2425
  455MOL0     C59947   8.773   3.796   8.728  1.1320  0.4431  0.1691
  455MOL0     C59948   8.626   3.779   8.698  0.6037 -0.7594  0.0285
  455MOL0     C59949   8.563   3.906   8.622 -0.1880 -0.6070  0.3923
  455MOL0     C59950   8.557   4.029   8.713  0.4796  0.3263 -0.1465
  455MOL0     C59951   8.478   4.037   8.836  0.5123  0.4111 -0.0968
  455MOL0     O59952   8.357   3.954   8.826 -0.1235  0.3259  0.8591
  455MOL0     C59953   8.244   4.010   8.771  0.6124 -0.0717  0.9136
  455MOL0     C59954   8.126   3.936   8.760 -0.2603  0.0917 -1.1608
  455MOL0     C59955   8.001   3.998   8.734 -0.0944  0.3415 -0.2814
  455MOL0     C59956   8.002   4.133   8.684  0.0783  0.7227 -0.8547
  455MOL0     C59957   7.868   4.194   8.643 -0.7318 -0.7232 -0.6862
  455MOL0     O59958   7.758   4.113   8.673  0.8342 -0.0450  0.0330
  455MOL0     C59959   7.626   4.145   8.659 -0.3679 -0.3495  0.5803
  455MOL0     C59960   7.569   4.272   8.601  0.2617  0.5690 -0.1646
  455MOL0     C59961   7.434   4.282   8.580 -0.1185 -0.2999 -0.4576
  455MOL0     C59962   7.352   4.186   8.619  0.4398 -0.2211  0.5072
  455MOL0     O59963   7.212   4.197   8.621 -0.0445 -0.6448  0.5211
  455MOL0     C59964   7.118   4.096   8.660 -0.0124  1.0149 -0.6798
  455MOL0     C59965   6.977   4.159   8.640 -0.2884  0.3333 -0.4064
  455MOL0     C59966   6.870   4.064   8.693  0.6593 -0.5481 -0.3831
  455MOL0     C59967   6.733   4.123   8.692  0.6127  0.4565 -0.0651
  455MOL0     C59968   6.623   4.022   8.727  0.6003 -0.3447  0.4154
  455MOL0     C59969   6.488   4.085   8.711  1.1169 -0.0249  0.0475
  455MOL0     C59970   6.388   3.966   8.713  0.2239 -0.1871  0.0447
  455MOL0     C59971   6.386   3.894   8.576  0.4094  0.2769  0.6425
  455MOL0    Cl59972   6.256   3.776   8.577  0.0439  0.2025 -0.2959
  455MOL0     C59973   7.401   4.070   8.675 -0.0792  0.7200  0.1245
  455MOL0     C59974   7.537   4.041   8.694  0.2625  0.4940  0.6111
  455MOL0     O59975   7.864   4.313   8.602 -0.2772  0.4399  0.2960
  455MOL0     C59976   8.120   4.203   8.687 -0.6229  0.4379 -0.1532
  455MOL0     C59977   8.241   4.149   8.733  0.1555 -0.2257  1.3159
  455MOL0     N59978   8.810   3.776   8.850  0.2751  0.2716 -0.8924
  455MOL0     N59979   8.937   3.794   8.854  0.2334 -0.5945  0.2544
  455MOL0     C59980  10.019   4.161   8.673  0.2348  0.6300 -0.2381
  455MOL0     C59981  10.148   4.112   8.645  0.8143  0.7462  0.0917
  455MOL0     C59982  10.605   4.122   8.545  1.1035 -1.1471  0.6665
  455MOL0     C59983  10.707   4.156   8.462  0.6737 -0.2285  0.3549
  455MOL0     C59984  10.832   4.099   8.471 -0.7569 -0.3939 -0.2765
  455MOL0     C59985  10.857   4.004   8.565  0.8930 -0.6293 -0.0143
  455MOL0     O59986  10.985   3.969   8.573  0.7571 -0.3475 -0.0972
  455MOL0     C59987  11.063   4.047   8.663 -0.6193 -0.8489 -0.5310
  455MOL0     C59988  11.117   3.959   8.777  0.1243  0.6426 -0.1086
  455MOL0     C59989  11.220   4.042   8.846 -0.2645 -0.0287  0.3338
  455MOL0     C59990  11.307   3.974   8.953  0.1912 -0.9966  0.5046
  455MOL0     C59991  11.429   4.041   8.998  0.6094 -0.4023  0.3694
  455MOL0     C59992  11.536   4.082   9.036 -0.3575 -0.1844 -0.4549
  455MOL0     C59993  10.761   3.977   8.667 -0.1240 -0.1351  0.7836
  455MOL0     C59994  10.635   4.030   8.653  0.0789 -0.4884  1.6341
  455MOL0     H59995  10.319   4.403   8.620  1.5102 -2.0083 -0.2910
  455MOL0     H59996  10.078   4.495   8.658 -0.2651  0.0454 -1.4080
  455MOL0     H59997   9.818   4.214   8.841 -1.3454 -0.7738  0.3265
  455MOL0     H59998   9.756   4.194   8.670  2.2550  0.8845 -2.7281
  455MOL0     H59999   9.627   4.406   8.709 -0.8562  1.1457  0.4363
  455MOL0     H60000   9.679   4.404   8.878  2.5595  0.0837 -0.7374
  455MOL0     H60001   9.550   4.218   8.931  0.7629  1.7979 -0.0011
  455MOL0     H60002   9.534   4.160   8.773  1.2914  1.5393 -0.4856
  455MOL0     H60003   9.391   4.405   8.874 -1.5799  2.8675 -4.5140
  455MOL0     H60004   9.403   4.350   8.709 -0.7148 -1.3528 -0.3145
  455MOL0     H60005   9.177   4.285   8.829  0.2627  0.6048 -0.5241
  455MOL0     H60006   9.258   4.196   8.943 -1.1227 -0.1311 -0.1695
  455MOL0     H60007   9.345   4.027   8.773  2.2073 -0.8567 -4.0846
  455MOL0     H60008   9.251   4.121   8.646 -1.1564 -0.7193  1.0299
  455MOL0     H60009   9.148   4.002   8.896  1.0214 -0.8867 -0.2131
  455MOL0     H60010   9.043   4.083   8.775 -0.0694  0.4744  0.3516
  455MOL0     H60011   9.191   3.820   8.751  0.3609  1.6253  0.0248
  455MOL0     H60012   9.124   3.896   8.606 -2.4872 -1.3594 -0.5340
  455MOL0     H60013   8.868   3.855   8.549  0.8556  1.2982 -0.0405
  455MOL0     H60014   8.577   3.750   8.791  0.2596 -0.7162 -0.1382
  455MOL0     H60015   8.629   3.698   8.625 -2.3313  1.4625 -2.8187
  455MOL0     H60016   8.466   3.874   8.583 -0.9523 -0.6052  2.1784
  455MOL0     H60017   8.629   3.935   8.540 -1.9951 -0.2495 -0.9865
  455MOL0     H60018   8.656   4.065   8.743 -0.2167 -0.2920  3.4488
  455MOL0     H60019   8.524   4.109   8.646  2.8699  0.4764 -1.2353
  455MOL0     H60020   8.463   4.141   8.867  2.5090  1.4277 -2.2150
  455MOL0     H60021   8.541   3.996   8.916  1.1299  1.0155 -0.2652
  455MOL0     H60022   8.128   3.831   8.788 -1.2567  0.0966 -1.0018
  455MOL0     H60023   7.910   3.943   8.758  1.1597 -0.9280  1.8685
  455MOL0     H60024   7.629   4.362   8.593 -0.3829  1.0307  0.1793
  455MOL0     H60025   7.391   4.376   8.547  1.0967 -0.4454 -2.6992
  455MOL0     H60026   7.132   4.074   8.766 -2.6397 -0.5360 -0.5849
  455MOL0     H60027   7.125   4.003   8.604 -3.9706  0.2544 -0.1913
  455MOL0     H60028   6.960   4.157   8.532 -0.2997 -1.4010 -0.3906
  455MOL0     H60029   6.977   4.260   8.683  0.8082  0.5346 -0.8639
  455MOL0     H60030   6.895   4.027   8.793  0.8006 -2.9993 -1.2572
  455MOL0     H60031   6.865   3.978   8.626  1.1951 -0.1141 -1.0039
  455MOL0     H60032   6.735   4.208   8.761  0.2403  0.9988 -0.7103
  455MOL0     H60033   6.705   4.162   8.594 -2.8391  2.2996  1.4456
  455MOL0     H60034   6.622   3.979   8.827 -0.0314 -1.8783 -0.2270
  455MOL0     H60035   6.633   3.938   8.658  0.1405 -0.8755  0.9900
  455MOL0     H60036   6.484   4.142   8.618  2.2717 -1.3463 -0.8348
  455MOL0     H60037   6.469   4.159   8.789 -0.1973  0.2699 -0.5364
  455MOL0     H60038   6.421   3.896   8.790  0.2996  1.2345  1.3471
  455MOL0     H60039   6.287   3.996   8.742  0.1334 -0.9940  0.5969
  455MOL0     H60040   6.475   3.831   8.570 -0.0349 -0.5162  1.9204
  455MOL0     H60041   6.382   3.963   8.491 -1.8027 -0.3463  0.1949
  455MOL0     H60042   7.341   3.988   8.713  2.1205 -1.9231 -1.7072
  455MOL0     H60043   7.569   3.947   8.737 -2.2116 -0.3095  0.8437
  455MOL0     H60044   8.104   4.305   8.654 -1.5486  0.4143  0.1837
  455MOL0     H60045   8.330   4.210   8.722 -0.4441  0.3394 -1.0583
  455MOL0     H60046   9.930   4.101   8.687 -0.8681  1.9443 -1.3434
  455MOL0     H60047  10.167   4.005   8.649  0.6897  0.7106 -0.2688
  455MOL0     H60048  10.702   4.237   8.390 -0.6404  0.2097  0.9015
  455MOL0     H60049  10.910   4.130   8.402  0.6567 -1.5741  0.7237
  455MOL0     H60050  11.008   4.127   8.713  0.7031 -1.0198  1.2862
  455MOL0     H60051  11.144   4.100   8.612 -1.0185  2.1412  1.6698
  455MOL0     H60052  11.035   3.922   8.838 -0.2690  2.3455  0.4591
  455MOL0     H60053  11.165   3.869   8.737  2.9303  1.7498  0.5159
  455MOL0     H60054  11.162   4.121   8.894  1.8146  2.5145 -1.1215
  455MOL0     H60055  11.294   4.092   8.783 -0.1654  1.6371  1.7135
  455MOL0     H60056  11.246   3.981   9.044  0.4442  1.8087  0.5403
  455MOL0     H60057  11.332   3.871   8.925 -0.5610 -0.9348 -0.4238
  455MOL0     H60058  11.633   4.125   9.050 -2.0711  3.4658  1.6852
  455MOL0     H60059  10.785   3.902   8.742 -3.0262 -1.2747  0.7004
  455MOL0     H60060  10.572   3.998   8.736 -2.2425  0.5455  0.3661
  456MOL0     O60061   5.574   4.993   0.423 -0.4013  0.6055 -0.1980
  456MOL0     C60062   5.544   4.974   0.307  0.2527 -0.7218  0.3074
  456MOL0     O60063   5.416   4.939   0.273 -0.4154 -0.1950 -0.0853
  456MOL0     C60064   5.328   4.874   0.359 -0.0894  0.4538  0.3078
  456MOL0     C60065   5.302   4.894   0.499 -0.2455 -0.0216 -0.3998
  456MOL0     C60066   5.219   4.801   0.569  0.1002 -0.8100 -0.6461
  456MOL0     C60067   5.158   4.699   0.502  0.2069  0.2065 -0.6638
  456MOL0     O60068   5.066   4.614   0.557 -0.3215  0.0912 -0.8178
  456MOL0     C60069   5.079   4.578   0.692  0.0107 -0.3656 -0.5813
  456MOL0     C60070   5.036   4.430   0.696 -0.4890 -0.7839 -0.3421
  456MOL0     C60071   4.912   4.392   0.614  0.2103 -0.4267 -0.0713
  456MOL0     C60072   4.789   4.478   0.639 -0.5371  0.5099  1.0352
  456MOL0     C60073   4.703   4.468   0.511  0.2471  0.6522  0.1377
  456MOL0     C60074   4.613   4.344   0.485  0.6400  0.7090  0.3714
  456MOL0     C60075   4.543   4.300   0.604  0.3084 -0.5215  0.2962
  456MOL0     C60076   4.453   4.413   0.650  0.2524 -0.0907  0.4886
  456MOL0     N60077   4.368   4.372   0.761 -0.3549  0.1255  0.0364
  456MOL0     C60078   4.236   4.322   0.757 -0.0293 -0.2954 -0.0104
  456MOL0     C60079   4.170   4.354   0.867 -0.4993 -0.6433  1.0896
  456MOL0     C60080   4.029   4.338   0.925 -0.0420  0.0499  0.4446
  456MOL0     C60081   3.927   4.420   0.853 -0.2318  0.0127 -0.1454
  456MOL0     C60082   3.783   4.372   0.883  0.4940  0.3563 -0.4664
  456MOL0     C60083   3.681   4.470   0.815 -0.4482 -0.1803 -0.4620
  456MOL0     O60084   3.547   4.422   0.826  0.4158  0.2499 -0.4701
  456MOL0     C60085   3.441   4.501   0.767 -0.2692  0.7638 -1.2101
  456MOL0     C60086   3.460   4.615   0.694 -0.6221 -0.6068  0.2599
  456MOL0     C60087   3.351   4.707   0.667  0.2164  0.0651  1.0272
  456MOL0     C60088   3.218   4.672   0.683 -0.0180  0.2514  0.6891
  456MOL0     C60089   3.103   4.753   0.639 -0.3893  0.3784  0.9128
  456MOL0     O60090   2.988   4.735   0.695 -0.2781  0.6987 -0.0815
  456MOL0     C60091   2.868   4.799   0.659 -0.1353  0.5897 -0.3580
  456MOL0     C60092   2.753   4.745   0.720  0.5731  0.4253  0.1086
  456MOL0     C60093   2.626   4.803   0.711  0.1400 -0.4657  0.5952
  456MOL0     C60094   2.606   4.916   0.638 -0.4419 -0.1857  0.6019
  456MOL0     O60095   2.471   4.957   0.643  0.3483  0.1592 -0.0781
  456MOL0     C60096   2.426   5.078   0.584 -0.2183  0.0757  0.1692
  456MOL0     C60097   2.275   5.087   0.611 -1.0002 -0.3849  0.2259
  456MOL0     C60098   2.240   5.131   0.751  0.1529 -0.9281  0.0801
  456MOL0     C60099   2.090   5.138   0.768 -0.2528 -0.6389 -0.5133
  456MOL0     C60100   2.037   5.185   0.899  0.3576 -0.2052 -0.3919
  456MOL0     C60101   1.883   5.190   0.900  0.1668 -0.4980 -0.2299
  456MOL0     C60102   1.838   5.240   1.041  0.0067 -0.6785  0.6304
  456MOL0     C60103   1.686   5.243   1.067 -0.3265 -0.6412 -0.3011
  456MOL0    Cl60104   1.621   5.087   1.079  0.4931  0.1939  0.0540
  456MOL0     C60105   2.709   4.964   0.562  0.3720  0.2193 -0.7174
  456MOL0     C60106   2.840   4.912   0.578  0.5119  0.4681 -0.0144
  456MOL0     O60107   3.130   4.847   0.564 -0.3409  0.1417 -0.6918
  456MOL0     C60108   3.200   4.545   0.749 -0.6553  0.0250 -0.1637
  456MOL0     C60109   3.309   4.465   0.796 -0.2065  0.1574 -0.4426
  456MOL0     N60110   4.266   4.412   0.954 -0.5920 -0.2529  0.5598
  456MOL0     N60111   4.379   4.425   0.884 -0.9533  0.2289  0.7438
  456MOL0     C60112   5.183   4.683   0.365 -0.1074 -0.2952  0.0185
  456MOL0     C60113   5.259   4.767   0.295  0.1267  0.2939 -0.2250
  456MOL0     C60114   5.626   5.035   0.197  0.3596 -0.7359 -0.4912
  456MOL0     C60115   5.594   5.012   0.060 -0.1053  0.1223 -0.7332
  456MOL0     C60116   5.688   5.068  -0.039 -0.4054 -1.2518 -0.1468
  456MOL0     C60117   5.801   5.146  -0.008  0.0768 -0.2653  0.0328
  456MOL0     O60118   5.887   5.168  -0.110  0.3983  0.2343  0.3115
  456MOL0     C60119   5.982   5.268  -0.090 -0.1973 -0.2486  0.2815
  456MOL0     C60120   6.033   5.295  -0.234 -0.7148  0.2394  0.0535
  456MOL0     C60121   6.175   5.359  -0.220  0.3729  0.1610 -0.1442
  456MOL0     C60122   6.295   5.254  -0.205 -0.0587  0.8565  0.0284
  456MOL0     C60123   6.428   5.312  -0.252 -0.2676 -0.4048 -0.1880
  456MOL0     C60124   6.539   5.338  -0.281  0.1566  0.9129  0.0687
  456MOL0     C60125   5.825   5.165   0.128  0.9221  1.1747 -0.4848
  456MOL0     C60126   5.733   5.116   0.221  0.6336  0.6415 -0.5097
  456MOL0     H60127   5.366   4.969   0.545 -0.4239  1.9175 -3.0164
  456MOL0     H60128   5.213   4.815   0.676 -1.4185 -0.6054 -0.7387
  456MOL0     H60129   5.010   4.651   0.737  2.7059  2.2559 -0.3389
  456MOL0     H60130   5.184   4.587   0.722 -0.6813  0.9254  1.6938
  456MOL0     H60131   5.006   4.406   0.799  0.2556 -0.8958 -0.1452
  456MOL0     H60132   5.119   4.364   0.669  0.8715  0.0346  1.5994
  456MOL0     H60133   4.891   4.295   0.659  1.8914  1.2374  4.9639
  456MOL0     H60134   4.938   4.383   0.508  0.9463  1.0789 -0.0415
  456MOL0     H60135   4.735   4.458   0.732  0.7110  0.1032  1.6989
  456MOL0     H60136   4.821   4.583   0.644  1.8289 -0.2002  1.9817
  456MOL0     H60137   4.759   4.478   0.417 -1.4544  2.5098 -0.7546
  456MOL0     H60138   4.635   4.554   0.516 -3.2273 -1.7420 -1.7362
  456MOL0     H60139   4.678   4.261   0.457 -0.6233 -0.2276  0.1266
  456MOL0     H60140   4.553   4.371   0.397  3.1790 -0.0453 -1.7146
  456MOL0     H60141   4.474   4.221   0.574 -1.3188  2.0651 -3.4725
  456MOL0     H60142   4.605   4.267   0.688  1.1349 -0.7889 -0.4134
  456MOL0     H60143   4.398   4.454   0.565  3.3097 -0.1718 -1.6655
  456MOL0     H60144   4.522   4.487   0.692  1.6175 -1.5707  0.9538
  456MOL0     H60145   4.182   4.272   0.676 -2.2436  0.3090  1.0351
  456MOL0     H60146   4.025   4.363   1.031  0.5542 -1.1261  0.7675
  456MOL0     H60147   4.023   4.229   0.913  3.0036 -0.1249 -0.5619
  456MOL0     H60148   3.960   4.423   0.749  1.9485 -2.5458  0.3506
  456MOL0     H60149   3.939   4.521   0.892  2.3448 -0.2933 -0.0282
  456MOL0     H60150   3.777   4.274   0.836 -0.6855  0.2266 -0.0753
  456MOL0     H60151   3.759   4.377   0.990  1.2133  0.9200 -0.3217
  456MOL0     H60152   3.715   4.482   0.712 -0.4272 -1.0694 -0.5677
  456MOL0     H60153   3.703   4.566   0.863  2.3261 -0.8237 -0.2943
  456MOL0     H60154   3.557   4.658   0.672 -0.9626  0.7886  1.2957
  456MOL0     H60155   3.352   4.794   0.602 -2.4938 -0.8533 -0.4140
  456MOL0     H60156   2.765   4.652   0.774 -1.2333  1.3381  2.2227
  456MOL0     H60157   2.541   4.763   0.766 -0.3459  0.9873  0.9424
  456MOL0     H60158   2.442   5.073   0.476 -1.5116 -0.1232 -0.0268
  456MOL0     H60159   2.473   5.166   0.628 -2.0738  1.9335 -1.3905
  456MOL0     H60160   2.223   4.991   0.601 -2.4649  0.1676  1.9318
  456MOL0     H60161   2.226   5.155   0.541 -0.0111  0.6837  0.5337
  456MOL0     H60162   2.284   5.229   0.773 -2.1935  0.1288  0.3287
  456MOL0     H60163   2.275   5.068   0.834 -3.9508 -1.9721  1.2615
  456MOL0     H60164   2.042   5.190   0.685  1.8182 -0.2122 -1.4999
  456MOL0     H60165   2.039   5.041   0.762 -4.7063  1.3025  1.4773
  456MOL0     H60166   2.069   5.287   0.924  0.0356 -0.7533  2.6010
  456MOL0     H60167   2.054   5.119   0.984  2.1802  3.4396  2.3526
  456MOL0     H60168   1.842   5.089   0.896 -2.8861  0.6380 -0.2076
  456MOL0     H60169   1.835   5.249   0.821  2.1631  1.6325  0.0502
  456MOL0     H60170   1.868   5.186   1.131  0.3253  1.3899  1.8530
  456MOL0     H60171   1.870   5.344   1.053 -1.2884 -0.2569  0.5508
  456MOL0     H60172   1.621   5.289   0.992 -0.8326 -3.6302 -1.8422
  456MOL0     H60173   1.671   5.300   1.159 -0.8884 -1.5876  0.2041
  456MOL0     H60174   2.693   5.057   0.509  3.7841  2.0646  1.1427
  456MOL0     H60175   2.920   4.959   0.521  0.7351 -1.9807 -1.9050
  456MOL0     H60176   3.099   4.508   0.765  0.2657 -1.5577  2.6728
  456MOL0     H60177   3.291   4.378   0.858  1.6379  1.0185  1.4291
  456MOL0     H60178   5.144   4.598   0.312  1.9550 -1.5885  0.4513
  456MOL0     H60179   5.279   4.747   0.191  0.3589  2.7609 -0.7234
  456MOL0     H60180   5.518   4.939   0.036  0.9592 -0.9400 -0.9579
  456MOL0     H60181   5.651   5.034  -0.135 -2.7414 -2.9523  1.2394
  456MOL0     H60182   6.057   5.225  -0.022 -2.6860 -2.7393  1.6684
  456MOL0     H60183   5.940   5.364  -0.059 -1.6920 -0.5165 -0.8272
  456MOL0     H60184   6.030   5.205  -0.296 -2.0251 -0.2149  0.7464
  456MOL0     H60185   5.962   5.367  -0.277 -1.3009 -0.2839  0.1381
  456MOL0     H60186   6.171   5.418  -0.128  0.8586 -0.2244  0.1251
  456MOL0     H60187   6.186   5.421  -0.310 -1.7332 -0.1131 -0.6453
  456MOL0     H60188   6.302   5.220  -0.101 -0.5361 -1.4103 -0.6260
  456MOL0     H60189   6.284   5.159  -0.257  2.6101  0.5957 -0.1536
  456MOL0     H60190   6.640   5.363  -0.310  0.2596  0.3554 -0.0599
  456MOL0     H60191   5.913   5.217   0.165  1.3077 -0.8675  1.7171
  456MOL0     H60192   5.752   5.135   0.326 -0.7533  0.5946 -0.2243
  457MOL0     O60193   8.073   5.134   8.422 -0.1007  0.7495  0.4403
  457MOL0     C60194   8.103   5.083   8.530  0.8583 -0.1576 -0.3636
  457MOL0     O60195   8.019   5.092   8.640  0.0261 -0.3158  0.0629
  457MOL0     C60196   7.898   5.165   8.632  0.9451 -0.1277  1.0560
  457MOL0     C60197   7.866   5.251   8.733  0.4624  0.6559 -0.6776
  457MOL0     C60198   7.751   5.321   8.740  0.7016  0.7068  0.1470
  457MOL0     C60199   7.649   5.299   8.649 -0.6646  0.2565  0.0476
  457MOL0     O60200   7.531   5.360   8.647  0.5422 -0.2151 -0.9828
  457MOL0     C60201   7.450   5.325   8.762  0.4392 -0.0377 -0.8883
  457MOL0     C60202   7.300   5.298   8.727 -0.7672 -0.1781 -0.6336
  457MOL0     C60203   7.224   5.245   8.854 -0.7233 -0.8422  0.0349
  457MOL0     C60204   7.078   5.255   8.850  0.1611 -0.5306 -0.0665
  457MOL0     C60205   7.012   5.173   8.967 -0.7377  0.5873  0.4467
  457MOL0     C60206   6.860   5.184   8.955  0.0478 -0.1989  0.4906
  457MOL0     C60207   6.781   5.109   9.064  0.0900  0.0591 -0.7813
  457MOL0     C60208   6.632   5.116   9.014 -0.2684  0.4520  0.8810
  457MOL0     N60209   6.549   5.106   9.136  0.0469  0.4830  0.6457
  457MOL0     C60210   6.512   4.993   9.199  0.9226  0.6945  0.9645
  457MOL0     C60211   6.409   5.029   9.287 -0.1787  1.2219  0.1398
  457MOL0     C60212   6.331   4.926   9.366 -0.3319  0.1348 -0.5907
  457MOL0     C60213   6.203   4.897   9.292  0.2355  0.1683  1.0822
  457MOL0     C60214   6.113   4.794   9.366  0.1900 -0.5585 -0.2544
  457MOL0     C60215   6.176   4.663   9.400 -0.2942  0.2910  0.9408
  457MOL0     O60216   6.091   4.548   9.418 -0.4886  0.2595 -0.0268
  457MOL0     C60217   6.007   4.542   9.524 -0.8448  0.0503  0.2973
  457MOL0     C60218   5.905   4.455   9.511 -0.4620  0.6457 -0.2218
  457MOL0     C60219   5.806   4.457   9.607  0.2241 -0.1769  0.3854
  457MOL0     C60220   5.821   4.542   9.716 -0.3912  0.4400  0.4560
  457MOL0     C60221   5.706   4.546   9.810 -0.3401  0.2996 -0.3117
  457MOL0     O60222   5.628   4.438   9.842  0.1183  0.5229  0.1005
  457MOL0     C60223   5.531   4.450   9.933  0.8408 -0.0869  0.3167
  457MOL0     C60224   5.401   4.424   9.889  0.7394  0.0956  0.5610
  457MOL0     C60225   5.283   4.444   9.964  0.8233 -0.3038 -0.0493
  457MOL0     C60226   5.294   4.494  10.097 -0.1118  0.4502  0.0488
  457MOL0     O60227   5.195   4.527  10.181  1.2709  0.2013 -0.1925
  457MOL0     C60228   5.059   4.517  10.129 -0.1603  0.7665 -0.7707
  457MOL0     C60229   4.965   4.514  10.251 -0.2582  0.8868  0.0803
  457MOL0     C60230   5.005   4.419  10.360 -1.2672  0.5364 -0.9527
  457MOL0     C60231   4.920   4.415  10.484  0.0656  0.1435 -0.1898
  457MOL0     C60232   4.960   4.327  10.600 -0.3462 -0.5606 -0.2876
  457MOL0     C60233   4.987   4.182  10.569  0.1405 -0.0818  0.2341
  457MOL0     C60234   4.908   4.092  10.661  0.2450  0.2775  0.4092
  457MOL0     C60235   4.901   3.951  10.600  0.0461 -0.7160 -0.0531
  457MOL0    Cl60236   4.796   3.939  10.455 -0.1289 -0.0933 -0.5252
  457MOL0     C60237   5.424   4.524  10.144  0.3719 -1.4083  0.6085
  457MOL0     C60238   5.540   4.496  10.071  0.4026 -0.2177  0.6149
  457MOL0     O60239   5.697   4.652   9.869  0.0290  0.0330 -0.3199
  457MOL0     C60240   5.940   4.618   9.738 -1.3119 -0.1069  0.1121
  457MOL0     C60241   6.032   4.618   9.634 -0.5912  0.0894 -0.8061
  457MOL0     N60242   6.395   5.163   9.292 -0.6484 -0.0693 -0.3338
  457MOL0     N60243   6.488   5.208   9.208  0.9139  0.1140  0.4582
  457MOL0     C60244   7.675   5.220   8.537 -0.4263  0.6215  0.5362
  457MOL0     C60245   7.802   5.148   8.528  0.0326 -0.5861  0.6835
  457MOL0     C60246   8.230   4.997   8.538 -0.4041  0.4651 -0.2511
  457MOL0     C60247   8.262   4.926   8.655  0.5077  0.2059  0.1665
  457MOL0     C60248   8.379   4.853   8.664 -1.2842 -1.0137 -0.3577
  457MOL0     C60249   8.461   4.827   8.552  0.8067 -0.0453 -0.0375
  457MOL0     O60250   8.580   4.764   8.559 -0.2543 -0.2702  0.4079
  457MOL0     C60251   8.634   4.724   8.684 -0.0278  1.1816  0.0613
  457MOL0     C60252   8.782   4.685   8.670 -0.1770  0.0121 -0.4314
  457MOL0     C60253   8.862   4.766   8.578 -0.7404 -0.5277  0.4584
  457MOL0     C60254   9.005   4.704   8.588  0.5280  0.6845  0.1254
  457MOL0     C60255   9.106   4.809   8.614 -0.6853 -0.0197 -0.2189
  457MOL0     C60256   9.180   4.899   8.643 -0.3932 -0.0298  0.7976
  457MOL0     C60257   8.425   4.896   8.430 -0.1155 -0.5427  0.0495
  457MOL0     C60258   8.310   4.977   8.421  0.1298  0.6943  0.5364
  457MOL0     H60259   7.930   5.268   8.819  0.2942  0.9430 -0.6103
  457MOL0     H60260   7.727   5.406   8.804 -0.1519 -0.9041  2.0763
  457MOL0     H60261   7.470   5.390   8.847 -0.4483 -0.8431 -0.0320
  457MOL0     H60262   7.486   5.239   8.819  1.2923  2.1001  2.0243
  457MOL0     H60263   7.308   5.222   8.650 -2.0763 -2.0700  0.9913
  457MOL0     H60264   7.255   5.390   8.687 -2.0242 -1.6471 -2.7791
  457MOL0     H60265   7.253   5.316   8.932 -1.6760  0.9647 -1.1758
  457MOL0     H60266   7.263   5.149   8.889 -0.3865 -0.5080  0.5942
  457MOL0     H60267   7.053   5.361   8.864  0.8738 -0.3861  0.2078
  457MOL0     H60268   7.043   5.223   8.751 -2.4935  3.2290 -0.5638
  457MOL0     H60269   7.048   5.213   9.062  0.8699  2.4084 -0.8486
  457MOL0     H60270   7.030   5.065   8.960 -1.7858  0.5076 -1.7161
  457MOL0     H60271   6.841   5.141   8.857  3.5198  0.6574 -0.7129
  457MOL0     H60272   6.833   5.290   8.952  0.7890 -0.0306 -1.3374
  457MOL0     H60273   6.812   5.007   9.085  0.2178  0.3556  0.5441
  457MOL0     H60274   6.781   5.172   9.153 -1.8240  1.5603 -1.7508
  457MOL0     H60275   6.615   5.040   8.937  1.4586  1.0687 -0.1759
  457MOL0     H60276   6.613   5.211   8.965 -1.2976  0.3117  1.0009
  457MOL0     H60277   6.557   4.897   9.176  0.0374  0.6975 -1.0347
  457MOL0     H60278   6.310   4.974   9.463 -0.6016  3.5381 -2.1744
  457MOL0     H60279   6.384   4.832   9.380  0.1424 -0.0305 -3.0852
  457MOL0     H60280   6.228   4.864   9.191  4.8380  1.1937  1.6568
  457MOL0     H60281   6.152   4.993   9.288  0.8037  0.4353 -0.4547
  457MOL0     H60282   6.083   4.846   9.458  2.3057  2.0598 -0.9200
  457MOL0     H60283   6.029   4.788   9.297  0.5585 -3.5132 -0.6019
  457MOL0     H60284   6.244   4.676   9.486 -5.9678 -2.7976  6.7977
  457MOL0     H60285   6.233   4.643   9.309 -1.2064  0.3098  0.3532
  457MOL0     H60286   5.894   4.378   9.435  1.2688 -1.2176  1.3257
  457MOL0     H60287   5.716   4.397   9.610  0.1561 -0.0354  1.3319
  457MOL0     H60288   5.401   4.374   9.793 -0.5794  0.9502  0.0887
  457MOL0     H60289   5.189   4.412   9.921  1.0804 -1.5657  0.2921
  457MOL0     H60290   5.042   4.427  10.070 -3.3125  0.6061  0.1971
  457MOL0     H60291   5.035   4.598  10.059 -2.8694 -1.2361 -2.3747
  457MOL0     H60292   4.864   4.490  10.216 -0.2486  0.7873  0.1209
  457MOL0     H60293   4.960   4.612  10.298 -3.1104  0.2651  1.3029
  457MOL0     H60294   5.111   4.429  10.387 -0.9735 -0.9560 -1.4767
  457MOL0     H60295   5.001   4.319  10.316  0.1412  0.2777 -0.5624
  457MOL0     H60296   4.898   4.520  10.506 -1.5928  0.2680 -2.2062
  457MOL0     H60297   4.825   4.375  10.448  1.2784 -1.7912 -1.4416
  457MOL0     H60298   4.884   4.327  10.679 -0.9238 -1.1686 -0.8317
  457MOL0     H60299   5.052   4.357  10.652  0.5555  0.8881 -2.5946
  457MOL0     H60300   5.091   4.156  10.593 -0.8355 -1.9960  2.7728
  457MOL0     H60301   4.973   4.161  10.462  3.1312  1.9439 -0.6997
  457MOL0     H60302   4.959   4.095  10.757  1.8900 -0.8308 -0.3682
  457MOL0     H60303   4.807   4.129  10.678  0.1401  1.4732 -2.2097
  457MOL0     H60304   4.870   3.878  10.676 -1.4607 -1.3855 -1.2606
  457MOL0     H60305   5.002   3.925  10.568  1.5159  4.3901 -0.3200
  457MOL0     H60306   5.428   4.563  10.246 -3.3982  1.9575 -0.2701
  457MOL0     H60307   5.636   4.529  10.110  1.1339 -1.7922  0.2617
  457MOL0     H60308   5.960   4.669   9.831  1.0204  3.3771 -2.0913
  457MOL0     H60309   6.121   4.676   9.651 -0.5962 -0.3131  0.6754
  457MOL0     H60310   7.614   5.198   8.450  0.5946 -1.9102  0.3569
  457MOL0     H60311   7.824   5.078   8.449 -0.6510 -1.5981  1.3614
  457MOL0     H60312   8.191   4.938   8.736  1.2414 -4.8480  1.8877
  457MOL0     H60313   8.403   4.814   8.762  0.1316 -0.8527 -0.6198
  457MOL0     H60314   8.576   4.642   8.725  0.7984  0.9498  0.8001
  457MOL0     H60315   8.613   4.814   8.742 -0.6834  0.1898  1.4166
  457MOL0     H60316   8.833   4.704   8.765  0.5118  0.7510 -0.9316
  457MOL0     H60317   8.802   4.581   8.641  3.8346  0.0619  1.4579
  457MOL0     H60318   8.858   4.875   8.591  2.7496 -0.0767 -0.9899
  457MOL0     H60319   8.832   4.753   8.474  0.9326  0.7528 -0.2409
  457MOL0     H60320   9.009   4.624   8.663 -1.2723  1.9568  1.6777
  457MOL0     H60321   9.036   4.666   8.490  1.2577 -1.9780  1.2984
  457MOL0     H60322   9.257   4.972   8.658  0.9000 -0.7035 -1.9451
  457MOL0     H60323   8.480   4.877   8.338 -1.6497 -1.2879 -0.7595
  457MOL0     H60324   8.274   5.016   8.326 -1.3114 -1.8198 -0.0573
  458MOL0     O60325   8.582   2.472   2.244  0.1578 -0.2625  0.1421
  458MOL0     C60326   8.614   2.398   2.334  0.2298  0.2608 -0.5223
  458MOL0     O60327   8.526   2.361   2.432  0.4339 -0.5273 -0.2292
  458MOL0     C60328   8.393   2.396   2.411  0.4223 -0.3625 -1.5712
  458MOL0     C60329   8.323   2.487   2.489  1.3888 -0.2942  0.0560
  458MOL0     C60330   8.187   2.512   2.463 -0.7682  0.6160 -0.3140
  458MOL0     C60331   8.122   2.435   2.366 -0.2584 -0.1899 -0.3367
  458MOL0     O60332   7.989   2.461   2.327  0.0814 -0.0624  0.0516
  458MOL0     C60333   7.935   2.584   2.366  0.4158 -0.7287 -0.4764
  458MOL0     C60334   7.787   2.589   2.320 -0.5465  0.7748 -0.2879
  458MOL0     C60335   7.718   2.729   2.352  0.7343 -0.3133  0.1615
  458MOL0     C60336   7.578   2.741   2.283 -0.2246 -0.1120  0.3417
  458MOL0     C60337   7.511   2.877   2.322  0.0754 -0.3659 -0.3207
  458MOL0     C60338   7.572   2.989   2.233 -0.2644 -0.2254 -0.1640
  458MOL0     C60339   7.475   3.107   2.201  0.1009  0.0899  0.5003
  458MOL0     C60340   7.442   3.199   2.321 -0.4501  0.1644 -0.0162
  458MOL0     N60341   7.314   3.154   2.378  0.8877 -1.0895  0.5494
  458MOL0     C60342   7.194   3.169   2.307 -1.0432 -0.0308  0.2879
  458MOL0     C60343   7.103   3.089   2.366 -0.9504  0.2049 -0.6125
  458MOL0     C60344   6.965   3.058   2.318 -0.0503 -0.1014  1.1237
  458MOL0     C60345   6.860   3.143   2.377 -0.6780  1.0519  1.1494
  458MOL0     C60346   6.740   3.148   2.280 -0.0238  0.0441 -0.2326
  458MOL0     C60347   6.613   3.196   2.338  1.0346 -0.0837 -0.1618
  458MOL0     O60348   6.499   3.122   2.292 -0.0082  0.4721  0.3911
  458MOL0     C60349   6.440   3.021   2.372 -0.6081  0.3661 -0.8052
  458MOL0     C60350   6.310   2.990   2.358 -0.8291 -0.5930 -0.7663
  458MOL0     C60351   6.242   2.907   2.443 -0.0969 -0.2102  0.7470
  458MOL0     C60352   6.317   2.831   2.535  0.1463  0.5497 -0.6194
  458MOL0     C60353   6.244   2.737   2.618 -0.1259  0.0867  0.2100
  458MOL0     O60354   6.103   2.743   2.614  0.3549 -0.2015 -0.3392
  458MOL0     C60355   6.015   2.663   2.685  0.2326 -0.1145  0.4683
  458MOL0     C60356   5.886   2.704   2.671  0.5016  0.4212 -0.8454
  458MOL0     C60357   5.780   2.620   2.721  0.3932  0.3689  0.9500
  458MOL0     C60358   5.806   2.502   2.786 -0.4905 -0.9167  0.2502
  458MOL0     O60359   5.702   2.424   2.830  0.4351 -0.5756  0.1082
  458MOL0     C60360   5.640   2.494   2.939  0.0853  0.1063 -0.5388
  458MOL0     C60361   5.612   2.411   3.062  0.5211 -0.8361 -0.2470
  458MOL0     C60362   5.730   2.323   3.113 -0.6120 -0.6946 -0.0907
  458MOL0     C60363   5.860   2.392   3.168 -1.0039  0.3432  0.0759
  458MOL0     C60364   5.964   2.297   3.203  0.4138  0.2314  0.0653
  458MOL0     C60365   6.058   2.379   3.288 -0.9571 -0.7991 -0.2740
  458MOL0     C60366   6.008   2.402   3.429  0.1814 -0.2216  0.1150
  458MOL0     C60367   6.126   2.433   3.527 -0.0426 -0.2711  0.3006
  458MOL0    Cl60368   6.189   2.595   3.497  0.2772 -0.0019 -0.1387
  458MOL0     C60369   5.949   2.470   2.808  0.4093 -1.0529 -0.1147
  458MOL0     C60370   6.048   2.546   2.756 -0.3098  0.1577  0.8722
  458MOL0     O60371   6.310   2.662   2.682 -0.4647 -0.4576 -0.0940
  458MOL0     C60372   6.453   2.857   2.559  0.3601 -0.6744  1.2415
  458MOL0     C60373   6.513   2.950   2.470 -0.2926  0.6243 -0.0771
  458MOL0     N60374   7.167   3.028   2.478 -0.5269  0.6865 -0.3114
  458MOL0     N60375   7.289   3.068   2.477 -0.3647  0.4884  0.1920
  458MOL0     C60376   8.192   2.345   2.285  0.4230  0.3338 -0.2633
  458MOL0     C60377   8.328   2.323   2.313  0.3415 -0.7026  0.6980
  458MOL0     C60378   8.755   2.360   2.343 -0.4572 -1.2055  0.1922
  458MOL0     C60379   8.815   2.306   2.464  0.5931 -0.9542  0.4578
  458MOL0     C60380   8.947   2.255   2.467 -0.2427  0.1849 -0.0788
  458MOL0     C60381   9.021   2.264   2.347 -0.3499  0.4511 -0.0337
  458MOL0     O60382   9.150   2.223   2.324  0.2810 -0.5819 -0.2033
  458MOL0     C60383   9.238   2.240   2.431 -0.1234  0.0842 -0.4159
  458MOL0     C60384   9.319   2.364   2.394 -0.5843  0.4438  0.5762
  458MOL0     C60385   9.389   2.343   2.266  0.1743 -0.0639  0.5226
  458MOL0     C60386   9.516   2.429   2.257 -0.1744  0.5858  0.0177
  458MOL0     C60387   9.501   2.567   2.295  0.0363  0.0700  0.3052
  458MOL0     C60388   9.512   2.683   2.319 -0.1659  0.7030 -1.3249
  458MOL0     C60389   8.968   2.297   2.221  0.0310  0.0761 -0.2143
  458MOL0     C60390   8.831   2.349   2.230 -0.8289  0.0475  0.9704
  458MOL0     H60391   8.385   2.537   2.564 -3.2446  4.2931  1.4184
  458MOL0     H60392   8.133   2.592   2.512 -0.5802  0.2012  0.5777
  458MOL0     H60393   7.981   2.672   2.320 -0.4191 -1.3630 -2.6447
  458MOL0     H60394   7.929   2.594   2.475 -1.4192  2.1316 -0.7102
  458MOL0     H60395   7.722   2.514   2.365  0.4198  0.0353 -0.0980
  458MOL0     H60396   7.781   2.568   2.213 -0.7965 -1.8198  0.1815
  458MOL0     H60397   7.789   2.806   2.322  2.2254 -1.8515 -0.4425
  458MOL0     H60398   7.701   2.740   2.460 -0.9486  0.4178 -0.1485
  458MOL0     H60399   7.599   2.745   2.175  3.4456  3.9683  0.9205
  458MOL0     H60400   7.505   2.666   2.312  0.6586 -0.2904  2.2127
  458MOL0     H60401   7.520   2.905   2.427 -1.8877  3.9387 -1.0794
  458MOL0     H60402   7.405   2.880   2.298  0.1412 -0.6060 -0.6607
  458MOL0     H60403   7.613   2.941   2.144 -0.7364 -1.6581  0.3608
  458MOL0     H60404   7.659   3.023   2.289 -0.3601 -1.8610  1.0846
  458MOL0     H60405   7.526   3.168   2.125 -1.2671 -1.6999 -1.9918
  458MOL0     H60406   7.386   3.065   2.154  0.6082  1.0037 -1.3960
  458MOL0     H60407   7.435   3.301   2.282 -0.0739  0.4385  0.6227
  458MOL0     H60408   7.518   3.199   2.400 -0.8064  1.4083  0.3439
  458MOL0     H60409   7.169   3.217   2.213 -0.3329  0.1414  0.1784
  458MOL0     H60410   6.943   2.951   2.327  0.6261 -0.8130 -3.3549
  458MOL0     H60411   6.956   3.071   2.210  1.8450 -2.6765  0.5690
  458MOL0     H60412   6.895   3.244   2.399  0.1750  0.8667  0.7011
  458MOL0     H60413   6.836   3.099   2.474  1.0146  0.7224  1.4510
  458MOL0     H60414   6.770   3.221   2.205 -0.8630  0.6777  0.0306
  458MOL0     H60415   6.718   3.051   2.234  0.4631 -0.6024  0.8639
  458MOL0     H60416   6.596   3.301   2.312 -0.4899 -0.0509  0.8603
  458MOL0     H60417   6.599   3.201   2.446  0.9030  0.9567 -0.2158
  458MOL0     H60418   6.249   3.058   2.300 -2.2176  1.7022  3.0030
  458MOL0     H60419   6.134   2.894   2.440 -0.3713  1.6113  1.4005
  458MOL0     H60420   5.861   2.790   2.609  2.3612  1.6120 -0.0246
  458MOL0     H60421   5.678   2.656   2.716  0.7319  1.4042  1.2206
  458MOL0     H60422   5.547   2.538   2.902  2.1802  3.0204 -2.8754
  458MOL0     H60423   5.700   2.577   2.979  1.0910  0.4072 -2.5336
  458MOL0     H60424   5.530   2.346   3.029 -1.1440  0.4096  1.2601
  458MOL0     H60425   5.578   2.475   3.144  1.9176 -1.5170  0.9137
  458MOL0     H60426   5.770   2.265   3.028 -0.5041 -2.0260  0.8341
  458MOL0     H60427   5.696   2.251   3.188 -2.1331  1.8594  1.8156
  458MOL0     H60428   5.900   2.462   3.095  1.3714 -1.6722 -0.6742
  458MOL0     H60429   5.834   2.451   3.257  1.2538  0.6626  0.5904
  458MOL0     H60430   6.004   2.246   3.115  2.9995 -2.3609  2.5161
  458MOL0     H60431   5.915   2.222   3.266 -0.7058  0.7794 -0.1261
  458MOL0     H60432   6.083   2.477   3.246  1.3503 -0.9648  0.5970
  458MOL0     H60433   6.155   2.329   3.293 -0.2917  0.5631  1.4244
  458MOL0     H60434   5.948   2.493   3.432  4.0191  2.5441 -0.0096
  458MOL0     H60435   5.948   2.315   3.458 -3.0604  2.0087  0.6569
  458MOL0     H60436   6.204   2.355   3.525 -0.7520 -1.0395  1.2824
  458MOL0     H60437   6.080   2.441   3.626 -1.2793  1.9207 -0.4074
  458MOL0     H60438   5.983   2.383   2.864  3.0998  0.1971  0.3406
  458MOL0     H60439   6.149   2.508   2.770  0.0123  0.7808  0.3142
  458MOL0     H60440   6.503   2.794   2.632 -1.4506 -1.9498  1.4526
  458MOL0     H60441   6.619   2.961   2.490  0.5720 -5.7597  0.7096
  458MOL0     H60442   8.141   2.279   2.216  1.0802  0.1448 -0.5788
  458MOL0     H60443   8.389   2.254   2.256  1.4278  0.0132  0.9569
  458MOL0     H60444   8.758   2.311   2.556  0.4591 -2.1220  0.4517
  458MOL0     H60445   8.983   2.234   2.567 -1.5480  3.1652  1.1707
  458MOL0     H60446   9.303   2.153   2.440  2.2446  1.9311  2.1825
  458MOL0     H60447   9.187   2.250   2.528 -0.0409  1.1609 -0.4710
  458MOL0     H60448   9.257   2.454   2.385  1.8386  2.0200 -1.5427
  458MOL0     H60449   9.394   2.386   2.471  0.2469  0.4641 -0.2325
  458MOL0     H60450   9.319   2.352   2.183 -0.3215 -1.9628  0.6926
  458MOL0     H60451   9.428   2.241   2.264  0.7907  0.1604  0.7945
  458MOL0     H60452   9.592   2.379   2.318  2.0604  0.7013 -2.5183
  458MOL0     H60453   9.564   2.420   2.159 -0.9175 -0.1611 -0.2974
  458MOL0     H60454   9.516   2.787   2.344 -2.3416  1.3823 -3.4546
  458MOL0     H60455   9.025   2.274   2.131  0.9080  0.3709  0.2562
  458MOL0     H60456   8.775   2.374   2.140 -1.0170 -0.1021  1.0451
  459MOL0     O60457   3.255   3.814   5.499  0.0730  0.1264  0.3299
  459MOL0     C60458   3.311   3.769   5.398 -0.9470  0.0644  0.4158
  459MOL0     O60459   3.254   3.718   5.282  0.1081  0.7959 -0.0535
  459MOL0     C60460   3.118   3.710   5.258  0.0742  0.0625 -0.1413
  459MOL0     C60461   3.094   3.675   5.126  0.6237 -0.0219 -0.2903
  459MOL0     C60462   2.959   3.647   5.084 -0.5309 -0.2316  0.3542
  459MOL0     C60463   2.854   3.666   5.173  0.2017 -0.3860 -0.3788
  459MOL0     O60464   2.721   3.657   5.140 -0.5336 -0.4507 -0.3101
  459MOL0     C60465   2.688   3.651   4.998  0.5814  0.7000 -0.1456
  459MOL0     C60466   2.533   3.682   4.994  0.1227 -0.3937 -0.3490
  459MOL0     C60467   2.453   3.576   5.077 -0.1018 -0.8763 -0.5363
  459MOL0     C60468   2.298   3.583   5.085  0.0697 -0.1477 -0.5195
  459MOL0     C60469   2.230   3.491   5.190  0.4313  0.5125  0.0584
  459MOL0     C60470   2.239   3.336   5.152 -0.4502  0.1689  0.1988
  459MOL0     C60471   2.183   3.295   5.023 -0.2067 -0.1975 -0.6341
  459MOL0     C60472   2.042   3.317   5.009 -0.0439 -0.0047 -0.0268
  459MOL0     N60473   1.981   3.208   4.929 -0.0444 -0.0128  0.1011
  459MOL0     C60474   1.852   3.160   4.942 -1.2296 -0.4956  0.3002
  459MOL0     C60475   1.846   3.067   4.845  0.5508 -0.5895 -0.3333
  459MOL0     C60476   1.725   2.977   4.833  1.1219 -0.0500 -0.3078
  459MOL0     C60477   1.764   2.829   4.862  1.6303  0.4370 -0.3250
  459MOL0     C60478   1.650   2.732   4.891 -0.2052 -0.2832  0.0919
  459MOL0     C60479   1.606   2.728   5.041  0.2227  1.3053 -0.1914
  459MOL0     O60480   1.537   2.853   5.079  0.1919  0.4058  0.1033
  459MOL0     C60481   1.399   2.859   5.091  0.3895  0.7056  0.8501
  459MOL0     C60482   1.312   2.748   5.113 -0.8205  0.4941 -0.0060
  459MOL0     C60483   1.174   2.764   5.130 -0.1113  0.0424 -1.2968
  459MOL0     C60484   1.116   2.894   5.101 -0.0284  0.3147  0.3833
  459MOL0     C60485   0.973   2.916   5.081 -0.5815  0.3603  0.0260
  459MOL0     O60486   0.885   2.805   5.085  0.2078  0.1546  0.3114
  459MOL0     C60487   0.751   2.823   5.045  0.0932 -0.2695  0.3901
  459MOL0     C60488   0.691   2.913   4.953 -0.5212  0.0141 -0.0736
  459MOL0     C60489   0.560   2.878   4.919  0.2527 -0.1800 -0.0884
  459MOL0     C60490   0.480   2.790   4.995 -0.4808  0.1072  1.2522
  459MOL0     O60491   0.344   2.799   4.972 -0.7250 -0.8527 -0.4107
  459MOL0     C60492   0.253   2.693   5.012  0.3363 -0.1054 -0.0759
  459MOL0     C60493   0.118   2.733   5.008 -0.2345  0.4647 -0.4519
  459MOL0     C60494   0.031   2.610   4.965  0.4808  0.4451 -0.1720
  459MOL0     C60495  -0.116   2.644   4.957 -0.8105  0.1929 -1.2899
  459MOL0     C60496  -0.182   2.597   5.089 -0.4934 -0.3456  0.0459
  459MOL0     C60497  -0.326   2.627   5.093 -0.3370  0.2994 -1.0543
  459MOL0     C60498  -0.388   2.597   5.231  0.2261 -0.1056 -0.2229
  459MOL0     C60499  -0.536   2.562   5.240 -0.1601  0.8248 -0.2076
  459MOL0    Cl60500  -0.573   2.500   5.407  0.3098 -0.5112 -0.0350
  459MOL0     C60501   0.540   2.715   5.094  1.0593 -0.2041 -0.2462
  459MOL0     C60502   0.682   2.722   5.108  0.9514 -0.1812  0.2505
  459MOL0     O60503   0.943   3.033   5.074  0.5345  0.6036  0.1866
  459MOL0     C60504   1.207   3.002   5.085 -0.2390  0.4306 -0.7108
  459MOL0     C60505   1.342   2.983   5.077  0.0177  0.3618  0.3783
  459MOL0     N60506   1.948   3.079   4.763  0.7702  1.0240  0.3906
  459MOL0     N60507   2.030   3.159   4.822 -0.5602  0.2165  0.4879
  459MOL0     C60508   2.882   3.682   5.316 -0.0575 -0.0639 -0.1191
  459MOL0     C60509   3.013   3.715   5.349  0.3737  0.0693 -0.1258
  459MOL0     C60510   3.463   3.779   5.401  0.1483  0.3735  0.7355
  459MOL0     C60511   3.549   3.704   5.326 -0.1846 -0.2942  0.7158
  459MOL0     C60512   3.690   3.705   5.335  0.4951 -0.4271  1.2625
  459MOL0     C60513   3.748   3.795   5.422 -1.8589 -0.6941 -0.3123
  459MOL0     O60514   3.891   3.828   5.438  0.3282 -1.1090  0.2391
  459MOL0     C60515   3.977   3.741   5.367  0.2443 -0.3189  0.5518
  459MOL0     C60516   4.120   3.784   5.394  0.2231  0.3767  0.1711
  459MOL0     C60517   4.138   3.940   5.392 -0.6977 -0.1028 -0.0487
  459MOL0     C60518   4.291   3.988   5.382  0.1966 -0.7150  0.1699
  459MOL0     C60519   4.378   3.922   5.487  0.0099  0.1931  0.1281
  459MOL0     C60520   4.469   3.879   5.546 -1.4071 -0.2473  0.2034
  459MOL0     C60521   3.663   3.886   5.493 -0.7872  0.2138 -0.2732
  459MOL0     C60522   3.529   3.870   5.490  0.0470  0.9847  1.0610
  459MOL0     H60523   3.173   3.666   5.052  0.3057  2.5626 -1.0290
  459MOL0     H60524   2.958   3.625   4.978  1.8047  1.6246 -0.1503
  459MOL0     H60525   2.709   3.547   4.970 -0.4634  0.0993  1.1722
  459MOL0     H60526   2.730   3.714   4.920  0.3454  2.5118  1.1232
  459MOL0     H60527   2.489   3.674   4.894 -1.2122  1.0239  0.0945
  459MOL0     H60528   2.518   3.786   5.025 -0.4661 -0.4837 -0.3253
  459MOL0     H60529   2.495   3.588   5.177 -0.2984  1.2656 -0.6671
  459MOL0     H60530   2.483   3.475   5.048  1.0511 -0.2685 -1.5280
  459MOL0     H60531   2.277   3.688   5.108 -1.6772 -0.7324  0.7456
  459MOL0     H60532   2.244   3.565   4.992  0.1018 -0.6537 -0.4448
  459MOL0     H60533   2.123   3.515   5.186 -0.3023 -2.4950 -2.9472
  459MOL0     H60534   2.275   3.498   5.290  1.9890 -0.3642 -0.5469
  459MOL0     H60535   2.193   3.282   5.235  2.3117 -2.4713  0.1774
  459MOL0     H60536   2.346   3.314   5.162 -0.6121 -0.7885 -0.0911
  459MOL0     H60537   2.226   3.343   4.935 -6.4836  1.9339 -3.1807
  459MOL0     H60538   2.205   3.188   5.016 -0.2327 -0.4937  2.5867
  459MOL0     H60539   2.030   3.409   4.950  0.9708 -1.7761 -3.2206
  459MOL0     H60540   1.991   3.324   5.105  0.6093 -0.1405  0.3357
  459MOL0     H60541   1.781   3.187   5.019 -1.0924  1.1994 -0.1195
  459MOL0     H60542   1.679   2.989   4.734  2.1893 -2.3127 -1.1463
  459MOL0     H60543   1.653   3.014   4.907  1.1058  0.6653 -0.6727
  459MOL0     H60544   1.834   2.834   4.946  0.5250 -0.5911  0.7052
  459MOL0     H60545   1.816   2.794   4.772  1.1089 -1.4083  0.0584
  459MOL0     H60546   1.566   2.777   4.838  0.6684  0.3894 -0.7575
  459MOL0     H60547   1.677   2.630   4.861 -1.2418 -0.9924  1.4297
  459MOL0     H60548   1.696   2.720   5.103 -0.4366 -0.2392  0.6297
  459MOL0     H60549   1.544   2.638   5.049  2.1135 -0.4698 -3.2700
  459MOL0     H60550   1.358   2.650   5.119  2.1638  1.8095  0.7450
  459MOL0     H60551   1.102   2.683   5.136 -2.5798  2.2088  0.6134
  459MOL0     H60552   0.754   2.975   4.891 -1.3831 -0.1436 -1.1537
  459MOL0     H60553   0.507   2.950   4.859  2.2674 -0.4493 -2.3365
  459MOL0     H60554   0.268   2.664   5.116  0.6468  2.3322  0.6234
  459MOL0     H60555   0.279   2.615   4.940  0.6909  0.6507 -0.7889
  459MOL0     H60556   0.099   2.818   4.943  0.7874 -0.7199 -2.3845
  459MOL0     H60557   0.091   2.764   5.110  0.4699  4.5226 -1.3473
  459MOL0     H60558   0.045   2.527   5.034  0.2608  0.9418  0.4908
  459MOL0     H60559   0.058   2.576   4.865 -0.8883  1.3030 -0.8769
  459MOL0     H60560  -0.130   2.753   4.953 -3.3885 -0.0874 -2.7823
  459MOL0     H60561  -0.163   2.606   4.866 -2.5416  0.2297 -0.4506
  459MOL0     H60562  -0.128   2.648   5.169  1.0898 -2.6554  0.5586
  459MOL0     H60563  -0.162   2.489   5.096  0.7802 -0.0837  0.6836
  459MOL0     H60564  -0.380   2.578   5.011 -0.3090 -1.2677 -0.1631
  459MOL0     H60565  -0.339   2.735   5.082 -0.6656  0.5442  1.2095
  459MOL0     H60566  -0.348   2.507   5.278 -1.0842  0.7410  2.7992
  459MOL0     H60567  -0.368   2.679   5.302 -1.0369  0.5136 -0.5524
  459MOL0     H60568  -0.555   2.496   5.155  2.9974  0.5534 -0.8120
  459MOL0     H60569  -0.597   2.651   5.221 -0.1715  1.0177  0.6747
  459MOL0     H60570   0.477   2.638   5.138 -1.5522  1.2876 -1.1746
  459MOL0     H60571   0.733   2.658   5.179  1.0074  2.1816  2.5182
  459MOL0     H60572   1.175   3.104   5.065  3.3726  2.0445  0.8532
  459MOL0     H60573   1.400   3.073   5.058  0.5190 -0.4773 -2.5793
  459MOL0     H60574   2.798   3.686   5.384 -0.1002  1.6713 -0.2205
  459MOL0     H60575   3.029   3.730   5.455  0.1582 -1.3510  0.1298
  459MOL0     H60576   3.516   3.645   5.241  3.8325  0.9480 -2.0326
  459MOL0     H60577   3.751   3.647   5.266 -0.1641  0.3390  0.0135
  459MOL0     H60578   3.964   3.756   5.260 -1.3372  1.8264  0.9955
  459MOL0     H60579   3.973   3.634   5.392 -1.4224 -0.6769 -1.0343
  459MOL0     H60580   4.149   3.744   5.491  0.1361 -0.2016 -0.0367
  459MOL0     H60581   4.186   3.732   5.325  2.3562  0.1075  2.2970
  459MOL0     H60582   4.084   3.981   5.477 -0.0483 -0.3122  0.4787
  459MOL0     H60583   4.098   3.980   5.298  3.2421  0.9056 -1.5147
  459MOL0     H60584   4.323   3.954   5.283 -3.2952  1.1438 -1.8140
  459MOL0     H60585   4.277   4.096   5.397  1.8601 -0.5273  0.6623
  459MOL0     H60586   4.547   3.827   5.599 -2.4478 -0.2331  1.8122
  459MOL0     H60587   3.716   3.963   5.549  2.3561 -1.2969 -1.0027
  459MOL0     H60588   3.466   3.923   5.560  0.4903  1.1245  1.3556
  460MOL0     O60589   6.992   1.549   4.425 -0.6818 -0.0365 -0.5854
  460MOL0     C60590   6.943   1.587   4.320 -0.2263 -0.3685  0.3537
  460MOL0     O60591   6.807   1.605   4.296 -0.0792  0.1090 -0.3436
  460MOL0     C60592   6.720   1.607   4.398  0.3597 -0.0252 -0.1197
  460MOL0     C60593   6.688   1.497   4.476 -0.4318 -0.5042  0.7541
  460MOL0     C60594   6.590   1.513   4.579  0.2719  0.3378 -0.0619
  460MOL0     C60595   6.514   1.625   4.592  0.2554  0.5171  0.5314
  460MOL0     O60596   6.421   1.626   4.697 -0.0073 -0.1806 -0.9362
  460MOL0     C60597   6.285   1.658   4.653  0.6844 -0.0300  0.4223
  460MOL0     C60598   6.179   1.616   4.751 -0.1917  0.0300 -0.0786
  460MOL0     C60599   6.199   1.467   4.770  1.2476  0.0089 -0.3477
  460MOL0     C60600   6.092   1.427   4.869 -0.7474  0.4822 -0.3038
  460MOL0     C60601   6.024   1.293   4.833 -0.1651 -0.1666 -0.7908
  460MOL0     C60602   5.920   1.261   4.944 -0.0035  0.8151 -0.5308
  460MOL0     C60603   5.842   1.140   4.895  0.2786 -0.5774 -0.4580
  460MOL0     C60604   5.707   1.131   4.965  0.2090  0.5751 -0.0582
  460MOL0     N60605   5.594   1.225   4.935 -0.7604 -0.0822  0.3026
  460MOL0     C60606   5.538   1.251   4.818 -0.1847  0.6669  0.4282
  460MOL0     C60607   5.424   1.319   4.839  0.0778 -0.1755 -0.4799
  460MOL0     C60608   5.331   1.371   4.737  0.1367  1.2199 -0.0796
  460MOL0     C60609   5.186   1.298   4.742  0.3673 -0.2912  1.2550
  460MOL0     C60610   5.097   1.359   4.853 -0.5008 -0.0741  1.2842
  460MOL0     C60611   4.966   1.288   4.858 -0.3075 -0.4662 -0.5916
  460MOL0     O60612   4.877   1.345   4.752  0.2757  0.2254  0.3338
  460MOL0     C60613   4.742   1.311   4.760 -0.5717  0.2811  0.8065
  460MOL0     C60614   4.656   1.335   4.651  0.5332 -0.4980 -0.4599
  460MOL0     C60615   4.519   1.295   4.649 -0.1757 -1.0681 -0.4237
  460MOL0     C60616   4.460   1.242   4.757  0.2336 -0.7561 -0.2239
  460MOL0     C60617   4.319   1.202   4.745  0.4188 -0.7761  0.0835
  460MOL0     O60618   4.263   1.173   4.864  0.2087  0.3670  0.7104
  460MOL0     C60619   4.135   1.142   4.882  0.5629 -0.2656  0.3255
  460MOL0     C60620   4.058   1.076   4.787  0.1949  0.3848  0.2797
  460MOL0     C60621   3.926   1.029   4.809  0.8508 -0.4862 -0.1045
  460MOL0     C60622   3.867   1.047   4.938 -0.8100 -0.3617 -0.4683
  460MOL0     O60623   3.751   0.985   4.979  0.1244 -0.5838  0.1033
  460MOL0     C60624   3.693   0.897   4.885 -1.1446 -0.0570 -0.7675
  460MOL0     C60625   3.597   0.816   4.970 -0.0755 -0.1070 -0.5498
  460MOL0     C60626   3.478   0.902   5.022  0.4306  0.0396  0.1664
  460MOL0     C60627   3.367   0.823   5.085 -0.2648  0.1509  0.6404
  460MOL0     C60628   3.246   0.918   5.119 -0.2916  0.4488 -0.5246
  460MOL0     C60629   3.118   0.838   5.149  0.0632 -0.3743 -0.5117
  460MOL0     C60630   3.012   0.920   5.212  0.6804  0.3836  0.0914
  460MOL0     C60631   2.885   0.844   5.240 -0.0210  0.4756  0.2973
  460MOL0    Cl60632   2.764   0.956   5.321  0.1701  0.2786 -0.1979
  460MOL0     C60633   3.942   1.112   5.038 -0.5562 -0.7351  0.2130
  460MOL0     C60634   4.076   1.156   5.007  0.3384  0.1942  0.1832
  460MOL0     O60635   4.264   1.203   4.634  0.3785 -0.3771  0.2866
  460MOL0     C60636   4.547   1.215   4.870 -0.6701 -0.2411 -0.3972
  460MOL0     C60637   4.685   1.248   4.866  0.4805 -0.0539 -0.2779
  460MOL0     N60638   5.429   1.348   4.973  0.9272 -0.6381 -0.5663
  460MOL0     N60639   5.524   1.287   5.029  0.4898  0.5118 -0.6408
  460MOL0     C60640   6.545   1.739   4.508  0.1721 -0.0820  0.0489
  460MOL0     C60641   6.651   1.731   4.416 -0.3400  0.5494  0.8889
  460MOL0     C60642   7.037   1.619   4.206  0.1697  0.1512 -0.3886
  460MOL0     C60643   6.983   1.668   4.087 -0.1756 -0.2322  0.1863
  460MOL0     C60644   7.071   1.700   3.976  0.6681 -0.9331  0.4491
  460MOL0     C60645   7.211   1.674   3.976 -0.2453 -0.0430 -0.0711
  460MOL0     O60646   7.280   1.714   3.866 -0.9714 -0.0320 -0.1113
  460MOL0     C60647   7.417   1.686   3.861 -0.3947  0.5453 -0.2547
  460MOL0     C60648   7.484   1.747   3.738 -0.0362  0.0007 -0.1449
  460MOL0     C60649   7.482   1.909   3.742 -0.2917  0.6864 -0.1312
  460MOL0     C60650   7.566   1.949   3.612 -0.9233  0.1128 -0.5224
  460MOL0     C60651   7.713   1.927   3.636  0.2561  0.2609  0.9404
  460MOL0     C60652   7.830   1.902   3.644 -0.7287 -0.1224 -0.0883
  460MOL0     C60653   7.256   1.619   4.097  0.0008  0.6566 -0.4281
  460MOL0     C60654   7.173   1.592   4.212  0.1447  0.4647  0.8249
  460MOL0     H60655   6.749   1.412   4.447 -1.7509 -0.6219 -2.0351
  460MOL0     H60656   6.578   1.432   4.651  0.4260  1.4599  1.2625
  460MOL0     H60657   6.278   1.607   4.557  4.8109 -1.6173  0.7480
  460MOL0     H60658   6.281   1.767   4.638 -1.3601  0.0210  0.9727
  460MOL0     H60659   6.075   1.642   4.726 -0.4189 -1.1626 -0.4362
  460MOL0     H60660   6.195   1.670   4.845 -1.7666  0.4872 -0.0345
  460MOL0     H60661   6.300   1.448   4.807  1.0425  3.2294  2.2977
  460MOL0     H60662   6.187   1.411   4.677 -0.2256  0.3174 -0.3621
  460MOL0     H60663   6.148   1.422   4.963 -1.0676  1.8599 -0.0227
  460MOL0     H60664   6.012   1.500   4.885 -0.4762  1.1643 -1.9157
  460MOL0     H60665   6.103   1.217   4.835 -0.9686 -0.9999 -0.0150
  460MOL0     H60666   5.980   1.311   4.735  2.5868  1.3495 -1.8513
  460MOL0     H60667   5.848   1.340   4.968 -1.7221 -0.8439 -0.0230
  460MOL0     H60668   5.977   1.231   5.032  3.5555  3.9316 -1.5342
  460MOL0     H60669   5.829   1.151   4.787  0.2394  0.6398 -0.3449
  460MOL0     H60670   5.901   1.050   4.914  1.8301  0.8079  1.6680
  460MOL0     H60671   5.730   1.135   5.072 -0.8351 -3.2506  0.4584
  460MOL0     H60672   5.676   1.029   4.943 -0.4186  1.5370 -4.6937
  460MOL0     H60673   5.579   1.205   4.728  0.8672  0.0362  1.2130
  460MOL0     H60674   5.371   1.338   4.640 -2.0105  0.4964 -0.7616
  460MOL0     H60675   5.323   1.480   4.735 -1.7532  1.1018 -1.1070
  460MOL0     H60676   5.198   1.189   4.747 -0.8742 -0.4051  2.4671
  460MOL0     H60677   5.133   1.313   4.647 -1.5961  2.4268  2.6470
  460MOL0     H60678   5.146   1.336   4.948  0.8408 -0.3649  0.5436
  460MOL0     H60679   5.078   1.466   4.839 -1.0233 -0.3871 -0.6132
  460MOL0     H60680   4.933   1.301   4.962  1.1639  0.3579 -0.2019
  460MOL0     H60681   4.974   1.180   4.840 -1.5066 -0.2504 -2.7342
  460MOL0     H60682   4.690   1.365   4.552 -1.7854 -1.7791 -1.7479
  460MOL0     H60683   4.454   1.317   4.566 -2.9393  0.0255  1.8459
  460MOL0     H60684   4.089   1.054   4.685  0.8951 -0.5374  0.6730
  460MOL0     H60685   3.863   0.986   4.731  1.5956 -0.6951 -0.6022
  460MOL0     H60686   3.763   0.820   4.850 -0.2141  0.3685  0.1090
  460MOL0     H60687   3.651   0.949   4.798 -0.3120 -0.6011 -1.5081
  460MOL0     H60688   3.648   0.771   5.056 -0.1746  0.9373  0.0753
  460MOL0     H60689   3.558   0.738   4.904  1.2783 -1.1658 -0.1494
  460MOL0     H60690   3.431   0.969   4.950 -0.0206  1.2973  1.5832
  460MOL0     H60691   3.511   0.964   5.106  0.9392 -0.8218  0.6227
  460MOL0     H60692   3.340   0.751   5.007 -1.0354  3.3419 -2.2536
  460MOL0     H60693   3.407   0.769   5.171 -0.2811 -1.7392 -0.4836
  460MOL0     H60694   3.227   0.979   5.031 -0.2651  2.1077  0.5854
  460MOL0     H60695   3.273   0.984   5.202  0.1818 -0.4400  0.0433
  460MOL0     H60696   3.137   0.755   5.218  0.3142  1.5233  1.8325
  460MOL0     H60697   3.082   0.783   5.062  0.3464 -3.5610  1.2294
  460MOL0     H60698   3.040   0.965   5.308 -0.2518  0.1989  0.4618
  460MOL0     H60699   2.989   1.011   5.155  0.3698  1.7732  2.3128
  460MOL0     H60700   2.904   0.756   5.303  1.3423  0.9308  0.5643
  460MOL0     H60701   2.838   0.821   5.144 -1.2004 -0.8960  1.1583
  460MOL0     H60702   3.892   1.135   5.132 -0.0621 -0.2490  0.3572
  460MOL0     H60703   4.145   1.199   5.080  1.6967  0.9910 -1.4978
  460MOL0     H60704   4.509   1.165   4.959 -3.1588 -0.3636 -1.4391
  460MOL0     H60705   4.744   1.237   4.956  2.8924  0.3652 -1.7020
  460MOL0     H60706   6.475   1.820   4.522 -1.9794 -1.9329  0.5653
  460MOL0     H60707   6.670   1.806   4.339  1.6599  0.6785  1.4487
  460MOL0     H60708   6.881   1.693   4.062 -0.0448 -0.8401 -1.0497
  460MOL0     H60709   7.025   1.738   3.885 -0.6925 -2.6435  0.3540
  460MOL0     H60710   7.425   1.578   3.850 -2.9452  0.4922 -2.5411
  460MOL0     H60711   7.472   1.728   3.946  0.0094 -0.6393  0.0841
  460MOL0     H60712   7.587   1.710   3.745 -0.8290 -2.0205  2.3555
  460MOL0     H60713   7.440   1.707   3.646 -2.6108 -0.0709  1.0405
  460MOL0     H60714   7.522   1.942   3.838 -2.5109 -0.7925  1.4035
  460MOL0     H60715   7.376   1.935   3.742 -0.6130 -0.4968  0.8326
  460MOL0     H60716   7.528   1.894   3.525 -2.3550 -0.6649  0.5528
  460MOL0     H60717   7.554   2.054   3.587  1.2626  0.7130  0.7281
  460MOL0     H60718   7.930   1.866   3.632 -0.5321 -0.0864  1.3121
  460MOL0     H60719   7.359   1.588   4.113 -0.9081 -2.7463 -0.5465
  460MOL0     H60720   7.225   1.571   4.305  1.4197  0.2693  0.0917
  461MOL0     O60721   0.339   9.563   1.956 -0.3498 -0.5294 -0.5004
  461MOL0     C60722   0.307   9.465   1.893 -0.1100  0.6938 -0.0970
  461MOL0     O60723   0.384   9.385   1.816  0.5294 -0.6197 -0.1340
  461MOL0     C60724   0.516   9.423   1.807  1.1483 -0.2719  0.0837
  461MOL0     C60725   0.568   9.555   1.789 -0.2760 -0.2249  0.5089
  461MOL0     C60726   0.709   9.564   1.768 -0.2115  0.5354 -0.7435
  461MOL0     C60727   0.803   9.457   1.760 -0.2820  0.5485 -0.1965
  461MOL0     O60728   0.941   9.479   1.749 -0.0045 -0.0718 -0.0700
  461MOL0     C60729   0.977   9.504   1.610 -0.0584 -0.1572 -0.0556
  461MOL0     C60730   0.989   9.652   1.574  1.0657  0.6987 -0.2485
  461MOL0     C60731   1.086   9.732   1.671  0.2709  0.8110 -0.7365
  461MOL0     C60732   1.230   9.686   1.654  0.1909 -0.5662 -0.2757
  461MOL0     C60733   1.329   9.784   1.704 -0.2540 -1.1532 -0.4833
  461MOL0     C60734   1.466   9.762   1.634  0.8969 -0.4966 -0.0673
  461MOL0     C60735   1.558   9.872   1.688  0.4122  0.6524  0.3413
  461MOL0     C60736   1.698   9.839   1.636  0.7900 -0.3620 -0.6646
  461MOL0     N60737   1.765   9.725   1.705  0.3503 -0.7998 -0.3896
  461MOL0     C60738   1.762   9.587   1.668  0.3623 -0.0652  0.2333
  461MOL0     C60739   1.857   9.533   1.748  0.0861 -0.0185  0.6091
  461MOL0     C60740   1.882   9.380   1.763  0.1500  0.0880  0.3026
  461MOL0     C60741   1.837   9.340   1.899  0.0002 -0.2141 -0.1975
  461MOL0     C60742   1.855   9.192   1.928 -0.9741 -0.3713  0.5191
  461MOL0     C60743   1.791   9.152   2.066  0.3851  0.3060  0.5183
  461MOL0     O60744   1.757   9.015   2.067 -0.1958  0.4782 -0.0628
  461MOL0     C60745   1.635   8.974   2.017 -0.5538 -0.0448 -0.1210
  461MOL0     C60746   1.593   8.839   2.042 -0.0211  0.1275  0.8316
  461MOL0     C60747   1.469   8.788   1.996  0.8260 -0.1405  0.6490
  461MOL0     C60748   1.387   8.864   1.912 -0.1732  0.5463 -0.5418
  461MOL0     C60749   1.268   8.805   1.851 -0.3046  0.1928  0.8028
  461MOL0     O60750   1.177   8.880   1.785 -0.4379 -0.2082  0.0184
  461MOL0     C60751   1.066   8.816   1.729  0.0715 -0.8882  0.3470
  461MOL0     C60752   0.947   8.814   1.791  0.1799 -0.8243  0.0935
  461MOL0     C60753   0.838   8.735   1.745  0.1503  0.0005 -0.0214
  461MOL0     C60754   0.846   8.654   1.624 -0.4258  0.0880 -1.6152
  461MOL0     O60755   0.744   8.582   1.573  0.5374  0.5355 -0.3855
  461MOL0     C60756   0.651   8.516   1.668 -0.5227 -0.0712 -0.0620
  461MOL0     C60757   0.574   8.394   1.611  0.0946  0.0696  0.1937
  461MOL0     C60758   0.457   8.362   1.693 -0.4120  0.3365  0.3617
  461MOL0     C60759   0.355   8.266   1.636 -0.2544  0.4711 -0.3532
  461MOL0     C60760   0.401   8.120   1.611  0.4616 -0.7072 -0.1654
  461MOL0     C60761   0.482   8.060   1.724 -0.1781  0.9244  0.7995
  461MOL0     C60762   0.519   7.913   1.681 -0.4976 -0.7455 -0.0020
  461MOL0     C60763   0.561   7.828   1.799  0.1868  0.2304  0.3400
  461MOL0    Cl60764   0.605   7.673   1.727  0.2397  0.1161  0.2913
  461MOL0     C60765   0.971   8.658   1.555  0.3670 -0.0043 -0.1729
  461MOL0     C60766   1.078   8.737   1.616 -0.4060  0.1570  0.7867
  461MOL0     O60767   1.261   8.679   1.863 -0.3582 -0.1625  1.3243
  461MOL0     C60768   1.431   8.988   1.873 -0.0479 -0.4304  0.3573
  461MOL0     C60769   1.552   9.048   1.927  0.3829  0.3297  0.4034
  461MOL0     N60770   1.916   9.633   1.824  0.3230  0.4302 -0.0031
  461MOL0     N60771   1.856   9.746   1.804  0.0893 -0.3175  0.0501
  461MOL0     C60772   0.745   9.328   1.783 -0.3109 -0.0421  0.0561
  461MOL0     C60773   0.607   9.314   1.808 -0.1371 -0.0787  0.0562
  461MOL0     C60774   0.169   9.416   1.916  0.7655 -0.2353 -0.0528
  461MOL0     C60775   0.126   9.294   1.854 -0.1839 -0.0618 -0.1260
  461MOL0     C60776  -0.003   9.245   1.864  1.1977 -0.3228  0.1295
  461MOL0     C60777  -0.096   9.313   1.945  0.2008 -0.6469 -0.1344
  461MOL0     O60778  -0.229   9.281   1.946 -0.4366  0.2576 -0.3298
  461MOL0     C60779  -0.268   9.148   1.895  0.0862 -0.4017  0.2039
  461MOL0     C60780  -0.419   9.130   1.931  0.1449 -0.5624  0.0787
  461MOL0     C60781  -0.507   9.229   1.851  0.4486 -0.9835  0.1466
  461MOL0     C60782  -0.654   9.211   1.879 -0.4742  0.2482  0.6765
  461MOL0     C60783  -0.707   9.101   1.789  0.0214 -0.0588  0.5382
  461MOL0     C60784  -0.733   9.009   1.723  0.1949  0.4373  0.0138
  461MOL0     C60785  -0.058   9.431   2.009  0.1613 -0.6106  0.0695
  461MOL0     C60786   0.070   9.483   1.993  0.4731  0.4595 -0.7182
  461MOL0     H60787   0.512   9.646   1.810  0.9221 -0.0973  3.7446
  461MOL0     H60788   0.751   9.664   1.772 -1.8267  1.3120 -2.0464
  461MOL0     H60789   0.903   9.447   1.552  0.2168 -1.3574  0.7357
  461MOL0     H60790   1.074   9.460   1.586 -0.8829 -2.8664  1.2375
  461MOL0     H60791   0.890   9.698   1.578  1.9367  2.6045  0.6791
  461MOL0     H60792   1.018   9.653   1.469  1.2413 -4.7234 -0.5437
  461MOL0     H60793   1.053   9.694   1.768 -1.6074 -1.0015 -2.0116
  461MOL0     H60794   1.087   9.841   1.664  1.7526  0.8633 -0.1102
  461MOL0     H60795   1.258   9.585   1.687 -1.0879 -1.9039 -2.9688
  461MOL0     H60796   1.259   9.684   1.548  2.4984  0.7105  0.2594
  461MOL0     H60797   1.326   9.779   1.813  0.4661 -0.2941 -0.4053
  461MOL0     H60798   1.295   9.884   1.674 -0.1724 -0.7039  0.8983
  461MOL0     H60799   1.460   9.762   1.524  0.0532 -0.8835 -0.0293
  461MOL0     H60800   1.491   9.662   1.672 -1.1706 -1.1451 -0.2796
  461MOL0     H60801   1.519   9.957   1.631 -0.0852 -0.7421 -1.5013
  461MOL0     H60802   1.552   9.892   1.795 -1.5217 -0.2743  0.4381
  461MOL0     H60803   1.755   9.931   1.652  1.7044 -0.5055 -2.7012
  461MOL0     H60804   1.696   9.813   1.529 -2.9199  0.4568 -0.9174
  461MOL0     H60805   1.692   9.558   1.590  0.2511  1.1290 -0.1390
  461MOL0     H60806   1.989   9.363   1.754  0.0893 -0.7337  1.0403
  461MOL0     H60807   1.813   9.323   1.701  0.7570 -0.2478 -0.0659
  461MOL0     H60808   1.731   9.365   1.900 -0.1324 -0.7229 -0.6579
  461MOL0     H60809   1.886   9.405   1.972 -1.6064  1.6688 -0.7253
  461MOL0     H60810   1.824   9.124   1.848  0.8961  1.0085 -1.5126
  461MOL0     H60811   1.963   9.180   1.929 -1.1253 -2.2549 -0.3677
  461MOL0     H60812   1.712   9.226   2.086  0.7688  1.7314 -2.6972
  461MOL0     H60813   1.876   9.161   2.134  1.5458 -0.0435 -0.8490
  461MOL0     H60814   1.662   8.775   2.096  0.8472 -2.6980 -3.2097
  461MOL0     H60815   1.436   8.687   2.020  1.0703 -0.2509  0.5306
  461MOL0     H60816   0.933   8.870   1.883  1.3083 -1.4167  0.6496
  461MOL0     H60817   0.744   8.728   1.799 -0.0380  0.8489 -0.2147
  461MOL0     H60818   0.585   8.591   1.711  0.6876  1.2575 -0.4256
  461MOL0     H60819   0.700   8.488   1.762 -1.6507 -1.5126  0.1331
  461MOL0     H60820   0.632   8.303   1.591  0.5535  0.5281 -0.5648
  461MOL0     H60821   0.546   8.412   1.507  1.5073 -2.2342 -0.6847
  461MOL0     H60822   0.400   8.455   1.700 -1.7730 -0.3303 -1.1289
  461MOL0     H60823   0.492   8.339   1.794  5.0706 -0.1718 -1.2828
  461MOL0     H60824   0.275   8.268   1.710  2.3085  0.1469  2.6328
  461MOL0     H60825   0.319   8.302   1.539  0.0332 -2.5377 -1.6966
  461MOL0     H60826   0.467   8.122   1.524 -0.6860  2.8981 -1.0898
  461MOL0     H60827   0.308   8.066   1.591 -0.5524  0.9350 -0.0221
  461MOL0     H60828   0.427   8.055   1.819  0.6177  1.5428  1.3114
  461MOL0     H60829   0.571   8.115   1.755  2.4534 -2.4503 -0.2284
  461MOL0     H60830   0.429   7.871   1.635 -2.2354  2.3230  0.3102
  461MOL0     H60831   0.602   7.913   1.610  0.8288 -4.0120  1.3686
  461MOL0     H60832   0.486   7.805   1.876  2.8870  0.2964  3.1910
  461MOL0     H60833   0.646   7.876   1.849 -1.7207  0.6572  3.4255
  461MOL0     H60834   0.996   8.590   1.474  0.1730  1.8433 -1.8588
  461MOL0     H60835   1.177   8.732   1.573 -1.1187  1.1363 -1.1066
  461MOL0     H60836   1.378   9.035   1.791 -2.0570 -1.1918  1.1514
  461MOL0     H60837   1.582   9.143   1.885 -0.0481 -0.5095 -1.9680
  461MOL0     H60838   0.811   9.243   1.798 -0.3800 -0.6447 -2.6006
  461MOL0     H60839   0.558   9.217   1.806 -1.1533  0.3481  2.1891
  461MOL0     H60840   0.201   9.224   1.818 -0.2452 -2.1358  3.3659
  461MOL0     H60841  -0.030   9.152   1.814 -1.0848  1.4460 -2.2243
  461MOL0     H60842  -0.212   9.066   1.939 -0.4734  0.6846  3.1422
  461MOL0     H60843  -0.260   9.156   1.786  2.9438  0.1571  0.3850
  461MOL0     H60844  -0.466   9.032   1.913 -1.9307  0.7334 -2.1059
  461MOL0     H60845  -0.436   9.154   2.037 -2.6616  1.1616 -0.6436
  461MOL0     H60846  -0.484   9.225   1.744 -1.6002  0.2276 -0.3939
  461MOL0     H60847  -0.486   9.325   1.900  1.6842 -0.0604 -2.0858
  461MOL0     H60848  -0.658   9.177   1.983  1.3052  1.1033  1.0603
  461MOL0     H60849  -0.700   9.310   1.872 -0.7830  0.0823  0.3162
  461MOL0     H60850  -0.744   8.918   1.668  0.3032 -0.8508  2.0126
  461MOL0     H60851  -0.124   9.467   2.087 -1.5678 -0.2111 -1.4839
  461MOL0     H60852   0.094   9.575   2.045  3.2469  0.1934 -1.3512
  462MOL0     O60853   0.025   4.773  10.526 -1.2978 -0.1908 -0.0566
  462MOL0     C60854   0.116   4.692  10.561 -0.3728 -1.0116  0.1167
  462MOL0     O60855   0.087   4.570  10.610  0.6126 -0.0995  0.7153
  462MOL0     C60856  -0.041   4.518  10.586  0.5987  0.7800 -0.4425
  462MOL0     C60857  -0.098   4.462  10.703  0.9449 -0.1792  0.1048
  462MOL0     C60858  -0.225   4.401  10.698 -0.8859 -0.0327 -0.6362
  462MOL0     C60859  -0.292   4.405  10.576  1.1442  0.1442 -0.5453
  462MOL0     O60860  -0.429   4.363  10.572 -0.3146  0.0337 -0.3932
  462MOL0     C60861  -0.489   4.322  10.699 -0.2513 -0.1853  0.5435
  462MOL0     C60862  -0.617   4.238  10.684 -0.2886 -0.1092  0.4505
  462MOL0     C60863  -0.746   4.299  10.625 -0.8466 -0.7044 -0.1661
  462MOL0     C60864  -0.867   4.212  10.647  1.2849 -0.4828  0.3109
  462MOL0     C60865  -0.995   4.275  10.613  0.0123  0.4593 -0.7406
  462MOL0     C60866  -1.124   4.198  10.643  0.3257  0.6551 -0.1885
  462MOL0     C60867  -1.239   4.295  10.615  0.8235 -0.0387 -0.9365
  462MOL0     C60868  -1.372   4.231  10.652 -1.0617 -0.2097 -0.6855
  462MOL0     N60869  -1.469   4.321  10.600  0.6968  0.7431  0.5156
  462MOL0     C60870  -1.522   4.326  10.474  0.9173 -0.3236 -0.3402
  462MOL0     C60871  -1.593   4.443  10.478  0.1740  1.2014  0.5839
  462MOL0     C60872  -1.692   4.482  10.375  0.1014 -1.7132 -0.1826
  462MOL0     C60873  -1.813   4.394  10.396  0.4944  0.3464 -0.2140
  462MOL0     C60874  -1.903   4.389  10.267 -0.5410  0.5103 -0.1689
  462MOL0     C60875  -2.045   4.342  10.295 -0.2320  0.1432 -0.1312
  462MOL0     O60876  -2.050   4.202  10.312 -0.3037  0.2372 -0.8095
  462MOL0     C60877  -2.167   4.137  10.285  0.0940  0.5009 -0.4635
  462MOL0     C60878  -2.232   4.067  10.385  0.4804 -0.2874 -0.3202
  462MOL0     C60879  -2.359   4.011  10.375  1.0645  0.4489  0.2671
  462MOL0     C60880  -2.437   4.037  10.254 -0.1226  0.7457 -0.6158
  462MOL0     C60881  -2.574   4.003  10.261 -0.2607  0.3716  0.4203
  462MOL0     O60882  -2.608   3.913  10.350  0.4943  0.4654 -0.5392
  462MOL0     C60883  -2.731   3.877  10.385  2.1194  0.0221  0.5572
  462MOL0     C60884  -2.834   3.977  10.383  0.6598  0.2824  0.0952
  462MOL0     C60885  -2.966   3.938  10.427 -0.5376 -0.3439 -1.1683
  462MOL0     C60886  -2.989   3.806  10.475  0.0850  0.0965 -0.8344
  462MOL0     O60887  -3.111   3.763  10.525 -0.1341  0.0354 -0.1396
  462MOL0     C60888  -3.157   3.835  10.635  0.2009  0.2422  0.1561
  462MOL0     C60889  -3.099   3.769  10.759 -0.1175 -0.4136  0.3016
  462MOL0     C60890  -3.155   3.839  10.886 -0.6872  0.1785  0.0085
  462MOL0     C60891  -3.117   3.762  11.012  0.2960 -0.1952 -0.4087
  462MOL0     C60892  -2.966   3.750  11.048 -0.2364  0.1844 -0.4841
  462MOL0     C60893  -2.948   3.660  11.171  0.7537 -1.1652 -0.5895
  462MOL0     C60894  -2.801   3.622  11.190  0.6771 -0.5885  0.2441
  462MOL0     C60895  -2.781   3.599  11.342 -0.2209  0.3044  0.5583
  462MOL0    Cl60896  -2.779   3.753  11.439  0.5690  0.2345  0.0456
  462MOL0     C60897  -2.888   3.712  10.472  0.4849 -0.4516  0.2840
  462MOL0     C60898  -2.760   3.750  10.429 -1.6100  0.4316  0.7704
  462MOL0     O60899  -2.648   4.063  10.179 -0.6474  0.6163 -0.7046
  462MOL0     C60900  -2.370   4.096  10.138  0.1719 -0.1711 -0.4615
  462MOL0     C60901  -2.231   4.135  10.164  0.2453 -0.1360  0.3193
  462MOL0     N60902  -1.592   4.499  10.601  0.0719 -0.6587  0.0813
  462MOL0     N60903  -1.513   4.425  10.669 -0.2044 -0.9740 -0.2002
  462MOL0     C60904  -0.228   4.440  10.462 -0.1436 -0.1942  1.2331
  462MOL0     C60905  -0.102   4.498  10.460 -0.4136 -0.0294 -0.8848
  462MOL0     C60906   0.254   4.733  10.562  0.1549  0.0834  0.0552
  462MOL0     C60907   0.295   4.870  10.538  0.7656  0.4747 -0.2250
  462MOL0     C60908   0.432   4.910  10.549 -0.6207  0.6239 -0.3287
  462MOL0     C60909   0.523   4.812  10.594  0.1582 -0.5228  0.9277
  462MOL0     O60910   0.654   4.835  10.604 -0.2993  0.7019 -0.0370
  462MOL0     C60911   0.708   4.971  10.603  0.1967  0.7903  0.4112
  462MOL0     C60912   0.857   4.968  10.650 -0.5254 -0.3080  0.4011
  462MOL0     C60913   0.902   5.108  10.674  0.2125 -0.3091  0.5282
  462MOL0     C60914   1.044   5.132  10.729 -0.2574  0.2790 -0.4239
  462MOL0     C60915   1.063   5.067  10.859  0.0809 -0.4689 -0.1517
  462MOL0     C60916   1.071   5.010  10.964 -0.2007  0.0121 -0.4553
  462MOL0     C60917   0.486   4.677  10.597  0.3372 -0.1077 -0.1201
  462MOL0     C60918   0.352   4.636  10.579 -0.0289 -0.4354 -0.7814
  462MOL0     H60919  -0.043   4.462  10.797  2.2294  1.1052 -0.6057
  462MOL0     H60920  -0.272   4.374  10.793 -0.2007 -0.7325 -0.4794
  462MOL0     H60921  -0.519   4.407  10.761 -1.3591 -0.9783  1.1310
  462MOL0     H60922  -0.430   4.260  10.768 -1.9288  1.0607  3.2768
  462MOL0     H60923  -0.634   4.190  10.780  0.0356  0.7022  0.9255
  462MOL0     H60924  -0.593   4.163  10.608  1.1940 -1.7416  2.4047
  462MOL0     H60925  -0.741   4.331  10.520 -0.8906 -0.0832  0.0148
  462MOL0     H60926  -0.762   4.392  10.681 -0.9608 -1.5282  1.2126
  462MOL0     H60927  -0.856   4.121  10.588 -2.1265 -1.7391  1.3886
  462MOL0     H60928  -0.862   4.185  10.753  0.5683 -2.9708 -0.2338
  462MOL0     H60929  -0.988   4.300  10.507 -1.0597  0.5343 -0.8129
  462MOL0     H60930  -0.996   4.360  10.681  0.8135  0.0720 -0.2352
  462MOL0     H60931  -1.128   4.175  10.750  0.4177 -1.7315 -0.6466
  462MOL0     H60932  -1.125   4.107  10.583  0.5157  1.1452 -0.9473
  462MOL0     H60933  -1.230   4.386  10.675  0.0713 -0.8411  0.4615
  462MOL0     H60934  -1.228   4.317  10.509  0.1604  1.4973 -0.7089
  462MOL0     H60935  -1.379   4.218  10.760 -2.3140  0.3108 -0.6828
  462MOL0     H60936  -1.392   4.131  10.612  1.2047 -0.1350 -2.2159
  462MOL0     H60937  -1.520   4.252  10.394 -1.0754  0.1729 -0.9183
  462MOL0     H60938  -1.660   4.456  10.273 -0.6379 -0.2551 -0.8113
  462MOL0     H60939  -1.723   4.585  10.392  4.5055 -0.3599  0.7823
  462MOL0     H60940  -1.873   4.434  10.478 -0.4909  0.9724 -1.2102
  462MOL0     H60941  -1.782   4.290  10.410  2.4492  1.0058  0.7560
  462MOL0     H60942  -1.915   4.492  10.233  1.1164  0.7210 -0.1846
  462MOL0     H60943  -1.853   4.334  10.187  0.7919  0.9177  0.3495
  462MOL0     H60944  -2.104   4.377  10.209 -1.1871 -2.6459 -0.7375
  462MOL0     H60945  -2.081   4.388  10.387  2.3573  1.4588  0.3210
  462MOL0     H60946  -2.179   4.066  10.480  1.6418  2.5057 -0.8474
  462MOL0     H60947  -2.400   3.951  10.455  0.7201 -0.7251 -0.7542
  462MOL0     H60948  -2.831   4.079  10.346 -1.0831  0.0359 -0.8375
  462MOL0     H60949  -3.050   4.008  10.431 -1.0663 -1.0114  1.2175
  462MOL0     H60950  -3.265   3.824  10.624  0.0199  0.2526  1.7561
  462MOL0     H60951  -3.130   3.941  10.639 -0.6112  0.4609  0.0604
  462MOL0     H60952  -2.991   3.773  10.746 -0.2774  2.2655 -0.9744
  462MOL0     H60953  -3.118   3.662  10.768 -1.0151 -0.3686 -0.8497
  462MOL0     H60954  -3.264   3.846  10.886 -0.5962  1.9015  0.7362
  462MOL0     H60955  -3.112   3.939  10.891  0.6923 -0.4657  2.0941
  462MOL0     H60956  -3.174   3.788  11.102  1.1831 -0.7377  0.3327
  462MOL0     H60957  -3.156   3.662  10.990 -0.6132  0.0101  0.1899
  462MOL0     H60958  -2.917   3.845  11.069  0.0974 -0.0159 -0.3422
  462MOL0     H60959  -2.922   3.699  10.961  0.3125  1.1483 -0.7898
  462MOL0     H60960  -3.011   3.570  11.162  0.6830 -1.0998 -0.7566
  462MOL0     H60961  -2.983   3.728  11.248  2.8402 -1.0617  0.3337
  462MOL0     H60962  -2.769   3.531  11.138  2.1536 -0.7607  1.3774
  462MOL0     H60963  -2.732   3.699  11.154 -0.9916  0.2822 -1.2414
  462MOL0     H60964  -2.688   3.541  11.350  1.3660  2.3535 -1.6126
  462MOL0     H60965  -2.857   3.535  11.387  1.2655  0.0714  2.9366
  462MOL0     H60966  -2.902   3.614  10.515 -1.1053  0.4952  2.0736
  462MOL0     H60967  -2.677   3.681  10.437 -0.5321  1.7016  0.7516
  462MOL0     H60968  -2.412   4.119  10.041  0.6361  0.1818 -0.5850
  462MOL0     H60969  -2.174   4.190  10.090 -0.5156 -3.0463 -2.6487
  462MOL0     H60970  -0.277   4.423  10.367  0.6771  0.3667  0.7061
  462MOL0     H60971  -0.044   4.528  10.373 -0.7556 -0.3696 -1.2325
  462MOL0     H60972   0.221   4.943  10.504 -0.3028 -0.6597 -0.3965
  462MOL0     H60973   0.447   5.016  10.533  3.9681  0.1399 -0.5158
  462MOL0     H60974   0.649   5.039  10.666  0.9036 -1.1064  3.3116
  462MOL0     H60975   0.684   5.011  10.504 -0.5103  0.0114  0.2550
  462MOL0     H60976   0.862   4.903  10.738 -0.9624  0.7202  1.2029
  462MOL0     H60977   0.921   4.935  10.568  0.1875  1.7104  0.0856
  462MOL0     H60978   0.825   5.158  10.734  0.9746  0.3338  0.9801
  462MOL0     H60979   0.898   5.155  10.576  0.8777 -1.2908  0.0121
  462MOL0     H60980   1.117   5.097  10.655 -0.8176 -0.3076 -0.7181
  462MOL0     H60981   1.041   5.240  10.744 -4.6067  0.5070 -1.5657
  462MOL0     H60982   1.094   4.955  11.053 -1.8073 -1.8810 -1.1373
  462MOL0     H60983   0.554   4.593  10.604 -2.0977 -2.1071  1.8658
  462MOL0     H60984   0.323   4.535  10.604  0.2517 -0.4483 -0.5002
  463MOL0     O60985   9.750   4.531   1.013  0.2737 -0.3728 -0.4613
  463MOL0     C60986   9.771   4.631   1.080  0.0127  0.2106 -0.0934
  463MOL0     O60987   9.675   4.702   1.143  0.0850  0.0637 -0.1301
  463MOL0     C60988   9.554   4.715   1.067 -0.2797  0.5811  0.0476
  463MOL0     C60989   9.539   4.751   0.940  0.0404  0.8728 -0.1219
  463MOL0     C60990   9.417   4.752   0.876  1.0837  0.2359 -0.5121
  463MOL0     C60991   9.297   4.714   0.939 -1.0408  0.4221  0.8823
  463MOL0     O60992   9.175   4.702   0.880  0.5023  0.1976 -0.1237
  463MOL0     C60993   9.146   4.793   0.765  1.0630 -0.7307 -0.2338
  463MOL0     C60994   9.000   4.766   0.724 -0.1503 -1.4986  0.7279
  463MOL0     C60995   8.895   4.788   0.829 -0.9434 -0.2619 -0.3630
  463MOL0     C60996   8.761   4.745   0.768 -0.0255 -0.1009  0.8368
  463MOL0     C60997   8.657   4.746   0.873 -0.0809 -0.5012 -0.1059
  463MOL0     C60998   8.522   4.717   0.803  0.2360  0.2527  0.6318
  463MOL0     C60999   8.409   4.683   0.901  0.0048 -0.3268 -0.0792
  463MOL0     C61000   8.280   4.716   0.839  0.2106  0.7258 -0.4621
  463MOL0     N61001   8.171   4.700   0.927  0.8482  0.3603 -0.5685
  463MOL0     C61002   8.108   4.582   0.951 -0.5426  0.5657  0.1881
  463MOL0     C61003   8.050   4.599   1.073  0.3741 -0.2406 -0.8117
  463MOL0     C61004   7.967   4.490   1.152 -0.2519  1.2406 -0.2285
  463MOL0     C61005   7.835   4.531   1.217  0.4025  0.3770 -0.1877
  463MOL0     C61006   7.859   4.580   1.356  0.1122  0.0333 -0.0391
  463MOL0     C61007   7.739   4.587   1.457 -0.7274  0.4282 -0.6096
  463MOL0     O61008   7.650   4.694   1.424  0.3945 -0.1317 -0.1391
  463MOL0     C61009   7.561   4.742   1.515  0.5259 -0.9097  0.0878
  463MOL0     C61010   7.509   4.872   1.485 -0.6042  0.4479 -1.0361
  463MOL0     C61011   7.422   4.928   1.579  0.2333  0.1836  0.2743
  463MOL0     C61012   7.391   4.865   1.700 -0.0550  0.5960 -0.1232
  463MOL0     C61013   7.293   4.927   1.785  0.0346  0.4581 -0.9547
  463MOL0     O61014   7.212   4.845   1.865 -0.2531  0.0062  0.3175
  463MOL0     C61015   7.126   4.907   1.951 -0.5150  0.5958 -0.6860
  463MOL0     C61016   7.021   4.986   1.900 -0.0016 -0.4439  0.2427
  463MOL0     C61017   6.934   5.049   1.986 -0.4228 -0.0349  1.2259
  463MOL0     C61018   6.959   5.041   2.130  0.9410 -0.4581  0.4647
  463MOL0     O61019   6.877   5.121   2.201  0.5273  0.2696  0.2639
  463MOL0     C61020   6.825   5.071   2.326 -0.0375  0.4711  0.4899
  463MOL0     C61021   6.753   5.193   2.381  0.5846 -0.9312 -0.5964
  463MOL0     C61022   6.611   5.212   2.327  0.8088 -0.1245  0.5468
  463MOL0     C61023   6.548   5.347   2.362 -0.8406 -0.5394 -0.6646
  463MOL0     C61024   6.399   5.345   2.338  1.0515 -0.2148 -0.6036
  463MOL0     C61025   6.329   5.303   2.478 -0.0520 -0.1221 -0.4817
  463MOL0     C61026   6.181   5.286   2.464  0.6779  0.0919  0.1381
  463MOL0     C61027   6.124   5.262   2.607 -0.5541 -0.3459  1.1313
  463MOL0    Cl61028   6.118   5.087   2.643 -0.0857  0.2459 -0.0281
  463MOL0     C61029   7.047   4.942   2.176 -0.6262 -0.6461 -0.4689
  463MOL0     C61030   7.126   4.876   2.088 -0.5208 -1.0706 -0.0565
  463MOL0     O61031   7.286   5.053   1.785 -0.2990 -0.3886 -0.5162
  463MOL0     C61032   7.444   4.740   1.728 -0.1913 -0.3899  1.0520
  463MOL0     C61033   7.536   4.689   1.642 -0.8387  1.2331  0.7584
  463MOL0     N61034   8.079   4.730   1.122 -0.1241 -0.1870  0.5285
  463MOL0     N61035   8.151   4.791   1.032  1.0545  0.6905 -0.5845
  463MOL0     C61036   9.313   4.668   1.072 -0.6761  0.1880 -0.0926
  463MOL0     C61037   9.445   4.672   1.135  0.9294  0.1771 -0.2107
  463MOL0     C61038   9.908   4.687   1.104 -0.1451 -0.0642 -0.1921
  463MOL0     C61039  10.018   4.617   1.050 -0.6049  0.2946 -0.9157
  463MOL0     C61040  10.142   4.677   1.066 -0.7255 -1.0017  0.1579
  463MOL0     C61041  10.167   4.808   1.113 -0.3182  0.1841  0.3027
  463MOL0     O61042  10.289   4.865   1.143  0.4113 -0.0352  0.1872
  463MOL0     C61043  10.395   4.792   1.089 -0.4371  0.6114 -0.0388
  463MOL0     C61044  10.520   4.879   1.115 -0.5082 -0.1151 -0.3733
  463MOL0     C61045  10.579   4.912   0.975 -0.3779 -0.1283  0.4965
  463MOL0     C61046  10.703   4.989   0.983 -0.3390 -0.5062  0.8099
  463MOL0     C61047  10.763   5.020   0.847  0.1215 -0.2034 -0.5654
  463MOL0     C61048  10.797   5.034   0.733 -0.1398  0.7052 -0.2711
  463MOL0     C61049  10.046   4.871   1.168 -0.9933 -0.1883 -0.6105
  463MOL0     C61050   9.927   4.810   1.166  0.1734  0.0563 -0.1724
  463MOL0     H61051   9.631   4.760   0.883  1.0056 -0.1474  1.2283
  463MOL0     H61052   9.409   4.768   0.769 -0.5097 -0.3225 -0.4983
  463MOL0     H61053   9.221   4.772   0.688  0.9732 -0.8965 -0.2773
  463MOL0     H61054   9.142   4.899   0.792 -1.9863 -0.1963 -2.3685
  463MOL0     H61055   8.995   4.666   0.680  0.2390 -0.5766 -1.5852
  463MOL0     H61056   8.986   4.832   0.638 -1.7184 -2.3358  0.2956
  463MOL0     H61057   8.894   4.890   0.867 -1.6791  0.1446 -1.4401
  463MOL0     H61058   8.919   4.716   0.908 -0.9684 -1.0438 -1.0421
  463MOL0     H61059   8.726   4.818   0.695  2.3295  3.2494  2.7878
  463MOL0     H61060   8.769   4.644   0.727 -1.6363 -0.1524  0.5759
  463MOL0     H61061   8.663   4.841   0.925 -1.3401 -1.3208  1.6684
  463MOL0     H61062   8.673   4.670   0.950 -4.9718  1.0979  2.9629
  463MOL0     H61063   8.540   4.635   0.732 -1.5719  2.2959 -2.4425
  463MOL0     H61064   8.492   4.793   0.729 -0.9026 -1.9326 -1.2931
  463MOL0     H61065   8.407   4.577   0.929  1.9068  0.3732  3.3844
  463MOL0     H61066   8.416   4.733   0.999 -1.4752  2.7632 -1.4130
  463MOL0     H61067   8.269   4.650   0.752 -1.9709  1.5248 -0.8596
  463MOL0     H61068   8.268   4.821   0.809 -0.1611  0.3237 -1.8044
  463MOL0     H61069   8.123   4.497   0.886  3.1875  1.4340 -0.2928
  463MOL0     H61070   8.034   4.430   1.215 -2.8719 -1.8992 -0.1437
  463MOL0     H61071   7.935   4.431   1.065 -0.9435  3.6732 -1.7072
  463MOL0     H61072   7.755   4.457   1.222 -1.3917  2.1405 -1.2309
  463MOL0     H61073   7.797   4.614   1.156  1.1516  1.1754  0.3927
  463MOL0     H61074   7.940   4.518   1.397  0.9159 -0.4246 -2.2061
  463MOL0     H61075   7.908   4.677   1.349  0.3886  0.1171  2.2291
  463MOL0     H61076   7.775   4.585   1.560  0.1836 -1.1604 -0.9202
  463MOL0     H61077   7.682   4.494   1.461 -1.9362  1.1888  0.7091
  463MOL0     H61078   7.530   4.921   1.391  5.3115 -0.7656 -0.7395
  463MOL0     H61079   7.377   5.026   1.570 -0.1955  0.2181  2.3730
  463MOL0     H61080   6.998   4.991   1.794 -0.7806 -0.7899  0.3931
  463MOL0     H61081   6.848   5.104   1.947  0.9912 -0.0950 -2.3633
  463MOL0     H61082   6.900   5.036   2.398  2.8943  0.3374 -2.4023
  463MOL0     H61083   6.748   4.996   2.304 -0.2407  1.2796 -1.7338
  463MOL0     H61084   6.805   5.290   2.376 -3.7870  1.9612  2.4742
  463MOL0     H61085   6.748   5.189   2.490 -1.4438  1.7998 -0.4704
  463MOL0     H61086   6.548   5.133   2.369  1.8677 -1.7616 -0.8078
  463MOL0     H61087   6.614   5.214   2.217  0.0429  2.6427  0.4939
  463MOL0     H61088   6.559   5.375   2.467 -1.8628  0.2195 -0.7450
  463MOL0     H61089   6.605   5.427   2.315 -0.6361 -0.0226  0.4302
  463MOL0     H61090   6.374   5.272   2.260  1.0425 -1.9843  0.9699
  463MOL0     H61091   6.371   5.448   2.314  1.7754  0.1911  0.2288
  463MOL0     H61092   6.359   5.374   2.555 -1.8554  0.8191 -0.5852
  463MOL0     H61093   6.364   5.205   2.508  0.2524 -0.1289 -0.8473
  463MOL0     H61094   6.144   5.382   2.425  1.3198  0.8705  1.3712
  463MOL0     H61095   6.159   5.203   2.397 -0.3136  0.4762 -0.0284
  463MOL0     H61096   6.025   5.307   2.614 -1.3044 -1.8736  0.7506
  463MOL0     H61097   6.193   5.298   2.684 -0.7604  1.8316  0.3551
  463MOL0     H61098   7.052   4.937   2.285  1.1893  0.9839 -0.4269
  463MOL0     H61099   7.189   4.797   2.127 -1.0850 -0.1130  3.0195
  463MOL0     H61100   7.409   4.678   1.809 -1.4597 -1.5991 -0.3452
  463MOL0     H61101   7.576   4.591   1.669 -0.7736  1.5856  2.0073
  463MOL0     H61102   9.227   4.634   1.129 -0.2427 -2.8598 -1.0900
  463MOL0     H61103   9.448   4.636   1.237  0.4809  0.2087 -0.1815
  463MOL0     H61104  10.010   4.515   1.013  2.3889 -0.7581  0.9230
  463MOL0     H61105  10.229   4.620   1.033  0.7336  1.9799 -1.4994
  463MOL0     H61106  10.389   4.764   0.983  4.4711  1.8382 -0.8488
  463MOL0     H61107  10.397   4.697   1.143 -1.1657  0.3974 -0.3725
  463MOL0     H61108  10.487   4.966   1.171  0.0955 -0.6724  0.8813
  463MOL0     H61109  10.599   4.830   1.173  0.8303 -0.3994 -2.3545
  463MOL0     H61110  10.506   4.958   0.907  0.5725 -0.5250 -0.8391
  463MOL0     H61111  10.605   4.814   0.932  0.1346  0.4560 -0.5758
  463MOL0     H61112  10.687   5.082   1.038  3.2983  0.2442  0.8042
  463MOL0     H61113  10.779   4.931   1.036 -0.1988 -1.2930 -0.2238
  463MOL0     H61114  10.819   5.040   0.629 -0.8971 -1.0808 -0.5699
  463MOL0     H61115  10.059   4.973   1.203 -1.4382  0.1764 -1.4559
  463MOL0     H61116   9.845   4.868   1.206 -0.0278 -1.0681  1.1368
  464MOL0     O61117   0.934   4.771   6.891  0.0237 -0.4884 -0.4773
  464MOL0     C61118   1.000   4.670   6.868 -0.0576 -1.0753 -0.4098
  464MOL0     O61119   0.961   4.568   6.789 -0.1594  0.3231 -0.1780
  464MOL0     C61120   0.833   4.553   6.751  0.1509 -1.4000 -0.1578
  464MOL0     C61121   0.714   4.601   6.819 -0.2001 -0.5317  0.9308
  464MOL0     C61122   0.582   4.592   6.765  0.1332 -0.3505  0.6513
  464MOL0     C61123   0.563   4.544   6.630 -0.5134  0.1562  0.2072
  464MOL0     O61124   0.444   4.539   6.569  0.4090 -0.9229 -0.0744
  464MOL0     C61125   0.372   4.427   6.622  1.0481  0.6177 -0.4558
  464MOL0     C61126   0.378   4.317   6.519  0.0037  0.0756  0.1777
  464MOL0     C61127   0.270   4.209   6.537  0.0300 -0.3407 -0.0841
  464MOL0     C61128   0.138   4.247   6.469  1.4191 -0.3863 -0.8014
  464MOL0     C61129   0.044   4.127   6.433 -0.1810 -0.2132  0.1109
  464MOL0     C61130  -0.102   4.183   6.439 -0.1911 -0.1898 -0.7839
  464MOL0     C61131  -0.153   4.280   6.329  1.0641  0.1256 -0.4903
  464MOL0     C61132  -0.292   4.246   6.269 -0.9943  0.2522  0.4573
  464MOL0     N61133  -0.402   4.265   6.369 -1.3578 -0.4950  0.1186
  464MOL0     C61134  -0.447   4.173   6.457  0.0407 -0.5728  0.5421
  464MOL0     C61135  -0.544   4.233   6.534  0.5803 -0.4109  0.2915
  464MOL0     C61136  -0.616   4.153   6.635 -0.0591  0.8593  0.8531
  464MOL0     C61137  -0.738   4.087   6.573 -0.7926 -0.5702  0.0672
  464MOL0     C61138  -0.809   4.001   6.681  0.6592 -0.1192 -0.1152
  464MOL0     C61139  -0.943   3.952   6.622 -0.2032  0.1586  0.5661
  464MOL0     O61140  -0.998   3.865   6.722 -0.0043  0.1033  0.1030
  464MOL0     C61141  -1.113   3.785   6.695 -0.8048 -0.1385 -0.4151
  464MOL0     C61142  -1.191   3.785   6.574 -1.1225  0.3504 -0.9234
  464MOL0     C61143  -1.301   3.703   6.569  0.4628 -0.7581  1.0497
  464MOL0     C61144  -1.346   3.634   6.679 -0.4718  0.6465 -0.2775
  464MOL0     C61145  -1.467   3.552   6.672  0.1498 -0.0776  0.2730
  464MOL0     O61146  -1.499   3.503   6.549  0.8232 -0.4801 -0.4758
  464MOL0     C61147  -1.632   3.476   6.526 -1.0892  1.1703 -0.4843
  464MOL0     C61148  -1.732   3.570   6.539 -0.8721 -0.1332  0.1512
  464MOL0     C61149  -1.866   3.540   6.533  0.6398  0.8603 -1.1850
  464MOL0     C61150  -1.899   3.404   6.499  0.3954  0.3776 -0.2851
  464MOL0     O61151  -2.030   3.355   6.477 -0.3484  0.4746  0.0203
  464MOL0     C61152  -2.126   3.452   6.426  0.7824  0.0364  0.1567
  464MOL0     C61153  -2.243   3.382   6.351  0.4838 -0.2035  0.5301
  464MOL0     C61154  -2.363   3.472   6.293  0.0612  1.3043 -0.0930
  464MOL0     C61155  -2.467   3.373   6.239  0.6715 -0.2888  0.0550
  464MOL0     C61156  -2.578   3.441   6.160  0.6402  0.1668  0.0700
  464MOL0     C61157  -2.658   3.342   6.079 -0.4456 -0.8250 -0.0995
  464MOL0     C61158  -2.798   3.382   6.036  0.2041 -0.4602 -0.3176
  464MOL0     C61159  -2.902   3.410   6.137  0.5546  0.0917  0.6523
  464MOL0    Cl61160  -2.879   3.306   6.280 -0.0833  0.1752  0.0796
  464MOL0     C61161  -1.805   3.306   6.490  0.1692 -0.3077  0.2568
  464MOL0     C61162  -1.667   3.338   6.495  0.0013  0.2890 -0.9878
  464MOL0     O61163  -1.529   3.531   6.779  0.5920  0.2112 -0.6744
  464MOL0     C61164  -1.271   3.640   6.796  1.0759  0.2784 -0.5064
  464MOL0     C61165  -1.158   3.716   6.803 -0.2850 -0.4418  0.1631
  464MOL0     N61166  -0.557   4.356   6.483 -0.2068 -0.3060 -0.1912
  464MOL0     N61167  -0.480   4.372   6.385 -0.4629 -0.2196 -0.0131
  464MOL0     C61168   0.678   4.492   6.564  0.6547 -0.0293 -0.4622
  464MOL0     C61169   0.798   4.499   6.627  0.0902  0.4567  0.5025
  464MOL0     C61170   1.145   4.662   6.909 -0.3276 -0.9287  0.3703
  464MOL0     C61171   1.200   4.728   7.025  0.1883  0.4630 -0.1410
  464MOL0     C61172   1.333   4.709   7.065  0.2247  0.4308  0.2816
  464MOL0     C61173   1.419   4.649   6.980 -0.1502  0.5345  0.4392
  464MOL0     O61174   1.554   4.636   6.995 -0.4035 -0.1396 -0.4020
  464MOL0     C61175   1.614   4.690   7.121  0.2032 -0.6274  0.2959
  464MOL0     C61176   1.757   4.646   7.145  0.8983  0.0275  0.3036
  464MOL0     C61177   1.755   4.509   7.206 -0.7486  0.1604 -0.2250
  464MOL0     C61178   1.903   4.465   7.220  0.3546  0.1082 -0.6830
  464MOL0     C61179   1.985   4.538   7.317  0.1214 -0.2885 -0.6946
  464MOL0     C61180   2.057   4.595   7.396  0.6750  1.1612  0.6706
  464MOL0     C61181   1.367   4.593   6.862  0.0370  0.3859  0.7089
  464MOL0     C61182   1.235   4.591   6.823 -0.1232 -0.3355 -0.9077
  464MOL0     H61183   0.731   4.639   6.919  0.8180  1.1632  0.1583
  464MOL0     H61184   0.498   4.617   6.829  0.9445  0.6213  1.3499
  464MOL0     H61185   0.271   4.468   6.633 -0.0635 -2.4716  3.2487
  464MOL0     H61186   0.402   4.392   6.721  1.6943 -1.0238 -1.1971
  464MOL0     H61187   0.476   4.270   6.521 -0.4855 -0.9484  0.7766
  464MOL0     H61188   0.373   4.355   6.417  0.1649 -0.8866 -0.1970
  464MOL0     H61189   0.250   4.184   6.642  2.7745 -1.7054  0.2050
  464MOL0     H61190   0.309   4.114   6.497 -1.6848 -1.0716 -0.1050
  464MOL0     H61191   0.082   4.312   6.537  2.3200  0.6027 -0.9897
  464MOL0     H61192   0.148   4.295   6.372  0.3780 -0.2364 -0.8523
  464MOL0     H61193   0.056   4.050   6.510 -0.5571 -1.3827 -0.9763
  464MOL0     H61194   0.080   4.092   6.336  0.8209 -2.1140  1.1146
  464MOL0     H61195  -0.102   4.226   6.539  2.3043 -1.2027 -0.2709
  464MOL0     H61196  -0.174   4.101   6.437 -0.4411 -0.1124  1.7497
  464MOL0     H61197  -0.153   4.379   6.376  1.2979 -0.7703  1.5093
  464MOL0     H61198  -0.075   4.287   6.252  1.1522 -0.0721 -0.4184
  464MOL0     H61199  -0.301   4.141   6.238  0.0812 -0.0587  1.1094
  464MOL0     H61200  -0.314   4.313   6.186  0.4938  2.4883  1.7491
  464MOL0     H61201  -0.407   4.072   6.467  2.7057  0.2809 -0.4548
  464MOL0     H61202  -0.650   4.216   6.717  0.4239  1.8507  0.3145
  464MOL0     H61203  -0.553   4.080   6.687  0.9908  1.8442  1.0096
  464MOL0     H61204  -0.700   4.030   6.488 -1.2828  2.3326 -2.2623
  464MOL0     H61205  -0.808   4.162   6.535 -1.6648 -0.3443  1.9731
  464MOL0     H61206  -0.738   3.922   6.710  1.7188  0.3382 -1.3439
  464MOL0     H61207  -0.830   4.059   6.771 -0.1434  0.1482 -0.4687
  464MOL0     H61208  -0.930   3.905   6.524 -0.5437 -0.3462  0.7575
  464MOL0     H61209  -1.003   4.043   6.611  1.2112  0.9961 -0.4702
  464MOL0     H61210  -1.158   3.849   6.493  1.3855  1.8722  1.1412
  464MOL0     H61211  -1.362   3.694   6.479 -0.5411  0.4953  1.5716
  464MOL0     H61212  -1.698   3.671   6.556  0.0919 -0.3052 -0.6813
  464MOL0     H61213  -1.944   3.615   6.543  0.0031 -0.0871  2.2633
  464MOL0     H61214  -2.093   3.504   6.336 -0.1154 -1.6665 -1.2278
  464MOL0     H61215  -2.155   3.519   6.508  1.8055  1.1684 -0.3722
  464MOL0     H61216  -2.286   3.304   6.415  0.4146 -0.3126  0.3544
  464MOL0     H61217  -2.209   3.331   6.260 -0.8517  0.3293 -0.3040
  464MOL0     H61218  -2.328   3.533   6.210 -1.3390  1.7361 -0.3970
  464MOL0     H61219  -2.403   3.541   6.368  1.5334 -0.9279  2.9135
  464MOL0     H61220  -2.425   3.305   6.164 -1.4611 -1.7548  0.0897
  464MOL0     H61221  -2.517   3.317   6.319  1.1449 -2.6826 -1.2276
  464MOL0     H61222  -2.527   3.515   6.096  1.7042  0.5835  1.3408
  464MOL0     H61223  -2.648   3.502   6.218 -1.3100 -0.6507 -1.3174
  464MOL0     H61224  -2.674   3.247   6.130 -0.5590 -0.1026  1.2406
  464MOL0     H61225  -2.590   3.322   5.995  2.5565 -0.1209  2.0295
  464MOL0     H61226  -2.783   3.464   5.965  0.3373 -0.1512  0.0674
  464MOL0     H61227  -2.836   3.302   5.972 -1.7956  0.0190  0.2225
  464MOL0     H61228  -3.006   3.399   6.103  0.5552 -0.1398  0.7280
  464MOL0     H61229  -2.898   3.514   6.171  0.5950  0.3606 -0.1321
  464MOL0     H61230  -1.831   3.201   6.480 -1.9974 -0.0904  2.6591
  464MOL0     H61231  -1.586   3.265   6.492  0.6371  0.9345  0.0507
  464MOL0     H61232  -1.303   3.567   6.870  0.8042 -0.7387 -1.6105
  464MOL0     H61233  -1.092   3.705   6.889  0.2082 -3.0052 -0.4553
  464MOL0     H61234   0.666   4.467   6.459 -2.3656  2.3251 -0.8412
  464MOL0     H61235   0.881   4.453   6.574 -0.0404  0.9861 -0.1806
  464MOL0     H61236   1.126   4.789   7.076 -1.8452 -0.3459 -1.9562
  464MOL0     H61237   1.361   4.735   7.167 -0.7358  1.8808  0.2050
  464MOL0     H61238   1.566   4.652   7.212 -0.3308 -0.0931  0.2516
  464MOL0     H61239   1.605   4.799   7.126  0.7736 -0.6208  1.5222
  464MOL0     H61240   1.816   4.642   7.053 -1.3537  1.1263 -1.2809
  464MOL0     H61241   1.801   4.700   7.230  0.0718  2.6328 -0.8128
  464MOL0     H61242   1.709   4.434   7.140  1.1104 -0.6901 -0.6407
  464MOL0     H61243   1.696   4.501   7.298 -1.1371  2.8642 -0.1826
  464MOL0     H61244   1.896   4.358   7.244 -2.3523  0.6158  1.2000
  464MOL0     H61245   1.952   4.466   7.122  0.4118  1.3649 -0.6591
  464MOL0     H61246   2.131   4.643   7.456  1.9658 -1.2265  1.0983
  464MOL0     H61247   1.440   4.536   6.805  0.2416  0.4147  0.9416
  464MOL0     H61248   1.203   4.541   6.732 -0.6714 -2.4800  0.3977
  465MOL0     O61249   4.366   1.989   8.043  1.3024  0.2175  0.5308
  465MOL0     C61250   4.417   2.057   7.958  0.2500  0.2662 -1.1135
  465MOL0     O61251   4.356   2.106   7.843 -0.6261 -0.3086 -0.1588
  465MOL0     C61252   4.228   2.061   7.802 -0.2492  0.5441 -0.1745
  465MOL0     C61253   4.145   2.146   7.732  0.2264  0.2541 -0.3285
  465MOL0     C61254   4.019   2.107   7.701  0.0784 -0.5213 -0.0173
  465MOL0     C61255   3.973   1.978   7.740  0.7897 -0.2374 -0.4386
  465MOL0     O61256   3.841   1.938   7.715 -0.5988  0.5111  0.0763
  465MOL0     C61257   3.796   1.928   7.574 -0.2228 -0.1517 -0.3952
  465MOL0     C61258   3.673   1.834   7.576 -0.1239  1.1672 -0.0874
  465MOL0     C61259   3.589   1.831   7.444 -0.8275 -0.3938 -0.0940
  465MOL0     C61260   3.483   1.724   7.442 -1.4977  0.2095 -0.6756
  465MOL0     C61261   3.399   1.734   7.314 -0.4201  0.2644 -0.3283
  465MOL0     C61262   3.284   1.636   7.328 -0.1420  0.4278  0.2785
  465MOL0     C61263   3.186   1.642   7.200  0.4031 -0.6974  0.5560
  465MOL0     C61264   3.212   1.541   7.087 -0.4928 -0.1178 -0.1753
  465MOL0     N61265   3.340   1.555   7.023 -0.2113  0.4822 -0.2847
  465MOL0     C61266   3.449   1.489   7.066  0.6244  0.0525  0.9932
  465MOL0     C61267   3.546   1.544   6.993 -0.4972 -0.4385 -0.6686
  465MOL0     C61268   3.696   1.503   7.011  0.5772 -0.2873 -0.1543
  465MOL0     C61269   3.776   1.603   7.113  0.6194  0.7238  0.2280
  465MOL0     C61270   3.802   1.739   7.049 -0.5744 -0.4700 -0.0322
  465MOL0     C61271   3.872   1.839   7.140 -0.4332 -1.1592  0.1697
  465MOL0     O61272   3.978   1.789   7.225 -0.2848 -0.4827 -0.4293
  465MOL0     C61273   4.095   1.753   7.176 -0.6276  0.1239  0.1709
  465MOL0     C61274   4.179   1.677   7.253  0.1166 -0.2600  0.6948
  465MOL0     C61275   4.307   1.629   7.214 -0.2890  1.1269 -0.4290
  465MOL0     C61276   4.358   1.658   7.082 -0.8277 -0.3592  0.0187
  465MOL0     C61277   4.491   1.610   7.034  0.1211 -1.1551 -1.2388
  465MOL0     O61278   4.537   1.658   6.909 -0.4458 -1.0586 -0.0812
  465MOL0     C61279   4.664   1.625   6.865 -0.7098  0.5679  0.3855
  465MOL0     C61280   4.676   1.523   6.773 -0.2943 -0.1564  0.4027
  465MOL0     C61281   4.793   1.501   6.702  0.4489  0.0088  0.2507
  465MOL0     C61282   4.913   1.568   6.734  0.2546 -0.0887  0.3666
  465MOL0     O61283   5.027   1.537   6.660  0.8484  1.1272  0.1241
  465MOL0     C61284   5.148   1.532   6.728 -1.1168  0.2806 -0.1548
  465MOL0     C61285   5.257   1.475   6.639  0.6270 -0.3835  0.4873
  465MOL0     C61286   5.249   1.527   6.493 -0.0688 -0.3580 -1.0267
  465MOL0     C61287   5.326   1.423   6.396 -0.2777  0.0047 -0.5798
  465MOL0     C61288   5.477   1.423   6.421  1.0199 -0.0799 -0.7361
  465MOL0     C61289   5.551   1.335   6.318  0.1912  0.2888  0.6203
  465MOL0     C61290   5.563   1.197   6.373 -1.2496 -0.4703  0.0780
  465MOL0     C61291   5.600   1.079   6.276  0.5763  0.3149 -0.3891
  465MOL0    Cl61292   5.774   1.081   6.238  0.5345 -0.0877  0.0250
  465MOL0     C61293   4.900   1.662   6.840  0.0057  0.4244  1.2282
  465MOL0     C61294   4.784   1.695   6.905  1.0851  0.6815  0.2856
  465MOL0     O61295   4.554   1.543   7.108  0.3931  0.2216 -0.3202
  465MOL0     C61296   4.270   1.737   7.005  0.5934  0.1643 -0.5914
  465MOL0     C61297   4.146   1.781   7.045 -0.6602 -1.0711  0.5204
  465MOL0     N61298   3.494   1.639   6.911  0.7804  0.1982  0.7627
  465MOL0     N61299   3.370   1.656   6.938  0.0404  0.6333  0.7111
  465MOL0     C61300   4.058   1.892   7.807  0.2661  0.8699  0.7328
  465MOL0     C61301   4.190   1.928   7.821 -0.0688 -0.2497 -0.3625
  465MOL0     C61302   4.562   2.068   7.988  0.1379 -0.5356  0.0276
  465MOL0     C61303   4.646   2.105   7.883  0.7551  0.0815  0.0953
  465MOL0     C61304   4.785   2.107   7.894 -0.7646 -0.3367 -0.6597
  465MOL0     C61305   4.846   2.079   8.021 -0.5389 -0.5253  0.6083
  465MOL0     O61306   4.986   2.086   8.042  0.2731  0.6202 -0.0529
  465MOL0     C61307   5.074   2.107   7.927 -0.2432  0.2654 -0.2887
  465MOL0     C61308   5.225   2.077   7.968  0.1083 -0.6930 -0.0121
  465MOL0     C61309   5.237   1.940   8.031  0.6332  0.1369  1.0990
  465MOL0     C61310   5.383   1.905   8.068 -0.5713 -0.1666  0.1438
  465MOL0     C61311   5.458   2.008   8.140  0.0213 -0.1188  0.3399
  465MOL0     C61312   5.532   2.082   8.193  0.2669 -0.5776 -0.9950
  465MOL0     C61313   4.765   2.030   8.126  0.7070  0.3836  0.2435
  465MOL0     C61314   4.619   2.039   8.115 -0.0601  0.8639  1.4924
  465MOL0     H61315   4.171   2.249   7.708 -0.5229  0.8363  1.2592
  465MOL0     H61316   3.947   2.178   7.662 -2.1808 -1.3576  2.3213
  465MOL0     H61317   3.874   1.905   7.501 -3.1635 -4.0044 -2.7280
  465MOL0     H61318   3.749   2.023   7.546  0.2378 -0.8977 -4.1861
  465MOL0     H61319   3.605   1.865   7.656 -0.3077  2.0587 -0.5724
  465MOL0     H61320   3.705   1.735   7.608  1.3864  1.5799 -0.2560
  465MOL0     H61321   3.656   1.810   7.360  0.1563  1.4969  0.1702
  465MOL0     H61322   3.533   1.924   7.430 -0.8879 -0.0296  2.2008
  465MOL0     H61323   3.536   1.629   7.445 -0.0305  1.0216 -0.3327
  465MOL0     H61324   3.436   1.728   7.541  1.8222  0.1216  1.0269
  465MOL0     H61325   3.468   1.714   7.233  0.5720  0.2345  0.4990
  465MOL0     H61326   3.351   1.831   7.300  1.0149  1.2367  1.0879
  465MOL0     H61327   3.223   1.656   7.418  1.6227  0.7870  1.4518
  465MOL0     H61328   3.321   1.534   7.338 -2.6458 -0.5806  0.1075
  465MOL0     H61329   3.079   1.631   7.224 -0.9059 -1.5639 -4.5428
  465MOL0     H61330   3.200   1.738   7.151 -3.5865  0.1228  0.6747
  465MOL0     H61331   3.130   1.557   7.015 -2.8326 -1.3028  2.0539
  465MOL0     H61332   3.204   1.443   7.135 -1.4341 -0.2348 -0.5344
  465MOL0     H61333   3.455   1.415   7.145 -0.2035 -0.1869  0.8431
  465MOL0     H61334   3.741   1.512   6.912  0.2787 -0.6662 -0.3270
  465MOL0     H61335   3.694   1.401   7.051  1.9677  0.0772  0.9167
  465MOL0     H61336   3.869   1.551   7.134  1.3638  0.8169 -2.4540
  465MOL0     H61337   3.716   1.618   7.203 -0.4436 -3.1597  0.3716
  465MOL0     H61338   3.869   1.716   6.965 -1.2469 -3.4979  0.1810
  465MOL0     H61339   3.707   1.781   7.013 -0.3510 -1.0751 -1.4065
  465MOL0     H61340   3.793   1.879   7.204 -1.5469 -0.7501 -1.4111
  465MOL0     H61341   3.909   1.920   7.078  1.0090 -2.1153 -0.2720
  465MOL0     H61342   4.135   1.658   7.350  1.7678 -0.8599  1.3632
  465MOL0     H61343   4.374   1.581   7.284  0.1108  2.0656 -0.1539
  465MOL0     H61344   4.580   1.474   6.756 -0.7604 -0.0110  2.3480
  465MOL0     H61345   4.791   1.420   6.630 -0.6350  1.4024 -1.3505
  465MOL0     H61346   5.135   1.473   6.819 -1.7561  0.4052 -0.1653
  465MOL0     H61347   5.180   1.636   6.740 -0.4969  0.0851 -0.0381
  465MOL0     H61348   5.241   1.366   6.635  0.6443 -0.3594 -1.7223
  465MOL0     H61349   5.352   1.488   6.692  0.7443 -0.3179  0.2637
  465MOL0     H61350   5.301   1.623   6.483  1.2924 -1.1401 -1.6894
  465MOL0     H61351   5.148   1.546   6.454  0.0482  2.2092 -0.2708
  465MOL0     H61352   5.289   1.322   6.418  0.4116 -0.2515 -0.5786
  465MOL0     H61353   5.297   1.444   6.293  1.0431 -0.2223 -1.0185
  465MOL0     H61354   5.503   1.404   6.525 -0.9084  1.3373  0.0605
  465MOL0     H61355   5.520   1.523   6.410 -0.4867  1.1399  2.9898
  465MOL0     H61356   5.653   1.375   6.316  0.3339 -0.0964  0.3466
  465MOL0     H61357   5.512   1.330   6.216  1.5809 -0.9032  0.1179
  465MOL0     H61358   5.643   1.200   6.447  0.4652  0.7334 -1.7152
  465MOL0     H61359   5.471   1.172   6.427 -1.4500 -0.0756 -0.0766
  465MOL0     H61360   5.557   1.100   6.178 -2.9709  1.1859  1.1949
  465MOL0     H61361   5.567   0.980   6.309 -0.9448 -0.3759 -3.5766
  465MOL0     H61362   4.982   1.726   6.870  0.0965  0.1685  1.5365
  465MOL0     H61363   4.770   1.770   6.983 -0.8481 -0.4330  1.0779
  465MOL0     H61364   4.299   1.767   6.904  1.0098 -2.4252 -1.3130
  465MOL0     H61365   4.088   1.836   6.971 -1.1844 -1.5636  0.5604
  465MOL0     H61366   4.024   1.793   7.836  0.3254  0.5637 -0.1957
  465MOL0     H61367   4.270   1.855   7.835 -0.7579 -1.2273 -1.4012
  465MOL0     H61368   4.606   2.149   7.792  0.5189  1.0390  0.6538
  465MOL0     H61369   4.844   2.136   7.808  2.5197  2.7618  2.3027
  465MOL0     H61370   5.057   2.211   7.899  0.3381  1.3431  2.8902
  465MOL0     H61371   5.048   2.032   7.852 -0.4164 -1.1000  1.0713
  465MOL0     H61372   5.285   2.093   7.878 -0.8324 -5.2080 -1.7292
  465MOL0     H61373   5.246   2.155   8.041 -1.1258 -0.0345 -0.3336
  465MOL0     H61374   5.203   1.864   7.961 -1.6280  2.5792 -0.6168
  465MOL0     H61375   5.179   1.922   8.122  4.6375 -2.6715  3.4563
  465MOL0     H61376   5.398   1.811   8.122 -0.5488 -0.1029  0.2502
  465MOL0     H61377   5.434   1.894   7.972  2.1609  4.7228  0.6586
  465MOL0     H61378   5.588   2.153   8.252 -0.2992 -0.4673 -0.5859
  465MOL0     H61379   4.799   1.995   8.223  1.4797 -0.1479 -0.2068
  465MOL0     H61380   4.560   1.994   8.194  0.5254 -1.6646  0.5757
  466MOL0     O61381   1.525   9.314   5.297  0.7625  0.3248  0.9975
  466MOL0     C61382   1.561   9.259   5.394 -0.5149  0.3259  0.3322
  466MOL0     O61383   1.481   9.176   5.479 -0.1410  0.2560 -0.8120
  466MOL0     C61384   1.350   9.141   5.447 -0.4085  0.1858 -0.0265
  466MOL0     C61385   1.296   9.067   5.548  0.2157  0.3102 -0.3597
  466MOL0     C61386   1.166   9.016   5.537 -0.2207 -0.3184  0.6181
  466MOL0     C61387   1.084   9.053   5.435 -0.4148 -0.0234  0.5820
  466MOL0     O61388   0.962   8.990   5.416  0.5998  0.4510 -0.0379
  466MOL0     C61389   0.912   8.940   5.285  0.5224 -0.4235 -0.5923
  466MOL0     C61390   0.772   8.885   5.288  0.1762 -0.5674 -0.7099
  466MOL0     C61391   0.737   8.807   5.161  1.0972 -0.2770  0.0144
  466MOL0     C61392   0.596   8.736   5.186 -0.2102  0.4476 -0.2461
  466MOL0     C61393   0.542   8.646   5.065 -0.1169 -0.9807 -0.6412
  466MOL0     C61394   0.395   8.611   5.066  0.6535 -0.4265  0.0505
  466MOL0     C61395   0.340   8.552   5.196 -0.0819  0.1801  0.2107
  466MOL0     C61396   0.264   8.653   5.280  0.3695  1.1723 -0.2511
  466MOL0     N61397   0.139   8.702   5.217 -0.2081  0.5379  0.7730
  466MOL0     C61398   0.025   8.627   5.166 -0.0659  0.0390 -0.8921
  466MOL0     C61399  -0.054   8.723   5.129  0.7292  0.4180  0.4931
  466MOL0     C61400  -0.190   8.708   5.071 -0.3349 -0.1953  0.6292
  466MOL0     C61401  -0.274   8.603   5.135 -0.4572 -0.5505 -0.3126
  466MOL0     C61402  -0.417   8.645   5.113 -0.4595  0.2008  0.6942
  466MOL0     C61403  -0.510   8.553   5.187 -0.5142  0.6220  0.1578
  466MOL0     O61404  -0.641   8.604   5.176 -0.1546 -0.1637  0.0869
  466MOL0     C61405  -0.748   8.523   5.194 -0.2537 -0.0288  0.4664
  466MOL0     C61406  -0.867   8.588   5.170 -0.2735 -0.6540  0.3185
  466MOL0     C61407  -0.988   8.532   5.177  0.3940 -0.2889 -0.3767
  466MOL0     C61408  -1.003   8.403   5.230 -0.3886 -0.2246 -0.3600
  466MOL0     C61409  -1.137   8.336   5.242  0.6975  0.3932 -0.6764
  466MOL0     O61410  -1.242   8.416   5.258 -0.0580 -0.6834  0.0385
  466MOL0     C61411  -1.373   8.386   5.261 -0.4069 -0.3690  0.8676
  466MOL0     C61412  -1.460   8.467   5.333 -0.0511  0.2995 -0.0555
  466MOL0     C61413  -1.600   8.449   5.331  0.2609 -0.7832  0.6341
  466MOL0     C61414  -1.664   8.349   5.267 -0.7411 -0.3198  0.5429
  466MOL0     O61415  -1.798   8.338   5.287 -0.0485 -0.4796  0.3542
  466MOL0     C61416  -1.877   8.250   5.207  0.1510  0.3912  0.4378
  466MOL0     C61417  -2.020   8.252   5.271 -0.0140  0.3470  0.1461
  466MOL0     C61418  -2.031   8.155   5.386  0.0054  0.1215 -0.4572
  466MOL0     C61419  -2.158   8.194   5.466  0.3626  0.0435  0.1162
  466MOL0     C61420  -2.175   8.092   5.573  0.2801  0.2465 -0.4362
  466MOL0     C61421  -2.320   8.089   5.617  0.5365 -0.4617 -0.2463
  466MOL0     C61422  -2.345   7.948   5.684  0.4190 -0.6450  0.3155
  466MOL0     C61423  -2.479   7.954   5.763 -0.2969 -0.1061 -0.5098
  466MOL0    Cl61424  -2.452   8.053   5.911 -0.2703 -0.2443 -0.4921
  466MOL0     C61425  -1.585   8.264   5.196 -0.4532  0.1310 -0.4511
  466MOL0     C61426  -1.442   8.270   5.195  0.2552 -0.3521  0.3293
  466MOL0     O61427  -1.150   8.213   5.220 -0.8021 -0.2872 -0.7385
  466MOL0     C61428  -0.890   8.330   5.275  0.2981 -0.1928 -0.1545
  466MOL0     C61429  -0.759   8.393   5.256  0.6293 -0.0030 -0.2337
  466MOL0     N61430  -0.018   8.847   5.167 -0.3268 -0.1774 -0.2221
  466MOL0     N61431   0.097   8.833   5.219 -0.2030  0.3679 -0.5808
  466MOL0     C61432   1.136   9.136   5.328  0.2570  0.7521  0.0226
  466MOL0     C61433   1.272   9.176   5.339  0.7954 -0.6630 -0.0424
  466MOL0     C61434   1.699   9.265   5.433  0.1336  0.1903 -0.2059
  466MOL0     C61435   1.743   9.216   5.556  0.1473 -0.5935 -0.3405
  466MOL0     C61436   1.879   9.225   5.598 -0.1642 -0.0991 -0.2170
  466MOL0     C61437   1.971   9.288   5.518 -0.7522 -0.4110 -0.6031
  466MOL0     O61438   2.098   9.302   5.572  0.6878  0.0385  0.5743
  466MOL0     C61439   2.199   9.356   5.490  0.1094 -0.6417  0.0125
  466MOL0     C61440   2.327   9.376   5.578 -0.1796  0.6525 -0.3667
  466MOL0     C61441   2.383   9.236   5.616  1.2562 -0.1105 -0.3071
  466MOL0     C61442   2.518   9.241   5.674 -0.6268  0.0104 -0.6345
  466MOL0     C61443   2.621   9.273   5.573  0.2168 -0.5195  0.4748
  466MOL0     C61444   2.710   9.280   5.486 -0.0718 -0.1189  1.0158
  466MOL0     C61445   1.930   9.336   5.396  0.1802 -0.3513 -0.1777
  466MOL0     C61446   1.799   9.321   5.349 -0.4933 -1.3755 -0.5443
  466MOL0     H61447   1.358   9.037   5.632 -0.2247 -1.1181 -0.5167
  466MOL0     H61448   1.129   8.942   5.607 -0.1171 -0.9359  0.0307
  466MOL0     H61449   0.980   8.867   5.242 -0.5383 -1.2197 -0.9557
  466MOL0     H61450   0.902   9.028   5.221  0.7405  0.4087  0.4798
  466MOL0     H61451   0.699   8.966   5.299 -1.8940 -2.2429 -1.5583
  466MOL0     H61452   0.758   8.810   5.366 -0.1071 -1.3532 -1.4991
  466MOL0     H61453   0.811   8.728   5.142  3.1752  1.5978 -0.0302
  466MOL0     H61454   0.730   8.876   5.076 -0.7482  3.8429  3.1863
  466MOL0     H61455   0.611   8.667   5.270  3.2410 -0.3939 -1.4041
  466MOL0     H61456   0.526   8.817   5.210 -0.3075  0.5630 -0.8913
  466MOL0     H61457   0.603   8.554   5.059 -1.7910 -2.2123  0.4661
  466MOL0     H61458   0.567   8.699   4.973  0.6841 -1.1808 -0.5488
  466MOL0     H61459   0.391   8.543   4.981  3.7898  1.6133 -1.9476
  466MOL0     H61460   0.329   8.693   5.037  1.8055  0.1879 -0.9036
  466MOL0     H61461   0.296   8.453   5.185 -0.4393  0.0420  2.4270
  466MOL0     H61462   0.424   8.522   5.261  2.4503  0.3445 -2.7480
  466MOL0     H61463   0.331   8.735   5.307  1.9667 -0.4038  0.7577
  466MOL0     H61464   0.231   8.595   5.367 -1.8148 -0.3104 -1.9428
  466MOL0     H61465   0.009   8.526   5.130 -0.7279 -0.8646  1.6898
  466MOL0     H61466  -0.175   8.685   4.966 -1.3148 -0.5441  0.5514
  466MOL0     H61467  -0.246   8.802   5.085  0.1952  0.3091 -0.5349
  466MOL0     H61468  -0.263   8.596   5.243  0.4551 -1.5735 -0.4464
  466MOL0     H61469  -0.259   8.499   5.104 -0.6400 -1.5223  2.6270
  466MOL0     H61470  -0.425   8.742   5.163  0.6209  0.0171  1.2369
  466MOL0     H61471  -0.451   8.654   5.009  1.1811 -0.4030  0.0796
  466MOL0     H61472  -0.484   8.533   5.291 -2.7397  2.4638  1.1470
  466MOL0     H61473  -0.507   8.459   5.131 -0.2872  0.4821  0.3993
  466MOL0     H61474  -0.852   8.690   5.136 -0.9465 -0.5726  0.2580
  466MOL0     H61475  -1.067   8.595   5.140  0.6148  0.5179  0.4888
  466MOL0     H61476  -1.425   8.555   5.387 -0.6288 -1.0233  2.6397
  466MOL0     H61477  -1.653   8.521   5.393  1.3119  0.0484  0.5896
  466MOL0     H61478  -1.843   8.146   5.206 -0.1958  0.2746  0.3454
  466MOL0     H61479  -1.879   8.297   5.109  0.2390 -2.5941 -1.1210
  466MOL0     H61480  -2.076   8.221   5.183  3.8110 -0.5576 -2.2222
  466MOL0     H61481  -2.027   8.359   5.291  2.3879  0.9770 -1.8424
  466MOL0     H61482  -1.939   8.170   5.443 -0.1540  4.3812 -0.9533
  466MOL0     H61483  -2.042   8.054   5.347 -2.3558 -0.0713  0.5355
  466MOL0     H61484  -2.151   8.295   5.509  3.2382 -1.0715  2.6219
  466MOL0     H61485  -2.240   8.179   5.396 -0.9035  0.5982  1.4298
  466MOL0     H61486  -2.107   8.095   5.658 -0.2569 -3.2546  0.2715
  466MOL0     H61487  -2.152   7.996   5.527  0.0468  0.8134 -1.7889
  466MOL0     H61488  -2.400   8.112   5.546 -1.3833 -0.0303  1.9365
  466MOL0     H61489  -2.331   8.160   5.699  0.0292  1.4055 -1.8568
  466MOL0     H61490  -2.342   7.877   5.601  0.7585  0.3200 -0.5220
  466MOL0     H61491  -2.267   7.920   5.755 -0.1978 -0.4050  1.0999
  466MOL0     H61492  -2.507   7.852   5.789 -0.2433 -0.4549 -1.7523
  466MOL0     H61493  -2.558   8.007   5.708  1.1797  1.8228 -0.8867
  466MOL0     H61494  -1.625   8.178   5.144  0.9218 -0.5320 -0.4585
  466MOL0     H61495  -1.390   8.182   5.159 -0.0554 -0.2480 -0.3939
  466MOL0     H61496  -0.902   8.232   5.319  2.4873  0.5377  2.2952
  466MOL0     H61497  -0.670   8.341   5.288 -0.1455 -0.1643  1.8280
  466MOL0     H61498   1.073   9.156   5.242  1.0037  0.4007 -0.6103
  466MOL0     H61499   1.320   9.235   5.261  1.3663  0.5350  1.1778
  466MOL0     H61500   1.660   9.185   5.619 -0.8364  0.1998 -1.2074
  466MOL0     H61501   1.898   9.167   5.688  1.3679 -0.4834 -0.7529
  466MOL0     H61502   2.173   9.452   5.443  1.0895 -1.0338 -1.4152
  466MOL0     H61503   2.225   9.291   5.406 -1.7707 -0.0458 -1.0850
  466MOL0     H61504   2.399   9.431   5.518 -1.0511  2.4055  0.1138
  466MOL0     H61505   2.304   9.431   5.670  1.5572  1.7330 -0.5499
  466MOL0     H61506   2.396   9.187   5.519 -1.0819  2.6065 -2.1441
  466MOL0     H61507   2.315   9.180   5.681  2.0815 -0.9478 -0.1499
  466MOL0     H61508   2.526   9.314   5.755  3.4322  0.0973 -0.9267
  466MOL0     H61509   2.544   9.140   5.709 -1.9671 -0.4657 -0.9606
  466MOL0     H61510   2.788   9.288   5.413 -2.7132  1.2976 -1.8287
  466MOL0     H61511   2.001   9.381   5.327  1.8302 -2.5465 -0.0279
  466MOL0     H61512   1.771   9.356   5.250  0.4454  1.1445 -0.0059
  467MOL0     O61513   9.523   2.269   1.125  0.5796  0.1723  0.0502
  467MOL0     C61514   9.510   2.302   1.239 -0.5585  1.0286  0.6431
  467MOL0     O61515   9.601   2.276   1.334 -0.5107  0.3295 -0.0316
  467MOL0     C61516   9.698   2.185   1.319  0.4021  0.6900  0.3638
  467MOL0     C61517   9.782   2.164   1.433  0.8014 -0.6536  0.8377
  467MOL0     C61518   9.880   2.062   1.436 -0.0673  0.4119 -0.3522
  467MOL0     C61519   9.916   1.988   1.329  0.1593 -0.7176 -0.0464
  467MOL0     O61520  10.016   1.893   1.341 -0.4354  0.5111 -0.0524
  467MOL0     C61521  10.063   1.843   1.219  0.4931 -0.1288  0.5104
  467MOL0     C61522  10.214   1.817   1.212 -0.0610 -0.0546  1.0469
  467MOL0     C61523  10.294   1.948   1.175  0.2327 -0.0025  0.0977
  467MOL0     C61524  10.313   2.020   1.306 -0.3767  0.4044  0.1934
  467MOL0     C61525  10.426   2.128   1.304  0.3464 -0.2394  0.6447
  467MOL0     C61526  10.399   2.230   1.419  0.1645  0.2549  0.2927
  467MOL0     C61527  10.481   2.357   1.382  0.2861  0.0115  0.1807
  467MOL0     C61528  10.639   2.331   1.414 -0.1593 -0.4826  0.0668
  467MOL0     N61529  10.710   2.459   1.431  0.3556  0.0337  0.0179
  467MOL0     C61530  10.679   2.554   1.524 -0.1378 -0.7466  0.0355
  467MOL0     C61531  10.750   2.666   1.494 -0.0494 -0.6228  0.0350
  467MOL0     C61532  10.766   2.805   1.546  1.2108 -0.6795  0.1742
  467MOL0     C61533  10.643   2.888   1.573 -0.0330 -0.2357  0.2217
  467MOL0     C61534  10.671   3.005   1.676  0.1484 -0.6224 -0.3307
  467MOL0     C61535  10.561   3.105   1.695  0.0433  0.6877 -0.5475
  467MOL0     O61536  10.453   3.042   1.764  0.4330  0.7562 -0.3066
  467MOL0     C61537  10.349   3.129   1.789  0.0926  0.2890 -0.3540
  467MOL0     C61538  10.309   3.237   1.710  0.1602  0.9540 -0.0219
  467MOL0     C61539  10.207   3.318   1.759  0.3317 -0.1996 -0.3022
  467MOL0     C61540  10.125   3.293   1.869  0.1706  0.2059 -0.0889
  467MOL0     C61541  10.017   3.391   1.911 -0.0997  0.2969  0.3330
  467MOL0     O61542   9.910   3.342   1.978  0.1297  0.0215  0.2492
  467MOL0     C61543   9.829   3.430   2.045  0.2213  0.1826  0.3908
  467MOL0     C61544   9.882   3.516   2.144 -0.0142  0.4686 -0.0604
  467MOL0     C61545   9.802   3.605   2.209 -0.7523  0.2446 -0.5624
  467MOL0     C61546   9.664   3.602   2.188 -0.6572  1.4875 -0.3622
  467MOL0     O61547   9.592   3.693   2.266 -0.7007  0.3456 -0.3997
  467MOL0     C61548   9.486   3.760   2.196  0.3875 -0.4644  0.3073
  467MOL0     C61549   9.479   3.907   2.229  0.0670 -0.3351  0.7787
  467MOL0     C61550   9.445   3.948   2.374  0.2425  0.4067  0.2108
  467MOL0     C61551   9.467   4.095   2.412  0.5200  0.1534  0.0183
  467MOL0     C61552   9.405   4.120   2.549  0.2220 -0.4003  0.1109
  467MOL0     C61553   9.357   4.261   2.569  0.1324  0.6974  0.6035
  467MOL0     C61554   9.327   4.269   2.720  0.2096 -0.1182  0.9121
  467MOL0     C61555   9.273   4.410   2.729  0.3723 -0.4905 -0.0225
  467MOL0    Cl61556   9.220   4.448   2.890  0.1670 -0.0531  0.1964
  467MOL0     C61557   9.610   3.511   2.097  0.1875  0.1336 -0.4418
  467MOL0     C61558   9.698   3.434   2.015  0.6410 -0.6358 -0.1782
  467MOL0     O61559  10.038   3.509   1.877 -0.1232 -0.3240 -0.7956
  467MOL0     C61560  10.152   3.169   1.929 -0.2220  0.7088 -0.4389
  467MOL0     C61561  10.263   3.088   1.893  0.0699  0.2886 -0.2272
  467MOL0     N61562  10.815   2.635   1.380 -0.5799  0.2201 -0.3972
  467MOL0     N61563  10.783   2.515   1.338 -0.3076  0.7580  1.2083
  467MOL0     C61564   9.825   1.992   1.226 -0.0291  0.3135 -0.2422
  467MOL0     C61565   9.718   2.091   1.214 -0.9930 -0.5396 -0.3422
  467MOL0     C61566   9.378   2.374   1.270  1.1286 -0.4832  0.0794
  467MOL0     C61567   9.283   2.417   1.173  0.3138  0.9709 -0.5424
  467MOL0     C61568   9.178   2.494   1.212 -0.0244 -0.5736 -0.6923
  467MOL0     C61569   9.164   2.526   1.347 -0.3814 -0.2009 -1.0343
  467MOL0     O61570   9.063   2.605   1.392  0.4754  0.3765  0.0454
  467MOL0     C61571   8.979   2.687   1.302  0.7089  0.8666  0.4479
  467MOL0     C61572   8.926   2.800   1.380 -0.5962  0.5891  0.1119
  467MOL0     C61573   8.792   2.838   1.321  1.1448  0.5760 -0.7057
  467MOL0     C61574   8.800   2.896   1.180  0.1430 -1.2941 -0.3694
  467MOL0     C61575   8.685   2.979   1.143  0.1202  0.0815  0.8119
  467MOL0     C61576   8.597   3.060   1.104  0.7894  0.3789 -0.2952
  467MOL0     C61577   9.250   2.484   1.446 -0.6294  0.2421 -0.1180
  467MOL0     C61578   9.360   2.411   1.400 -0.0560 -0.3984  0.2396
  467MOL0     H61579   9.757   2.212   1.527  2.2096  1.6895  0.0967
  467MOL0     H61580   9.939   2.047   1.526  1.0248  1.3291 -0.8978
  467MOL0     H61581  10.033   1.906   1.135  0.4570  0.1112  0.7029
  467MOL0     H61582  10.003   1.755   1.196  0.9415 -0.5146  0.7958
  467MOL0     H61583  10.228   1.743   1.133 -0.7191  0.3700  0.5193
  467MOL0     H61584  10.258   1.776   1.303  1.0167  1.3829  1.2124
  467MOL0     H61585  10.240   2.004   1.098  0.6646  0.7830  0.3553
  467MOL0     H61586  10.389   1.920   1.129 -1.1349 -1.6512 -1.8675
  467MOL0     H61587  10.214   2.059   1.334 -1.1238 -1.5847  0.4910
  467MOL0     H61588  10.346   1.953   1.386  2.7062  0.4609 -0.9259
  467MOL0     H61589  10.425   2.174   1.204 -0.4797 -2.7232 -0.5862
  467MOL0     H61590  10.527   2.088   1.322  0.1752 -0.7728  0.4605
  467MOL0     H61591  10.427   2.207   1.522 -1.8303  3.5249  1.7166
  467MOL0     H61592  10.293   2.256   1.423  0.0897 -0.1606  2.7836
  467MOL0     H61593  10.471   2.395   1.280 -3.2728  0.8263  0.6921
  467MOL0     H61594  10.438   2.432   1.449  3.5174  1.0397  1.2705
  467MOL0     H61595  10.681   2.261   1.341  1.0343  0.4424 -0.1706
  467MOL0     H61596  10.641   2.281   1.511  1.8989 -0.5916  0.0263
  467MOL0     H61597  10.606   2.541   1.603 -1.0645 -1.7109 -0.9343
  467MOL0     H61598  10.833   2.866   1.486  0.7855  0.3191  0.6869
  467MOL0     H61599  10.821   2.791   1.640  1.2753 -0.3890  0.1797
  467MOL0     H61600  10.568   2.820   1.613  1.8783 -1.5366  1.8146
  467MOL0     H61601  10.609   2.929   1.477  0.6920 -1.2389 -0.4872
  467MOL0     H61602  10.691   2.965   1.776  0.4494 -0.2011 -0.2191
  467MOL0     H61603  10.762   3.063   1.655 -0.0835  0.2132  0.8950
  467MOL0     H61604  10.537   3.148   1.597  0.6091  2.0801 -0.0989
  467MOL0     H61605  10.601   3.192   1.748 -1.0076  1.7799 -1.4945
  467MOL0     H61606  10.365   3.258   1.620  2.7925  1.5928  1.6703
  467MOL0     H61607  10.189   3.416   1.716 -1.2647  0.7608  2.3044
  467MOL0     H61608   9.990   3.525   2.154 -0.2064  3.1727  0.2791
  467MOL0     H61609   9.840   3.677   2.281  0.9758 -0.6272 -0.5455
  467MOL0     H61610   9.389   3.720   2.228  0.4915 -0.2990  0.8366
  467MOL0     H61611   9.487   3.746   2.087 -1.0470 -0.2503  0.2442
  467MOL0     H61612   9.396   3.951   2.173  1.0259  1.7722  0.8979
  467MOL0     H61613   9.568   3.958   2.191 -1.6760  2.2863 -0.0872
  467MOL0     H61614   9.500   3.878   2.437 -0.4312 -0.2308  0.1053
  467MOL0     H61615   9.340   3.921   2.384  0.7957 -3.5423 -2.3613
  467MOL0     H61616   9.572   4.125   2.406  0.5624 -0.2015 -1.6422
  467MOL0     H61617   9.411   4.139   2.328 -2.5434 -2.6629  0.4052
  467MOL0     H61618   9.492   4.100   2.613  0.8485 -0.3072 -0.6912
  467MOL0     H61619   9.315   4.060   2.564 -2.0938  2.2520 -1.9894
  467MOL0     H61620   9.269   4.285   2.508  1.8756  3.7703 -0.9584
  467MOL0     H61621   9.441   4.327   2.545 -0.1805  1.3727  1.3348
  467MOL0     H61622   9.247   4.198   2.742  1.8334 -1.6198  2.2359
  467MOL0     H61623   9.411   4.252   2.788 -1.3537 -0.4873  2.8302
  467MOL0     H61624   9.197   4.423   2.651  2.2842 -0.5504 -1.9970
  467MOL0     H61625   9.353   4.485   2.719  0.4434 -0.2739  1.9097
  467MOL0     H61626   9.506   3.496   2.070 -0.5179 -0.5189  2.3820
  467MOL0     H61627   9.652   3.380   1.933 -0.7851 -0.7471  0.6605
  467MOL0     H61628  10.090   3.126   2.007 -0.8685  0.3190 -1.1503
  467MOL0     H61629  10.275   2.992   1.943 -1.0525 -0.8188 -1.9783
  467MOL0     H61630   9.831   1.923   1.142  1.9986  0.4870 -0.2981
  467MOL0     H61631   9.670   2.091   1.117 -0.5558  1.0092 -0.5928
  467MOL0     H61632   9.290   2.396   1.067 -0.5128 -0.0779 -0.4090
  467MOL0     H61633   9.109   2.533   1.138  0.7574 -0.3259 -1.3075
  467MOL0     H61634   8.905   2.625   1.251 -0.0314  2.2923 -0.2731
  467MOL0     H61635   9.035   2.731   1.219 -0.2941  2.4033  0.5474
  467MOL0     H61636   8.926   2.786   1.488  5.3647  4.0183  1.0191
  467MOL0     H61637   8.992   2.888   1.382  0.8423 -0.4091 -1.0548
  467MOL0     H61638   8.738   2.911   1.381  1.3671  0.8481 -0.8343
  467MOL0     H61639   8.737   2.744   1.331 -1.5159  1.9816 -1.0864
  467MOL0     H61640   8.893   2.953   1.176 -1.5476  1.6096 -1.9569
  467MOL0     H61641   8.812   2.818   1.104  3.1427  1.1693 -2.7106
  467MOL0     H61642   8.513   3.122   1.078  0.7887 -0.4177 -2.3644
  467MOL0     H61643   9.231   2.518   1.547 -0.2937  0.4687 -0.1296
  467MOL0     H61644   9.423   2.377   1.482  0.5473 -0.6951 -0.3264
  468MOL0     O61645   0.057   5.522   7.085 -0.6572 -0.6219  0.1759
  468MOL0     C61646   0.047   5.620   7.157 -0.5237 -0.0011 -0.5070
  468MOL0     O61647  -0.035   5.728   7.139 -0.4769 -0.2498 -0.2900
  468MOL0     C61648  -0.095   5.757   7.017  0.0182  0.2824  0.1513
  468MOL0     C61649  -0.047   5.720   6.894 -0.2880  0.4271 -0.4965
  468MOL0     C61650  -0.123   5.728   6.776  0.5873  0.4650  0.0355
  468MOL0     C61651  -0.250   5.785   6.779 -0.1462  0.6013 -0.5717
  468MOL0     O61652  -0.324   5.823   6.678 -0.0913 -0.0723  0.1517
  468MOL0     C61653  -0.333   5.745   6.559  1.3420 -0.9371  0.2129
  468MOL0     C61654  -0.409   5.630   6.584 -0.0175 -0.0379  0.3898
  468MOL0     C61655  -0.545   5.671   6.648  0.1753 -0.1134  0.2065
  468MOL0     C61656  -0.638   5.549   6.630  0.5634  0.1145  0.3745
  468MOL0     C61657  -0.787   5.586   6.616  0.7102  0.5503 -0.1344
  468MOL0     C61658  -0.815   5.660   6.486  0.1114  0.9779  0.2947
  468MOL0     C61659  -0.968   5.698   6.479  0.2128  0.1507 -0.3908
  468MOL0     C61660  -1.004   5.755   6.350  0.5391  0.0403 -0.1287
  468MOL0     N61661  -1.144   5.813   6.346 -0.3033 -0.0042  0.0508
  468MOL0     C61662  -1.225   5.790   6.235 -0.3809 -0.2526 -1.5303
  468MOL0     C61663  -1.311   5.892   6.234  0.6469  0.3200 -0.4245
  468MOL0     C61664  -1.406   5.922   6.118  0.4820  0.0818  0.0089
  468MOL0     C61665  -1.549   5.956   6.162 -0.0038 -0.4588 -0.3081
  468MOL0     C61666  -1.610   5.841   6.231 -0.6488  0.3732  0.3362
  468MOL0     C61667  -1.763   5.856   6.233 -0.4284 -0.5227  0.1547
  468MOL0     O61668  -1.829   5.897   6.111  0.3288  0.2740  0.9740
  468MOL0     C61669  -1.958   5.851   6.083  0.1322  0.2276  0.3623
  468MOL0     C61670  -2.043   5.775   6.163  0.7637 -0.5489 -0.4934
  468MOL0     C61671  -2.173   5.746   6.126  0.1642 -0.2643  0.3961
  468MOL0     C61672  -2.231   5.791   6.005 -0.6446 -0.0847 -0.0883
  468MOL0     C61673  -2.377   5.791   5.980  0.6377  0.3666  0.4159
  468MOL0     O61674  -2.432   5.852   5.869  0.3196  0.3818  0.5548
  468MOL0     C61675  -2.565   5.852   5.844 -0.1652  0.2861  0.2694
  468MOL0     C61676  -2.642   5.913   5.939  0.6878  0.2770  0.3158
  468MOL0     C61677  -2.782   5.933   5.916 -1.0591  0.1896  0.2579
  468MOL0     C61678  -2.844   5.885   5.795  0.4467 -1.0727 -0.5420
  468MOL0     O61679  -2.977   5.914   5.786  1.1939  0.1188  0.1483
  468MOL0     C61680  -3.045   5.897   5.664 -0.8705 -0.1282 -0.4097
  468MOL0     C61681  -3.180   5.960   5.665  0.2444  0.1014 -0.2303
  468MOL0     C61682  -3.192   6.088   5.752  0.1296 -1.2949 -0.2995
  468MOL0     C61683  -3.106   6.198   5.684  0.1323  0.5627 -0.4613
  468MOL0     C61684  -3.125   6.348   5.725 -0.2666 -0.6411  0.5445
  468MOL0     C61685  -3.102   6.368   5.878  0.5781  0.4439  0.7243
  468MOL0     C61686  -2.978   6.305   5.935 -0.3536  1.0249 -0.7286
  468MOL0     C61687  -2.854   6.372   5.876  0.0351 -1.0098  0.3790
  468MOL0    Cl61688  -2.702   6.312   5.957  0.3810  0.5611 -0.0614
  468MOL0     C61689  -2.763   5.805   5.716  0.6321 -0.4849  0.3435
  468MOL0     C61690  -2.626   5.802   5.728 -0.3347 -0.0766  0.0382
  468MOL0     O61691  -2.442   5.722   6.058  0.6362 -0.1833  1.0723
  468MOL0     C61692  -2.145   5.858   5.919 -0.0096  0.0852  0.1188
  468MOL0     C61693  -2.016   5.890   5.960  0.1940 -0.1432  0.4750
  468MOL0     N61694  -1.301   5.959   6.357 -0.4153 -0.4622 -0.3530
  468MOL0     N61695  -1.202   5.910   6.416 -0.6123  0.0648 -0.5727
  468MOL0     C61696  -0.297   5.839   6.900 -0.9560 -0.5371 -0.4979
  468MOL0     C61697  -0.219   5.825   7.019 -0.5375 -0.5878  0.1215
  468MOL0     C61698   0.136   5.618   7.270  0.4809  0.0609 -0.8534
  468MOL0     C61699   0.234   5.522   7.301  0.2035 -0.1946  0.2910
  468MOL0     C61700   0.311   5.530   7.409 -0.0087  0.1086 -0.1742
  468MOL0     C61701   0.316   5.646   7.484 -0.2536  0.5668 -0.0065
  468MOL0     O61702   0.416   5.651   7.578 -0.6641  0.2990  0.0688
  468MOL0     C61703   0.442   5.773   7.650  0.6098  0.7037  0.1409
  468MOL0     C61704   0.575   5.747   7.715 -0.3440 -0.2823  1.0846
  468MOL0     C61705   0.619   5.879   7.777 -0.0476  0.6328  0.4681
  468MOL0     C61706   0.745   5.854   7.866  0.3740 -0.3917  0.7575
  468MOL0     C61707   0.803   5.987   7.891  0.4840  0.1135 -1.3579
  468MOL0     C61708   0.834   6.101   7.904  0.1561  0.4053 -0.0736
  468MOL0     C61709   0.239   5.752   7.453  0.0075 -0.3821  0.5175
  468MOL0     C61710   0.148   5.738   7.342  0.4817  0.4824 -0.0724
  468MOL0     H61711   0.050   5.672   6.888 -0.2327  0.6251 -1.2347
  468MOL0     H61712  -0.082   5.695   6.682 -0.1613 -0.8854  0.1605
  468MOL0     H61713  -0.237   5.725   6.510  0.9504  0.9127 -1.4188
  468MOL0     H61714  -0.389   5.802   6.485  0.4662 -1.1429  0.6912
  468MOL0     H61715  -0.347   5.567   6.649 -0.8701 -0.0329  1.2448
  468MOL0     H61716  -0.421   5.570   6.493  1.7672 -4.1107  2.5535
  468MOL0     H61717  -0.583   5.765   6.607 -0.2745 -1.0923 -1.7661
  468MOL0     H61718  -0.538   5.684   6.756 -0.7520  0.8750  0.1692
  468MOL0     H61719  -0.610   5.491   6.542  0.5190 -0.9958  1.0663
  468MOL0     H61720  -0.625   5.480   6.714  2.0934 -1.6113 -1.1975
  468MOL0     H61721  -0.830   5.651   6.693 -0.1671  1.4266 -1.3432
  468MOL0     H61722  -0.847   5.496   6.630  2.1641 -0.2929  1.0410
  468MOL0     H61723  -0.786   5.591   6.406  0.6015  0.1163  1.2058
  468MOL0     H61724  -0.755   5.751   6.475  0.6394  0.4490 -1.7062
  468MOL0     H61725  -1.038   5.616   6.493 -1.3773  1.0398 -2.4708
  468MOL0     H61726  -0.979   5.770   6.561 -0.7701 -1.0924  0.6108
  468MOL0     H61727  -1.002   5.680   6.271 -2.5515 -0.2990  0.0181
  468MOL0     H61728  -0.929   5.833   6.330  1.5918 -0.7967  0.4166
  468MOL0     H61729  -1.228   5.705   6.167 -0.0139 -1.4413 -0.1137
  468MOL0     H61730  -1.416   5.824   6.071  0.7429 -0.2440  0.6295
  468MOL0     H61731  -1.373   6.007   6.057 -1.3841  0.3058 -0.7586
  468MOL0     H61732  -1.605   5.978   6.071 -0.2338  0.6914  0.0877
  468MOL0     H61733  -1.543   6.037   6.236  0.3325  0.1954 -1.0419
  468MOL0     H61734  -1.582   5.748   6.181  4.2696 -0.9927  4.7356
  468MOL0     H61735  -1.571   5.819   6.331 -0.6728 -1.2666  0.0025
  468MOL0     H61736  -1.769   5.938   6.305 -1.3868 -0.8105  0.4218
  468MOL0     H61737  -1.810   5.769   6.281  0.1600 -0.3558  1.0435
  468MOL0     H61738  -2.015   5.727   6.257 -4.1849 -0.5804  1.2925
  468MOL0     H61739  -2.237   5.679   6.183 -0.9478 -2.8483 -3.4461
  468MOL0     H61740  -2.596   5.969   6.020  0.3554  0.3516  0.4549
  468MOL0     H61741  -2.830   6.002   5.984 -1.3359  0.2230  0.0317
  468MOL0     H61742  -3.056   5.790   5.641 -0.4891 -0.0623 -0.9115
  468MOL0     H61743  -2.994   5.951   5.584 -2.5236  1.2705 -0.5885
  468MOL0     H61744  -3.252   5.893   5.713  0.0826 -1.3559 -2.3626
  468MOL0     H61745  -3.216   5.986   5.565  0.9468  1.0260 -0.2483
  468MOL0     H61746  -3.160   6.069   5.855  1.0246 -1.9476 -0.6916
  468MOL0     H61747  -3.292   6.131   5.746  0.7906  0.3095 -0.2227
  468MOL0     H61748  -3.003   6.164   5.700  0.4579  1.0049 -1.5209
  468MOL0     H61749  -3.119   6.189   5.576  5.7751 -1.5131 -1.3577
  468MOL0     H61750  -3.226   6.381   5.701 -0.0117 -0.4072 -0.2466
  468MOL0     H61751  -3.047   6.408   5.677 -1.5398  1.8681  1.4239
  468MOL0     H61752  -3.181   6.306   5.923 -0.2160 -1.4344 -2.8447
  468MOL0     H61753  -3.109   6.473   5.905 -0.3434  1.3628 -2.5681
  468MOL0     H61754  -2.988   6.304   6.044  1.8657 -0.2756 -0.4955
  468MOL0     H61755  -2.988   6.200   5.909 -2.7375  0.7263  1.0391
  468MOL0     H61756  -2.855   6.480   5.890  2.1771 -0.9778  0.5583
  468MOL0     H61757  -2.850   6.364   5.767 -0.0173  0.3945  0.2634
  468MOL0     H61758  -2.801   5.741   5.638 -1.2276 -0.9952  1.5792
  468MOL0     H61759  -2.570   5.751   5.650  0.4288  3.3615 -1.8642
  468MOL0     H61760  -2.188   5.898   5.827 -0.8172  1.6582  1.1373
  468MOL0     H61761  -1.960   5.951   5.890 -0.9588  0.3196 -0.0619
  468MOL0     H61762  -0.388   5.898   6.896 -0.9581 -0.3252  1.5551
  468MOL0     H61763  -0.262   5.864   7.110 -1.0999  0.3987 -0.5520
  468MOL0     H61764   0.240   5.426   7.251 -0.9202 -0.1788  0.0820
  468MOL0     H61765   0.372   5.445   7.438 -1.9220 -1.2877  0.0264
  468MOL0     H61766   0.354   5.799   7.710  1.0886  0.8382  0.8019
  468MOL0     H61767   0.454   5.850   7.575  0.0502 -1.2607 -2.0807
  468MOL0     H61768   0.550   5.676   7.794 -3.2475  0.1177  0.6090
  468MOL0     H61769   0.640   5.698   7.641 -0.4716  0.2475  0.6175
  468MOL0     H61770   0.543   5.925   7.839  1.4371  4.2490 -0.1450
  468MOL0     H61771   0.631   5.963   7.708 -0.1841  1.3982  1.3756
  468MOL0     H61772   0.715   5.801   7.957 -0.3814  0.0513  0.7742
  468MOL0     H61773   0.824   5.801   7.812  1.4123  0.1949  1.6566
  468MOL0     H61774   0.854   6.206   7.903  2.0650  0.0915  0.7533
  468MOL0     H61775   0.255   5.849   7.498 -0.1059  0.5753 -1.4463
  468MOL0     H61776   0.087   5.826   7.324 -0.9437 -0.3224  0.6288
  469MOL0     O61777   4.867  10.472   9.268 -0.1349 -0.4645  0.3638
  469MOL0     C61778   4.936  10.537   9.183  0.2873  0.4988  0.0555
  469MOL0     O61779   4.891  10.617   9.089  0.7636 -0.1737  0.3077
  469MOL0     C61780   4.761  10.607   9.050 -0.3649 -0.8606  0.2675
  469MOL0     C61781   4.660  10.666   9.134 -0.1060  0.3087  1.2087
  469MOL0     C61782   4.526  10.664   9.094 -0.3770 -0.7438 -0.8955
  469MOL0     C61783   4.491  10.610   8.976  0.4514  0.6872  0.4505
  469MOL0     O61784   4.369  10.623   8.923 -0.2419 -0.0696 -0.1909
  469MOL0     C61785   4.285  10.736   8.966 -0.5466 -0.3355 -0.3499
  469MOL0     C61786   4.160  10.762   8.889 -0.2942 -0.2346 -0.1592
  469MOL0     C61787   4.070  10.639   8.887  0.2493  0.6252  0.6933
  469MOL0     C61788   3.984  10.617   9.019 -0.4635 -0.0832 -0.1817
  469MOL0     C61789   3.858  10.526   9.008 -0.2258  0.1876  0.0536
  469MOL0     C61790   3.745  10.570   8.911  0.4992 -0.6436 -0.7125
  469MOL0     C61791   3.664  10.702   8.944 -0.1622  0.0916  0.0610
  469MOL0     C61792   3.547  10.702   8.846 -0.6719  0.0689 -0.2576
  469MOL0     N61793   3.450  10.595   8.882  0.5953  0.3509  0.1591
  469MOL0     C61794   3.347  10.607   8.973  0.2685 -0.6855 -0.6091
  469MOL0     C61795   3.290  10.487   8.968 -0.8664 -0.7071  0.4449
  469MOL0     C61796   3.162  10.455   9.043 -0.0290 -0.6214  0.7288
  469MOL0     C61797   3.044  10.508   8.964 -0.2718 -0.0958  0.6739
  469MOL0     C61798   3.046  10.472   8.810 -0.5020  0.2003  0.0044
  469MOL0     C61799   2.916  10.537   8.747 -0.3415  0.1052 -0.3505
  469MOL0     O61800   2.923  10.674   8.779 -0.4375 -0.1903 -0.2397
  469MOL0     C61801   2.818  10.754   8.738 -0.4373 -0.0217 -0.0374
  469MOL0     C61802   2.733  10.730   8.623  0.8810 -0.3899  0.1346
  469MOL0     C61803   2.637  10.829   8.596 -0.0762 -0.5545 -0.3470
  469MOL0     C61804   2.631  10.951   8.669  0.2492 -0.8525 -0.1778
  469MOL0     C61805   2.543  11.057   8.625 -0.0158  0.3586 -0.3428
  469MOL0     O61806   2.579  11.178   8.662  0.7413 -0.7430 -0.1005
  469MOL0     C61807   2.507  11.290   8.612  0.0117  1.4844  1.2249
  469MOL0     C61808   2.548  11.347   8.495  0.0634  0.7903  1.5730
  469MOL0     C61809   2.482  11.446   8.421  0.0701  0.4584 -0.8929
  469MOL0     C61810   2.369  11.497   8.493  0.1088 -0.5804 -0.1295
  469MOL0     O61811   2.289  11.595   8.439  0.1648 -0.2372 -1.4589
  469MOL0     C61812   2.345  11.674   8.331  0.3263  0.3572  0.0125
  469MOL0     C61813   2.264  11.803   8.302 -0.6507 -0.4825 -0.0397
  469MOL0     C61814   2.108  11.784   8.303 -0.6505  0.1862  1.3761
  469MOL0     C61815   2.038  11.904   8.246  0.5883 -0.5980  1.0310
  469MOL0     C61816   1.885  11.870   8.254  0.3179  0.6521  1.5206
  469MOL0     C61817   1.805  11.969   8.167  0.8788 -0.2467 -0.3278
  469MOL0     C61818   1.657  11.953   8.155  0.3811 -0.9351 -0.6909
  469MOL0     C61819   1.597  12.077   8.080  0.4349  1.1371  0.5503
  469MOL0    Cl61820   1.422  12.103   8.129  0.1445 -0.2306 -0.5537
  469MOL0     C61821   2.332  11.443   8.620 -0.2820 -0.3910  0.2187
  469MOL0     C61822   2.404  11.343   8.683 -0.5398  0.3408 -0.6066
  469MOL0     O61823   2.441  11.026   8.562 -0.6914  0.2297  0.9171
  469MOL0     C61824   2.718  10.967   8.776 -0.2042 -0.6226 -0.3809
  469MOL0     C61825   2.810  10.874   8.817 -0.5472 -0.2739  1.2278
  469MOL0     N61826   3.353  10.405   8.878 -0.7060  0.0988 -0.2485
  469MOL0     N61827   3.448  10.472   8.827 -0.2608 -0.1100 -0.2381
  469MOL0     C61828   4.582  10.548   8.888  0.2149 -0.3559  0.1419
  469MOL0     C61829   4.719  10.549   8.928 -1.0928 -0.9029 -0.2615
  469MOL0     C61830   5.082  10.504   9.170  0.9067 -0.4073  0.3058
  469MOL0     C61831   5.147  10.527   9.047 -0.2466  1.0836 -0.9737
  469MOL0     C61832   5.286  10.521   9.048  0.0104  1.2426  0.0421
  469MOL0     C61833   5.360  10.470   9.154 -0.1700  0.2240  0.0870
  469MOL0     O61834   5.493  10.477   9.158  0.5443  0.4594  0.2069
  469MOL0     C61835   5.569  10.548   9.060  0.0407  0.6340 -0.2503
  469MOL0     C61836   5.708  10.562   9.108 -0.2245 -0.3146 -0.5380
  469MOL0     C61837   5.793  10.619   8.991  0.0942 -0.2998 -0.3111
  469MOL0     C61838   5.927  10.685   9.025 -0.6312 -0.3139  0.2109
  469MOL0     C61839   6.016  10.583   9.095 -0.3885 -0.8729 -0.1142
  469MOL0     C61840   6.086  10.498   9.156 -1.0944 -0.3595  0.0614
  469MOL0     C61841   5.289  10.436   9.280 -1.1406 -0.8173  0.2908
  469MOL0     C61842   5.152  10.461   9.283 -0.7155 -0.1102 -0.3506
  469MOL0     H61843   4.699  10.743   9.200  2.2634 -1.0274  1.4865
  469MOL0     H61844   4.470  10.735   9.154  1.3806  0.9755 -1.1768
  469MOL0     H61845   4.353  10.819   8.946 -1.5139  0.2120 -1.5245
  469MOL0     H61846   4.257  10.727   9.071  0.6248 -1.1989 -0.0888
  469MOL0     H61847   4.189  10.778   8.785 -1.6094  0.3963 -0.4503
  469MOL0     H61848   4.108  10.851   8.924 -0.5132  0.4982 -2.1980
  469MOL0     H61849   4.129  10.548   8.873  0.4393  0.7470  0.7017
  469MOL0     H61850   3.988  10.649   8.815 -1.6201  1.6414  2.8272
  469MOL0     H61851   4.049  10.572   9.095  0.5906  2.1292  0.3154
  469MOL0     H61852   3.949  10.714   9.055  1.5139  0.5660  0.0683
  469MOL0     H61853   3.810  10.533   9.107 -1.8619  0.6390 -0.7410
  469MOL0     H61854   3.872  10.421   8.982 -2.5018 -0.3928  0.9231
  469MOL0     H61855   3.672  10.491   8.899 -0.6951  0.8767 -5.2517
  469MOL0     H61856   3.781  10.583   8.809 -2.3957 -0.6006 -1.8074
  469MOL0     H61857   3.633  10.710   9.048  1.7580  1.6905  0.5785
  469MOL0     H61858   3.724  10.793   8.931  0.3245  0.0087  1.5235
  469MOL0     H61859   3.590  10.693   8.746 -1.1633  3.6481 -0.9227
  469MOL0     H61860   3.500  10.800   8.834  0.9149  0.7258 -1.3357
  469MOL0     H61861   3.312  10.698   9.020  2.8288  1.0657 -1.8833
  469MOL0     H61862   3.169  10.494   9.145  2.3245 -1.2111  0.8476
  469MOL0     H61863   3.149  10.346   9.048 -0.1607 -0.6301  0.2081
  469MOL0     H61864   3.061  10.616   8.964 -1.8823  0.2087 -1.2449
  469MOL0     H61865   2.955  10.485   9.024  1.2716 -1.7443  2.4831
  469MOL0     H61866   3.131  10.517   8.758 -0.4860 -1.1610 -1.2305
  469MOL0     H61867   3.045  10.364   8.794 -0.1374  0.6519 -4.2218
  469MOL0     H61868   2.827  10.497   8.796 -1.9857  2.8126 -0.9110
  469MOL0     H61869   2.914  10.518   8.639 -0.5797 -1.7476 -0.0492
  469MOL0     H61870   2.726  10.638   8.566  1.8888 -0.5554  0.2629
  469MOL0     H61871   2.556  10.817   8.524 -0.7891 -1.8898  0.6527
  469MOL0     H61872   2.633  11.294   8.453  2.3432  3.5114  2.4881
  469MOL0     H61873   2.511  11.463   8.318  0.3740  0.0822 -0.8701
  469MOL0     H61874   2.355  11.624   8.234 -1.3003  0.9123 -0.4743
  469MOL0     H61875   2.447  11.709   8.348  0.9070 -1.0297 -0.4481
  469MOL0     H61876   2.306  11.849   8.213  1.7419  0.7032  1.5789
  469MOL0     H61877   2.292  11.868   8.386 -1.9298 -0.9679  0.8014
  469MOL0     H61878   2.068  11.767   8.403 -1.0488  3.4418  1.8901
  469MOL0     H61879   2.087  11.697   8.240  2.5653  0.7564 -0.7530
  469MOL0     H61880   2.057  11.999   8.296 -1.1868  1.8785 -2.5083
  469MOL0     H61881   2.066  11.905   8.140  0.7160 -3.6348  0.9499
  469MOL0     H61882   1.854  11.878   8.359  0.4166  0.9858  1.5274
  469MOL0     H61883   1.859  11.770   8.221  0.8841  0.5140  1.4776
  469MOL0     H61884   1.859  11.963   8.072  1.1584  0.6947 -0.2440
  469MOL0     H61885   1.811  12.066   8.218  1.1372  0.7220 -2.1055
  469MOL0     H61886   1.614  11.871   8.096  1.4141 -0.2950 -2.4099
  469MOL0     H61887   1.616  11.962   8.256  2.3344  0.8217  0.0079
  469MOL0     H61888   1.606  12.056   7.973  0.9861 -1.8522  1.0880
  469MOL0     H61889   1.651  12.171   8.096  0.6501  1.4144 -1.5486
  469MOL0     H61890   2.243  11.471   8.676 -0.8636 -1.9903  0.1419
  469MOL0     H61891   2.370  11.302   8.777  0.4173 -1.4903 -1.0106
  469MOL0     H61892   2.719  11.055   8.840 -0.3120 -0.9126  0.0138
  469MOL0     H61893   2.880  10.884   8.899  0.1625  2.1801  0.4193
  469MOL0     H61894   4.536  10.505   8.800 -1.4318 -0.6810  1.1166
  469MOL0     H61895   4.785  10.487   8.869 -0.8517 -1.3406  0.4656
  469MOL0     H61896   5.093  10.566   8.962 -1.0232  2.1814 -0.0091
  469MOL0     H61897   5.326  10.554   8.952  1.3880 -1.7854 -0.5582
  469MOL0     H61898   5.522  10.641   9.027 -0.6294 -0.1300 -1.5776
  469MOL0     H61899   5.564  10.483   8.972 -1.3648 -0.2295  0.4350
  469MOL0     H61900   5.712  10.622   9.199  0.5349 -0.7188 -0.2910
  469MOL0     H61901   5.748  10.462   9.131  3.0051  1.1535  0.8448
  469MOL0     H61902   5.736  10.689   8.930  0.0329 -1.5527 -1.7477
  469MOL0     H61903   5.829  10.533   8.934  2.7400 -0.1318  0.9287
  469MOL0     H61904   5.979  10.709   8.932 -1.7691 -1.6350 -0.8152
  469MOL0     H61905   5.911  10.771   9.091 -2.1960 -1.8292  1.9577
  469MOL0     H61906   6.133  10.425   9.218 -1.3189 -1.1252 -0.6565
  469MOL0     H61907   5.356  10.398   9.356  2.0609 -0.8828 -2.3159
  469MOL0     H61908   5.104  10.440   9.378  0.0797 -3.7710 -0.6216
  470MOL0     O61909  11.043   6.724   6.474  0.0855 -0.5993  0.0151
  470MOL0     C61910  11.017   6.765   6.358  0.3734  0.4013 -0.1085
  470MOL0     O61911  11.062   6.881   6.310  0.1549  0.0566 -0.0669
  470MOL0     C61912  11.136   6.959   6.394 -0.6198  0.8532 -0.3848
  470MOL0     C61913  11.086   7.027   6.499 -0.0921 -0.1962 -0.0032
  470MOL0     C61914  11.167   7.120   6.570 -0.0378  0.4869  0.2739
  470MOL0     C61915  11.301   7.143   6.531  0.3433 -0.1518 -0.1457
  470MOL0     O61916  11.379   7.247   6.578  0.4023 -0.1850  0.0450
  470MOL0     C61917  11.324   7.326   6.681 -1.5031 -1.1193 -0.2243
  470MOL0     C61918  11.423   7.445   6.701  0.5788  0.2198 -0.0731
  470MOL0     C61919  11.561   7.388   6.738  0.7403 -1.0740  0.7711
  470MOL0     C61920  11.665   7.500   6.758  0.2293 -1.1775  0.2724
  470MOL0     C61921  11.800   7.434   6.790  0.5848 -0.8574  0.4362
  470MOL0     C61922  11.920   7.532   6.781 -0.9459  0.2471 -0.6488
  470MOL0     C61923  11.914   7.667   6.866  0.1533  0.9547  1.7540
  470MOL0     C61924  12.044   7.740   6.821  1.3735 -0.3308 -0.0338
  470MOL0     N61925  12.051   7.868   6.895  0.6052 -0.9610  0.0949
  470MOL0     C61926  12.063   7.860   7.028 -0.1226 -0.2528  0.0345
  470MOL0     C61927  12.065   7.988   7.070  0.1778  0.4175 -0.5988
  470MOL0     C61928  12.064   8.036   7.217  0.0639 -0.3826  0.0072
  470MOL0     C61929  11.935   8.006   7.292 -0.1946 -0.2230  0.4334
  470MOL0     C61930  11.830   8.111   7.245  0.2815  0.1873 -0.2509
  470MOL0     C61931  11.695   8.083   7.328  0.5050  0.0289 -0.0407
  470MOL0     O61932  11.634   7.954   7.294 -0.3203  0.0340  0.6131
  470MOL0     C61933  11.500   7.949   7.283  0.2924  0.9216 -0.1908
  470MOL0     C61934  11.414   8.004   7.381 -0.3380 -0.0856  0.2178
  470MOL0     C61935  11.281   7.974   7.373  0.3580 -0.1899  0.1573
  470MOL0     C61936  11.217   7.906   7.261 -0.2061 -0.2059 -0.2690
  470MOL0     C61937  11.076   7.884   7.253  0.4712  0.2895 -0.2212
  470MOL0     O61938  11.000   7.926   7.362  0.3924  0.4933  0.3048
  470MOL0     C61939  10.862   7.915   7.351  0.0930  0.5231 -0.4225
  470MOL0     C61940  10.783   7.965   7.250  0.3170  0.6002  0.7928
  470MOL0     C61941  10.645   7.947   7.259 -0.1099 -0.8188 -0.4805
  470MOL0     C61942  10.587   7.890   7.377 -0.1413  1.0177 -0.3262
  470MOL0     O61943  10.450   7.863   7.399  0.2837  0.6699  0.3287
  470MOL0     C61944  10.353   7.886   7.293 -0.9589  0.5724  0.8857
  470MOL0     C61945  10.221   7.928   7.343 -0.1865 -0.0809  0.0774
  470MOL0     C61946  10.111   7.891   7.246 -0.6521 -0.2514  0.3266
  470MOL0     C61947   9.972   7.898   7.306 -0.0277  0.2975  0.1240
  470MOL0     C61948   9.853   7.892   7.211 -0.1124 -0.3670 -0.1040
  470MOL0     C61949   9.716   7.899   7.280 -0.1003 -0.2495  0.7986
  470MOL0     C61950   9.597   7.873   7.190 -0.4793 -0.0331 -0.1377
  470MOL0     C61951   9.569   7.985   7.091 -0.7158  0.5778  0.2380
  470MOL0    Cl61952   9.560   8.156   7.159  0.0351  0.2863 -0.2307
  470MOL0     C61953  10.668   7.849   7.480 -0.7038  0.1503 -0.0709
  470MOL0     C61954  10.807   7.857   7.462  0.6035  0.0614  0.1929
  470MOL0     O61955  11.037   7.825   7.159 -0.3044 -0.2902 -0.5992
  470MOL0     C61956  11.315   7.852   7.168  0.0986 -0.1576 -0.0305
  470MOL0     C61957  11.451   7.885   7.171 -0.2227 -0.1307  0.9397
  470MOL0     N61958  12.058   8.072   6.959 -0.2447 -0.6274  0.2010
  470MOL0     N61959  12.066   7.997   6.850 -0.6285  0.2120 -0.2952
  470MOL0     C61960  11.349   7.070   6.428  0.3221 -0.2708 -0.4533
  470MOL0     C61961  11.269   6.976   6.360  0.2583 -0.6478 -0.2881
  470MOL0     C61962  10.943   6.681   6.254 -0.2316 -0.3352  0.7794
  470MOL0     C61963  10.947   6.716   6.120 -0.9899 -0.2135  0.0940
  470MOL0     C61964  10.884   6.633   6.030  0.6121 -1.1840  0.4072
  470MOL0     C61965  10.802   6.528   6.070  0.5205  0.0452 -0.5597
  470MOL0     O61966  10.735   6.468   5.969  0.1820 -1.1503  0.7727
  470MOL0     C61967  10.715   6.326   5.993  0.0865 -0.8279  0.0940
  470MOL0     C61968  10.679   6.248   5.861  0.0539 -0.3679 -0.5578
  470MOL0     C61969  10.604   6.325   5.757  0.0238  0.1590 -0.6144
  470MOL0     C61970  10.574   6.242   5.632  0.0112 -0.4983  0.0390
  470MOL0     C61971  10.517   6.319   5.524 -0.0406 -0.0327  0.5742
  470MOL0     C61972  10.483   6.381   5.431 -0.1275 -0.5215 -0.0772
  470MOL0     C61973  10.796   6.492   6.209  0.3085  0.0147 -0.7554
  470MOL0     C61974  10.878   6.566   6.295  0.1862 -0.5685  0.1160
  470MOL0     H61975  10.983   7.012   6.529 -0.2364  2.0264  0.8060
  470MOL0     H61976  11.126   7.163   6.660 -1.1692 -0.4349  0.2273
  470MOL0     H61977  11.294   7.281   6.776  0.2028  0.7739  1.2994
  470MOL0     H61978  11.229   7.372   6.651 -2.5940 -0.9362  3.1492
  470MOL0     H61979  11.381   7.495   6.788 -3.3352 -3.4819  0.5061
  470MOL0     H61980  11.421   7.507   6.611 -1.7243 -2.5849 -2.1570
  470MOL0     H61981  11.593   7.314   6.664  0.3910 -0.2458 -0.2283
  470MOL0     H61982  11.547   7.330   6.830 -1.7981 -0.7282  0.6858
  470MOL0     H61983  11.664   7.572   6.676 -0.0007 -1.4558  0.0255
  470MOL0     H61984  11.622   7.556   6.841 -1.3751 -2.0865  0.0787
  470MOL0     H61985  11.817   7.362   6.710 -0.1989 -1.2439  0.6152
  470MOL0     H61986  11.798   7.383   6.887 -0.5360 -1.1369  0.2725
  470MOL0     H61987  11.928   7.556   6.675  0.7594 -0.8801 -0.8201
  470MOL0     H61988  12.017   7.493   6.812 -0.6136  1.8867  0.5193
  470MOL0     H61989  11.829   7.730   6.840  0.7839  1.0132 -0.4159
  470MOL0     H61990  11.922   7.653   6.974  3.9717  2.1810  1.7726
  470MOL0     H61991  12.046   7.756   6.713  0.7342  0.7288  0.0916
  470MOL0     H61992  12.128   7.673   6.839 -1.3944 -4.1263  0.0694
  470MOL0     H61993  12.049   7.773   7.092  0.3115 -0.3307  0.0265
  470MOL0     H61994  12.077   8.143   7.236  0.3663 -0.0692 -1.7758
  470MOL0     H61995  12.144   7.981   7.268  0.4508  1.0789  1.0444
  470MOL0     H61996  11.950   8.020   7.400 -1.6205 -3.1908  1.1172
  470MOL0     H61997  11.905   7.901   7.292  1.2245 -0.6937 -1.7391
  470MOL0     H61998  11.869   8.211   7.263  3.0094 -0.7516 -0.3472
  470MOL0     H61999  11.804   8.090   7.141 -1.2183  0.4892  0.0461
  470MOL0     H62000  11.637   8.171   7.298 -0.1152 -0.7849 -1.3115
  470MOL0     H62001  11.708   8.107   7.434 -0.0348  2.4717 -0.4667
  470MOL0     H62002  11.450   8.072   7.458 -1.0969  2.7650 -1.8033
  470MOL0     H62003  11.212   8.018   7.445  1.7110  2.2049  0.0898
  470MOL0     H62004  10.833   8.003   7.161  1.4665 -1.1759  0.6272
  470MOL0     H62005  10.596   7.987   7.172 -0.8638 -0.8558 -0.0809
  470MOL0     H62006  10.350   7.798   7.228 -1.2344  1.4993 -0.4064
  470MOL0     H62007  10.392   7.964   7.226 -1.0387  0.6806  0.9643
  470MOL0     H62008  10.219   8.038   7.349  0.1946 -0.1378  2.8863
  470MOL0     H62009  10.202   7.872   7.435 -1.0255  1.5240  0.9322
  470MOL0     H62010  10.125   7.790   7.207  1.2166  0.7669 -1.8409
  470MOL0     H62011  10.102   7.965   7.166 -0.2891 -1.3201 -0.7295
  470MOL0     H62012   9.966   7.813   7.375  0.4808 -1.3636 -1.8017
  470MOL0     H62013   9.967   7.994   7.359  0.4965 -1.5980  3.9947
  470MOL0     H62014   9.855   7.796   7.158  2.1824 -0.8422  0.7215
  470MOL0     H62015   9.860   7.973   7.139  0.3414  0.6188  1.0158
  470MOL0     H62016   9.708   7.996   7.328  1.3202  0.7325 -0.8438
  470MOL0     H62017   9.708   7.828   7.363 -3.2292 -0.7003  0.2391
  470MOL0     H62018   9.606   7.776   7.139 -0.4362  0.0404 -0.2730
  470MOL0     H62019   9.515   7.851   7.258  0.0024 -1.3726  0.0450
  470MOL0     H62020   9.480   7.962   7.032  0.3305 -1.8850 -0.4945
  470MOL0     H62021   9.647   7.991   7.014  0.2134 -0.2847  1.0683
  470MOL0     H62022  10.636   7.802   7.572  1.7851  1.2282  1.4569
  470MOL0     H62023  10.859   7.819   7.549  0.3655  0.2102  0.4000
  470MOL0     H62024  11.279   7.785   7.090 -2.3519  1.4497 -0.4153
  470MOL0     H62025  11.520   7.857   7.093 -1.0000 -0.8605  0.4995
  470MOL0     H62026  11.456   7.087   6.421  0.5300 -1.3644 -0.1846
  470MOL0     H62027  11.310   6.916   6.279 -1.4029 -2.6572  0.2678
  470MOL0     H62028  11.005   6.803   6.094 -1.4491  0.3194  0.7991
  470MOL0     H62029  10.877   6.662   5.925  0.0512 -1.5618  0.3345
  470MOL0     H62030  10.640   6.308   6.071 -0.4717 -0.4410 -0.3424
  470MOL0     H62031  10.805   6.280   6.033 -0.0348 -0.8497  0.3449
  470MOL0     H62032  10.772   6.214   5.814 -0.0421  1.0158 -1.8248
  470MOL0     H62033  10.633   6.153   5.889  1.4436 -0.7819  0.4823
  470MOL0     H62034  10.665   6.412   5.732 -3.6939  3.2333  0.0943
  470MOL0     H62035  10.510   6.356   5.803 -0.4921  0.7219 -1.9822
  470MOL0     H62036  10.670   6.197   5.605  1.7382  1.6606  2.2272
  470MOL0     H62037  10.504   6.164   5.663  2.2315 -2.8828 -0.5595
  470MOL0     H62038  10.449   6.448   5.355  0.0972  0.2628  0.5030
  470MOL0     H62039  10.719   6.428   6.251  1.2750 -0.5796  0.1630
  470MOL0     H62040  10.871   6.533   6.398 -0.2900 -2.9662 -0.6115
  471MOL0     O62041   9.920   3.705   5.994 -0.5042  0.1915  1.0270
  471MOL0     C62042   9.955   3.655   6.097 -0.6688  0.4875 -1.0642
  471MOL0     O62043   9.879   3.575   6.168  1.0091 -0.2002  0.7281
  471MOL0     C62044   9.761   3.525   6.112  0.5684  0.0412 -1.1335
  471MOL0     C62045   9.642   3.558   6.175  0.0447  0.2327  0.5621
  471MOL0     C62046   9.526   3.494   6.129 -0.2909  0.0172  0.2385
  471MOL0     C62047   9.514   3.402   6.029 -0.0699 -0.4917 -0.6957
  471MOL0     O62048   9.403   3.343   5.984  0.5842 -0.1225  0.0434
  471MOL0     C62049   9.302   3.293   6.075 -0.2437  0.3353  0.4664
  471MOL0     C62050   9.183   3.254   5.989  0.0685 -0.6418 -0.1886
  471MOL0     C62051   9.098   3.374   5.924 -0.6266  1.1622  0.1531
  471MOL0     C62052   8.967   3.315   5.867 -0.2716  0.3280 -0.3336
  471MOL0     C62053   8.907   3.373   5.741  0.3618 -0.5260  0.4820
  471MOL0     C62054   8.793   3.291   5.680  0.1844 -0.5527 -0.0516
  471MOL0     C62055   8.730   3.360   5.561  0.0857 -0.5597 -0.6393
  471MOL0     C62056   8.610   3.287   5.495  0.6408 -0.3990  0.2333
  471MOL0     N62057   8.480   3.306   5.566 -0.1775 -0.0147  1.3095
  471MOL0     C62058   8.435   3.232   5.671 -0.2289  0.3296 -0.4333
  471MOL0     C62059   8.307   3.261   5.693  0.3581 -0.5566  0.1124
  471MOL0     C62060   8.220   3.198   5.788  0.2775  0.5446  1.0203
  471MOL0     C62061   8.114   3.108   5.721  1.5801  0.8850 -1.0165
  471MOL0     C62062   7.990   3.176   5.657  0.2288  0.6844  0.3144
  471MOL0     C62063   7.912   3.270   5.756  0.3018  1.0555  0.3707
  471MOL0     O62064   7.876   3.209   5.882 -0.6650  0.0736  0.5639
  471MOL0     C62065   7.775   3.126   5.893  1.0407  0.6720  1.1814
  471MOL0     C62066   7.750   3.082   6.020  0.4960 -0.1247  0.7528
  471MOL0     C62067   7.650   2.997   6.046  0.0127 -0.2193 -0.0626
  471MOL0     C62068   7.571   2.940   5.946  0.2152  0.4843 -0.0009
  471MOL0     C62069   7.474   2.829   5.986  0.0396 -0.3644 -0.0793
  471MOL0     O62070   7.436   2.818   6.116 -0.0181 -0.3081  0.0558
  471MOL0     C62071   7.365   2.712   6.173 -0.3059 -0.1420 -1.1952
  471MOL0     C62072   7.313   2.599   6.109  0.4925  0.6277  0.6764
  471MOL0     C62073   7.240   2.505   6.173  0.0536 -0.0130  0.3323
  471MOL0     C62074   7.215   2.514   6.308 -0.6126  1.5390  0.7145
  471MOL0     O62075   7.134   2.411   6.356 -0.0772  0.3481 -0.2257
  471MOL0     C62076   7.050   2.441   6.470 -0.1862  0.1661  0.1794
  471MOL0     C62077   6.955   2.338   6.500 -0.2819  1.1767  0.3269
  471MOL0     C62078   6.907   2.336   6.638 -0.1220 -0.0634  0.1044
  471MOL0     C62079   6.789   2.237   6.652 -0.3716  0.3338 -0.4328
  471MOL0     C62080   6.733   2.253   6.797 -0.3605  1.0590  0.3757
  471MOL0     C62081   6.840   2.217   6.904  0.4017 -1.4909  0.0129
  471MOL0     C62082   6.766   2.174   7.035  0.1909 -0.5033 -0.9202
  471MOL0     C62083   6.872   2.169   7.148 -0.5909  0.0654 -0.0365
  471MOL0    Cl62084   6.974   2.312   7.167  0.0326 -0.4292  0.1557
  471MOL0     C62085   7.257   2.623   6.380 -0.0306 -0.2195  0.0726
  471MOL0     C62086   7.335   2.723   6.319  0.5604 -0.7169  0.3132
  471MOL0     O62087   7.449   2.746   5.900  0.0309  0.6905  0.2408
  471MOL0     C62088   7.601   2.970   5.810 -0.0148  0.1432  0.3758
  471MOL0     C62089   7.695   3.069   5.785  0.5137 -0.7549 -1.7530
  471MOL0     N62090   8.276   3.353   5.586 -0.5315  0.1985 -0.0014
  471MOL0     N62091   8.385   3.385   5.518  0.2371  0.0176  0.6821
  471MOL0     C62092   9.635   3.388   5.957  0.1839 -0.3139 -0.8489
  471MOL0     C62093   9.752   3.446   5.998 -0.1505 -0.9225  1.2923
  471MOL0     C62094  10.087   3.696   6.158 -0.6244  0.6969  0.2292
  471MOL0     C62095  10.172   3.796   6.098 -0.0863 -0.2241  0.9834
  471MOL0     C62096  10.296   3.819   6.158  0.0735 -0.1296  0.0639
  471MOL0     C62097  10.341   3.754   6.275 -0.1883 -0.2241 -0.3769
  471MOL0     O62098  10.466   3.782   6.331  0.6543  0.1229  0.2174
  471MOL0     C62099  10.522   3.684   6.417 -0.3260 -0.8061 -0.4438
  471MOL0     C62100  10.675   3.681   6.431  0.1145  0.4602 -0.6370
  471MOL0     C62101  10.733   3.792   6.514 -0.5678 -0.2268  0.1486
  471MOL0     C62102  10.885   3.783   6.520  0.7895 -0.7634  0.4144
  471MOL0     C62103  10.935   3.884   6.609  0.0201 -0.3172 -0.2140
  471MOL0     C62104  10.964   3.970   6.696  0.8189 -0.0363  0.0265
  471MOL0     C62105  10.255   3.663   6.329  0.1917  0.4844 -0.7807
  471MOL0     C62106  10.134   3.629   6.268 -0.5106 -0.1704 -0.2911
  471MOL0     H62107   9.646   3.626   6.260  0.1530  0.4174  0.4093
  471MOL0     H62108   9.438   3.518   6.189 -0.8813 -1.7404  0.1354
  471MOL0     H62109   9.286   3.371   6.150  1.3432 -0.3884  1.6002
  471MOL0     H62110   9.333   3.203   6.130 -0.6169 -0.5817 -0.7684
  471MOL0     H62111   9.111   3.198   6.049 -1.5274  2.6128  1.2053
  471MOL0     H62112   9.219   3.191   5.908  0.6922  1.9104 -2.0165
  471MOL0     H62113   9.156   3.415   5.840  0.1167  1.0055  0.5815
  471MOL0     H62114   9.074   3.451   5.998  2.3377 -0.0472  2.5888
  471MOL0     H62115   8.999   3.217   5.830 -1.5192 -1.0650  2.0009
  471MOL0     H62116   8.889   3.298   5.943  0.0919  1.9626  0.4513
  471MOL0     H62117   8.988   3.380   5.668 -1.1937  1.4615 -1.1682
  471MOL0     H62118   8.876   3.473   5.770 -0.2192 -0.4077 -0.5047
  471MOL0     H62119   8.720   3.267   5.758  1.5479  0.4024  1.5823
  471MOL0     H62120   8.827   3.190   5.657  0.8847 -0.7566  1.7022
  471MOL0     H62121   8.698   3.460   5.591  0.0260 -0.6241 -0.4858
  471MOL0     H62122   8.804   3.378   5.483  0.0419  2.0943 -0.1520
  471MOL0     H62123   8.622   3.181   5.472  0.2316 -0.8525  1.9237
  471MOL0     H62124   8.603   3.334   5.397  2.0175 -0.7011 -0.0355
  471MOL0     H62125   8.494   3.167   5.734 -0.9366 -1.1175 -1.2109
  471MOL0     H62126   8.161   3.271   5.843 -0.6604  0.9116 -0.4189
  471MOL0     H62127   8.271   3.139   5.865 -2.5053 -2.4230  0.8300
  471MOL0     H62128   8.065   3.043   5.794  1.8910  1.4151 -0.3242
  471MOL0     H62129   8.165   3.039   5.653  0.8830 -2.1119  1.3165
  471MOL0     H62130   8.037   3.234   5.576 -0.4532  2.0156  0.8481
  471MOL0     H62131   7.932   3.095   5.612  1.5900 -1.8411  2.8441
  471MOL0     H62132   7.827   3.313   5.703  0.7870  0.3923 -1.0125
  471MOL0     H62133   7.973   3.357   5.783 -1.1938  2.2609 -0.0202
  471MOL0     H62134   7.817   3.121   6.095  3.2625 -0.4868 -1.3670
  471MOL0     H62135   7.645   2.977   6.152  1.2103  1.7479  0.4207
  471MOL0     H62136   7.331   2.567   6.007 -0.0220 -1.4458  1.1820
  471MOL0     H62137   7.191   2.425   6.120  0.1180 -0.1801  0.5224
  471MOL0     H62138   7.002   2.538   6.458  2.2825  1.3485 -0.7500
  471MOL0     H62139   7.114   2.441   6.559 -1.1834  2.8288  0.9812
  471MOL0     H62140   6.986   2.240   6.462  0.0518  1.3342  0.1894
  471MOL0     H62141   6.866   2.370   6.446 -1.0400 -2.4102 -0.8796
  471MOL0     H62142   6.873   2.433   6.676 -0.3087 -1.1900  3.0772
  471MOL0     H62143   6.991   2.306   6.702 -0.5386  0.2264  0.7961
  471MOL0     H62144   6.713   2.258   6.577  0.0923 -0.1388 -1.0476
  471MOL0     H62145   6.833   2.138   6.638 -0.0743  0.4245 -0.1536
  471MOL0     H62146   6.659   2.175   6.813 -0.6083  0.5912 -2.5702
  471MOL0     H62147   6.704   2.358   6.814  1.1101  1.3416  1.3208
  471MOL0     H62148   6.886   2.311   6.933  0.6744 -1.0604 -1.6875
  471MOL0     H62149   6.918   2.147   6.874  1.1604  0.0325 -1.7400
  471MOL0     H62150   6.688   2.247   7.060 -0.0941 -1.2716  0.5650
  471MOL0     H62151   6.726   2.072   7.042  2.0226 -1.1680  0.9405
  471MOL0     H62152   6.945   2.095   7.115 -1.4468 -1.2380  0.9242
  471MOL0     H62153   6.826   2.130   7.239 -0.4875 -1.0680 -0.4642
  471MOL0     H62154   7.226   2.628   6.484  0.3128 -3.2074  0.4126
  471MOL0     H62155   7.372   2.809   6.374  4.1874 -1.1892 -1.0618
  471MOL0     H62156   7.556   2.907   5.733 -1.9284  1.3001  0.4589
  471MOL0     H62157   7.710   3.096   5.681 -1.3825 -1.1691 -2.1845
  471MOL0     H62158   9.626   3.340   5.860 -0.8493  4.0923 -3.2263
  471MOL0     H62159   9.844   3.421   5.946 -1.5242 -1.2049 -1.1243
  471MOL0     H62160  10.149   3.856   6.011  3.0651  1.8139  1.3824
  471MOL0     H62161  10.357   3.899   6.116  1.1435 -1.2888 -0.6261
  471MOL0     H62162  10.499   3.582   6.387  0.9086 -0.7969 -1.4931
  471MOL0     H62163  10.473   3.700   6.514 -1.2907  0.0050 -1.0461
  471MOL0     H62164  10.695   3.586   6.481 -0.2712  0.0045 -1.3336
  471MOL0     H62165  10.724   3.688   6.333  0.8659 -0.6750 -0.3460
  471MOL0     H62166  10.692   3.780   6.614 -0.3350  1.9419  0.5539
  471MOL0     H62167  10.700   3.890   6.479  1.4168  1.1419  1.9032
  471MOL0     H62168  10.911   3.684   6.558 -0.2601 -1.7022 -1.1797
  471MOL0     H62169  10.938   3.795   6.425  2.0680 -3.9653  0.6262
  471MOL0     H62170  11.004   4.042   6.765  3.2615 -0.4851 -0.8170
  471MOL0     H62171  10.273   3.612   6.423 -0.8348  0.3798 -0.6289
  471MOL0     H62172  10.069   3.564   6.326  0.0110  0.1580  0.6950
  472MOL0     O62173   2.256   4.070   9.136  0.2442 -0.5424 -0.3592
  472MOL0     C62174   2.260   4.163   9.217  0.0941 -0.2526 -0.3978
  472MOL0     O62175   2.159   4.204   9.290 -0.5232  0.8375  0.7221
  472MOL0     C62176   2.045   4.119   9.294 -0.0639 -0.5406 -0.0415
  472MOL0     C62177   1.913   4.166   9.261 -0.2679  0.5692  0.4043
  472MOL0     C62178   1.802   4.078   9.257 -0.0425  0.1647 -0.4614
  472MOL0     C62179   1.814   3.937   9.289  0.5286  0.8871 -0.3095
  472MOL0     O62180   1.713   3.842   9.315 -0.1859  0.5257 -0.6745
  472MOL0     C62181   1.571   3.874   9.303  0.6315  0.1424  0.8029
  472MOL0     C62182   1.478   3.749   9.311 -0.9618 -0.0431 -0.2625
  472MOL0     C62183   1.338   3.801   9.276 -0.5215 -1.2175  0.2201
  472MOL0     C62184   1.243   3.687   9.295  0.6094 -0.0278 -0.1860
  472MOL0     C62185   1.099   3.748   9.278 -0.9550 -0.1437 -0.1335
  472MOL0     C62186   0.986   3.668   9.352 -0.0252 -0.4296 -0.4627
  472MOL0     C62187   0.850   3.730   9.324  0.0690 -1.2135 -0.1720
  472MOL0     C62188   0.759   3.729   9.450 -0.0250  0.1762  0.0490
  472MOL0     N62189   0.625   3.794   9.435  0.3315  0.6595  0.3217
  472MOL0     C62190   0.522   3.751   9.354 -0.9025 -0.0802  0.6415
  472MOL0     C62191   0.417   3.834   9.375  0.0301 -0.4329  0.0553
  472MOL0     C62192   0.272   3.827   9.321  0.2405  0.4871  0.1157
  472MOL0     C62193   0.186   3.757   9.433  0.1349  0.4735 -0.6161
  472MOL0     C62194   0.075   3.650   9.387  0.1041 -0.6772  0.4967
  472MOL0     C62195  -0.023   3.721   9.289 -0.4218  0.1735 -0.1996
  472MOL0     O62196  -0.129   3.801   9.352 -0.3574  0.1917 -0.9129
  472MOL0     C62197  -0.242   3.824   9.291  0.9518 -0.2020  0.0413
  472MOL0     C62198  -0.258   3.847   9.156  0.0767  0.5473 -0.3305
  472MOL0     C62199  -0.383   3.883   9.095 -0.5009 -0.8108 -0.8029
  472MOL0     C62200  -0.496   3.904   9.171  0.9376 -1.0179  0.1438
  472MOL0     C62201  -0.624   3.937   9.110 -0.4370 -1.1122  0.8456
  472MOL0     O62202  -0.735   3.954   9.195  0.1390  0.7488  0.6916
  472MOL0     C62203  -0.862   3.966   9.141 -0.2817 -0.4214 -0.0696
  472MOL0     C62204  -0.898   4.073   9.057 -0.1774 -0.6318 -0.1509
  472MOL0     C62205  -1.021   4.075   8.987  0.0207  0.8448  0.3023
  472MOL0     C62206  -1.104   3.959   8.997 -0.0599 -0.1422 -0.0233
  472MOL0     O62207  -1.217   3.958   8.922 -0.1490  0.7409  0.7826
  472MOL0     C62208  -1.309   3.850   8.931  0.0528  0.3976  0.2768
  472MOL0     C62209  -1.445   3.917   8.948  0.5068  0.5565 -0.7969
  472MOL0     C62210  -1.549   3.809   8.971  1.1441  0.1116  0.7319
  472MOL0     C62211  -1.674   3.874   9.019 -0.2281 -0.4570  0.1722
  472MOL0     C62212  -1.810   3.790   9.004 -0.5690 -0.8010  0.3830
  472MOL0     C62213  -1.797   3.655   9.078  0.1011  0.4476  0.4153
  472MOL0     C62214  -1.938   3.589   9.075 -1.1277 -0.4550 -0.5960
  472MOL0     C62215  -1.930   3.457   9.165 -0.0187 -0.8296 -0.1527
  472MOL0    Cl62216  -2.088   3.381   9.160 -0.0886  0.1922  0.2854
  472MOL0     C62217  -1.067   3.860   9.089  0.1170 -0.6306  0.4904
  472MOL0     C62218  -0.954   3.861   9.164 -1.1594  1.3363 -0.4124
  472MOL0     O62219  -0.628   3.949   8.984  0.3535  0.4330 -0.1506
  472MOL0     C62220  -0.479   3.893   9.315 -0.3580 -0.4453  0.4947
  472MOL0     C62221  -0.358   3.847   9.367 -0.7350  0.3682 -0.1494
  472MOL0     N62222   0.451   3.922   9.470  0.1285  0.4745 -0.4158
  472MOL0     N62223   0.577   3.896   9.504  0.1073  0.1299 -0.9307
  472MOL0     C62224   1.942   3.893   9.329 -0.4660  0.1678 -0.0297
  472MOL0     C62225   2.054   3.981   9.323 -0.4018 -0.2568 -1.0950
  472MOL0     C62226   2.396   4.237   9.233 -0.1060  0.3555  0.3482
  472MOL0     C62227   2.517   4.177   9.187  0.5849 -0.9112 -0.0868
  472MOL0     C62228   2.641   4.235   9.225 -0.5180 -0.0865 -0.0519
  472MOL0     C62229   2.640   4.351   9.310  0.4539  0.6068 -0.0323
  472MOL0     O62230   2.763   4.402   9.345 -0.5451  0.4155 -0.1297
  472MOL0     C62231   2.751   4.507   9.456  0.1623 -0.5106  0.0022
  472MOL0     C62232   2.885   4.572   9.452 -0.5492 -0.4388  0.9574
  472MOL0     C62233   2.983   4.465   9.485 -0.0998  0.0721 -0.6952
  472MOL0     C62234   3.116   4.514   9.544  0.0864  0.0038  0.5145
  472MOL0     C62235   3.201   4.571   9.437  0.3388  0.3241  0.7045
  472MOL0     C62236   3.258   4.612   9.336  0.5060 -1.1048 -0.0851
  472MOL0     C62237   2.517   4.406   9.353  0.6767  0.0998 -0.2517
  472MOL0     C62238   2.398   4.345   9.322  0.1058 -0.2493  0.1193
  472MOL0     H62239   1.890   4.262   9.216 -0.2408 -0.3535 -1.7386
  472MOL0     H62240   1.703   4.120   9.244 -0.1967  0.0246  0.2149
  472MOL0     H62241   1.544   3.931   9.213 -1.7298  0.6890  1.7726
  472MOL0     H62242   1.546   3.932   9.393 -3.8206  0.9523 -0.6970
  472MOL0     H62243   1.475   3.713   9.414  1.5907  2.8524  0.9623
  472MOL0     H62244   1.512   3.667   9.247  2.0953 -0.1399  1.3384
  472MOL0     H62245   1.334   3.846   9.176  0.9032  2.5548  1.6773
  472MOL0     H62246   1.308   3.883   9.342  0.5552 -1.4634  1.0395
  472MOL0     H62247   1.262   3.604   9.227  2.6351 -1.2477  1.7174
  472MOL0     H62248   1.268   3.641   9.391  0.3921 -2.1578 -1.1016
  472MOL0     H62249   1.073   3.752   9.172  0.0006  0.9009 -0.3404
  472MOL0     H62250   1.108   3.848   9.320  1.6695 -0.1429 -0.5391
  472MOL0     H62251   1.009   3.670   9.459  4.0726 -0.9260 -1.1615
  472MOL0     H62252   0.996   3.569   9.308  3.7605  0.3829 -1.8273
  472MOL0     H62253   0.877   3.832   9.298  0.2031 -1.1564  0.1800
  472MOL0     H62254   0.795   3.688   9.239 -0.9059 -0.5762  0.1321
  472MOL0     H62255   0.799   3.772   9.542  1.3277  0.2010 -0.5218
  472MOL0     H62256   0.749   3.622   9.473  2.3125  0.0909  0.8830
  472MOL0     H62257   0.523   3.668   9.284 -0.3030  1.2535 -1.0001
  472MOL0     H62258   0.265   3.772   9.226 -0.5688 -2.5911  1.8204
  472MOL0     H62259   0.232   3.926   9.298 -1.0198  0.3405  1.5289
  472MOL0     H62260   0.145   3.832   9.500 -0.6792  0.0422 -0.6219
  472MOL0     H62261   0.251   3.701   9.501  0.2388  1.8494  0.4702
  472MOL0     H62262   0.121   3.571   9.328 -0.1563 -0.3433 -0.1712
  472MOL0     H62263   0.019   3.601   9.467  1.9554 -1.6528  1.2513
  472MOL0     H62264  -0.070   3.640   9.231 -2.4785 -0.3358  2.0193
  472MOL0     H62265   0.039   3.778   9.219  2.6198 -2.1811  0.3810
  472MOL0     H62266  -0.164   3.835   9.102 -0.1413  2.6845 -1.2855
  472MOL0     H62267  -0.370   3.894   8.988  0.9207  0.2250 -0.5445
  472MOL0     H62268  -0.817   4.137   9.023  0.6696 -1.9781 -0.7292
  472MOL0     H62269  -1.035   4.155   8.915 -0.7997 -2.1253 -3.1109
  472MOL0     H62270  -1.299   3.770   9.005  1.2538  0.2991  0.0246
  472MOL0     H62271  -1.303   3.795   8.836 -0.7376 -1.2635  1.1362
  472MOL0     H62272  -1.481   3.977   8.864  1.6417 -1.0627 -2.5235
  472MOL0     H62273  -1.429   3.980   9.036 -0.8517  0.4643 -0.4697
  472MOL0     H62274  -1.517   3.751   9.058  2.4498 -0.9719 -0.4088
  472MOL0     H62275  -1.565   3.743   8.885  0.9342  0.3228  0.6090
  472MOL0     H62276  -1.666   3.890   9.127  1.1444 -4.3049  0.7832
  472MOL0     H62277  -1.698   3.969   8.971 -0.6909 -1.5164 -1.7711
  472MOL0     H62278  -1.840   3.776   8.900 -2.8585 -0.1205  0.8929
  472MOL0     H62279  -1.890   3.852   9.046 -1.1535 -1.0174 -0.3852
  472MOL0     H62280  -1.766   3.680   9.180 -0.0416 -0.1425  0.6108
  472MOL0     H62281  -1.722   3.584   9.040 -0.9492 -1.3042  1.4641
  472MOL0     H62282  -2.020   3.655   9.103 -0.1435  0.0024  1.3255
  472MOL0     H62283  -1.952   3.564   8.969 -1.5526 -1.4919 -0.3107
  472MOL0     H62284  -1.904   3.472   9.270  1.7991  1.2754 -0.8526
  472MOL0     H62285  -1.852   3.395   9.120  0.0534 -1.0642  0.2910
  472MOL0     H62286  -1.130   3.775   9.116  1.8040 -1.3360  2.5549
  472MOL0     H62287  -0.933   3.787   9.240 -0.3539  1.2614 -0.6985
  472MOL0     H62288  -0.564   3.916   9.379 -1.3025 -0.1139 -0.8416
  472MOL0     H62289  -0.346   3.845   9.474  0.4526  0.9388 -0.2590
  472MOL0     H62290   1.960   3.791   9.362 -0.1462  0.2764  0.1302
  472MOL0     H62291   2.154   3.945   9.342 -0.5112  1.3349  4.7635
  472MOL0     H62292   2.515   4.092   9.119  0.4527 -2.3076  1.5870
  472MOL0     H62293   2.735   4.191   9.193 -0.5821 -1.5469  1.5868
  472MOL0     H62294   2.732   4.467   9.555 -2.5845 -0.2992 -0.3753
  472MOL0     H62295   2.678   4.587   9.439  0.1224  0.0885  2.5500
  472MOL0     H62296   2.911   4.617   9.356  2.4423  0.4548  2.0991
  472MOL0     H62297   2.883   4.661   9.515 -2.3831 -1.6374  2.7317
  472MOL0     H62298   2.996   4.404   9.396  0.2612  0.3295 -0.8193
  472MOL0     H62299   2.943   4.399   9.562  0.7585  0.6857  0.2949
  472MOL0     H62300   3.106   4.571   9.636 -0.2013 -0.3044  0.6784
  472MOL0     H62301   3.156   4.418   9.578 -0.0442  0.1494  1.0973
  472MOL0     H62302   3.305   4.655   9.250  1.0195 -1.1227  0.1794
  472MOL0     H62303   2.502   4.482   9.429  0.6923 -0.9927  0.8651
  472MOL0     H62304   2.303   4.384   9.357 -0.5236 -3.0150  1.8313
  473MOL0     O62305   9.930   1.595   4.438 -0.5311  0.5651  0.7138
  473MOL0     C62306   9.891   1.681   4.508  0.5138  0.1848 -0.5069
  473MOL0     O62307   9.756   1.695   4.552 -0.4486  0.4733  0.5530
  473MOL0     C62308   9.661   1.599   4.516 -0.4826 -1.1284  0.0217
  473MOL0     C62309   9.566   1.576   4.614  0.2573 -0.6565  0.3286
  473MOL0     C62310   9.466   1.487   4.591  0.0336  0.3603 -0.9567
  473MOL0     C62311   9.442   1.426   4.467 -0.8305  0.5791  0.2041
  473MOL0     O62312   9.342   1.343   4.435 -1.1141  0.1625  0.2180
  473MOL0     C62313   9.222   1.334   4.513 -0.8590 -0.2395  0.3916
  473MOL0     C62314   9.120   1.432   4.453  0.3407 -0.1775 -0.5335
  473MOL0     C62315   8.970   1.415   4.498 -1.3392  1.1160 -0.3816
  473MOL0     C62316   8.881   1.497   4.418 -0.2429 -0.2920 -0.8222
  473MOL0     C62317   8.738   1.497   4.475 -0.0389  0.3000 -0.4445
  473MOL0     C62318   8.659   1.607   4.408 -0.2346  0.4380  0.2672
  473MOL0     C62319   8.509   1.601   4.449  0.7398 -0.0585  0.0220
  473MOL0     C62320   8.426   1.712   4.385 -1.1696  0.7957  1.0658
  473MOL0     N62321   8.294   1.668   4.366 -0.4745 -0.9368  0.2648
  473MOL0     C62322   8.210   1.612   4.458  0.2275 -0.0847  0.1792
  473MOL0     C62323   8.090   1.596   4.392  0.1106  0.6936 -0.5469
  473MOL0     C62324   7.963   1.548   4.446 -0.4175 -0.5721 -0.6383
  473MOL0     C62325   7.907   1.642   4.557 -0.1071 -0.0474 -0.2710
  473MOL0     C62326   7.877   1.787   4.530 -0.0272  0.0180 -0.2244
  473MOL0     C62327   7.997   1.882   4.527 -0.3298  0.0565 -0.2856
  473MOL0     O62328   8.075   1.859   4.644  0.1850 -0.1097  0.2188
  473MOL0     C62329   8.201   1.911   4.671  0.2331  0.0365  0.1814
  473MOL0     C62330   8.269   2.001   4.585  0.0735 -0.4567  0.1082
  473MOL0     C62331   8.394   2.051   4.614  0.5097 -1.1219  0.5251
  473MOL0     C62332   8.459   2.015   4.725 -0.6540  0.0304  0.5807
  473MOL0     C62333   8.583   2.067   4.762  0.1837 -0.5867 -0.1288
  473MOL0     O62334   8.646   2.013   4.875  0.8136  0.3126 -0.2622
  473MOL0     C62335   8.752   2.079   4.935  0.2376 -0.0710  0.5498
  473MOL0     C62336   8.870   2.084   4.863 -0.4378  0.9503  0.0666
  473MOL0     C62337   8.984   2.130   4.923 -0.1739 -0.8873 -0.1050
  473MOL0     C62338   8.967   2.204   5.048  1.4180 -0.2942 -0.0057
  473MOL0     O62339   9.074   2.262   5.105 -0.0045  0.6749  0.0660
  473MOL0     C62340   9.197   2.299   5.032 -0.1285 -0.6977  0.0499
  473MOL0     C62341   9.316   2.351   5.117 -0.5525  0.3861 -0.4478
  473MOL0     C62342   9.436   2.387   5.023 -0.9659  0.0757  0.2526
  473MOL0     C62343   9.548   2.444   5.120  0.0089 -0.4514  0.1233
  473MOL0     C62344   9.687   2.421   5.058  0.0140  0.3660  0.7892
  473MOL0     C62345   9.790   2.489   5.142  0.1490  0.5268 -0.4414
  473MOL0     C62346   9.928   2.491   5.082 -0.2348  0.4655 -0.0394
  473MOL0     C62347  10.003   2.359   5.046  0.8955 -0.4483 -0.6088
  473MOL0    Cl62348   9.940   2.294   4.902 -0.2283 -0.2791  0.4813
  473MOL0     C62349   8.847   2.207   5.119  0.1048  0.3532 -0.5118
  473MOL0     C62350   8.743   2.140   5.060 -0.1432  0.3756 -0.0035
  473MOL0     O62351   8.629   2.156   4.696 -0.3072  0.4026  0.1991
  473MOL0     C62352   8.394   1.930   4.809  1.1116 -0.7350 -0.6578
  473MOL0     C62353   8.265   1.869   4.789  0.3809 -0.2482  0.3182
  473MOL0     N62354   8.112   1.647   4.270 -0.2791 -0.1015  0.2101
  473MOL0     N62355   8.226   1.708   4.253  0.0429  0.7511  0.4891
  473MOL0     C62356   9.535   1.452   4.363  0.7051 -0.7587  0.9994
  473MOL0     C62357   9.641   1.542   4.387  0.9025 -0.1341 -1.1697
  473MOL0     C62358   9.987   1.788   4.549 -0.4852  0.1011  0.0855
  473MOL0     C62359  10.124   1.772   4.546  0.6103 -0.9755 -0.2787
  473MOL0     C62360  10.213   1.873   4.594 -0.0065  0.1087 -0.2471
  473MOL0     C62361  10.162   1.997   4.637 -0.7845 -2.1934  0.7324
  473MOL0     O62362  10.250   2.097   4.672 -0.3490 -0.2584 -0.4446
  473MOL0     C62363  10.209   2.235   4.677  0.0810  0.1804  0.9794
  473MOL0     C62364  10.313   2.324   4.731 -0.2949  0.7835 -0.6425
  473MOL0     C62365  10.370   2.268   4.866  0.1973 -0.0279  0.2925
  473MOL0     C62366  10.453   2.374   4.937 -0.2314 -0.3670  0.2133
  473MOL0     C62367  10.561   2.445   4.866 -0.3728 -0.7547  0.1519
  473MOL0     C62368  10.653   2.510   4.814 -0.3982 -0.0154 -0.0061
  473MOL0     C62369  10.022   2.011   4.643 -0.7394  0.2316 -0.1067
  473MOL0     C62370   9.941   1.908   4.594  0.8393  0.1128 -0.3249
  473MOL0     H62371   9.575   1.630   4.708  2.4601 -1.6955  0.7840
  473MOL0     H62372   9.388   1.485   4.666 -0.3640 -1.7717 -1.3602
  473MOL0     H62373   9.229   1.346   4.621 -0.8804  1.1968  0.2506
  473MOL0     H62374   9.184   1.232   4.500  1.4355 -0.9480 -1.4565
  473MOL0     H62375   9.116   1.415   4.345  1.5847 -0.7662 -0.5105
  473MOL0     H62376   9.139   1.537   4.476  1.8543 -0.2074 -1.4987
  473MOL0     H62377   8.965   1.440   4.605 -0.0328 -0.3998  0.0814
  473MOL0     H62378   8.954   1.307   4.488  3.2703  0.0483  1.1092
  473MOL0     H62379   8.910   1.602   4.419  2.9542 -1.0604 -1.8768
  473MOL0     H62380   8.883   1.472   4.311 -2.1680  2.2996 -1.5653
  473MOL0     H62381   8.732   1.507   4.583 -0.0542  1.6534 -0.5604
  473MOL0     H62382   8.690   1.402   4.450  0.7272 -0.2009 -0.0421
  473MOL0     H62383   8.673   1.570   4.306  1.5788  1.2854  0.1583
  473MOL0     H62384   8.704   1.706   4.418 -0.9038  0.6223  1.8254
  473MOL0     H62385   8.464   1.511   4.406  0.5346  0.6126 -1.2143
  473MOL0     H62386   8.483   1.601   4.555  2.9898  1.6572  0.6417
  473MOL0     H62387   8.476   1.757   4.298  1.6284 -0.8438  1.7025
  473MOL0     H62388   8.425   1.789   4.463  0.4697 -1.3539  3.3754
  473MOL0     H62389   8.235   1.575   4.557  1.6133  3.0045  1.1127
  473MOL0     H62390   7.976   1.446   4.484 -1.5131 -0.6425 -0.4211
  473MOL0     H62391   7.887   1.551   4.368 -1.8739  0.3021  0.7599
  473MOL0     H62392   7.971   1.631   4.645 -2.4223 -1.2734  1.3540
  473MOL0     H62393   7.810   1.595   4.580 -0.7211  0.6349 -1.3658
  473MOL0     H62394   7.826   1.787   4.433 -1.2275  0.3270  0.3899
  473MOL0     H62395   7.807   1.819   4.608  0.7760 -0.0852  0.5618
  473MOL0     H62396   7.963   1.985   4.513  0.7209  0.5852  0.8463
  473MOL0     H62397   8.057   1.858   4.438  4.0219 -0.6021  2.5499
  473MOL0     H62398   8.212   2.049   4.505 -0.6953  0.9434  1.4516
  473MOL0     H62399   8.443   2.121   4.547 -1.7952 -0.7682 -0.9051
  473MOL0     H62400   8.860   2.036   4.766 -1.3216  2.0962 -0.4254
  473MOL0     H62401   9.080   2.122   4.874 -0.1479  1.6887 -0.6353
  473MOL0     H62402   9.178   2.379   4.960  2.0409  0.1538  0.3585
  473MOL0     H62403   9.233   2.207   4.984  1.5872 -1.0904  1.9478
  473MOL0     H62404   9.347   2.278   5.193  1.2159  1.9082  0.3782
  473MOL0     H62405   9.283   2.432   5.183 -1.9835  0.2670 -0.9810
  473MOL0     H62406   9.392   2.463   4.958  0.0162 -0.5404 -1.1996
  473MOL0     H62407   9.468   2.296   4.970 -2.4086 -0.1908 -0.2055
  473MOL0     H62408   9.525   2.549   5.138 -3.1330 -0.8834 -0.8390
  473MOL0     H62409   9.529   2.409   5.222  0.0271  1.5573  0.8702
  473MOL0     H62410   9.687   2.459   4.955  1.2555  1.2155  1.0834
  473MOL0     H62411   9.708   2.313   5.060 -1.5207  0.0394  0.5466
  473MOL0     H62412   9.797   2.442   5.240 -2.2415  1.6058  0.3244
  473MOL0     H62413   9.756   2.593   5.149  0.0735  0.4222  0.9707
  473MOL0     H62414   9.921   2.553   4.992 -4.6352  0.7568  0.2815
  473MOL0     H62415   9.998   2.539   5.150  1.1606 -0.3776 -0.8350
  473MOL0     H62416  10.001   2.280   5.123 -0.8216 -1.2637 -1.4379
  473MOL0     H62417  10.109   2.384   5.033  0.6857  0.9422  0.1763
  473MOL0     H62418   8.846   2.251   5.218 -1.0153 -0.6025 -0.0778
  473MOL0     H62419   8.661   2.111   5.124  1.3695 -1.3587  1.2356
  473MOL0     H62420   8.439   1.907   4.905 -2.4429 -1.2895  1.0181
  473MOL0     H62421   8.215   1.804   4.860  2.0992 -4.6216 -2.1433
  473MOL0     H62422   9.512   1.397   4.273 -1.5695 -0.1433  1.1425
  473MOL0     H62423   9.714   1.565   4.310  0.3241  1.7530 -1.2172
  473MOL0     H62424  10.167   1.675   4.523 -1.2612 -2.1803  0.9952
  473MOL0     H62425  10.319   1.853   4.604 -0.1961 -1.4549 -1.1421
  473MOL0     H62426  10.125   2.244   4.747  0.6778  2.0979  1.4995
  473MOL0     H62427  10.170   2.267   4.580  2.7186 -0.7956 -0.4937
  473MOL0     H62428  10.389   2.333   4.652  1.6397 -1.5937  0.8055
  473MOL0     H62429  10.260   2.420   4.741 -4.4661 -1.0226 -3.0139
  473MOL0     H62430  10.438   2.184   4.854  2.9453  2.2192 -1.0094
  473MOL0     H62431  10.284   2.245   4.929 -0.0691  0.0896 -0.0244
  473MOL0     H62432  10.382   2.449   4.972  1.5923  2.3090 -1.4254
  473MOL0     H62433  10.506   2.328   5.021 -1.6999  1.1661  2.0687
  473MOL0     H62434  10.739   2.560   4.773 -0.5490 -0.2844 -0.6701
  473MOL0     H62435   9.972   2.095   4.689 -0.7581  0.9262 -1.3531
  473MOL0     H62436   9.834   1.916   4.604  0.7322  4.3075 -2.7651
  474MOL0     O62437   3.410   9.694   4.425 -0.8215 -0.0323  0.9062
  474MOL0     C62438   3.480   9.664   4.331  0.0918 -0.1751 -0.5607
  474MOL0     O62439   3.454   9.560   4.241 -0.7347 -0.2759  0.1765
  474MOL0     C62440   3.329   9.499   4.252 -0.7385 -0.0794  0.1776
  474MOL0     C62441   3.252   9.476   4.144 -0.4870  0.5871  0.0070
  474MOL0     C62442   3.121   9.418   4.158  0.3771  0.4846  0.3971
  474MOL0     C62443   3.077   9.372   4.281  0.1341 -0.9239 -0.3834
  474MOL0     O62444   2.949   9.333   4.311 -0.2257  0.8100 -0.2356
  474MOL0     C62445   2.942   9.192   4.364  0.0590 -0.0848  0.5849
  474MOL0     C62446   2.810   9.164   4.431  0.0168  0.8479  0.1352
  474MOL0     C62447   2.688   9.156   4.348  0.3589  0.2402 -0.5064
  474MOL0     C62448   2.633   9.287   4.286 -0.2730 -0.3953 -0.0372
  474MOL0     C62449   2.489   9.260   4.230  0.1613 -1.2957 -0.5372
  474MOL0     C62450   2.429   9.397   4.183 -0.4258 -0.4722 -0.1515
  474MOL0     C62451   2.293   9.376   4.111  0.4952  0.3322 -0.3028
  474MOL0     C62452   2.311   9.298   3.980  0.2606  0.0301  0.2745
  474MOL0     N62453   2.201   9.304   3.887  0.5626  0.0981 -0.3328
  474MOL0     C62454   2.064   9.336   3.894  0.6038 -0.5556 -0.7074
  474MOL0     C62455   2.022   9.316   3.763 -0.2322 -0.5773 -0.1075
  474MOL0     C62456   1.879   9.338   3.719 -0.5968 -0.7763 -0.6886
  474MOL0     C62457   1.851   9.483   3.683 -0.5684 -0.6243 -0.3791
  474MOL0     C62458   1.717   9.495   3.627  0.0709 -0.2268 -0.2876
  474MOL0     C62459   1.610   9.481   3.734 -0.7407 -0.1298 -0.0729
  474MOL0     O62460   1.480   9.491   3.669 -0.7023 -0.1138 -0.7525
  474MOL0     C62461   1.371   9.521   3.745 -0.0811 -0.6076 -0.4797
  474MOL0     C62462   1.247   9.544   3.687 -0.1299  0.4508  0.1033
  474MOL0     C62463   1.132   9.559   3.777 -0.0077 -0.8417  0.3721
  474MOL0     C62464   1.142   9.567   3.911 -0.0694  0.6295 -1.1500
  474MOL0     C62465   1.021   9.594   3.992  0.2183  0.2190 -0.2059
  474MOL0     O62466   0.908   9.641   3.925  0.1495 -0.1760 -0.4602
  474MOL0     C62467   0.796   9.689   3.992 -0.1419 -0.2421 -0.9301
  474MOL0     C62468   0.793   9.767   4.111 -0.2309  0.1877  0.2342
  474MOL0     C62469   0.666   9.812   4.151  0.2583 -0.9593  0.1011
  474MOL0     C62470   0.551   9.794   4.083 -0.1223 -0.1559 -0.5410
  474MOL0     O62471   0.431   9.827   4.160  0.1820 -0.7825 -0.3877
  474MOL0     C62472   0.326   9.909   4.101 -0.0638 -0.0711 -0.0292
  474MOL0     C62473   0.217   9.934   4.199  0.5347  0.2669 -0.2643
  474MOL0     C62474   0.268  10.009   4.322 -0.1321  0.3893 -0.0512
  474MOL0     C62475   0.178  10.004   4.454  0.9486 -0.1084  0.5855
  474MOL0     C62476   0.029  10.025   4.432  0.2799 -0.0154 -0.1698
  474MOL0     C62477  -0.049  10.026   4.558  0.3341 -0.1033  0.6628
  474MOL0     C62478  -0.204  10.025   4.520  0.0386  0.4508  0.1958
  474MOL0     C62479  -0.301   9.994   4.633 -0.3079 -0.7340 -0.3862
  474MOL0    Cl62480  -0.474  10.017   4.591  0.2776 -0.1637  0.0973
  474MOL0     C62481   0.555   9.723   3.962  0.5398  0.2659  0.3903
  474MOL0     C62482   0.680   9.670   3.919 -0.0314  0.3447  0.1589
  474MOL0     O62483   1.026   9.566   4.109 -0.0280 -0.1111 -0.8128
  474MOL0     C62484   1.265   9.559   3.967  0.1978  0.5577  0.4951
  474MOL0     C62485   1.375   9.536   3.885 -0.9611 -0.4085 -0.5086
  474MOL0     N62486   2.119   9.271   3.680 -0.2661 -0.7394 -0.5348
  474MOL0     N62487   2.230   9.267   3.753  0.5954 -0.8893  0.0111
  474MOL0     C62488   3.159   9.403   4.390  0.3663 -0.3076 -0.2259
  474MOL0     C62489   3.288   9.451   4.369 -0.0049 -0.1731 -0.0939
  474MOL0     C62490   3.596   9.753   4.309 -0.5395  0.5786 -0.9859
  474MOL0     C62491   3.702   9.709   4.231 -0.9687 -0.2861 -0.8730
  474MOL0     C62492   3.826   9.771   4.233  0.0335 -0.1746 -0.8300
  474MOL0     C62493   3.856   9.876   4.324  0.0512  0.3270  0.3426
  474MOL0     O62494   3.980   9.931   4.331  0.2105  0.1585 -0.7558
  474MOL0     C62495   4.091   9.887   4.261 -0.8307 -0.2905  0.0394
  474MOL0     C62496   4.123   9.965   4.134  0.4701 -0.4968  0.3627
  474MOL0     C62497   4.111  10.120   4.159  0.0237 -0.3207 -0.7293
  474MOL0     C62498   4.240  10.180   4.233  0.5234 -0.1883 -0.1728
  474MOL0     C62499   4.225  10.183   4.387 -0.3581 -0.3321  0.3702
  474MOL0     C62500   4.239  10.162   4.507  0.6808  1.3637  0.2537
  474MOL0     C62501   3.749   9.932   4.405 -0.3978  0.5454 -0.2138
  474MOL0     C62502   3.616   9.870   4.390  0.2664  0.5518  0.2143
  474MOL0     H62503   3.275   9.513   4.045  0.3412  1.4926  0.5165
  474MOL0     H62504   3.056   9.419   4.071 -0.2511  0.8182  0.8609
  474MOL0     H62505   3.019   9.181   4.441  2.2885  2.7201 -1.0311
  474MOL0     H62506   2.971   9.126   4.282 -2.1760 -0.7786  0.2871
  474MOL0     H62507   2.785   9.234   4.511 -2.2022 -1.3967  1.5679
  474MOL0     H62508   2.821   9.064   4.474 -1.0501  1.0452  0.8932
  474MOL0     H62509   2.612   9.115   4.416  0.3421 -2.5165 -2.0674
  474MOL0     H62510   2.692   9.079   4.271 -2.2959 -2.0901  1.4925
  474MOL0     H62511   2.642   9.366   4.361  0.8407 -3.5733  3.4950
  474MOL0     H62512   2.704   9.322   4.210  0.9516  0.0729  1.2619
  474MOL0     H62513   2.434   9.215   4.313  1.7573 -2.1792  0.0763
  474MOL0     H62514   2.494   9.190   4.145 -4.9640 -1.2702 -1.1670
  474MOL0     H62515   2.497   9.444   4.112  0.0226 -1.5490 -0.4627
  474MOL0     H62516   2.404   9.461   4.268 -0.0544 -1.5670  0.8225
  474MOL0     H62517   2.214   9.332   4.172 -1.3229  2.1001 -1.2529
  474MOL0     H62518   2.248   9.474   4.090  0.1910  0.4558  0.8911
  474MOL0     H62519   2.324   9.193   4.008 -0.7161  0.2298  1.6078
  474MOL0     H62520   2.403   9.334   3.933  0.3141 -0.8113 -0.2802
  474MOL0     H62521   2.008   9.371   3.981  1.5966  1.3384 -0.7624
  474MOL0     H62522   1.812   9.308   3.800  0.4399  0.8843  0.8466
  474MOL0     H62523   1.877   9.279   3.627  3.1788  2.3741 -3.0905
  474MOL0     H62524   1.917   9.520   3.605  1.1364  1.9442  2.0869
  474MOL0     H62525   1.870   9.538   3.776 -1.4073 -0.6442 -0.1856
  474MOL0     H62526   1.707   9.596   3.585  3.2715 -0.3319 -1.6136
  474MOL0     H62527   1.695   9.419   3.551  1.0271 -1.9044  1.0564
  474MOL0     H62528   1.625   9.565   3.801  1.9545 -0.2572 -0.3909
  474MOL0     H62529   1.617   9.385   3.786 -2.3400 -0.3837 -0.2570
  474MOL0     H62530   1.241   9.516   3.582 -0.3744 -1.4317  0.5912
  474MOL0     H62531   1.029   9.556   3.743  0.3658 -3.1598 -0.7753
  474MOL0     H62532   0.881   9.791   4.170  0.0560 -1.3432  0.4825
  474MOL0     H62533   0.670   9.863   4.247  0.6776  0.6559 -0.7447
  474MOL0     H62534   0.282   9.853   4.019 -1.1700  3.4257 -2.0156
  474MOL0     H62535   0.358  10.003   4.057 -0.1460 -0.5911 -1.2349
  474MOL0     H62536   0.182   9.835   4.230  2.4190 -0.4344 -0.2431
  474MOL0     H62537   0.125   9.968   4.150 -1.6221 -1.1452  2.5161
  474MOL0     H62538   0.287  10.111   4.289 -1.7773  1.0206  0.8294
  474MOL0     H62539   0.361   9.964   4.357 -1.6155 -0.9167  2.5544
  474MOL0     H62540   0.181   9.915   4.517 -3.4330 -0.2188  0.9831
  474MOL0     H62541   0.218  10.080   4.523 -2.2088  0.6616  1.7650
  474MOL0     H62542  -0.001   9.943   4.366  1.0728  0.4424 -1.1200
  474MOL0     H62543   0.008  10.119   4.379 -1.3818 -0.0345  0.4125
  474MOL0     H62544  -0.014  10.105   4.624  2.8303  0.5836 -1.3602
  474MOL0     H62545  -0.031   9.930   4.607  0.0786 -1.0545 -1.0192
  474MOL0     H62546  -0.246  10.121   4.488 -2.4264 -0.3025  0.9069
  474MOL0     H62547  -0.219   9.959   4.434  0.6447  0.9231 -0.2769
  474MOL0     H62548  -0.283  10.060   4.718  0.1700 -3.0836  1.4203
  474MOL0     H62549  -0.279   9.892   4.665 -2.7094 -1.0196  0.5491
  474MOL0     H62550   0.468   9.709   3.899  2.1304 -2.0893 -1.4322
  474MOL0     H62551   0.708   9.628   3.822  1.5406  3.7361 -1.0282
  474MOL0     H62552   1.269   9.562   4.076 -3.1959 -1.3649  0.8252
  474MOL0     H62553   1.462   9.510   3.944 -0.9508  3.0738  1.2776
  474MOL0     H62554   3.141   9.391   4.496  1.6696  1.2752  0.2201
  474MOL0     H62555   3.362   9.452   4.448 -0.8057  4.4613  0.8497
  474MOL0     H62556   3.702   9.620   4.168  1.8775 -0.5378 -0.6421
  474MOL0     H62557   3.898   9.746   4.156  0.9707  2.6775 -0.9892
  474MOL0     H62558   4.095   9.781   4.235  3.0965 -0.1792 -0.4731
  474MOL0     H62559   4.179   9.892   4.326 -1.5684 -2.3798  1.2778
  474MOL0     H62560   4.225   9.935   4.109  1.7702  2.8485  1.1143
  474MOL0     H62561   4.053   9.931   4.057 -2.9118 -0.2982  3.0864
  474MOL0     H62562   4.016  10.158   4.199 -1.4606 -2.0457 -2.4397
  474MOL0     H62563   4.119  10.173   4.063  1.0451  3.4436  1.2116
  474MOL0     H62564   4.330  10.131   4.195  0.4867  1.2924 -2.3307
  474MOL0     H62565   4.248  10.280   4.189  0.4341 -1.6044 -3.7392
  474MOL0     H62566   4.239  10.139   4.611  1.4725  0.2410  0.0177
  474MOL0     H62567   3.774  10.018   4.467  0.1621  0.6217 -0.5419
  474MOL0     H62568   3.527   9.907   4.440 -1.0580 -1.3722 -0.6244
  475MOL0     O62569   7.803   7.986   5.852 -0.6918  0.2628 -0.8390
  475MOL0     C62570   7.904   7.934   5.809 -0.8424  0.6744  0.1798
  475MOL0     O62571   7.931   7.798   5.775 -0.0382  0.2235 -0.3911
  475MOL0     C62572   7.832   7.705   5.743 -0.3730 -0.0282 -0.1763
  475MOL0     C62573   7.699   7.738   5.712 -0.5040 -0.6285 -1.4594
  475MOL0     C62574   7.598   7.638   5.691 -0.1978 -0.6467  0.1176
  475MOL0     C62575   7.634   7.509   5.701  0.5336  0.0480 -0.2451
  475MOL0     O62576   7.548   7.401   5.678  0.0294  0.3505 -0.1467
  475MOL0     C62577   7.403   7.420   5.681 -0.8689 -0.8193 -0.0176
  475MOL0     C62578   7.344   7.278   5.659 -0.4393 -1.4546 -0.2294
  475MOL0     C62579   7.205   7.256   5.718  0.1434 -0.3214  0.0309
  475MOL0     C62580   7.083   7.323   5.652  0.2113  0.2787  0.7946
  475MOL0     C62581   6.961   7.276   5.723 -0.3849 -0.7488  0.2151
  475MOL0     C62582   6.881   7.159   5.664 -0.0273 -0.0164 -0.1597
  475MOL0     C62583   6.742   7.135   5.735  0.3550 -0.1654  0.2522
  475MOL0     C62584   6.759   7.023   5.843  0.4945 -0.3064  0.3181
  475MOL0     N62585   6.644   7.027   5.929  0.4516 -0.0471 -0.7057
  475MOL0     C62586   6.600   7.126   6.013  0.4689 -0.8439  1.4564
  475MOL0     C62587   6.503   7.075   6.085 -0.2392  0.1328  0.7047
  475MOL0     C62588   6.424   7.147   6.195  0.0949  0.6220  0.2984
  475MOL0     C62589   6.493   7.132   6.334  0.1756 -0.4609 -0.3853
  475MOL0     C62590   6.431   7.213   6.440  0.8380  0.2081  0.1081
  475MOL0     C62591   6.294   7.164   6.475  0.0369 -0.3346  1.0389
  475MOL0     O62592   6.254   7.185   6.618 -0.0253 -0.7769 -0.1615
  475MOL0     C62593   6.162   7.102   6.683 -0.3354 -0.2892  1.1605
  475MOL0     C62594   6.164   7.093   6.819 -1.0241  0.4188  0.2420
  475MOL0     C62595   6.074   7.011   6.884  0.1653  0.5182 -0.0971
  475MOL0     C62596   5.982   6.932   6.819  0.0717 -0.1730 -0.0808
  475MOL0     C62597   5.877   6.842   6.887 -0.4798 -0.4037  0.7033
  475MOL0     O62598   5.761   6.802   6.816  0.2057  0.1808 -0.1577
  475MOL0     C62599   5.679   6.702   6.865 -0.6388  0.9347 -0.0900
  475MOL0     C62600   5.646   6.691   7.009  0.1130  0.4732  0.0768
  475MOL0     C62601   5.540   6.614   7.049  0.3170 -0.4467 -0.6283
  475MOL0     C62602   5.475   6.523   6.962 -0.1511 -0.0910  0.2455
  475MOL0     O62603   5.377   6.442   7.016 -0.3498 -0.1929 -0.0188
  475MOL0     C62604   5.250   6.431   6.959  0.8181 -0.0016  0.6403
  475MOL0     C62605   5.143   6.487   7.061  0.1819 -0.4032 -0.7645
  475MOL0     C62606   5.146   6.644   7.042 -0.1337  0.7374 -0.0860
  475MOL0     C62607   5.089   6.716   7.157  0.4432  0.0717 -0.2756
  475MOL0     C62608   5.191   6.730   7.268 -0.2881 -0.0992 -0.7925
  475MOL0     C62609   5.127   6.801   7.384 -0.0983 -0.5724 -0.1470
  475MOL0     C62610   5.228   6.799   7.501 -0.2022 -0.8168  0.4619
  475MOL0     C62611   5.182   6.898   7.620 -0.1815  0.2530  0.1819
  475MOL0    Cl62612   5.028   6.846   7.695  0.0347 -0.2619 -0.1182
  475MOL0     C62613   5.510   6.522   6.819 -1.3303  0.1048 -0.0132
  475MOL0     C62614   5.611   6.617   6.780 -0.8591  0.7001 -0.2078
  475MOL0     O62615   5.915   6.812   6.999  0.6553  0.4838  0.5894
  475MOL0     C62616   5.976   6.941   6.679 -0.2333 -0.1440  0.1479
  475MOL0     C62617   6.065   7.021   6.611 -0.0181 -0.1305  0.6635
  475MOL0     N62618   6.486   6.940   6.052  0.2066 -1.1657  0.1316
  475MOL0     N62619   6.569   6.915   5.953 -0.1811 -0.3584 -0.8311
  475MOL0     C62620   7.767   7.470   5.729 -0.4634 -0.0291 -0.4920
  475MOL0     C62621   7.870   7.570   5.748  0.4832 -0.8974 -0.1200
  475MOL0     C62622   8.026   8.027   5.803  0.4350 -0.4447 -0.0486
  475MOL0     C62623   8.021   8.165   5.850  0.1707 -0.2417  0.0756
  475MOL0     C62624   8.141   8.243   5.863 -0.7166  0.1873  0.0109
  475MOL0     C62625   8.257   8.182   5.818 -0.2011  0.4585 -0.0135
  475MOL0     O62626   8.374   8.247   5.812  0.1737  0.3060 -0.4228
  475MOL0     C62627   8.374   8.390   5.801 -0.4700 -0.7974 -0.6278
  475MOL0     C62628   8.512   8.446   5.762  0.6480  0.1587 -0.3648
  475MOL0     C62629   8.536   8.424   5.607  0.4347 -0.0392 -0.6019
  475MOL0     C62630   8.438   8.500   5.514  0.0673  0.4243  0.3196
  475MOL0     C62631   8.500   8.483   5.375  0.1137 -0.1498  0.2258
  475MOL0     C62632   8.545   8.485   5.263 -0.5519  0.0494 -0.3145
  475MOL0     C62633   8.259   8.050   5.761 -0.0406 -0.0236  0.3662
  475MOL0     C62634   8.148   7.976   5.756 -0.1676  1.2512  0.0928
  475MOL0     H62635   7.670   7.843   5.713 -2.2513 -1.0166  1.8064
  475MOL0     H62636   7.495   7.666   5.669  0.4370  3.0369  1.1241
  475MOL0     H62637   7.380   7.483   5.594  1.5363 -1.4566 -1.2018
  475MOL0     H62638   7.366   7.465   5.774  0.9899  0.2199  0.2777
  475MOL0     H62639   7.417   7.216   5.712  1.4818  1.6275  1.0565
  475MOL0     H62640   7.339   7.250   5.553 -1.6465  0.4481 -0.7315
  475MOL0     H62641   7.201   7.267   5.827 -1.9748  1.2501 -0.1307
  475MOL0     H62642   7.181   7.149   5.708 -2.5330  0.0859  1.1856
  475MOL0     H62643   7.078   7.432   5.659  0.1123  0.2660  0.9235
  475MOL0     H62644   7.068   7.294   5.548  3.9766 -1.8760  0.6549
  475MOL0     H62645   6.897   7.364   5.719 -0.1519 -0.6123 -2.0709
  475MOL0     H62646   6.990   7.264   5.828  3.2242  3.8945  0.0988
  475MOL0     H62647   6.933   7.063   5.659 -2.4963 -1.4561  0.0671
  475MOL0     H62648   6.860   7.185   5.560 -1.2432 -1.4149 -0.2967
  475MOL0     H62649   6.718   7.229   5.786 -2.2550 -1.2451  1.2245
  475MOL0     H62650   6.654   7.114   5.674 -1.6928  0.4455  2.7847
  475MOL0     H62651   6.850   7.046   5.900 -0.2010  4.6584 -0.0830
  475MOL0     H62652   6.778   6.932   5.786  0.4192 -0.7959  1.0579
  475MOL0     H62653   6.646   7.224   6.021 -1.7390  0.9398 -3.4308
  475MOL0     H62654   6.329   7.098   6.215  2.1579 -2.6344  3.4161
  475MOL0     H62655   6.417   7.252   6.166  0.1109  0.0452 -1.9775
  475MOL0     H62656   6.594   7.172   6.328  0.3646 -0.9919 -0.8250
  475MOL0     H62657   6.506   7.030   6.369 -0.4095 -0.0603  1.0593
  475MOL0     H62658   6.494   7.201   6.529 -1.0761  0.9355  1.6517
  475MOL0     H62659   6.428   7.318   6.411  0.3963 -0.6752 -3.4818
  475MOL0     H62660   6.283   7.057   6.454  0.7888 -0.5487  1.6797
  475MOL0     H62661   6.222   7.220   6.415 -0.6517 -2.3057 -0.0741
  475MOL0     H62662   6.249   7.147   6.861  0.5310 -0.7447 -1.2550
  475MOL0     H62663   6.070   7.017   6.993  0.5612 -0.6014 -0.0064
  475MOL0     H62664   5.686   6.771   7.071  1.0192 -0.2748  0.4660
  475MOL0     H62665   5.515   6.615   7.155  0.3555 -0.2104 -0.6203
  475MOL0     H62666   5.217   6.330   6.934 -2.3803  0.2358  3.2064
  475MOL0     H62667   5.247   6.481   6.862  0.7799 -2.6385 -0.8174
  475MOL0     H62668   5.172   6.459   7.163  0.9663  0.5209 -0.7130
  475MOL0     H62669   5.047   6.438   7.041  0.1388 -0.6147 -0.0639
  475MOL0     H62670   5.095   6.675   6.950  2.0871  0.1375 -1.6254
  475MOL0     H62671   5.250   6.674   7.028  1.1380 -2.6082  1.1247
  475MOL0     H62672   5.056   6.811   7.114 -1.4832 -0.5614 -0.3006
  475MOL0     H62673   5.005   6.667   7.208 -0.6098  3.0996  1.1091
  475MOL0     H62674   5.275   6.788   7.230  0.8476  0.0056  1.6838
  475MOL0     H62675   5.230   6.635   7.308 -1.0458  0.1723  0.6674
  475MOL0     H62676   5.039   6.746   7.419 -1.5318 -0.5609 -3.3469
  475MOL0     H62677   5.106   6.903   7.350  0.2913 -0.8802 -1.3749
  475MOL0     H62678   5.242   6.696   7.535  1.3064 -0.4640  0.9769
  475MOL0     H62679   5.321   6.843   7.462 -1.2696  1.4542  0.3490
  475MOL0     H62680   5.173   6.996   7.572  1.0984  0.1252 -0.3575
  475MOL0     H62681   5.258   6.902   7.697 -0.1510 -1.7553  0.3162
  475MOL0     H62682   5.459   6.456   6.749  0.9640 -1.0108 -0.7435
  475MOL0     H62683   5.640   6.618   6.675 -1.0096 -1.0223 -0.2947
  475MOL0     H62684   5.901   6.895   6.615  0.3223  0.0671 -0.6775
  475MOL0     H62685   6.061   7.043   6.505 -0.3139  1.2857  0.9438
  475MOL0     H62686   7.795   7.366   5.711  1.3503  0.2451  0.5433
  475MOL0     H62687   7.975   7.547   5.759  0.4661 -2.1737 -2.0396
  475MOL0     H62688   7.921   8.191   5.885  0.9368 -0.4111  2.6249
  475MOL0     H62689   8.125   8.342   5.906 -2.6207  0.1726 -0.5731
  475MOL0     H62690   8.340   8.421   5.900 -1.6563 -1.3557 -0.8421
  475MOL0     H62691   8.296   8.420   5.730  0.0872 -1.1901 -1.4306
  475MOL0     H62692   8.525   8.551   5.790 -0.0428  0.1842 -0.1090
  475MOL0     H62693   8.584   8.390   5.822  2.6676  2.4329 -0.5023
  475MOL0     H62694   8.528   8.316   5.591 -2.5931 -0.0466  0.3864
  475MOL0     H62695   8.637   8.460   5.588  0.0738  2.2386  1.3133
  475MOL0     H62696   8.331   8.478   5.519  0.1196  0.3439  1.6187
  475MOL0     H62697   8.450   8.607   5.535  1.4916  1.3820 -4.3363
  475MOL0     H62698   8.581   8.476   5.163  1.2543  4.5021 -0.3018
  475MOL0     H62699   8.354   8.007   5.732 -1.1314 -3.8317  1.7714
  475MOL0     H62700   8.155   7.874   5.719  2.2825  1.9191 -1.5193
  476MOL0     O62701   2.840   2.020   4.221 -0.4601  0.2441  0.1259
  476MOL0     C62702   2.747   2.092   4.270  0.5158  0.5112  0.3957
  476MOL0     O62703   2.758   2.201   4.351  0.4318  0.5396  0.0241
  476MOL0     C62704   2.884   2.250   4.370  0.0214  0.7185 -0.4797
  476MOL0     C62705   2.986   2.181   4.436  0.2567  0.0036 -0.1338
  476MOL0     C62706   3.107   2.237   4.463 -0.5085  0.1243  0.1825
  476MOL0     C62707   3.127   2.376   4.441 -0.2623 -0.0155 -0.2819
  476MOL0     O62708   3.241   2.439   4.480  0.2466 -0.8423 -0.3673
  476MOL0     C62709   3.295   2.413   4.611 -0.2300 -0.7883 -1.1232
  476MOL0     C62710   3.407   2.509   4.643  0.1551  0.2742 -0.2348
  476MOL0     C62711   3.522   2.507   4.531  0.6281 -0.3100 -0.1235
  476MOL0     C62712   3.620   2.630   4.534  0.6299 -0.1659  0.7774
  476MOL0     C62713   3.709   2.597   4.409  0.9457  0.0326 -0.2059
  476MOL0     C62714   3.825   2.697   4.409 -0.5632  0.1021  0.7903
  476MOL0     C62715   3.907   2.657   4.286 -0.1362  0.4287  0.6173
  476MOL0     C62716   4.048   2.709   4.297  0.4608  0.5483 -0.1067
  476MOL0     N62717   4.060   2.852   4.321  0.4687  0.1832 -0.1913
  476MOL0     C62718   4.036   2.950   4.228  0.2730  0.2319  0.1334
  476MOL0     C62719   4.041   3.069   4.291  0.3930  0.2409 -0.5918
  476MOL0     C62720   4.003   3.213   4.256 -0.5969 -0.7602  0.4433
  476MOL0     C62721   3.917   3.295   4.350 -0.8529  0.3088  0.0947
  476MOL0     C62722   3.783   3.216   4.373 -0.4075 -0.2148 -0.1529
  476MOL0     C62723   3.694   3.299   4.464  0.1296 -1.3537 -0.5074
  476MOL0     O62724   3.597   3.210   4.517 -0.3218 -0.3625  0.1427
  476MOL0     C62725   3.495   3.257   4.592  0.3004 -0.4457  0.5122
  476MOL0     C62726   3.399   3.174   4.649  0.0219 -0.7377 -0.3572
  476MOL0     C62727   3.288   3.226   4.713  0.3066 -0.5650 -0.1937
  476MOL0     C62728   3.268   3.364   4.723 -0.3349  1.3474 -0.5227
  476MOL0     C62729   3.136   3.415   4.766  0.6400  0.8648 -0.3855
  476MOL0     O62730   3.029   3.319   4.786 -0.0578 -0.5471  0.6016
  476MOL0     C62731   2.899   3.347   4.759  0.1607 -0.7189  1.2447
  476MOL0     C62732   2.803   3.282   4.831  0.4287  0.0569  0.1851
  476MOL0     C62733   2.666   3.320   4.824  1.1596  0.6554 -1.0818
  476MOL0     C62734   2.624   3.408   4.732  0.2953  0.3496 -0.3629
  476MOL0     O62735   2.492   3.443   4.723  0.6877 -0.2115  0.3841
  476MOL0     C62736   2.448   3.509   4.599 -0.2596  0.3341 -0.2229
  476MOL0     C62737   2.297   3.497   4.601  0.0670  0.9048 -0.5493
  476MOL0     C62738   2.233   3.576   4.492 -0.0252  0.0174 -0.8003
  476MOL0     C62739   2.083   3.560   4.499  0.4186  0.1676 -0.3823
  476MOL0     C62740   2.032   3.429   4.438  0.0739  0.7212 -0.0134
  476MOL0     C62741   1.881   3.400   4.443  0.0040  0.9016 -0.2515
  476MOL0     C62742   1.844   3.285   4.361 -0.3561  0.0653  0.1909
  476MOL0     C62743   1.839   3.154   4.431  0.6158  0.3618  0.5487
  476MOL0    Cl62744   1.759   3.030   4.327  0.1655  0.1623 -0.2609
  476MOL0     C62745   2.725   3.478   4.654  0.2724  1.2432  0.9568
  476MOL0     C62746   2.859   3.445   4.671 -0.8706  0.3402  0.2796
  476MOL0     O62747   3.120   3.537   4.772 -0.4447  0.3412 -0.1415
  476MOL0     C62748   3.367   3.445   4.678 -0.6134  0.6897 -0.3567
  476MOL0     C62749   3.481   3.397   4.610  0.7211  0.7931  0.7051
  476MOL0     N62750   4.074   3.041   4.422 -0.1013 -0.9019  0.3182
  476MOL0     N62751   4.074   2.911   4.445 -0.5838 -0.8013  0.6955
  476MOL0     C62752   3.021   2.445   4.382 -0.4813 -0.3689  0.2392
  476MOL0     C62753   2.903   2.386   4.349  0.0428  0.1440 -0.4222
  476MOL0     C62754   2.604   2.041   4.250 -0.3856 -0.6055 -0.2213
  476MOL0     C62755   2.490   2.095   4.311  0.4606  0.0365 -0.4061
  476MOL0     C62756   2.360   2.035   4.300 -0.3822  0.7379 -0.2982
  476MOL0     C62757   2.341   1.924   4.218 -0.8360 -0.4550 -0.0491
  476MOL0     O62758   2.213   1.876   4.212  0.1646 -0.6865 -0.9367
  476MOL0     C62759   2.171   1.785   4.110  0.5191 -0.2378 -0.6100
  476MOL0     C62760   2.022   1.807   4.081  0.2449  0.4315 -0.1985
  476MOL0     C62761   1.941   1.785   4.208  0.0926 -0.2995 -0.7735
  476MOL0     C62762   1.895   1.634   4.219  0.7769  0.0618  0.4209
  476MOL0     C62763   1.787   1.635   4.320 -1.2677 -0.6288 -0.2730
  476MOL0     C62764   1.691   1.635   4.395 -0.2060  0.2276  0.1412
  476MOL0     C62765   2.449   1.880   4.148 -0.3459  0.2471  0.9169
  476MOL0     C62766   2.575   1.934   4.164 -0.0765  0.2772 -0.9597
  476MOL0     H62767   2.963   2.079   4.461  0.7776  0.0457  0.5317
  476MOL0     H62768   3.189   2.189   4.516  0.0252  2.0323  1.1842
  476MOL0     H62769   3.335   2.311   4.610 -1.6664 -1.3732 -1.8587
  476MOL0     H62770   3.217   2.418   4.688 -0.9689 -0.7184 -1.8679
  476MOL0     H62771   3.452   2.488   4.740  3.2971  3.1863 -0.8699
  476MOL0     H62772   3.367   2.610   4.655  0.0075 -0.0319  2.4016
  476MOL0     H62773   3.470   2.518   4.436  1.8950 -3.2221 -1.2748
  476MOL0     H62774   3.572   2.410   4.534  2.1098  0.4394 -0.0276
  476MOL0     H62775   3.572   2.727   4.521 -0.0210 -0.6941 -1.1017
  476MOL0     H62776   3.673   2.641   4.629 -1.8199  0.1314  2.1751
  476MOL0     H62777   3.644   2.603   4.321 -0.5261  0.5402  0.8568
  476MOL0     H62778   3.750   2.497   4.423  0.1840 -0.1168  1.1587
  476MOL0     H62779   3.877   2.677   4.504  1.2548  0.8853  0.0049
  476MOL0     H62780   3.802   2.803   4.403 -2.2454 -0.2729  0.3156
  476MOL0     H62781   3.916   2.548   4.290  1.3508  0.4228 -1.5662
  476MOL0     H62782   3.861   2.686   4.191  0.0699 -2.4418 -0.4667
  476MOL0     H62783   4.089   2.680   4.200  0.3752 -3.5784  0.8919
  476MOL0     H62784   4.094   2.656   4.381 -0.2893  0.4965  0.2799
  476MOL0     H62785   4.002   2.946   4.125 -0.1029  4.4464 -0.0792
  476MOL0     H62786   3.949   3.204   4.161  1.7583  2.0917 -1.3598
  476MOL0     H62787   4.096   3.269   4.237 -0.9290 -0.3523  0.0044
  476MOL0     H62788   3.889   3.398   4.324  0.0443  0.0970 -1.8932
  476MOL0     H62789   3.962   3.305   4.450  3.1327  2.2064 -1.6586
  476MOL0     H62790   3.732   3.184   4.281 -3.5149  1.2969  0.8910
  476MOL0     H62791   3.795   3.123   4.429 -0.1803  1.1234  2.1295
  476MOL0     H62792   3.648   3.386   4.416  1.4330  2.9124  4.9485
  476MOL0     H62793   3.753   3.343   4.545  1.7992 -0.1782 -2.2680
  476MOL0     H62794   3.410   3.066   4.645 -0.6737 -0.8055 -0.4104
  476MOL0     H62795   3.207   3.165   4.751 -2.2258  1.5669 -1.7917
  476MOL0     H62796   2.843   3.220   4.910  0.9774  1.2188  0.8535
  476MOL0     H62797   2.604   3.268   4.896  3.1951 -0.1091  0.2059
  476MOL0     H62798   2.483   3.449   4.515 -0.2885  0.2406 -0.1696
  476MOL0     H62799   2.483   3.612   4.597  0.0674  0.3049  1.7556
  476MOL0     H62800   2.268   3.546   4.694  1.6933 -0.0668  0.5129
  476MOL0     H62801   2.261   3.395   4.594 -0.4292  1.0021  0.4319
  476MOL0     H62802   2.275   3.534   4.400 -0.3683 -3.2689  0.4234
  476MOL0     H62803   2.256   3.683   4.495 -0.2570  0.0480 -0.0234
  476MOL0     H62804   2.054   3.569   4.604 -0.4009 -1.0962 -0.4804
  476MOL0     H62805   2.032   3.641   4.446 -0.3541  0.0206  0.1330
  476MOL0     H62806   2.080   3.343   4.485  1.7387  2.6434  2.0341
  476MOL0     H62807   2.055   3.423   4.331 -2.0748 -1.4198 -0.4406
  476MOL0     H62808   1.818   3.481   4.407 -1.7913 -0.2668  0.1287
  476MOL0     H62809   1.860   3.376   4.548 -0.0653  1.1562 -0.2059
  476MOL0     H62810   1.742   3.295   4.321 -0.1617 -0.5013 -0.4717
  476MOL0     H62811   1.916   3.267   4.280 -0.1647  0.9380  0.1618
  476MOL0     H62812   1.793   3.167   4.530  3.7235 -1.7855  2.4307
  476MOL0     H62813   1.935   3.110   4.459  0.0038 -1.2393  0.2745
  476MOL0     H62814   2.699   3.547   4.575  0.2195  0.2236  0.0632
  476MOL0     H62815   2.939   3.495   4.619  0.5013  0.9545  2.8338
  476MOL0     H62816   3.348   3.551   4.693 -1.0606  0.6552 -0.6651
  476MOL0     H62817   3.545   3.473   4.566  0.0563  2.0599  1.8577
  476MOL0     H62818   3.037   2.552   4.370 -0.9256 -0.1825  1.1560
  476MOL0     H62819   2.832   2.452   4.302  0.0352  1.2342  1.0439
  476MOL0     H62820   2.496   2.189   4.365  1.8141  0.4255 -1.2145
  476MOL0     H62821   2.269   2.082   4.335 -0.5207  1.5557 -1.6927
  476MOL0     H62822   2.183   1.681   4.144 -0.6412 -0.3065 -0.3429
  476MOL0     H62823   2.221   1.798   4.014 -0.3552 -0.2673 -1.0857
  476MOL0     H62824   2.011   1.913   4.059 -0.9981 -0.1169 -2.5554
  476MOL0     H62825   1.982   1.755   3.993 -0.0885  2.3682 -1.2372
  476MOL0     H62826   1.866   1.864   4.207 -1.3337 -1.6199 -0.6155
  476MOL0     H62827   1.997   1.816   4.296  0.5104 -0.5448 -0.9469
  476MOL0     H62828   1.853   1.624   4.119  0.4014  0.6884  0.5047
  476MOL0     H62829   1.970   1.564   4.256  0.0376  0.6152  3.2546
  476MOL0     H62830   1.609   1.619   4.463 -3.5060  2.6604 -2.8818
  476MOL0     H62831   2.441   1.795   4.081 -3.6498 -0.0636  1.5370
  476MOL0     H62832   2.653   1.871   4.122  0.5689  1.3505 -1.4038
  477MOL0     O62833   5.064   7.917   4.533  0.3470  0.0942 -0.1452
  477MOL0     C62834   5.091   8.029   4.576 -0.2309  0.2675 -0.0915
  477MOL0     O62835   5.025   8.081   4.673  0.0154 -0.1732 -0.5414
  477MOL0     C62836   4.931   8.006   4.739  0.2048 -0.1875  1.0700
  477MOL0     C62837   4.804   8.064   4.746  0.2601 -0.2737 -0.4605
  477MOL0     C62838   4.699   8.001   4.814  0.0093 -0.3105 -0.2131
  477MOL0     C62839   4.717   7.872   4.881 -0.3300 -0.2054  0.1588
  477MOL0     O62840   4.630   7.795   4.951  0.8569  0.3017 -0.2913
  477MOL0     C62841   4.494   7.847   4.961  0.3291 -0.3595  1.0405
  477MOL0     C62842   4.423   7.772   5.071  0.0933  0.5373  0.3288
  477MOL0     C62843   4.292   7.820   5.126  0.5713 -0.1023  0.5972
  477MOL0     C62844   4.245   7.723   5.232  0.2561 -0.7613  0.3159
  477MOL0     C62845   4.095   7.747   5.282  0.5207 -0.0902 -0.1319
  477MOL0     C62846   4.032   7.629   5.357 -0.5306 -0.1727  0.2659
  477MOL0     C62847   4.111   7.591   5.485  0.5178 -0.3044  0.2063
  477MOL0     C62848   4.066   7.471   5.568  0.4168 -0.4194 -1.2098
  477MOL0     N62849   3.928   7.493   5.628  0.4972 -0.3022  0.4193
  477MOL0     C62850   3.804   7.520   5.568 -0.6511  0.0009  0.3916
  477MOL0     C62851   3.709   7.510   5.658  0.1537  0.2999 -0.3394
  477MOL0     C62852   3.558   7.500   5.647  0.2531 -0.7387  0.9457
  477MOL0     C62853   3.528   7.375   5.564 -0.3190  0.2310  0.1482
  477MOL0     C62854   3.397   7.389   5.493  0.4424 -0.3113  0.2189
  477MOL0     C62855   3.341   7.264   5.427 -0.2913  0.8028  0.3572
  477MOL0     O62856   3.232   7.277   5.332 -0.4183 -0.8309 -0.2531
  477MOL0     C62857   3.102   7.291   5.375  0.4085 -0.2933 -0.8351
  477MOL0     C62858   3.071   7.297   5.513  0.7474  0.2285 -0.0485
  477MOL0     C62859   2.934   7.293   5.560  1.4641 -0.1384  0.6681
  477MOL0     C62860   2.828   7.295   5.461  0.0552  0.8611 -0.6165
  477MOL0     C62861   2.695   7.317   5.507  0.3040 -0.5953 -1.0418
  477MOL0     O62862   2.594   7.318   5.420  0.2757  0.0775 -0.0150
  477MOL0     C62863   2.466   7.360   5.443 -0.8763  1.0746 -0.4336
  477MOL0     C62864   2.369   7.299   5.366 -0.4007 -0.3070 -0.3459
  477MOL0     C62865   2.237   7.347   5.372  0.4222 -0.2975 -0.7711
  477MOL0     C62866   2.202   7.442   5.468  0.2817 -0.3651  0.9047
  477MOL0     O62867   2.064   7.464   5.484  0.3535 -0.3329  0.5832
  477MOL0     C62868   2.018   7.575   5.559 -0.1574 -0.6245 -0.2914
  477MOL0     C62869   2.004   7.536   5.709 -1.1856 -0.4860 -0.0897
  477MOL0     C62870   1.987   7.671   5.781 -0.2695  0.8902 -0.2878
  477MOL0     C62871   2.125   7.717   5.834 -0.0551  0.3065 -0.8003
  477MOL0     C62872   2.157   7.856   5.777 -0.1293  0.8311  0.0263
  477MOL0     C62873   2.286   7.907   5.837  0.4748  0.1534 -0.3940
  477MOL0     C62874   2.347   8.024   5.763  0.5516  0.6244  0.6541
  477MOL0     C62875   2.453   8.084   5.845 -0.0520 -0.5655 -0.6622
  477MOL0    Cl62876   2.593   7.989   5.814  0.0120 -0.1686  0.5260
  477MOL0     C62877   2.297   7.505   5.549  0.6131  0.3142 -0.1182
  477MOL0     C62878   2.430   7.459   5.541  0.4371  0.3475  0.8679
  477MOL0     O62879   2.673   7.319   5.625  0.7845  0.1781 -0.4388
  477MOL0     C62880   2.863   7.302   5.319  0.5328 -0.4932 -0.3065
  477MOL0     C62881   2.999   7.294   5.277  0.0518  0.1677  0.6516
  477MOL0     N62882   3.768   7.463   5.775  0.1120 -0.7395 -0.7405
  477MOL0     N62883   3.897   7.456   5.752  0.3145 -0.0854 -0.9283
  477MOL0     C62884   4.840   7.810   4.859  0.3439  0.1570  0.9254
  477MOL0     C62885   4.936   7.876   4.784 -0.5328  1.0779 -0.4871
  477MOL0     C62886   5.213   8.093   4.523  0.1712 -0.0613  0.1331
  477MOL0     C62887   5.215   8.237   4.528  0.3009 -0.0520 -1.4576
  477MOL0     C62888   5.335   8.302   4.491 -0.6976 -0.0599  0.9962
  477MOL0     C62889   5.440   8.230   4.424 -0.9173  0.4701 -0.4721
  477MOL0     O62890   5.555   8.294   4.378  0.0304 -0.4156  0.6903
  477MOL0     C62891   5.579   8.417   4.434 -0.0691 -0.1581 -0.7362
  477MOL0     C62892   5.722   8.452   4.396 -0.4183 -0.1400  0.0508
  477MOL0     C62893   5.812   8.406   4.499 -1.1564 -0.4749 -0.0819
  477MOL0     C62894   5.962   8.394   4.459 -0.2392  0.1062  0.6519
  477MOL0     C62895   6.011   8.532   4.452  0.3569  0.2279  0.7065
  477MOL0     C62896   6.053   8.646   4.442  0.4657 -0.6684 -0.9698
  477MOL0     C62897   5.434   8.090   4.410 -0.5542 -0.4007 -0.3567
  477MOL0     C62898   5.322   8.022   4.466  0.0395  0.0121 -0.2572
  477MOL0     H62899   4.765   8.150   4.691 -2.5866 -0.9512  0.3270
  477MOL0     H62900   4.598   8.039   4.804 -0.0040 -0.7960 -2.3660
  477MOL0     H62901   4.436   7.834   4.869 -0.9785 -2.0373  2.0292
  477MOL0     H62902   4.492   7.955   4.978 -2.8217 -0.2100  0.3182
  477MOL0     H62903   4.483   7.765   5.163 -1.9700  2.4392  1.9589
  477MOL0     H62904   4.405   7.669   5.039 -1.4041  0.8914 -0.0350
  477MOL0     H62905   4.214   7.814   5.050 -0.4418  4.6210  0.9518
  477MOL0     H62906   4.284   7.925   5.155 -1.2174  0.1767 -0.7369
  477MOL0     H62907   4.250   7.623   5.189  0.4149 -0.4301 -0.4604
  477MOL0     H62908   4.312   7.733   5.318 -0.7502  0.4360  1.0023
  477MOL0     H62909   4.046   7.765   5.185  0.7707  1.2503 -0.0326
  477MOL0     H62910   4.084   7.836   5.344 -1.8469 -2.5118  3.2893
  477MOL0     H62911   4.033   7.550   5.281  0.8548  1.6872 -1.7586
  477MOL0     H62912   3.927   7.638   5.387  0.3031 -0.6303  3.6359
  477MOL0     H62913   4.218   7.589   5.459  0.4369  0.8165 -0.2365
  477MOL0     H62914   4.116   7.679   5.549  0.6868  1.3531 -1.9683
  477MOL0     H62915   4.137   7.451   5.649 -0.6432  1.6435  0.3408
  477MOL0     H62916   4.069   7.385   5.502  5.4651 -3.4222  2.2193
  477MOL0     H62917   3.783   7.535   5.463  0.7587 -3.1712 -0.4690
  477MOL0     H62918   3.523   7.591   5.596  1.9878 -0.4418  0.2353
  477MOL0     H62919   3.510   7.498   5.746 -0.6101 -1.0465  0.5329
  477MOL0     H62920   3.526   7.283   5.623  0.0261 -0.6734 -1.1918
  477MOL0     H62921   3.602   7.359   5.484 -1.8519 -1.5838 -0.9838
  477MOL0     H62922   3.321   7.418   5.566 -0.5942 -0.7186 -0.6712
  477MOL0     H62923   3.411   7.469   5.419  5.3063  0.1540  1.3258
  477MOL0     H62924   3.316   7.195   5.508 -2.5440 -0.0485 -0.9784
  477MOL0     H62925   3.426   7.220   5.374  0.0061  2.9694 -1.1304
  477MOL0     H62926   3.141   7.310   5.594  0.5492 -1.6507  0.4582
  477MOL0     H62927   2.902   7.295   5.664 -0.7265  1.4655  0.0371
  477MOL0     H62928   2.386   7.222   5.290 -1.5883 -1.1371  0.2167
  477MOL0     H62929   2.150   7.306   5.321  0.0775 -0.3201 -0.1690
  477MOL0     H62930   1.920   7.603   5.519  1.3407  2.9545 -1.8281
  477MOL0     H62931   2.092   7.654   5.552 -0.4882 -0.0143  2.2390
  477MOL0     H62932   2.087   7.472   5.738  0.1208  0.1567 -2.1982
  477MOL0     H62933   1.916   7.473   5.723 -0.9479 -1.2059 -1.6372
  477MOL0     H62934   1.938   7.649   5.877  0.5025  0.3988  0.0056
  477MOL0     H62935   1.932   7.743   5.720 -1.4846  0.4405  0.2423
  477MOL0     H62936   2.115   7.722   5.943 -1.3593 -3.7880 -0.5849
  477MOL0     H62937   2.207   7.648   5.812 -0.4858 -0.7754  0.7949
  477MOL0     H62938   2.085   7.934   5.805 -0.6210 -0.1949  1.8218
  477MOL0     H62939   2.178   7.843   5.671  2.8303 -1.3735  0.7419
  477MOL0     H62940   2.368   7.834   5.839  0.0342 -0.3564  1.3485
  477MOL0     H62941   2.271   7.941   5.940 -2.5133  2.5773 -1.4958
  477MOL0     H62942   2.385   7.983   5.669 -1.6521 -4.6132  1.6989
  477MOL0     H62943   2.265   8.092   5.739  0.4713 -0.1418 -1.4555
  477MOL0     H62944   2.432   8.088   5.953  0.1643 -0.2646 -0.6288
  477MOL0     H62945   2.466   8.182   5.799  2.8528  0.0356  1.1690
  477MOL0     H62946   2.268   7.583   5.618 -1.3329 -1.8139  1.6328
  477MOL0     H62947   2.505   7.492   5.612  0.9366  0.4482  0.2934
  477MOL0     H62948   2.782   7.320   5.249 -0.6136 -0.9179  0.8639
  477MOL0     H62949   3.025   7.284   5.172 -0.4742  1.4952  0.3720
  477MOL0     H62950   4.856   7.711   4.900  0.7402 -0.1316  0.0774
  477MOL0     H62951   5.032   7.828   4.767 -0.4715  1.7511 -2.1852
  477MOL0     H62952   5.138   8.294   4.578  0.2476 -0.2969 -1.2561
  477MOL0     H62953   5.331   8.408   4.512 -1.5158  0.3141 -0.8494
  477MOL0     H62954   5.562   8.437   4.541 -1.6394  2.5660 -1.4139
  477MOL0     H62955   5.513   8.484   4.380 -0.8870  0.8992  1.4565
  477MOL0     H62956   5.745   8.413   4.296  3.3644 -2.5070  1.5966
  477MOL0     H62957   5.749   8.557   4.380  0.6523 -0.3971  0.0604
  477MOL0     H62958   5.791   8.302   4.526  0.4012 -2.1547 -4.4670
  477MOL0     H62959   5.804   8.468   4.589 -0.1221  0.0772 -0.3456
  477MOL0     H62960   6.015   8.339   4.537 -0.9624 -0.4870  0.7423
  477MOL0     H62961   5.955   8.340   4.364 -1.5448 -0.3704  0.9952
  477MOL0     H62962   6.085   8.748   4.444 -2.4267  0.3073 -0.4270
  477MOL0     H62963   5.519   8.044   4.362  0.3342  0.8124  0.0019
  477MOL0     H62964   5.296   7.917   4.470 -0.0598  0.0743  0.9016
  478MOL0     O62965   9.501   5.464   1.102  0.3001 -0.3826  0.8437
  478MOL0     C62966   9.556   5.363   1.058 -0.0991 -0.2373  0.5522
  478MOL0     O62967   9.493   5.250   0.995  0.2943 -0.1445 -0.0227
  478MOL0     C62968   9.358   5.258   0.977  0.0046  0.5474  0.8268
  478MOL0     C62969   9.298   5.359   0.899 -0.0413 -0.3621  0.5440
  478MOL0     C62970   9.169   5.341   0.853  0.5618  0.5874  0.5421
  478MOL0     C62971   9.090   5.240   0.905 -0.4954 -0.0906  0.0537
  478MOL0     O62972   8.963   5.228   0.871  0.1114 -0.6809 -0.5217
  478MOL0     C62973   8.879   5.286   0.968 -0.2766 -0.2859 -0.9183
  478MOL0     C62974   8.741   5.229   0.974 -0.1347 -0.1978 -0.6050
  478MOL0     C62975   8.664   5.255   0.845  0.4383 -0.0257  0.2446
  478MOL0     C62976   8.509   5.231   0.851 -0.0858  0.1515  0.2090
  478MOL0     C62977   8.452   5.280   0.718 -0.8735  0.1784  0.2510
  478MOL0     C62978   8.302   5.270   0.717 -0.1120 -0.1760  0.5113
  478MOL0     C62979   8.241   5.135   0.716 -0.3008 -0.0749 -0.1446
  478MOL0     C62980   8.097   5.150   0.680  0.5996  0.9363 -0.8770
  478MOL0     N62981   8.016   5.019   0.691 -0.2166  1.0238  0.2027
  478MOL0     C62982   7.963   4.960   0.805 -1.3265  0.5017  0.9756
  478MOL0     C62983   7.878   4.865   0.767  0.3051 -0.2133  0.3519
  478MOL0     C62984   7.795   4.796   0.873  0.7282 -0.5251 -0.1589
  478MOL0     C62985   7.695   4.894   0.928  1.0030  0.4333 -1.1307
  478MOL0     C62986   7.611   4.843   1.044 -0.7033  0.1321  0.5533
  478MOL0     C62987   7.535   4.721   1.005  0.2008 -0.2700  0.3251
  478MOL0     O62988   7.449   4.735   0.893 -0.4726  0.2623 -0.0839
  478MOL0     C62989   7.378   4.624   0.848 -0.1848 -0.4087 -0.2902
  478MOL0     C62990   7.313   4.538   0.941 -0.1276 -0.0678 -0.3418
  478MOL0     C62991   7.217   4.436   0.910 -0.0821 -0.4058 -0.6467
  478MOL0     C62992   7.191   4.423   0.773 -0.3244 -0.6528  0.0003
  478MOL0     C62993   7.103   4.311   0.727  0.4146  0.8335 -0.1286
  478MOL0     O62994   7.027   4.233   0.822 -0.0831 -0.4858 -0.1175
  478MOL0     C62995   6.899   4.177   0.792 -0.2211  0.3963  0.0171
  478MOL0     C62996   6.848   4.079   0.882 -0.3361  0.3499 -0.1971
  478MOL0     C62997   6.732   4.017   0.848  0.3154  0.7479 -0.0354
  478MOL0     C62998   6.651   4.046   0.739 -0.7908 -0.6386  0.0192
  478MOL0     O62999   6.538   3.968   0.720  0.8590 -0.0888  0.3086
  478MOL0     C63000   6.422   4.008   0.635 -0.8299 -0.1580  0.6837
  478MOL0     C63001   6.313   3.910   0.624 -0.1201  0.5772  0.2339
  478MOL0     C63002   6.246   3.888   0.759  0.2820 -0.7891  0.1166
  478MOL0     C63003   6.149   3.765   0.761  0.4485  0.0198  0.6587
  478MOL0     C63004   6.097   3.750   0.908  0.1869  0.3178  0.3334
  478MOL0     C63005   6.044   3.611   0.922 -0.6651 -0.6563 -0.6243
  478MOL0     C63006   6.000   3.568   1.059 -0.2198 -0.8885 -0.0437
  478MOL0     C63007   5.868   3.637   1.095  0.0336 -0.2263 -0.1430
  478MOL0    Cl63008   5.726   3.576   1.001  0.0941 -0.4764 -0.0704
  478MOL0     C63009   6.698   4.149   0.654 -0.8193  0.7266 -0.9508
  478MOL0     C63010   6.820   4.214   0.685 -0.3143  0.1023 -0.3651
  478MOL0     O63011   7.079   4.313   0.608 -0.1546 -0.5143  0.7316
  478MOL0     C63012   7.247   4.512   0.683 -0.8615 -0.2388  0.5802
  478MOL0     C63013   7.340   4.614   0.715  0.1049 -0.2010 -0.7358
  478MOL0     N63014   7.875   4.863   0.623  0.3765 -0.6019  0.0279
  478MOL0     N63015   7.967   4.941   0.589 -0.6895 -0.3829  0.2101
  478MOL0     C63016   9.144   5.143   0.996 -0.3222 -0.2591 -0.1948
  478MOL0     C63017   9.282   5.148   1.025  0.0872  0.1570 -0.1777
  478MOL0     C63018   9.703   5.349   1.053 -0.4068  0.3158  0.9267
  478MOL0     C63019   9.792   5.455   1.084  0.2247 -0.0162  0.5777
  478MOL0     C63020   9.926   5.432   1.091  0.2567 -0.2435  0.3771
  478MOL0     C63021   9.975   5.303   1.071 -0.7625 -0.1182 -0.2254
  478MOL0     O63022  10.111   5.271   1.082  0.1342 -0.2395  0.4293
  478MOL0     C63023  10.205   5.367   1.136  0.3870 -0.5915  0.0603
  478MOL0     C63024  10.335   5.299   1.185  0.6771  0.3862 -0.5744
  478MOL0     C63025  10.421   5.384   1.278 -0.3971 -0.8232 -0.0491
  478MOL0     C63026  10.430   5.525   1.231 -0.9640 -0.5627  1.5954
  478MOL0     C63027  10.519   5.600   1.312 -0.2041  0.7927 -0.1737
  478MOL0     C63028  10.597   5.653   1.389 -0.7779 -0.8578 -0.9575
  478MOL0     C63029   9.891   5.196   1.038  0.5037 -0.6490 -0.1734
  478MOL0     C63030   9.758   5.221   1.018  0.6578  0.0601  0.3022
  478MOL0     H63031   9.346   5.445   0.854 -3.2507  0.1446 -2.3894
  478MOL0     H63032   9.119   5.407   0.783 -2.1343 -2.4915 -0.6894
  478MOL0     H63033   8.877   5.395   0.959  0.6923 -0.2340 -0.5693
  478MOL0     H63034   8.927   5.262   1.063 -2.1452 -1.3079 -0.1761
  478MOL0     H63035   8.683   5.280   1.052 -1.1723  0.5359 -1.8174
  478MOL0     H63036   8.742   5.122   0.996 -1.2516 -0.6103 -2.3867
  478MOL0     H63037   8.711   5.184   0.777  1.2793 -0.0661  0.8515
  478MOL0     H63038   8.685   5.353   0.800 -4.6052  0.8382 -0.8317
  478MOL0     H63039   8.495   5.123   0.864 -1.5571  0.2206 -0.5717
  478MOL0     H63040   8.465   5.282   0.937 -1.6767  0.1728 -0.5939
  478MOL0     H63041   8.501   5.221   0.641  1.5762  1.5680  0.6299
  478MOL0     H63042   8.470   5.386   0.696 -2.9843  0.3681 -0.8630
  478MOL0     H63043   8.269   5.314   0.622  1.4716 -1.3741 -0.6459
  478MOL0     H63044   8.259   5.322   0.803  0.5869 -0.6399  1.1589
  478MOL0     H63045   8.299   5.080   0.641  0.0741 -0.0842  0.1457
  478MOL0     H63046   8.264   5.090   0.813  1.6054  0.6707 -0.2001
  478MOL0     H63047   8.092   5.188   0.578 -1.7694  2.1493 -0.3689
  478MOL0     H63048   8.051   5.230   0.737 -2.9746 -0.5075 -1.5012
  478MOL0     H63049   7.989   4.986   0.908 -0.4049  0.7644  0.6823
  478MOL0     H63050   7.862   4.764   0.954  0.9365  1.1897  0.3775
  478MOL0     H63051   7.752   4.710   0.821  5.3423 -3.7474  0.6613
  478MOL0     H63052   7.628   4.930   0.849  0.5041  2.7690  0.2841
  478MOL0     H63053   7.750   4.983   0.959  0.7458  0.4683 -0.7703
  478MOL0     H63054   7.687   4.813   1.117 -0.4864 -0.1943  0.1953
  478MOL0     H63055   7.542   4.920   1.079 -2.2974  0.3739 -2.7472
  478MOL0     H63056   7.493   4.690   1.101  2.0045 -1.1865  0.8717
  478MOL0     H63057   7.614   4.650   0.979 -0.1695  0.5880 -3.7409
  478MOL0     H63058   7.337   4.567   1.043 -1.1570  0.7542 -0.3204
  478MOL0     H63059   7.167   4.377   0.986 -0.5593  0.3797 -0.3351
  478MOL0     H63060   6.912   4.060   0.967 -0.4359 -0.7544 -0.3439
  478MOL0     H63061   6.690   3.934   0.905 -0.2310  1.6498  0.9196
  478MOL0     H63062   6.460   4.036   0.537 -1.3953 -0.8659  0.2607
  478MOL0     H63063   6.377   4.094   0.686  0.8133  1.1803 -0.0078
  478MOL0     H63064   6.363   3.817   0.595  0.7681  1.8526 -2.6135
  478MOL0     H63065   6.239   3.937   0.549 -3.4751 -0.7993  2.7724
  478MOL0     H63066   6.195   3.979   0.793 -1.6060 -2.5179  2.1941
  478MOL0     H63067   6.331   3.875   0.826  1.6487  2.7738 -0.6599
  478MOL0     H63068   6.065   3.797   0.699 -0.8417 -1.7998  1.3984
  478MOL0     H63069   6.192   3.673   0.721 -1.5276  0.5247 -3.0229
  478MOL0     H63070   6.024   3.832   0.916  1.4641  1.4246  1.0510
  478MOL0     H63071   6.172   3.771   0.985 -1.4172  1.1729  1.7256
  478MOL0     H63072   6.122   3.547   0.879  0.5420  1.2446 -1.3983
  478MOL0     H63073   5.963   3.602   0.848 -1.2838  1.2796 -0.2399
  478MOL0     H63074   5.980   3.461   1.053 -0.8064 -0.7541 -0.6144
  478MOL0     H63075   6.078   3.599   1.129  0.1826  3.7693 -2.1953
  478MOL0     H63076   5.870   3.745   1.079 -0.9120  0.1428  1.8770
  478MOL0     H63077   5.848   3.620   1.201  0.6226  2.7042  0.5084
  478MOL0     H63078   6.641   4.177   0.566 -0.2643  1.7258 -0.9994
  478MOL0     H63079   6.857   4.279   0.607  1.2684 -0.5708 -0.2096
  478MOL0     H63080   7.232   4.497   0.577 -2.8891 -0.9565  0.9229
  478MOL0     H63081   7.374   4.690   0.646  1.1831  0.8722  0.9124
  478MOL0     H63082   9.083   5.063   1.037 -1.6484  1.0323  0.4896
  478MOL0     H63083   9.333   5.069   1.080  1.3297  2.1105  1.6826
  478MOL0     H63084   9.757   5.557   1.093  0.1443  0.2660 -2.0919
  478MOL0     H63085   9.980   5.526   1.100  0.2493 -0.2786  0.8513
  478MOL0     H63086  10.163   5.413   1.226 -0.3168  1.1538 -1.1022
  478MOL0     H63087  10.226   5.450   1.067 -0.0811 -0.5455 -0.0292
  478MOL0     H63088  10.313   5.202   1.231  1.8305 -1.2290 -3.1779
  478MOL0     H63089  10.393   5.262   1.100 -1.9415 -0.5743 -2.0592
  478MOL0     H63090  10.521   5.339   1.285 -0.4599 -0.8530  0.8240
  478MOL0     H63091  10.391   5.399   1.382 -0.7293  5.2534 -0.6598
  478MOL0     H63092  10.465   5.537   1.128 -1.1743 -1.5336  1.4099
  478MOL0     H63093  10.334   5.578   1.235 -1.7962 -1.6169 -1.4122
  478MOL0     H63094  10.671   5.703   1.448 -1.4458 -2.5892  1.4646
  478MOL0     H63095   9.923   5.097   1.005  2.4396  0.4270 -1.7370
  478MOL0     H63096   9.706   5.136   0.974 -0.6253  1.3901 -0.8604
  479MOL0     O63097   5.353   7.654   9.656 -0.2503  0.2607 -0.4036
  479MOL0     C63098   5.300   7.540   9.679  0.1103 -0.7596  0.6739
  479MOL0     O63099   5.349   7.417   9.625 -0.0255  0.3838  0.0995
  479MOL0     C63100   5.463   7.394   9.562 -0.2791  0.3604  0.5170
  479MOL0     C63101   5.581   7.462   9.596 -0.4847 -0.3855  0.0359
  479MOL0     C63102   5.704   7.438   9.524  0.0380 -0.8150 -0.1021
  479MOL0     C63103   5.701   7.371   9.405 -0.3474  0.3319 -0.2181
  479MOL0     O63104   5.803   7.363   9.319 -0.7429  0.1097  0.0808
  479MOL0     C63105   5.933   7.411   9.362  0.4639 -0.1391  1.2543
  479MOL0     C63106   6.029   7.429   9.249 -0.7527  0.8795 -0.1617
  479MOL0     C63107   6.173   7.458   9.309  0.2824  0.1515 -0.1920
  479MOL0     C63108   6.265   7.528   9.210 -0.4681  0.2465  0.1778
  479MOL0     C63109   6.405   7.571   9.263 -0.2883  0.0965 -0.3638
  479MOL0     C63110   6.500   7.463   9.323 -1.0801  0.3952  0.3504
  479MOL0     C63111   6.503   7.328   9.247  0.1360 -0.0946  0.3821
  479MOL0     C63112   6.558   7.219   9.329 -0.5269  0.2428  0.4804
  479MOL0     N63113   6.464   7.168   9.425  0.0565  0.3203 -0.1342
  479MOL0     C63114   6.374   7.065   9.398  0.2232  0.1722  0.2114
  479MOL0     C63115   6.312   7.047   9.516  1.4443 -0.5527 -0.0807
  479MOL0     C63116   6.221   6.947   9.579 -0.7008 -0.3914  0.4723
  479MOL0     C63117   6.074   6.960   9.560  0.7215 -0.2764 -0.9990
  479MOL0     C63118   6.031   7.102   9.623 -0.7733 -0.2774 -0.7143
  479MOL0     C63119   5.887   7.123   9.649 -0.5236  0.3116  0.6277
  479MOL0     O63120   5.849   7.010   9.725 -0.4148  0.6202  0.3737
  479MOL0     C63121   5.718   6.971   9.749  0.3546 -1.1591 -0.2625
  479MOL0     C63122   5.612   7.056   9.721 -0.1343 -0.0369 -0.0311
  479MOL0     C63123   5.485   7.016   9.749  0.4771  0.3911  0.2962
  479MOL0     C63124   5.465   6.890   9.814 -0.1036  1.0088  0.3893
  479MOL0     C63125   5.324   6.842   9.837  0.0828 -0.3032 -0.6624
  479MOL0     O63126   5.225   6.925   9.791  0.5136  0.2128  0.2508
  479MOL0     C63127   5.097   6.922   9.837 -0.5153  0.6539  0.0406
  479MOL0     C63128   5.013   7.001   9.768 -0.2319 -0.1451  0.0657
  479MOL0     C63129   4.874   7.011   9.796  0.1013  0.0765  0.0043
  479MOL0     C63130   4.828   6.935   9.905 -0.5122 -0.9827 -0.4170
  479MOL0     O63131   4.691   6.947   9.942 -0.0187 -0.0011  0.3308
  479MOL0     C63132   4.609   6.849   9.882  0.0395 -0.4749 -0.0843
  479MOL0     C63133   4.465   6.905   9.891  0.2905  0.2038  0.3623
  479MOL0     C63134   4.365   6.793   9.877  0.2395 -0.1798  0.4000
  479MOL0     C63135   4.241   6.844   9.953 -0.0112 -0.5299  0.0072
  479MOL0     C63136   4.245   6.836  10.105  0.2185  0.0759  1.1353
  479MOL0     C63137   4.111   6.884  10.160  0.9920  0.3733  0.0781
  479MOL0     C63138   3.986   6.787  10.159 -0.4057  0.2233  0.1417
  479MOL0     C63139   3.869   6.862  10.240 -0.2604  0.2900 -0.6058
  479MOL0    Cl63140   3.902   6.872  10.407  0.4829  0.0449 -0.1999
  479MOL0     C63141   4.909   6.857   9.987  0.0957 -0.4000 -0.6757
  479MOL0     C63142   5.042   6.839   9.947 -0.1634 -0.6106 -0.0203
  479MOL0     O63143   5.303   6.738   9.899  0.4871  0.2679  0.1968
  479MOL0     C63144   5.570   6.806   9.848  0.1228 -0.0630 -0.3752
  479MOL0     C63145   5.703   6.852   9.817 -0.3070 -0.6122  1.1010
  479MOL0     N63146   6.353   7.152   9.599 -0.5947  0.0771 -0.0345
  479MOL0     N63147   6.447   7.216   9.548 -0.3472  0.2950  0.2475
  479MOL0     C63148   5.581   7.309   9.369  0.1660  0.3315  0.6147
  479MOL0     C63149   5.470   7.321   9.448  0.6602 -0.0557 -0.1437
  479MOL0     C63150   5.174   7.538   9.745  0.5838  0.6077 -1.2339
  479MOL0     C63151   5.113   7.657   9.795 -0.0332  0.7288  0.1889
  479MOL0     C63152   4.995   7.654   9.868 -0.2493  1.1132 -0.0941
  479MOL0     C63153   4.918   7.542   9.883 -0.9304 -0.4920  0.3490
  479MOL0     O63154   4.791   7.555   9.946  0.0023 -0.2853  0.3747
  479MOL0     C63155   4.699   7.444   9.930  0.2685  0.0923  0.5057
  479MOL0     C63156   4.550   7.498   9.937 -0.0097 -0.8711  0.4220
  479MOL0     C63157   4.508   7.567  10.062 -0.7465 -0.9697 -0.3700
  479MOL0     C63158   4.551   7.717  10.056 -0.1575  0.6509  0.1962
  479MOL0     C63159   4.448   7.794   9.983  0.6341  0.2454  0.1547
  479MOL0     C63160   4.363   7.860   9.914  0.7124  0.3694  0.3750
  479MOL0     C63161   4.969   7.422   9.822  0.8452 -0.2693 -0.6018
  479MOL0     C63162   5.099   7.416   9.759  1.3216  0.5092  0.5151
  479MOL0     H63163   5.569   7.530   9.680 -0.6292  1.6152 -1.5425
  479MOL0     H63164   5.790   7.492   9.560 -1.2652  0.6844  0.9085
  479MOL0     H63165   5.971   7.335   9.431  0.0514 -1.4471  0.0705
  479MOL0     H63166   5.932   7.512   9.406  1.2332  0.4197  0.0333
  479MOL0     H63167   6.004   7.519   9.192  0.3625  3.3052  2.8708
  479MOL0     H63168   6.029   7.342   9.183 -0.6218  0.2175  0.6833
  479MOL0     H63169   6.222   7.379   9.367 -1.1187  0.7668  1.9378
  479MOL0     H63170   6.158   7.534   9.385 -1.4094 -1.0461  0.7395
  479MOL0     H63171   6.272   7.469   9.118 -0.5081  2.3646 -1.2690
  479MOL0     H63172   6.215   7.621   9.180  1.6570  2.1273  2.1177
  479MOL0     H63173   6.393   7.643   9.344  0.5995 -1.5476  1.3034
  479MOL0     H63174   6.463   7.613   9.180  2.1580 -2.7457 -0.2806
  479MOL0     H63175   6.462   7.437   9.422 -1.6108  1.1555  0.3582
  479MOL0     H63176   6.603   7.502   9.327 -1.4334  2.1619 -3.2006
  479MOL0     H63177   6.409   7.293   9.202  1.7092 -1.7493 -1.8646
  479MOL0     H63178   6.564   7.340   9.157 -1.3683  0.4790 -0.5954
  479MOL0     H63179   6.650   7.246   9.382  0.0159 -3.1187  1.4797
  479MOL0     H63180   6.588   7.150   9.249 -0.9751  2.9897 -2.2290
  479MOL0     H63181   6.363   7.004   9.308  0.4622 -0.8179  0.8338
  479MOL0     H63182   6.238   6.958   9.687 -0.6183 -1.5277  0.5788
  479MOL0     H63183   6.246   6.843   9.557 -0.9849 -0.7165  1.6328
  479MOL0     H63184   6.032   6.871   9.608  1.0863  0.3135  0.4944
  479MOL0     H63185   6.043   6.966   9.456 -0.9491  2.7938 -0.4427
  479MOL0     H63186   6.077   7.118   9.721 -1.3677  0.2496 -0.5159
  479MOL0     H63187   6.061   7.181   9.553 -0.5639  0.1809 -0.1164
  479MOL0     H63188   5.830   7.128   9.556  1.6124  1.2293 -0.7169
  479MOL0     H63189   5.862   7.210   9.710  1.8875 -0.1350  2.3705
  479MOL0     H63190   5.629   7.154   9.677  1.5314 -1.5626 -3.1394
  479MOL0     H63191   5.398   7.078   9.729  0.6425  0.4457 -0.2806
  479MOL0     H63192   5.056   7.033   9.673 -0.5275  0.9673  0.2945
  479MOL0     H63193   4.809   7.075   9.737  1.4744  1.5385 -0.0221
  479MOL0     H63194   4.609   6.756   9.940 -1.3604  0.7147  1.9231
  479MOL0     H63195   4.647   6.836   9.780  3.5467 -0.3952  1.0958
  479MOL0     H63196   4.443   6.986   9.821  0.5815  1.5197  1.7463
  479MOL0     H63197   4.458   6.949   9.991 -2.4267 -0.9533  0.7692
  479MOL0     H63198   4.404   6.704   9.926 -0.0037 -0.6856 -0.3076
  479MOL0     H63199   4.343   6.765   9.774  1.7300 -0.6027  0.1695
  479MOL0     H63200   4.227   6.951   9.939  0.5776 -0.0375  2.6347
  479MOL0     H63201   4.156   6.789   9.912  0.7932 -0.1719 -2.2457
  479MOL0     H63202   4.316   6.905  10.152 -2.1124  1.9723  2.0755
  479MOL0     H63203   4.291   6.745  10.145 -2.1525 -1.0766  1.4635
  479MOL0     H63204   4.076   6.968  10.099  0.5620  0.1463  0.0095
  479MOL0     H63205   4.121   6.906  10.266  0.4384  0.4293  0.1194
  479MOL0     H63206   3.947   6.778  10.057  1.4150  1.7412 -0.7442
  479MOL0     H63207   4.005   6.691  10.208 -1.0228  1.0756  2.1618
  479MOL0     H63208   3.770   6.816  10.233  0.1538 -0.7437  0.0969
  479MOL0     H63209   3.851   6.957  10.190  0.9980  0.4004 -0.8667
  479MOL0     H63210   4.874   6.815  10.081 -0.3596  2.3080  0.4651
  479MOL0     H63211   5.095   6.774  10.016 -0.7024 -0.8341  0.1829
  479MOL0     H63212   5.560   6.711   9.899 -0.9978 -0.3542 -1.0879
  479MOL0     H63213   5.791   6.798   9.852  0.6908 -0.2079 -0.6565
  479MOL0     H63214   5.578   7.249   9.278  2.4374  2.4999 -1.0338
  479MOL0     H63215   5.386   7.255   9.428  0.2381  0.2756  0.5043
  479MOL0     H63216   5.170   7.745   9.768 -0.0729  0.6059 -0.3014
  479MOL0     H63217   4.950   7.751   9.890 -3.7253 -0.0821 -1.2918
  479MOL0     H63218   4.717   7.389  10.023  2.5088  0.1570  0.1665
  479MOL0     H63219   4.710   7.377   9.844 -0.7878 -1.5292  1.5704
  479MOL0     H63220   4.536   7.561   9.850  1.1056  0.7058  1.3249
  479MOL0     H63221   4.477   7.417   9.930 -0.0912 -0.6731 -1.4873
  479MOL0     H63222   4.560   7.522  10.147 -1.3674 -2.0267 -0.5322
  479MOL0     H63223   4.400   7.568  10.081 -0.8586  0.3960 -1.0197
  479MOL0     H63224   4.553   7.747  10.161 -2.1284 -3.6289  1.6692
  479MOL0     H63225   4.651   7.730  10.014 -0.1852 -1.9619 -0.8680
  479MOL0     H63226   4.297   7.923   9.858 -0.8167 -0.4019  1.2431
  479MOL0     H63227   4.918   7.326   9.831  1.3891 -0.4078  1.3228
  479MOL0     H63228   5.140   7.323   9.722 -0.9111  0.0992 -1.1557
  480MOL0     O63229   4.591   3.999   5.052  0.8971 -0.0158 -0.1878
  480MOL0     C63230   4.573   3.945   4.947 -0.2946  0.4997  0.5532
  480MOL0     O63231   4.450   3.910   4.891  0.0423  0.0699 -1.1677
  480MOL0     C63232   4.333   3.961   4.943 -0.2362  0.5601  0.4198
  480MOL0     C63233   4.217   3.878   4.964 -0.7045 -0.5149  0.0864
  480MOL0     C63234   4.100   3.929   5.008 -0.3678 -0.2365  0.0284
  480MOL0     C63235   4.077   4.058   5.046  1.2577  0.5361  0.5458
  480MOL0     O63236   3.951   4.109   5.089  0.6515  0.6408 -0.4835
  480MOL0     C63237   3.840   4.025   5.095 -0.6198  0.3506  0.3378
  480MOL0     C63238   3.721   4.121   5.085 -0.6410  0.1879  0.5437
  480MOL0     C63239   3.595   4.059   5.150  0.5353 -0.2387  0.6577
  480MOL0     C63240   3.472   4.143   5.111 -0.0292 -0.4746 -0.4313
  480MOL0     C63241   3.355   4.088   5.187  0.2499  1.1360  0.1449
  480MOL0     C63242   3.230   4.168   5.157 -0.2358  0.2292  0.6891
  480MOL0     C63243   3.109   4.086   5.192  0.2320  0.0834 -0.3408
  480MOL0     C63244   3.064   4.090   5.334 -0.6506 -0.3604 -0.4328
  480MOL0     N63245   2.916   4.079   5.350  0.0700  0.1067  0.4772
  480MOL0     C63246   2.820   4.005   5.277 -0.4756  0.1302 -0.1433
  480MOL0     C63247   2.702   4.044   5.326  0.5358 -0.3263 -0.2772
  480MOL0     C63248   2.566   3.999   5.273  0.6017  0.0560  0.5043
  480MOL0     C63249   2.510   3.857   5.326 -0.9347  0.5931 -0.1583
  480MOL0     C63250   2.457   3.877   5.465  1.0834 -0.1241 -0.6707
  480MOL0     C63251   2.302   3.908   5.479  0.1890 -0.9747 -0.3540
  480MOL0     O63252   2.229   3.797   5.531  0.0141  0.3525 -0.6205
  480MOL0     C63253   2.116   3.755   5.466  1.1210 -0.0798 -0.0096
  480MOL0     C63254   2.091   3.620   5.479  0.5363 -0.2005  0.0885
  480MOL0     C63255   1.975   3.554   5.431  0.0052  0.3604 -0.0765
  480MOL0     C63256   1.888   3.627   5.350 -0.3003 -0.3440 -0.0574
  480MOL0     C63257   1.768   3.562   5.295 -1.0153 -0.0798  0.9837
  480MOL0     O63258   1.674   3.644   5.254  0.4536 -0.7221 -0.3132
  480MOL0     C63259   1.565   3.594   5.195  0.3493  0.5743  0.5217
  480MOL0     C63260   1.471   3.531   5.276  0.5979 -0.0549  0.4366
  480MOL0     C63261   1.347   3.491   5.233  0.1044 -0.9273 -0.3145
  480MOL0     C63262   1.310   3.507   5.098 -0.3869  0.3358  0.3987
  480MOL0     O63263   1.191   3.455   5.034  0.0880 -1.3305 -0.6420
  480MOL0     C63264   1.070   3.464   5.110 -0.1393  0.2945 -0.7516
  480MOL0     C63265   0.953   3.403   5.030  0.2949  0.5178  0.2466
  480MOL0     C63266   0.829   3.375   5.116 -0.6427 -0.1705  0.7130
  480MOL0     C63267   0.726   3.312   5.025 -0.4053  0.4502  0.8694
  480MOL0     C63268   0.598   3.284   5.109 -0.1448 -0.3395 -0.1597
  480MOL0     C63269   0.484   3.248   5.018 -1.1646  0.1580  0.5208
  480MOL0     C63270   0.355   3.213   5.084  1.0187  0.1446 -0.0454
  480MOL0     C63271   0.238   3.192   5.000  1.0419 -0.1533  0.3724
  480MOL0    Cl63272   0.184   3.352   4.943 -0.0367  0.2536  0.1795
  480MOL0     C63273   1.399   3.570   5.006 -0.3279 -0.3174  0.3380
  480MOL0     C63274   1.523   3.632   5.061 -0.3013  0.2391  0.7008
  480MOL0     O63275   1.778   3.439   5.275 -0.0243  0.1370  0.1982
  480MOL0     C63276   1.909   3.765   5.329 -0.0206  0.3085 -0.0030
  480MOL0     C63277   2.014   3.829   5.395 -1.2502 -0.3383 -0.6792
  480MOL0     N63278   2.726   4.150   5.415 -0.2104 -0.1609 -0.4761
  480MOL0     N63279   2.853   4.169   5.418  0.0387 -0.6190  0.7484
  480MOL0     C63280   4.190   4.140   5.031  0.1388 -0.2291  0.0515
  480MOL0     C63281   4.315   4.098   4.978  0.7516 -0.2729  0.0528
  480MOL0     C63282   4.697   3.931   4.871 -0.5324 -0.3219  0.0936
  480MOL0     C63283   4.690   3.884   4.731  0.8214 -0.4056 -0.7029
  480MOL0     C63284   4.807   3.887   4.655 -0.2468  0.1438  1.0884
  480MOL0     C63285   4.932   3.929   4.715  0.8798  0.5603 -0.5569
  480MOL0     O63286   5.050   3.931   4.637 -0.0406 -0.5130  0.1054
  480MOL0     C63287   5.176   3.979   4.694 -0.1859  0.3427 -0.1793
  480MOL0     C63288   5.291   3.966   4.594 -0.1216 -0.4403  0.6198
  480MOL0     C63289   5.348   3.827   4.590 -0.3539 -0.2958  0.1958
  480MOL0     C63290   5.401   3.790   4.454  0.5535 -0.0421  0.5894
  480MOL0     C63291   5.512   3.875   4.402 -0.8976  0.6383  0.6289
  480MOL0     C63292   5.589   3.957   4.348  1.4031  0.4034 -0.3547
  480MOL0     C63293   4.942   3.947   4.860  0.6418 -0.3453  0.0283
  480MOL0     C63294   4.828   3.943   4.929  1.4385 -0.4629 -0.2572
  480MOL0     H63295   4.242   3.773   4.955 -0.2293 -0.6316  2.2318
  480MOL0     H63296   4.029   3.849   5.027 -1.0903 -0.1549 -2.1244
  480MOL0     H63297   3.841   3.965   5.186 -1.0219  1.2302  0.9348
  480MOL0     H63298   3.830   3.954   5.011 -1.2155  2.1031 -1.1456
  480MOL0     H63299   3.695   4.147   4.982 -1.3078  0.6982  0.8353
  480MOL0     H63300   3.742   4.211   5.143 -3.0266  1.0208  0.2316
  480MOL0     H63301   3.610   4.029   5.254  1.3911  1.9338  1.2009
  480MOL0     H63302   3.586   3.966   5.093 -0.3227 -0.5352  1.2452
  480MOL0     H63303   3.485   4.249   5.134 -0.9658 -0.3526 -0.4317
  480MOL0     H63304   3.456   4.127   5.004 -0.0505  0.8275 -0.6320
  480MOL0     H63305   3.360   4.074   5.296 -1.1558 -1.0509  0.0053
  480MOL0     H63306   3.348   3.986   5.147  2.2563  0.3586  1.6047
  480MOL0     H63307   3.229   4.199   5.052  0.0350 -0.2288  0.5466
  480MOL0     H63308   3.222   4.259   5.217 -0.7769  0.2084  0.6484
  480MOL0     H63309   3.020   4.101   5.129 -1.0704 -0.3108  1.3479
  480MOL0     H63310   3.125   3.979   5.177  1.9181  0.0071  1.5763
  480MOL0     H63311   3.090   4.177   5.395  0.2988 -0.6786 -0.3738
  480MOL0     H63312   3.101   4.007   5.395  0.1014 -0.3623 -0.8835
  480MOL0     H63313   2.834   3.928   5.202 -2.9467 -2.6047  1.9434
  480MOL0     H63314   2.556   4.009   5.164 -0.4987  0.9138  0.6699
  480MOL0     H63315   2.484   4.066   5.298  0.0091 -0.3678 -0.2565
  480MOL0     H63316   2.583   3.775   5.329 -2.2675 -0.6012  0.5647
  480MOL0     H63317   2.431   3.824   5.258 -1.4018 -0.4103  0.8376
  480MOL0     H63318   2.481   3.788   5.525 -1.4265 -0.4189  0.0064
  480MOL0     H63319   2.507   3.958   5.519 -2.5761 -0.3575  3.6917
  480MOL0     H63320   2.259   3.951   5.388  0.7143 -0.2652 -0.2664
  480MOL0     H63321   2.291   3.985   5.556 -0.7248  0.2913 -1.7024
  480MOL0     H63322   2.168   3.552   5.515 -0.4343 -1.9597 -0.9858
  480MOL0     H63323   1.978   3.448   5.454  0.4700  1.0750  3.7451
  480MOL0     H63324   1.508   3.511   5.376 -0.0293 -0.2915  0.6309
  480MOL0     H63325   1.279   3.442   5.301 -1.2148 -0.6996 -1.4140
  480MOL0     H63326   1.062   3.570   5.135  0.5900  0.9870 -3.1522
  480MOL0     H63327   1.099   3.399   5.193 -2.0524 -0.6110 -0.7532
  480MOL0     H63328   0.989   3.309   4.988 -1.6219  0.3241 -1.0887
  480MOL0     H63329   0.937   3.481   4.955  2.4903  2.3190  1.4883
  480MOL0     H63330   0.796   3.468   5.165  0.7416  0.5932  0.2445
  480MOL0     H63331   0.839   3.306   5.200  0.0244 -0.6593  0.2343
  480MOL0     H63332   0.701   3.375   4.939  0.6476  0.1825  0.3535
  480MOL0     H63333   0.766   3.221   4.980 -3.9740 -0.7136 -0.3062
  480MOL0     H63334   0.570   3.376   5.161  0.8790 -0.2827  0.3030
  480MOL0     H63335   0.621   3.203   5.179  1.2121 -0.2988 -0.5256
  480MOL0     H63336   0.517   3.167   4.953 -1.8565  0.6622 -0.4905
  480MOL0     H63337   0.473   3.331   4.948  2.3785  1.8820  1.7593
  480MOL0     H63338   0.369   3.113   5.126  0.6055  0.4698  0.8970
  480MOL0     H63339   0.338   3.287   5.163  0.9528  0.0817 -0.0008
  480MOL0     H63340   0.159   3.138   5.053  0.8796 -0.8018 -0.5079
  480MOL0     H63341   0.252   3.126   4.914  0.1446 -0.6122  0.5610
  480MOL0     H63342   1.396   3.562   4.898 -0.4225  0.9790  0.2309
  480MOL0     H63343   1.583   3.702   5.005 -0.7831  0.0123 -0.1238
  480MOL0     H63344   1.839   3.827   5.274 -2.1150 -0.9677  1.1330
  480MOL0     H63345   2.032   3.936   5.383  1.2394 -0.5517  0.5783
  480MOL0     H63346   4.174   4.246   5.048  1.8902 -0.1330  1.3720
  480MOL0     H63347   4.390   4.176   4.978  0.4455  0.0258  0.3212
  480MOL0     H63348   4.592   3.855   4.694 -0.2748  0.3831  1.3898
  480MOL0     H63349   4.805   3.861   4.550 -3.0670  0.0838  1.1007
  480MOL0     H63350   5.194   3.920   4.784 -1.2800  0.9951  0.4927
  480MOL0     H63351   5.166   4.084   4.723  0.2454  0.0453  1.1123
  480MOL0     H63352   5.265   4.007   4.496  1.1083  2.4317  1.3764
  480MOL0     H63353   5.375   4.032   4.620 -0.0216  0.0286 -0.8200
  480MOL0     H63354   5.278   3.746   4.612 -1.0110 -0.0342 -0.8967
  480MOL0     H63355   5.429   3.814   4.663  0.0330 -1.1617 -0.3704
  480MOL0     H63356   5.413   3.682   4.446  1.0874 -0.1230  2.1843
  480MOL0     H63357   5.316   3.816   4.390  4.0112  3.6108 -3.1570
  480MOL0     H63358   5.655   4.011   4.284  1.7786 -1.6742 -1.8483
  480MOL0     H63359   5.038   3.967   4.906  0.7862  0.7046 -0.6876
  480MOL0     H63360   4.844   3.963   5.035  0.3392  0.1420 -0.1910
  481MOL0     O63361   9.161   4.432   4.940 -0.2230 -0.3498 -0.9545
  481MOL0     C63362   9.244   4.356   4.899 -0.3454  0.2918 -0.3357
  481MOL0     O63363   9.223   4.222   4.879 -0.0757 -0.5695 -0.0659
  481MOL0     C63364   9.096   4.172   4.902 -0.6993  0.0681 -0.4580
  481MOL0     C63365   9.106   4.042   4.963  0.1799 -0.0144 -0.3353
  481MOL0     C63366   8.991   3.968   5.002 -0.1844  0.1057  0.7393
  481MOL0     C63367   8.862   4.029   4.984  0.7477  0.0699 -0.3368
  481MOL0     O63368   8.746   3.957   5.022 -0.7172 -0.4837 -0.4943
  481MOL0     C63369   8.664   4.036   5.122 -0.8845  0.4525  0.4448
  481MOL0     C63370   8.525   4.044   5.070  0.9756 -0.2786  0.2359
  481MOL0     C63371   8.446   4.180   5.090  0.7856  0.1548  1.1606
  481MOL0     C63372   8.314   4.180   5.008  0.9403 -0.1907  0.4605
  481MOL0     C63373   8.200   4.079   5.059  0.3993 -0.7277  0.8935
  481MOL0     C63374   8.080   4.092   4.966 -0.3226  0.4448  0.5093
  481MOL0     C63375   7.952   4.122   5.051 -1.2488  0.3225  0.5216
  481MOL0     C63376   7.832   4.104   4.965  0.2889  0.2831  0.0436
  481MOL0     N63377   7.823   4.176   4.840 -0.0686 -0.7342  0.4944
  481MOL0     C63378   7.795   4.316   4.821 -0.0876  1.2438 -0.4500
  481MOL0     C63379   7.772   4.327   4.689  0.2104  0.3225  0.6247
  481MOL0     C63380   7.728   4.460   4.629 -0.4920 -0.7324  0.3633
  481MOL0     C63381   7.635   4.536   4.721  0.3092  1.2804 -0.2691
  481MOL0     C63382   7.554   4.634   4.636  0.1260  0.6893  0.1381
  481MOL0     C63383   7.408   4.639   4.680  1.0299 -0.0009 -0.0975
  481MOL0     O63384   7.352   4.509   4.660 -0.3515 -0.5654  0.0897
  481MOL0     C63385   7.222   4.488   4.690 -0.8168  0.5223  0.5100
  481MOL0     C63386   7.143   4.576   4.774 -0.8712  0.3363 -0.6026
  481MOL0     C63387   7.007   4.533   4.801 -1.2343  0.3845  0.1014
  481MOL0     C63388   6.947   4.409   4.744 -0.3401 -0.8537  0.0282
  481MOL0     C63389   6.807   4.373   4.776 -0.4502 -0.4309 -0.3284
  481MOL0     O63390   6.723   4.481   4.798 -0.1525 -0.1943 -0.0133
  481MOL0     C63391   6.597   4.459   4.834 -0.0881  1.3505 -0.3750
  481MOL0     C63392   6.506   4.547   4.779 -0.8870 -0.6456 -0.7162
  481MOL0     C63393   6.371   4.528   4.807  0.2826 -0.1393 -0.0502
  481MOL0     C63394   6.319   4.421   4.880  0.1848 -0.0910 -0.5060
  481MOL0     O63395   6.181   4.423   4.893 -0.3686 -0.5237  0.1269
  481MOL0     C63396   6.121   4.358   5.000  1.1353  0.4626 -0.2435
  481MOL0     C63397   5.979   4.402   4.994 -0.3915  0.0421  0.7615
  481MOL0     C63398   5.896   4.384   5.116 -0.1734  0.0197 -0.3017
  481MOL0     C63399   5.751   4.443   5.089  0.7679  0.1152  1.0031
  481MOL0     C63400   5.671   4.476   5.215  0.8238  0.2499  0.4996
  481MOL0     C63401   5.550   4.555   5.168 -0.2778 -0.0579 -0.3914
  481MOL0     C63402   5.455   4.572   5.287 -0.9508  0.8804  0.1880
  481MOL0     C63403   5.353   4.672   5.255 -0.1433  0.7817  0.7004
  481MOL0    Cl63404   5.239   4.604   5.144  0.5975 -0.1900  0.1588
  481MOL0     C63405   6.418   4.336   4.943  1.2742  0.1296  0.3422
  481MOL0     C63406   6.554   4.351   4.912  0.2829  0.1309 -0.3623
  481MOL0     O63407   6.776   4.259   4.772  0.7056  0.5201  0.6442
  481MOL0     C63408   7.031   4.324   4.661  0.4185  0.4889 -0.0988
  481MOL0     C63409   7.164   4.369   4.639  0.6633 -0.4172  0.0847
  481MOL0     N63410   7.792   4.204   4.623  0.1414  0.1228  0.0700
  481MOL0     N63411   7.803   4.119   4.719  0.3888  0.3270  0.4634
  481MOL0     C63412   8.855   4.161   4.930 -0.8810 -0.2185 -0.8443
  481MOL0     C63413   8.969   4.232   4.889 -0.8800 -0.2437  0.4602
  481MOL0     C63414   9.383   4.418   4.889  0.2921 -0.7815 -0.6429
  481MOL0     C63415   9.467   4.368   4.788 -1.5984  0.4456  0.3023
  481MOL0     C63416   9.597   4.410   4.763  0.1964  0.2018 -0.0628
  481MOL0     C63417   9.650   4.514   4.846  0.1493 -0.2420 -0.5090
  481MOL0     O63418   9.778   4.552   4.824 -0.2535  0.8215  0.6015
  481MOL0     C63419   9.792   4.628   4.707  0.5584  0.2467 -0.6120
  481MOL0     C63420   9.935   4.675   4.684  0.1707 -0.4317 -0.1813
  481MOL0     C63421  10.048   4.574   4.701  0.3970 -0.0552 -0.1538
  481MOL0     C63422  10.055   4.471   4.588 -0.5432 -0.2773 -0.3732
  481MOL0     C63423  10.084   4.529   4.452  0.1159 -0.1176  0.7545
  481MOL0     C63424  10.111   4.544   4.334 -0.0906 -0.1271  0.1484
  481MOL0     C63425   9.574   4.556   4.949  0.7633  0.2753  0.1711
  481MOL0     C63426   9.437   4.516   4.965  0.0197 -0.6894 -0.4156
  481MOL0     H63427   9.202   3.993   4.976 -0.8824 -1.6337  2.4239
  481MOL0     H63428   9.008   3.869   5.041  3.6694  1.0062  1.8190
  481MOL0     H63429   8.709   4.130   5.155 -1.7293  0.7370  0.8183
  481MOL0     H63430   8.667   3.976   5.213  0.8546  0.7520  0.6306
  481MOL0     H63431   8.474   3.971   5.133  0.9326  1.7474  2.7306
  481MOL0     H63432   8.524   4.015   4.965  1.0561  0.1851  0.1064
  481MOL0     H63433   8.509   4.258   5.047  0.7037  0.6613  1.9561
  481MOL0     H63434   8.430   4.220   5.190 -1.0267  0.0521  0.9381
  481MOL0     H63435   8.266   4.279   5.009 -2.1043 -1.4515 -2.7395
  481MOL0     H63436   8.335   4.152   4.905  0.3246 -0.9472  0.5277
  481MOL0     H63437   8.179   4.092   5.165  1.4818  0.9084  0.9404
  481MOL0     H63438   8.236   3.976   5.049 -1.3865 -1.6786  3.2887
  481MOL0     H63439   8.068   3.998   4.911  0.9316  0.5924 -0.0666
  481MOL0     H63440   8.087   4.171   4.891 -1.4725  1.5547  1.5436
  481MOL0     H63441   7.943   4.046   5.130  3.3762 -0.8806  0.1545
  481MOL0     H63442   7.952   4.220   5.098 -0.7728 -0.3278  1.9273
  481MOL0     H63443   7.738   4.117   5.020 -0.0725  2.3425 -0.9524
  481MOL0     H63444   7.841   4.000   4.932 -3.1711 -0.4589  1.0079
  481MOL0     H63445   7.796   4.397   4.894 -0.0894 -1.0120  2.2228
  481MOL0     H63446   7.687   4.427   4.533  4.6085 -0.1422 -2.3476
  481MOL0     H63447   7.810   4.529   4.608 -1.2778  0.1866  0.2359
  481MOL0     H63448   7.686   4.583   4.806  0.5291  0.5787 -0.0120
  481MOL0     H63449   7.572   4.457   4.764  0.8460 -0.6153 -2.7342
  481MOL0     H63450   7.600   4.733   4.645  1.9929  0.0500 -1.7072
  481MOL0     H63451   7.554   4.608   4.530 -0.6452 -0.8565  0.4829
  481MOL0     H63452   7.345   4.714   4.630  0.8425  1.7006  2.4909
  481MOL0     H63453   7.412   4.675   4.783  1.1785  0.0891 -0.1352
  481MOL0     H63454   7.193   4.660   4.821  2.4138 -0.5643 -2.2447
  481MOL0     H63455   6.939   4.597   4.857  0.4374  3.0747 -0.7320
  481MOL0     H63456   6.539   4.628   4.715  0.8456 -1.3159 -0.7359
  481MOL0     H63457   6.299   4.599   4.766  0.4953 -0.1379 -0.4283
  481MOL0     H63458   6.161   4.389   5.097 -1.9670  0.7697  1.0799
  481MOL0     H63459   6.132   4.251   4.982 -2.5066  0.1404 -1.5221
  481MOL0     H63460   5.933   4.344   4.913  1.1786  0.9162 -0.8399
  481MOL0     H63461   5.986   4.507   4.961  1.4181 -0.3701 -0.2987
  481MOL0     H63462   5.935   4.437   5.204 -1.6506  2.2503 -0.9105
  481MOL0     H63463   5.889   4.276   5.131 -0.2088  0.1306  0.5528
  481MOL0     H63464   5.763   4.537   5.034  0.2309 -0.2581  0.2219
  481MOL0     H63465   5.696   4.376   5.022  0.4211  1.3843 -0.0244
  481MOL0     H63466   5.719   4.541   5.289  0.0465  2.6106 -0.9473
  481MOL0     H63467   5.641   4.376   5.248 -1.2747 -0.5385 -3.1746
  481MOL0     H63468   5.497   4.508   5.085 -0.5834  1.7451 -1.2626
  481MOL0     H63469   5.581   4.655   5.138 -0.2741 -0.0704 -0.4292
  481MOL0     H63470   5.402   4.477   5.295  0.7657 -0.1495 -0.1314
  481MOL0     H63471   5.512   4.590   5.379 -0.1924 -2.3306  0.4462
  481MOL0     H63472   5.402   4.764   5.221  0.3117  0.8660  1.5582
  481MOL0     H63473   5.285   4.693   5.338 -3.6835  0.1025 -1.7592
  481MOL0     H63474   6.382   4.259   5.010 -1.9635 -0.1061 -1.4538
  481MOL0     H63475   6.629   4.285   4.952  0.9358  2.1488  2.0208
  481MOL0     H63476   6.983   4.242   4.608  0.7646  3.2477 -5.3176
  481MOL0     H63477   7.219   4.306   4.569  2.2745  0.2236  0.7580
  481MOL0     H63478   8.757   4.205   4.913 -1.9760 -0.9031  2.8920
  481MOL0     H63479   8.958   4.338   4.870 -2.4080 -0.6307 -1.0045
  481MOL0     H63480   9.434   4.286   4.726 -1.4653  0.7846 -0.2273
  481MOL0     H63481   9.656   4.355   4.691 -2.4264 -3.2407  0.1764
  481MOL0     H63482   9.736   4.721   4.717  3.3324  2.0456 -0.5995
  481MOL0     H63483   9.750   4.574   4.622 -3.6258  1.7156  0.3175
  481MOL0     H63484   9.927   4.719   4.584 -2.2897  0.0002  0.1462
  481MOL0     H63485   9.946   4.749   4.763 -3.5435 -1.7499  1.8227
  481MOL0     H63486  10.042   4.523   4.798  1.3509 -0.9109 -0.5309
  481MOL0     H63487  10.137   4.637   4.697 -0.6824  1.4847 -1.6920
  481MOL0     H63488  10.145   4.413   4.613 -0.1997  0.7988  1.0215
  481MOL0     H63489   9.963   4.412   4.580 -1.6454  0.7897  2.9548
  481MOL0     H63490  10.141   4.567   4.233  2.5756  1.6499  1.2553
  481MOL0     H63491   9.605   4.634   5.018 -4.0744 -0.3890  3.6061
  481MOL0     H63492   9.381   4.574   5.038  1.2123 -0.2655  0.1923
  482MOL0     O63493   9.351   8.043   8.645  1.2023 -0.2697 -0.0462
  482MOL0     C63494   9.322   8.148   8.698  0.2384  0.0505 -0.4145
  482MOL0     O63495   9.409   8.226   8.768  0.2561  1.1384  0.2181
  482MOL0     C63496   9.534   8.181   8.800 -0.1935  0.1213 -0.6687
  482MOL0     C63497   9.554   8.059   8.866  0.1125  0.0383 -0.6857
  482MOL0     C63498   9.671   8.027   8.926 -0.7556 -0.6830 -0.2843
  482MOL0     C63499   9.780   8.115   8.920  0.0539 -0.2319 -0.5008
  482MOL0     O63500   9.900   8.078   8.971  0.1961 -0.1615 -0.9448
  482MOL0     C63501   9.962   7.946   8.965 -0.9550  0.4690  0.0172
  482MOL0     C63502  10.111   7.964   8.947  0.1621 -0.0767 -0.3238
  482MOL0     C63503  10.187   7.830   8.917 -0.3088 -0.3635 -0.7672
  482MOL0     C63504  10.342   7.848   8.901 -0.0539  0.3803  1.1960
  482MOL0     C63505  10.417   7.727   8.840  0.2698  0.1335 -0.1356
  482MOL0     C63506  10.568   7.762   8.831  0.2974 -0.1991 -0.1468
  482MOL0     C63507  10.650   7.647   8.762 -0.0169 -0.0584 -0.5841
  482MOL0     C63508  10.798   7.665   8.757  0.0737  1.1549 -0.2955
  482MOL0     N63509  10.858   7.549   8.817 -0.4757  0.2930 -0.0819
  482MOL0     C63510  10.897   7.547   8.944 -0.3024  0.5057 -0.0144
  482MOL0     C63511  10.980   7.440   8.957 -0.7884  0.5843 -0.9968
  482MOL0     C63512  11.037   7.396   9.092 -0.0914 -0.5224 -0.9931
  482MOL0     C63513  10.940   7.385   9.211  0.0183 -0.7739  0.6962
  482MOL0     C63514  10.809   7.307   9.177 -0.0478  0.2464 -0.8109
  482MOL0     C63515  10.697   7.352   9.272  0.0798  1.1820 -0.2765
  482MOL0     O63516  10.638   7.478   9.225 -0.0959  0.0863 -0.7095
  482MOL0     C63517  10.509   7.511   9.273  0.0919  0.0960 -0.0415
  482MOL0     C63518  10.448   7.447   9.381  0.1993  0.3634 -0.8065
  482MOL0     C63519  10.312   7.475   9.420  0.9829 -1.0179  0.0165
  482MOL0     C63520  10.230   7.562   9.336  0.2647 -0.9741  0.0944
  482MOL0     C63521  10.082   7.584   9.368 -0.3737  0.2701 -0.9508
  482MOL0     O63522  10.022   7.511   9.467 -0.1247  0.6482 -0.2613
  482MOL0     C63523   9.901   7.545   9.526  0.3173  0.2447  0.1535
  482MOL0     C63524   9.892   7.495   9.655 -0.7047 -0.1911  0.0044
  482MOL0     C63525   9.771   7.517   9.732 -0.3730  0.8147  0.3478
  482MOL0     C63526   9.674   7.602   9.681  0.0227  0.2509 -0.8264
  482MOL0     O63527   9.571   7.633   9.761  0.3527  0.0294 -0.8464
  482MOL0     C63528   9.532   7.776   9.772 -0.8093  0.0489  0.2210
  482MOL0     C63529   9.405   7.804   9.685 -0.2736  0.6698 -0.2342
  482MOL0     C63530   9.271   7.747   9.746 -0.3073  0.1311  0.0323
  482MOL0     C63531   9.208   7.818   9.865 -0.3121  0.0699  0.3089
  482MOL0     C63532   9.085   7.724   9.898 -0.9009 -1.0658  0.8656
  482MOL0     C63533   9.026   7.762  10.034 -0.0309  0.6529 -1.0077
  482MOL0     C63534   8.916   7.662  10.093 -0.4664 -0.1691 -0.5328
  482MOL0     C63535   8.791   7.641   9.997 -0.0869  0.0773  0.3230
  482MOL0    Cl63536   8.703   7.798   9.954  0.3688  0.4974  0.3049
  482MOL0     C63537   9.683   7.646   9.547  0.0223  0.2960  0.3094
  482MOL0     C63538   9.798   7.623   9.468  0.3152 -0.6778 -0.2940
  482MOL0     O63539  10.029   7.663   9.297 -0.3517  0.3450  0.2031
  482MOL0     C63540  10.302   7.639   9.239  0.4140 -0.0320  0.3443
  482MOL0     C63541  10.441   7.619   9.211 -0.8750  0.4510  0.2196
  482MOL0     N63542  11.002   7.384   8.827 -0.0462  0.0942 -0.1027
  482MOL0     N63543  10.940   7.462   8.744  0.1585  0.4266 -0.3852
  482MOL0     C63544   9.762   8.241   8.860  0.0560  0.3142  0.3581
  482MOL0     C63545   9.644   8.266   8.798 -0.5940 -0.0312 -0.6169
  482MOL0     C63546   9.176   8.181   8.687 -0.7751 -0.2366 -0.4469
  482MOL0     C63547   9.130   8.301   8.750 -0.1787 -0.1820  0.5242
  482MOL0     C63548   8.994   8.322   8.757 -1.0690 -0.2657 -0.2472
  482MOL0     C63549   8.905   8.244   8.685 -0.2426 -0.2079 -0.3841
  482MOL0     O63550   8.774   8.283   8.681 -0.2489 -0.5267 -0.2407
  482MOL0     C63551   8.702   8.243   8.567 -0.4043  0.4327  0.0874
  482MOL0     C63552   8.585   8.344   8.538 -0.1910  0.3758 -0.8155
  482MOL0     C63553   8.466   8.325   8.634 -0.3546  0.1066 -0.3214
  482MOL0     C63554   8.385   8.192   8.604  0.4185 -0.2891 -0.2401
  482MOL0     C63555   8.298   8.219   8.493 -0.9015 -0.5937  1.0079
  482MOL0     C63556   8.232   8.248   8.396  0.0309 -0.1203 -0.3886
  482MOL0     C63557   8.956   8.127   8.629  0.1438 -0.0691  1.0651
  482MOL0     C63558   9.089   8.094   8.621 -0.6992 -0.7228 -0.7584
  482MOL0     H63559   9.472   7.989   8.879  1.9156 -1.7576  2.2063
  482MOL0     H63560   9.677   7.926   8.964 -1.1919 -0.6204 -0.0369
  482MOL0     H63561   9.927   7.876   8.888 -2.6194 -0.1583  1.2693
  482MOL0     H63562   9.939   7.885   9.053  4.5213 -2.2645 -0.0061
  482MOL0     H63563  10.147   7.996   9.045 -2.5281 -0.8310  0.9999
  482MOL0     H63564  10.129   8.044   8.875  0.2624 -0.0276 -0.2455
  482MOL0     H63565  10.154   7.767   8.834 -1.8966 -0.2728 -0.2533
  482MOL0     H63566  10.153   7.757   8.991 -0.8205  0.2485 -0.3873
  482MOL0     H63567  10.367   7.927   8.829  1.6878 -0.6094  0.6421
  482MOL0     H63568  10.394   7.880   8.993  1.5865  0.5336  0.2520
  482MOL0     H63569  10.384   7.715   8.736  1.9660 -0.8614 -0.5892
  482MOL0     H63570  10.411   7.636   8.901  0.3352 -1.0992 -1.8840
  482MOL0     H63571  10.597   7.774   8.936  1.2426 -1.6603 -0.2187
  482MOL0     H63572  10.575   7.860   8.783  0.9774 -0.1784 -0.0146
  482MOL0     H63573  10.618   7.556   8.813 -2.4743  0.1378 -1.6030
  482MOL0     H63574  10.622   7.628   8.658 -2.1899 -3.8141  0.5060
  482MOL0     H63575  10.827   7.762   8.800  1.8373  0.6947 -0.3539
  482MOL0     H63576  10.827   7.660   8.652 -2.4835 -2.4811 -1.0243
  482MOL0     H63577  10.862   7.598   9.034 -0.9597 -0.4031  0.2668
  482MOL0     H63578  11.124   7.450   9.129 -0.6548 -0.9913  1.1298
  482MOL0     H63579  11.082   7.296   9.087 -0.7399 -0.7746 -2.0532
  482MOL0     H63580  10.921   7.489   9.242  0.6773 -0.1901 -0.7662
  482MOL0     H63581  10.984   7.358   9.308  1.0309 -1.1598  0.1463
  482MOL0     H63582  10.773   7.304   9.073 -0.7606  1.9512 -0.6472
  482MOL0     H63583  10.842   7.204   9.197 -0.1540  0.5019  0.7585
  482MOL0     H63584  10.742   7.366   9.371  2.9494 -1.2768 -1.0676
  482MOL0     H63585  10.621   7.275   9.281  1.1034  0.0227 -1.1387
  482MOL0     H63586  10.507   7.377   9.439 -1.6232 -1.8488 -1.5073
  482MOL0     H63587  10.274   7.427   9.510  1.1491  0.0146  0.6562
  482MOL0     H63588   9.974   7.430   9.686 -2.4030 -2.5361 -0.1380
  482MOL0     H63589   9.743   7.461   9.820 -1.4814  2.0520  0.7993
  482MOL0     H63590   9.616   7.841   9.746 -2.6293  1.7405 -1.9315
  482MOL0     H63591   9.504   7.800   9.875 -0.2274 -0.8630  0.5964
  482MOL0     H63592   9.420   7.784   9.579  3.5275  3.1249 -0.3357
  482MOL0     H63593   9.387   7.912   9.685 -1.1965  0.5371 -1.3717
  482MOL0     H63594   9.284   7.642   9.772  1.5866  0.9483  2.8914
  482MOL0     H63595   9.198   7.743   9.665  0.4218 -2.0812 -0.5997
  482MOL0     H63596   9.276   7.824   9.951 -0.7603 -0.8144  0.7414
  482MOL0     H63597   9.177   7.918   9.833 -0.1153  0.6902  1.9141
  482MOL0     H63598   9.111   7.618   9.898 -3.0592 -1.6775 -0.7617
  482MOL0     H63599   9.011   7.736   9.818 -1.7643 -2.3892  1.4233
  482MOL0     H63600   8.977   7.860  10.030  0.1815  0.7506 -4.1949
  482MOL0     H63601   9.101   7.772  10.113 -1.6289  0.6823  0.5768
  482MOL0     H63602   8.970   7.568  10.104  0.6773  0.7048  2.2464
  482MOL0     H63603   8.884   7.692  10.194 -2.5692  2.5742 -1.8446
  482MOL0     H63604   8.719   7.574  10.046  0.4648 -0.5397  0.3058
  482MOL0     H63605   8.821   7.590   9.906 -1.0045 -0.5241  0.3354
  482MOL0     H63606   9.607   7.704   9.495 -1.3317 -0.9244  0.8429
  482MOL0     H63607   9.796   7.651   9.364  0.1908 -0.7090 -0.3011
  482MOL0     H63608  10.244   7.718   9.192 -0.3703  0.5204  2.1737
  482MOL0     H63609  10.503   7.658   9.131 -2.1930  1.8796 -0.1348
  482MOL0     H63610   9.837   8.319   8.846 -1.0188  1.1810 -0.7590
  482MOL0     H63611   9.619   8.358   8.746 -0.6660 -0.9805 -2.3507
  482MOL0     H63612   9.184   8.359   8.825 -0.1064  1.0772 -0.4757
  482MOL0     H63613   8.962   8.420   8.793 -0.8623  0.0181 -0.8318
  482MOL0     H63614   8.673   8.139   8.584 -0.3049  0.2587 -0.7422
  482MOL0     H63615   8.761   8.247   8.475 -2.7565  1.7432 -1.4708
  482MOL0     H63616   8.615   8.449   8.542  0.7288  0.1676 -1.8158
  482MOL0     H63617   8.540   8.333   8.439  0.8250 -0.7395 -1.1838
  482MOL0     H63618   8.399   8.411   8.640 -0.9093 -0.4030  1.2390
  482MOL0     H63619   8.515   8.328   8.732 -0.9013 -1.1728  0.0011
  482MOL0     H63620   8.452   8.107   8.586 -0.4006 -0.9036 -0.4717
  482MOL0     H63621   8.331   8.160   8.694  2.5020 -0.9565  0.8410
  482MOL0     H63622   8.187   8.264   8.300 -2.0235 -0.2631  0.4967
  482MOL0     H63623   8.895   8.066   8.564  0.8556  2.4173 -2.2233
  482MOL0     H63624   9.114   8.000   8.573  0.6982 -0.4193 -0.6605
  483MOL0     O63625   6.135   5.969   5.999 -0.6313 -0.3899 -0.5812
  483MOL0     C63626   6.169   6.000   5.885  0.2796 -0.0179  0.3127
  483MOL0     O63627   6.114   6.088   5.801 -0.6110 -0.1641 -0.3780
  483MOL0     C63628   6.013   6.173   5.835  0.4459 -0.8302 -0.8280
  483MOL0     C63629   5.926   6.164   5.947  0.1796  0.1139 -0.3511
  483MOL0     C63630   5.823   6.257   5.970 -0.7043  0.6590  0.1660
  483MOL0     C63631   5.810   6.368   5.890  0.0788 -0.3160 -0.5243
  483MOL0     O63632   5.715   6.456   5.936  0.4854  0.6812 -0.2114
  483MOL0     C63633   5.678   6.564   5.850  0.0586  0.7047 -0.6455
  483MOL0     C63634   5.526   6.590   5.879 -0.2451 -0.3205 -0.4932
  483MOL0     C63635   5.498   6.618   6.026  1.0617 -0.0831 -0.3888
  483MOL0     C63636   5.562   6.735   6.094 -0.4665 -0.2118  0.2817
  483MOL0     C63637   5.502   6.870   6.048  0.1720 -0.4257  0.0498
  483MOL0     C63638   5.569   6.987   6.116  0.6431 -0.4302  0.1719
  483MOL0     C63639   5.518   7.128   6.078  0.8232 -1.5196  0.7882
  483MOL0     C63640   5.598   7.169   5.948 -0.2506  0.2689 -0.3899
  483MOL0     N63641   5.537   7.304   5.913  0.2965  0.4920 -0.2957
  483MOL0     C63642   5.428   7.324   5.832 -0.2857  0.7272  0.2768
  483MOL0     C63643   5.394   7.453   5.852  0.2222 -0.2820 -0.8930
  483MOL0     C63644   5.295   7.519   5.758  0.3292 -0.1508  0.0352
  483MOL0     C63645   5.159   7.524   5.820  0.3885 -0.1345  0.2401
  483MOL0     C63646   5.139   7.619   5.936 -0.0394 -0.2822 -0.1811
  483MOL0     C63647   5.000   7.609   5.996 -0.1158 -0.4263  0.2643
  483MOL0     O63648   4.899   7.613   5.896 -0.1672 -0.2288  0.6080
  483MOL0     C63649   4.772   7.629   5.943 -1.1804  0.3950  0.4203
  483MOL0     C63650   4.722   7.615   6.073 -0.0767 -0.5906 -0.9172
  483MOL0     C63651   4.588   7.648   6.107 -0.5598  0.0921 -0.4875
  483MOL0     C63652   4.493   7.686   6.007 -0.2745  0.0203  0.3875
  483MOL0     C63653   4.353   7.728   6.033  0.8852 -0.2028 -0.4727
  483MOL0     O63654   4.302   7.708   6.150 -0.2598  0.0203  0.1275
  483MOL0     C63655   4.162   7.721   6.168 -0.0405  0.9021  0.4582
  483MOL0     C63656   4.081   7.618   6.110  1.5282  0.4776 -0.4268
  483MOL0     C63657   3.947   7.615   6.121  0.4613 -0.0731 -0.8309
  483MOL0     C63658   3.878   7.713   6.191 -0.1075  0.6750  0.4425
  483MOL0     O63659   3.747   7.706   6.213 -0.3191  0.4138  0.0101
  483MOL0     C63660   3.652   7.608   6.163  0.2882  0.4106 -0.4627
  483MOL0     C63661   3.508   7.672   6.162  0.3899  0.5158  0.4707
  483MOL0     C63662   3.403   7.580   6.091  0.0737  0.4400  0.2711
  483MOL0     C63663   3.293   7.668   6.030  1.3576  0.0499 -0.2167
  483MOL0     C63664   3.170   7.589   5.983 -0.0491 -0.3147 -0.2790
  483MOL0     C63665   3.102   7.658   5.870  0.0868  0.4500 -0.0794
  483MOL0     C63666   3.172   7.635   5.736  0.2125  0.1413  0.3590
  483MOL0     C63667   3.085   7.643   5.607  1.3352  0.2176 -0.4705
  483MOL0    Cl63668   3.178   7.627   5.470 -0.1006  0.3887  0.2021
  483MOL0     C63669   3.955   7.818   6.243 -0.6900 -0.1574 -0.3128
  483MOL0     C63670   4.094   7.815   6.243 -0.6309 -0.0072  0.3263
  483MOL0     O63671   4.293   7.766   5.938 -0.3051 -0.1566 -0.4555
  483MOL0     C63672   4.549   7.687   5.876  0.0429  1.3459  0.0411
  483MOL0     C63673   4.681   7.662   5.845 -0.4240  0.3534 -0.0670
  483MOL0     N63674   5.487   7.515   5.931  0.1617  0.0621 -0.1091
  483MOL0     N63675   5.566   7.425   5.975  0.4625  0.0644 -0.3460
  483MOL0     C63676   5.898   6.383   5.786  0.3254  0.1168 -0.2326
  483MOL0     C63677   5.995   6.286   5.754 -0.1023  0.5634  0.1925
  483MOL0     C63678   6.286   5.938   5.843 -0.2255  0.2478  0.1620
  483MOL0     C63679   6.322   5.810   5.887 -0.4092 -0.4626  0.6640
  483MOL0     C63680   6.443   5.752   5.847 -0.3940 -0.1059  0.0902
  483MOL0     C63681   6.522   5.812   5.748  0.5131  0.7143  0.0377
  483MOL0     O63682   6.633   5.746   5.718 -0.8765 -0.3129  0.2898
  483MOL0     C63683   6.757   5.800   5.772 -0.3695  0.5597 -0.8267
  483MOL0     C63684   6.880   5.789   5.680 -0.9924 -0.0791  0.4410
  483MOL0     C63685   7.008   5.863   5.729  0.3627  0.5166  0.0583
  483MOL0     C63686   7.117   5.894   5.615  0.8130  0.1921 -1.2353
  483MOL0     C63687   7.193   5.779   5.573 -0.2513  0.4528 -0.1800
  483MOL0     C63688   7.244   5.686   5.519 -0.1082 -0.5021  1.2698
  483MOL0     C63689   6.483   5.935   5.697 -0.3986 -0.3798  0.0080
  483MOL0     C63690   6.372   5.995   5.747  0.7592  0.1040  0.7338
  483MOL0     H63691   5.925   6.077   6.011  1.4535  1.7357  2.0038
  483MOL0     H63692   5.760   6.227   6.054  1.0753 -1.7753  0.7378
  483MOL0     H63693   5.688   6.544   5.743  0.0386  1.6794 -0.8405
  483MOL0     H63694   5.742   6.650   5.872  0.7617 -0.1381  0.7688
  483MOL0     H63695   5.464   6.508   5.842 -3.0740  0.3781  2.1982
  483MOL0     H63696   5.497   6.676   5.818  1.8242  1.8951  1.4224
  483MOL0     H63697   5.535   6.532   6.083 -3.0422  0.6736  3.9877
  483MOL0     H63698   5.392   6.620   6.053  0.9124  0.4151 -0.9851
  483MOL0     H63699   5.541   6.726   6.201  0.2186  0.8565  0.5210
  483MOL0     H63700   5.670   6.731   6.078 -0.4380  0.6345  0.2255
  483MOL0     H63701   5.395   6.865   6.072  0.1422 -0.5260 -0.1018
  483MOL0     H63702   5.513   6.881   5.939 -1.8106  2.0516 -0.0017
  483MOL0     H63703   5.676   6.986   6.093  1.3316  1.3897  2.8321
  483MOL0     H63704   5.574   6.969   6.224  0.3549  0.0116  0.2595
  483MOL0     H63705   5.412   7.134   6.053  0.7994  0.5934  1.1804
  483MOL0     H63706   5.536   7.201   6.158 -2.1450  0.0180  0.1752
  483MOL0     H63707   5.569   7.101   5.868 -2.2361  1.7807 -1.0406
  483MOL0     H63708   5.703   7.175   5.977 -0.3401  0.3023 -0.0706
  483MOL0     H63709   5.370   7.268   5.759  0.7453  2.1548 -1.7219
  483MOL0     H63710   5.298   7.458   5.666 -1.0258 -1.2960  0.7017
  483MOL0     H63711   5.318   7.622   5.729 -0.6654  0.4692  1.3397
  483MOL0     H63712   5.121   7.429   5.859 -2.3534 -0.2760 -2.4060
  483MOL0     H63713   5.091   7.548   5.738  2.0424 -1.7721 -1.7061
  483MOL0     H63714   5.213   7.593   6.013  0.8951  0.2487 -0.8874
  483MOL0     H63715   5.156   7.725   5.918 -1.0353 -0.0688  0.0660
  483MOL0     H63716   5.001   7.698   6.059 -1.6129  0.0700 -0.3558
  483MOL0     H63717   4.986   7.516   6.053 -1.8265 -0.3240  0.0607
  483MOL0     H63718   4.788   7.592   6.155  0.5425  0.2236 -1.1717
  483MOL0     H63719   4.556   7.658   6.211  0.2960  0.0066 -0.2066
  483MOL0     H63720   4.131   7.540   6.053  0.9269 -0.6597  0.5553
  483MOL0     H63721   3.891   7.529   6.086  1.0134 -1.3676  1.2958
  483MOL0     H63722   3.646   7.521   6.229 -1.9832  0.6533 -0.2590
  483MOL0     H63723   3.675   7.577   6.061  4.4348  0.8645  0.1427
  483MOL0     H63724   3.501   7.770   6.113 -1.8764 -0.8979 -2.4053
  483MOL0     H63725   3.473   7.699   6.262 -3.5292  2.1308 -1.0972
  483MOL0     H63726   3.346   7.516   6.159 -1.7758  1.5590 -0.1535
  483MOL0     H63727   3.442   7.517   6.010 -3.1261 -0.3813 -0.7666
  483MOL0     H63728   3.264   7.736   6.111 -1.8669 -0.4502 -0.8350
  483MOL0     H63729   3.348   7.721   5.951  4.0821 -1.3908  0.5945
  483MOL0     H63730   3.098   7.583   6.065  0.1850  0.6857  0.0064
  483MOL0     H63731   3.203   7.487   5.959  3.6015  1.3197 -3.2702
  483MOL0     H63732   3.092   7.764   5.897 -0.4593  0.2515  0.5184
  483MOL0     H63733   3.000   7.619   5.858  0.2196  0.0109  0.2327
  483MOL0     H63734   3.251   7.710   5.729  0.2560 -0.0014 -1.0974
  483MOL0     H63735   3.209   7.532   5.743 -2.5675 -0.7916  3.3085
  483MOL0     H63736   3.039   7.742   5.603  0.1486 -0.3361 -3.9469
  483MOL0     H63737   3.008   7.565   5.612  1.7143 -0.0932  1.1572
  483MOL0     H63738   3.905   7.888   6.309 -0.4542 -1.1876  1.0027
  483MOL0     H63739   4.138   7.883   6.315  0.8387 -1.0947  0.5047
  483MOL0     H63740   4.483   7.718   5.796  0.6188 -0.5917 -1.2607
  483MOL0     H63741   4.711   7.662   5.741  0.6808 -0.2525  0.2293
  483MOL0     H63742   5.887   6.469   5.721 -2.4498  0.1504  0.1728
  483MOL0     H63743   6.056   6.299   5.665 -2.9641  1.4225 -1.8118
  483MOL0     H63744   6.258   5.757   5.956 -0.7033  1.7226  2.1734
  483MOL0     H63745   6.472   5.660   5.897  0.4738 -0.1757 -0.5060
  483MOL0     H63746   6.781   5.732   5.855  2.3105 -1.5286 -3.1446
  483MOL0     H63747   6.736   5.898   5.816 -2.6328 -0.0962 -0.2754
  483MOL0     H63748   6.905   5.688   5.646  0.0737  0.7537 -1.4155
  483MOL0     H63749   6.848   5.841   5.589 -0.6755  0.0827  0.4228
  483MOL0     H63750   7.070   5.814   5.805  0.3054 -0.3435 -0.4376
  483MOL0     H63751   6.973   5.956   5.774 -3.4382 -1.3114  1.3550
  483MOL0     H63752   7.071   5.949   5.532  0.3181  1.0969 -0.3915
  483MOL0     H63753   7.190   5.964   5.655  1.0910 -1.2744  0.9463
  483MOL0     H63754   7.287   5.605   5.462  0.1623  0.5557 -0.0849
  483MOL0     H63755   6.544   5.971   5.614  0.4941 -0.7230  0.5021
  483MOL0     H63756   6.330   6.078   5.693 -2.3251 -1.6523  0.2268
  484MOL0     O63757   6.273   6.185   0.226  0.5115  0.0135 -0.0376
  484MOL0     C63758   6.371   6.171   0.307  0.2722  1.0146  0.6140
  484MOL0     O63759   6.359   6.101   0.433 -0.1902 -0.5296  0.7174
  484MOL0     C63760   6.236   6.045   0.475 -1.0422 -0.3679 -0.3457
  484MOL0     C63761   6.133   5.984   0.408  0.3712 -0.6264 -0.0356
  484MOL0     C63762   6.018   5.937   0.469  0.5888 -0.0879 -0.2573
  484MOL0     C63763   5.999   5.944   0.608  0.5105 -0.5567  0.1932
  484MOL0     O63764   5.884   5.903   0.678 -0.9040 -0.6003  0.6555
  484MOL0     C63765   5.755   5.887   0.602 -0.0212  0.5393  0.9368
  484MOL0     C63766   5.641   5.864   0.697 -0.7344 -0.3342 -0.4096
  484MOL0     C63767   5.519   5.825   0.622  0.2478  0.0610 -0.3517
  484MOL0     C63768   5.402   5.801   0.716  0.5596  0.2453 -0.7267
  484MOL0     C63769   5.269   5.800   0.638  0.2969 -0.0738  0.1389
  484MOL0     C63770   5.167   5.755   0.740  0.2767  0.5498 -0.7993
  484MOL0     C63771   5.025   5.735   0.688 -0.1396  1.0983 -0.3999
  484MOL0     C63772   4.950   5.867   0.671  0.2350  0.1113  0.4723
  484MOL0     N63773   4.808   5.855   0.642 -0.6195  0.0422 -0.3845
  484MOL0     C63774   4.746   5.843   0.524  0.2889 -0.7690  0.0838
  484MOL0     C63775   4.622   5.825   0.557  0.3064 -0.2993  0.9223
  484MOL0     C63776   4.514   5.772   0.478 -0.2823 -0.1674 -0.0580
  484MOL0     C63777   4.382   5.724   0.549 -0.3870  0.4927 -0.1988
  484MOL0     C63778   4.281   5.660   0.450  0.1097  1.0660 -0.8428
  484MOL0     C63779   4.158   5.593   0.514 -0.8075  0.7090 -0.3223
  484MOL0     O63780   4.058   5.677   0.561 -0.0255  0.0352 -0.4115
  484MOL0     C63781   3.954   5.629   0.633 -0.5663  0.1822 -0.0423
  484MOL0     C63782   3.914   5.494   0.651  0.2015 -0.4869 -0.2651
  484MOL0     C63783   3.796   5.470   0.715 -0.3750 -0.1765  0.0095
  484MOL0     C63784   3.721   5.570   0.784  0.4230  0.4209 -0.0124
  484MOL0     C63785   3.592   5.535   0.850  0.2308 -0.0923 -0.0189
  484MOL0     O63786   3.505   5.642   0.871 -0.3281 -0.1862  0.0635
  484MOL0     C63787   3.380   5.628   0.924 -0.1990 -0.2325 -0.2242
  484MOL0     C63788   3.298   5.514   0.917  0.5821 -0.0247  1.2742
  484MOL0     C63789   3.156   5.525   0.951  0.0414 -0.4574  0.2851
  484MOL0     C63790   3.098   5.635   1.004  0.3521  0.1328 -0.0895
  484MOL0     O63791   2.968   5.653   1.047 -0.5123  0.8339 -0.2760
  484MOL0     C63792   2.872   5.597   0.951  0.0617 -0.2289 -0.0210
  484MOL0     C63793   2.726   5.639   0.987 -0.5277  0.5307 -0.5182
  484MOL0     C63794   2.629   5.590   0.870 -0.3086  0.1286 -0.2982
  484MOL0     C63795   2.487   5.636   0.887 -0.0381  0.0846  0.6846
  484MOL0     C63796   2.378   5.572   0.785 -0.8516 -0.0901 -0.5227
  484MOL0     C63797   2.235   5.596   0.789  0.1260  0.2477  0.1372
  484MOL0     C63798   2.165   5.529   0.678 -0.3897  0.1581 -0.0162
  484MOL0     C63799   2.029   5.595   0.659  0.6136  0.3973  0.1435
  484MOL0    Cl63800   1.899   5.531   0.764 -0.0644  0.3993  0.3711
  484MOL0     C63801   3.183   5.749   1.022 -0.1963 -0.4559  0.2754
  484MOL0     C63802   3.315   5.746   0.975  0.3743 -0.1007  0.6481
  484MOL0     O63803   3.578   5.417   0.898 -0.5917 -0.0061 -0.1321
  484MOL0     C63804   3.776   5.700   0.772 -0.7619 -0.1133  0.3433
  484MOL0     C63805   3.892   5.732   0.700 -0.0820 -0.1513 -0.2330
  484MOL0     N63806   4.605   5.858   0.691  0.0933 -0.0905 -0.6654
  484MOL0     N63807   4.720   5.881   0.741  0.9061  0.0050 -0.3413
  484MOL0     C63808   6.097   6.017   0.676  0.0739  0.0746  0.8898
  484MOL0     C63809   6.219   6.055   0.612 -0.0282 -0.3732 -0.3707
  484MOL0     C63810   6.499   6.231   0.269 -0.7123  0.0350  0.1869
  484MOL0     C63811   6.524   6.267   0.135  0.7581 -0.2711 -0.9016
  484MOL0     C63812   6.648   6.323   0.090  0.1845 -0.2845 -0.5031
  484MOL0     C63813   6.756   6.342   0.186  0.2815  0.4990  0.0589
  484MOL0     O63814   6.882   6.389   0.153 -0.0396 -0.4777  0.1164
  484MOL0     C63815   6.926   6.445   0.029  0.2868 -0.1981 -0.7846
  484MOL0     C63816   7.067   6.482   0.053  0.1330  0.9926 -0.3533
  484MOL0     C63817   7.120   6.546  -0.075  0.1412  0.0379 -0.1145
  484MOL0     C63818   7.274   6.561  -0.083 -0.1226  0.0889 -0.1298
  484MOL0     C63819   7.294   6.627  -0.213 -0.6746 -0.8569  0.2671
  484MOL0     C63820   7.334   6.677  -0.317 -0.1658  0.6972  0.2818
  484MOL0     C63821   6.719   6.309   0.320 -1.2013  0.4649  0.1502
  484MOL0     C63822   6.601   6.251   0.363 -0.4442  0.4584  0.8496
  484MOL0     H63823   6.151   5.968   0.302 -2.7504  3.4596 -1.4656
  484MOL0     H63824   5.941   5.888   0.409 -3.5698  3.8104  1.2680
  484MOL0     H63825   5.753   5.797   0.540 -1.6044 -0.8449  2.8591
  484MOL0     H63826   5.737   5.979   0.546  2.2371  0.8854  0.6937
  484MOL0     H63827   5.615   5.942   0.769 -1.1452 -2.3786  1.7747
  484MOL0     H63828   5.676   5.777   0.754 -0.0636 -0.7127 -1.3719
  484MOL0     H63829   5.520   5.736   0.558 -0.3904  0.3242 -0.7320
  484MOL0     H63830   5.504   5.912   0.558 -1.0502 -0.8874 -1.3762
  484MOL0     H63831   5.423   5.705   0.766  0.5177 -0.4556 -2.0176
  484MOL0     H63832   5.402   5.890   0.780 -2.4474  0.5484 -0.9985
  484MOL0     H63833   5.278   5.731   0.554  1.8550  1.1928 -0.7777
  484MOL0     H63834   5.247   5.900   0.602 -1.9695 -0.9233 -1.0681
  484MOL0     H63835   5.166   5.821   0.827  3.0833  0.1901 -0.4150
  484MOL0     H63836   5.190   5.655   0.778  1.6038  1.4313  0.8579
  484MOL0     H63837   5.037   5.685   0.591 -1.9361 -0.8164  0.2986
  484MOL0     H63838   4.966   5.673   0.756  1.8034 -0.5504 -0.0838
  484MOL0     H63839   4.999   5.917   0.587  2.7703 -3.6557 -0.5387
  484MOL0     H63840   4.959   5.926   0.763  1.3845  1.4198 -0.4401
  484MOL0     H63841   4.795   5.844   0.427 -1.3615  3.9348 -0.9714
  484MOL0     H63842   4.552   5.688   0.419  0.4521 -0.2248  0.4866
  484MOL0     H63843   4.483   5.849   0.407 -2.6997  0.5464  1.6789
  484MOL0     H63844   4.342   5.806   0.609  1.6357  0.2255  1.6539
  484MOL0     H63845   4.415   5.647   0.620  0.8015 -0.1894 -1.4284
  484MOL0     H63846   4.242   5.741   0.387 -4.4818  1.5319  2.0687
  484MOL0     H63847   4.316   5.584   0.381 -1.5658 -1.6000  1.0466
  484MOL0     H63848   4.195   5.548   0.607 -2.4411 -0.5011 -0.2141
  484MOL0     H63849   4.113   5.516   0.451 -1.2583  0.0097  0.8223
  484MOL0     H63850   3.980   5.418   0.609 -2.7176 -2.9256 -0.8828
  484MOL0     H63851   3.758   5.368   0.712 -1.1242 -0.0299  2.6475
  484MOL0     H63852   3.329   5.415   0.882 -0.6721 -0.2872  0.8573
  484MOL0     H63853   3.089   5.440   0.941 -1.0528  0.2812  1.0838
  484MOL0     H63854   2.876   5.488   0.954 -2.0337 -0.3450 -0.0599
  484MOL0     H63855   2.895   5.628   0.849 -1.2054 -1.0870 -0.5934
  484MOL0     H63856   2.704   5.746   0.989 -0.8617  0.4855  2.0145
  484MOL0     H63857   2.692   5.599   1.083 -1.4570 -0.7132 -1.3316
  484MOL0     H63858   2.633   5.481   0.859 -0.7449  0.3380 -3.6213
  484MOL0     H63859   2.675   5.623   0.776  3.3881  0.5534  1.5012
  484MOL0     H63860   2.462   5.619   0.992 -1.1961 -2.1523  0.0990
  484MOL0     H63861   2.498   5.744   0.873  1.0454  0.0060  0.8498
  484MOL0     H63862   2.396   5.464   0.791 -0.7341 -0.0040  4.3713
  484MOL0     H63863   2.402   5.606   0.683  2.6783 -2.6594 -0.7541
  484MOL0     H63864   2.213   5.703   0.785  0.8233  0.4561  1.4456
  484MOL0     H63865   2.201   5.558   0.886 -0.2454 -0.2070 -0.1661
  484MOL0     H63866   2.231   5.526   0.591 -0.9731 -0.6942 -0.4497
  484MOL0     H63867   2.145   5.424   0.703  0.3115 -0.2562 -1.1246
  484MOL0     H63868   2.000   5.572   0.557  0.0040 -1.7404  0.7544
  484MOL0     H63869   2.034   5.705   0.666  3.3037  0.4199 -0.8985
  484MOL0     H63870   3.151   5.841   1.068 -2.5047  0.9451 -3.6765
  484MOL0     H63871   3.370   5.840   0.984  2.6947 -1.4512  1.5988
  484MOL0     H63872   3.713   5.781   0.808  0.2165 -0.3333  2.7695
  484MOL0     H63873   3.912   5.838   0.687  0.3750 -0.1588  0.3973
  484MOL0     H63874   6.093   6.038   0.783  2.4908  3.4890  0.4888
  484MOL0     H63875   6.298   6.110   0.663 -0.4148 -0.2644  0.1210
  484MOL0     H63876   6.437   6.251   0.073 -1.0653  0.6375  1.2608
  484MOL0     H63877   6.670   6.354  -0.011  2.5275 -0.6176 -0.1391
  484MOL0     H63878   6.868   6.536   0.010 -0.4097  0.3383  3.0673
  484MOL0     H63879   6.913   6.379  -0.056  0.4459 -0.9495 -0.2349
  484MOL0     H63880   7.086   6.552   0.134  0.7742  1.8846 -1.2507
  484MOL0     H63881   7.121   6.388   0.070  0.0769  1.1564  0.8198
  484MOL0     H63882   7.092   6.652  -0.069 -0.0815  0.1978 -2.7950
  484MOL0     H63883   7.073   6.504  -0.165 -2.1850  1.0842  0.5346
  484MOL0     H63884   7.323   6.620  -0.006  0.0208  1.8064 -1.4584
  484MOL0     H63885   7.317   6.461  -0.075  1.6542  0.9390  1.5424
  484MOL0     H63886   7.376   6.716  -0.407 -2.6693  4.7869  0.6123
  484MOL0     H63887   6.799   6.328   0.391  1.1038  0.4590 -2.2503
  484MOL0     H63888   6.582   6.225   0.467  0.4247 -1.5731  0.5617
  485MOL0     O63889   3.671   2.766  10.505  0.0630 -0.0205  0.6273
  485MOL0     C63890   3.748   2.724  10.593  0.3788 -0.5163  0.0477
  485MOL0     O63891   3.710   2.699  10.724 -0.1128  0.3611 -0.6941
  485MOL0     C63892   3.586   2.696  10.774  0.6797  0.1349 -0.7254
  485MOL0     C63893   3.511   2.581  10.755 -0.8345  0.4449 -0.0438
  485MOL0     C63894   3.387   2.562  10.814  0.3271  0.6360  0.3975
  485MOL0     C63895   3.337   2.665  10.902  0.8451  0.6145  0.3748
  485MOL0     O63896   3.217   2.648  10.961  0.8237  0.4497 -0.7961
  485MOL0     C63897   3.099   2.639  10.878  0.1143 -0.2464 -0.0691
  485MOL0     C63898   2.995   2.579  10.971 -0.0829  0.4315 -0.3937
  485MOL0     C63899   2.854   2.563  10.907 -1.0358  0.6102  0.6574
  485MOL0     C63900   2.758   2.530  11.020 -0.8723 -0.6954 -0.1077
  485MOL0     C63901   2.617   2.492  10.964 -0.2548  0.0893  0.1612
  485MOL0     C63902   2.569   2.585  10.856  0.4144 -0.4507 -0.3421
  485MOL0     C63903   2.417   2.563  10.812 -0.2953 -0.0468 -0.0681
  485MOL0     C63904   2.320   2.568  10.926  0.2492  0.1882  0.3471
  485MOL0     N63905   2.178   2.541  10.892 -0.1564  0.3090  0.4357
  485MOL0     C63906   2.077   2.631  10.930 -0.4135  0.3939 -0.5773
  485MOL0     C63907   1.964   2.568  10.908  0.1865 -0.0762 -0.2735
  485MOL0     C63908   1.829   2.624  10.947 -0.0837  0.2335  0.4297
  485MOL0     C63909   1.794   2.580  11.086 -0.3825 -0.5732  0.5251
  485MOL0     C63910   1.751   2.431  11.087  0.1035 -0.0642 -0.1479
  485MOL0     C63911   1.712   2.369  11.229 -0.1940 -0.3391 -0.2623
  485MOL0     O63912   1.595   2.443  11.277 -0.3923 -0.5674 -0.0667
  485MOL0     C63913   1.475   2.396  11.233  0.4535 -0.3141  0.9585
  485MOL0     C63914   1.445   2.269  11.171 -0.3842 -0.7590 -0.6274
  485MOL0     C63915   1.313   2.223  11.144  0.2270  0.1101 -0.5840
  485MOL0     C63916   1.205   2.305  11.191 -0.5255  0.1236  0.2250
  485MOL0     C63917   1.063   2.276  11.155  0.3460  0.1037 -0.2941
  485MOL0     O63918   0.963   2.350  11.213  0.0192 -0.4449  0.4751
  485MOL0     C63919   0.834   2.364  11.170 -0.4192 -0.2569 -0.1731
  485MOL0     C63920   0.766   2.313  11.061  0.6468  0.2748 -0.0450
  485MOL0     C63921   0.627   2.333  11.040 -0.1121 -0.2884 -0.3463
  485MOL0     C63922   0.552   2.397  11.141 -0.7524 -0.2166 -0.6377
  485MOL0     O63923   0.421   2.426  11.130  0.3111  0.0302 -0.2548
  485MOL0     C63924   0.343   2.346  11.040 -0.2963  1.0241  0.0664
  485MOL0     C63925   0.207   2.414  11.039  0.1599  0.7451  0.5202
  485MOL0     C63926   0.145   2.379  11.168 -0.4486  0.1280  1.3141
  485MOL0     C63927   0.049   2.489  11.211 -0.6926 -0.2244 -0.3702
  485MOL0     C63928  -0.061   2.426  11.301  0.8050 -0.3965 -0.1527
  485MOL0     C63929  -0.190   2.518  11.306  0.8147 -0.5442  1.1816
  485MOL0     C63930  -0.292   2.485  11.412  0.0211  1.3072  0.1924
  485MOL0     C63931  -0.412   2.590  11.414 -0.2220  0.2569 -0.7115
  485MOL0    Cl63932  -0.501   2.584  11.267 -0.1050 -0.2093  0.0014
  485MOL0     C63933   0.628   2.449  11.255  0.5649 -0.3733  0.4272
  485MOL0     C63934   0.767   2.439  11.262  1.0175  0.2949 -0.0132
  485MOL0     O63935   1.052   2.196  11.065 -0.3716 -0.1440  0.5865
  485MOL0     C63936   1.227   2.424  11.264 -0.9878 -0.0895  0.7496
  485MOL0     C63937   1.360   2.465  11.283 -0.2699 -0.2498 -0.2377
  485MOL0     N63938   1.988   2.437  10.855 -0.5244  0.2608  0.7700
  485MOL0     N63939   2.119   2.425  10.838 -0.3125 -0.3189 -0.2736
  485MOL0     C63940   3.408   2.778  10.926 -0.0979 -0.3084  1.4760
  485MOL0     C63941   3.535   2.795  10.862 -0.2664  0.8095 -0.6806
  485MOL0     C63942   3.885   2.719  10.546 -0.1780 -0.4735  0.0980
  485MOL0     C63943   3.991   2.735  10.637 -0.2379  0.0939  0.8163
  485MOL0     C63944   4.123   2.741  10.586 -0.0549 -0.8659 -0.0646
  485MOL0     C63945   4.155   2.729  10.448  0.5473 -0.5161  0.4431
  485MOL0     O63946   4.284   2.731  10.406 -0.0791 -0.0193 -0.0648
  485MOL0     C63947   4.397   2.757  10.497 -0.1056  0.7178  1.4849
  485MOL0     C63948   4.534   2.773  10.431  1.1812  0.5160 -0.0325
  485MOL0     C63949   4.585   2.641  10.368  0.0494  0.3393  0.5672
  485MOL0     C63950   4.738   2.632  10.336  0.0460 -0.4635  0.1349
  485MOL0     C63951   4.792   2.736  10.248 -0.1294  0.5741  0.2858
  485MOL0     C63952   4.841   2.813  10.167 -0.0609 -1.0735 -1.1018
  485MOL0     C63953   4.049   2.709  10.363  0.6532  0.2027  0.9834
  485MOL0     C63954   3.918   2.698  10.406  0.4766 -1.0153 -0.2925
  485MOL0     H63955   3.545   2.491  10.704 -1.7175  1.6416 -2.9614
  485MOL0     H63956   3.322   2.479  10.787 -1.2103  0.8487  3.0431
  485MOL0     H63957   3.110   2.572  10.792 -2.2116 -0.9711  0.1195
  485MOL0     H63958   3.064   2.735  10.840 -1.9664  0.2073  2.7019
  485MOL0     H63959   2.993   2.663  11.041 -0.0162  0.5560 -0.5406
  485MOL0     H63960   3.034   2.485  11.013  0.4188  0.9190  0.2494
  485MOL0     H63961   2.860   2.484  10.832  0.6992  0.5887  0.7781
  485MOL0     H63962   2.828   2.653  10.850 -0.1592 -0.5962 -1.7913
  485MOL0     H63963   2.789   2.441  11.075 -2.0428 -1.6304 -0.9136
  485MOL0     H63964   2.742   2.622  11.078 -1.3788 -0.6133 -0.3728
  485MOL0     H63965   2.549   2.486  11.050 -1.3009 -0.5553 -0.6918
  485MOL0     H63966   2.618   2.390  10.925  0.5046 -0.1187  0.6830
  485MOL0     H63967   2.639   2.570  10.773  3.2920 -2.7623  2.2235
  485MOL0     H63968   2.578   2.689  10.886  2.4423  0.2861 -3.0644
  485MOL0     H63969   2.397   2.645  10.742  0.9762 -0.2967 -0.7576
  485MOL0     H63970   2.409   2.464  10.766 -1.2722 -1.3797  2.7892
  485MOL0     H63971   2.333   2.664  10.976 -0.0149 -0.0703  0.9110
  485MOL0     H63972   2.337   2.499  11.009  0.4593 -0.1495  0.0320
  485MOL0     H63973   2.086   2.732  10.969 -1.4133 -0.2267  1.3510
  485MOL0     H63974   1.746   2.587  10.886 -0.0942 -3.1785  2.2298
  485MOL0     H63975   1.832   2.733  10.941 -1.6763  0.3371  0.9491
  485MOL0     H63976   1.714   2.645  11.122 -1.1426  0.9488 -3.4570
  485MOL0     H63977   1.886   2.597  11.143 -0.3252 -0.7136  0.4747
  485MOL0     H63978   1.671   2.415  11.015 -0.1856 -1.1970  0.3866
  485MOL0     H63979   1.838   2.374  11.052  2.0094  1.7281  1.4243
  485MOL0     H63980   1.794   2.393  11.297 -0.2733 -1.2522  0.1719
  485MOL0     H63981   1.693   2.261  11.233  1.0628 -0.6020 -0.8489
  485MOL0     H63982   1.523   2.201  11.138  3.0279  2.0587  0.8702
  485MOL0     H63983   1.290   2.131  11.090  0.4411  0.7833 -1.8486
  485MOL0     H63984   0.829   2.266  10.985  0.9879 -0.1063  0.4647
  485MOL0     H63985   0.578   2.303  10.948 -0.4679  2.0387 -0.9553
  485MOL0     H63986   0.328   2.243  11.071  2.7691  0.6660  0.7026
  485MOL0     H63987   0.384   2.351  10.938  1.2732  0.1639  0.6205
  485MOL0     H63988   0.146   2.389  10.952  2.2354 -1.8067 -0.3245
  485MOL0     H63989   0.220   2.523  11.032  1.2336  0.6005  0.1181
  485MOL0     H63990   0.210   2.379  11.256  1.6330  3.5043 -0.0078
  485MOL0     H63991   0.109   2.277  11.158 -1.8571  0.6154  1.2155
  485MOL0     H63992   0.098   2.577  11.253  0.4375 -1.1401  0.3027
  485MOL0     H63993  -0.007   2.527  11.124 -1.5148 -2.2942 -0.8115
  485MOL0     H63994  -0.017   2.423  11.402 -1.6345  1.7297  1.0959
  485MOL0     H63995  -0.094   2.329  11.264 -0.2778 -1.5062  3.3378
  485MOL0     H63996  -0.251   2.530  11.216  0.6598  2.2476  1.5614
  485MOL0     H63997  -0.151   2.619  11.321 -2.7232  1.5136 -1.8655
  485MOL0     H63998  -0.331   2.384  11.401  1.5480  0.5629  1.2733
  485MOL0     H63999  -0.247   2.485  11.511  2.6718 -0.3723 -0.9074
  485MOL0     H64000  -0.384   2.695  11.432  1.3600 -0.4579  1.5137
  485MOL0     H64001  -0.470   2.557  11.501  0.2359 -0.3378 -0.6197
  485MOL0     H64002   0.569   2.511  11.322 -0.1480  0.3172 -0.7955
  485MOL0     H64003   0.820   2.482  11.346  0.2120  3.4744 -1.0143
  485MOL0     H64004   1.142   2.484  11.295 -0.9156 -1.5087  4.1772
  485MOL0     H64005   1.377   2.559  11.335  0.9335 -0.1939 -0.7205
  485MOL0     H64006   3.349   2.851  10.980 -3.5677  1.8805 -4.4243
  485MOL0     H64007   3.585   2.889  10.884 -0.7027  1.0699 -0.7973
  485MOL0     H64008   3.975   2.736  10.745  1.3171 -1.5921  1.1068
  485MOL0     H64009   4.202   2.747  10.661  0.1578 -2.5136 -0.1230
  485MOL0     H64010   4.399   2.684  10.578 -1.1739 -0.2602  0.6710
  485MOL0     H64011   4.380   2.857  10.539  1.8534  0.3212  3.4078
  485MOL0     H64012   4.525   2.850  10.354 -2.4143 -0.6187 -0.9611
  485MOL0     H64013   4.606   2.809  10.505 -1.4378  1.0694  2.4571
  485MOL0     H64014   4.535   2.649  10.271  1.4940 -0.5971 -0.2960
  485MOL0     H64015   4.553   2.551  10.421 -1.0307 -0.1374 -0.8304
  485MOL0     H64016   4.801   2.633  10.425  1.4823 -1.6000 -0.8184
  485MOL0     H64017   4.749   2.538  10.281 -0.1933 -1.9144  2.4683
  485MOL0     H64018   4.884   2.884  10.100  1.8731 -2.0660 -0.9836
  485MOL0     H64019   4.050   2.706  10.254 -0.7441  2.8292  0.8089
  485MOL0     H64020   3.832   2.689  10.340 -1.7040  1.5955  1.9366
  486MOL0     O64021   2.035   9.964   1.202 -0.0765  0.4049  0.0669
  486MOL0     C64022   2.054   9.882   1.113 -0.6085  1.2986 -0.2880
  486MOL0     O64023   1.957   9.825   1.034 -0.0401  0.2159  0.4511
  486MOL0     C64024   1.827   9.836   1.050  0.9190 -0.0903  0.3180
  486MOL0     C64025   1.756   9.884   1.160 -0.5732  0.2276 -0.1500
  486MOL0     C64026   1.624   9.902   1.164  0.7119  0.3437  0.2652
  486MOL0     C64027   1.545   9.875   1.049  0.3542  0.5549 -0.2811
  486MOL0     O64028   1.405   9.892   1.029 -0.5625 -0.2425 -0.6184
  486MOL0     C64029   1.329   9.918   1.148  0.2004 -0.4920  0.4198
  486MOL0     C64030   1.180   9.943   1.106 -0.1372  0.1357  0.2931
  486MOL0     C64031   1.094   9.951   1.232 -0.4989  0.0287  0.2003
  486MOL0     C64032   0.944   9.944   1.200  0.7856 -0.0687  0.4030
  486MOL0     C64033   0.843   9.907   1.313  0.1359  0.2729  0.3295
  486MOL0     C64034   0.842   9.990   1.432 -0.0994 -0.3326  0.0652
  486MOL0     C64035   0.849  10.140   1.407  0.0756 -0.7646  0.0628
  486MOL0     C64036   0.828  10.216   1.528  0.3613 -0.1432  0.0886
  486MOL0     N64037   0.687  10.208   1.577 -0.7694 -0.0605  0.4763
  486MOL0     C64038   0.587  10.277   1.521  0.9673  0.5629  1.2067
  486MOL0     C64039   0.473  10.237   1.585  0.3204 -0.4705 -0.7743
  486MOL0     C64040   0.336  10.300   1.553 -0.5028 -0.0018  0.4591
  486MOL0     C64041   0.226  10.187   1.524 -0.4080  0.0815  1.1348
  486MOL0     C64042   0.102  10.244   1.446  0.9958 -0.0893  0.2161
  486MOL0     C64043  -0.031  10.200   1.499  0.0938  0.3204  0.2177
  486MOL0     O64044  -0.133  10.255   1.419  0.5184 -0.5393  0.5744
  486MOL0     C64045  -0.254  10.205   1.438  0.3861 -0.0718 -0.2113
  486MOL0     C64046  -0.333  10.228   1.543 -0.4149  0.1591  0.2528
  486MOL0     C64047  -0.467  10.178   1.542  0.0776  0.3646  0.7058
  486MOL0     C64048  -0.504  10.084   1.436  0.6404  0.1955 -0.9488
  486MOL0     C64049  -0.639  10.038   1.443  0.2568  0.0633  0.0661
  486MOL0     O64050  -0.644   9.908   1.451 -0.9672  0.0386 -0.5097
  486MOL0     C64051  -0.770   9.865   1.474  1.1295  0.6150 -0.6315
  486MOL0     C64052  -0.843   9.837   1.367 -0.0824  0.2375  0.1938
  486MOL0     C64053  -0.978   9.807   1.376 -1.0987  0.2104  0.1698
  486MOL0     C64054  -1.027   9.786   1.507 -0.2921  0.1702 -0.0725
  486MOL0     O64055  -1.161   9.766   1.536 -0.0737 -0.4318  0.0405
  486MOL0     C64056  -1.217   9.738   1.665 -1.3664 -0.5612 -0.4690
  486MOL0     C64057  -1.360   9.702   1.627  0.3858  0.0124  0.2112
  486MOL0     C64058  -1.428   9.628   1.736  0.0134  0.6485  0.7200
  486MOL0     C64059  -1.564   9.570   1.695 -0.8017 -0.0142  0.4588
  486MOL0     C64060  -1.681   9.669   1.687 -0.2510 -0.2975  0.2916
  486MOL0     C64061  -1.764   9.661   1.563 -0.3749 -0.6873  0.1442
  486MOL0     C64062  -1.863   9.779   1.573  0.8246 -0.1792 -0.0395
  486MOL0     C64063  -1.980   9.772   1.461 -0.3595  0.3297 -0.5827
  486MOL0    Cl64064  -2.092   9.631   1.481  0.1289 -0.4216  0.1144
  486MOL0     C64065  -0.937   9.782   1.614  0.2471  0.0697 -0.2068
  486MOL0     C64066  -0.809   9.835   1.607  0.7831 -0.3509  0.3799
  486MOL0     O64067  -0.732  10.113   1.440  0.0747 -0.6273  0.0043
  486MOL0     C64068  -0.417  10.056   1.335  0.0349  0.8067  0.3602
  486MOL0     C64069  -0.299  10.119   1.333  1.3681 -0.2671  0.5206
  486MOL0     N64070   0.505  10.144   1.682 -0.2044  0.1874 -0.8552
  486MOL0     N64071   0.633  10.122   1.673 -0.4119  0.3787  0.5396
  486MOL0     C64072   1.612   9.832   0.930  0.3024 -0.0532  0.5028
  486MOL0     C64073   1.750   9.814   0.936 -0.2089 -0.0304 -0.1161
  486MOL0     C64074   2.187   9.842   1.078 -0.1479 -0.0904 -0.0031
  486MOL0     C64075   2.212   9.770   0.961  0.7969  0.4210 -0.2892
  486MOL0     C64076   2.340   9.728   0.929 -0.0085 -0.0501 -0.0547
  486MOL0     C64077   2.450   9.777   0.999  0.0973  0.1345  0.2365
  486MOL0     O64078   2.581   9.728   0.975  0.7984 -0.1701 -0.0367
  486MOL0     C64079   2.689   9.821   0.957 -0.2391  0.4657  0.4030
  486MOL0     C64080   2.820   9.752   0.935  0.4677  0.7475  0.0856
  486MOL0     C64081   2.931   9.855   0.897 -0.2649 -0.2893  0.3540
  486MOL0     C64082   3.018   9.901   1.013 -0.6403 -0.0168  1.2355
  486MOL0     C64083   3.120   9.797   1.046 -0.2486 -1.6340  0.6775
  486MOL0     C64084   3.183   9.701   1.081 -0.2548 -0.1554 -0.1562
  486MOL0     C64085   2.432   9.859   1.109 -0.0919 -0.2299 -0.7905
  486MOL0     C64086   2.301   9.898   1.150  0.0840  0.0449  1.0403
  486MOL0     H64087   1.814   9.904   1.250 -1.6561 -1.1197  0.9083
  486MOL0     H64088   1.581   9.942   1.255 -1.0275  3.7819 -1.8746
  486MOL0     H64089   1.369  10.007   1.199  0.6490 -0.7181  0.4654
  486MOL0     H64090   1.346   9.828   1.208 -1.2585 -2.1707 -1.5569
  486MOL0     H64091   1.147   9.861   1.042  0.0851  1.4764 -1.6464
  486MOL0     H64092   1.188  10.040   1.054  1.1604 -1.0586 -1.8855
  486MOL0     H64093   1.113  10.047   1.280 -2.3111 -0.5863  2.3542
  486MOL0     H64094   1.115   9.867   1.299 -1.9555  2.0530  3.4425
  486MOL0     H64095   0.925  10.039   1.149 -0.3795 -1.8571 -2.8247
  486MOL0     H64096   0.941   9.874   1.116  0.5675 -1.0475  1.2150
  486MOL0     H64097   0.857   9.802   1.342 -0.8843 -0.1287 -0.5730
  486MOL0     H64098   0.740   9.908   1.277 -1.2482  1.1404  3.8394
  486MOL0     H64099   0.928   9.958   1.491  0.2711  1.4745  0.5403
  486MOL0     H64100   0.755   9.959   1.490 -1.0502 -1.7485 -1.9689
  486MOL0     H64101   0.946  10.152   1.359 -0.0811 -0.6387 -0.2298
  486MOL0     H64102   0.768  10.165   1.337  1.1841  1.5985 -0.4512
  486MOL0     H64103   0.846  10.324   1.517  0.8104 -0.2722 -0.4897
  486MOL0     H64104   0.894  10.178   1.606  1.4685 -4.6039 -2.6866
  486MOL0     H64105   0.580  10.346   1.438  1.1219 -0.8488 -0.0237
  486MOL0     H64106   0.351  10.366   1.467  0.1497 -1.0863 -0.2715
  486MOL0     H64107   0.307  10.353   1.645 -0.9287  2.0286 -0.7861
  486MOL0     H64108   0.200  10.121   1.608 -0.4342  0.3130  1.3112
  486MOL0     H64109   0.271  10.124   1.448 -1.3132  0.3297  0.3862
  486MOL0     H64110   0.111  10.351   1.469  1.8776 -0.7313  3.3740
  486MOL0     H64111   0.109  10.237   1.337 -1.6663  1.7421 -0.1856
  486MOL0     H64112  -0.040  10.240   1.600  2.8958 -0.1336  0.7371
  486MOL0     H64113  -0.039  10.091   1.500  1.9453  0.1546  1.3961
  486MOL0     H64114  -0.304  10.295   1.623 -0.3784  0.8200 -0.3040
  486MOL0     H64115  -0.539  10.217   1.613  0.4869  2.1251  0.1903
  486MOL0     H64116  -0.819   9.850   1.262 -1.7058 -1.0570 -0.3734
  486MOL0     H64117  -1.025   9.811   1.278  2.0794  0.3070 -1.4798
  486MOL0     H64118  -1.217   9.832   1.722  0.2424 -0.2134 -0.9935
  486MOL0     H64119  -1.170   9.666   1.732 -3.4615 -2.9532 -1.4187
  486MOL0     H64120  -1.360   9.644   1.535 -0.1347  1.2067 -0.5731
  486MOL0     H64121  -1.417   9.795   1.618  2.9840  1.6912  0.0084
  486MOL0     H64122  -1.438   9.693   1.824  2.6195  1.6496  0.3756
  486MOL0     H64123  -1.360   9.546   1.762  2.6423  1.9272 -1.5808
  486MOL0     H64124  -1.545   9.511   1.605  2.7147  0.9807  0.4253
  486MOL0     H64125  -1.596   9.495   1.768  0.9409  0.0208  1.2960
  486MOL0     H64126  -1.647   9.771   1.705  1.0890 -0.4768 -0.9973
  486MOL0     H64127  -1.746   9.656   1.774  2.1987 -0.7850  2.1644
  486MOL0     H64128  -1.816   9.565   1.553 -3.1338  0.7395 -0.1306
  486MOL0     H64129  -1.693   9.677   1.482  2.6524 -0.4486  2.6297
  486MOL0     H64130  -1.908   9.769   1.672  0.9523  0.7945  0.1222
  486MOL0     H64131  -1.811   9.873   1.552  2.1864 -1.2833 -2.0026
  486MOL0     H64132  -1.943   9.753   1.360 -3.5055 -0.1958 -1.7241
  486MOL0     H64133  -2.027   9.871   1.454 -1.4106 -0.1222  0.0561
  486MOL0     H64134  -0.969   9.741   1.710  1.3883 -0.4635 -0.0274
  486MOL0     H64135  -0.751   9.850   1.697  0.4534 -1.7505  0.8572
  486MOL0     H64136  -0.461   9.989   1.262 -3.6128  2.0870  1.1933
  486MOL0     H64137  -0.242  10.091   1.245  1.4442 -0.9710  0.7884
  486MOL0     H64138   1.545   9.813   0.847  0.4990  0.7812  0.1426
  486MOL0     H64139   1.785   9.780   0.839  0.4833 -2.2519  0.8285
  486MOL0     H64140   2.134   9.738   0.892 -2.4282  3.5862  1.5425
  486MOL0     H64141   2.365   9.662   0.846 -0.1307  1.3154 -1.2219
  486MOL0     H64142   2.711   9.888   1.040  2.2640  0.8535 -0.4846
  486MOL0     H64143   2.665   9.885   0.872 -1.1119 -1.2954 -0.7460
  486MOL0     H64144   2.852   9.696   1.024 -1.2862  0.3814  0.5226
  486MOL0     H64145   2.802   9.679   0.856 -0.3460  0.4966  0.4962
  486MOL0     H64146   2.892   9.950   0.861  0.2380 -0.5566 -0.9412
  486MOL0     H64147   2.990   9.795   0.827  0.0863  0.7085 -0.2106
  486MOL0     H64148   3.081   9.982   0.975  3.3271 -3.4092 -0.2688
  486MOL0     H64149   2.954   9.945   1.089 -2.0479  0.3465 -0.1008
  486MOL0     H64150   3.255   9.630   1.118  1.2143  1.1921 -0.3085
  486MOL0     H64151   2.521   9.885   1.165 -0.3704  0.6211 -0.7412
  486MOL0     H64152   2.278   9.974   1.225 -2.4311 -0.9783  1.4012
  487MOL0     O64153   4.155   0.425   5.976 -0.1729  1.3184  0.4408
  487MOL0     C64154   4.258   0.463   6.035 -0.0007 -0.3118 -0.2436
  487MOL0     O64155   4.274   0.587   6.097  0.0887 -0.3793  0.0510
  487MOL0     C64156   4.171   0.672   6.079 -0.5427 -0.2518 -0.1684
  487MOL0     C64157   4.179   0.752   5.960  1.1688  0.0173 -0.7322
  487MOL0     C64158   4.075   0.846   5.934 -0.5530 -0.8243  0.3769
  487MOL0     C64159   3.969   0.864   6.021 -0.0982  0.1835  0.5054
  487MOL0     O64160   3.878   0.958   5.972 -0.3185 -0.1927 -0.3638
  487MOL0     C64161   3.792   1.022   6.074 -0.1799  0.2120 -0.1601
  487MOL0     C64162   3.671   1.090   6.011  0.1167 -0.0662 -0.3229
  487MOL0     C64163   3.707   1.176   5.889 -0.7111  0.2152  0.2008
  487MOL0     C64164   3.583   1.245   5.838  0.1671 -0.4741  0.4782
  487MOL0     C64165   3.605   1.349   5.727 -0.2803 -0.7557 -0.3372
  487MOL0     C64166   3.679   1.482   5.757  0.9347 -0.0926  0.3693
  487MOL0     C64167   3.577   1.589   5.796  0.1959 -0.5521 -0.3226
  487MOL0     C64168   3.645   1.723   5.838 -0.7145 -0.0708  0.7073
  487MOL0     N64169   3.561   1.831   5.889 -0.2039  0.0287  0.7847
  487MOL0     C64170   3.477   1.826   5.996 -1.0030 -0.3247 -0.4881
  487MOL0     C64171   3.394   1.935   5.982  0.1266 -0.0493 -0.0165
  487MOL0     C64172   3.286   1.977   6.078  0.2157 -0.5266  0.0990
  487MOL0     C64173   3.345   2.065   6.195 -0.4004  0.5137 -0.5733
  487MOL0     C64174   3.227   2.116   6.282 -1.2000 -0.9492  1.1525
  487MOL0     C64175   3.283   2.231   6.374  0.4835 -0.5119 -0.5226
  487MOL0     O64176   3.191   2.233   6.481 -0.0125 -0.6062 -0.5875
  487MOL0     C64177   3.061   2.277   6.459  0.3712 -0.0560 -0.3691
  487MOL0     C64178   3.030   2.395   6.377  0.1238 -0.1305 -1.0451
  487MOL0     C64179   2.896   2.432   6.364  0.8799 -0.1553  0.9687
  487MOL0     C64180   2.798   2.363   6.442  0.3309 -1.1325  0.1648
  487MOL0     C64181   2.652   2.400   6.423  0.2259  0.2697  0.4651
  487MOL0     O64182   2.617   2.462   6.306 -0.5747 -0.6075  0.5133
  487MOL0     C64183   2.484   2.467   6.275 -0.2004 -0.5147 -1.1929
  487MOL0     C64184   2.393   2.356   6.279 -0.0954 -0.0960 -0.6986
  487MOL0     C64185   2.262   2.385   6.264  0.7507  0.1483  0.5769
  487MOL0     C64186   2.214   2.506   6.217 -0.8849 -0.6251  0.4386
  487MOL0     O64187   2.082   2.526   6.185 -0.2692  0.3291 -0.5989
  487MOL0     C64188   2.010   2.553   6.309  0.2660  0.5531  0.0659
  487MOL0     C64189   1.858   2.523   6.297 -0.3615 -0.7504  0.1962
  487MOL0     C64190   1.790   2.525   6.434 -0.2529  0.5183  0.1051
  487MOL0     C64191   1.664   2.461   6.422  0.5479 -0.0035 -0.5303
  487MOL0     C64192   1.582   2.489   6.552  0.1121  0.6839  0.9952
  487MOL0     C64193   1.443   2.416   6.519 -1.2769  0.4491 -0.0174
  487MOL0     C64194   1.372   2.414   6.654 -0.2974  0.8762 -0.5027
  487MOL0     C64195   1.222   2.400   6.648  0.0094 -0.3252  0.9187
  487MOL0    Cl64196   1.187   2.239   6.570  0.3858  0.1794  0.0796
  487MOL0     C64197   2.301   2.612   6.208 -0.5783 -0.0428 -0.5826
  487MOL0     C64198   2.437   2.592   6.232 -0.0082 -0.9440  0.5527
  487MOL0     O64199   2.576   2.379   6.521 -0.0480  0.2310  0.7520
  487MOL0     C64200   2.834   2.271   6.532  0.1942  0.6074 -0.5335
  487MOL0     C64201   2.965   2.227   6.545  0.4949  1.0171  0.4342
  487MOL0     N64202   3.425   1.994   5.859 -0.0109 -0.6106 -0.7508
  487MOL0     N64203   3.524   1.932   5.805 -0.7485 -0.6453  0.0102
  487MOL0     C64204   3.961   0.789   6.139  0.5277  0.7825  0.4064
  487MOL0     C64205   4.064   0.692   6.170 -0.1052  0.6719  0.0829
  487MOL0     C64206   4.373   0.381   6.023 -0.1115 -0.1530 -0.5391
  487MOL0     C64207   4.362   0.239   6.017  0.1434  0.2739 -0.4399
  487MOL0     C64208   4.470   0.163   6.046 -0.5085  0.6607 -0.4147
  487MOL0     C64209   4.600   0.230   6.072  0.9733 -0.1722  0.3426
  487MOL0     O64210   4.706   0.139   6.087  0.6631  0.0426 -0.1066
  487MOL0     C64211   4.836   0.184   6.120  0.6588 -0.4747  0.3955
  487MOL0     C64212   4.908   0.245   6.003 -1.4001 -0.8472  0.0895
  487MOL0     C64213   5.031   0.332   6.053  0.3704  0.8279 -0.1890
  487MOL0     C64214   4.990   0.457   6.131  0.7207 -0.0004  0.1663
  487MOL0     C64215   5.113   0.526   6.170  0.7995  1.2606 -0.2304
  487MOL0     C64216   5.210   0.595   6.194  0.2224  0.6889  0.1779
  487MOL0     C64217   4.606   0.365   6.085  0.2015 -0.4658 -0.5737
  487MOL0     C64218   4.494   0.434   6.049  0.1980 -0.7005 -0.1482
  487MOL0     H64219   4.249   0.733   5.880  2.2066  2.0569 -0.3807
  487MOL0     H64220   4.080   0.907   5.844  0.7899  0.9765  1.5967
  487MOL0     H64221   3.852   1.095   6.129 -0.6361  0.7643 -0.3871
  487MOL0     H64222   3.750   0.950   6.144  2.0880 -0.6153  0.4542
  487MOL0     H64223   3.622   1.153   6.086 -1.5925  0.5429 -1.8774
  487MOL0     H64224   3.599   1.009   5.993  1.2088 -2.1279  3.4670
  487MOL0     H64225   3.756   1.122   5.808  1.0925  3.6049 -1.1832
  487MOL0     H64226   3.795   1.238   5.911 -0.4911 -0.1959  0.5087
  487MOL0     H64227   3.511   1.171   5.801  0.2107  0.8358 -2.5868
  487MOL0     H64228   3.537   1.293   5.924  1.8366  1.0454  0.5723
  487MOL0     H64229   3.506   1.372   5.685 -0.9657 -1.7119  0.7085
  487MOL0     H64230   3.658   1.298   5.646  2.4592  1.9592 -0.4134
  487MOL0     H64231   3.745   1.502   5.673  0.1075 -2.6260 -0.9705
  487MOL0     H64232   3.737   1.475   5.849  2.7613  2.1079 -0.5269
  487MOL0     H64233   3.515   1.605   5.708  1.8160 -1.1585 -1.6406
  487MOL0     H64234   3.511   1.558   5.878 -0.2266  0.2845 -0.3308
  487MOL0     H64235   3.691   1.746   5.741 -1.2098 -2.1187 -0.0650
  487MOL0     H64236   3.724   1.712   5.913 -0.6721  2.5857  1.1279
  487MOL0     H64237   3.470   1.759   6.081 -0.1471  0.5785  0.3194
  487MOL0     H64238   3.225   1.893   6.112 -1.1180  0.7876  1.0914
  487MOL0     H64239   3.212   2.038   6.025 -2.2938 -0.7037  3.0894
  487MOL0     H64240   3.398   2.156   6.166  0.7358 -0.6404 -2.2738
  487MOL0     H64241   3.418   2.010   6.255  0.8067  1.0816 -1.4926
  487MOL0     H64242   3.139   2.144   6.223 -1.5174 -1.3603  1.4309
  487MOL0     H64243   3.214   2.033   6.352 -0.6576 -2.1578 -0.1270
  487MOL0     H64244   3.300   2.329   6.328 -1.1371 -0.6837 -1.5811
  487MOL0     H64245   3.376   2.187   6.411 -2.3131 -2.8973  4.5886
  487MOL0     H64246   3.105   2.453   6.323 -0.0501 -0.0592 -1.2103
  487MOL0     H64247   2.859   2.493   6.283 -1.5903 -1.0972  1.2807
  487MOL0     H64248   2.421   2.253   6.299  0.1266  0.0014 -0.5029
  487MOL0     H64249   2.186   2.307   6.261  2.0574 -1.2172  1.4445
  487MOL0     H64250   2.030   2.657   6.336  3.7575  0.4634 -1.5513
  487MOL0     H64251   2.039   2.494   6.397  0.6665  0.1972 -0.2991
  487MOL0     H64252   1.846   2.425   6.249 -0.0298  0.2283 -1.9674
  487MOL0     H64253   1.821   2.600   6.229  3.2800 -0.4070 -1.6505
  487MOL0     H64254   1.792   2.628   6.471  2.5207 -0.4711  3.1888
  487MOL0     H64255   1.843   2.461   6.505 -0.4028  0.9175  0.5823
  487MOL0     H64256   1.620   2.502   6.330  0.2251 -0.4632 -0.5799
  487MOL0     H64257   1.667   2.352   6.420 -2.4623 -0.1692 -1.6830
  487MOL0     H64258   1.570   2.596   6.571 -1.0475  0.8560 -0.4645
  487MOL0     H64259   1.642   2.438   6.627  0.2091 -1.8756 -0.6913
  487MOL0     H64260   1.457   2.317   6.473 -0.3891  1.1590 -1.3220
  487MOL0     H64261   1.389   2.476   6.446 -0.6676  1.1892  0.1303
  487MOL0     H64262   1.400   2.341   6.730 -4.4564 -1.9265 -1.3343
  487MOL0     H64263   1.392   2.509   6.703 -0.6769  0.3532  0.7032
  487MOL0     H64264   1.187   2.486   6.590  4.2824 -0.2301 -1.9579
  487MOL0     H64265   1.175   2.408   6.746 -1.0656 -0.1974  0.4154
  487MOL0     H64266   2.271   2.713   6.183  1.0643  0.9613  1.2072
  487MOL0     H64267   2.507   2.675   6.237 -0.4597 -0.5852  0.9754
  487MOL0     H64268   2.765   2.221   6.599 -0.1858 -1.4565 -2.3720
  487MOL0     H64269   3.002   2.166   6.626 -0.2061 -0.9622 -0.6817
  487MOL0     H64270   3.882   0.802   6.213 -0.7920  2.5075 -1.2001
  487MOL0     H64271   4.061   0.639   6.265  0.8926 -0.8676 -0.7005
  487MOL0     H64272   4.273   0.181   5.996  2.1725 -3.4664  0.3983
  487MOL0     H64273   4.468   0.055   6.061 -1.7190  0.5523 -1.1976
  487MOL0     H64274   4.894   0.099   6.156  2.2034  0.0516 -0.7482
  487MOL0     H64275   4.827   0.258   6.200  0.7345 -1.4090  1.2961
  487MOL0     H64276   4.936   0.159   5.941 -2.9372 -1.2471 -0.1002
  487MOL0     H64277   4.834   0.305   5.949  1.6897  1.5947 -1.7675
  487MOL0     H64278   5.081   0.370   5.964  0.0748  1.4406 -0.0952
  487MOL0     H64279   5.117   0.273   6.089  0.3536 -0.4093 -2.0356
  487MOL0     H64280   4.931   0.531   6.076  0.5926 -0.3351 -0.1525
  487MOL0     H64281   4.931   0.446   6.222 -0.3513  2.1188 -0.2116
  487MOL0     H64282   5.284   0.667   6.221  1.2603 -0.3856  0.2818
  487MOL0     H64283   4.700   0.418   6.102 -0.6948  1.0693 -0.2509
  487MOL0     H64284   4.493   0.542   6.059 -0.1169 -0.8947  3.3404
  488MOL0     O64285   4.255   4.468   3.633  0.6437 -0.0173 -0.5715
  488MOL0     C64286   4.316   4.460   3.742 -0.9808  0.4515 -0.4444
  488MOL0     O64287   4.266   4.432   3.864  0.0166 -0.1775 -0.3129
  488MOL0     C64288   4.132   4.432   3.881 -0.3985 -1.1215 -0.7583
  488MOL0     C64289   4.058   4.315   3.906 -0.6665  0.3031  0.3447
  488MOL0     C64290   3.913   4.310   3.908  0.0388  0.4368 -0.1110
  488MOL0     C64291   3.830   4.423   3.890  0.1055  0.8080 -0.2870
  488MOL0     O64292   3.702   4.401   3.898 -0.1583  0.7257 -0.2582
  488MOL0     C64293   3.613   4.506   3.909  0.7946  0.2358 -0.2299
  488MOL0     C64294   3.470   4.448   3.924 -0.7768 -0.0644  0.9641
  488MOL0     C64295   3.370   4.568   3.936 -0.3136  0.1612  0.1740
  488MOL0     C64296   3.221   4.519   3.947  1.2687 -0.4090 -0.1744
  488MOL0     C64297   3.191   4.471   4.088  0.4692  0.0946 -0.6382
  488MOL0     C64298   3.040   4.508   4.125 -0.8500  0.1468  0.0248
  488MOL0     C64299   2.978   4.457   4.257  0.0670  0.0168 -0.0504
  488MOL0     C64300   2.843   4.533   4.288 -0.3908 -0.2177 -0.1217
  488MOL0     N64301   2.726   4.462   4.226  0.3171 -0.0094 -0.0131
  488MOL0     C64302   2.690   4.332   4.242 -0.2248 -0.0632  0.4579
  488MOL0     C64303   2.572   4.320   4.183  0.3913 -0.1438 -0.0259
  488MOL0     C64304   2.480   4.198   4.188 -0.4898  0.5613 -0.1928
  488MOL0     C64305   2.508   4.112   4.056  0.4204  0.3449  0.2984
  488MOL0     C64306   2.442   4.163   3.927 -0.7843 -0.7883 -0.3435
  488MOL0     C64307   2.294   4.200   3.932  0.4433 -0.0803 -0.7016
  488MOL0     O64308   2.213   4.091   3.979  0.2721  0.2747 -0.8562
  488MOL0     C64309   2.079   4.095   3.942 -0.0062 -0.1805 -0.6179
  488MOL0     C64310   1.989   4.175   4.011 -0.7440 -0.0989 -0.5466
  488MOL0     C64311   1.859   4.159   3.975  0.1609 -0.3396  0.3548
  488MOL0     C64312   1.805   4.079   3.869 -0.0361  0.1405  0.2320
  488MOL0     C64313   1.655   4.089   3.836 -0.3429 -0.4321  0.6679
  488MOL0     O64314   1.578   4.192   3.895 -0.3936  0.1174  0.1272
  488MOL0     C64315   1.471   4.249   3.838  0.7118  0.0656  0.5951
  488MOL0     C64316   1.465   4.378   3.786 -0.3246 -0.3609  1.0672
  488MOL0     C64317   1.353   4.421   3.716 -0.3623 -0.4699  0.0844
  488MOL0     C64318   1.238   4.338   3.709  0.2289  0.1205 -0.1629
  488MOL0     O64319   1.140   4.388   3.630 -0.0172  0.3584  0.1879
  488MOL0     C64320   1.002   4.370   3.669 -0.6997 -0.2699 -0.3661
  488MOL0     C64321   0.917   4.477   3.603 -1.0006  0.3719 -0.7266
  488MOL0     C64322   0.771   4.437   3.625  0.1825 -1.0343 -0.4615
  488MOL0     C64323   0.673   4.517   3.536  0.3897  0.5514 -0.7050
  488MOL0     C64324   0.528   4.451   3.555 -0.0009  0.7941  1.0065
  488MOL0     C64325   0.454   4.423   3.418  0.3123 -0.2357 -0.0680
  488MOL0     C64326   0.305   4.379   3.435  0.0783 -0.1674 -0.0097
  488MOL0     C64327   0.287   4.236   3.473 -0.2698 -0.1880 -0.9150
  488MOL0    Cl64328   0.104   4.203   3.502 -0.1677  0.1429  0.4344
  488MOL0     C64329   1.232   4.205   3.766 -0.1240 -0.0990  0.7614
  488MOL0     C64330   1.350   4.167   3.833 -0.0883 -0.5150  0.8711
  488MOL0     O64331   1.614   4.001   3.755  0.2816  0.1953  0.0725
  488MOL0     C64332   1.895   3.998   3.809 -0.6264  0.1341  0.2435
  488MOL0     C64333   2.032   4.015   3.845 -1.3562  0.4066 -0.2645
  488MOL0     N64334   2.535   4.440   4.128 -0.5232  0.2093 -0.1013
  488MOL0     N64335   2.626   4.519   4.151  0.1312 -0.9300 -0.2289
  488MOL0     C64336   3.899   4.542   3.857 -0.4384 -0.0013  0.0529
  488MOL0     C64337   4.052   4.547   3.854  0.8259 -0.0468 -0.1741
  488MOL0     C64338   4.466   4.462   3.740  0.2564 -1.1888  0.6317
  488MOL0     C64339   4.531   4.421   3.624 -1.0811 -0.5274  0.1627
  488MOL0     C64340   4.674   4.438   3.620 -0.0401  0.4901  0.2749
  488MOL0     C64341   4.737   4.496   3.730 -0.4719 -0.0238  0.2623
  488MOL0     O64342   4.874   4.490   3.726  0.7499  0.1692  0.0517
  488MOL0     C64343   4.965   4.556   3.818 -0.3107  0.3457  0.0886
  488MOL0     C64344   5.051   4.453   3.890  0.0131  0.8735 -0.5362
  488MOL0     C64345   5.187   4.511   3.937 -1.7033  0.4146  0.4168
  488MOL0     C64346   5.170   4.597   4.057  1.4289 -0.0975  0.2762
  488MOL0     C64347   5.296   4.653   4.098 -0.2512  0.1985  0.3596
  488MOL0     C64348   5.394   4.722   4.134  0.1992 -0.3171 -0.8509
  488MOL0     C64349   4.672   4.526   3.846 -0.2153 -0.2134  0.0101
  488MOL0     C64350   4.535   4.509   3.847  0.2223 -0.2341  1.2343
  488MOL0     H64351   4.115   4.223   3.915 -0.8145  0.0183 -1.2797
  488MOL0     H64352   3.847   4.225   3.915 -0.2679  0.6312 -0.5767
  488MOL0     H64353   3.625   4.576   3.826  1.6518  0.9763  0.4940
  488MOL0     H64354   3.626   4.568   3.999  1.9778  0.3505 -0.4677
  488MOL0     H64355   3.481   4.397   4.020  1.9174 -1.6567 -0.0776
  488MOL0     H64356   3.439   4.383   3.842  1.7783  0.7223 -0.7362
  488MOL0     H64357   3.386   4.637   3.853 -0.9172 -2.2852 -2.0853
  488MOL0     H64358   3.393   4.630   4.024 -2.7509  1.8535 -0.2524
  488MOL0     H64359   3.158   4.608   3.935  2.0513  1.1139  4.5685
  488MOL0     H64360   3.184   4.440   3.881 -2.0609  1.1099 -0.3137
  488MOL0     H64361   3.251   4.535   4.153 -0.0611 -0.4483  0.4038
  488MOL0     H64362   3.208   4.365   4.107  2.4617  0.4632 -0.1939
  488MOL0     H64363   2.983   4.488   4.034 -0.3226  5.3104 -1.7478
  488MOL0     H64364   3.028   4.616   4.142 -0.8399 -0.1587  2.3936
  488MOL0     H64365   2.980   4.348   4.270  4.3289  0.0844  1.5989
  488MOL0     H64366   3.061   4.479   4.325 -0.2204 -2.6837  1.3147
  488MOL0     H64367   2.844   4.642   4.281 -1.5563 -0.1138  0.9676
  488MOL0     H64368   2.822   4.516   4.394 -0.4796 -2.2734 -0.4196
  488MOL0     H64369   2.735   4.250   4.298  0.9308  0.2834  0.0492
  488MOL0     H64370   2.373   4.225   4.186 -0.1679  2.0682  0.7551
  488MOL0     H64371   2.492   4.150   4.286 -0.7095 -0.2066 -0.5440
  488MOL0     H64372   2.484   4.005   4.060  1.9185  0.0140  1.1459
  488MOL0     H64373   2.616   4.120   4.038  0.5643  1.1396  1.4624
  488MOL0     H64374   2.493   4.255   3.896  0.9074 -1.0156  1.5459
  488MOL0     H64375   2.461   4.085   3.853 -1.9046 -1.1339 -0.2795
  488MOL0     H64376   2.268   4.220   3.828 -0.6717 -1.0882 -0.6309
  488MOL0     H64377   2.278   4.290   3.993 -0.0164 -1.4022  1.2159
  488MOL0     H64378   2.021   4.231   4.098 -0.7945  2.5416 -2.1126
  488MOL0     H64379   1.790   4.234   4.012 -0.6746 -0.5139 -0.7975
  488MOL0     H64380   1.561   4.429   3.790  0.4103 -1.5452 -0.3646
  488MOL0     H64381   1.335   4.520   3.677 -0.1942  0.3188  1.8940
  488MOL0     H64382   1.006   4.373   3.779  4.4015  0.6000 -0.3209
  488MOL0     H64383   0.960   4.271   3.654  1.4592 -1.0875 -1.4161
  488MOL0     H64384   0.936   4.490   3.496 -0.5787  1.7382 -0.5065
  488MOL0     H64385   0.939   4.576   3.644  0.6821 -1.7281  4.2737
  488MOL0     H64386   0.733   4.448   3.727  0.7302  1.9288 -0.5012
  488MOL0     H64387   0.755   4.330   3.606 -0.4408 -0.7105 -1.9343
  488MOL0     H64388   0.675   4.621   3.569  1.1413  0.7497 -1.3543
  488MOL0     H64389   0.703   4.506   3.431  1.2817 -0.8595 -0.3339
  488MOL0     H64390   0.459   4.516   3.610 -0.4706  1.0209  0.1698
  488MOL0     H64391   0.540   4.361   3.616 -1.4107 -0.9206 -1.0956
  488MOL0     H64392   0.516   4.355   3.360  0.1655 -0.6100  0.2106
  488MOL0     H64393   0.459   4.511   3.353 -2.1732 -0.6800 -0.9688
  488MOL0     H64394   0.260   4.453   3.501 -0.0488  0.8484 -1.1988
  488MOL0     H64395   0.259   4.396   3.337 -0.1368  0.9719  0.2770
  488MOL0     H64396   0.340   4.212   3.566  1.9246  1.2332 -1.7516
  488MOL0     H64397   0.335   4.181   3.392 -0.9132  0.8906 -2.0519
  488MOL0     H64398   1.141   4.145   3.765 -0.7039  0.7624 -0.4134
  488MOL0     H64399   1.353   4.067   3.874  2.1933 -0.7961  0.1950
  488MOL0     H64400   1.865   3.945   3.720  1.8180  1.3659 -1.4362
  488MOL0     H64401   2.108   3.961   3.788 -0.7080  1.0245 -0.0003
  488MOL0     H64402   3.855   4.640   3.840 -0.9205 -0.2010  0.1401
  488MOL0     H64403   4.109   4.639   3.843  0.7373  0.1746  1.0347
  488MOL0     H64404   4.475   4.378   3.541 -3.0214 -0.4680  1.3674
  488MOL0     H64405   4.721   4.412   3.526 -0.7949  4.1681 -1.2953
  488MOL0     H64406   4.924   4.638   3.878  1.2150  0.4741  1.0114
  488MOL0     H64407   5.040   4.602   3.753 -0.8673  1.5244  0.2505
  488MOL0     H64408   4.988   4.417   3.972 -0.8623 -1.5390 -2.1734
  488MOL0     H64409   5.075   4.363   3.834  2.4465  1.2059 -0.1479
  488MOL0     H64410   5.247   4.560   3.860 -3.3428  0.7495 -0.7162
  488MOL0     H64411   5.240   4.426   3.978 -0.7914  1.3964  1.3374
  488MOL0     H64412   5.098   4.676   4.031 -1.6548 -2.9924 -0.6467
  488MOL0     H64413   5.140   4.550   4.151  2.2340 -1.4055 -0.1021
  488MOL0     H64414   5.479   4.785   4.152  2.0532 -1.9488 -3.2263
  488MOL0     H64415   4.737   4.561   3.925 -0.3982 -0.1661  0.1397
  488MOL0     H64416   4.482   4.524   3.941 -1.3644  0.9689  0.1934
  489MOL0     O64417   6.345  10.967   8.830  0.1633  0.0058  0.0358
  489MOL0     C64418   6.448  11.036   8.846  0.6236  0.2983 -0.3140
  489MOL0     O64419   6.453  11.167   8.882  0.1246  0.7072 -0.0191
  489MOL0     C64420   6.339  11.239   8.902 -0.4289 -0.0699 -0.2896
  489MOL0     C64421   6.319  11.310   9.028  0.2823 -0.0459  0.3832
  489MOL0     C64422   6.184  11.359   9.058 -1.0785 -0.7153  0.3560
  489MOL0     C64423   6.081  11.350   8.965  0.1452  0.4238  1.1177
  489MOL0     O64424   5.954  11.396   8.977 -0.7132  0.9405 -0.3865
  489MOL0     C64425   5.915  11.455   9.102 -0.1859 -0.1924 -0.0284
  489MOL0     C64426   5.790  11.531   9.083  0.2222 -0.8159 -0.5189
  489MOL0     C64427   5.671  11.449   9.106  0.9510  0.0588  0.1702
  489MOL0     C64428   5.563  11.496   9.008 -0.9579 -0.3155 -0.6284
  489MOL0     C64429   5.430  11.416   9.012  0.2343 -0.5712 -0.2237
  489MOL0     C64430   5.370  11.428   9.149  0.2734  0.1534 -0.3343
  489MOL0     C64431   5.221  11.383   9.130  1.3363 -0.0401 -0.2274
  489MOL0     C64432   5.125  11.479   9.207  0.3242 -0.0814  0.3410
  489MOL0     N64433   4.984  11.443   9.188  0.4452  0.0651  0.3090
  489MOL0     C64434   4.931  11.320   9.224 -0.2559 -1.0977 -0.0813
  489MOL0     C64435   4.802  11.328   9.206 -1.1537  0.1338 -0.1121
  489MOL0     C64436   4.704  11.213   9.225 -0.5534 -0.6908  0.2577
  489MOL0     C64437   4.558  11.271   9.217 -0.1825  0.1064  0.9270
  489MOL0     C64438   4.457  11.160   9.253 -0.1978 -0.5896 -0.7690
  489MOL0     C64439   4.310  11.202   9.206 -0.0429 -0.6660 -0.3231
  489MOL0     O64440   4.221  11.100   9.257 -0.1732  0.7616  0.1908
  489MOL0     C64441   4.082  11.119   9.239 -0.3677 -0.5858  0.7905
  489MOL0     C64442   4.016  11.241   9.231 -0.1102 -0.0524 -0.1514
  489MOL0     C64443   3.884  11.244   9.184 -0.9720 -0.0622 -0.4116
  489MOL0     C64444   3.808  11.121   9.175 -0.1777 -0.8939 -0.9449
  489MOL0     C64445   3.661  11.124   9.134 -0.3793 -0.3663 -0.0741
  489MOL0     O64446   3.599  11.006   9.116  0.3780  0.1879  0.0675
  489MOL0     C64447   3.459  11.007   9.142 -0.5633  0.6182 -0.3159
  489MOL0     C64448   3.422  10.928   9.249 -0.3356  0.5234 -0.7744
  489MOL0     C64449   3.290  10.909   9.281 -0.6357 -0.2082  0.0649
  489MOL0     C64450   3.194  10.971   9.203  0.4463  0.4503  0.3144
  489MOL0     O64451   3.063  10.967   9.225 -0.7595  0.2327  0.0564
  489MOL0     C64452   3.003  10.899   9.329 -0.3986  0.5422  0.2548
  489MOL0     C64453   2.847  10.910   9.339 -0.4206  0.6397 -0.2419
  489MOL0     C64454   2.776  10.957   9.217  0.4380 -0.3408  0.3127
  489MOL0     C64455   2.628  10.962   9.251 -0.5436  0.0682 -0.2468
  489MOL0     C64456   2.544  10.977   9.129  0.4606 -0.2380 -0.0645
  489MOL0     C64457   2.399  10.937   9.155  0.2605 -0.4121 -0.0638
  489MOL0     C64458   2.308  10.953   9.015 -1.1974  0.3566 -0.0938
  489MOL0     C64459   2.203  10.839   8.998  0.1173  0.5413  0.0245
  489MOL0    Cl64460   2.091  10.863   8.864 -0.1808 -0.1095 -0.7161
  489MOL0     C64461   3.232  11.057   9.100  0.2226 -0.1901  0.0166
  489MOL0     C64462   3.365  11.068   9.068 -0.1606  0.1163  0.4443
  489MOL0     O64463   3.612  11.237   9.152  0.2334  0.1125 -0.4779
  489MOL0     C64464   3.877  10.998   9.178 -0.3894  0.3688  0.0526
  489MOL0     C64465   4.015  11.002   9.209 -0.3808 -0.4917  0.4512
  489MOL0     N64466   4.783  11.457   9.169  1.0350 -0.1883  0.2926
  489MOL0     N64467   4.889  11.529   9.154 -0.1664  0.3432  0.1426
  489MOL0     C64468   6.122  11.305   8.839  1.3352  0.5673  0.2484
  489MOL0     C64469   6.242  11.245   8.809 -1.2459 -0.4981  0.2931
  489MOL0     C64470   6.575  10.962   8.817 -0.0267 -0.5723  0.8574
  489MOL0     C64471   6.573  10.824   8.778 -0.3961  0.4622  0.1625
  489MOL0     C64472   6.684  10.753   8.755 -0.3800 -0.4035 -0.2164
  489MOL0     C64473   6.807  10.818   8.756  0.0977 -0.2514 -0.0818
  489MOL0     O64474   6.908  10.730   8.740 -0.1793  0.1757 -0.6122
  489MOL0     C64475   7.041  10.761   8.788  0.8625 -0.6766  0.0903
  489MOL0     C64476   7.118  10.815   8.666 -0.6727 -0.5683 -0.3024
  489MOL0     C64477   7.251  10.880   8.682  0.1854  1.2885  0.2140
  489MOL0     C64478   7.237  11.029   8.717 -0.7237 -0.1862 -0.4569
  489MOL0     C64479   7.190  11.062   8.857  0.2406 -0.7152 -0.7918
  489MOL0     C64480   7.148  11.106   8.965  0.2925  0.5159 -0.0675
  489MOL0     C64481   6.818  10.949   8.798 -0.3263  0.3513  0.0129
  489MOL0     C64482   6.700  11.022   8.819  0.6983  0.1418  0.7184
  489MOL0     H64483   6.410  11.323   9.086  0.4213  1.7919 -0.1547
  489MOL0     H64484   6.180  11.398   9.160  1.1130  1.3839 -0.2723
  489MOL0     H64485   5.987  11.521   9.150  1.9488 -2.0293 -0.5335
  489MOL0     H64486   5.902  11.371   9.171  2.1096 -0.6611 -0.0847
  489MOL0     H64487   5.778  11.582   8.987 -0.2947  0.9063  0.4209
  489MOL0     H64488   5.791  11.607   9.162  1.5589 -2.1877  0.8585
  489MOL0     H64489   5.648  11.457   9.212 -1.0498  1.1499 -0.3026
  489MOL0     H64490   5.685  11.345   9.076  1.4815  0.1730 -0.0033
  489MOL0     H64491   5.544  11.602   9.025 -0.2239 -0.1756 -0.6401
  489MOL0     H64492   5.594  11.485   8.904 -1.7105  2.5036 -1.2465
  489MOL0     H64493   5.446  11.315   8.973  0.7090 -0.2293 -0.9444
  489MOL0     H64494   5.367  11.467   8.940 -1.8583 -0.9584  1.2545
  489MOL0     H64495   5.378  11.530   9.188 -0.7774 -0.4828  1.6814
  489MOL0     H64496   5.419  11.368   9.226 -0.1844  0.8535  0.5260
  489MOL0     H64497   5.195  11.385   9.024  0.0165  2.2782  0.0637
  489MOL0     H64498   5.192  11.286   9.172 -1.4890  1.6011  2.0159
  489MOL0     H64499   5.144  11.585   9.185 -0.0621  0.1970  1.2974
  489MOL0     H64500   5.150  11.474   9.313  2.2769  2.5998  0.1229
  489MOL0     H64501   4.983  11.229   9.254 -2.0630 -0.9843  4.0081
  489MOL0     H64502   4.721  11.168   9.323 -1.4933 -0.6371  0.4558
  489MOL0     H64503   4.719  11.145   9.140 -1.2597  1.6836 -1.9115
  489MOL0     H64504   4.545  11.309   9.115  2.3587 -0.9535  0.1191
  489MOL0     H64505   4.553  11.349   9.293  2.0510  0.9878  0.2438
  489MOL0     H64506   4.491  11.070   9.202 -0.3982 -1.3337  0.3927
  489MOL0     H64507   4.459  11.145   9.361 -1.3597 -1.9329 -0.9070
  489MOL0     H64508   4.308  11.208   9.097 -1.6732  0.4634 -0.2623
  489MOL0     H64509   4.297  11.306   9.236  1.4521  0.8944 -4.3659
  489MOL0     H64510   4.064  11.336   9.253 -1.5156  1.0946 -1.7565
  489MOL0     H64511   3.834  11.340   9.179 -1.3440 -0.2177  0.1575
  489MOL0     H64512   3.504  10.883   9.304 -2.1691  0.6224  2.1998
  489MOL0     H64513   3.265  10.833   9.354  1.4189 -2.5760 -1.5110
  489MOL0     H64514   3.049  10.925   9.425  0.7912 -0.5606  0.0047
  489MOL0     H64515   3.021  10.793   9.310 -0.5241  0.4340  0.7120
  489MOL0     H64516   2.831  10.983   9.419  1.1739  1.5294 -0.6769
  489MOL0     H64517   2.808  10.815   9.376 -0.5284  1.1414  1.0151
  489MOL0     H64518   2.799  10.896   9.130  0.6532 -1.3113  1.0261
  489MOL0     H64519   2.807  11.059   9.194 -2.1190  0.4773  0.1732
  489MOL0     H64520   2.609  10.861   9.290  1.7826 -0.6584 -0.8319
  489MOL0     H64521   2.609  11.040   9.324 -0.1384  2.8612 -2.9337
  489MOL0     H64522   2.589  10.933   9.039 -0.9548  0.4205 -1.1399
  489MOL0     H64523   2.537  11.084   9.107 -2.2764  0.3498  2.9327
  489MOL0     H64524   2.355  11.001   9.232  1.8553  0.1698  0.3920
  489MOL0     H64525   2.392  10.837   9.199 -0.7158  0.4376  1.8142
  489MOL0     H64526   2.252  11.046   9.023 -0.5338  0.6553  1.5442
  489MOL0     H64527   2.372  10.962   8.927 -3.3048  0.1185 -1.7150
  489MOL0     H64528   2.148  10.830   9.092 -0.0389  0.3186 -0.0854
  489MOL0     H64529   2.245  10.740   8.980  0.6540  0.6965  0.4124
  489MOL0     H64530   3.159  11.097   9.031 -0.3231  0.9656  1.2194
  489MOL0     H64531   3.393  11.112   8.973  2.3851 -0.9212  0.6253
  489MOL0     H64532   3.819  10.907   9.172 -0.6673  0.5887 -0.6931
  489MOL0     H64533   4.072  10.910   9.223  2.1620  0.6303 -1.6219
  489MOL0     H64534   6.047  11.319   8.762  1.1930  0.9640  0.4575
  489MOL0     H64535   6.259  11.204   8.710  1.3056 -1.3488  0.9985
  489MOL0     H64536   6.478  10.771   8.775 -0.4288  0.5569 -0.7705
  489MOL0     H64537   6.687  10.646   8.733 -0.0938 -0.5836  0.6595
  489MOL0     H64538   7.080  10.668   8.832 -0.9847 -1.5226  0.0348
  489MOL0     H64539   7.053  10.840   8.863  4.5529 -0.2037 -0.8120
  489MOL0     H64540   7.132  10.726   8.605  0.1506 -2.5515  2.5741
  489MOL0     H64541   7.065  10.890   8.606  0.0619 -0.4558 -0.8248
  489MOL0     H64542   7.295  10.867   8.583 -1.0945 -4.5893  0.0464
  489MOL0     H64543   7.320  10.821   8.742 -1.7638 -2.3832 -0.8476
  489MOL0     H64544   7.335  11.076   8.706 -0.8059  0.3955  1.0298
  489MOL0     H64545   7.168  11.072   8.644 -2.7266 -2.8181 -0.2794
  489MOL0     H64546   7.120  11.155   9.057 -3.7016 -0.1063 -0.7960
  489MOL0     H64547   6.916  10.994   8.809 -0.9790  1.3071  2.7677
  489MOL0     H64548   6.689  11.128   8.839 -2.6543 -0.3857  2.3641
  490MOL0     O64549   8.871   8.300   7.848 -1.2520  0.2785  0.0901
  490MOL0     C64550   8.966   8.346   7.781 -0.5596 -0.4211  0.0090
  490MOL0     O64551   8.942   8.447   7.690 -0.0783  0.1832 -0.0594
  490MOL0     C64552   8.821   8.503   7.692  0.2155  0.1207  0.3408
  490MOL0     C64553   8.784   8.608   7.782  0.2345  0.6239 -0.0766
  490MOL0     C64554   8.662   8.661   7.789  0.2080 -0.5073 -0.4478
  490MOL0     C64555   8.559   8.617   7.697 -0.5579  0.3104  0.2289
  490MOL0     O64556   8.437   8.673   7.696  0.3962 -0.1067 -0.3407
  490MOL0     C64557   8.367   8.699   7.568 -0.2011 -0.1737 -0.0877
  490MOL0     C64558   8.250   8.789   7.583  0.3887  0.6701  0.2845
  490MOL0     C64559   8.179   8.809   7.447 -0.2000  0.2613 -0.5918
  490MOL0     C64560   8.072   8.920   7.458  0.0880 -0.9571  0.3334
  490MOL0     C64561   7.983   8.905   7.334 -0.4543 -0.2929 -0.4103
  490MOL0     C64562   7.858   8.996   7.347  0.9628  0.3778 -0.0393
  490MOL0     C64563   7.771   8.976   7.471  0.9005  0.3528 -0.6208
  490MOL0     C64564   7.675   8.849   7.461 -0.8462  0.2213 -0.2791
  490MOL0     N64565   7.580   8.825   7.568  0.7740  0.3087 -1.2538
  490MOL0     C64566   7.486   8.723   7.573  0.2680  0.3494  0.7330
  490MOL0     C64567   7.422   8.733   7.689  0.0136 -0.3083 -0.2830
  490MOL0     C64568   7.307   8.657   7.751 -0.4092  0.6899 -0.1024
  490MOL0     C64569   7.175   8.711   7.693  0.2555 -1.1559  0.8969
  490MOL0     C64570   7.089   8.804   7.784 -0.1394 -0.3148 -0.0353
  490MOL0     C64571   6.961   8.829   7.704 -0.3846  0.7959 -0.6782
  490MOL0     O64572   6.867   8.727   7.742  0.1505 -0.1405  0.0493
  490MOL0     C64573   6.758   8.715   7.664  0.2087 -0.3795  0.1094
  490MOL0     C64574   6.685   8.601   7.675  0.5523  1.1221  0.4116
  490MOL0     C64575   6.564   8.575   7.608  0.0812 -0.5080 -1.1221
  490MOL0     C64576   6.519   8.669   7.515  0.1073  0.7383  0.5021
  490MOL0     C64577   6.405   8.637   7.424 -0.3823 -0.7699  0.0936
  490MOL0     O64578   6.334   8.523   7.450  0.9831  0.4997 -0.2275
  490MOL0     C64579   6.238   8.476   7.358 -0.2314 -0.0462 -0.4225
  490MOL0     C64580   6.275   8.401   7.244 -0.5061  0.9331  0.6930
  490MOL0     C64581   6.182   8.337   7.161  0.7665 -0.2639  0.2515
  490MOL0     C64582   6.043   8.340   7.201 -0.7383 -0.2901 -0.4713
  490MOL0     O64583   5.951   8.290   7.111  0.0753 -0.1004 -0.5982
  490MOL0     C64584   5.827   8.233   7.168  0.1388 -0.1682  0.4683
  490MOL0     C64585   5.843   8.119   7.282 -0.1998 -0.1926 -0.1140
  490MOL0     C64586   5.705   8.089   7.341  0.6178  0.2308 -0.0369
  490MOL0     C64587   5.714   7.983   7.453  0.4780  0.0082 -0.4062
  490MOL0     C64588   5.580   7.923   7.491 -0.0257  0.0011 -0.8614
  490MOL0     C64589   5.506   7.833   7.389  0.0634 -0.0806 -0.9940
  490MOL0     C64590   5.380   7.764   7.448  0.0905  0.4916 -0.3877
  490MOL0     C64591   5.300   7.682   7.339  1.3216 -1.0652  0.5083
  490MOL0    Cl64592   5.421   7.590   7.227  0.0536  0.4103  0.0665
  490MOL0     C64593   6.006   8.412   7.318 -0.8768  1.0400  0.6414
  490MOL0     C64594   6.106   8.467   7.397  0.4926 -0.0785  0.6587
  490MOL0     O64595   6.385   8.706   7.321  0.6924  0.6268 -0.4625
  490MOL0     C64596   6.584   8.784   7.502  0.0009  0.2473 -0.1225
  490MOL0     C64597   6.709   8.811   7.571  0.3429  1.0314  0.4858
  490MOL0     N64598   7.475   8.836   7.756 -0.0351  0.1122  0.2641
  490MOL0     N64599   7.567   8.899   7.691  0.1089  0.2316 -0.3701
  490MOL0     C64600   8.596   8.523   7.594  0.5095  0.1719 -0.7862
  490MOL0     C64601   8.722   8.458   7.601 -0.2936 -0.2960 -0.6636
  490MOL0     C64602   9.103   8.311   7.819  0.1488 -0.2260  0.6279
  490MOL0     C64603   9.115   8.215   7.916 -0.5446 -0.0668 -0.3358
  490MOL0     C64604   9.238   8.192   7.967  1.0536  0.0237 -0.3806
  490MOL0     C64605   9.352   8.242   7.905 -0.5862  0.4362 -0.1960
  490MOL0     O64606   9.473   8.216   7.965  0.4414 -0.4065  0.3120
  490MOL0     C64607   9.594   8.272   7.917  0.1529 -0.2901 -0.1179
  490MOL0     C64608   9.701   8.189   7.972 -0.4226 -0.3111 -0.3958
  490MOL0     C64609   9.722   8.190   8.124 -0.3217  0.3005  0.0112
  490MOL0     C64610   9.821   8.298   8.174 -0.7568 -0.0598 -0.6050
  490MOL0     C64611   9.751   8.427   8.161  0.1387 -0.2152  0.4368
  490MOL0     C64612   9.698   8.539   8.149  0.0262  0.1440 -0.8203
  490MOL0     C64613   9.341   8.315   7.786  0.5793 -0.2555 -0.2227
  490MOL0     C64614   9.215   8.345   7.740  0.5073  0.1323  0.3576
  490MOL0     H64615   8.867   8.631   7.847  0.4436 -2.6445  0.9992
  490MOL0     H64616   8.638   8.730   7.869  0.0594 -0.2597 -0.7058
  490MOL0     H64617   8.337   8.602   7.528  3.3410 -1.5082  0.1597
  490MOL0     H64618   8.439   8.750   7.504 -0.4484 -1.0621 -1.1062
  490MOL0     H64619   8.292   8.882   7.622  1.3833 -0.4381  2.0070
  490MOL0     H64620   8.171   8.769   7.656 -1.4473  1.2828 -1.4320
  490MOL0     H64621   8.141   8.714   7.408  3.4570 -2.5296  1.9547
  490MOL0     H64622   8.252   8.842   7.374 -0.8866  3.0852 -0.1263
  490MOL0     H64623   8.018   8.937   7.551  2.1267 -1.6449  1.6978
  490MOL0     H64624   8.118   9.018   7.444 -4.3479  1.1903 -1.3865
  490MOL0     H64625   7.955   8.799   7.325  1.7612 -0.8729 -1.1136
  490MOL0     H64626   8.047   8.919   7.246  2.1819 -0.8430  1.2990
  490MOL0     H64627   7.797   8.973   7.260  1.5227 -4.8398  0.6552
  490MOL0     H64628   7.888   9.101   7.339 -0.4336  1.0351  2.3709
  490MOL0     H64629   7.830   8.963   7.562  0.9459 -4.1635 -1.0551
  490MOL0     H64630   7.707   9.058   7.503 -2.1940 -2.5087  1.0762
  490MOL0     H64631   7.746   8.766   7.462 -1.5447 -0.4027 -1.1053
  490MOL0     H64632   7.619   8.853   7.367 -2.3613 -0.7261  0.5466
  490MOL0     H64633   7.479   8.654   7.491 -1.2147  0.5969  0.6330
  490MOL0     H64634   7.309   8.653   7.860  0.1408  0.2987 -0.1255
  490MOL0     H64635   7.309   8.551   7.724 -2.1312  0.5104  0.3311
  490MOL0     H64636   7.118   8.626   7.653 -1.7533 -0.5331  2.2753
  490MOL0     H64637   7.203   8.761   7.600 -0.3310 -0.6404  0.9908
  490MOL0     H64638   7.073   8.754   7.881  0.0321  0.2365  0.2784
  490MOL0     H64639   7.146   8.896   7.798 -1.1019 -0.0404  2.9948
  490MOL0     H64640   6.991   8.827   7.599  1.6245  1.3426 -0.1632
  490MOL0     H64641   6.920   8.927   7.729 -1.6048  0.0994  0.1715
  490MOL0     H64642   6.708   8.515   7.738 -1.4222  0.1768 -0.0741
  490MOL0     H64643   6.511   8.481   7.622 -1.8861  0.3291 -2.4632
  490MOL0     H64644   6.383   8.405   7.231 -0.6492  3.0976 -0.3934
  490MOL0     H64645   6.219   8.294   7.068  2.8502  0.9678  0.4479
  490MOL0     H64646   5.766   8.187   7.089  0.0657 -1.5968  1.3097
  490MOL0     H64647   5.768   8.315   7.207  0.9891 -0.2055  1.8991
  490MOL0     H64648   5.907   8.151   7.366  3.4150 -5.1328 -0.5791
  490MOL0     H64649   5.890   8.030   7.240 -0.9390 -0.9040  0.5365
  490MOL0     H64650   5.654   8.043   7.255 -1.5771  1.9345  0.2678
  490MOL0     H64651   5.653   8.175   7.383 -1.0376 -1.0590  0.6517
  490MOL0     H64652   5.785   7.904   7.428  2.1720  0.5586  2.2845
  490MOL0     H64653   5.753   8.030   7.544 -0.1443 -1.0177  0.4095
  490MOL0     H64654   5.517   8.006   7.525 -0.4479  0.0881 -1.8019
  490MOL0     H64655   5.589   7.865   7.583 -2.9868  2.5169  1.2519
  490MOL0     H64656   5.568   7.756   7.343 -1.1999 -1.8266  0.1037
  490MOL0     H64657   5.477   7.892   7.301  0.3138  0.9933 -0.3821
  490MOL0     H64658   5.417   7.696   7.525  1.7065  2.5406  0.7426
  490MOL0     H64659   5.316   7.845   7.486 -2.7354 -1.2904 -1.0564
  490MOL0     H64660   5.242   7.753   7.279  0.8537 -0.2979  1.8251
  490MOL0     H64661   5.215   7.629   7.382 -1.6597  3.1958  0.4490
  490MOL0     H64662   5.902   8.408   7.348 -1.9327  1.1072 -2.6494
  490MOL0     H64663   6.081   8.506   7.495  0.9565 -1.4768  1.3731
  490MOL0     H64664   6.538   8.859   7.437  0.4920  0.6141 -0.0575
  490MOL0     H64665   6.763   8.901   7.543 -0.4778  1.3186 -0.2298
  490MOL0     H64666   8.526   8.504   7.513  0.2701 -1.7129 -0.1787
  490MOL0     H64667   8.751   8.381   7.530  4.5889  1.6596 -1.1472
  490MOL0     H64668   9.042   8.154   7.969  0.0054 -0.2938  0.1729
  490MOL0     H64669   9.260   8.132   8.055  3.1787 -0.9511 -1.5082
  490MOL0     H64670   9.602   8.377   7.946 -2.1316 -0.0360 -0.2002
  490MOL0     H64671   9.592   8.265   7.808  1.7308  0.5700 -0.2339
  490MOL0     H64672   9.690   8.085   7.940  3.9977 -0.2571 -2.8314
  490MOL0     H64673   9.792   8.230   7.926 -0.2708 -0.0009  0.1707
  490MOL0     H64674   9.732   8.092   8.171 -1.3786 -0.3285 -1.0081
  490MOL0     H64675   9.624   8.219   8.162 -2.5617  0.3502 -4.9945
  490MOL0     H64676   9.844   8.276   8.279 -0.1428  1.0947 -0.4828
  490MOL0     H64677   9.908   8.307   8.109 -1.3267  1.7734 -1.1893
  490MOL0     H64678   9.645   8.631   8.138  0.0897  0.1757 -0.8637
  490MOL0     H64679   9.427   8.347   7.728  1.2600 -0.5320  0.6121
  490MOL0     H64680   9.190   8.379   7.640 -1.7977 -0.7848  0.5565
  491MOL0     O64681   0.387  10.978  10.048  0.7244  0.7845  0.9761
  491MOL0     C64682   0.435  10.868  10.045 -0.2857 -0.2334  0.6974
  491MOL0     O64683   0.424  10.771  10.147  0.0676 -0.3004  0.1728
  491MOL0     C64684   0.348  10.802  10.257  0.9629 -0.6297  0.2817
  491MOL0     C64685   0.403  10.814  10.383 -0.1005 -0.2296  0.2626
  491MOL0     C64686   0.325  10.825  10.502  0.6078  0.1954 -0.2600
  491MOL0     C64687   0.185  10.826  10.486 -0.1919 -0.7457  0.6396
  491MOL0     O64688   0.113  10.827  10.606 -0.0875  0.0201  0.0614
  491MOL0     C64689  -0.025  10.848  10.594  0.7037 -0.4586 -0.2845
  491MOL0     C64690  -0.081  10.877  10.732 -0.1432 -0.1425 -0.1193
  491MOL0     C64691  -0.235  10.908  10.735 -0.4493 -0.2619 -0.7385
  491MOL0     C64692  -0.281  11.027  10.823 -0.6775 -0.9543  0.9715
  491MOL0     C64693  -0.212  11.163  10.787  0.1277  1.1162 -0.0433
  491MOL0     C64694  -0.252  11.258  10.904  0.9753 -0.3950  0.2972
  491MOL0     C64695  -0.406  11.292  10.898  0.5809 -1.1399 -0.3340
  491MOL0     C64696  -0.446  11.369  11.027  0.8245 -0.6403 -0.4386
  491MOL0     N64697  -0.568  11.449  10.992  0.0045  0.2511  0.2951
  491MOL0     C64698  -0.570  11.575  10.951 -0.6649  0.7903 -0.5201
  491MOL0     C64699  -0.701  11.606  10.973 -0.4193 -0.1576  0.7174
  491MOL0     C64700  -0.752  11.753  10.950 -0.3122 -0.4294 -0.1397
  491MOL0     C64701  -0.904  11.756  10.917  0.3727 -0.4029 -0.0781
  491MOL0     C64702  -0.955  11.899  10.895  0.6078 -0.0930  0.4345
  491MOL0     C64703  -1.108  11.887  10.895 -0.3821 -0.2767 -0.7067
  491MOL0     O64704  -1.144  12.023  10.865  0.1310  0.2099  0.7697
  491MOL0     C64705  -1.277  12.039  10.834  0.7673 -0.0838  0.9276
  491MOL0     C64706  -1.376  11.937  10.824  0.6684 -0.3084 -0.2228
  491MOL0     C64707  -1.509  11.966  10.787 -0.2352 -0.3651 -1.2567
  491MOL0     C64708  -1.544  12.102  10.764 -0.6252 -0.7401  0.1893
  491MOL0     C64709  -1.671  12.140  10.715  0.4098  0.3235  0.2420
  491MOL0     O64710  -1.681  12.266  10.654 -0.9608 -0.0874  0.7483
  491MOL0     C64711  -1.799  12.325  10.645  0.7336 -0.3854  0.0897
  491MOL0     C64712  -1.830  12.417  10.747 -0.4737 -0.4522  0.3125
  491MOL0     C64713  -1.952  12.485  10.742 -0.2844 -0.0148  0.5029
  491MOL0     C64714  -2.051  12.464  10.640 -0.3083  0.5791  0.2867
  491MOL0     O64715  -2.162  12.542  10.643  0.0075  0.3497  0.6108
  491MOL0     C64716  -2.229  12.534  10.515  0.7079  0.3691 -0.0360
  491MOL0     C64717  -2.344  12.643  10.515  0.1487 -0.2336 -0.1642
  491MOL0     C64718  -2.455  12.600  10.605 -0.2202  0.2373 -0.2948
  491MOL0     C64719  -2.548  12.719  10.628 -0.2731  1.0106  0.5435
  491MOL0     C64720  -2.649  12.689  10.743  0.4013  0.3524 -0.5993
  491MOL0     C64721  -2.761  12.802  10.745 -0.3010  0.1578 -0.4423
  491MOL0     C64722  -2.865  12.769  10.857  0.8475 -0.6513  0.0817
  491MOL0     C64723  -2.950  12.648  10.833  0.6066 -0.2011 -0.4494
  491MOL0    Cl64724  -3.058  12.683  10.690 -0.4481  0.2450 -0.3343
  491MOL0     C64725  -2.020  12.357  10.553  0.2677  1.0622  0.0251
  491MOL0     C64726  -1.895  12.288  10.554  0.5462  1.1466 -0.4160
  491MOL0     O64727  -1.764  12.058  10.740 -0.9684  0.1691 -0.3912
  491MOL0     C64728  -1.457  12.205  10.788 -1.2881 -0.4999  0.4356
  491MOL0     C64729  -1.324  12.170  10.808  1.3035 -0.8911 -0.0413
  491MOL0     N64730  -0.771  11.493  11.007 -0.6491  0.0222  0.1379
  491MOL0     N64731  -0.688  11.394  11.006  0.3325 -0.8631  0.5216
  491MOL0     C64732   0.131  10.828  10.362 -0.0903 -0.4426  1.0271
  491MOL0     C64733   0.207  10.812  10.250  0.3730  0.2117 -0.3497
  491MOL0     C64734   0.532  10.838   9.936  0.0632 -0.3965  0.0401
  491MOL0     C64735   0.592  10.709   9.936  0.7368 -0.8061 -0.2058
  491MOL0     C64736   0.682  10.674   9.840  0.3025  0.5971 -0.0049
  491MOL0     C64737   0.714  10.759   9.734  0.2896 -0.8283 -0.0200
  491MOL0     O64738   0.804  10.719   9.635  0.3506  0.7900 -0.2488
  491MOL0     C64739   0.793  10.587   9.575 -0.8110  0.4551 -0.0125
  491MOL0     C64740   0.918  10.539   9.492 -1.2552 -0.1622 -0.5968
  491MOL0     C64741   0.942  10.627   9.362  0.1890 -0.8233 -0.3799
  491MOL0     C64742   1.062  10.568   9.284  0.4044 -1.1420 -0.4499
  491MOL0     C64743   1.089  10.664   9.181 -0.5181  0.2543  0.8616
  491MOL0     C64744   1.102  10.753   9.090 -0.2682 -0.4563 -0.0708
  491MOL0     C64745   0.665  10.891   9.739  0.1030 -0.1104  0.2084
  491MOL0     C64746   0.576  10.929   9.838 -0.4642  0.6095  0.4189
  491MOL0     H64747   0.511  10.830  10.382  0.3620 -1.7730 -4.9436
  491MOL0     H64748   0.362  10.809  10.603 -2.3814  0.4916  0.9936
  491MOL0     H64749  -0.065  10.749  10.571  0.9063 -0.9866  1.5049
  491MOL0     H64750  -0.058  10.925  10.523 -1.9695  1.5504  2.8419
  491MOL0     H64751  -0.032  10.959  10.785  0.5662 -2.4901  3.1581
  491MOL0     H64752  -0.051  10.785  10.782 -0.8350 -1.2181 -1.5887
  491MOL0     H64753  -0.289  10.820  10.771  0.2675 -0.1571  0.6448
  491MOL0     H64754  -0.274  10.927  10.634 -1.9771 -0.7412 -0.2657
  491MOL0     H64755  -0.388  11.039  10.805  0.2911  3.0932 -4.8001
  491MOL0     H64756  -0.259  10.995  10.925 -2.4399 -0.8880  1.4032
  491MOL0     H64757  -0.244  11.213  10.695 -0.4891  0.1758 -0.3566
  491MOL0     H64758  -0.103  11.159  10.778  0.0102  0.3575 -1.5857
  491MOL0     H64759  -0.193  11.350  10.904 -0.1982  0.4196  1.8118
  491MOL0     H64760  -0.209  11.212  10.994  0.6816  1.4036  1.4201
  491MOL0     H64761  -0.430  11.350  10.808  0.1996 -0.1510  0.3926
  491MOL0     H64762  -0.474  11.208  10.881  1.5742 -2.0084 -0.0803
  491MOL0     H64763  -0.375  11.446  11.059  2.4428 -1.2173 -2.4008
  491MOL0     H64764  -0.464  11.302  11.111 -3.3842  2.8755  1.8561
  491MOL0     H64765  -0.486  11.639  10.925  0.1000  0.6110  1.3554
  491MOL0     H64766  -0.700  11.789  10.861 -1.5523  1.0223 -0.3166
  491MOL0     H64767  -0.735  11.816  11.037 -1.3560  0.8383 -0.8265
  491MOL0     H64768  -0.961  11.702  10.993  2.2877 -2.3349  0.1065
  491MOL0     H64769  -0.899  11.690  10.830  0.8175  1.0091 -1.1705
  491MOL0     H64770  -0.911  11.959  10.975 -0.1990  1.2477 -0.1025
  491MOL0     H64771  -0.921  11.934  10.797 -0.2428  1.2740  0.5977
  491MOL0     H64772  -1.145  11.857  10.993 -0.2735  3.5425  0.6441
  491MOL0     H64773  -1.139  11.829  10.808 -1.1625  1.8396 -1.9202
  491MOL0     H64774  -1.365  11.832  10.850  0.6593  0.1486  1.7173
  491MOL0     H64775  -1.586  11.890  10.790 -0.8351  0.2536 -0.1600
  491MOL0     H64776  -1.749  12.443  10.815  0.8166 -0.3000 -1.2174
  491MOL0     H64777  -1.971  12.555  10.822  1.5371  0.4392  0.5891
  491MOL0     H64778  -2.275  12.435  10.506  0.5396  0.2869  1.4130
  491MOL0     H64779  -2.169  12.542  10.424 -1.7993 -0.7796 -1.8880
  491MOL0     H64780  -2.373  12.657  10.410  0.9945 -0.9721 -0.5098
  491MOL0     H64781  -2.306  12.737  10.554 -2.7036  1.9143 -2.1121
  491MOL0     H64782  -2.419  12.561  10.700 -1.2005  3.3868  1.4996
  491MOL0     H64783  -2.512  12.526  10.548 -0.0233 -1.9702  2.2180
  491MOL0     H64784  -2.491  12.809  10.653 -1.3344  1.4066  1.6512
  491MOL0     H64785  -2.599  12.745  10.535 -2.1196  1.1337  1.5372
  491MOL0     H64786  -2.595  12.682  10.837  3.8934 -0.5907 -2.5038
  491MOL0     H64787  -2.691  12.590  10.725  0.9263 -0.0171  0.1698
  491MOL0     H64788  -2.811  12.810  10.648 -1.8246  1.1282  0.3836
  491MOL0     H64789  -2.722  12.903  10.762  0.8697 -0.2613 -0.5099
  491MOL0     H64790  -2.813  12.753  10.951 -0.4331 -2.9925  0.4820
  491MOL0     H64791  -2.930  12.856  10.872 -1.3662 -2.6357  3.4336
  491MOL0     H64792  -3.022  12.640  10.915 -1.2006  0.7656 -1.8616
  491MOL0     H64793  -2.897  12.552  10.832  2.7957  0.9580 -0.8295
  491MOL0     H64794  -2.088  12.318  10.477  1.4204 -0.3189 -0.3455
  491MOL0     H64795  -1.867  12.209  10.485 -2.3839 -0.8762  0.5024
  491MOL0     H64796  -1.488  12.308  10.785  0.2982 -0.0126 -0.4470
  491MOL0     H64797  -1.250  12.249  10.821  1.2411 -1.0947  1.7533
  491MOL0     H64798   0.025  10.844  10.344  0.3756  1.2939 -0.6028
  491MOL0     H64799   0.152  10.802  10.157 -4.1762  1.0790  1.9735
  491MOL0     H64800   0.574  10.629  10.008  1.2578 -0.0969  0.7313
  491MOL0     H64801   0.723  10.574   9.850 -1.8696 -0.5201 -1.4624
  491MOL0     H64802   0.716  10.610   9.501 -0.1719  1.8568 -0.2671
  491MOL0     H64803   0.763  10.506   9.642  1.4122 -1.8550 -1.6399
  491MOL0     H64804   1.005  10.523   9.556  0.0251  1.1344 -1.9648
  491MOL0     H64805   0.904  10.437   9.454 -1.7460 -0.3728  0.1130
  491MOL0     H64806   0.956  10.734   9.380 -1.1034 -0.5500 -0.8559
  491MOL0     H64807   0.854  10.610   9.300 -0.9703  1.6454  0.4615
  491MOL0     H64808   1.146  10.549   9.352 -0.9557  2.6401  2.6889
  491MOL0     H64809   1.033  10.480   9.227 -0.3273 -0.5343 -1.0414
  491MOL0     H64810   1.114  10.824   9.011 -3.3052  0.1193 -0.1305
  491MOL0     H64811   0.708  10.964   9.671  1.9765  0.8447  2.2738
  491MOL0     H64812   0.544  11.033   9.835  1.2670  1.1610 -0.6251
  492MOL0     O64813   6.244   4.750   1.873 -0.6169  0.4876 -0.2583
  492MOL0     C64814   6.286   4.864   1.833  0.2359  0.4851 -0.0984
  492MOL0     O64815   6.208   4.974   1.811  0.4738 -0.2287 -0.2326
  492MOL0     C64816   6.072   4.974   1.826 -0.0603 -0.4320  0.5171
  492MOL0     C64817   5.985   4.871   1.781 -0.0922 -0.3620 -0.3103
  492MOL0     C64818   5.843   4.885   1.797  0.1774  0.1953  0.0253
  492MOL0     C64819   5.793   5.000   1.860 -0.2092 -0.2702 -0.0001
  492MOL0     O64820   5.663   5.047   1.864 -0.4542  0.4802  0.4739
  492MOL0     C64821   5.563   4.938   1.880 -0.4250 -0.6518 -0.7654
  492MOL0     C64822   5.430   4.979   1.926 -0.8063 -0.2077  0.3707
  492MOL0     C64823   5.429   5.023   2.080  0.0295  0.7136 -0.6427
  492MOL0     C64824   5.309   5.110   2.106 -0.4398 -0.0681 -0.7885
  492MOL0     C64825   5.304   5.124   2.261  0.1084 -0.2060 -0.8921
  492MOL0     C64826   5.186   5.209   2.306  0.6981 -0.5871 -0.0558
  492MOL0     C64827   5.055   5.132   2.291 -0.2926  0.0515 -0.1063
  492MOL0     C64828   5.051   5.020   2.394  0.2355  0.0569  0.8420
  492MOL0     N64829   4.938   5.048   2.483  0.5639 -0.6980 -0.7321
  492MOL0     C64830   4.822   4.973   2.473 -0.3501  0.4548  0.6437
  492MOL0     C64831   4.747   5.036   2.566  0.1814  0.4151 -0.3306
  492MOL0     C64832   4.621   4.979   2.597  0.0644 -0.0669 -0.1013
  492MOL0     C64833   4.525   4.987   2.482 -0.3341 -0.2601  0.9624
  492MOL0     C64834   4.400   4.909   2.509  0.3044  0.1677 -0.8469
  492MOL0     C64835   4.307   4.983   2.607 -0.8653 -0.4792 -0.4054
  492MOL0     O64836   4.166   4.988   2.583  0.3751 -0.5104  0.1025
  492MOL0     C64837   4.094   4.876   2.600  0.5162 -2.0910  0.7670
  492MOL0     C64838   3.987   4.872   2.512 -1.3532  0.3515  0.2997
  492MOL0     C64839   3.886   4.774   2.527 -0.7070 -0.6081 -0.5162
  492MOL0     C64840   3.889   4.684   2.635 -0.0828 -0.1994 -0.4512
  492MOL0     C64841   3.776   4.592   2.657 -0.2137 -1.2171 -0.2760
  492MOL0     O64842   3.757   4.536   2.782 -0.6079 -1.0246 -0.1163
  492MOL0     C64843   3.644   4.467   2.825  0.0442  0.4698 -0.5471
  492MOL0     C64844   3.651   4.396   2.939  0.1898 -0.5774 -0.8020
  492MOL0     C64845   3.542   4.328   2.982 -0.1158 -0.0243  0.1261
  492MOL0     C64846   3.420   4.333   2.918  0.0955  0.5614  0.1023
  492MOL0     O64847   3.305   4.267   2.952  0.3066 -0.0711  0.5204
  492MOL0     C64848   3.313   4.161   3.047 -0.2943 -0.0437 -0.2787
  492MOL0     C64849   3.181   4.091   3.057  1.5816  0.3874  0.3892
  492MOL0     C64850   3.097   4.131   3.188  0.1230  0.0618  1.1767
  492MOL0     C64851   2.971   4.045   3.199  0.1531 -0.3938 -0.1980
  492MOL0     C64852   2.928   4.047   3.343 -0.2326 -0.2653 -0.4035
  492MOL0     C64853   2.784   3.999   3.362  0.7281  0.8177  0.1788
  492MOL0     C64854   2.753   3.946   3.501  0.2033 -0.6417 -0.5842
  492MOL0     C64855   2.742   4.063   3.597 -0.1353  0.3927 -0.2999
  492MOL0    Cl64856   2.583   4.140   3.568  0.1045  0.0865  0.4572
  492MOL0     C64857   3.410   4.414   2.808 -0.2840 -0.2256 -0.2220
  492MOL0     C64858   3.520   4.475   2.761 -0.9188 -0.0568  0.3669
  492MOL0     O64859   3.713   4.574   2.552 -0.4267  0.2504 -0.3439
  492MOL0     C64860   3.996   4.686   2.720  0.7499 -0.4615  0.4745
  492MOL0     C64861   4.093   4.787   2.714 -0.2726 -0.4646 -0.0207
  492MOL0     N64862   4.826   5.130   2.637 -0.6130  0.0833 -0.3356
  492MOL0     N64863   4.938   5.146   2.579  0.4481  0.1897 -0.2732
  492MOL0     C64864   5.880   5.103   1.900  0.0228 -0.1604  0.8463
  492MOL0     C64865   6.018   5.089   1.881  0.0476 -0.0572 -0.1160
  492MOL0     C64866   6.419   4.864   1.769 -0.2099  0.6087  1.0553
  492MOL0     C64867   6.512   4.762   1.793  0.0942  0.2295 -0.3670
  492MOL0     C64868   6.636   4.756   1.731  0.8856 -1.0759 -0.1039
  492MOL0     C64869   6.684   4.869   1.665 -0.7954  0.4073  0.4429
  492MOL0     O64870   6.816   4.856   1.620  0.2325  0.2143  0.6591
  492MOL0     C64871   6.866   4.967   1.536 -0.2751 -0.1529 -0.6636
  492MOL0     C64872   7.022   4.950   1.487 -0.0528 -0.3481  1.2009
  492MOL0     C64873   7.047   5.070   1.381  0.5288  0.7371 -0.8059
  492MOL0     C64874   7.181   5.061   1.325  0.0035  0.0455 -0.1856
  492MOL0     C64875   7.230   4.927   1.295  0.1955  0.4878 -0.0513
  492MOL0     C64876   7.267   4.814   1.269 -0.1780  0.3600  1.0194
  492MOL0     C64877   6.606   4.985   1.660  0.3827  0.5084  0.3277
  492MOL0     C64878   6.477   4.977   1.698  0.8298  0.1256  0.6826
  492MOL0     H64879   6.033   4.782   1.743  1.2825  0.5616 -0.8186
  492MOL0     H64880   5.776   4.816   1.747  2.3070 -1.5272 -0.6019
  492MOL0     H64881   5.603   4.862   1.948  1.7542  0.9578 -0.1470
  492MOL0     H64882   5.548   4.881   1.787  0.6818 -2.5794  0.1812
  492MOL0     H64883   5.357   4.898   1.918  0.7891 -2.1867  3.6530
  492MOL0     H64884   5.394   5.064   1.867 -2.4001 -1.4233 -0.4880
  492MOL0     H64885   5.516   5.086   2.101  1.5413 -1.5047  0.2408
  492MOL0     H64886   5.441   4.936   2.145  3.9434  0.1748 -1.7980
  492MOL0     H64887   5.319   5.209   2.062  1.1000 -0.2377 -0.8784
  492MOL0     H64888   5.227   5.050   2.066 -1.1665 -0.0549  0.6168
  492MOL0     H64889   5.403   5.163   2.287 -1.9910  2.7196  3.8464
  492MOL0     H64890   5.297   5.024   2.304  1.7812  1.0725  2.7747
  492MOL0     H64891   5.188   5.305   2.253  4.6128 -0.2783  0.3281
  492MOL0     H64892   5.200   5.234   2.411  1.4733 -0.4396 -0.1839
  492MOL0     H64893   4.967   5.195   2.301  0.1060  0.6479 -0.3392
  492MOL0     H64894   5.051   5.096   2.188 -2.9235 -2.0261  0.5954
  492MOL0     H64895   5.141   5.016   2.456  2.3527  1.2470 -1.9415
  492MOL0     H64896   5.035   4.925   2.342  2.5226  0.0312  0.0986
  492MOL0     H64897   4.816   4.881   2.416 -0.3797  1.8775 -1.7626
  492MOL0     H64898   4.594   5.037   2.686  1.1478  1.9575 -1.0048
  492MOL0     H64899   4.639   4.878   2.634  1.5138  0.5237  0.8739
  492MOL0     H64900   4.572   4.948   2.391  3.2312 -1.5355  3.1604
  492MOL0     H64901   4.499   5.091   2.460  0.4378 -0.0392  1.0746
  492MOL0     H64902   4.345   4.887   2.417 -0.1992  2.5494 -1.2061
  492MOL0     H64903   4.417   4.817   2.564  1.5077  1.5381  1.2187
  492MOL0     H64904   4.341   5.086   2.622  0.6657 -1.1628  1.2375
  492MOL0     H64905   4.323   4.945   2.709  0.3474  0.4162 -0.2364
  492MOL0     H64906   3.992   4.933   2.423 -2.6876  0.1879  0.0938
  492MOL0     H64907   3.805   4.768   2.455 -1.0903  3.4579 -0.6712
  492MOL0     H64908   3.750   4.391   2.984  0.3005 -0.6366 -1.0477
  492MOL0     H64909   3.549   4.258   3.065 -0.0645 -0.2144 -0.0377
  492MOL0     H64910   3.340   4.207   3.143  2.4060  0.6501 -1.2799
  492MOL0     H64911   3.394   4.093   3.017  1.7470  1.4183  1.5611
  492MOL0     H64912   3.193   3.982   3.059 -0.4123  0.1356  0.4610
  492MOL0     H64913   3.108   4.115   2.979  0.4580 -2.1463  0.5586
  492MOL0     H64914   3.083   4.239   3.197  1.2757  0.1512  2.4269
  492MOL0     H64915   3.152   4.106   3.280  0.2455  0.5657  1.2412
  492MOL0     H64916   2.889   4.082   3.137  0.7196  0.3064 -0.5447
  492MOL0     H64917   2.987   3.941   3.169 -0.3294 -0.8117  0.9523
  492MOL0     H64918   2.943   4.144   3.392  0.0183 -1.7173  2.5912
  492MOL0     H64919   2.990   3.980   3.402 -1.9926 -0.2139  1.6401
  492MOL0     H64920   2.756   3.921   3.291 -4.3255  1.3353  1.1987
  492MOL0     H64921   2.709   4.074   3.335 -0.9777 -1.1370 -0.7382
  492MOL0     H64922   2.655   3.899   3.503 -1.5808  2.8136  0.0065
  492MOL0     H64923   2.827   3.869   3.527  2.0675  0.7853 -1.3818
  492MOL0     H64924   2.830   4.128   3.595  0.9242 -1.0133 -0.8354
  492MOL0     H64925   2.740   4.026   3.700  0.0312  1.1904 -0.0001
  492MOL0     H64926   3.314   4.428   2.760 -1.1900 -1.4407  1.1509
  492MOL0     H64927   3.508   4.544   2.678 -0.8366 -0.4856 -0.0020
  492MOL0     H64928   3.999   4.613   2.800 -1.9032 -1.7081 -0.4185
  492MOL0     H64929   4.171   4.806   2.787 -0.1112 -3.6616  0.7912
  492MOL0     H64930   5.835   5.195   1.934 -3.1807  0.0231 -3.1411
  492MOL0     H64931   6.082   5.174   1.901 -1.4629  1.8886 -2.8710
  492MOL0     H64932   6.481   4.679   1.856 -1.2514  1.1372  0.2033
  492MOL0     H64933   6.709   4.679   1.754  1.8275 -0.0824  0.2912
  492MOL0     H64934   6.856   5.065   1.584  2.9175  0.7753 -1.6278
  492MOL0     H64935   6.807   4.976   1.445 -1.9259  2.5508  0.5475
  492MOL0     H64936   7.087   4.953   1.574 -1.5128  1.0414  2.3151
  492MOL0     H64937   7.048   4.851   1.448  0.8545 -0.4366  2.0217
  492MOL0     H64938   7.043   5.169   1.426 -0.5966  0.3643 -0.0655
  492MOL0     H64939   6.967   5.066   1.308  1.4087 -1.1930 -1.7451
  492MOL0     H64940   7.182   5.128   1.238  1.9361  0.9543  0.4833
  492MOL0     H64941   7.251   5.108   1.394 -2.0466  0.8525  1.4764
  492MOL0     H64942   7.285   4.710   1.255 -0.5088  0.2310  1.5225
  492MOL0     H64943   6.631   5.077   1.609 -1.3661  1.4439  1.0691
  492MOL0     H64944   6.426   5.071   1.683  1.9335  1.4401  4.2271
  493MOL0     O64945   5.152   5.698   6.518 -0.4871 -0.3096 -0.4938
  493MOL0     C64946   5.151   5.650   6.403 -1.0034  0.3905 -0.5974
  493MOL0     O64947   5.044   5.642   6.327 -0.4240  0.1030  0.6264
  493MOL0     C64948   4.925   5.668   6.383  0.0213  0.3435  0.3337
  493MOL0     C64949   4.820   5.582   6.343  0.4704 -0.1055 -0.1398
  493MOL0     C64950   4.692   5.600   6.387 -0.5443 -0.4079  0.4875
  493MOL0     C64951   4.660   5.725   6.455  1.1323 -1.4310  0.6152
  493MOL0     O64952   4.527   5.771   6.485  0.3481  0.0150  0.6967
  493MOL0     C64953   4.416   5.688   6.476 -0.6021 -0.4136  1.0167
  493MOL0     C64954   4.287   5.757   6.510 -0.1692 -0.3545 -0.5619
  493MOL0     C64955   4.181   5.649   6.493  1.3201  0.0565  0.2199
  493MOL0     C64956   4.032   5.699   6.531  0.2111 -0.3715 -0.9494
  493MOL0     C64957   3.936   5.587   6.507 -0.2111 -0.0258 -0.0084
  493MOL0     C64958   3.798   5.632   6.563  0.1039 -0.1693 -0.0376
  493MOL0     C64959   3.699   5.518   6.549 -0.0445 -0.1442 -0.5885
  493MOL0     C64960   3.562   5.574   6.519 -0.5750  0.3630  0.3833
  493MOL0     N64961   3.447   5.478   6.521  0.3733 -0.3304  0.5277
  493MOL0     C64962   3.401   5.408   6.635  0.2520 -0.5199 -0.0607
  493MOL0     C64963   3.289   5.346   6.598 -0.0036 -0.1035  0.4346
  493MOL0     C64964   3.188   5.277   6.688  0.1477  0.3602  0.1474
  493MOL0     C64965   3.048   5.276   6.613  0.0561  0.2220 -0.4985
  493MOL0     C64966   2.954   5.219   6.716 -0.8760 -0.2900 -0.0093
  493MOL0     C64967   2.817   5.225   6.656  1.0335 -0.0779 -0.4865
  493MOL0     O64968   2.789   5.111   6.580 -0.4711 -0.2440 -0.0471
  493MOL0     C64969   2.659   5.061   6.579 -0.3538 -1.2899 -0.3877
  493MOL0     C64970   2.645   4.930   6.543  0.2753  1.3598 -0.0456
  493MOL0     C64971   2.517   4.875   6.528  0.2051  0.1365 -0.6917
  493MOL0     C64972   2.402   4.951   6.570  1.1806 -0.1256  1.0786
  493MOL0     C64973   2.267   4.895   6.571  1.1535  0.3544 -0.6585
  493MOL0     O64974   2.160   4.991   6.581 -0.5075 -0.0456  0.8157
  493MOL0     C64975   2.028   4.954   6.549 -0.6163 -0.2427 -0.5225
  493MOL0     C64976   1.970   4.997   6.431 -0.1004 -0.4880  0.1273
  493MOL0     C64977   1.834   4.980   6.403 -0.2571 -0.7336  0.0941
  493MOL0     C64978   1.760   4.890   6.481  0.8425 -0.5292  0.0841
  493MOL0     O64979   1.629   4.865   6.433 -0.5374 -0.1443 -0.8911
  493MOL0     C64980   1.532   4.787   6.502 -0.7659 -0.5946 -0.7956
  493MOL0     C64981   1.406   4.849   6.448  0.3031 -0.6250  0.2426
  493MOL0     C64982   1.273   4.788   6.504 -0.2103 -0.2861 -0.9400
  493MOL0     C64983   1.162   4.855   6.420  0.8429 -0.0081 -0.0079
  493MOL0     C64984   1.028   4.806   6.488  1.2130  0.3308 -0.0618
  493MOL0     C64985   0.909   4.855   6.413  0.5501 -0.6895 -0.6534
  493MOL0     C64986   0.784   4.849   6.496  0.0239 -0.2179  0.3166
  493MOL0     C64987   0.658   4.823   6.406  0.1798  0.9090 -0.0910
  493MOL0    Cl64988   0.651   4.943   6.272  0.2263 -0.7087  0.0166
  493MOL0     C64989   1.820   4.845   6.598  0.2622 -0.4284  0.0432
  493MOL0     C64990   1.947   4.881   6.635 -0.8036 -0.9803  0.3565
  493MOL0     O64991   2.258   4.779   6.536  0.1538 -0.4741 -0.2552
  493MOL0     C64992   2.420   5.085   6.613  0.1778  0.6513  0.2958
  493MOL0     C64993   2.545   5.144   6.612 -0.6753  0.0496 -0.2378
  493MOL0     N64994   3.264   5.374   6.470 -0.1599  0.9431  0.5766
  493MOL0     N64995   3.351   5.462   6.420 -0.1648 -0.7958 -1.1764
  493MOL0     C64996   4.760   5.816   6.486  0.1422 -0.7214 -0.7011
  493MOL0     C64997   4.893   5.789   6.456  0.5738  0.1958 -0.2411
  493MOL0     C64998   5.285   5.611   6.352 -0.3435 -0.2605  0.3393
  493MOL0     C64999   5.299   5.543   6.225 -0.4725 -0.0651 -0.4745
  493MOL0     C65000   5.426   5.525   6.175 -0.0219  0.2946  0.7880
  493MOL0     C65001   5.540   5.569   6.245 -0.2578  1.1033 -0.1193
  493MOL0     O65002   5.661   5.542   6.191  0.3361 -0.5738 -0.1136
  493MOL0     C65003   5.761   5.640   6.195 -0.0088  1.2956  0.4812
  493MOL0     C65004   5.857   5.625   6.069 -0.4530 -0.4457  0.1080
  493MOL0     C65005   5.785   5.676   5.935 -0.0021  0.1334  0.1675
  493MOL0     C65006   5.793   5.830   5.936 -0.5605  0.0507  0.1919
  493MOL0     C65007   5.696   5.882   5.837  0.1738 -0.3488  0.1570
  493MOL0     C65008   5.625   5.933   5.752  0.1022 -0.2755  0.3681
  493MOL0     C65009   5.526   5.641   6.360 -1.1143  1.6349  0.7307
  493MOL0     C65010   5.402   5.666   6.416  0.9466  0.4295  0.1282
  493MOL0     H65011   4.831   5.491   6.285 -0.9074 -0.0096 -0.6030
  493MOL0     H65012   4.612   5.534   6.357 -2.4529  1.1579  1.8828
  493MOL0     H65013   4.434   5.608   6.548 -0.2250  0.6972  2.1859
  493MOL0     H65014   4.406   5.640   6.378 -0.9644  0.4042  0.6435
  493MOL0     H65015   4.261   5.837   6.441  2.0646  0.3820 -0.6429
  493MOL0     H65016   4.295   5.790   6.614 -1.6112  1.2715 -0.9171
  493MOL0     H65017   4.198   5.564   6.560 -1.4850 -1.2032 -0.5472
  493MOL0     H65018   4.175   5.608   6.392 -0.4658  0.3258  0.1883
  493MOL0     H65019   4.037   5.725   6.638 -0.9920  4.3861 -1.8021
  493MOL0     H65020   3.997   5.792   6.484 -1.1933 -0.5086 -0.2185
  493MOL0     H65021   3.961   5.493   6.555 -1.1799 -0.1547  0.2626
  493MOL0     H65022   3.935   5.561   6.401  0.8441 -1.5734  0.3304
  493MOL0     H65023   3.764   5.724   6.513 -1.6934  0.5840  2.3830
  493MOL0     H65024   3.798   5.658   6.669  3.9628  2.0172 -0.3966
  493MOL0     H65025   3.721   5.450   6.465 -0.2015  1.5552 -2.0562
  493MOL0     H65026   3.697   5.458   6.640 -0.7041  0.0222 -0.4921
  493MOL0     H65027   3.568   5.629   6.425  0.1708  0.9490  0.7689
  493MOL0     H65028   3.543   5.652   6.592 -0.1612  1.4179 -0.6126
  493MOL0     H65029   3.442   5.427   6.734  2.4277 -2.5386 -0.4688
  493MOL0     H65030   3.191   5.336   6.779  1.2320  1.0848 -0.3296
  493MOL0     H65031   3.224   5.177   6.715  0.7531  0.1910 -1.1983
  493MOL0     H65032   3.056   5.231   6.513  0.8227 -1.4726  0.2796
  493MOL0     H65033   3.023   5.380   6.592 -1.5927 -0.3688 -1.7025
  493MOL0     H65034   2.985   5.115   6.731  2.6520  0.0397 -3.4411
  493MOL0     H65035   2.959   5.279   6.807  0.8408 -0.9914  0.3969
  493MOL0     H65036   2.790   5.321   6.612  0.9186 -0.7407 -1.8973
  493MOL0     H65037   2.752   5.221   6.744  0.0567  5.5538 -0.5741
  493MOL0     H65038   2.728   4.865   6.519 -1.8086 -1.0670 -1.1803
  493MOL0     H65039   2.508   4.771   6.499  1.7223 -0.4289  0.6539
  493MOL0     H65040   2.038   5.056   6.371 -0.8724 -2.4698 -2.9498
  493MOL0     H65041   1.801   5.028   6.311  3.8598  1.0020 -0.6925
  493MOL0     H65042   1.534   4.796   6.611 -0.6008 -0.2588 -0.8266
  493MOL0     H65043   1.531   4.682   6.471 -0.7328 -0.2250 -2.0775
  493MOL0     H65044   1.419   4.832   6.341  0.9810 -2.2003  0.5513
  493MOL0     H65045   1.409   4.954   6.479 -2.0032 -0.0973 -1.0996
  493MOL0     H65046   1.259   4.815   6.609 -1.3783 -1.0278 -0.8855
  493MOL0     H65047   1.285   4.679   6.502  1.1494 -0.2234  1.1768
  493MOL0     H65048   1.167   4.964   6.411  2.5363 -0.2446 -3.9858
  493MOL0     H65049   1.170   4.821   6.316 -1.2010 -0.8322  0.0588
  493MOL0     H65050   1.009   4.843   6.589 -1.0642 -2.7066  0.7768
  493MOL0     H65051   1.031   4.697   6.494  1.5471  0.3996  1.9584
  493MOL0     H65052   0.906   4.787   6.327 -1.1632 -0.4815 -0.7970
  493MOL0     H65053   0.932   4.954   6.374  2.4301 -0.4842  0.8112
  493MOL0     H65054   0.795   4.775   6.576 -1.0839  0.1156  0.8031
  493MOL0     H65055   0.766   4.943   6.548  3.0255 -1.6066  4.4315
  493MOL0     H65056   0.572   4.841   6.472 -0.0541  4.5893 -1.1381
  493MOL0     H65057   0.667   4.721   6.369  0.2478  0.9516 -0.1900
  493MOL0     H65058   1.761   4.784   6.665 -1.0132  3.0726  2.4154
  493MOL0     H65059   1.983   4.848   6.732  1.3519  0.3306  0.0727
  493MOL0     H65060   2.337   5.151   6.636 -1.8049 -1.6545  0.1213
  493MOL0     H65061   2.548   5.248   6.643  2.1753 -0.2347  0.7317
  493MOL0     H65062   4.721   5.906   6.530 -0.3866 -1.3743  0.1941
  493MOL0     H65063   4.971   5.856   6.488 -0.3792  0.0862  2.5418
  493MOL0     H65064   5.219   5.491   6.173  0.7895 -2.9145  0.2413
  493MOL0     H65065   5.436   5.465   6.084  1.5847  1.0156  0.4582
  493MOL0     H65066   5.803   5.631   6.296 -0.0275 -1.3427  0.3099
  493MOL0     H65067   5.724   5.743   6.195 -0.8263  1.0331 -1.1949
  493MOL0     H65068   5.948   5.679   6.096  0.2275 -1.5042  0.0175
  493MOL0     H65069   5.896   5.523   6.069 -0.3022 -0.4373  2.2925
  493MOL0     H65070   5.687   5.629   5.939  0.7506 -1.6970 -1.3051
  493MOL0     H65071   5.835   5.645   5.842 -0.0517  1.4879 -0.3397
  493MOL0     H65072   5.765   5.876   6.031  0.4073  0.1908  0.4142
  493MOL0     H65073   5.898   5.854   5.919 -0.8808  2.2813  1.1139
  493MOL0     H65074   5.559   5.975   5.679  2.4717  0.9652 -1.2127
  493MOL0     H65075   5.617   5.670   6.412  0.3664 -2.2418  0.6005
  493MOL0     H65076   5.404   5.719   6.511 -0.2476 -0.0436  0.4348
  494MOL0     O65077   8.590   1.039   1.976 -0.0828  0.2746  0.4590
  494MOL0     C65078   8.657   1.143   1.957 -0.6319  0.0836 -0.1534
  494MOL0     O65079   8.639   1.267   2.016  0.4109 -0.0849 -0.2629
  494MOL0     C65080   8.530   1.280   2.098 -0.3246 -0.3813  0.8045
  494MOL0     C65081   8.532   1.257   2.231 -0.3009  0.5099  0.4986
  494MOL0     C65082   8.419   1.285   2.304  0.4011  0.1478 -0.9260
  494MOL0     C65083   8.296   1.322   2.246  0.2969  0.2593 -0.9320
  494MOL0     O65084   8.188   1.353   2.326  0.7301  0.5259 -0.2570
  494MOL0     C65085   8.057   1.302   2.312 -0.0264  0.7403 -0.4910
  494MOL0     C65086   7.962   1.397   2.232 -0.7651 -0.4710 -0.4510
  494MOL0     C65087   7.875   1.331   2.128  0.4615 -0.7070 -1.1480
  494MOL0     C65088   7.780   1.437   2.062 -0.0269 -0.3352  0.9836
  494MOL0     C65089   7.678   1.360   1.970 -0.6152 -0.1749  0.5146
  494MOL0     C65090   7.609   1.454   1.881  0.5691 -0.0548  0.0395
  494MOL0     C65091   7.493   1.386   1.801  0.2428 -0.0893 -0.3870
  494MOL0     C65092   7.391   1.311   1.887 -0.1247  0.5067 -0.1886
  494MOL0     N65093   7.278   1.248   1.812 -0.9345  0.3038 -0.1374
  494MOL0     C65094   7.171   1.318   1.758  0.1231 -0.1253  0.5904
  494MOL0     C65095   7.126   1.243   1.657 -0.9176  0.0784 -0.6260
  494MOL0     C65096   7.021   1.280   1.559  0.4073  0.0623 -1.6075
  494MOL0     C65097   6.875   1.276   1.621 -0.8708 -0.0981 -0.4715
  494MOL0     C65098   6.843   1.139   1.684  0.1712  0.5537  0.4623
  494MOL0     C65099   6.696   1.124   1.715 -0.3268  0.4758  0.8460
  494MOL0     O65100   6.607   1.145   1.600 -0.1975 -0.1469 -0.5075
  494MOL0     C65101   6.471   1.162   1.625 -0.4445  0.1580  0.2350
  494MOL0     C65102   6.390   1.163   1.512 -0.1535  0.0425  0.9018
  494MOL0     C65103   6.247   1.179   1.520 -0.5411 -0.2389  0.4047
  494MOL0     C65104   6.187   1.194   1.646 -0.0594 -0.1660 -0.0879
  494MOL0     C65105   6.040   1.186   1.661  0.6247 -0.5156 -1.2082
  494MOL0     O65106   5.970   1.151   1.550 -0.4153  0.0455  0.4505
  494MOL0     C65107   5.831   1.140   1.538 -0.5725 -0.0613  0.0933
  494MOL0     C65108   5.776   1.042   1.457 -0.3393  0.2085  0.6938
  494MOL0     C65109   5.641   1.032   1.435 -0.4856 -0.0374 -0.5673
  494MOL0     C65110   5.556   1.120   1.501  0.0249  0.0261  0.4835
  494MOL0     O65111   5.419   1.131   1.480 -0.0528  0.2381 -0.2264
  494MOL0     C65112   5.361   1.038   1.379 -0.2888 -1.1954 -0.0173
  494MOL0     C65113   5.213   1.053   1.368 -0.0847 -0.6634  0.3402
  494MOL0     C65114   5.133   0.981   1.474 -0.6727 -0.4563 -0.2151
  494MOL0     C65115   4.983   0.964   1.429 -0.4300  0.1725 -1.2541
  494MOL0     C65116   4.918   1.103   1.398 -0.1348 -0.6747 -0.5079
  494MOL0     C65117   4.765   1.087   1.406  0.2336 -0.1850  0.4176
  494MOL0     C65118   4.701   1.219   1.368 -0.1043 -0.4560  0.1292
  494MOL0     C65119   4.690   1.309   1.492  0.2695 -0.6874 -0.5829
  494MOL0    Cl65120   4.531   1.269   1.573  0.0195  0.1602 -0.2310
  494MOL0     C65121   5.616   1.218   1.583  0.0850  0.9091  0.7180
  494MOL0     C65122   5.751   1.230   1.602  0.0586 -0.1304 -0.8363
  494MOL0     O65123   5.996   1.211   1.777  0.1299  0.9980  0.0733
  494MOL0     C65124   6.273   1.203   1.764  0.5542 -0.4101  0.3869
  494MOL0     C65125   6.411   1.181   1.752  0.6443  0.5676  0.1382
  494MOL0     N65126   7.205   1.127   1.657 -0.4525 -0.0580  0.3337
  494MOL0     N65127   7.295   1.134   1.743  0.3988 -0.1846 -0.3594
  494MOL0     C65128   8.293   1.344   2.112  0.4060  0.0428  0.6393
  494MOL0     C65129   8.405   1.326   2.039 -0.9613  0.2505  0.8315
  494MOL0     C65130   8.784   1.134   1.880 -0.8183 -0.6585 -0.0048
  494MOL0     C65131   8.889   1.227   1.890 -0.4823  0.0555  0.2253
  494MOL0     C65132   9.008   1.207   1.825 -0.3609 -0.4373  0.3091
  494MOL0     C65133   9.030   1.108   1.729  0.8782  0.1608 -0.9210
  494MOL0     O65134   9.152   1.102   1.664  0.0112 -0.2094  0.4987
  494MOL0     C65135   9.192   0.973   1.608  1.3729 -0.2902 -1.2525
  494MOL0     C65136   9.340   0.980   1.615 -0.6453 -0.4042 -1.1681
  494MOL0     C65137   9.389   0.976   1.761  0.3805  0.2715  0.9143
  494MOL0     C65138   9.546   0.988   1.756  0.7406  0.1930  0.0764
  494MOL0     C65139   9.604   0.867   1.702 -0.0773  0.0481 -0.4839
  494MOL0     C65140   9.655   0.771   1.664  0.4916 -0.3702 -1.1302
  494MOL0     C65141   8.921   1.018   1.710  0.3190 -0.7561  0.2185
  494MOL0     C65142   8.804   1.028   1.792  0.1032  0.4345 -0.0259
  494MOL0     H65143   8.617   1.237   2.295  0.4593 -0.2496 -0.7082
  494MOL0     H65144   8.425   1.272   2.412 -1.0349 -0.7282 -0.9148
  494MOL0     H65145   8.018   1.297   2.415  1.2376  4.0919  0.2852
  494MOL0     H65146   8.064   1.203   2.265 -1.3679 -1.0931  2.8250
  494MOL0     H65147   8.022   1.474   2.184  1.8856 -0.7432  2.1547
  494MOL0     H65148   7.902   1.458   2.301 -0.9410 -0.5655 -0.5194
  494MOL0     H65149   7.807   1.257   2.171  0.7316  0.4488  1.4527
  494MOL0     H65150   7.930   1.277   2.051  0.2245 -1.8323 -0.5435
  494MOL0     H65151   7.718   1.501   2.125 -1.4743  0.9643 -1.6050
  494MOL0     H65152   7.838   1.499   1.993  1.5378 -0.6027  2.0030
  494MOL0     H65153   7.612   1.299   2.033 -0.1792 -0.9942  0.1981
  494MOL0     H65154   7.731   1.298   1.897 -1.4318  0.8732 -1.0093
  494MOL0     H65155   7.681   1.505   1.815  1.7093 -1.4094  0.1850
  494MOL0     H65156   7.563   1.542   1.928 -0.2530  1.1840 -2.8530
  494MOL0     H65157   7.443   1.472   1.755  3.6875  2.0996 -0.3989
  494MOL0     H65158   7.543   1.324   1.727  1.2162  0.1202  0.0827
  494MOL0     H65159   7.358   1.377   1.968  0.6461  2.0646 -1.1031
  494MOL0     H65160   7.442   1.228   1.937  1.6568 -0.0401 -2.7210
  494MOL0     H65161   7.145   1.421   1.777 -1.3700 -0.2619 -0.5471
  494MOL0     H65162   7.020   1.208   1.477  0.6183 -0.9516 -0.7446
  494MOL0     H65163   7.046   1.374   1.508  0.2972  2.2460  2.0269
  494MOL0     H65164   6.805   1.302   1.541  1.0032  2.4050 -1.4044
  494MOL0     H65165   6.867   1.338   1.711  0.7871 -0.4181 -0.0706
  494MOL0     H65166   6.888   1.060   1.623  0.2987  1.7292 -1.0332
  494MOL0     H65167   6.901   1.123   1.775  0.1004  0.2140  0.4484
  494MOL0     H65168   6.660   1.199   1.786 -1.5180  0.0767  0.6864
  494MOL0     H65169   6.678   1.023   1.753 -2.6341  0.2434 -0.6297
  494MOL0     H65170   6.441   1.170   1.417 -1.5833  4.7133  0.2286
  494MOL0     H65171   6.199   1.156   1.425  0.0509 -3.4084  0.7719
  494MOL0     H65172   5.845   0.966   1.422 -2.0519 -0.6370 -0.9926
  494MOL0     H65173   5.599   0.956   1.370  2.0224 -2.5790  0.5585
  494MOL0     H65174   5.392   0.941   1.419 -2.2684 -1.1800  1.7524
  494MOL0     H65175   5.411   1.060   1.284  0.6166  0.4534  0.8083
  494MOL0     H65176   5.188   1.008   1.271  0.4207 -1.1617  0.4417
  494MOL0     H65177   5.184   1.159   1.368  0.4778 -0.4388  3.3346
  494MOL0     H65178   5.136   1.043   1.564 -2.1244  0.4446 -0.7719
  494MOL0     H65179   5.186   0.886   1.488  0.2199 -0.0192 -0.5700
  494MOL0     H65180   4.983   0.889   1.349 -1.4817 -0.8351 -0.3619
  494MOL0     H65181   4.930   0.924   1.516  1.2050  1.3053  0.3212
  494MOL0     H65182   4.956   1.141   1.303  1.0484 -4.2589 -1.6119
  494MOL0     H65183   4.953   1.183   1.465 -0.7863 -0.8720  0.0823
  494MOL0     H65184   4.733   1.056   1.505  1.3140 -0.1568  0.7888
  494MOL0     H65185   4.736   1.017   1.327  1.1370  1.5561 -1.5408
  494MOL0     H65186   4.756   1.274   1.291 -2.9479 -0.3123 -1.9265
  494MOL0     H65187   4.601   1.206   1.328 -0.5581 -3.1733  1.8813
  494MOL0     H65188   4.703   1.415   1.468 -1.6402  0.1892  1.7437
  494MOL0     H65189   4.773   1.298   1.562  1.5830  0.5422 -1.8940
  494MOL0     H65190   5.542   1.285   1.624  0.0331  1.8374 -0.8096
  494MOL0     H65191   5.780   1.294   1.685 -2.4621  0.7389 -0.5472
  494MOL0     H65192   6.225   1.218   1.860 -1.2875 -0.4439 -0.4893
  494MOL0     H65193   6.464   1.188   1.847  1.4183 -1.1818 -0.1211
  494MOL0     H65194   8.203   1.379   2.063 -1.2656 -1.5176  2.4138
  494MOL0     H65195   8.407   1.353   1.934  1.7848  4.3932  1.7162
  494MOL0     H65196   8.871   1.316   1.950 -0.1115  1.1293 -1.2075
  494MOL0     H65197   9.097   1.268   1.839  0.2145 -1.2707  0.3958
  494MOL0     H65198   9.158   0.952   1.506  3.0087 -0.5726 -1.7626
  494MOL0     H65199   9.161   0.899   1.683  1.3733  0.5484 -0.4050
  494MOL0     H65200   9.378   0.894   1.560  1.5473  0.2714 -0.8248
  494MOL0     H65201   9.378   1.069   1.564 -1.1280  0.4624 -0.0714
  494MOL0     H65202   9.349   0.886   1.808 -0.6291  0.0891 -0.2618
  494MOL0     H65203   9.343   1.059   1.817 -1.7939  0.1275 -0.5498
  494MOL0     H65204   9.560   1.059   1.674  1.4260 -0.4047 -0.3324
  494MOL0     H65205   9.582   1.014   1.856  1.0138 -1.0796  0.3250
  494MOL0     H65206   9.715   0.685   1.637  0.0451 -1.1952  0.3967
  494MOL0     H65207   8.918   0.929   1.647 -1.8224  0.4893 -1.6042
  494MOL0     H65208   8.736   0.943   1.798  0.9792 -0.3367 -0.7350
  495MOL0     O65209   3.220   1.187   6.736  1.0170  0.3602  0.4600
  495MOL0     C65210   3.297   1.136   6.821  0.0772  0.3686 -0.7466
  495MOL0     O65211   3.266   1.047   6.918 -0.7869  0.3175 -0.3005
  495MOL0     C65212   3.134   1.006   6.933  0.1826  0.5120 -0.2502
  495MOL0     C65213   3.032   1.093   6.989 -0.3189 -0.1769 -0.0139
  495MOL0     C65214   2.908   1.043   7.012  0.2931 -0.4474  0.6966
  495MOL0     C65215   2.873   0.905   6.980  0.4495 -0.2433 -0.4504
  495MOL0     O65216   2.746   0.845   7.016 -0.6980  0.5518 -0.3268
  495MOL0     C65217   2.635   0.931   7.023 -0.5459 -0.7110  0.8739
  495MOL0     C65218   2.504   0.860   7.065  0.9144 -0.6254 -0.4410
  495MOL0     C65219   2.517   0.769   7.187  0.3603 -0.1223 -0.6388
  495MOL0     C65220   2.553   0.856   7.314 -0.3787 -0.8114  0.1732
  495MOL0     C65221   2.440   0.942   7.373  0.3310  0.3902  0.2726
  495MOL0     C65222   2.475   1.001   7.502  0.2396  1.2301  0.1033
  495MOL0     C65223   2.372   1.100   7.544  0.3629  0.1730 -0.2398
  495MOL0     C65224   2.258   1.036   7.620 -0.7605  0.2749 -0.4744
  495MOL0     N65225   2.167   1.138   7.666  0.1818  0.1583 -0.5322
  495MOL0     C65226   2.089   1.212   7.583  0.5323  0.6574 -0.1250
  495MOL0     C65227   2.040   1.311   7.666  0.9423  0.1550  0.8650
  495MOL0     C65228   1.938   1.401   7.613 -0.7452  0.4001  0.0900
  495MOL0     C65229   1.945   1.539   7.678  1.2373 -0.5852  0.0124
  495MOL0     C65230   1.857   1.647   7.606  0.4675 -0.9311  0.9316
  495MOL0     C65231   1.708   1.605   7.589 -0.2838 -0.0035  0.3141
  495MOL0     O65232   1.651   1.705   7.502  0.2726  0.2330  0.5946
  495MOL0     C65233   1.534   1.771   7.527 -0.3619  0.1687 -0.4233
  495MOL0     C65234   1.490   1.857   7.423 -0.3033  0.5605  0.2123
  495MOL0     C65235   1.365   1.923   7.438 -0.0867  0.9814  0.1815
  495MOL0     C65236   1.281   1.899   7.552 -0.2177  0.6244  0.3484
  495MOL0     C65237   1.138   1.933   7.548 -0.1485  0.2224  0.0313
  495MOL0     O65238   1.106   2.031   7.460  0.1069  0.0675 -0.2409
  495MOL0     C65239   0.989   2.083   7.474 -0.2162 -0.2761  0.3082
  495MOL0     C65240   0.887   2.039   7.390 -0.5305 -0.0263 -0.6082
  495MOL0     C65241   0.764   2.100   7.377  0.5693 -0.7234 -0.5603
  495MOL0     C65242   0.740   2.214   7.461 -0.3593  0.4875 -0.2003
  495MOL0     O65243   0.621   2.281   7.465 -0.7664 -0.7271 -0.4505
  495MOL0     C65244   0.542   2.227   7.574  0.7689  1.1027  0.3600
  495MOL0     C65245   0.401   2.267   7.549  0.8950  0.3255  0.1655
  495MOL0     C65246   0.344   2.230   7.401 -0.3265 -0.3262  0.2053
  495MOL0     C65247   0.335   2.077   7.381 -0.0877 -0.1411 -0.7191
  495MOL0     C65248   0.270   2.029   7.257  0.0714 -0.6918 -0.5388
  495MOL0     C65249   0.226   1.886   7.257  0.7633 -0.0050  0.5361
  495MOL0     C65250   0.135   1.840   7.370  0.0657  0.3571  0.1777
  495MOL0     C65251  -0.002   1.911   7.359 -0.4999  0.0927 -0.3713
  495MOL0    Cl65252  -0.096   1.849   7.222  0.1681  0.1980 -0.1003
  495MOL0     C65253   0.847   2.264   7.537  0.0374  0.3153  0.2813
  495MOL0     C65254   0.968   2.201   7.543 -0.5281 -0.4898  0.2833
  495MOL0     O65255   1.062   1.891   7.636  0.1010  0.0288 -0.2740
  495MOL0     C65256   1.329   1.817   7.651  0.1519  0.2609  0.0299
  495MOL0     C65257   1.452   1.749   7.641 -0.2804  0.6867 -0.0220
  495MOL0     N65258   2.079   1.295   7.794 -0.4411 -0.4934 -0.3356
  495MOL0     N65259   2.155   1.187   7.790 -0.0265  0.0887  0.1207
  495MOL0     C65260   2.972   0.825   6.935  0.5447 -0.4389  0.1723
  495MOL0     C65261   3.105   0.869   6.906  0.2374 -0.2837 -0.0749
  495MOL0     C65262   3.432   1.182   6.803 -0.0776  0.1050  0.0941
  495MOL0     C65263   3.456   1.302   6.739 -0.4837 -0.2046 -0.2294
  495MOL0     C65264   3.590   1.358   6.729 -0.6421 -0.8992 -0.1429
  495MOL0     C65265   3.701   1.278   6.768  0.1447  0.2678  0.9603
  495MOL0     O65266   3.824   1.332   6.755 -0.1546 -0.0329  0.4492
  495MOL0     C65267   3.901   1.277   6.647 -0.7330  0.8098 -1.0108
  495MOL0     C65268   4.022   1.198   6.686 -0.6829  1.0351 -0.2473
  495MOL0     C65269   4.082   1.217   6.823  0.1779 -0.2037  0.0476
  495MOL0     C65270   4.117   1.370   6.833 -1.0906  0.2319  0.0804
  495MOL0     C65271   4.229   1.397   6.742 -0.1946 -0.1556 -0.1833
  495MOL0     C65272   4.322   1.430   6.672  0.3183  0.8518  0.3093
  495MOL0     C65273   3.677   1.149   6.827 -0.1120 -0.4662  0.3880
  495MOL0     C65274   3.540   1.109   6.847 -1.2292 -0.1364  0.2485
  495MOL0     H65275   3.057   1.193   7.022 -1.1220 -0.0120  0.1209
  495MOL0     H65276   2.836   1.103   7.067 -1.9852 -0.9770 -1.4973
  495MOL0     H65277   2.627   0.966   6.919 -1.3293  0.0088  1.1688
  495MOL0     H65278   2.662   1.014   7.088  0.9556  0.4077 -1.0652
  495MOL0     H65279   2.471   0.788   6.989 -0.2748  0.4952 -1.0157
  495MOL0     H65280   2.424   0.935   7.065  1.5561  0.1583 -3.0494
  495MOL0     H65281   2.592   0.691   7.171 -0.8795 -2.0384  2.0263
  495MOL0     H65282   2.423   0.716   7.198  0.3802  0.2676  2.7320
  495MOL0     H65283   2.580   0.787   7.394 -2.3183  0.5717  2.1340
  495MOL0     H65284   2.642   0.916   7.293  0.1025 -1.2623  0.9040
  495MOL0     H65285   2.351   0.879   7.372 -0.1584  1.0381  1.2968
  495MOL0     H65286   2.422   1.027   7.306 -0.8497  0.8091  1.0895
  495MOL0     H65287   2.571   1.054   7.504  0.2684  1.2071 -0.5718
  495MOL0     H65288   2.480   0.911   7.564  0.4001 -0.7037 -2.5447
  495MOL0     H65289   2.417   1.172   7.614  0.2804  0.9215 -0.9407
  495MOL0     H65290   2.337   1.167   7.465  0.7148  1.5225  0.6972
  495MOL0     H65291   2.290   0.968   7.699 -3.2377  0.2981  0.6478
  495MOL0     H65292   2.199   0.975   7.552  0.4349 -0.8922 -0.4986
  495MOL0     H65293   2.057   1.173   7.487  0.2708 -1.2241  0.6883
  495MOL0     H65294   1.839   1.356   7.619  0.1173 -1.3873  1.7983
  495MOL0     H65295   1.965   1.408   7.507 -0.0943 -1.1430  0.1275
  495MOL0     H65296   2.047   1.577   7.686  0.9264  0.2194  0.1817
  495MOL0     H65297   1.909   1.531   7.781 -2.3768  0.5655 -1.0061
  495MOL0     H65298   1.858   1.738   7.667 -0.4322  1.8286 -2.7993
  495MOL0     H65299   1.901   1.673   7.510  0.6078 -2.1799  0.6360
  495MOL0     H65300   1.668   1.603   7.690 -0.3187 -0.3342  0.2934
  495MOL0     H65301   1.699   1.512   7.532  3.2303  0.9519 -2.1737
  495MOL0     H65302   1.546   1.865   7.330 -0.5301  1.3604  0.1397
  495MOL0     H65303   1.332   1.985   7.355 -0.3238  2.0166  1.0199
  495MOL0     H65304   0.904   1.947   7.334  1.0278  1.2675 -2.3924
  495MOL0     H65305   0.693   2.057   7.308 -1.3405  2.0987 -0.5288
  495MOL0     H65306   0.573   2.253   7.675  1.0182 -2.1200  1.2177
  495MOL0     H65307   0.547   2.118   7.564 -0.8652  1.1928 -2.6446
  495MOL0     H65308   0.395   2.376   7.556  0.8046  0.2590  1.4072
  495MOL0     H65309   0.334   2.223   7.623  0.4848 -0.0535 -0.4232
  495MOL0     H65310   0.403   2.272   7.320 -0.5801 -0.9575 -0.3127
  495MOL0     H65311   0.243   2.273   7.406  0.6093  1.8468  2.2106
  495MOL0     H65312   0.437   2.039   7.376 -1.1227 -2.9932 -2.7726
  495MOL0     H65313   0.296   2.027   7.470 -1.6300 -1.3611 -2.0105
  495MOL0     H65314   0.339   2.042   7.173  1.2406  1.2617  0.6665
  495MOL0     H65315   0.184   2.094   7.237 -0.2826 -0.9196  0.1977
  495MOL0     H65316   0.311   1.817   7.268 -0.8713 -2.0933  0.7376
  495MOL0     H65317   0.193   1.857   7.157  0.1799  3.5293 -0.4329
  495MOL0     H65318   0.111   1.734   7.357  0.3642  0.3193 -0.0721
  495MOL0     H65319   0.173   1.853   7.472 -2.3215 -2.7385  1.6424
  495MOL0     H65320   0.011   2.019   7.347  0.1993  0.1517  0.7897
  495MOL0     H65321  -0.061   1.892   7.449 -1.2174  0.2698 -0.7968
  495MOL0     H65322   0.830   2.348   7.603  0.8013  0.3142  0.4967
  495MOL0     H65323   1.041   2.252   7.606  0.0404  0.3857 -1.0325
  495MOL0     H65324   1.275   1.797   7.743  1.1871 -1.0023  0.3955
  495MOL0     H65325   1.480   1.683   7.722  1.5642  2.4956  0.8895
  495MOL0     H65326   2.939   0.722   6.928 -1.3305  0.1695 -0.5366
  495MOL0     H65327   3.174   0.796   6.865 -0.3319  0.0979 -1.7625
  495MOL0     H65328   3.376   1.363   6.699 -1.4190 -2.3735 -1.8328
  495MOL0     H65329   3.599   1.456   6.682  0.9033  0.0132  1.9104
  495MOL0     H65330   3.940   1.365   6.595 -0.1350  1.0608 -0.1618
  495MOL0     H65331   3.840   1.211   6.585 -1.7005  0.9755 -0.2503
  495MOL0     H65332   3.997   1.091   6.690  1.6945  0.4087 -0.5145
  495MOL0     H65333   4.093   1.200   6.603  0.5072  3.3236  0.7519
  495MOL0     H65334   4.163   1.144   6.830 -1.1671 -1.7748 -0.1683
  495MOL0     H65335   4.011   1.199   6.904 -0.2171  3.2763  0.6456
  495MOL0     H65336   4.029   1.434   6.819 -0.5885  0.6696 -1.3029
  495MOL0     H65337   4.148   1.371   6.938  1.6057 -0.4200 -0.6446
  495MOL0     H65338   4.411   1.460   6.620  0.6786 -2.1289 -1.0166
  495MOL0     H65339   3.759   1.080   6.845  1.6399  1.3814 -0.1592
  495MOL0     H65340   3.521   1.019   6.904  0.2759  0.9280  2.5764
  496MOL0     O65341   1.719   8.013   6.182 -0.3496 -0.0316 -0.1313
  496MOL0     C65342   1.781   8.117   6.204 -0.2081  0.5772 -0.2380
  496MOL0     O65343   1.732   8.238   6.223  0.1447 -0.3699 -0.2226
  496MOL0     C65344   1.596   8.270   6.215  0.5184  1.0516  1.1600
  496MOL0     C65345   1.526   8.286   6.331 -0.3840  0.0573 -0.1517
  496MOL0     C65346   1.392   8.316   6.331  0.5741 -0.0692  0.2102
  496MOL0     C65347   1.319   8.317   6.208  0.1180 -1.2440 -1.1275
  496MOL0     O65348   1.188   8.359   6.213  0.4376  0.4128 -0.1623
  496MOL0     C65349   1.096   8.288   6.131  1.0329  0.1253 -0.8174
  496MOL0     C65350   0.944   8.298   6.174 -0.7798  0.0341  0.1127
  496MOL0     C65351   0.887   8.423   6.129  1.0110 -0.0436  0.1048
  496MOL0     C65352   0.727   8.423   6.155 -1.1770  0.2181 -0.4880
  496MOL0     C65353   0.674   8.546   6.093  0.3237  0.2510 -0.7499
  496MOL0     C65354   0.534   8.555   6.141 -0.5004  0.2400  0.5185
  496MOL0     C65355   0.454   8.648   6.061  0.2055 -0.4379 -0.7782
  496MOL0     C65356   0.300   8.633   6.097  0.1739 -0.1435  0.6986
  496MOL0     N65357   0.224   8.532   6.022 -0.7375  0.3720 -0.2322
  496MOL0     C65358   0.094   8.496   6.055 -0.4277  0.5534  1.1257
  496MOL0     C65359   0.064   8.385   5.982  1.1014  0.8243  0.6715
  496MOL0     C65360  -0.065   8.303   5.998 -1.3607 -0.4268  0.9345
  496MOL0     C65361  -0.188   8.387   5.959  0.3901  0.0137 -0.6544
  496MOL0     C65362  -0.328   8.316   5.977  0.4988  0.4037 -0.3227
  496MOL0     C65363  -0.444   8.414   5.980 -0.0929 -0.8440  0.4525
  496MOL0     O65364  -0.572   8.355   5.997 -0.1890  0.1807  0.1225
  496MOL0     C65365  -0.685   8.430   6.008  0.1549 -0.4245  0.3457
  496MOL0     C65366  -0.798   8.358   6.047  0.2015 -0.0126  0.2892
  496MOL0     C65367  -0.913   8.434   6.073 -0.3615  0.2411  0.3302
  496MOL0     C65368  -0.917   8.573   6.050  0.5778  0.0408 -0.6985
  496MOL0     C65369  -1.045   8.642   6.067  0.1685 -0.3476  0.8654
  496MOL0     O65370  -1.151   8.574   6.107  0.5059 -0.0401  0.5036
  496MOL0     C65371  -1.278   8.630   6.117  0.2505 -0.8083 -0.0005
  496MOL0     C65372  -1.368   8.587   6.221 -0.4184  0.0490 -0.8902
  496MOL0     C65373  -1.505   8.637   6.231 -0.7407 -0.4013  0.0531
  496MOL0     C65374  -1.553   8.727   6.127 -0.2967  0.6429  0.3059
  496MOL0     O65375  -1.683   8.775   6.141 -0.2946  0.7604 -0.1045
  496MOL0     C65376  -1.760   8.800   6.028  0.0864  0.5567 -0.2057
  496MOL0     C65377  -1.806   8.674   5.956  0.1121  0.1014 -0.0489
  496MOL0     C65378  -1.853   8.686   5.817 -0.3434  0.7865 -0.3473
  496MOL0     C65379  -1.870   8.546   5.760 -0.1897 -0.0428  0.1181
  496MOL0     C65380  -1.940   8.547   5.627 -0.5522 -0.6934 -0.1360
  496MOL0     C65381  -2.090   8.594   5.636 -0.2891  0.7641 -0.7152
  496MOL0     C65382  -2.153   8.596   5.501 -0.1400 -0.2004  0.8207
  496MOL0     C65383  -2.309   8.581   5.511  0.2566 -1.0808 -0.2437
  496MOL0    Cl65384  -2.382   8.619   5.358  0.1292  0.0140  0.4677
  496MOL0     C65385  -1.458   8.785   6.042 -0.3213  0.5555  0.2437
  496MOL0     C65386  -1.334   8.726   6.022  0.1593  0.4586  0.0420
  496MOL0     O65387  -1.043   8.766   6.052  0.7226  0.1231 -0.5021
  496MOL0     C65388  -0.804   8.640   6.013 -0.3254 -0.4928 -0.5318
  496MOL0     C65389  -0.688   8.568   5.980  1.0643 -0.4647  0.0440
  496MOL0     N65390   0.181   8.359   5.904 -0.0498  0.3073  0.8870
  496MOL0     N65391   0.278   8.440   5.935 -0.9713 -0.1817  0.1542
  496MOL0     C65392   1.384   8.298   6.085 -0.2532 -0.6614 -0.7184
  496MOL0     C65393   1.524   8.268   6.087  0.2883 -0.3422 -0.6257
  496MOL0     C65394   1.927   8.106   6.212 -0.4175  0.1516 -0.0501
  496MOL0     C65395   1.992   7.983   6.191 -0.0654  0.1328 -0.2853
  496MOL0     C65396   2.129   7.977   6.196  0.7397 -0.0527  0.1278
  496MOL0     C65397   2.220   8.078   6.219  0.0445  0.0175 -0.5291
  496MOL0     O65398   2.354   8.063   6.200  0.3909  0.5024  0.7875
  496MOL0     C65399   2.442   8.177   6.198 -0.0770  0.1747  0.0714
  496MOL0     C65400   2.476   8.207   6.347 -0.3378 -0.1747  0.1024
  496MOL0     C65401   2.621   8.269   6.364 -0.7379  0.5635 -0.0696
  496MOL0     C65402   2.662   8.277   6.508 -0.2937  0.1852 -0.4842
  496MOL0     C65403   2.807   8.300   6.526 -0.3523 -0.5014 -0.2995
  496MOL0     C65404   2.928   8.321   6.531  0.3442 -0.6536 -0.3913
  496MOL0     C65405   2.154   8.201   6.242 -0.4272 -0.5715 -0.5533
  496MOL0     C65406   2.012   8.216   6.232 -0.1161  0.8945 -0.0961
  496MOL0     H65407   1.571   8.278   6.429 -2.0638 -1.7142  0.5501
  496MOL0     H65408   1.345   8.342   6.426  2.0815 -1.2664  1.3327
  496MOL0     H65409   1.112   8.181   6.146 -1.4237 -0.4368 -1.6126
  496MOL0     H65410   1.113   8.309   6.026  0.6740  2.1301 -0.5092
  496MOL0     H65411   0.942   8.275   6.281  0.7063  0.6509  0.3084
  496MOL0     H65412   0.901   8.214   6.118 -1.2587 -0.4780  1.2287
  496MOL0     H65413   0.915   8.435   6.024  2.4439  1.7266  0.6252
  496MOL0     H65414   0.930   8.506   6.187 -0.0048  2.3230 -2.3193
  496MOL0     H65415   0.679   8.330   6.122 -1.2480  0.5680 -1.3912
  496MOL0     H65416   0.713   8.425   6.264 -2.1046  2.2040 -0.6145
  496MOL0     H65417   0.665   8.543   5.984  0.5736  0.7258 -0.7868
  496MOL0     H65418   0.734   8.635   6.112  1.1813 -0.0615 -1.9244
  496MOL0     H65419   0.539   8.584   6.246 -0.8549  1.9061  0.0935
  496MOL0     H65420   0.488   8.456   6.139  1.1282 -0.5944  1.5648
  496MOL0     H65421   0.492   8.748   6.082  2.1882 -1.1308 -0.8242
  496MOL0     H65422   0.467   8.623   5.955  2.7364  1.3920 -0.9911
  496MOL0     H65423   0.243   8.724   6.077 -1.7768 -1.1559  1.4388
  496MOL0     H65424   0.296   8.607   6.203  0.0358 -0.6308  0.5747
  496MOL0     H65425   0.032   8.548   6.128  2.5939  2.3787  2.5869
  496MOL0     H65426  -0.076   8.262   6.099 -1.0810 -2.5011  0.1690
  496MOL0     H65427  -0.066   8.211   5.939 -2.1714  0.5402 -0.6197
  496MOL0     H65428  -0.184   8.415   5.853 -3.5449  2.6543 -0.3244
  496MOL0     H65429  -0.189   8.476   6.022  0.4495  0.1901 -0.9066
  496MOL0     H65430  -0.335   8.247   5.892  1.0433  0.6799 -0.5998
  496MOL0     H65431  -0.330   8.252   6.065  1.7594 -0.8170 -1.1345
  496MOL0     H65432  -0.435   8.487   5.900  2.0558  0.3819  1.7212
  496MOL0     H65433  -0.414   8.473   6.067 -0.8419  0.1926  0.0262
  496MOL0     H65434  -0.802   8.257   6.087  2.1401  1.1830  3.9611
  496MOL0     H65435  -0.995   8.386   6.127 -1.8260  2.9590  0.6898
  496MOL0     H65436  -1.337   8.510   6.291  0.9553  1.5318  0.2215
  496MOL0     H65437  -1.573   8.594   6.304 -1.9110 -2.6912 -2.2497
  496MOL0     H65438  -1.702   8.863   5.960  0.6459  0.1620 -0.1039
  496MOL0     H65439  -1.849   8.856   6.058 -0.9099 -0.4008 -1.2471
  496MOL0     H65440  -1.888   8.634   6.017  0.4106  0.7334  0.8004
  496MOL0     H65441  -1.723   8.603   5.958  0.2726  0.2175  3.6761
  496MOL0     H65442  -1.783   8.749   5.761  1.5060 -0.3724  0.5732
  496MOL0     H65443  -1.948   8.741   5.827  0.1539  1.2730  2.3814
  496MOL0     H65444  -1.771   8.498   5.756  0.0755  0.4144 -4.7522
  496MOL0     H65445  -1.938   8.502   5.834 -0.6919 -0.1841 -0.4214
  496MOL0     H65446  -1.938   8.444   5.592 -1.2082 -0.5609 -0.5944
  496MOL0     H65447  -1.876   8.609   5.564 -0.4228 -1.6487 -0.9722
  496MOL0     H65448  -2.105   8.691   5.683  1.2697  0.1403  1.2161
  496MOL0     H65449  -2.143   8.526   5.703 -0.0872  2.5161  1.3095
  496MOL0     H65450  -2.133   8.696   5.463 -1.1079  0.4527  1.9890
  496MOL0     H65451  -2.110   8.519   5.435 -0.0853 -0.1802  0.8341
  496MOL0     H65452  -2.347   8.653   5.584 -0.2341 -0.8018 -0.7608
  496MOL0     H65453  -2.328   8.479   5.546 -2.8278  0.2204  2.3100
  496MOL0     H65454  -1.483   8.859   5.967 -1.3708  0.9587  0.9786
  496MOL0     H65455  -1.279   8.766   5.937  0.8045  1.6747  0.9988
  496MOL0     H65456  -0.794   8.747   6.003 -2.6496 -0.1967 -0.1901
  496MOL0     H65457  -0.608   8.625   5.935 -0.1821 -0.2038 -1.9899
  496MOL0     H65458   1.327   8.292   5.993 -1.7535  0.1619  0.1067
  496MOL0     H65459   1.576   8.242   5.995 -1.0038  0.5595 -1.6439
  496MOL0     H65460   1.943   7.894   6.154 -1.1137  0.6924 -0.2891
  496MOL0     H65461   2.180   7.888   6.163  0.8876 -0.5177  1.5250
  496MOL0     H65462   2.387   8.251   6.140  0.1538  2.0850  2.1511
  496MOL0     H65463   2.539   8.161   6.149  1.5276  0.3445  2.9666
  496MOL0     H65464   2.397   8.269   6.389 -0.9406 -1.5800  1.1328
  496MOL0     H65465   2.463   8.117   6.408 -0.7281  0.0645  0.3776
  496MOL0     H65466   2.619   8.372   6.330 -2.7186  0.2353 -1.0610
  496MOL0     H65467   2.685   8.200   6.308 -2.4779 -1.4421  0.2879
  496MOL0     H65468   2.626   8.368   6.557  0.0837  0.4371 -0.6682
  496MOL0     H65469   2.626   8.182   6.549  0.0324 -0.3582 -1.4344
  496MOL0     H65470   3.033   8.343   6.532  0.1183  0.6304  1.8667
  496MOL0     H65471   2.210   8.294   6.252 -0.1826 -0.7303 -0.4203
  496MOL0     H65472   1.969   8.316   6.235 -0.1604  0.9673 -2.2018
  497MOL0     O65473   9.127   5.676   6.469  0.3045  0.4700  0.4696
  497MOL0     C65474   9.172   5.604   6.556 -0.0634  0.6549 -0.7237
  497MOL0     O65475   9.106   5.494   6.608 -0.2789 -0.2949  0.5524
  497MOL0     C65476   8.975   5.466   6.568 -0.1911 -0.1054 -0.6247
  497MOL0     C65477   8.938   5.343   6.509  0.7141 -0.4132 -0.5753
  497MOL0     C65478   8.797   5.320   6.484 -0.0443 -0.2433  0.6676
  497MOL0     C65479   8.699   5.414   6.513 -0.2508  0.4085 -0.5495
  497MOL0     O65480   8.573   5.375   6.464 -0.1176  0.2619 -0.0137
  497MOL0     C65481   8.469   5.482   6.465  0.6488 -0.0765 -0.3380
  497MOL0     C65482   8.340   5.421   6.416 -0.1367 -0.1043  0.2756
  497MOL0     C65483   8.230   5.525   6.416 -0.6278 -0.0382 -0.3899
  497MOL0     C65484   8.102   5.462   6.372 -0.3279 -0.0356  0.2652
  497MOL0     C65485   8.000   5.574   6.375 -0.6877 -0.2357  0.0869
  497MOL0     C65486   7.861   5.522   6.331 -0.1803  1.0206  0.6303
  497MOL0     C65487   7.764   5.637   6.342  0.1830 -0.1299 -1.2978
  497MOL0     C65488   7.709   5.655   6.485  0.2262  0.1810  0.4278
  497MOL0     N65489   7.614   5.546   6.524  0.0339  0.1672  0.2250
  497MOL0     C65490   7.493   5.525   6.455 -0.1552 -0.2332 -0.2983
  497MOL0     C65491   7.437   5.428   6.530 -0.0158 -0.8787 -0.1308
  497MOL0     C65492   7.305   5.363   6.499 -0.1202 -0.3901 -0.2670
  497MOL0     C65493   7.206   5.381   6.608  0.7045  0.1130 -0.4196
  497MOL0     C65494   7.066   5.341   6.562 -0.1101  0.0439  0.4287
  497MOL0     C65495   6.992   5.273   6.672  0.7330  0.7243  0.4279
  497MOL0     O65496   6.987   5.357   6.786 -0.4366 -0.5171  0.5978
  497MOL0     C65497   6.890   5.335   6.881 -0.2126 -0.6205 -0.3161
  497MOL0     C65498   6.832   5.456   6.939  0.1824 -0.0682  0.0233
  497MOL0     C65499   6.724   5.453   7.028  0.2106 -0.0989  0.0056
  497MOL0     C65500   6.668   5.327   7.057 -0.0378  0.6223  0.2115
  497MOL0     C65501   6.551   5.316   7.152  0.2008  0.0625  0.1312
  497MOL0     O65502   6.484   5.203   7.148  0.8520  0.1315 -0.2200
  497MOL0     C65503   6.356   5.198   7.209 -0.5773  0.6523  0.1095
  497MOL0     C65504   6.303   5.068   7.197  0.7847  0.1766 -0.4749
  497MOL0     C65505   6.174   5.028   7.232 -0.7658  0.5787 -0.9328
  497MOL0     C65506   6.088   5.119   7.291  0.5575 -0.3228  1.1469
  497MOL0     O65507   5.957   5.088   7.315 -0.2692 -0.5759  0.4288
  497MOL0     C65508   5.884   5.158   7.416 -0.0479  0.3634  0.1032
  497MOL0     C65509   5.763   5.074   7.440 -0.4009 -0.2009  0.4678
  497MOL0     C65510   5.647   5.068   7.338 -0.7107 -0.0058  0.1744
  497MOL0     C65511   5.689   4.999   7.205 -0.4333 -0.1611  0.1192
  497MOL0     C65512   5.584   4.977   7.101  0.2839 -0.2394  0.3543
  497MOL0     C65513   5.491   4.857   7.141  0.1025  0.0530  0.2739
  497MOL0     C65514   5.380   4.844   7.040  0.5835 -0.0710  0.1947
  497MOL0     C65515   5.279   4.734   7.083 -0.0436  0.5509 -0.3283
  497MOL0    Cl65516   5.158   4.808   7.209 -0.0340 -0.4946  0.4046
  497MOL0     C65517   6.134   5.256   7.300  0.8914 -0.7753 -0.2225
  497MOL0     C65518   6.262   5.300   7.261 -0.0911  0.6338  0.0547
  497MOL0     O65519   6.534   5.412   7.230 -0.0787 -0.5852  0.1047
  497MOL0     C65520   6.713   5.208   6.987 -0.5333 -0.2358 -0.6791
  497MOL0     C65521   6.828   5.213   6.906 -0.2690  0.0156 -0.0896
  497MOL0     N65522   7.528   5.388   6.632  0.0045  0.2430 -0.1164
  497MOL0     N65523   7.630   5.466   6.634  0.3013  0.8299  0.5647
  497MOL0     C65524   8.743   5.533   6.574  0.3132 -0.2599 -0.2407
  497MOL0     C65525   8.877   5.561   6.600 -1.0444 -0.0487  0.3882
  497MOL0     C65526   9.311   5.629   6.614  1.2791 -0.7645  0.3493
  497MOL0     C65527   9.365   5.751   6.571 -0.2554 -0.5411 -0.2461
  497MOL0     C65528   9.488   5.794   6.628  0.6062 -0.1264  0.0224
  497MOL0     C65529   9.553   5.714   6.725 -0.0997 -0.4080 -0.0764
  497MOL0     O65530   9.675   5.742   6.781  0.0504 -0.4366  0.6786
  497MOL0     C65531   9.764   5.821   6.699 -0.6807 -0.4400  0.9174
  497MOL0     C65532   9.916   5.831   6.756 -0.2040  0.9587 -0.9284
  497MOL0     C65533   9.991   5.696   6.738  0.2741  0.8217 -0.1552
  497MOL0     C65534  10.122   5.702   6.825 -0.2147 -0.3855  0.4621
  497MOL0     C65535  10.185   5.565   6.839  0.1043  0.3709 -0.1331
  497MOL0     C65536  10.235   5.453   6.834 -0.9034  0.2235 -0.1913
  497MOL0     C65537   9.502   5.588   6.753  0.4372 -0.4084 -0.8766
  497MOL0     C65538   9.377   5.545   6.705  0.7614  0.5340 -0.1710
  497MOL0     H65539   9.010   5.262   6.501  0.6595 -0.3219 -2.9192
  497MOL0     H65540   8.762   5.223   6.451 -0.8879  0.2424  0.0832
  497MOL0     H65541   8.495   5.570   6.405 -0.6088  0.0226 -0.7756
  497MOL0     H65542   8.455   5.498   6.572  1.5962 -0.8842 -0.0818
  497MOL0     H65543   8.318   5.332   6.477  0.7164  0.6906  1.8038
  497MOL0     H65544   8.364   5.377   6.319  1.3662  1.2248  0.0020
  497MOL0     H65545   8.253   5.622   6.371  0.2801  0.8222  1.7982
  497MOL0     H65546   8.221   5.554   6.521  0.6864 -0.9392 -0.0115
  497MOL0     H65547   8.125   5.425   6.271  1.5440 -4.2039  1.9827
  497MOL0     H65548   8.081   5.371   6.428  1.9959 -1.8384 -1.5387
  497MOL0     H65549   8.035   5.660   6.318  1.3271 -0.5888  0.7190
  497MOL0     H65550   7.987   5.622   6.472 -0.5505  0.3911 -0.2022
  497MOL0     H65551   7.834   5.433   6.390  2.9493  0.6614  1.7208
  497MOL0     H65552   7.868   5.488   6.227  1.8947 -0.0809  1.0692
  497MOL0     H65553   7.819   5.728   6.316  2.7635 -0.1848  3.0135
  497MOL0     H65554   7.685   5.629   6.267 -3.5894  2.4131  2.0071
  497MOL0     H65555   7.641   5.741   6.491 -1.8992 -1.2594 -1.3830
  497MOL0     H65556   7.788   5.664   6.559 -0.5230  0.6722  1.1868
  497MOL0     H65557   7.449   5.558   6.361  2.3553 -2.0760 -2.2512
  497MOL0     H65558   7.337   5.261   6.477  1.2187  0.0952 -0.7102
  497MOL0     H65559   7.268   5.409   6.407  0.9142 -1.7643 -1.4186
  497MOL0     H65560   7.201   5.486   6.641  2.9241  0.3061 -0.5803
  497MOL0     H65561   7.240   5.309   6.683  0.4058 -0.8704 -1.2070
  497MOL0     H65562   7.007   5.420   6.515  1.2483 -0.5830 -2.5389
  497MOL0     H65563   7.072   5.274   6.476 -1.1915  1.5024 -0.8400
  497MOL0     H65564   7.041   5.176   6.689  1.1605  0.9875  0.7297
  497MOL0     H65565   6.888   5.258   6.644  0.8430  2.3097 -0.9300
  497MOL0     H65566   6.882   5.549   6.912  2.4286 -1.2738 -0.1810
  497MOL0     H65567   6.681   5.544   7.066 -1.0728 -1.6087  2.4308
  497MOL0     H65568   6.363   4.986   7.159 -0.0040 -0.6776  0.1020
  497MOL0     H65569   6.136   4.929   7.208 -0.1680  0.4884 -1.5162
  497MOL0     H65570   5.852   5.259   7.389  0.0733  0.8119  1.5488
  497MOL0     H65571   5.942   5.152   7.508  1.1250  0.1820 -0.6165
  497MOL0     H65572   5.717   5.112   7.532  0.7853 -1.7552  1.7425
  497MOL0     H65573   5.791   4.970   7.456 -1.0156 -0.6197 -0.9839
  497MOL0     H65574   5.610   5.170   7.321  0.9058  0.6817  0.5905
  497MOL0     H65575   5.566   5.010   7.384  0.6289 -1.2675  1.0382
  497MOL0     H65576   5.771   5.058   7.163  3.3190 -4.2409  0.9541
  497MOL0     H65577   5.730   4.898   7.217  0.4559  0.3648  1.9376
  497MOL0     H65578   5.642   4.956   7.011 -0.6962 -2.1638  0.1171
  497MOL0     H65579   5.515   5.062   7.093 -0.0768 -0.6650 -1.6461
  497MOL0     H65580   5.438   4.900   7.226  0.2513  0.0710  0.3582
  497MOL0     H65581   5.536   4.761   7.169 -2.0850 -0.5684  1.8958
  497MOL0     H65582   5.318   4.934   7.035 -4.3483 -3.0286  0.9344
  497MOL0     H65583   5.415   4.816   6.940 -2.0498 -0.4485 -0.7006
  497MOL0     H65584   5.336   4.647   7.116 -2.1624 -0.4340  0.9967
  497MOL0     H65585   5.213   4.699   7.003  0.5690 -0.8107 -0.2660
  497MOL0     H65586   6.063   5.334   7.326 -0.2504 -0.9856 -2.4907
  497MOL0     H65587   6.290   5.405   7.264  2.2552  0.0313  1.2927
  497MOL0     H65588   6.669   5.112   7.009 -0.4137  0.2432  1.9438
  497MOL0     H65589   6.870   5.118   6.872  1.7251  0.3664  1.2137
  497MOL0     H65590   8.663   5.606   6.587  2.0387  1.3831  1.8967
  497MOL0     H65591   8.911   5.657   6.637  1.9114 -0.3839 -1.1521
  497MOL0     H65592   9.309   5.824   6.513  2.9560  3.2319  0.8890
  497MOL0     H65593   9.528   5.888   6.591  3.7763 -1.5625 -0.4618
  497MOL0     H65594   9.713   5.918   6.694  2.0843  1.1089  0.2015
  497MOL0     H65595   9.762   5.776   6.600 -1.7632  0.8547  0.3180
  497MOL0     H65596   9.969   5.911   6.705 -1.5276  2.1775 -0.4594
  497MOL0     H65597   9.918   5.860   6.861 -1.1273 -0.0867 -0.5998
  497MOL0     H65598  10.004   5.669   6.633 -2.3902  1.5251 -0.7501
  497MOL0     H65599   9.936   5.613   6.784  3.4319  0.1115  2.7085
  497MOL0     H65600  10.190   5.779   6.787 -0.4666 -0.3321  0.1162
  497MOL0     H65601  10.118   5.735   6.929  1.7203  2.3691 -0.2326
  497MOL0     H65602  10.285   5.358   6.842 -2.8922 -0.7411  2.1214
  497MOL0     H65603   9.557   5.532   6.828 -2.4298 -3.6190 -0.9373
  497MOL0     H65604   9.329   5.452   6.734 -3.7406  2.3326 -1.1262
  498MOL0     O65605   8.674   1.287   2.760  0.3270  0.2836 -0.0036
  498MOL0     C65606   8.731   1.401   2.773  0.1055  0.2664  0.0764
  498MOL0     O65607   8.670   1.517   2.807  0.6198  0.3065 -0.3444
  498MOL0     C65608   8.537   1.518   2.834  0.1424  0.0099 -0.2276
  498MOL0     C65609   8.497   1.530   2.964 -0.3320  1.1058  0.7397
  498MOL0     C65610   8.364   1.552   2.990 -0.0591  0.1445  0.3029
  498MOL0     C65611   8.266   1.538   2.888  0.1065 -0.2118  0.2817
  498MOL0     O65612   8.132   1.552   2.904  0.0664 -0.0348 -0.7601
  498MOL0     C65613   8.097   1.635   3.024 -0.5569  0.2848  0.3254
  498MOL0     C65614   7.948   1.683   3.027 -0.4500  0.4995  0.3791
  498MOL0     C65615   7.916   1.775   2.909  0.3069 -0.0949 -0.6677
  498MOL0     C65616   7.777   1.838   2.909  0.3477  0.6028 -0.3528
  498MOL0     C65617   7.664   1.743   2.848  0.1090 -0.3821  0.3255
  498MOL0     C65618   7.543   1.829   2.814 -0.3393  0.3676 -0.5256
  498MOL0     C65619   7.429   1.754   2.729 -0.6112 -0.6274 -0.3843
  498MOL0     C65620   7.314   1.858   2.695 -0.2906 -0.1045  0.6220
  498MOL0     N65621   7.200   1.808   2.624  0.3435  0.0186  0.1730
  498MOL0     C65622   7.105   1.722   2.679  0.2886  0.0106  0.8948
  498MOL0     C65623   7.013   1.706   2.581  0.3961 -0.1007  0.3614
  498MOL0     C65624   6.891   1.614   2.590  0.3781  0.3153  0.0718
  498MOL0     C65625   6.759   1.687   2.612  0.1194 -0.3281  0.1852
  498MOL0     C65626   6.676   1.714   2.491 -0.9240 -0.3604 -0.0237
  498MOL0     C65627   6.580   1.831   2.514 -0.7382 -0.0429 -0.1479
  498MOL0     O65628   6.492   1.814   2.627  0.9056 -0.3963 -0.4946
  498MOL0     C65629   6.359   1.801   2.614  0.5145 -0.0744 -0.6712
  498MOL0     C65630   6.292   1.768   2.731 -0.2991  1.3271 -0.2451
  498MOL0     C65631   6.160   1.725   2.725  0.4859 -0.9961 -0.5393
  498MOL0     C65632   6.090   1.733   2.605  0.0414  0.1362  0.5451
  498MOL0     C65633   5.951   1.695   2.597  0.4068 -0.1164 -0.2835
  498MOL0     O65634   5.880   1.762   2.499 -0.0436 -0.5597 -0.0039
  498MOL0     C65635   5.753   1.711   2.485  0.1210  0.2998  0.6882
  498MOL0     C65636   5.641   1.786   2.496  0.0198  0.0714 -0.0144
  498MOL0     C65637   5.504   1.725   2.494 -0.9003  0.1258  0.0478
  498MOL0     C65638   5.491   1.590   2.451  0.2041  0.2855  0.6775
  498MOL0     O65639   5.375   1.526   2.431 -0.1172 -0.9253  0.1595
  498MOL0     C65640   5.249   1.594   2.438  0.0894  1.0449 -0.4368
  498MOL0     C65641   5.141   1.494   2.401  1.4134  0.0571 -0.2325
  498MOL0     C65642   5.163   1.412   2.265 -0.6830 -0.8291 -0.5277
  498MOL0     C65643   5.070   1.293   2.254 -0.1499  0.3807 -0.1082
  498MOL0     C65644   4.918   1.320   2.250 -0.6503  1.0414  0.1124
  498MOL0     C65645   4.833   1.195   2.278  0.8918 -0.1413  0.0109
  498MOL0     C65646   4.682   1.229   2.235  0.6779  0.3108 -0.5062
  498MOL0     C65647   4.597   1.336   2.321 -0.2523  0.6264  0.0537
  498MOL0    Cl65648   4.522   1.260   2.469  0.2396  0.1441  0.0832
  498MOL0     C65649   5.603   1.523   2.414 -0.1909  0.0743  0.0312
  498MOL0     C65650   5.733   1.577   2.437  0.9253 -1.1978 -0.2490
  498MOL0     O65651   5.899   1.620   2.678 -0.3058 -0.3188 -0.7321
  498MOL0     C65652   6.150   1.779   2.484  0.0355 -0.1222 -0.6578
  498MOL0     C65653   6.290   1.805   2.494  0.5061 -1.4796  0.2038
  498MOL0     N65654   7.042   1.787   2.472  0.5274  0.1623 -0.6710
  498MOL0     N65655   7.155   1.844   2.496  0.2844  0.9874  0.0591
  498MOL0     C65656   8.309   1.508   2.757  0.7542  0.0884 -0.1447
  498MOL0     C65657   8.445   1.504   2.723 -0.1750 -0.3506  0.0057
  498MOL0     C65658   8.878   1.412   2.755 -0.6561 -0.3211 -0.6140
  498MOL0     C65659   8.954   1.310   2.706  0.7723 -0.0483  0.9399
  498MOL0     C65660   9.095   1.317   2.698  0.4142 -0.3831  0.6669
  498MOL0     C65661   9.173   1.430   2.738  0.2461 -0.4541 -0.3879
  498MOL0     O65662   9.312   1.443   2.746  0.2495 -1.1926  1.7209
  498MOL0     C65663   9.381   1.342   2.673  0.2040  0.8149 -0.1543
  498MOL0     C65664   9.533   1.368   2.669  0.2615 -0.2589 -0.2410
  498MOL0     C65665   9.613   1.246   2.626 -0.7415  0.5565 -0.8586
  498MOL0     C65666   9.773   1.257   2.637  0.0239 -0.7301 -0.1625
  498MOL0     C65667   9.816   1.300   2.769 -0.2573 -0.5026 -0.4615
  498MOL0     C65668   9.828   1.345   2.884  0.0744 -0.9896  0.4835
  498MOL0     C65669   9.095   1.539   2.785 -0.3785  1.1462  0.5095
  498MOL0     C65670   8.951   1.533   2.794  0.5729 -0.1043  0.1145
  498MOL0     H65671   8.572   1.535   3.043 -0.3686  2.1529  0.7265
  498MOL0     H65672   8.340   1.573   3.094 -0.4169 -0.5622  0.3688
  498MOL0     H65673   8.165   1.720   3.025  0.3161 -0.1209 -4.3183
  498MOL0     H65674   8.103   1.578   3.118 -1.5197  0.3359  0.4287
  498MOL0     H65675   7.931   1.732   3.124 -0.4730 -1.3675  1.3676
  498MOL0     H65676   7.885   1.595   3.012 -1.0688  1.1600 -1.0956
  498MOL0     H65677   7.945   1.729   2.814 -1.0887 -2.7477  0.0990
  498MOL0     H65678   7.995   1.851   2.914  1.1114 -0.8461 -1.3960
  498MOL0     H65679   7.733   1.864   3.006 -0.5061  0.1583 -0.6085
  498MOL0     H65680   7.778   1.929   2.848 -3.2478  3.4795  3.2999
  498MOL0     H65681   7.641   1.665   2.920 -1.4837  1.1192  1.5115
  498MOL0     H65682   7.707   1.694   2.760 -1.0647 -0.8098 -0.0301
  498MOL0     H65683   7.573   1.916   2.754 -0.8932  0.4653 -0.6649
  498MOL0     H65684   7.497   1.884   2.896  3.8733  3.7219 -0.0498
  498MOL0     H65685   7.469   1.722   2.633 -1.5790 -1.2049 -0.6066
  498MOL0     H65686   7.388   1.676   2.793  1.8219 -0.5600  1.4045
  498MOL0     H65687   7.358   1.932   2.628  1.3343  1.8979  3.6596
  498MOL0     H65688   7.288   1.905   2.791  3.1446  1.3115  0.9882
  498MOL0     H65689   7.125   1.671   2.773 -0.9885 -1.9501  0.1613
  498MOL0     H65690   6.901   1.544   2.674  0.9268 -0.6606 -0.7706
  498MOL0     H65691   6.889   1.548   2.502 -2.5536 -0.4129  0.5951
  498MOL0     H65692   6.798   1.779   2.656  2.2642 -2.1667  2.4073
  498MOL0     H65693   6.703   1.628   2.685  0.0741 -0.9452 -0.3390
  498MOL0     H65694   6.750   1.743   2.416  0.3218  1.2594  1.7210
  498MOL0     H65695   6.619   1.628   2.457 -0.3998 -0.3189 -1.0456
  498MOL0     H65696   6.522   1.838   2.421 -1.4160  1.6282  0.3581
  498MOL0     H65697   6.645   1.918   2.530  1.9436 -1.9828  0.3130
  498MOL0     H65698   6.353   1.780   2.820 -0.6539  0.9240  0.0582
  498MOL0     H65699   6.115   1.706   2.822 -0.1048  3.3801  0.2808
  498MOL0     H65700   5.667   1.886   2.529  3.1893 -0.8907  0.7129
  498MOL0     H65701   5.417   1.782   2.526 -2.2909 -0.2412 -2.8220
  498MOL0     H65702   5.249   1.676   2.365 -1.6920 -0.0691 -1.7945
  498MOL0     H65703   5.234   1.631   2.540 -3.1555 -2.1395  0.4567
  498MOL0     H65704   5.046   1.548   2.403  1.0368 -0.6236  1.7860
  498MOL0     H65705   5.134   1.415   2.476 -3.0146  1.8097  1.4830
  498MOL0     H65706   5.264   1.370   2.267 -0.8176 -1.1446 -0.1593
  498MOL0     H65707   5.158   1.469   2.171  0.9522 -0.8349 -0.6407
  498MOL0     H65708   5.097   1.243   2.161  0.4369 -1.4498  0.9973
  498MOL0     H65709   5.095   1.218   2.330  0.7765 -0.7557 -1.4766
  498MOL0     H65710   4.893   1.357   2.150  1.5380  0.2959 -0.7819
  498MOL0     H65711   4.896   1.405   2.315 -2.8412 -0.6713  1.7717
  498MOL0     H65712   4.831   1.164   2.383 -1.3664  0.7737  0.3017
  498MOL0     H65713   4.872   1.115   2.214 -0.1208 -1.5002  1.0459
  498MOL0     H65714   4.676   1.253   2.128 -2.0837 -1.7759 -0.9182
  498MOL0     H65715   4.619   1.140   2.241 -2.7633  2.5735 -0.1320
  498MOL0     H65716   4.511   1.374   2.265  0.6877  0.5266 -1.5089
  498MOL0     H65717   4.647   1.428   2.349  0.7470 -0.0542  0.5728
  498MOL0     H65718   5.594   1.418   2.387 -5.0220  0.0090  1.0214
  498MOL0     H65719   5.814   1.505   2.432  1.2138 -1.1502  2.3255
  498MOL0     H65720   6.099   1.776   2.389  1.5965  3.0106 -1.7441
  498MOL0     H65721   6.334   1.830   2.398  0.1969  1.2574  0.7152
  498MOL0     H65722   8.234   1.505   2.679 -1.1429  1.5819  1.5118
  498MOL0     H65723   8.485   1.476   2.626  1.3791 -0.8004  0.7321
  498MOL0     H65724   8.911   1.216   2.673  0.0207  0.3470  0.7674
  498MOL0     H65725   9.146   1.235   2.648 -0.7727  0.0333 -1.3344
  498MOL0     H65726   9.337   1.329   2.574 -1.2059  2.1029  0.2742
  498MOL0     H65727   9.363   1.247   2.725  3.0770 -0.1017 -0.6193
  498MOL0     H65728   9.542   1.460   2.611  0.6073 -0.1211  0.0325
  498MOL0     H65729   9.569   1.401   2.767 -0.9290  1.3213 -0.2943
  498MOL0     H65730   9.583   1.211   2.527  1.0488  1.0803 -1.6429
  498MOL0     H65731   9.581   1.165   2.691 -1.2988 -0.2667 -2.1281
  498MOL0     H65732   9.805   1.153   2.625 -0.5889 -1.2857  2.3687
  498MOL0     H65733   9.822   1.318   2.561  3.3121 -1.4902  1.1724
  498MOL0     H65734   9.845   1.375   2.986  2.3731  1.0235 -0.4022
  498MOL0     H65735   9.132   1.638   2.807 -4.3936  3.0138 -0.3664
  498MOL0     H65736   8.895   1.625   2.809  0.0047 -0.1612 -1.4568
  499MOL0     O65737   8.965  11.062  11.028  0.4144  0.5297 -0.4664
  499MOL0     C65738   9.013  11.136  11.115  0.8453 -0.0037 -0.1949
  499MOL0     O65739   9.142  11.144  11.160 -0.1399 -0.0350 -0.0115
  499MOL0     C65740   9.240  11.070  11.086  0.6403 -0.1023  0.6198
  499MOL0     C65741   9.229  11.035  10.955 -0.5481  0.1583  0.6726
  499MOL0     C65742   9.325  10.959  10.881  0.7402  0.8729  0.0653
  499MOL0     C65743   9.436  10.907  10.951 -0.6327  0.1325 -0.2849
  499MOL0     O65744   9.529  10.818  10.904  0.1759 -0.3051  0.3014
  499MOL0     C65745   9.494  10.736  10.790  0.0879  0.6929 -0.5189
  499MOL0     C65746   9.373  10.636  10.828 -0.8397  0.1186 -0.3782
  499MOL0     C65747   9.322  10.553  10.701 -0.0272  0.3101 -0.5652
  499MOL0     C65748   9.219  10.443  10.735 -0.1485  0.1217 -0.0163
  499MOL0     C65749   9.205  10.347  10.616  0.2331  1.0545  0.6076
  499MOL0     C65750   9.134  10.219  10.652  0.2260  0.2716 -0.2170
  499MOL0     C65751   9.054  10.167  10.529 -0.4255 -0.7472 -0.1577
  499MOL0     C65752   8.965  10.046  10.561 -0.6017  0.2234  0.0560
  499MOL0     N65753   8.997   9.922  10.485 -0.1723 -0.3795 -1.2086
  499MOL0     C65754   8.947   9.896  10.354 -0.1403  0.0366  0.4029
  499MOL0     C65755   8.971   9.768  10.333 -0.5335  0.5121 -0.8052
  499MOL0     C65756   8.936   9.677  10.227 -0.1027  1.4063  0.3232
  499MOL0     C65757   8.808   9.701  10.142 -0.8077  0.2981 -0.3497
  499MOL0     C65758   8.772   9.580  10.056 -1.2128  0.5420 -0.1635
  499MOL0     C65759   8.628   9.582   9.997  0.5027  0.4677  0.2632
  499MOL0     O65760   8.611   9.716   9.943  0.3466  0.0121 -0.7258
  499MOL0     C65761   8.503   9.744   9.864  0.4336  0.2744 -0.1834
  499MOL0     C65762   8.494   9.863   9.801  0.9608 -0.6556  0.7541
  499MOL0     C65763   8.373   9.899   9.731 -0.3772 -0.3197  0.4776
  499MOL0     C65764   8.257   9.820   9.730  0.2240  1.0342  0.2649
  499MOL0     C65765   8.127   9.869   9.666  0.7571 -0.2194 -0.2542
  499MOL0     O65766   8.141   9.974   9.575  0.5797  0.5625  0.2358
  499MOL0     C65767   8.025  10.014   9.514 -0.6497 -0.5102  0.1942
  499MOL0     C65768   7.964  10.123   9.555  0.5868  0.5919 -0.8237
  499MOL0     C65769   7.837  10.156   9.499  0.4913 -0.3509 -1.0132
  499MOL0     C65770   7.775  10.083   9.394 -0.0396  0.5026  0.1219
  499MOL0     O65771   7.651  10.130   9.355 -0.2868  0.8647 -0.8466
  499MOL0     C65772   7.543  10.041   9.325 -0.5901  0.0117 -0.4697
  499MOL0     C65773   7.446  10.110   9.228  0.6231 -0.2519 -0.0873
  499MOL0     C65774   7.333  10.011   9.207 -0.1033 -0.4168  0.5445
  499MOL0     C65775   7.204  10.079   9.155 -0.2291 -0.3438 -0.4438
  499MOL0     C65776   7.081   9.990   9.162  0.1254 -0.7511 -0.9281
  499MOL0     C65777   7.099   9.871   9.077 -0.3110  0.3201 -0.6717
  499MOL0     C65778   6.964   9.782   9.069  1.0363  0.1468 -0.2325
  499MOL0     C65779   6.961   9.703   8.941 -0.6166  0.7735  0.4226
  499MOL0    Cl65780   6.824   9.598   8.927 -0.1286  0.0386 -0.1556
  499MOL0     C65781   7.836   9.953   9.359  0.0293  0.9271 -0.5120
  499MOL0     C65782   7.961   9.926   9.417 -0.2357 -0.2901 -0.2960
  499MOL0     O65783   8.024   9.806   9.690  0.5227  0.3848  0.7355
  499MOL0     C65784   8.264   9.704   9.812 -0.1765  0.1531  0.4345
  499MOL0     C65785   8.380   9.664   9.871 -0.3702  0.4155  0.2784
  499MOL0     N65786   9.045   9.723  10.441 -1.3028 -0.2708 -0.0518
  499MOL0     N65787   9.057   9.809  10.532  0.4550  0.3079  0.5346
  499MOL0     C65788   9.449  10.942  11.088  0.3865 -0.5298 -0.6932
  499MOL0     C65789   9.354  11.024  11.149  0.5125  0.3095 -0.4246
  499MOL0     C65790   8.923  11.235  11.186 -0.8054  0.2428 -0.0383
  499MOL0     C65791   8.970  11.353  11.247 -0.7545  0.3093  0.5089
  499MOL0     C65792   8.884  11.444  11.308 -0.0121  0.4859 -0.1091
  499MOL0     C65793   8.749  11.406  11.325  0.5489 -0.3786 -0.7031
  499MOL0     O65794   8.657  11.465  11.407  0.0088  0.3700  0.5418
  499MOL0     C65795   8.701  11.561  11.502 -0.4570 -0.4420  0.3228
  499MOL0     C65796   8.769  11.498  11.622  0.3732 -0.4300  1.0649
  499MOL0     C65797   8.732  11.575  11.755 -0.8168 -0.2361 -0.9017
  499MOL0     C65798   8.800  11.498  11.870  1.0546  0.0432  0.0963
  499MOL0     C65799   8.944  11.527  11.866 -0.5049  0.6709 -0.0284
  499MOL0     C65800   9.057  11.528  11.856  0.7118  0.6918  1.1729
  499MOL0     C65801   8.706  11.287  11.273  0.1949  0.2993 -0.3943
  499MOL0     C65802   8.785  11.203  11.200 -0.2505 -0.5122 -0.7001
  499MOL0     H65803   9.144  11.066  10.895 -0.4659 -0.3306  0.2922
  499MOL0     H65804   9.293  10.932  10.781  0.4150 -2.7610  0.9767
  499MOL0     H65805   9.583  10.677  10.768 -0.7798 -1.0285  0.3644
  499MOL0     H65806   9.464  10.794  10.701 -2.3054 -0.5600 -0.6182
  499MOL0     H65807   9.287  10.701  10.849  0.1732  1.6697 -0.9047
  499MOL0     H65808   9.407  10.571  10.909  2.3256  1.9045 -0.1160
  499MOL0     H65809   9.407  10.504  10.653 -0.9975  0.2327 -2.2566
  499MOL0     H65810   9.273  10.620  10.631 -2.4268 -1.8959 -1.1561
  499MOL0     H65811   9.246  10.385  10.823 -3.4056  1.7977  2.3221
  499MOL0     H65812   9.121  10.482  10.764 -0.6505  1.5386 -3.1637
  499MOL0     H65813   9.299  10.310  10.574  0.1309 -0.4770  1.6293
  499MOL0     H65814   9.151  10.397  10.535  0.4297 -2.9476 -2.3178
  499MOL0     H65815   9.065  10.235  10.736  2.5113  0.5711  1.7046
  499MOL0     H65816   9.205  10.146  10.691  1.5424  0.3261 -2.3439
  499MOL0     H65817   8.987  10.241  10.485 -0.3305  0.8677  2.2381
  499MOL0     H65818   9.125  10.144  10.449  3.1991  2.5467  1.7504
  499MOL0     H65819   8.858  10.062  10.549 -0.6325 -0.9907 -1.5506
  499MOL0     H65820   8.973  10.013  10.665 -0.2117 -2.7654 -0.8218
  499MOL0     H65821   8.891   9.964  10.291  0.1050  2.4965  2.6600
  499MOL0     H65822   8.935   9.577  10.271 -0.5930  0.1424 -2.3874
  499MOL0     H65823   9.018   9.673  10.154 -2.7485 -0.5322 -2.8398
  499MOL0     H65824   8.828   9.779  10.068  0.7443  1.7622  1.4991
  499MOL0     H65825   8.719   9.721  10.202 -0.6768  0.4462 -0.2016
  499MOL0     H65826   8.854   9.582   9.983  1.1533 -0.0494  2.3130
  499MOL0     H65827   8.791   9.488  10.113  0.5322  0.8888 -0.1340
  499MOL0     H65828   8.545   9.550  10.060 -0.8420  1.7547 -0.7915
  499MOL0     H65829   8.638   9.521   9.906 -1.5671  1.3802 -0.6230
  499MOL0     H65830   8.575   9.935   9.792  0.1832  0.2465  0.8170
  499MOL0     H65831   8.361   9.994   9.679  0.1758 -1.0448 -1.0382
  499MOL0     H65832   8.005  10.184   9.634  2.3173 -2.1894  0.6088
  499MOL0     H65833   7.778  10.242   9.530 -1.1156 -2.1183  1.1480
  499MOL0     H65834   7.496  10.012   9.420 -0.3945 -0.8953 -0.6452
  499MOL0     H65835   7.589   9.956   9.274  0.6372  0.8778 -0.8321
  499MOL0     H65836   7.488  10.149   9.135 -0.2062 -0.4845 -0.5729
  499MOL0     H65837   7.402  10.197   9.278 -3.1093 -1.2859 -1.1813
  499MOL0     H65838   7.304   9.959   9.299  0.4729 -1.4510  0.1617
  499MOL0     H65839   7.371   9.942   9.131  2.3758  1.5437 -0.1374
  499MOL0     H65840   7.181  10.177   9.197  0.4271  1.7805 -4.5440
  499MOL0     H65841   7.206  10.111   9.050  0.7240 -0.8633 -0.5930
  499MOL0     H65842   6.993  10.047   9.131  1.1371  0.5848 -1.4206
  499MOL0     H65843   7.070   9.969   9.269 -0.8639  2.0937 -0.3920
  499MOL0     H65844   7.184   9.809   9.104 -1.1654 -0.4599  0.3265
  499MOL0     H65845   7.117   9.913   8.977  2.3731  2.3215  0.5251
  499MOL0     H65846   6.947   9.707   9.146 -0.6098  0.6625 -0.0465
  499MOL0     H65847   6.869   9.837   9.070 -0.3219 -2.0278 -1.3246
  499MOL0     H65848   7.052   9.643   8.933  0.8601  2.8235  0.8621
  499MOL0     H65849   6.961   9.767   8.852  3.0435 -0.3117 -0.5509
  499MOL0     H65850   7.785   9.882   9.295  2.0900  0.2579 -1.4987
  499MOL0     H65851   8.002   9.832   9.382  5.2428  1.6298  0.1042
  499MOL0     H65852   8.174   9.645   9.827 -0.5534  1.0578  2.0326
  499MOL0     H65853   8.382   9.570   9.926  0.3033  0.4688  0.3512
  499MOL0     H65854   9.524  10.900  11.154 -0.8901 -1.5047  0.1780
  499MOL0     H65855   9.370  11.048  11.254 -0.2406  3.7530 -1.0077
  499MOL0     H65856   9.075  11.377  11.233 -0.2531 -1.0115  1.7135
  499MOL0     H65857   8.936  11.537  11.330  1.8131 -0.6028  0.3989
  499MOL0     H65858   8.620  11.626  11.536 -1.0882  0.5882 -2.7785
  499MOL0     H65859   8.773  11.633  11.462  0.5540 -0.6991  1.5993
  499MOL0     H65860   8.717  11.403  11.634 -0.0822 -0.0359  2.4190
  499MOL0     H65861   8.876  11.482  11.607  0.6561 -0.6679  3.0099
  499MOL0     H65862   8.624  11.558  11.756 -0.8376 -0.1079  0.0057
  499MOL0     H65863   8.765  11.679  11.754  1.2099 -0.6991  2.2017
  499MOL0     H65864   8.762  11.522  11.970  1.9213 -1.6805  0.8882
  499MOL0     H65865   8.781  11.392  11.849  1.4156 -0.7620  3.3760
  499MOL0     H65866   9.164  11.531  11.855  0.9067 -2.6812  1.4093
  499MOL0     H65867   8.602  11.257  11.275 -0.4025  2.2481  0.8510
  499MOL0     H65868   8.749  11.116  11.146 -0.8279 -1.2409  0.8153
  500MOL0     O65869  10.807   7.552   6.632 -0.5290 -0.4311  0.6160
  500MOL0     C65870  10.857   7.624   6.712  0.0531 -0.3430  0.4103
  500MOL0     O65871  10.802   7.670   6.826 -0.0299  0.1068  0.0294
  500MOL0     C65872  10.666   7.655   6.850 -0.6607 -0.1304 -0.0782
  500MOL0     C65873  10.567   7.648   6.748 -0.6574 -0.3231 -0.2137
  500MOL0     C65874  10.443   7.604   6.785 -0.0975 -1.2523 -0.0084
  500MOL0     C65875  10.414   7.573   6.918 -0.2620 -0.3966  0.3435
  500MOL0     O65876  10.283   7.532   6.945  0.2199 -0.3101 -0.0713
  500MOL0     C65877  10.245   7.520   7.082  0.2984 -0.0381 -0.7684
  500MOL0     C65878  10.096   7.516   7.088  0.0058 -0.3430 -0.5518
  500MOL0     C65879  10.046   7.489   7.230  0.0041  0.4263 -0.2633
  500MOL0     C65880   9.894   7.496   7.260  0.8566  0.0988  0.7250
  500MOL0     C65881   9.825   7.356   7.257  0.2789  0.0753  0.4392
  500MOL0     C65882   9.770   7.310   7.111 -0.5214  0.2052 -0.5769
  500MOL0     C65883   9.670   7.402   7.048  0.5260 -0.8211  0.2377
  500MOL0     C65884   9.528   7.405   7.106 -0.5949 -0.6290 -0.1636
  500MOL0     N65885   9.462   7.527   7.062  0.1868 -1.0389 -0.1555
  500MOL0     C65886   9.369   7.582   7.147  0.0003 -0.0915  0.4702
  500MOL0     C65887   9.318   7.684   7.072  0.2162 -0.5425  0.7765
  500MOL0     C65888   9.210   7.789   7.107 -0.1391  0.7476 -0.1390
  500MOL0     C65889   9.071   7.743   7.059 -0.2173  0.5401  0.9018
  500MOL0     C65890   8.953   7.800   7.137 -0.3491 -0.1698 -0.9812
  500MOL0     C65891   8.827   7.750   7.073 -0.8810 -0.3647 -0.5785
  500MOL0     O65892   8.804   7.829   6.954 -1.3349  0.1522 -0.3547
  500MOL0     C65893   8.691   7.811   6.884  0.0213  0.5633  0.5244
  500MOL0     C65894   8.580   7.735   6.918  0.2418  0.5438 -0.1387
  500MOL0     C65895   8.466   7.738   6.836  0.1622  0.0797  0.0127
  500MOL0     C65896   8.458   7.813   6.725 -0.8282  0.0434 -0.7316
  500MOL0     C65897   8.337   7.808   6.645 -0.6123  0.0062  0.9616
  500MOL0     O65898   8.228   7.754   6.695  0.3234 -0.1639  0.0025
  500MOL0     C65899   8.100   7.768   6.631  0.2984 -0.3959  1.0617
  500MOL0     C65900   8.053   7.884   6.566 -0.5947  0.0863  0.2195
  500MOL0     C65901   7.923   7.891   6.525 -0.2833 -1.7636  0.0881
  500MOL0     C65902   7.831   7.781   6.538  0.1960 -0.2338 -0.7847
  500MOL0     O65903   7.708   7.818   6.491  0.4227 -0.4047  0.3529
  500MOL0     C65904   7.592   7.755   6.551  0.7566 -0.1344  0.8442
  500MOL0     C65905   7.468   7.843   6.531 -0.3032  0.4998 -0.3087
  500MOL0     C65906   7.337   7.801   6.600 -0.9615  1.2716 -0.0822
  500MOL0     C65907   7.233   7.905   6.563 -0.1176 -0.7393  0.4212
  500MOL0     C65908   7.101   7.878   6.634 -0.5089 -0.3061 -0.8303
  500MOL0     C65909   7.047   7.737   6.622 -0.6432 -0.3409  0.1267
  500MOL0     C65910   6.911   7.731   6.676  0.0450 -0.4750  0.1662
  500MOL0     C65911   6.840   7.598   6.654  0.4173 -0.2060  0.0766
  500MOL0    Cl65912   6.930   7.451   6.682  0.0675 -0.1956  0.0916
  500MOL0     C65913   7.873   7.658   6.601  0.0895 -0.0297 -0.0052
  500MOL0     C65914   8.012   7.656   6.632 -0.4691 -0.3896 -1.4822
  500MOL0     O65915   8.346   7.861   6.531  0.1844 -0.0174  0.1592
  500MOL0     C65916   8.573   7.893   6.689 -0.4313  0.4025 -0.3156
  500MOL0     C65917   8.681   7.884   6.774 -0.5637 -0.7189  0.7047
  500MOL0     N65918   9.394   7.689   6.951  0.2042 -0.7846  1.1425
  500MOL0     N65919   9.472   7.594   6.951 -0.6379  0.1897 -0.2103
  500MOL0     C65920  10.505   7.592   7.022  0.1441 -0.8467  0.5196
  500MOL0     C65921  10.638   7.631   6.982  0.3161  0.5687  0.5253
  500MOL0     C65922  10.992   7.683   6.676  0.1580  0.1025  0.2411
  500MOL0     C65923  11.049   7.789   6.746  1.3177  0.8638  0.4323
  500MOL0     C65924  11.173   7.827   6.711 -0.0760 -0.0297 -0.0931
  500MOL0     C65925  11.251   7.760   6.611 -0.2539 -0.5247  1.2508
  500MOL0     O65926  11.384   7.788   6.592  0.4144  0.3530  0.7330
  500MOL0     C65927  11.427   7.928   6.615  0.0468  0.9457 -0.1180
  500MOL0     C65928  11.552   7.961   6.535 -0.2776 -0.6405 -0.3816
  500MOL0     C65929  11.674   7.917   6.618 -0.0995 -0.3316 -0.3122
  500MOL0     C65930  11.797   7.907   6.530 -0.1632 -0.1003  0.2835
  500MOL0     C65931  11.813   7.775   6.473 -0.1667  0.2016 -0.2129
  500MOL0     C65932  11.817   7.662   6.428  0.2460  0.6124 -0.5360
  500MOL0     C65933  11.204   7.648   6.552 -0.1312 -0.4208 -0.0465
  500MOL0     C65934  11.076   7.608   6.582 -0.0661 -0.2165  0.4226
  500MOL0     H65935  10.584   7.665   6.643  0.3033 -1.1154 -0.2046
  500MOL0     H65936  10.356   7.586   6.722 -0.9727 -0.9689  1.0857
  500MOL0     H65937  10.269   7.612   7.135 -0.6322  0.1188 -0.6054
  500MOL0     H65938  10.289   7.431   7.128  0.1474  0.4582  0.3457
  500MOL0     H65939  10.053   7.442   7.020  1.3502 -2.0888  0.4077
  500MOL0     H65940  10.055   7.608   7.045  2.8110  1.6330  0.6833
  500MOL0     H65941  10.089   7.559   7.302 -2.7733  0.6251  1.3530
  500MOL0     H65942  10.088   7.390   7.247  3.5675  1.4521 -2.2242
  500MOL0     H65943   9.886   7.533   7.363  0.7294  0.5166  0.5624
  500MOL0     H65944   9.838   7.565   7.197 -0.8744 -1.6492  0.2564
  500MOL0     H65945   9.732   7.356   7.315 -0.7842 -5.9082 -0.6392
  500MOL0     H65946   9.893   7.281   7.300  2.3520  1.5972 -0.0515
  500MOL0     H65947   9.716   7.217   7.131 -0.5237 -0.1606 -2.1041
  500MOL0     H65948   9.858   7.291   7.048  1.3198  0.2709  1.8591
  500MOL0     H65949   9.701   7.505   7.027 -0.7063 -0.6721 -1.0105
  500MOL0     H65950   9.664   7.356   6.949  0.3813 -2.5149  0.9985
  500MOL0     H65951   9.528   7.400   7.215 -1.6229  0.9002 -0.0661
  500MOL0     H65952   9.468   7.318   7.076 -0.8208 -0.7831  0.7121
  500MOL0     H65953   9.349   7.536   7.243  1.2485 -3.2720 -0.6384
  500MOL0     H65954   9.240   7.889   7.073  2.5326 -0.5800 -2.0163
  500MOL0     H65955   9.210   7.790   7.217  1.1946  0.2162 -0.1233
  500MOL0     H65956   9.070   7.634   7.071 -2.1935 -0.0827 -3.0080
  500MOL0     H65957   9.049   7.757   6.953 -1.9011  1.7999  1.3714
  500MOL0     H65958   8.965   7.777   7.243  1.5921  3.0382 -0.3926
  500MOL0     H65959   8.957   7.909   7.135 -0.4327 -0.1743 -2.1440
  500MOL0     H65960   8.741   7.749   7.141 -1.7142  0.1267 -1.5973
  500MOL0     H65961   8.843   7.646   7.044 -0.9294 -0.3466 -0.6689
  500MOL0     H65962   8.579   7.669   7.003 -2.4393 -1.6001 -1.6715
  500MOL0     H65963   8.381   7.676   6.864  0.8469  0.2141  2.6590
  500MOL0     H65964   8.113   7.974   6.569 -0.4176  0.0814  4.8175
  500MOL0     H65965   7.897   7.991   6.492  0.4730 -1.5378  0.1480
  500MOL0     H65966   7.612   7.746   6.658 -2.9175  0.1593  1.6983
  500MOL0     H65967   7.571   7.654   6.514 -0.3444  0.1211  0.7196
  500MOL0     H65968   7.445   7.863   6.425 -0.4717 -1.3347 -0.6535
  500MOL0     H65969   7.495   7.941   6.571 -0.0659 -0.1359  1.1429
  500MOL0     H65970   7.339   7.787   6.709 -0.3319  0.6305 -0.1665
  500MOL0     H65971   7.309   7.703   6.560 -1.9933  0.2886  2.7970
  500MOL0     H65972   7.269   8.002   6.597  1.9093 -1.5009  0.6250
  500MOL0     H65973   7.219   7.912   6.455 -1.3467  1.5806  0.6692
  500MOL0     H65974   7.030   7.953   6.599  1.0486  2.6301  1.7972
  500MOL0     H65975   7.107   7.916   6.737  0.4132  3.7579 -2.2073
  500MOL0     H65976   7.118   7.672   6.674  1.8545  1.3890 -0.9233
  500MOL0     H65977   7.036   7.697   6.520 -1.6392  1.2734 -0.4410
  500MOL0     H65978   6.913   7.745   6.785  3.0925 -1.6596  0.3676
  500MOL0     H65979   6.846   7.809   6.633  0.3445  0.0348  0.6206
  500MOL0     H65980   6.807   7.595   6.550 -0.8488 -1.2794  0.4870
  500MOL0     H65981   6.753   7.598   6.720  0.9778  1.6163  0.8687
  500MOL0     H65982   7.805   7.574   6.611 -1.0003  0.6959 -1.0309
  500MOL0     H65983   8.044   7.560   6.672 -0.8538  0.2588  0.5183
  500MOL0     H65984   8.581   7.967   6.610  2.5868  0.6631  0.1209
  500MOL0     H65985   8.773   7.936   6.751  0.4920 -2.2311  1.3605
  500MOL0     H65986  10.494   7.581   7.129  2.0912 -3.9170  0.5380
  500MOL0     H65987  10.711   7.637   7.062 -0.4286  1.1923  1.1932
  500MOL0     H65988  10.993   7.843   6.822 -0.8951  0.1869 -0.6479
  500MOL0     H65989  11.215   7.916   6.759  0.9819 -1.1590  1.1746
  500MOL0     H65990  11.447   7.951   6.721  0.7191  1.1628 -0.2874
  500MOL0     H65991  11.353   8.000   6.580  1.6108  2.9427  0.4376
  500MOL0     H65992  11.544   7.923   6.433 -0.5144  2.9641 -1.8728
  500MOL0     H65993  11.563   8.069   6.523 -2.9140 -0.3585 -0.7498
  500MOL0     H65994  11.647   7.821   6.661 -0.0494  0.6608  2.1028
  500MOL0     H65995  11.691   7.996   6.693  0.9342 -0.5917 -0.2486
  500MOL0     H65996  11.814   7.984   6.454  2.5288 -0.7966  0.0868
  500MOL0     H65997  11.881   7.922   6.599  0.2692 -0.9044 -0.0646
  500MOL0     H65998  11.838   7.567   6.382 -0.7494 -1.1195  2.3359
  500MOL0     H65999  11.257   7.583   6.483  0.0158 -1.1991  0.7720
  500MOL0     H66000  11.038   7.519   6.535 -0.9743  0.3027  0.1491
  501MOL0     O66001  10.943   3.100   4.991 -0.3293  0.7518 -0.8597
  501MOL0     C66002  10.875   3.132   4.891 -0.6932  0.0684 -0.4076
  501MOL0     O66003  10.758   3.068   4.848 -0.6090 -0.3193 -0.2146
  501MOL0     C66004  10.684   3.000   4.936 -0.2968 -0.3068  0.6937
  501MOL0     C66005  10.674   3.029   5.072 -0.4066  0.0509  0.3407
  501MOL0     C66006  10.580   2.974   5.153  0.6669  0.0604  0.2913
  501MOL0     C66007  10.510   2.864   5.114  0.1022  0.1271  0.3651
  501MOL0     O66008  10.434   2.796   5.206 -0.2200  0.5827  0.6138
  501MOL0     C66009  10.449   2.820   5.353  0.6047  0.1130 -0.3332
  501MOL0     C66010  10.363   2.722   5.431 -0.3295  0.7193 -0.9760
  501MOL0     C66011  10.213   2.699   5.409 -0.3542 -0.4779  0.4393
  501MOL0     C66012  10.150   2.832   5.370  0.4104 -0.3940 -0.2788
  501MOL0     C66013  10.001   2.808   5.334 -0.1973  0.5063  0.0410
  501MOL0     C66014   9.918   2.771   5.463 -0.0731  0.2525 -0.4302
  501MOL0     C66015   9.770   2.746   5.426 -0.0882  0.2242  0.2185
  501MOL0     C66016   9.696   2.675   5.537 -0.1782 -0.6092  1.0408
  501MOL0     N66017   9.567   2.615   5.505  1.0939  0.0282 -0.6537
  501MOL0     C66018   9.531   2.481   5.536 -0.0639 -0.6173 -0.2889
  501MOL0     C66019   9.406   2.465   5.501  0.8927 -0.2824  0.4466
  501MOL0     C66020   9.350   2.328   5.504 -0.2237 -0.4130  0.1865
  501MOL0     C66021   9.196   2.302   5.486 -0.9464 -0.4286  0.7029
  501MOL0     C66022   9.156   2.155   5.526  0.2859  0.0928 -0.1733
  501MOL0     C66023   9.009   2.135   5.535  0.0165  0.4074 -0.6463
  501MOL0     O66024   8.968   2.016   5.608 -1.0803 -0.3418  0.0481
  501MOL0     C66025   8.901   2.033   5.726 -0.2457 -0.4485  0.0059
  501MOL0     C66026   8.923   2.149   5.808  0.1797  0.1459  0.6445
  501MOL0     C66027   8.852   2.171   5.927  0.1691  0.1525 -0.3479
  501MOL0     C66028   8.750   2.079   5.962 -0.2664 -0.8404 -0.5438
  501MOL0     C66029   8.688   2.094   6.091  0.2532  0.0877  0.3401
  501MOL0     O66030   8.561   2.035   6.112 -0.2447 -0.3667 -0.0990
  501MOL0     C66031   8.485   2.048   6.223 -0.4524  0.1694 -0.5338
  501MOL0     C66032   8.359   1.985   6.228 -0.0827 -0.5200 -1.0373
  501MOL0     C66033   8.267   2.008   6.334 -0.0766 -0.4002 -0.7664
  501MOL0     C66034   8.295   2.095   6.434 -0.7323 -0.4141 -0.9380
  501MOL0     O66035   8.213   2.114   6.541 -0.7637 -0.4085 -0.6226
  501MOL0     C66036   8.074   2.073   6.535  0.6152  0.1374 -0.5750
  501MOL0     C66037   7.974   2.137   6.434  0.7492  0.0084  0.1833
  501MOL0     C66038   7.838   2.059   6.450  0.9563 -0.8052  0.1970
  501MOL0     C66039   7.729   2.100   6.352 -0.1469  0.0055  0.2186
  501MOL0     C66040   7.590   2.042   6.390  0.2310 -0.7046  0.4640
  501MOL0     C66041   7.528   2.103   6.511 -0.1452 -0.2353  0.0112
  501MOL0     C66042   7.392   2.042   6.534  1.0989  0.1493 -0.6065
  501MOL0     C66043   7.312   2.102   6.661  0.6811 -0.3862 -0.0848
  501MOL0    Cl66044   7.139   2.074   6.654 -0.0279 -0.1471  0.1327
  501MOL0     C66045   8.419   2.162   6.434  0.4165  0.2018  0.3987
  501MOL0     C66046   8.523   2.125   6.340 -0.0278  0.1747 -0.3156
  501MOL0     O66047   8.748   2.163   6.170  0.0663  0.2624  0.6828
  501MOL0     C66048   8.740   1.964   5.886 -0.3347  0.3762  0.8337
  501MOL0     C66049   8.811   1.942   5.768 -0.8804 -1.1784 -0.2095
  501MOL0     N66050   9.355   2.589   5.466 -0.4456 -0.7311  0.6234
  501MOL0     N66051   9.451   2.678   5.466 -0.0159  0.1748 -0.2902
  501MOL0     C66052  10.502   2.844   4.971  0.5839 -0.3436  0.1554
  501MOL0     C66053  10.597   2.904   4.882  0.2569 -0.0587 -0.3370
  501MOL0     C66054  10.943   3.240   4.799  0.4129 -0.0154 -1.1598
  501MOL0     C66055  10.887   3.281   4.684  0.5425  0.5783 -0.1326
  501MOL0     C66056  10.956   3.352   4.588 -1.4262 -0.3003  0.7240
  501MOL0     C66057  11.087   3.401   4.617  0.8699  0.2736  0.7825
  501MOL0     O66058  11.141   3.497   4.536  0.4978  0.7810  0.7518
  501MOL0     C66059  11.107   3.521   4.395 -1.0953  0.8198 -0.1257
  501MOL0     C66060  11.141   3.392   4.309  0.3285 -0.9550 -0.2781
  501MOL0     C66061  11.036   3.393   4.198  0.3656 -0.3193 -0.4582
  501MOL0     C66062  11.045   3.517   4.105 -0.5143 -0.3577  0.5069
  501MOL0     C66063  11.179   3.534   4.043 -0.2172 -0.0349 -0.2416
  501MOL0     C66064  11.285   3.570   3.992 -0.8763 -0.1973  0.0714
  501MOL0     C66065  11.143   3.362   4.738 -0.4218 -0.1356  0.4224
  501MOL0     C66066  11.072   3.280   4.826 -0.1826  0.1501  0.0422
  501MOL0     H66067  10.744   3.103   5.108 -0.6569  0.8137 -0.6963
  501MOL0     H66068  10.566   3.004   5.256 -1.7776 -1.8142  0.6074
  501MOL0     H66069  10.419   2.922   5.380 -0.6413  0.7219 -3.5507
  501MOL0     H66070  10.554   2.809   5.384  0.1105 -0.8833  1.0670
  501MOL0     H66071  10.380   2.750   5.535 -2.1983  3.0946 -1.2134
  501MOL0     H66072  10.410   2.624   5.416 -0.7185  0.7081 -2.2569
  501MOL0     H66073  10.164   2.646   5.491  0.1014 -4.3817 -1.5877
  501MOL0     H66074  10.215   2.637   5.319 -1.7609  0.7675 -0.5096
  501MOL0     H66075  10.156   2.905   5.452 -0.3474 -0.4191 -0.1980
  501MOL0     H66076  10.200   2.876   5.282 -1.2325 -1.2771 -1.7038
  501MOL0     H66077   9.988   2.721   5.269 -0.0167  0.2675  0.3225
  501MOL0     H66078   9.969   2.902   5.289  0.4388  1.0861  0.7560
  501MOL0     H66079   9.920   2.841   5.546 -0.0784 -2.8159  2.3729
  501MOL0     H66080   9.950   2.679   5.512  2.8898  0.3283 -2.0339
  501MOL0     H66081   9.722   2.843   5.411 -1.3587 -0.6382 -1.7541
  501MOL0     H66082   9.757   2.692   5.332 -1.6587  0.5022  0.2511
  501MOL0     H66083   9.697   2.739   5.626  1.2290 -0.1756  0.7381
  501MOL0     H66084   9.746   2.584   5.573  0.3298 -1.6918 -2.0344
  501MOL0     H66085   9.601   2.401   5.557  1.3637  0.6835  0.1083
  501MOL0     H66086   9.366   2.294   5.607 -0.2833  1.0100  0.6828
  501MOL0     H66087   9.403   2.268   5.430 -0.6700  1.3135 -1.6174
  501MOL0     H66088   9.166   2.324   5.383 -0.2056  0.2706  0.6285
  501MOL0     H66089   9.143   2.375   5.548  0.9297  1.6195  0.0372
  501MOL0     H66090   9.205   2.069   5.480 -2.0753 -2.1385  1.1847
  501MOL0     H66091   9.187   2.166   5.630 -2.1066  5.2835  0.3153
  501MOL0     H66092   8.977   2.138   5.430  1.0215 -2.1771 -1.0882
  501MOL0     H66093   8.975   2.225   5.588 -0.6893 -0.9521  1.3321
  501MOL0     H66094   9.017   2.204   5.797  0.6474 -0.2289  2.5183
  501MOL0     H66095   8.896   2.236   6.002  3.2590 -3.0264  0.8609
  501MOL0     H66096   8.336   1.911   6.152 -0.6317  0.2737 -1.6680
  501MOL0     H66097   8.172   1.956   6.336 -0.7533  0.7549  1.2237
  501MOL0     H66098   8.034   2.091   6.635 -0.6173 -0.5122 -0.9313
  501MOL0     H66099   8.070   1.964   6.530  0.8498 -0.0446  2.0110
  501MOL0     H66100   8.008   2.137   6.330  2.1646 -2.0766  0.5821
  501MOL0     H66101   7.958   2.241   6.465  1.2471 -0.0609  0.6906
  501MOL0     H66102   7.797   2.076   6.550 -3.2156 -0.0858 -1.4612
  501MOL0     H66103   7.856   1.951   6.458 -0.6231 -1.1831 -1.0363
  501MOL0     H66104   7.712   2.207   6.339  2.2629  0.1577 -2.7529
  501MOL0     H66105   7.760   2.057   6.257  3.6784  0.3470  1.1311
  501MOL0     H66106   7.602   1.933   6.402  0.2958 -1.3502 -3.8553
  501MOL0     H66107   7.524   2.053   6.304  1.4977 -0.9054 -0.5548
  501MOL0     H66108   7.515   2.210   6.494 -0.5031  0.4956  3.9419
  501MOL0     H66109   7.594   2.084   6.596  0.2153  0.3345 -0.1394
  501MOL0     H66110   7.321   2.053   6.451 -0.7178  0.7878  0.9579
  501MOL0     H66111   7.412   1.935   6.531 -0.7482 -0.1990 -1.6802
  501MOL0     H66112   7.324   2.211   6.667 -4.7503  0.5996 -1.5178
  501MOL0     H66113   7.361   2.063   6.751 -0.5017 -0.2762  0.6321
  501MOL0     H66114   8.433   2.244   6.504 -0.6984 -0.4353  1.4020
  501MOL0     H66115   8.617   2.179   6.343  1.7165 -2.6464 -0.4362
  501MOL0     H66116   8.666   1.887   5.908 -2.6172  1.6455 -1.8027
  501MOL0     H66117   8.791   1.854   5.707 -1.3426 -0.4137 -1.1878
  501MOL0     H66118  10.442   2.767   4.924  2.5487 -0.2636 -2.7769
  501MOL0     H66119  10.585   2.882   4.777  1.3330 -0.0159 -0.4788
  501MOL0     H66120  10.784   3.259   4.658 -0.2187  1.6186  1.7710
  501MOL0     H66121  10.900   3.374   4.498  0.5913  0.5133 -0.4094
  501MOL0     H66122  11.174   3.604   4.372  1.3246 -1.6379 -2.7142
  501MOL0     H66123  11.002   3.550   4.381 -1.1396 -0.2121 -2.4370
  501MOL0     H66124  11.243   3.400   4.270 -0.4959  1.4626 -2.1717
  501MOL0     H66125  11.124   3.300   4.366 -2.2826 -1.8559 -2.2839
  501MOL0     H66126  10.931   3.399   4.229 -0.2300  0.5608 -2.4354
  501MOL0     H66127  11.049   3.296   4.149  0.6402 -0.3246 -0.3755
  501MOL0     H66128  10.970   3.499   4.028 -0.5491 -0.1604  0.4929
  501MOL0     H66129  11.015   3.607   4.160 -1.3270 -0.9317  1.0316
  501MOL0     H66130  11.360   3.616   3.931 -1.5856  1.9346  0.7579
  501MOL0     H66131  11.245   3.398   4.752 -0.7359  0.1776  2.1071
  501MOL0     H66132  11.129   3.245   4.912 -0.7343 -0.1436  0.2906
  502MOL0     O66133   6.571   6.109   1.065  0.4793  0.4120  0.4814
  502MOL0     C66134   6.644   6.035   1.125 -0.2459  0.2032 -0.2295
  502MOL0     O66135   6.607   5.950   1.224  0.3372  0.2594  0.3192
  502MOL0     C66136   6.486   5.989   1.286 -0.6140 -0.5435 -0.2594
  502MOL0     C66137   6.501   6.073   1.401 -0.5152 -0.2041  0.4255
  502MOL0     C66138   6.382   6.115   1.464  0.0840  0.4946 -0.7975
  502MOL0     C66139   6.257   6.076   1.426  0.3311  0.6284  0.2545
  502MOL0     O66140   6.150   6.130   1.489 -0.4254  0.5726 -0.5067
  502MOL0     C66141   6.022   6.062   1.502  0.5523 -0.4607 -1.0014
  502MOL0     C66142   5.929   6.151   1.584 -0.0841  0.0508  0.6338
  502MOL0     C66143   5.808   6.073   1.627  0.3581  0.0131 -0.3487
  502MOL0     C66144   5.709   6.184   1.686 -0.4748  0.7779  0.9114
  502MOL0     C66145   5.583   6.105   1.725  0.0892 -0.1583  0.1273
  502MOL0     C66146   5.505   6.196   1.820  0.3310  0.3161  1.2520
  502MOL0     C66147   5.378   6.127   1.882  0.5440 -0.1590  0.8556
  502MOL0     C66148   5.312   6.217   1.984  0.5067 -0.5192  0.8160
  502MOL0     N66149   5.231   6.147   2.075 -0.0524  0.5725  0.5950
  502MOL0     C66150   5.219   6.161   2.209  0.1992  0.2057 -0.7919
  502MOL0     C66151   5.112   6.088   2.254  0.7278  0.0238  0.0724
  502MOL0     C66152   5.065   6.070   2.395 -1.1420 -0.0647 -0.1847
  502MOL0     C66153   4.918   6.022   2.391  0.5149 -0.1396 -0.7025
  502MOL0     C66154   4.878   6.002   2.538  0.2869 -0.5274 -0.4358
  502MOL0     C66155   4.742   5.932   2.556  0.0778  0.1769 -0.6347
  502MOL0     O66156   4.688   5.934   2.690  0.4614  0.5635  0.6976
  502MOL0     C66157   4.565   5.875   2.727 -0.6002 -0.7815 -1.0561
  502MOL0     C66158   4.478   5.812   2.633  0.0805  0.1724  0.3988
  502MOL0     C66159   4.348   5.774   2.667 -0.2710  0.0642  0.0409
  502MOL0     C66160   4.309   5.795   2.800  0.0480  0.9187  0.8070
  502MOL0     C66161   4.177   5.748   2.848  0.3840  0.5992 -0.7402
  502MOL0     O66162   4.084   5.716   2.755 -0.0787 -0.1249 -0.0210
  502MOL0     C66163   3.962   5.685   2.800 -0.3033 -0.2179 -0.4481
  502MOL0     C66164   3.936   5.546   2.832 -1.1204 -0.4524 -0.2897
  502MOL0     C66165   3.814   5.506   2.877 -0.1750 -0.2853  0.6019
  502MOL0     C66166   3.712   5.602   2.881  0.5296 -0.1605  0.8280
  502MOL0     O66167   3.579   5.585   2.907 -0.1324  0.7083  0.8917
  502MOL0     C66168   3.549   5.495   3.013 -0.0944  0.7169  0.2205
  502MOL0     C66169   3.420   5.538   3.088  0.9906  0.3093 -0.1277
  502MOL0     C66170   3.287   5.513   3.008  0.2375 -0.1379  0.3292
  502MOL0     C66171   3.178   5.587   3.103  0.8390  0.6426 -0.3163
  502MOL0     C66172   3.032   5.565   3.057 -0.8221 -0.2358 -0.2473
  502MOL0     C66173   2.933   5.662   3.122  0.5227  0.5360 -0.0928
  502MOL0     C66174   2.811   5.677   3.042 -0.9696 -0.6252  0.2281
  502MOL0     C66175   2.812   5.809   2.949 -0.4215 -0.1539  0.4291
  502MOL0    Cl66176   2.911   5.799   2.793  0.3558 -0.1961  0.0386
  502MOL0     C66177   3.736   5.741   2.857  1.0679 -0.3183  0.0645
  502MOL0     C66178   3.855   5.777   2.812 -0.8838 -0.1441 -0.1859
  502MOL0     O66179   4.158   5.753   2.975  0.3070 -1.0438  0.2645
  502MOL0     C66180   4.402   5.842   2.893 -0.3670 -0.0620 -0.3554
  502MOL0     C66181   4.526   5.889   2.860 -0.7392  0.1551 -0.9237
  502MOL0     N66182   5.065   6.023   2.144 -0.4976 -0.2616 -0.1805
  502MOL0     N66183   5.138   6.052   2.040  0.6413 -0.3908  0.0629
  502MOL0     C66184   6.242   5.995   1.308 -0.5211  0.4307  0.4742
  502MOL0     C66185   6.359   5.960   1.236 -0.1076 -0.0133  0.1947
  502MOL0     C66186   6.790   6.025   1.084  0.2389  0.0352 -0.0922
  502MOL0     C66187   6.882   5.926   1.129  0.3152  0.9259 -0.7725
  502MOL0     C66188   7.008   5.925   1.070 -0.9992  0.5612  0.1373
  502MOL0     C66189   7.048   6.016   0.977 -0.4527  0.3781 -0.4807
  502MOL0     O66190   7.181   6.015   0.937  0.1054  0.2428  0.0702
  502MOL0     C66191   7.235   6.089   0.821 -0.2016  0.3556  0.1400
  502MOL0     C66192   7.325   5.999   0.746  0.2509 -0.5094  0.7290
  502MOL0     C66193   7.434   5.947   0.845 -0.6094 -0.3283 -0.1272
  502MOL0     C66194   7.567   5.913   0.783  0.0046  0.8244 -0.4407
  502MOL0     C66195   7.590   5.768   0.776 -0.1592 -0.4123  0.4045
  502MOL0     C66196   7.610   5.648   0.780 -0.0305 -0.5537 -0.5960
  502MOL0     C66197   6.969   6.120   0.945 -0.1764  0.3617 -0.6500
  502MOL0     C66198   6.845   6.128   1.002  0.2710  0.4599  0.6344
  502MOL0     H66199   6.603   6.087   1.433  0.4475 -2.3709 -1.4025
  502MOL0     H66200   6.396   6.182   1.548  2.5015 -1.4968  0.5504
  502MOL0     H66201   6.033   5.965   1.552 -0.6250 -0.9678 -1.6924
  502MOL0     H66202   5.972   6.051   1.405 -1.3349 -0.2825 -0.0817
  502MOL0     H66203   5.897   6.232   1.517  0.2003  0.4585  0.9877
  502MOL0     H66204   5.981   6.195   1.669 -0.7091  2.7098 -0.2721
  502MOL0     H66205   5.834   6.004   1.708 -0.0132 -2.2171 -2.0117
  502MOL0     H66206   5.768   6.018   1.541 -2.7888 -1.3898  1.8144
  502MOL0     H66207   5.755   6.235   1.771  1.3860 -1.0543  1.1143
  502MOL0     H66208   5.688   6.252   1.603  0.1066  1.3610  1.2326
  502MOL0     H66209   5.609   6.021   1.789  1.2346 -1.4808 -1.9836
  502MOL0     H66210   5.526   6.072   1.637 -0.4165  0.6163  0.1467
  502MOL0     H66211   5.483   6.290   1.769 -0.9371  1.4318  3.6921
  502MOL0     H66212   5.581   6.227   1.891  0.7428  0.3095  0.8177
  502MOL0     H66213   5.320   6.126   1.790  3.7994 -1.0212 -1.3847
  502MOL0     H66214   5.395   6.027   1.925  0.5470 -0.9428 -0.8765
  502MOL0     H66215   5.241   6.283   1.934  0.9274 -1.1575 -0.6761
  502MOL0     H66216   5.388   6.278   2.032 -0.8118  0.9921  1.0688
  502MOL0     H66217   5.285   6.212   2.279  1.0996 -1.0835 -0.6572
  502MOL0     H66218   5.087   6.157   2.457  4.4300  0.7873 -2.7094
  502MOL0     H66219   5.124   5.996   2.449  0.1240  0.9839 -0.1022
  502MOL0     H66220   4.913   5.925   2.341  1.9298 -0.8509  0.4522
  502MOL0     H66221   4.848   6.091   2.343  1.1410  0.2358 -1.0735
  502MOL0     H66222   4.954   5.966   2.607  0.9257  1.1036 -0.2450
  502MOL0     H66223   4.854   6.100   2.579  2.0786 -1.5673  3.5814
  502MOL0     H66224   4.737   5.833   2.510 -1.4336  0.5470 -1.3172
  502MOL0     H66225   4.667   5.990   2.502  0.0281  0.9466  0.2321
  502MOL0     H66226   4.500   5.797   2.528 -0.5673  1.2363  0.0994
  502MOL0     H66227   4.279   5.722   2.602 -1.1385  0.9800  0.1981
  502MOL0     H66228   4.016   5.473   2.822 -1.3416 -0.9250  1.1565
  502MOL0     H66229   3.789   5.405   2.910 -3.5197  0.5305  1.0084
  502MOL0     H66230   3.630   5.494   3.087 -0.7042 -1.6973  0.9300
  502MOL0     H66231   3.526   5.394   2.980  0.0530  1.1803 -1.3523
  502MOL0     H66232   3.442   5.645   3.099  3.3784 -0.1609  0.2804
  502MOL0     H66233   3.413   5.478   3.179 -1.0284 -0.6189 -0.8345
  502MOL0     H66234   3.256   5.410   2.990  0.8184 -0.4945  1.3097
  502MOL0     H66235   3.295   5.573   2.916  2.1117  0.7864  1.0573
  502MOL0     H66236   3.189   5.546   3.203  0.2556 -0.7524 -0.8092
  502MOL0     H66237   3.195   5.695   3.107  0.5331  0.7223 -1.0329
  502MOL0     H66238   2.993   5.464   3.072 -1.5195 -0.0275 -0.6047
  502MOL0     H66239   3.023   5.585   2.950 -3.5680  2.0691  0.2963
  502MOL0     H66240   2.982   5.759   3.134  0.2907  0.6108  0.2978
  502MOL0     H66241   2.899   5.628   3.220  0.5569  1.4202  0.2348
  502MOL0     H66242   2.780   5.592   2.980  0.2947 -0.2270 -1.0069
  502MOL0     H66243   2.736   5.692   3.120 -0.0351 -1.4145  1.3006
  502MOL0     H66244   2.842   5.896   3.007 -0.2847  1.0518 -1.3814
  502MOL0     H66245   2.709   5.837   2.925 -0.4794  0.2923  1.1979
  502MOL0     H66246   3.655   5.811   2.873  1.5686  0.1990  0.3645
  502MOL0     H66247   3.869   5.883   2.791 -1.2272  0.0630  0.6106
  502MOL0     H66248   4.377   5.846   2.998  2.1546 -2.8966  0.5068
  502MOL0     H66249   4.591   5.941   2.930  0.6505  2.3189 -3.6039
  502MOL0     H66250   6.149   5.966   1.259  0.0770 -1.6009  0.4247
  502MOL0     H66251   6.352   5.898   1.147  0.1894 -0.7034  0.6423
  502MOL0     H66252   6.857   5.856   1.208 -1.3934  2.9702  0.6045
  502MOL0     H66253   7.073   5.840   1.089 -1.5993  0.6369  2.8398
  502MOL0     H66254   7.288   6.177   0.857 -0.3559 -1.1122  4.5712
  502MOL0     H66255   7.147   6.116   0.761  0.2935  0.0515 -0.7400
  502MOL0     H66256   7.264   5.926   0.691 -1.3696  0.5469  1.0291
  502MOL0     H66257   7.371   6.059   0.668 -0.1648 -1.0889  0.0156
  502MOL0     H66258   7.388   5.865   0.902 -2.1541  0.0447 -0.7799
  502MOL0     H66259   7.462   6.030   0.911  1.2116 -0.8927 -0.1574
  502MOL0     H66260   7.571   5.956   0.682  0.6939 -1.6879 -1.5560
  502MOL0     H66261   7.649   5.948   0.847 -1.0386 -1.4567  2.3273
  502MOL0     H66262   7.615   5.541   0.786 -0.9467 -0.5657  0.1245
  502MOL0     H66263   7.002   6.211   0.896 -2.3789  1.1974 -0.6867
  502MOL0     H66264   6.785   6.214   0.974  1.5191  0.6541 -1.6186
  503MOL0     O66265  11.030   5.188   1.719  0.4824  0.0001 -0.5641
  503MOL0     C66266  11.093   5.196   1.821  0.0963 -0.9971  0.6401
  503MOL0     O66267  11.073   5.290   1.924  0.5848 -0.2992 -0.0790
  503MOL0     C66268  10.974   5.389   1.899 -0.7595 -0.0183  0.5475
  503MOL0     C66269  10.852   5.377   1.963  0.5529  0.0139 -0.6105
  503MOL0     C66270  10.751   5.470   1.939  0.1150  0.2703 -0.7036
  503MOL0     C66271  10.768   5.575   1.844 -0.6011  0.5767 -0.1478
  503MOL0     O66272  10.680   5.675   1.831  0.3135  0.2077 -0.5045
  503MOL0     C66273  10.547   5.629   1.801  0.1597 -0.5036 -0.1643
  503MOL0     C66274  10.456   5.751   1.771  0.0769  0.3819 -0.2642
  503MOL0     C66275  10.340   5.743   1.870 -0.2984 -0.5968 -0.3389
  503MOL0     C66276  10.219   5.824   1.816 -0.6989 -0.7310 -0.3735
  503MOL0     C66277  10.103   5.831   1.913 -0.0516 -0.6831 -0.3666
  503MOL0     C66278   9.991   5.929   1.862 -0.1852 -0.3748  0.5202
  503MOL0     C66279   9.864   5.905   1.933 -0.5217  0.2472 -0.3824
  503MOL0     C66280   9.773   6.028   1.928 -0.0131 -0.7246 -0.3050
  503MOL0     N66281   9.631   6.001   1.969 -0.0553 -0.0635 -0.6126
  503MOL0     C66282   9.581   5.883   2.021 -0.1032  0.0614  1.2035
  503MOL0     C66283   9.445   5.908   2.025  0.0322 -0.9064 -0.3633
  503MOL0     C66284   9.339   5.826   2.087  0.0698  0.4314  0.2230
  503MOL0     C66285   9.267   5.894   2.197  0.6303  1.1131  0.0501
  503MOL0     C66286   9.147   5.991   2.142 -0.5626 -0.5545 -0.4903
  503MOL0     C66287   9.018   6.005   2.228 -0.0193  0.3567  0.2149
  503MOL0     O66288   8.946   5.883   2.232  0.5228 -1.0805 -0.7348
  503MOL0     C66289   8.809   5.883   2.225 -0.5483  0.4634  1.5856
  503MOL0     C66290   8.749   5.825   2.105 -0.1267 -0.4365  0.4915
  503MOL0     C66291   8.613   5.819   2.100  0.8616 -0.5244 -0.7113
  503MOL0     C66292   8.533   5.867   2.203 -0.0664  0.0702  0.1974
  503MOL0     C66293   8.386   5.854   2.184  0.8108  0.0179 -0.4817
  503MOL0     O66294   8.344   5.761   2.093  0.0243 -0.0039  0.5220
  503MOL0     C66295   8.208   5.731   2.092 -0.3541 -0.9851  0.4349
  503MOL0     C66296   8.107   5.825   2.074  0.2107 -0.3961  0.1348
  503MOL0     C66297   7.976   5.791   2.059  0.6443 -0.5558  1.0192
  503MOL0     C66298   7.932   5.657   2.062  0.1408 -0.2558 -0.6222
  503MOL0     O66299   7.801   5.642   2.021 -0.3017  0.0921  0.0974
  503MOL0     C66300   7.761   5.504   1.995 -0.3687 -0.7250 -0.2616
  503MOL0     C66301   7.625   5.486   1.957 -0.4605  0.7052  0.3536
  503MOL0     C66302   7.538   5.558   2.058 -0.3720 -0.1015  0.7589
  503MOL0     C66303   7.387   5.545   2.029 -0.6483  0.5947 -0.6825
  503MOL0     C66304   7.309   5.610   2.139  1.0610 -0.9800 -0.9164
  503MOL0     C66305   7.158   5.583   2.114 -0.0950  0.0320  0.4021
  503MOL0     C66306   7.072   5.613   2.236  0.7146  0.2808 -0.7174
  503MOL0     C66307   6.926   5.596   2.201  0.2753  0.6789  0.5983
  503MOL0    Cl66308   6.906   5.728   2.080 -0.0771 -0.2251  0.2892
  503MOL0     C66309   8.025   5.558   2.083 -0.3643  0.7509  0.4266
  503MOL0     C66310   8.161   5.594   2.098 -0.5412  0.3996 -0.5287
  503MOL0     O66311   8.320   5.888   2.284 -0.8089  0.1837 -0.0456
  503MOL0     C66312   8.591   5.918   2.321  1.0929  0.1648  0.5772
  503MOL0     C66313   8.731   5.918   2.333  0.0052 -0.4518  0.7862
  503MOL0     N66314   9.418   6.034   1.982 -0.3506 -0.1073 -0.3908
  503MOL0     N66315   9.531   6.093   1.944  0.0568  0.8007 -0.2681
  503MOL0     C66316  10.894   5.588   1.791 -0.2037 -0.7338 -0.3071
  503MOL0     C66317  10.997   5.494   1.812 -0.4265 -0.2879  0.1877
  503MOL0     C66318  11.193   5.093   1.856 -0.7202 -0.4721 -0.4681
  503MOL0     C66319  11.230   5.069   1.989 -0.1573 -0.9144 -0.4002
  503MOL0     C66320  11.334   4.972   2.016  0.5106  0.9222  0.3393
  503MOL0     C66321  11.394   4.902   1.914 -0.2797 -0.0583  0.5767
  503MOL0     O66322  11.493   4.815   1.957 -0.3268  0.0996  0.2639
  503MOL0     C66323  11.566   4.736   1.861  0.4531 -0.6409 -0.3910
  503MOL0     C66324  11.674   4.662   1.927  0.4624  0.2983 -0.1122
  503MOL0     C66325  11.799   4.608   1.854  0.3041 -0.5365  0.0723
  503MOL0     C66326  11.887   4.521   1.946  0.4417 -0.1564  1.2013
  503MOL0     C66327  11.958   4.596   2.047 -0.0257  0.7585  0.4037
  503MOL0     C66328  12.027   4.652   2.133  0.0046  0.7138 -1.4725
  503MOL0     C66329  11.359   4.937   1.778 -0.0450  0.1527 -0.6119
  503MOL0     C66330  11.264   5.028   1.749  0.5350 -0.1018  0.1250
  503MOL0     H66331  10.846   5.298   2.036 -0.5701 -0.3597 -1.0863
  503MOL0     H66332  10.661   5.470   2.000  1.1346  0.1367  0.8517
  503MOL0     H66333  10.518   5.574   1.891  0.6939  0.7303  0.7899
  503MOL0     H66334  10.548   5.559   1.717 -0.1130  0.2591 -0.8136
  503MOL0     H66335  10.421   5.757   1.667 -2.3643  2.3327  0.5682
  503MOL0     H66336  10.524   5.835   1.788  1.9667 -1.4756  2.0452
  503MOL0     H66337  10.371   5.789   1.964 -0.6896  0.1152 -0.5521
  503MOL0     H66338  10.307   5.642   1.898  2.4084 -0.7505  2.9372
  503MOL0     H66339  10.258   5.925   1.804  0.4037 -0.9455  1.0075
  503MOL0     H66340  10.187   5.781   1.721 -0.0174 -0.8483 -0.5589
  503MOL0     H66341  10.137   5.867   2.011 -2.9184  1.6991 -0.0900
  503MOL0     H66342  10.068   5.728   1.925  1.4781 -1.1823  0.0024
  503MOL0     H66343   9.974   5.915   1.754 -2.9005 -1.1154  0.9522
  503MOL0     H66344  10.028   6.031   1.870  0.2931 -0.3847 -1.0737
  503MOL0     H66345   9.812   5.816   1.896 -3.9758  1.1136  1.9765
  503MOL0     H66346   9.886   5.895   2.040 -2.0142 -3.1410 -0.2838
  503MOL0     H66347   9.769   6.063   1.824  2.5824  1.8627  0.3377
  503MOL0     H66348   9.815   6.113   1.982  1.8794 -0.1620 -2.4748
  503MOL0     H66349   9.631   5.792   2.051 -1.1270 -1.3025 -0.9932
  503MOL0     H66350   9.390   5.745   2.139 -2.3644 -2.1706 -1.0951
  503MOL0     H66351   9.266   5.777   2.020  0.4142 -0.3292  0.3885
  503MOL0     H66352   9.333   5.940   2.271  1.4716 -1.0487  0.7116
  503MOL0     H66353   9.226   5.805   2.245 -0.0429  0.4263 -1.7020
  503MOL0     H66354   9.196   6.087   2.127  1.1242 -1.4302 -0.9454
  503MOL0     H66355   9.114   5.941   2.050  3.5462 -0.5233 -2.2042
  503MOL0     H66356   8.954   6.078   2.178  0.0903  0.2659 -0.0626
  503MOL0     H66357   9.051   6.030   2.330  0.9806 -1.9474  0.5147
  503MOL0     H66358   8.814   5.783   2.029 -0.5220  1.8785 -1.2322
  503MOL0     H66359   8.561   5.774   2.016  0.1997  0.0840 -0.6356
  503MOL0     H66360   8.122   5.930   2.053  0.2737 -0.2174  1.0243
  503MOL0     H66361   7.899   5.864   2.035  0.8735 -0.3720  0.8439
  503MOL0     H66362   7.776   5.459   2.093 -0.5072  0.8498  0.5198
  503MOL0     H66363   7.819   5.451   1.919 -2.0545 -1.3214 -1.1929
  503MOL0     H66364   7.612   5.378   1.946  0.5971  0.8079 -3.3333
  503MOL0     H66365   7.619   5.539   1.862  0.5391  1.0478  0.4649
  503MOL0     H66366   7.563   5.664   2.066  0.3460 -0.3717  2.5459
  503MOL0     H66367   7.549   5.519   2.160 -2.8944 -1.7125  0.5229
  503MOL0     H66368   7.370   5.583   1.928  1.2722 -1.3010 -1.8030
  503MOL0     H66369   7.364   5.438   2.033 -1.4047  0.7517 -0.6541
  503MOL0     H66370   7.330   5.717   2.147 -0.1238 -0.8588  1.5669
  503MOL0     H66371   7.342   5.559   2.230 -0.6457 -0.6502 -0.0617
  503MOL0     H66372   7.151   5.475   2.098  2.4380 -0.7159  3.3782
  503MOL0     H66373   7.131   5.633   2.021  1.2857  1.1248  0.5554
  503MOL0     H66374   7.100   5.549   2.321  0.0515  0.1801 -0.5736
  503MOL0     H66375   7.087   5.715   2.274 -3.1863 -0.1575  2.6656
  503MOL0     H66376   6.852   5.605   2.281 -0.2618  0.6536  0.1166
  503MOL0     H66377   6.905   5.498   2.157 -3.5248  0.3023  2.7699
  503MOL0     H66378   7.996   5.454   2.083  0.2866  0.5632  0.3859
  503MOL0     H66379   8.236   5.518   2.116 -0.0039  0.7509 -1.2251
  503MOL0     H66380   8.544   5.973   2.401  1.8579  2.1244 -0.2739
  503MOL0     H66381   8.777   5.976   2.413 -0.8951  1.0409  0.2569
  503MOL0     H66382  10.900   5.685   1.743 -0.4138  0.8990  2.7398
  503MOL0     H66383  11.094   5.501   1.764  1.7216 -1.7555  3.8959
  503MOL0     H66384  11.185   5.116   2.076  2.9916  1.6692 -0.0012
  503MOL0     H66385  11.372   4.950   2.115  0.9344 -3.0048 -0.5351
  503MOL0     H66386  11.623   4.803   1.795  0.4926 -0.3204 -0.0362
  503MOL0     H66387  11.504   4.667   1.802  1.3271 -0.9175 -1.0135
  503MOL0     H66388  11.730   4.724   1.996  0.9134  0.1231 -0.3163
  503MOL0     H66389  11.643   4.567   1.972  1.8323 -0.7381 -1.2777
  503MOL0     H66390  11.868   4.688   1.827  0.5144 -1.1812 -1.3997
  503MOL0     H66391  11.774   4.541   1.771 -1.2965 -3.1937  2.4949
  503MOL0     H66392  11.828   4.442   1.994  0.0969  0.2923  1.5285
  503MOL0     H66393  11.962   4.461   1.893 -2.1117 -1.7259 -0.8599
  503MOL0     H66394  12.085   4.698   2.210 -1.6347 -0.4316  0.5561
  503MOL0     H66395  11.408   4.883   1.697  0.3817 -0.9689  0.3591
  503MOL0     H66396  11.234   5.054   1.648 -2.7002 -0.1633  0.9362
  504MOL0     O66397   6.600   6.692   1.265  0.1392  0.4443 -0.0190
  504MOL0     C66398   6.557   6.577   1.285 -0.7518 -0.2024 -0.6162
  504MOL0     O66399   6.632   6.459   1.286 -0.3977 -0.4379  0.0110
  504MOL0     C66400   6.767   6.479   1.243 -0.6335 -0.0906 -0.3970
  504MOL0     C66401   6.805   6.534   1.114 -0.2898  0.8411  0.7772
  504MOL0     C66402   6.934   6.524   1.065  0.0332  0.6770  0.6363
  504MOL0     C66403   7.026   6.462   1.137  0.1917  0.8355  0.2379
  504MOL0     O66404   7.156   6.476   1.094 -0.2358 -0.4009 -0.2644
  504MOL0     C66405   7.246   6.369   1.111  0.4419  0.2869  0.1969
  504MOL0     C66406   7.368   6.387   1.024  0.6410  0.0078 -0.9020
  504MOL0     C66407   7.478   6.290   1.069  0.4365 -0.1578  0.0059
  504MOL0     C66408   7.611   6.304   1.004 -0.6477 -0.4496 -0.1691
  504MOL0     C66409   7.590   6.302   0.846 -0.8048 -0.3639 -0.0733
  504MOL0     C66410   7.731   6.293   0.777  0.1936 -0.4517 -0.0747
  504MOL0     C66411   7.712   6.241   0.635  0.2314 -0.2623 -0.3675
  504MOL0     C66412   7.845   6.229   0.564 -0.5306 -0.0300 -0.3513
  504MOL0     N66413   7.940   6.155   0.641  0.1578 -0.0297 -0.3093
  504MOL0     C66414   8.042   6.208   0.711 -0.7019  0.2105  0.3878
  504MOL0     C66415   8.093   6.112   0.794  0.1317 -0.7353  0.0890
  504MOL0     C66416   8.224   6.136   0.868  0.9588 -0.2553  0.5045
  504MOL0     C66417   8.225   6.067   1.006  0.2052 -0.1717  0.1800
  504MOL0     C66418   8.133   6.153   1.094 -0.6337  0.1951 -0.0737
  504MOL0     C66419   8.118   6.100   1.243 -0.2323 -0.2885  0.5979
  504MOL0     O66420   8.039   6.193   1.317 -0.5708  0.2943  0.5670
  504MOL0     C66421   7.900   6.182   1.308 -0.5439 -0.9557  0.3617
  504MOL0     C66422   7.839   6.065   1.245  0.6477 -0.6176 -0.5025
  504MOL0     C66423   7.694   6.053   1.258 -0.2789 -1.5931 -0.4039
  504MOL0     C66424   7.616   6.133   1.344 -0.3930 -0.0294  0.5568
  504MOL0     C66425   7.473   6.105   1.358  0.4142  0.0780 -0.2074
  504MOL0     O66426   7.403   6.215   1.380 -0.1954 -0.1826 -0.0048
  504MOL0     C66427   7.275   6.188   1.430 -0.1292 -0.4163  0.9071
  504MOL0     C66428   7.241   6.243   1.557  0.3936  0.5976 -0.0892
  504MOL0     C66429   7.121   6.222   1.611  0.3906 -0.5500  0.0134
  504MOL0     C66430   7.016   6.159   1.540 -0.0664  0.5453  0.2362
  504MOL0     O66431   6.881   6.143   1.576  0.6095  0.3750 -1.1111
  504MOL0     C66432   6.833   6.203   1.698 -0.2346 -0.1866 -0.5376
  504MOL0     C66433   6.681   6.217   1.692  0.2616  0.5099 -0.2849
  504MOL0     C66434   6.620   6.270   1.821  0.3370  0.1587  0.2205
  504MOL0     C66435   6.471   6.278   1.811 -0.3238 -0.7177  0.1312
  504MOL0     C66436   6.417   6.334   1.938  0.0303  0.3151 -1.0231
  504MOL0     C66437   6.264   6.329   1.965  0.2431 -0.1314 -0.5600
  504MOL0     C66438   6.182   6.438   1.887 -0.6025  0.8074  0.6524
  504MOL0     C66439   6.038   6.427   1.906  0.1707  0.0025  0.1762
  504MOL0    Cl66440   5.986   6.510   2.065 -0.3936 -0.2424 -0.2407
  504MOL0     C66441   7.053   6.106   1.415 -0.3426  0.4226  0.0504
  504MOL0     C66442   7.179   6.115   1.359  0.2913  0.2641  0.1829
  504MOL0     O66443   7.429   5.987   1.351  0.1844  0.4208  0.8940
  504MOL0     C66444   7.678   6.254   1.394 -0.2358 -0.1177  0.2731
  504MOL0     C66445   7.820   6.275   1.385  0.2484 -0.8003  0.5485
  504MOL0     N66446   8.021   5.996   0.760 -0.1612  0.7480  0.5839
  504MOL0     N66447   7.937   6.024   0.671  0.4296  0.2317 -0.3678
  504MOL0     C66448   6.994   6.399   1.260  0.7497 -0.6333  0.2369
  504MOL0     C66449   6.868   6.401   1.306 -0.3991 -0.7305 -0.4671
  504MOL0     C66450   6.418   6.565   1.341 -0.1342  1.1825  0.4441
  504MOL0     C66451   6.344   6.678   1.366  0.4848 -0.1942 -0.2443
  504MOL0     C66452   6.223   6.665   1.436 -0.4038  0.0038  0.2698
  504MOL0     C66453   6.177   6.546   1.482 -0.2257  0.3793  0.7801
  504MOL0     O66454   6.065   6.533   1.559 -0.4620 -0.1521 -0.1721
  504MOL0     C66455   5.959   6.631   1.546 -0.1418 -0.5810  0.2559
  504MOL0     C66456   5.829   6.558   1.585 -0.3874  0.4639  0.9433
  504MOL0     C66457   5.709   6.634   1.622  0.2952 -0.3004 -0.7961
  504MOL0     C66458   5.591   6.543   1.631  0.1757  0.2923 -0.2237
  504MOL0     C66459   5.464   6.616   1.652 -0.3583  0.0444 -1.1489
  504MOL0     C66460   5.366   6.678   1.676 -0.5540 -0.5260  0.5442
  504MOL0     C66461   6.236   6.432   1.437 -0.4783  0.1103 -0.4712
  504MOL0     C66462   6.362   6.441   1.374 -0.5108  0.3784  0.3331
  504MOL0     H66463   6.719   6.579   1.065 -0.1706 -0.5559 -0.8014
  504MOL0     H66464   6.962   6.579   0.975 -2.0716  5.1979  2.4232
  504MOL0     H66465   7.203   6.274   1.078  0.6140  0.5445 -0.7857
  504MOL0     H66466   7.265   6.364   1.219 -1.2260  2.7386  0.6910
  504MOL0     H66467   7.403   6.490   1.039  0.4747 -0.3196  2.7071
  504MOL0     H66468   7.336   6.374   0.920 -1.6596 -3.3456  0.0739
  504MOL0     H66469   7.438   6.190   1.053 -1.2069  0.6644 -1.3745
  504MOL0     H66470   7.492   6.314   1.175 -0.9902  0.3458  0.0990
  504MOL0     H66471   7.669   6.387   1.046  0.9213 -3.3016  3.8955
  504MOL0     H66472   7.669   6.218   1.038 -1.7005 -0.1262  2.7310
  504MOL0     H66473   7.543   6.398   0.821 -0.2073 -0.0140  0.1071
  504MOL0     H66474   7.532   6.215   0.816 -1.1141  0.4284 -1.8756
  504MOL0     H66475   7.789   6.215   0.827 -0.3388 -2.4932 -2.4557
  504MOL0     H66476   7.783   6.389   0.778  0.9083 -0.8391 -0.0731
  504MOL0     H66477   7.658   6.146   0.640 -2.3120  1.1129 -0.3021
  504MOL0     H66478   7.650   6.311   0.579  2.4211 -0.4347 -3.2608
  504MOL0     H66479   7.887   6.328   0.545  1.8728 -0.9452 -0.1873
  504MOL0     H66480   7.830   6.183   0.466  1.5710 -2.1243  0.2097
  504MOL0     H66481   8.077   6.309   0.694 -2.4502  0.7461 -0.1854
  504MOL0     H66482   8.245   6.243   0.866 -1.5638  0.3179 -1.8661
  504MOL0     H66483   8.302   6.087   0.810  2.5241  1.4794  1.0392
  504MOL0     H66484   8.329   6.076   1.039 -0.2700 -0.0297  1.7379
  504MOL0     H66485   8.194   5.962   1.007 -0.1266 -0.0973 -0.9627
  504MOL0     H66486   8.157   6.260   1.087 -4.0003  1.2702  2.2244
  504MOL0     H66487   8.032   6.147   1.052 -0.2620 -0.9086 -0.8611
  504MOL0     H66488   8.220   6.084   1.278  0.6834  0.2197 -1.6779
  504MOL0     H66489   8.080   5.998   1.252 -1.2236  0.0763  0.6739
  504MOL0     H66490   7.889   5.997   1.177 -0.8342 -0.4776 -1.7751
  504MOL0     H66491   7.647   5.981   1.191 -1.1662  0.1420 -1.7224
  504MOL0     H66492   7.314   6.296   1.618  0.4232 -1.2796  1.6060
  504MOL0     H66493   7.094   6.248   1.713 -2.1962 -0.1810 -0.6904
  504MOL0     H66494   6.880   6.301   1.714  2.8654 -1.7687  1.0313
  504MOL0     H66495   6.857   6.137   1.781  0.7835  0.9323  0.0986
  504MOL0     H66496   6.640   6.117   1.674  2.0508 -0.3119  0.0200
  504MOL0     H66497   6.656   6.277   1.604 -0.3621 -1.2293 -1.3264
  504MOL0     H66498   6.670   6.363   1.850  3.6629 -2.1509  2.6951
  504MOL0     H66499   6.659   6.199   1.894  0.6546  0.6878  0.5763
  504MOL0     H66500   6.434   6.337   1.726 -2.5676 -0.2756  1.3611
  504MOL0     H66501   6.432   6.178   1.789  0.1984 -0.8536 -0.1954
  504MOL0     H66502   6.461   6.432   1.960 -0.2894  0.3825 -0.6747
  504MOL0     H66503   6.458   6.280   2.025 -0.1385  0.7409 -0.6749
  504MOL0     H66504   6.240   6.329   2.072 -1.1528 -0.2167 -0.8631
  504MOL0     H66505   6.228   6.234   1.926  4.2522 -1.8957 -0.4675
  504MOL0     H66506   6.209   6.536   1.929  0.9620  0.3203  0.8371
  504MOL0     H66507   6.202   6.436   1.779  0.1194  0.8130  0.7843
  504MOL0     H66508   6.005   6.322   1.906  0.4701 -0.1109 -1.1868
  504MOL0     H66509   5.986   6.473   1.821 -1.5838 -1.7971  0.1865
  504MOL0     H66510   6.972   6.052   1.367  0.7006 -0.2843 -0.9593
  504MOL0     H66511   7.202   6.075   1.260  0.1810 -0.9686  0.6288
  504MOL0     H66512   7.620   6.320   1.459 -0.9232 -0.7558  0.3117
  504MOL0     H66513   7.850   6.365   1.438 -1.8659  1.1062 -1.2361
  504MOL0     H66514   7.069   6.358   1.327  2.2300  0.6862 -0.5498
  504MOL0     H66515   6.839   6.347   1.396  0.2729  2.2391  1.6903
  504MOL0     H66516   6.371   6.780   1.339  0.1300 -0.4106 -1.4535
  504MOL0     H66517   6.178   6.757   1.471  2.8039  1.8404  0.0108
  504MOL0     H66518   5.956   6.687   1.452 -0.5648 -2.4954 -0.9525
  504MOL0     H66519   5.968   6.712   1.619  0.2263 -2.0863  1.9474
  504MOL0     H66520   5.806   6.512   1.489  2.4181 -1.0649  0.9326
  504MOL0     H66521   5.853   6.480   1.658 -1.4035 -1.9724 -1.2120
  504MOL0     H66522   5.687   6.717   1.554 -2.0580  0.1892  0.4454
  504MOL0     H66523   5.732   6.683   1.717  0.3509 -3.1778  0.7987
  504MOL0     H66524   5.577   6.489   1.537  1.8596  1.1450 -1.0032
  504MOL0     H66525   5.612   6.456   1.695  2.2483  0.7704 -0.1743
  504MOL0     H66526   5.284   6.742   1.702  0.2494  0.5093  0.5924
  504MOL0     H66527   6.193   6.343   1.483  0.9260 -0.9683 -1.1724
  504MOL0     H66528   6.424   6.353   1.359 -2.4408 -0.8550 -0.9228
  505MOL0     O66529   1.175   5.628   5.767  0.3717  0.0930  0.2281
  505MOL0     C66530   1.199   5.558   5.866 -0.0495 -0.2002  0.2601
  505MOL0     O66531   1.201   5.428   5.863 -0.3105 -0.0893 -0.2796
  505MOL0     C66532   1.180   5.360   5.749 -0.3914 -0.1570 -0.1296
  505MOL0     C66533   1.284   5.308   5.671  0.0035  0.2281 -0.1583
  505MOL0     C66534   1.267   5.236   5.556 -0.2269  0.7043 -0.0860
  505MOL0     C66535   1.141   5.214   5.503  0.1336  0.0673  0.4571
  505MOL0     O66536   1.133   5.145   5.387 -0.0496  0.7689  0.4569
  505MOL0     C66537   1.000   5.135   5.317  0.4739  0.1041 -0.1173
  505MOL0     C66538   0.939   5.006   5.350  1.4954  0.4477  1.3605
  505MOL0     C66539   0.785   4.991   5.335  0.3007 -0.1224  0.1925
  505MOL0     C66540   0.754   5.019   5.179 -0.3056 -0.8868  0.6168
  505MOL0     C66541   0.615   4.968   5.144  0.0469 -0.3189 -0.6459
  505MOL0     C66542   0.512   5.057   5.215 -0.1047  0.4970 -0.4725
  505MOL0     C66543   0.384   4.999   5.156  0.0788 -0.3470  0.2168
  505MOL0     C66544   0.287   5.019   5.266  0.6884 -0.9667 -0.0302
  505MOL0     N66545   0.154   4.992   5.201  0.7324  0.1620 -0.3894
  505MOL0     C66546   0.105   4.889   5.136  0.6701  0.8600 -0.8079
  505MOL0     C66547  -0.021   4.913   5.099  1.1570  0.0546 -0.6108
  505MOL0     C66548  -0.110   4.835   5.007 -0.1432  0.4643 -0.4700
  505MOL0     C66549  -0.152   4.706   5.071  0.4364  0.2780 -0.4708
  505MOL0     C66550  -0.208   4.606   4.981  0.2343  0.0348 -0.0560
  505MOL0     C66551  -0.353   4.643   4.941  0.1295 -0.3629 -0.4936
  505MOL0     O66552  -0.442   4.637   5.051  0.1713  0.2187  0.4622
  505MOL0     C66553  -0.562   4.702   5.030  0.3373  0.7568  0.3017
  505MOL0     C66554  -0.583   4.839   5.050  0.5056 -0.3402 -0.2316
  505MOL0     C66555  -0.699   4.908   5.019  0.3610  0.5733  0.7665
  505MOL0     C66556  -0.813   4.838   4.977  0.2071 -0.0909 -0.6569
  505MOL0     C66557  -0.927   4.915   4.916  0.3349 -0.0139  0.2748
  505MOL0     O66558  -0.924   5.052   4.911  0.5281  0.5677 -1.1080
  505MOL0     C66559  -1.041   5.110   4.876  0.5201 -0.1052 -0.5441
  505MOL0     C66560  -1.034   5.228   4.805 -0.1514  1.0304 -0.9825
  505MOL0     C66561  -1.131   5.307   4.764 -0.1231  0.5733  0.2645
  505MOL0     C66562  -1.258   5.274   4.798 -0.8442 -0.3593  0.3328
  505MOL0     O66563  -1.358   5.365   4.759 -0.3551 -0.3256  0.4637
  505MOL0     C66564  -1.496   5.329   4.794 -1.1077  0.5556 -0.1775
  505MOL0     C66565  -1.595   5.442   4.763  0.8883 -0.0041 -0.0896
  505MOL0     C66566  -1.587   5.490   4.614 -0.1965 -0.6746 -0.6096
  505MOL0     C66567  -1.684   5.607   4.581 -0.3720  0.5992 -0.1394
  505MOL0     C66568  -1.689   5.628   4.430 -0.1366 -0.3471 -0.3737
  505MOL0     C66569  -1.570   5.707   4.369  0.4537 -0.4347 -0.4361
  505MOL0     C66570  -1.601   5.785   4.241  0.5116  0.3194  0.4979
  505MOL0     C66571  -1.655   5.697   4.129 -0.9407 -0.3241  0.1660
  505MOL0    Cl66572  -1.661   5.773   3.967  0.1364  0.0671  0.3011
  505MOL0     C66573  -1.282   5.155   4.863 -0.2739 -0.4922  0.0648
  505MOL0     C66574  -1.170   5.080   4.912  0.2714 -0.1800  1.2279
  505MOL0     O66575  -1.008   4.845   4.853 -0.2887 -0.3813 -0.1677
  505MOL0     C66576  -0.801   4.697   4.973 -0.1322 -0.9993 -0.6811
  505MOL0     C66577  -0.678   4.635   4.987  0.7654  0.2607 -0.6784
  505MOL0     N66578  -0.050   5.040   5.152  1.0598  0.1660 -0.4556
  505MOL0     N66579   0.053   5.081   5.220 -0.1295 -0.3237  0.2450
  505MOL0     C66580   1.033   5.262   5.579  0.8496 -1.1020  0.4626
  505MOL0     C66581   1.047   5.343   5.696 -0.0513  0.6825  0.0647
  505MOL0     C66582   1.244   5.627   5.985 -1.1554  0.0993 -0.7990
  505MOL0     C66583   1.279   5.762   5.989 -0.6133  0.5499  0.4512
  505MOL0     C66584   1.328   5.815   6.108  0.3437  0.0445  0.3024
  505MOL0     C66585   1.346   5.736   6.223  0.6130 -0.3896  0.1079
  505MOL0     O66586   1.381   5.788   6.350  0.2084  0.0466 -0.0112
  505MOL0     C66587   1.512   5.762   6.402  0.4956  0.5190 -0.5011
  505MOL0     C66588   1.564   5.886   6.465 -0.4617 -0.8524 -0.3426
  505MOL0     C66589   1.700   5.880   6.511 -0.1753  0.2863 -0.4250
  505MOL0     C66590   1.746   6.009   6.579  0.6725  0.0672  0.0214
  505MOL0     C66591   1.859   5.977   6.658 -0.6623  0.3835  0.0242
  505MOL0     C66592   1.953   5.949   6.723  0.2757 -0.5310 -0.4449
  505MOL0     C66593   1.315   5.600   6.222  0.0772  0.4422  0.8487
  505MOL0     C66594   1.267   5.549   6.102  0.9926  0.1515  0.3887
  505MOL0     H66595   1.384   5.333   5.704  0.3427  1.0279 -1.7074
  505MOL0     H66596   1.351   5.200   5.498 -3.2444 -1.8345 -3.3578
  505MOL0     H66597   1.010   5.162   5.211 -0.3392 -1.3824 -0.6042
  505MOL0     H66598   0.932   5.208   5.362 -0.3811 -1.3113  0.9446
  505MOL0     H66599   0.954   4.985   5.456 -1.3356  0.8946  1.9364
  505MOL0     H66600   0.998   4.929   5.300  1.8402  0.9226  1.0326
  505MOL0     H66601   0.720   5.049   5.402 -0.5718 -0.7580 -0.0813
  505MOL0     H66602   0.771   4.886   5.365  1.7634 -0.1454  0.8862
  505MOL0     H66603   0.762   5.125   5.152 -0.7935 -0.8398  0.6517
  505MOL0     H66604   0.825   4.962   5.119  1.4663  2.2019 -0.4970
  505MOL0     H66605   0.604   4.861   5.166 -1.1861 -0.1351 -0.2982
  505MOL0     H66606   0.602   4.984   5.037 -1.1398 -0.2172 -0.5033
  505MOL0     H66607   0.525   5.163   5.193 -1.9323  0.9287  0.3273
  505MOL0     H66608   0.517   5.048   5.324 -0.1089  2.6523 -0.2579
  505MOL0     H66609   0.374   5.048   5.059  0.2964 -0.7482 -0.0102
  505MOL0     H66610   0.385   4.890   5.145 -0.3735 -0.3615  0.2960
  505MOL0     H66611   0.295   5.118   5.313  0.6705 -2.8511  4.4671
  505MOL0     H66612   0.298   4.948   5.348 -1.0682 -2.5372 -1.0952
  505MOL0     H66613   0.154   4.796   5.110 -2.8136 -1.6670  0.7718
  505MOL0     H66614  -0.054   4.815   4.915 -0.4506 -1.9114 -0.2023
  505MOL0     H66615  -0.198   4.897   4.989  0.2776  0.7773 -1.5243
  505MOL0     H66616  -0.229   4.736   5.142 -0.1535 -1.0343 -0.5247
  505MOL0     H66617  -0.068   4.651   5.116  0.5879 -0.2705 -1.4043
  505MOL0     H66618  -0.147   4.610   4.890  1.0550  0.7040  0.5000
  505MOL0     H66619  -0.208   4.502   5.015 -1.9386 -0.7109 -2.0830
  505MOL0     H66620  -0.379   4.565   4.869  0.3504 -0.9258  0.0227
  505MOL0     H66621  -0.361   4.735   4.883  1.0834 -0.4601 -0.8040
  505MOL0     H66622  -0.506   4.893   5.106  0.1599 -0.7397  0.6416
  505MOL0     H66623  -0.698   5.014   5.040 -3.2655  0.8638  0.2441
  505MOL0     H66624  -0.936   5.273   4.793 -0.8487  2.5433 -1.1982
  505MOL0     H66625  -1.115   5.397   4.706  2.1372 -1.6683 -2.9136
  505MOL0     H66626  -1.502   5.307   4.901 -0.1766  1.3676  0.0647
  505MOL0     H66627  -1.519   5.239   4.736 -3.8982  1.7812 -1.1883
  505MOL0     H66628  -1.562   5.519   4.832  2.3745  0.5051 -1.3130
  505MOL0     H66629  -1.698   5.405   4.772  0.6077  0.7537 -0.0929
  505MOL0     H66630  -1.604   5.402   4.552 -1.7199 -0.7963 -0.0477
  505MOL0     H66631  -1.482   5.520   4.602  0.1527  0.3919  3.5356
  505MOL0     H66632  -1.788   5.593   4.611 -0.7619  0.7997 -1.3390
  505MOL0     H66633  -1.651   5.698   4.630  0.6340  0.9691 -1.4286
  505MOL0     H66634  -1.773   5.696   4.415 -0.6825 -0.6072  1.3123
  505MOL0     H66635  -1.707   5.543   4.364  0.0709 -0.0995 -0.7529
  505MOL0     H66636  -1.481   5.650   4.341  0.6209  0.7204 -2.4819
  505MOL0     H66637  -1.546   5.785   4.442 -0.6104 -0.9797  0.5152
  505MOL0     H66638  -1.663   5.872   4.266  0.9046 -0.2272  3.9261
  505MOL0     H66639  -1.505   5.821   4.204  0.7838  0.2504  1.1193
  505MOL0     H66640  -1.757   5.678   4.164 -1.3512 -0.8566 -1.2393
  505MOL0     H66641  -1.600   5.604   4.111  2.3641  1.9223 -2.5175
  505MOL0     H66642  -1.383   5.126   4.887 -1.6091  2.6124 -1.2368
  505MOL0     H66643  -1.183   5.000   4.984  0.1448 -0.3404  1.0267
  505MOL0     H66644  -0.889   4.641   4.942 -1.1800 -0.2728  0.8457
  505MOL0     H66645  -0.670   4.529   4.965 -5.4036 -0.8447  0.5328
  505MOL0     H66646   0.931   5.229   5.563  1.2134 -3.0560  1.7396
  505MOL0     H66647   0.960   5.373   5.753  0.3726  0.1115  1.0365
  505MOL0     H66648   1.269   5.826   5.902  0.2313  2.2951  1.5730
  505MOL0     H66649   1.364   5.917   6.100  0.7418 -0.2366 -2.8161
  505MOL0     H66650   1.580   5.734   6.321  0.0703  1.2784 -1.1484
  505MOL0     H66651   1.510   5.681   6.475  0.9820  2.0783  1.3288
  505MOL0     H66652   1.555   5.968   6.393 -1.7572 -1.0952 -0.4919
  505MOL0     H66653   1.509   5.901   6.559  1.0940  1.4351  0.2817
  505MOL0     H66654   1.764   5.846   6.429  1.5471  0.3392  0.8384
  505MOL0     H66655   1.707   5.794   6.578  2.5022 -0.2549 -1.2891
  505MOL0     H66656   1.770   6.082   6.502  2.0506  0.5277  0.8524
  505MOL0     H66657   1.665   6.055   6.636  0.4566 -0.0186 -0.2154
  505MOL0     H66658   2.037   5.921   6.784 -0.1251  1.2071  1.0081
  505MOL0     H66659   1.332   5.531   6.304 -0.8098 -0.6400  0.1408
  505MOL0     H66660   1.230   5.447   6.105 -2.2976  1.1476 -1.5560
  506MOL0     O66661  11.103  10.767   0.975 -0.4063  0.2190 -0.1148
  506MOL0     C66662  11.179  10.814   1.062 -0.0637 -0.7188  1.5471
  506MOL0     O66663  11.140  10.860   1.182 -0.0504 -0.1851  0.1225
  506MOL0     C66664  11.016  10.903   1.191  0.2489  0.6430  0.1743
  506MOL0     C66665  10.897  10.831   1.166  0.3547  0.1958  0.0783
  506MOL0     C66666  10.772  10.890   1.174 -0.1773 -0.8406  0.1762
  506MOL0     C66667  10.759  11.019   1.225 -0.4212 -0.7277  0.2732
  506MOL0     O66668  10.636  11.070   1.261 -0.6801  0.1250 -0.1407
  506MOL0     C66669  10.514  10.990   1.241 -0.2865 -0.5477  0.5098
  506MOL0     C66670  10.388  11.054   1.295  0.7694 -0.5502 -0.4416
  506MOL0     C66671  10.397  11.055   1.456 -0.3485  0.1980  0.1267
  506MOL0     C66672  10.289  11.144   1.514  0.6490 -0.5459 -0.4450
  506MOL0     C66673  10.150  11.104   1.469  1.3120 -0.0907 -0.9531
  506MOL0     C66674  10.043  11.149   1.569  0.1258 -0.2269 -0.3036
  506MOL0     C66675  10.058  11.288   1.629 -0.2214  0.0651  0.6999
  506MOL0     C66676  10.019  11.392   1.519 -0.5238 -0.5422 -0.0198
  506MOL0     N66677   9.872  11.402   1.488  0.2321  0.1565  0.1928
  506MOL0     C66678   9.773  11.415   1.587 -0.4209 -0.3738 -0.0485
  506MOL0     C66679   9.658  11.417   1.525 -0.5656  0.4917 -0.8112
  506MOL0     C66680   9.525  11.435   1.598 -0.1511  0.2145 -1.0571
  506MOL0     C66681   9.497  11.583   1.616 -0.3886 -0.2170  0.1384
  506MOL0     C66682   9.436  11.644   1.493 -0.8999  0.3560 -0.5613
  506MOL0     C66683   9.453  11.801   1.507  0.4201  2.4756 -0.3195
  506MOL0     O66684   9.382  11.863   1.404 -0.5878 -0.2170 -0.5227
  506MOL0     C66685   9.249  11.894   1.418 -0.0724  0.9517 -0.4083
  506MOL0     C66686   9.183  11.944   1.299  0.7054  0.2669 -0.1103
  506MOL0     C66687   9.044  11.962   1.301  0.1245  0.6868 -0.7955
  506MOL0     C66688   8.966  11.936   1.416 -0.1705 -0.2223 -0.3575
  506MOL0     C66689   8.819  11.967   1.423  0.0779 -0.5064  0.6784
  506MOL0     O66690   8.763  11.981   1.295 -0.2979  0.0412  0.4073
  506MOL0     C66691   8.626  11.990   1.281  1.3913 -0.0930  0.5064
  506MOL0     C66692   8.574  12.087   1.199 -0.3035 -0.2921  0.4404
  506MOL0     C66693   8.438  12.109   1.183 -0.6915  0.0066  1.1061
  506MOL0     C66694   8.352  12.030   1.258 -0.0358 -0.7796  0.0898
  506MOL0     O66695   8.223  12.064   1.263  1.6221  0.0110  0.1072
  506MOL0     C66696   8.167  12.072   1.398  0.7649  0.6246  0.4522
  506MOL0     C66697   8.067  11.962   1.416 -0.0785 -0.1775 -0.4378
  506MOL0     C66698   7.927  11.982   1.345 -0.8052 -0.5194  0.2059
  506MOL0     C66699   7.842  11.852   1.354 -0.4728 -0.1094 -1.0491
  506MOL0     C66700   7.702  11.880   1.286  0.7361  0.4995 -0.3024
  506MOL0     C66701   7.605  11.777   1.321  0.9094 -0.1259 -0.0718
  506MOL0     C66702   7.480  11.791   1.234 -0.0915  0.3019 -0.4908
  506MOL0     C66703   7.359  11.745   1.302 -0.7007 -0.0325  0.0463
  506MOL0    Cl66704   7.208  11.824   1.242 -0.1507  0.1396 -0.4050
  506MOL0     C66705   8.403  11.926   1.337  0.4587 -0.1129 -0.1348
  506MOL0     C66706   8.537  11.908   1.344 -0.2766  0.0090 -0.6476
  506MOL0     O66707   8.762  11.973   1.529 -0.4663  1.0156 -0.2686
  506MOL0     C66708   9.033  11.890   1.528 -0.2062  0.3182  0.3345
  506MOL0     C66709   9.171  11.874   1.536  0.4125 -0.0212  0.2148
  506MOL0     N66710   9.682  11.415   1.387  0.1784 -0.5622  0.0165
  506MOL0     N66711   9.814  11.412   1.366 -0.0599  0.3748  0.5706
  506MOL0     C66712  10.870  11.091   1.267 -0.4844 -0.6190  0.8857
  506MOL0     C66713  10.999  11.031   1.254  0.1772  0.7793  0.4850
  506MOL0     C66714  11.322  10.817   1.016 -0.5012  0.5299 -0.3262
  506MOL0     C66715  11.414  10.885   1.096 -0.5360  0.8775  0.3987
  506MOL0     C66716  11.545  10.909   1.054 -0.8381 -1.3435  0.5880
  506MOL0     C66717  11.592  10.854   0.930  0.2244 -0.3962  0.8328
  506MOL0     O66718  11.716  10.878   0.869  0.2677 -0.1700 -0.3415
  506MOL0     C66719  11.804  10.978   0.931 -0.5790 -0.2847 -0.5713
  506MOL0     C66720  11.943  10.992   0.857  0.8269  0.1871  0.0792
  506MOL0     C66721  12.027  10.867   0.852  0.5686 -0.0060 -0.2620
  506MOL0     C66722  12.172  10.888   0.795 -0.9320 -0.0979  0.5071
  506MOL0     C66723  12.252  10.770   0.829  0.2862 -0.7836  0.4945
  506MOL0     C66724  12.319  10.670   0.853 -0.7885 -0.4687 -1.1115
  506MOL0     C66725  11.505  10.786   0.844  0.1338  0.5399 -0.6772
  506MOL0     C66726  11.364  10.763   0.896 -0.3255  0.0474 -0.4922
  506MOL0     H66727  10.896  10.727   1.134 -3.9254 -0.5477  1.9244
  506MOL0     H66728  10.691  10.840   1.123  1.3140 -3.3364  0.0901
  506MOL0     H66729  10.516  10.892   1.291 -0.0526 -1.3527 -1.0301
  506MOL0     H66730  10.495  10.979   1.134 -0.7554  4.6220 -0.1872
  506MOL0     H66731  10.292  11.009   1.270 -0.1507 -0.0634  1.9809
  506MOL0     H66732  10.388  11.161   1.271 -1.0854 -0.3524  0.2832
  506MOL0     H66733  10.495  11.087   1.494 -0.6927 -0.8685  2.0277
  506MOL0     H66734  10.374  10.953   1.488 -4.2950  0.4823 -1.2834
  506MOL0     H66735  10.295  11.147   1.623  0.2179  1.0061 -0.4357
  506MOL0     H66736  10.319  11.246   1.487  3.0173 -0.5212  1.8753
  506MOL0     H66737  10.145  10.995   1.470 -0.5997 -0.1211  2.6922
  506MOL0     H66738  10.132  11.119   1.362  1.7461  0.3708 -0.9634
  506MOL0     H66739  10.049  11.084   1.656  1.6126  2.1633  1.5158
  506MOL0     H66740   9.950  11.131   1.514  0.0105  0.7684 -0.4593
  506MOL0     H66741   9.983  11.289   1.708  0.6624  0.5604  1.5586
  506MOL0     H66742  10.155  11.306   1.676 -0.4227 -0.5476  1.3659
  506MOL0     H66743  10.083  11.383   1.431  0.4204  4.5752 -0.1626
  506MOL0     H66744  10.037  11.495   1.551  0.8850 -1.1076  1.1592
  506MOL0     H66745   9.784  11.450   1.689  0.8073  0.5994 -0.4842
  506MOL0     H66746   9.520  11.383   1.694  0.1582  0.7339 -0.7590
  506MOL0     H66747   9.446  11.385   1.542 -1.3756  0.2707  0.5724
  506MOL0     H66748   9.592  11.636   1.627 -1.5044  1.8000  0.5230
  506MOL0     H66749   9.427  11.596   1.699 -2.4119  1.4367 -1.7078
  506MOL0     H66750   9.486  11.615   1.400 -1.5021 -1.4763 -0.3580
  506MOL0     H66751   9.331  11.618   1.482 -0.7746  0.0447 -1.0576
  506MOL0     H66752   9.560  11.825   1.505  0.8930  0.6844  0.8353
  506MOL0     H66753   9.415  11.832   1.605  1.2377  0.0328  0.8587
  506MOL0     H66754   9.243  11.972   1.214  2.6464  0.8935  1.3846
  506MOL0     H66755   8.998  11.999   1.210 -0.7037  2.0819  0.1602
  506MOL0     H66756   8.648  12.138   1.137 -0.5385 -2.7253 -2.0834
  506MOL0     H66757   8.410  12.190   1.116  4.9445  2.0867  0.6768
  506MOL0     H66758   8.128  12.170   1.427  0.2422  0.0001  1.9527
  506MOL0     H66759   8.243  12.061   1.476  1.3305  1.7613  0.0853
  506MOL0     H66760   8.061  11.934   1.521  0.7755 -0.1577 -0.3819
  506MOL0     H66761   8.112  11.873   1.370 -1.4011 -0.8949 -0.3936
  506MOL0     H66762   7.945  12.001   1.239 -1.1807 -0.7595  0.1000
  506MOL0     H66763   7.880  12.077   1.374 -2.5909 -1.7765  1.6008
  506MOL0     H66764   7.904  11.768   1.322  1.2001  0.5294  0.3822
  506MOL0     H66765   7.817  11.832   1.458  0.9815  1.5858 -0.3200
  506MOL0     H66766   7.722  11.890   1.179  2.6531  1.6435  0.1235
  506MOL0     H66767   7.651  11.972   1.314 -2.0945 -1.3628  1.1939
  506MOL0     H66768   7.584  11.782   1.428 -3.9348 -0.7839 -0.7644
  506MOL0     H66769   7.651  11.680   1.297  1.6766  0.6223 -1.8277
  506MOL0     H66770   7.469  11.899   1.216 -0.1179  0.1325 -1.5352
  506MOL0     H66771   7.484  11.749   1.134 -1.0966  2.6702 -1.5995
  506MOL0     H66772   7.370  11.763   1.409 -2.4731 -1.8572  0.5969
  506MOL0     H66773   7.344  11.639   1.276  0.7990 -0.3754  0.4709
  506MOL0     H66774   8.353  11.854   1.402 -2.1602 -0.1913 -2.1011
  506MOL0     H66775   8.574  11.827   1.406  2.6544  0.1241 -2.0646
  506MOL0     H66776   8.977  11.873   1.620 -1.7804  1.1700 -0.4307
  506MOL0     H66777   9.215  11.863   1.634 -0.4584  0.6795  0.6887
  506MOL0     H66778  10.867  11.186   1.319 -0.0234  2.9786 -4.7681
  506MOL0     H66779  11.085  11.093   1.277  0.5973  0.4938 -0.2867
  506MOL0     H66780  11.382  10.933   1.188  0.3963  0.1291  1.1533
  506MOL0     H66781  11.600  10.966   1.128 -0.1026  1.3624 -1.8704
  506MOL0     H66782  11.831  10.956   1.035  1.5158 -1.9420 -1.3924
  506MOL0     H66783  11.746  11.071   0.932  1.0567  0.8431  2.1474
  506MOL0     H66784  11.918  11.015   0.753 -2.2648  0.5294  0.7798
  506MOL0     H66785  12.010  11.074   0.886  1.4349  1.2632 -3.8648
  506MOL0     H66786  11.977  10.790   0.792 -0.0814 -0.5831  0.9839
  506MOL0     H66787  12.038  10.835   0.956 -1.7144  0.8783  0.3175
  506MOL0     H66788  12.173  10.904   0.687 -2.1210  2.5612  0.8268
  506MOL0     H66789  12.221  10.973   0.843 -1.5339  0.4426  0.1665
  506MOL0     H66790  12.390  10.596   0.882  0.6600  1.1008 -0.4861
  506MOL0     H66791  11.535  10.739   0.751 -1.4242 -0.2041 -0.8308
  506MOL0     H66792  11.300  10.702   0.834 -0.8701 -0.5202  0.5919
  507MOL0     O66793   0.683   6.642  10.261  0.1587 -0.1028 -0.1505
  507MOL0     C66794   0.607   6.645  10.165 -0.7962  1.4410 -0.5652
  507MOL0     O66795   0.474   6.659  10.178  0.4125  0.3317 -0.1284
  507MOL0     C66796   0.403   6.672  10.297  0.2725 -0.9923  0.1235
  507MOL0     C66797   0.436   6.620  10.422 -0.4936 -0.3476  0.1960
  507MOL0     C66798   0.357   6.617  10.533 -0.4917  0.4160 -0.4157
  507MOL0     C66799   0.236   6.684  10.518  0.5442  0.6032 -0.1478
  507MOL0     O66800   0.161   6.686  10.633 -0.3488  0.0792 -0.1427
  507MOL0     C66801   0.099   6.805  10.677  0.1920 -0.4974 -0.5888
  507MOL0     C66802  -0.053   6.783  10.670  0.0197  0.3851  0.3898
  507MOL0     C66803  -0.141   6.873  10.761  0.3530  0.5970 -0.7665
  507MOL0     C66804  -0.291   6.833  10.739  0.2286 -0.4476 -0.0972
  507MOL0     C66805  -0.386   6.957  10.766 -0.6132  0.2556  0.1093
  507MOL0     C66806  -0.531   6.919  10.775  0.1936 -0.1895 -0.7801
  507MOL0     C66807  -0.605   7.053  10.774  0.7057  0.3042  0.1743
  507MOL0     C66808  -0.753   7.014  10.772  0.0171 -0.3415 -0.2914
  507MOL0     N66809  -0.826   7.140  10.743  0.0050 -0.3624  0.0790
  507MOL0     C66810  -0.948   7.158  10.673 -0.4601  0.4603  0.2898
  507MOL0     C66811  -0.980   7.289  10.677 -0.4194  0.0618  0.0724
  507MOL0     C66812  -1.086   7.359  10.605  0.1282  0.0435 -0.5782
  507MOL0     C66813  -1.195   7.391  10.704 -0.3897 -0.7061 -0.7963
  507MOL0     C66814  -1.148   7.490  10.804 -0.2147  0.4416  0.0074
  507MOL0     C66815  -1.267   7.531  10.900  0.4158  0.2003 -0.4043
  507MOL0     O66816  -1.382   7.565  10.827  0.0198  0.2923  0.2797
  507MOL0     C66817  -1.476   7.649  10.869 -0.7835 -0.0709 -0.6271
  507MOL0     C66818  -1.572   7.696  10.774  0.8130 -0.0659 -0.2193
  507MOL0     C66819  -1.683   7.767  10.818 -0.6553 -0.7031  0.0827
  507MOL0     C66820  -1.701   7.808  10.953 -0.0424 -0.3994 -1.2560
  507MOL0     C66821  -1.810   7.899  10.992  0.0992  0.2965 -0.7951
  507MOL0     O66822  -1.910   7.919  10.900  0.7182 -0.3372 -0.0381
  507MOL0     C66823  -2.003   8.022  10.921 -0.0539  0.8287  0.1607
  507MOL0     C66824  -1.991   8.139  10.843 -0.7543 -0.5891  0.4375
  507MOL0     C66825  -2.076   8.250  10.871  0.0298 -0.2302 -0.9771
  507MOL0     C66826  -2.183   8.226  10.954  0.3143 -0.5199  0.1733
  507MOL0     O66827  -2.297   8.303  10.954  0.3571 -0.2525  0.3079
  507MOL0     C66828  -2.288   8.449  10.936 -0.1035 -0.7544  0.4725
  507MOL0     C66829  -2.420   8.523  10.973 -1.1377 -0.3774 -0.3192
  507MOL0     C66830  -2.518   8.517  10.854 -0.4384  1.2643 -0.3227
  507MOL0     C66831  -2.639   8.598  10.889  0.2816  1.0490  0.3363
  507MOL0     C66832  -2.628   8.748  10.858  1.2963 -0.6696  0.0427
  507MOL0     C66833  -2.768   8.818  10.872  0.5789 -0.2261  0.0669
  507MOL0     C66834  -2.754   8.972  10.868 -0.3535  0.3970  0.4289
  507MOL0     C66835  -2.892   9.039  10.893 -0.2430 -0.6965 -0.0265
  507MOL0    Cl66836  -3.005   8.994  10.756 -0.1043 -0.0229 -0.2051
  507MOL0     C66837  -2.200   8.105  11.019 -0.0012  0.0033  0.3722
  507MOL0     C66838  -2.105   8.010  11.009  0.9484  0.4307  0.5166
  507MOL0     O66839  -1.798   7.950  11.104  0.1410 -0.5334 -0.0170
  507MOL0     C66840  -1.598   7.768  11.041  0.1867  0.8451 -0.0939
  507MOL0     C66841  -1.494   7.690  10.995 -0.1181 -0.7455 -0.5882
  507MOL0     N66842  -0.885   7.344  10.763  0.0330  0.3604  0.8789
  507MOL0     N66843  -0.802   7.262  10.807  0.1742 -0.6172 -0.1747
  507MOL0     C66844   0.199   6.746  10.399 -0.5830 -0.0205  0.2073
  507MOL0     C66845   0.280   6.744  10.292  0.3785  1.1617 -0.0857
  507MOL0     C66846   0.672   6.635  10.035 -0.3983  0.0947  0.0546
  507MOL0     C66847   0.811   6.598  10.026  0.0290 -0.4076  0.6326
  507MOL0     C66848   0.877   6.581   9.899 -0.7501 -0.4165 -0.4156
  507MOL0     C66849   0.801   6.580   9.783  0.3972 -0.5134  0.3986
  507MOL0     O66850   0.856   6.545   9.662 -0.5365  0.2468 -0.0820
  507MOL0     C66851   1.003   6.524   9.646 -0.1091  0.1035 -0.1423
  507MOL0     C66852   1.033   6.455   9.516 -0.3979  0.5770  0.5426
  507MOL0     C66853   1.183   6.421   9.480 -0.6693 -0.2937  0.4264
  507MOL0     C66854   1.284   6.531   9.505 -0.1597  0.5353  0.2941
  507MOL0     C66855   1.259   6.652   9.426 -0.6419  0.1632 -0.6006
  507MOL0     C66856   1.224   6.752   9.362 -0.3472  0.1169 -1.2450
  507MOL0     C66857   0.662   6.611   9.786  0.3823  0.8058 -0.6840
  507MOL0     C66858   0.590   6.635   9.915  0.1963  0.9018  0.2162
  507MOL0     H66859   0.530   6.566  10.425 -0.6297 -0.5991  0.0021
  507MOL0     H66860   0.391   6.568  10.623 -1.9196 -1.3502 -0.7695
  507MOL0     H66861   0.126   6.898  10.627 -1.4106  1.1846  1.5241
  507MOL0     H66862   0.125   6.824  10.782 -0.7515 -0.3303 -0.3770
  507MOL0     H66863  -0.059   6.678  10.698 -0.7150  0.6339  1.2180
  507MOL0     H66864  -0.086   6.787  10.566  0.7249 -3.0546 -0.0817
  507MOL0     H66865  -0.139   6.978  10.731 -2.5354  1.3186  1.1927
  507MOL0     H66866  -0.108   6.877  10.866 -0.2050  0.4647 -0.5838
  507MOL0     H66867  -0.306   6.803  10.634  2.0929 -1.1673 -0.1909
  507MOL0     H66868  -0.300   6.742  10.799  1.8605 -1.3854 -1.2027
  507MOL0     H66869  -0.362   7.040  10.700  0.4205 -0.2478 -0.1677
  507MOL0     H66870  -0.365   6.995  10.867  0.0290 -0.7055  0.3548
  507MOL0     H66871  -0.545   6.872  10.873  3.6501  1.0740  0.4790
  507MOL0     H66872  -0.557   6.861  10.686 -0.3255  1.2425 -1.5965
  507MOL0     H66873  -0.587   7.115  10.862 -3.3119  0.7735  0.8194
  507MOL0     H66874  -0.593   7.101  10.677  2.6081 -1.7381 -0.7007
  507MOL0     H66875  -0.783   6.972  10.868 -0.7053 -0.0864 -0.4024
  507MOL0     H66876  -0.768   6.946  10.688  0.2876 -0.9932  0.1780
  507MOL0     H66877  -1.003   7.086  10.614 -0.2246 -0.3715  1.0609
  507MOL0     H66878  -1.143   7.307  10.528 -3.7696  0.8158  1.5381
  507MOL0     H66879  -1.043   7.449  10.559 -1.3813  1.7485  1.1657
  507MOL0     H66880  -1.223   7.304  10.765 -2.9088  1.8056  1.9157
  507MOL0     H66881  -1.279   7.437  10.652 -0.4852  3.7791  2.7648
  507MOL0     H66882  -1.074   7.451  10.874 -1.4572  2.5181  2.6624
  507MOL0     H66883  -1.102   7.577  10.756 -0.3949  0.6836  0.2664
  507MOL0     H66884  -1.235   7.613  10.965 -0.8820  1.9687 -1.8845
  507MOL0     H66885  -1.298   7.447  10.962 -3.1336  1.0280 -0.8617
  507MOL0     H66886  -1.553   7.675  10.670 -1.3616 -4.1761  0.0229
  507MOL0     H66887  -1.749   7.810  10.743  0.0809  0.9560  0.3324
  507MOL0     H66888  -1.912   8.146  10.769 -0.0600 -1.7448  1.0291
  507MOL0     H66889  -2.070   8.340  10.810  0.5688  0.5575  0.2020
  507MOL0     H66890  -2.259   8.475  10.834 -2.7202 -0.1526 -0.2019
  507MOL0     H66891  -2.213   8.490  11.003 -2.0391  1.7090  1.2887
  507MOL0     H66892  -2.395   8.628  10.989 -1.5814 -0.0987 -1.3939
  507MOL0     H66893  -2.459   8.474  11.063 -0.8866 -2.1371 -1.1277
  507MOL0     H66894  -2.551   8.417  10.825  2.3550  0.5519 -1.3972
  507MOL0     H66895  -2.471   8.559  10.764  1.7073 -0.6265 -0.1699
  507MOL0     H66896  -2.719   8.559  10.824  0.4560  2.0000 -0.4766
  507MOL0     H66897  -2.674   8.579  10.991 -0.5313 -3.5221 -0.5646
  507MOL0     H66898  -2.595   8.775  10.757 -2.7087 -0.1642 -1.2910
  507MOL0     H66899  -2.565   8.801  10.930 -1.6104  4.1682 -0.5203
  507MOL0     H66900  -2.817   8.789  10.965  0.3344 -0.3252 -0.0933
  507MOL0     H66901  -2.841   8.783  10.799  0.1802 -1.2533  0.9277
  507MOL0     H66902  -2.678   8.990  10.945  0.6790  0.4716 -0.5889
  507MOL0     H66903  -2.707   9.010  10.778  0.3252  1.9812  1.4000
  507MOL0     H66904  -2.893   9.148  10.899 -2.1060 -0.7335  1.6059
  507MOL0     H66905  -2.939   9.009  10.988 -1.0430 -1.2820 -0.5909
  507MOL0     H66906  -2.287   8.101  11.084 -0.8671 -1.3625 -0.8114
  507MOL0     H66907  -2.111   7.930  11.082  6.2039  1.4933  2.5982
  507MOL0     H66908  -1.603   7.805  11.143  1.6007  0.3132  0.1893
  507MOL0     H66909  -1.422   7.670  11.074  0.1995 -5.4329 -1.7468
  507MOL0     H66910   0.105   6.799  10.393 -1.3731 -1.3833  0.0225
  507MOL0     H66911   0.245   6.804  10.209 -0.0290  0.9907 -0.0399
  507MOL0     H66912   0.867   6.593  10.119  1.3043  1.5926  0.0338
  507MOL0     H66913   0.984   6.571   9.895 -0.6445  0.6712 -0.8583
  507MOL0     H66914   1.023   6.454   9.728 -3.5336  1.6405  2.2331
  507MOL0     H66915   1.069   6.610   9.664 -0.5917  0.6599 -0.9987
  507MOL0     H66916   0.973   6.364   9.523  0.9246 -0.2834  1.1468
  507MOL0     H66917   1.001   6.516   9.431  1.1520 -1.5489 -1.7027
  507MOL0     H66918   1.191   6.399   9.373 -1.1707 -0.4916  0.4252
  507MOL0     H66919   1.211   6.330   9.534  0.0358 -1.2466 -1.4590
  507MOL0     H66920   1.292   6.551   9.612 -0.7232  2.8499 -0.0483
  507MOL0     H66921   1.385   6.502   9.475 -1.2626 -3.4295 -0.2722
  507MOL0     H66922   1.198   6.842   9.310  1.5850  1.8813  0.6403
  507MOL0     H66923   0.609   6.622   9.693  0.1390 -0.8615 -0.7703
  507MOL0     H66924   0.485   6.660   9.905  0.2026  0.3086 -1.7799
  508MOL0     O66925   3.870   7.383   3.512 -0.7148  0.6339  0.8537
  508MOL0     C66926   3.924   7.475   3.452 -0.5762 -0.8575 -0.3348
  508MOL0     O66927   3.873   7.601   3.436  0.0704 -0.0448 -0.5535
  508MOL0     C66928   3.744   7.618   3.469  1.0774 -0.2720 -0.5214
  508MOL0     C66929   3.638   7.538   3.425 -0.6109  1.0511 -0.4964
  508MOL0     C66930   3.510   7.564   3.472 -0.6437 -0.2406 -0.5264
  508MOL0     C66931   3.478   7.667   3.555 -0.2399 -0.7424 -0.3784
  508MOL0     O66932   3.352   7.665   3.607 -0.7707 -0.0904 -0.2568
  508MOL0     C66933   3.346   7.714   3.748 -0.0160 -0.0923  0.1561
  508MOL0     C66934   3.198   7.711   3.787 -0.2660  0.1350 -1.0929
  508MOL0     C66935   3.090   7.776   3.690  0.4432  0.6245  0.0449
  508MOL0     C66936   2.970   7.837   3.767 -0.1133  0.1564  0.3794
  508MOL0     C66937   2.834   7.846   3.679  0.7110  0.4899 -0.1819
  508MOL0     C66938   2.734   7.742   3.724  0.0824  0.3058  0.5213
  508MOL0     C66939   2.666   7.765   3.856 -0.6811 -0.3443 -0.6212
  508MOL0     C66940   2.587   7.897   3.872  0.1137 -0.9015 -0.1315
  508MOL0     N66941   2.485   7.899   3.978  0.1514  0.2540 -0.2355
  508MOL0     C66942   2.359   7.836   3.973  0.3726 -0.2437  0.7418
  508MOL0     C66943   2.299   7.876   4.081  1.0024 -0.1551 -0.7651
  508MOL0     C66944   2.151   7.848   4.111  0.4200 -0.2770 -0.9435
  508MOL0     C66945   2.079   7.973   4.136  0.5148 -0.4309 -0.3257
  508MOL0     C66946   2.033   8.042   4.002 -0.5241  0.9062 -0.2275
  508MOL0     C66947   1.926   8.151   4.021 -0.0780 -0.2380 -0.4254
  508MOL0     O66948   1.862   8.182   3.900  0.0926  0.3029  0.4276
  508MOL0     C66949   1.745   8.261   3.893 -0.4913 -0.0338 -1.1677
  508MOL0     C66950   1.693   8.285   3.773 -0.0952  0.5532  0.6331
  508MOL0     C66951   1.575   8.361   3.755  0.7757  0.7290 -1.0806
  508MOL0     C66952   1.505   8.411   3.864  0.1463  0.4033 -0.9914
  508MOL0     C66953   1.391   8.507   3.842 -0.4193  0.0210 -0.8668
  508MOL0     O66954   1.332   8.518   3.722 -0.0962  0.4552 -0.6536
  508MOL0     C66955   1.215   8.593   3.713 -0.7536 -0.5204  0.1728
  508MOL0     C66956   1.103   8.568   3.796  0.3876  0.0571  0.1829
  508MOL0     C66957   0.992   8.663   3.792  1.3916  0.0584 -0.3595
  508MOL0     C66958   0.989   8.775   3.704 -0.1544 -0.9542 -0.4322
  508MOL0     O66959   0.884   8.862   3.709 -0.3311  0.0469 -0.1749
  508MOL0     C66960   0.839   8.921   3.585 -0.5713 -0.1264  1.0960
  508MOL0     C66961   0.719   8.998   3.620  0.3250 -0.1685 -0.4978
  508MOL0     C66962   0.600   8.915   3.676 -0.3543  0.5980 -0.8906
  508MOL0     C66963   0.527   8.831   3.572  0.5216 -0.1321  0.4067
  508MOL0     C66964   0.395   8.777   3.625 -0.0245  0.4083  0.1141
  508MOL0     C66965   0.306   8.717   3.510 -0.4689 -0.7808 -0.0592
  508MOL0     C66966   0.174   8.656   3.557 -0.2538  0.5440 -0.1110
  508MOL0     C66967   0.082   8.659   3.438 -0.1641  0.4533 -0.1774
  508MOL0    Cl66968   0.044   8.824   3.385 -0.1146 -0.2646 -0.4265
  508MOL0     C66969   1.096   8.790   3.619 -0.0517  0.3640  0.3677
  508MOL0     C66970   1.207   8.700   3.626  0.8487  0.3334 -0.5184
  508MOL0     O66971   1.349   8.563   3.949  0.5115  0.3495  0.3539
  508MOL0     C66972   1.559   8.378   3.993 -0.1344 -0.5046  0.4546
  508MOL0     C66973   1.677   8.314   4.008 -0.3488 -0.6228  1.2188
  508MOL0     N66974   2.386   7.950   4.152 -0.1871 -0.0399 -0.4727
  508MOL0     N66975   2.497   7.964   4.092  0.2131 -0.1257  0.0939
  508MOL0     C66976   3.582   7.762   3.586 -0.2509 -0.2410  0.5039
  508MOL0     C66977   3.712   7.734   3.548  0.5430  0.4692  0.3467
  508MOL0     C66978   4.061   7.452   3.414 -0.3371 -0.7059 -0.5764
  508MOL0     C66979   4.125   7.547   3.331 -0.4857  0.7862 -0.5417
  508MOL0     C66980   4.253   7.528   3.280 -1.1561 -0.0480  0.0886
  508MOL0     C66981   4.323   7.409   3.295  0.0129 -0.6187 -0.0640
  508MOL0     O66982   4.441   7.373   3.243  0.6666 -0.0396 -0.3238
  508MOL0     C66983   4.524   7.461   3.171  0.2198 -0.4287  0.6355
  508MOL0     C66984   4.607   7.363   3.080 -0.4771 -0.4011  0.2920
  508MOL0     C66985   4.703   7.444   2.994 -0.1648 -0.3365 -0.2046
  508MOL0     C66986   4.821   7.493   3.069 -0.4574 -0.0236  0.0308
  508MOL0     C66987   4.911   7.567   2.973 -0.1415  0.3134 -0.1883
  508MOL0     C66988   4.985   7.633   2.898  0.0091  0.4436 -0.3512
  508MOL0     C66989   4.264   7.315   3.377  0.3261 -0.3161  0.2515
  508MOL0     C66990   4.130   7.330   3.417 -0.5857  0.4318 -1.0897
  508MOL0     H66991   3.653   7.454   3.358  0.5513  0.3193  0.6378
  508MOL0     H66992   3.434   7.492   3.443  0.6839 -2.0221  0.2203
  508MOL0     H66993   3.385   7.817   3.751  0.1605 -0.1396 -0.3877
  508MOL0     H66994   3.389   7.640   3.815 -0.8325 -1.3534 -0.6813
  508MOL0     H66995   3.179   7.753   3.887 -1.3826  3.0727 -2.4035
  508MOL0     H66996   3.174   7.605   3.787 -0.6377  0.2166 -0.9199
  508MOL0     H66997   3.052   7.707   3.614 -3.0213  2.7688 -0.3932
  508MOL0     H66998   3.145   7.855   3.639  1.0330  1.3303  1.7063
  508MOL0     H66999   2.964   7.780   3.859  4.7611 -3.0758 -0.8859
  508MOL0     H67000   2.997   7.940   3.793  1.1340 -0.0755  0.0865
  508MOL0     H67001   2.854   7.837   3.572  0.0246 -3.0177 -0.1242
  508MOL0     H67002   2.786   7.944   3.688 -1.0082 -0.3270 -0.1449
  508MOL0     H67003   2.797   7.653   3.734  3.4342  2.4888  0.7032
  508MOL0     H67004   2.652   7.729   3.652 -0.8453  0.8210  1.4694
  508MOL0     H67005   2.603   7.678   3.877  0.4676 -0.9000  0.6646
  508MOL0     H67006   2.735   7.770   3.941 -2.5325  0.5464  0.9082
  508MOL0     H67007   2.529   7.910   3.781  0.2220 -0.5216 -0.1466
  508MOL0     H67008   2.654   7.983   3.875 -0.1804 -0.5120 -2.6140
  508MOL0     H67009   2.325   7.778   3.889  0.2982  1.8974 -0.8029
  508MOL0     H67010   2.148   7.782   4.198  2.0511 -0.1648 -0.7599
  508MOL0     H67011   2.108   7.801   4.022  0.6675  1.7923 -2.2163
  508MOL0     H67012   2.133   8.043   4.201 -0.0193 -0.3646  0.0505
  508MOL0     H67013   1.985   7.949   4.187  0.8263 -0.4302  0.2630
  508MOL0     H67014   2.118   8.087   3.951 -0.0840  0.5889  0.2167
  508MOL0     H67015   1.989   7.962   3.942  0.3562 -3.1000  3.8897
  508MOL0     H67016   1.970   8.235   4.075  0.0102  2.1694 -3.8693
  508MOL0     H67017   1.856   8.108   4.093  0.1004 -0.5896 -0.4622
  508MOL0     H67018   1.758   8.245   3.696 -2.2109 -0.0916 -0.9271
  508MOL0     H67019   1.520   8.381   3.664 -3.7376  0.6466  1.3306
  508MOL0     H67020   1.098   8.496   3.878 -0.8241  3.1067  3.0155
  508MOL0     H67021   0.912   8.638   3.861 -0.3562 -0.4269 -2.4306
  508MOL0     H67022   0.813   8.849   3.507 -1.5792 -0.3316  1.6148
  508MOL0     H67023   0.915   8.995   3.559  0.6184 -0.5946  3.0877
  508MOL0     H67024   0.677   9.040   3.529 -3.3251 -0.5031  0.8545
  508MOL0     H67025   0.742   9.076   3.693 -1.1510 -0.3496  0.2050
  508MOL0     H67026   0.529   8.976   3.732 -1.6309  0.7311 -2.5721
  508MOL0     H67027   0.646   8.847   3.748 -0.3710  0.1161 -1.3295
  508MOL0     H67028   0.503   8.891   3.484 -1.4631 -1.0028  0.2907
  508MOL0     H67029   0.592   8.750   3.537 -1.2195 -1.1203 -0.6997
  508MOL0     H67030   0.346   8.862   3.674 -1.7404 -1.0757  1.0859
  508MOL0     H67031   0.411   8.704   3.704  1.3666  1.8478  1.2119
  508MOL0     H67032   0.360   8.630   3.470 -0.6643 -2.4512  2.9773
  508MOL0     H67033   0.293   8.789   3.429  0.4314 -2.3934 -1.7314
  508MOL0     H67034   0.183   8.548   3.574  2.6303  0.8265  0.7990
  508MOL0     H67035   0.129   8.705   3.644 -1.9458 -1.9055  0.5136
  508MOL0     H67036  -0.011   8.612   3.469  1.2453 -1.0433  2.1068
  508MOL0     H67037   0.127   8.601   3.357  0.0160 -1.4754  1.2535
  508MOL0     H67038   1.099   8.872   3.547 -4.5579  1.5239  1.1835
  508MOL0     H67039   1.286   8.726   3.557 -0.6589  1.7068 -1.8336
  508MOL0     H67040   1.518   8.431   4.078 -1.4668  0.9214 -0.9950
  508MOL0     H67041   1.706   8.295   4.111  0.3942  1.9672  1.5595
  508MOL0     H67042   3.562   7.847   3.650  0.9453  0.7176 -0.3425
  508MOL0     H67043   3.797   7.797   3.574  0.0863  1.6332 -0.8713
  508MOL0     H67044   4.081   7.646   3.322 -1.0869  0.4622 -1.3132
  508MOL0     H67045   4.304   7.608   3.226 -1.4092 -1.2619 -2.0616
  508MOL0     H67046   4.590   7.526   3.228 -0.0298 -1.5425  2.2846
  508MOL0     H67047   4.457   7.524   3.112 -1.8807 -2.6998  0.4035
  508MOL0     H67048   4.666   7.283   3.127  0.4739  0.6639  0.9530
  508MOL0     H67049   4.533   7.320   3.012 -1.3225  1.6946 -0.1702
  508MOL0     H67050   4.655   7.533   2.953  2.8554  1.1820 -0.7236
  508MOL0     H67051   4.742   7.385   2.910  1.3562 -0.5878  0.6353
  508MOL0     H67052   4.784   7.540   3.161 -2.8556  0.7509 -1.2453
  508MOL0     H67053   4.888   7.418   3.113 -0.7625 -0.4418 -0.2089
  508MOL0     H67054   5.054   7.694   2.844  1.2545  1.1384  1.8953
  508MOL0     H67055   4.331   7.233   3.398  0.2346 -0.2109  0.9836
  508MOL0     H67056   4.095   7.238   3.464 -3.3527  2.0032  0.1413
  509MOL0     O67057   2.456   0.227   7.718 -0.8398 -0.3062 -0.5526
  509MOL0     C67058   2.555   0.282   7.676 -0.1250  0.7267 -0.1348
  509MOL0     O67059   2.580   0.413   7.684 -0.1804  0.5938  0.4602
  509MOL0     C67060   2.475   0.497   7.708 -0.4138  0.2249 -0.4476
  509MOL0     C67061   2.444   0.574   7.604 -0.2470 -0.0674  0.3785
  509MOL0     C67062   2.334   0.666   7.619 -0.1341  0.1251  0.0126
  509MOL0     C67063   2.257   0.668   7.737 -0.7707 -0.5167  0.3562
  509MOL0     O67064   2.147   0.746   7.737  0.3317 -0.8078 -0.9663
  509MOL0     C67065   2.035   0.705   7.825 -0.3895  0.1449 -0.7613
  509MOL0     C67066   1.908   0.764   7.770  0.4942 -0.4591  0.4198
  509MOL0     C67067   1.867   0.724   7.626  0.3244 -0.5027  0.4717
  509MOL0     C67068   1.749   0.817   7.566 -0.4688  0.0923  0.0744
  509MOL0     C67069   1.807   0.942   7.504  0.1243  0.5036 -0.7572
  509MOL0     C67070   1.708   1.021   7.424 -0.5152 -0.3258  0.8966
  509MOL0     C67071   1.756   1.152   7.362 -0.3735 -0.2348  0.1385
  509MOL0     C67072   1.835   1.118   7.234  0.4729 -0.5442  0.0873
  509MOL0     N67073   1.763   1.126   7.105  0.2128 -0.2722  0.1399
  509MOL0     C67074   1.646   1.065   7.088  0.3953  0.8637 -0.3845
  509MOL0     C67075   1.582   1.135   6.991 -0.0824  0.1768 -0.1490
  509MOL0     C67076   1.444   1.105   6.934 -0.7604 -0.2347 -0.8457
  509MOL0     C67077   1.460   1.096   6.785 -0.1631  0.3523  0.5205
  509MOL0     C67078   1.331   1.027   6.719 -0.5146 -0.3144  0.5502
  509MOL0     C67079   1.208   1.109   6.720  1.1252  0.4295  1.0255
  509MOL0     O67080   1.115   1.042   6.804 -0.1161  0.3277 -0.2025
  509MOL0     C67081   1.012   0.973   6.744  0.1029  0.5859 -0.2577
  509MOL0     C67082   1.011   0.902   6.620  0.4915  0.1130 -0.3354
  509MOL0     C67083   0.893   0.847   6.564  0.0541 -0.2538  0.2577
  509MOL0     C67084   0.770   0.873   6.626 -0.1674  0.4286 -0.6082
  509MOL0     C67085   0.642   0.840   6.567  0.6191  0.5084  0.4166
  509MOL0     O67086   0.533   0.849   6.643  0.2289  0.6947  0.5667
  509MOL0     C67087   0.419   0.804   6.592 -0.8253 -0.5936  1.6473
  509MOL0     C67088   0.358   0.855   6.472  0.2515 -0.0221 -0.1646
  509MOL0     C67089   0.229   0.812   6.433  0.1368  0.3867 -0.6381
  509MOL0     C67090   0.157   0.732   6.512  0.5979  0.5337  0.1488
  509MOL0     O67091   0.033   0.691   6.476 -0.1621 -0.9620  0.7765
  509MOL0     C67092   0.035   0.573   6.394  1.1022 -0.7338  0.1707
  509MOL0     C67093  -0.109   0.543   6.347 -0.0441 -0.3769  0.9081
  509MOL0     C67094  -0.191   0.489   6.465 -0.7588 -0.4440 -0.9045
  509MOL0     C67095  -0.327   0.456   6.437  0.5477  0.3363  0.6176
  509MOL0     C67096  -0.392   0.412   6.566 -0.5838 -0.4750 -0.6273
  509MOL0     C67097  -0.529   0.364   6.563  1.1442  0.2887  0.5714
  509MOL0     C67098  -0.624   0.471   6.522  0.6051 -0.4733  0.4223
  509MOL0     C67099  -0.773   0.433   6.516 -0.1154  0.7719 -0.1978
  509MOL0    Cl67100  -0.854   0.405   6.682  0.1234  0.0356 -0.1223
  509MOL0     C67101   0.210   0.685   6.634 -1.0449 -0.2777 -0.8140
  509MOL0     C67102   0.341   0.719   6.671 -0.2257  0.8720  0.5571
  509MOL0     O67103   0.643   0.806   6.448  0.5419  0.3154  0.1848
  509MOL0     C67104   0.766   0.935   6.753 -0.1825 -0.4002 -0.4859
  509MOL0     C67105   0.885   0.973   6.815 -0.5203 -0.6920 -0.1342
  509MOL0     N67106   1.647   1.255   6.972 -0.3177  0.0322 -0.0291
  509MOL0     N67107   1.759   1.245   7.044  0.0286 -0.0726  0.1805
  509MOL0     C67108   2.300   0.593   7.846 -0.9616 -0.2560  0.5657
  509MOL0     C67109   2.405   0.510   7.830  0.4308  0.2603 -0.4391
  509MOL0     C67110   2.668   0.193   7.634 -0.1966 -1.0027  0.6951
  509MOL0     C67111   2.674   0.052   7.656  0.4071 -0.3168  0.3367
  509MOL0     C67112   2.772  -0.019   7.590  0.0997 -0.6368  0.6590
  509MOL0     C67113   2.864   0.035   7.497  0.1007 -0.6550 -0.2152
  509MOL0     O67114   2.965  -0.017   7.424 -0.6350  0.4170  0.6387
  509MOL0     C67115   2.999  -0.154   7.460 -0.2143  0.6648  0.4892
  509MOL0     C67116   3.066  -0.168   7.592 -0.5772  0.6603 -0.1401
  509MOL0     C67117   3.189  -0.072   7.613  0.0803  0.4036  0.1787
  509MOL0     C67118   3.299  -0.104   7.521 -1.0540 -0.8164 -1.1041
  509MOL0     C67119   3.429  -0.049   7.566  0.7478 -0.7131 -0.0116
  509MOL0     C67120   3.531   0.006   7.606  0.9918  0.3795 -1.2080
  509MOL0     C67121   2.861   0.172   7.484  0.0820 -0.0621 -0.2710
  509MOL0     C67122   2.767   0.251   7.554 -0.6316  0.0546  0.0626
  509MOL0     H67123   2.493   0.575   7.507 -1.3441  1.0772 -0.1998
  509MOL0     H67124   2.296   0.722   7.534  3.3144  0.7720 -1.2906
  509MOL0     H67125   2.059   0.729   7.928 -0.8909 -3.6391  0.4008
  509MOL0     H67126   2.022   0.596   7.821  0.0670  0.0786 -0.5338
  509MOL0     H67127   1.928   0.871   7.760  0.1286 -0.5632 -1.7795
  509MOL0     H67128   1.822   0.750   7.836  1.7118 -0.4411  2.0807
  509MOL0     H67129   1.839   0.619   7.637  0.8498 -0.4738  2.4899
  509MOL0     H67130   1.956   0.714   7.563  1.5109 -0.2836  2.0283
  509MOL0     H67131   1.697   0.761   7.487  2.4561 -1.2441 -1.0778
  509MOL0     H67132   1.675   0.837   7.644  0.5129  2.4001  0.5067
  509MOL0     H67133   1.882   0.910   7.432 -0.1923  2.8166 -2.2048
  509MOL0     H67134   1.857   1.013   7.571  0.1334  0.2350 -0.4738
  509MOL0     H67135   1.622   1.052   7.484 -1.3326  2.1606 -1.3525
  509MOL0     H67136   1.678   0.954   7.343  2.1471 -1.3958  0.6989
  509MOL0     H67137   1.665   1.206   7.336 -1.3043 -1.7352  0.1310
  509MOL0     H67138   1.822   1.208   7.428  0.2151  0.7871 -1.2691
  509MOL0     H67139   1.887   1.023   7.254  0.6086 -0.1242  1.8901
  509MOL0     H67140   1.929   1.175   7.231  1.0107 -0.7718  4.6671
  509MOL0     H67141   1.621   0.971   7.137  3.3974 -0.7880 -1.7208
  509MOL0     H67142   1.385   1.192   6.968  1.5974  0.8486  0.7475
  509MOL0     H67143   1.399   1.013   6.974  2.1225 -2.5755 -2.6372
  509MOL0     H67144   1.550   1.038   6.764 -0.5340 -0.6403  1.5469
  509MOL0     H67145   1.464   1.195   6.739 -3.9523  0.0094 -0.9188
  509MOL0     H67146   1.355   1.003   6.615 -1.8564 -1.3758  0.4499
  509MOL0     H67147   1.317   0.934   6.776  0.0570 -0.5963  0.2359
  509MOL0     H67148   1.168   1.112   6.618  1.4738 -0.9687  0.8330
  509MOL0     H67149   1.224   1.214   6.749 -0.5368  0.5241  1.7400
  509MOL0     H67150   1.088   0.873   6.550 -0.1233  2.4441 -2.0870
  509MOL0     H67151   0.885   0.795   6.469 -3.3057  2.2509 -1.0273
  509MOL0     H67152   0.405   0.933   6.414  0.0138  0.2881  0.0547
  509MOL0     H67153   0.184   0.843   6.339 -3.8457  2.0194  1.5242
  509MOL0     H67154   0.072   0.482   6.441 -4.9284 -2.3019  2.8748
  509MOL0     H67155   0.091   0.593   6.302 -0.9585  1.5776 -0.6997
  509MOL0     H67156  -0.111   0.463   6.273  0.6756  0.3750  0.0589
  509MOL0     H67157  -0.160   0.630   6.306 -0.2202 -0.6820  0.4726
  509MOL0     H67158  -0.189   0.568   6.540  1.6130  0.2859 -1.6519
  509MOL0     H67159  -0.144   0.397   6.501 -1.8473 -0.6020  0.2070
  509MOL0     H67160  -0.385   0.540   6.399 -0.6999 -0.8829 -0.2643
  509MOL0     H67161  -0.326   0.386   6.352  1.1859  1.4647 -0.3269
  509MOL0     H67162  -0.392   0.491   6.642 -2.5677  0.6357 -1.7059
  509MOL0     H67163  -0.345   0.320   6.603 -1.0127 -0.7919 -0.8681
  509MOL0     H67164  -0.566   0.315   6.654  0.7448 -0.1565  0.1775
  509MOL0     H67165  -0.539   0.291   6.482  0.2839 -0.1465  1.0568
  509MOL0     H67166  -0.612   0.551   6.596  0.4958 -1.2276  1.2792
  509MOL0     H67167  -0.600   0.514   6.425  0.5413  0.4514  0.8058
  509MOL0     H67168  -0.788   0.343   6.455 -1.5878  0.9157 -0.1004
  509MOL0     H67169  -0.819   0.516   6.462 -1.6665 -1.3892 -2.4519
  509MOL0     H67170   0.156   0.623   6.704  0.4798  1.4769  2.0936
  509MOL0     H67171   0.366   0.680   6.769  0.3847  0.9113  0.4208
  509MOL0     H67172   0.671   0.962   6.799  0.4060  1.6013 -0.3248
  509MOL0     H67173   0.876   1.029   6.908 -1.8142  0.7835 -1.1049
  509MOL0     H67174   2.252   0.595   7.944 -0.2804 -1.6952  0.9684
  509MOL0     H67175   2.437   0.452   7.916  0.9867  0.8104 -0.2699
  509MOL0     H67176   2.596  -0.008   7.703  0.1194 -1.3163 -1.3463
  509MOL0     H67177   2.772  -0.128   7.591  2.5202 -0.9194 -4.0638
  509MOL0     H67178   3.074  -0.192   7.390 -0.4421  0.8070  0.1671
  509MOL0     H67179   2.907  -0.214   7.455  0.6174 -0.6895  1.0117
  509MOL0     H67180   2.987  -0.150   7.665 -1.2282  1.6114 -1.0501
  509MOL0     H67181   3.101  -0.270   7.609  0.0928  0.2855 -3.1377
  509MOL0     H67182   3.216  -0.087   7.718 -0.2214  1.2927  0.3857
  509MOL0     H67183   3.154   0.028   7.589 -3.0525 -0.1648  1.8665
  509MOL0     H67184   3.302  -0.213   7.511 -0.9532 -1.0285  0.8670
  509MOL0     H67185   3.286  -0.073   7.417  0.7658 -0.7536 -1.3387
  509MOL0     H67186   3.628   0.039   7.638 -0.0315  0.3260  2.4335
  509MOL0     H67187   2.939   0.220   7.427  0.1042 -0.8430 -0.9117
  509MOL0     H67188   2.772   0.355   7.524 -2.7316  0.9924  2.6032
  510MOL0     O67189   9.307   4.345   7.425  0.5622 -0.3166  0.5100
  510MOL0     C67190   9.360   4.304   7.318  0.2997  1.0455 -0.7729
  510MOL0     O67191   9.332   4.185   7.250 -0.2967 -0.0451  0.0196
  510MOL0     C67192   9.225   4.114   7.289  0.1491  0.4492  0.3823
  510MOL0     C67193   9.106   4.106   7.219  0.3697 -0.6519  0.4207
  510MOL0     C67194   9.008   4.008   7.249  0.2996  0.1517 -0.2752
  510MOL0     C67195   9.023   3.929   7.362 -0.1577 -0.2055 -0.0736
  510MOL0     O67196   8.909   3.850   7.393  0.7737 -0.1107 -0.3714
  510MOL0     C67197   8.918   3.759   7.498 -0.4345 -0.3454  0.4382
  510MOL0     C67198   8.798   3.658   7.508  0.1885  0.7133  0.3271
  510MOL0     C67199   8.662   3.721   7.516  0.9487  0.7823 -0.3250
  510MOL0     C67200   8.555   3.610   7.551 -0.6751 -0.6232  0.7235
  510MOL0     C67201   8.419   3.676   7.527  1.2510  0.1334 -0.2784
  510MOL0     C67202   8.309   3.573   7.540  0.7194 -0.1334  0.1961
  510MOL0     C67203   8.175   3.639   7.536 -0.0225  0.1466  0.4285
  510MOL0     C67204   8.078   3.538   7.603 -0.6006 -0.3164 -0.2080
  510MOL0     N67205   8.065   3.542   7.746 -0.4772 -0.3487  0.3594
  510MOL0     C67206   8.159   3.564   7.838 -0.9276  0.4813  0.2201
  510MOL0     C67207   8.094   3.573   7.962 -0.9410  0.2612  0.3776
  510MOL0     C67208   8.159   3.614   8.094 -0.2428 -0.2678  0.2826
  510MOL0     C67209   8.060   3.687   8.181 -0.3986  0.0927 -1.0519
  510MOL0     C67210   8.115   3.677   8.324  0.7456 -0.5110 -0.6171
  510MOL0     C67211   8.038   3.761   8.420 -0.5731  0.3447  0.0139
  510MOL0     O67212   7.911   3.701   8.452  0.0842  0.2311 -0.5375
  510MOL0     C67213   7.797   3.767   8.400  0.2265  0.6284  0.2861
  510MOL0     C67214   7.791   3.857   8.301 -0.1546 -0.8044  0.3534
  510MOL0     C67215   7.675   3.913   8.259  0.6395 -0.1062  0.3452
  510MOL0     C67216   7.547   3.877   8.319 -0.3414 -0.0626  0.0524
  510MOL0     C67217   7.419   3.943   8.274  0.1692 -0.1950  0.3688
  510MOL0     O67218   7.306   3.914   8.344  0.1162 -0.3715 -0.7030
  510MOL0     C67219   7.178   3.957   8.302 -0.3693  0.2441 -0.3763
  510MOL0     C67220   7.079   3.856   8.282 -0.1321 -0.4799 -0.0702
  510MOL0     C67221   6.947   3.885   8.249  0.5580 -0.6664  0.2799
  510MOL0     C67222   6.908   4.022   8.251  0.0133 -0.0361 -0.5386
  510MOL0     O67223   6.774   4.043   8.233  0.0202 -0.5562 -0.5959
  510MOL0     C67224   6.721   4.181   8.232  0.5162  0.5890 -0.5281
  510MOL0     C67225   6.573   4.157   8.243  0.1933 -0.2365 -0.0970
  510MOL0     C67226   6.487   4.291   8.217  1.1781 -0.6682 -0.3720
  510MOL0     C67227   6.524   4.403   8.318 -0.0106 -1.0086 -0.8572
  510MOL0     C67228   6.425   4.516   8.311  0.0370  0.0525  0.1197
  510MOL0     C67229   6.435   4.612   8.426 -0.6560 -0.0103 -0.2119
  510MOL0     C67230   6.436   4.541   8.560 -0.2503  0.2474 -0.9707
  510MOL0     C67231   6.304   4.466   8.590 -1.6188  0.3229 -0.3679
  510MOL0    Cl67232   6.182   4.571   8.668  0.2789 -0.2498  0.3944
  510MOL0     C67233   7.007   4.120   8.259 -0.1699  0.2488 -0.4418
  510MOL0     C67234   7.146   4.089   8.284  0.6489  0.5560  0.0834
  510MOL0     O67235   7.429   4.017   8.176 -0.1638 -0.3570 -0.6619
  510MOL0     C67236   7.547   3.782   8.409  0.5307 -0.4013 -0.0114
  510MOL0     C67237   7.673   3.736   8.460  0.5202  0.4980  0.1953
  510MOL0     N67238   7.958   3.555   7.938 -0.2318  0.5040  0.1421
  510MOL0     N67239   7.947   3.544   7.814 -0.5802  0.5574  0.2489
  510MOL0     C67240   9.139   3.938   7.442  0.4700 -0.4506  0.1668
  510MOL0     C67241   9.242   4.030   7.396 -0.4497  0.7440  0.7336
  510MOL0     C67242   9.463   4.391   7.260 -0.1339 -0.2827  1.0213
  510MOL0     C67243   9.500   4.375   7.125  0.4303  0.0587 -0.5749
  510MOL0     C67244   9.604   4.458   7.067 -0.4640  0.1341  0.4096
  510MOL0     C67245   9.663   4.566   7.138  0.1310  0.8256  0.9409
  510MOL0     O67246   9.765   4.648   7.086  0.3374  0.0141  0.0158
  510MOL0     C67247   9.860   4.590   6.996 -0.3155 -0.8009 -0.7518
  510MOL0     C67248   9.933   4.712   6.930  0.3511  0.3149  0.0423
  510MOL0     C67249  10.042   4.784   7.012  0.5828  0.6440 -0.1207
  510MOL0     C67250  10.103   4.895   6.929 -0.2451 -0.1598  0.3576
  510MOL0     C67251  10.025   5.010   6.885 -0.1540  0.0465  0.3958
  510MOL0     C67252   9.943   5.095   6.854 -0.3372 -0.5850 -0.4999
  510MOL0     C67253   9.617   4.585   7.267 -0.9140 -0.5906 -0.0534
  510MOL0     C67254   9.519   4.506   7.324 -0.2591 -0.0101 -0.2236
  510MOL0     H67255   9.092   4.173   7.135  0.5596  0.3930  1.1973
  510MOL0     H67256   8.915   4.000   7.193  0.0935  2.0909 -0.2695
  510MOL0     H67257   8.917   3.811   7.595  1.1169  2.4013 -0.8904
  510MOL0     H67258   9.014   3.706   7.495 -0.0611  0.3376  0.2387
  510MOL0     H67259   8.805   3.592   7.595  1.4249 -0.7790 -0.8337
  510MOL0     H67260   8.798   3.602   7.414 -4.3407  1.9703 -0.6576
  510MOL0     H67261   8.642   3.782   7.428 -1.0981 -0.7317 -1.0031
  510MOL0     H67262   8.654   3.782   7.607 -0.9843  0.7644 -0.4393
  510MOL0     H67263   8.572   3.513   7.504 -1.9638 -0.9462  0.8854
  510MOL0     H67264   8.568   3.580   7.655  0.1861 -2.8478  0.0250
  510MOL0     H67265   8.407   3.727   7.431 -0.7541  0.5028  0.1113
  510MOL0     H67266   8.401   3.756   7.600 -0.6147 -2.1185  1.9272
  510MOL0     H67267   8.322   3.534   7.641  0.9163 -0.6701 -0.0312
  510MOL0     H67268   8.317   3.494   7.464 -2.7278 -1.3653  0.9339
  510MOL0     H67269   8.182   3.728   7.600  2.9803  1.5672 -1.6204
  510MOL0     H67270   8.139   3.673   7.439 -4.0431 -0.0761  1.6756
  510MOL0     H67271   8.108   3.435   7.582  0.5888 -0.2750  1.1077
  510MOL0     H67272   7.981   3.549   7.555  0.8138  1.4977 -2.8911
  510MOL0     H67273   8.266   3.574   7.819 -0.9290  0.7048  0.3248
  510MOL0     H67274   8.247   3.677   8.076  0.1379 -0.1727  2.2076
  510MOL0     H67275   8.187   3.520   8.142  2.7773  1.6357  2.6105
  510MOL0     H67276   7.966   3.631   8.183  0.0554 -0.7788 -2.6356
  510MOL0     H67277   8.044   3.794   8.162  1.8432  0.8879  1.0693
  510MOL0     H67278   8.105   3.576   8.366 -2.9644  0.3674  0.9855
  510MOL0     H67279   8.220   3.708   8.327  1.4934 -2.8320 -0.2152
  510MOL0     H67280   8.033   3.866   8.388 -0.3714 -0.5501 -3.2391
  510MOL0     H67281   8.103   3.761   8.508 -0.8522 -0.5987  0.2252
  510MOL0     H67282   7.886   3.887   8.257  0.4688 -1.2895  1.3197
  510MOL0     H67283   7.679   3.997   8.189  0.7579 -1.2684 -1.0948
  510MOL0     H67284   7.110   3.752   8.288 -2.1269 -1.4312 -3.2760
  510MOL0     H67285   6.877   3.805   8.230 -0.6185  0.0413  1.4487
  510MOL0     H67286   6.745   4.254   8.154  3.1455  0.6155  0.2007
  510MOL0     H67287   6.766   4.220   8.324  0.2556 -0.5879  0.1243
  510MOL0     H67288   6.552   4.120   8.343 -2.7684  0.8403 -0.2202
  510MOL0     H67289   6.537   4.079   8.175 -2.0253 -0.1045  0.8434
  510MOL0     H67290   6.380   4.271   8.225  0.2472  2.8237 -1.9924
  510MOL0     H67291   6.498   4.332   8.116  1.6875 -0.3404 -0.1865
  510MOL0     H67292   6.543   4.360   8.417  0.3660 -1.8979 -1.3034
  510MOL0     H67293   6.618   4.454   8.295  0.9381 -2.5814 -0.6194
  510MOL0     H67294   6.325   4.473   8.308  0.0641 -0.2329  1.9216
  510MOL0     H67295   6.438   4.573   8.218  2.0878 -0.5228 -0.0020
  510MOL0     H67296   6.349   4.679   8.423 -1.1303 -0.4651  1.9146
  510MOL0     H67297   6.528   4.669   8.415 -2.2283  2.4040 -1.6988
  510MOL0     H67298   6.521   4.476   8.582 -1.2735 -0.4548  1.1698
  510MOL0     H67299   6.439   4.600   8.653  0.0014  0.7853 -1.3175
  510MOL0     H67300   6.325   4.396   8.672  0.5250  1.2724 -0.0359
  510MOL0     H67301   6.273   4.415   8.499  1.1900  0.8481 -1.7145
  510MOL0     H67302   6.985   4.226   8.260 -0.6492  0.1992  2.3231
  510MOL0     H67303   7.223   4.163   8.303  1.1693  0.1117 -0.2772
  510MOL0     H67304   7.457   3.757   8.464  1.3818  1.2663  2.2824
  510MOL0     H67305   7.686   3.664   8.540 -0.4895  0.6661  0.5222
  510MOL0     H67306   9.169   3.880   7.528 -0.9738 -1.5095 -0.0248
  510MOL0     H67307   9.340   4.010   7.438  0.5459  1.0715 -1.3008
  510MOL0     H67308   9.449   4.305   7.058 -0.0188 -0.4966  0.3245
  510MOL0     H67309   9.644   4.442   6.968  1.0675  4.0911  0.1965
  510MOL0     H67310   9.810   4.538   6.915 -1.1256  1.1354 -1.5519
  510MOL0     H67311   9.930   4.528   7.054 -0.7964 -1.1899 -0.5871
  510MOL0     H67312   9.987   4.682   6.840  1.0447 -1.3303  0.9466
  510MOL0     H67313   9.851   4.783   6.915 -0.9855 -0.6955  2.0759
  510MOL0     H67314  10.116   4.710   7.045 -0.0652 -0.2403 -0.5946
  510MOL0     H67315  10.010   4.827   7.107  1.7731  0.0264  0.5874
  510MOL0     H67316  10.171   4.945   6.999  0.6349 -1.4854  0.4906
  510MOL0     H67317  10.166   4.859   6.847 -2.1932  2.1113 -2.3295
  510MOL0     H67318   9.874   5.165   6.813  0.9037 -0.8482 -3.2406
  510MOL0     H67319   9.658   4.671   7.318  0.8819  0.7200 -3.3786
  510MOL0     H67320   9.477   4.551   7.413  0.8139  0.9584 -0.1909
  511MOL0     O67321   1.526   7.834   5.446  0.2668 -0.5291  0.1905
  511MOL0     C67322   1.595   7.873   5.351  0.0566  0.2578 -1.1689
  511MOL0     O67323   1.548   7.931   5.239 -0.8320  0.5585 -0.1032
  511MOL0     C67324   1.424   7.984   5.247 -0.3271 -0.3515 -0.4626
  511MOL0     C67325   1.329   7.947   5.152 -0.5638  0.0066 -0.0227
  511MOL0     C67326   1.210   8.022   5.154 -0.2686  0.4118  0.6307
  511MOL0     C67327   1.190   8.136   5.235  0.6671  0.0712  0.0104
  511MOL0     O67328   1.069   8.192   5.252 -0.4407  0.1188 -0.6119
  511MOL0     C67329   0.960   8.121   5.200 -0.3903  0.3161 -0.0103
  511MOL0     C67330   0.831   8.193   5.243 -0.0581 -1.0105 -0.0450
  511MOL0     C67331   0.700   8.121   5.200  0.0338 -0.0474  0.4701
  511MOL0     C67332   0.584   8.172   5.284 -0.0798  0.1169 -0.3385
  511MOL0     C67333   0.453   8.106   5.255 -1.1871  1.0446 -0.1512
  511MOL0     C67334   0.387   8.145   5.113  0.6768  0.2482 -0.9740
  511MOL0     C67335   0.238   8.118   5.099 -0.0817 -0.2112  0.2173
  511MOL0     C67336   0.177   8.195   4.986 -0.2884  0.2300  0.5351
  511MOL0     N67337   0.027   8.196   4.998  0.4807 -0.1461  0.5494
  511MOL0     C67338  -0.055   8.091   5.004 -0.3401 -0.0128 -1.0857
  511MOL0     C67339  -0.181   8.147   5.002 -1.0646 -0.1660 -0.2915
  511MOL0     C67340  -0.309   8.074   5.020  0.2361 -0.9526 -0.1541
  511MOL0     C67341  -0.345   7.993   4.896  0.1111  0.0388  0.5020
  511MOL0     C67342  -0.316   8.056   4.751  0.9360 -0.5573 -0.7324
  511MOL0     C67343  -0.307   7.947   4.645  0.6036  0.0610 -1.2665
  511MOL0     O67344  -0.231   7.831   4.688  0.7080  0.2416  0.0685
  511MOL0     C67345  -0.099   7.853   4.731 -0.1835  1.2986  0.0877
  511MOL0     C67346  -0.062   7.770   4.837  0.2674 -0.3852 -0.0765
  511MOL0     C67347   0.072   7.770   4.879  0.6046  0.1158 -0.7752
  511MOL0     C67348   0.162   7.854   4.824 -0.7451 -0.0080 -0.0304
  511MOL0     C67349   0.304   7.851   4.879  0.5738 -0.0146 -0.1940
  511MOL0     O67350   0.333   7.781   4.992 -0.1886  0.6706 -0.0251
  511MOL0     C67351   0.466   7.752   5.031  0.3408  0.2041 -0.1268
  511MOL0     C67352   0.580   7.762   4.957 -0.5926 -0.3366 -0.1909
  511MOL0     C67353   0.705   7.733   5.019  0.3094  0.0428 -0.5701
  511MOL0     C67354   0.715   7.692   5.154  0.8518 -0.4777  0.1749
  511MOL0     O67355   0.828   7.651   5.215 -0.3048  0.5962 -0.5182
  511MOL0     C67356   0.952   7.670   5.148  0.2675 -0.6312 -0.0683
  511MOL0     C67357   1.064   7.626   5.238 -0.0333 -0.1381 -0.2242
  511MOL0     C67358   1.097   7.710   5.360  0.8085  0.0670  0.0146
  511MOL0     C67359   1.214   7.659   5.446  0.6282 -0.6664  0.4831
  511MOL0     C67360   1.171   7.538   5.534  0.4239  0.0315 -0.0815
  511MOL0     C67361   1.071   7.580   5.646  0.0984 -0.4496 -0.4094
  511MOL0     C67362   1.047   7.461   5.735  0.4077  0.4133 -0.0843
  511MOL0     C67363   0.995   7.494   5.873 -0.0569  0.2218  0.4119
  511MOL0    Cl67364   1.114   7.569   5.979  0.2249 -0.0692 -0.0203
  511MOL0     C67365   0.597   7.678   5.224 -0.5246 -0.2145 -0.7891
  511MOL0     C67366   0.477   7.714   5.161 -0.9375  0.0653 -0.3650
  511MOL0     O67367   0.383   7.915   4.811  0.1477  0.0412  0.0036
  511MOL0     C67368   0.122   7.937   4.711 -0.2189  0.1275  0.3468
  511MOL0     C67369  -0.009   7.929   4.661  0.5357 -0.2448  0.0532
  511MOL0     N67370  -0.169   8.280   5.014 -1.1549 -0.1031  0.0356
  511MOL0     N67371  -0.044   8.304   5.011  0.5068  1.2011  0.2606
  511MOL0     C67372   1.276   8.167   5.335  0.1688  0.2977  0.3615
  511MOL0     C67373   1.396   8.092   5.339 -0.0823 -0.4635  0.5655
  511MOL0     C67374   1.743   7.867   5.363  0.0593  0.9603 -0.1116
  511MOL0     C67375   1.814   7.902   5.484 -0.3549  0.4048 -0.0410
  511MOL0     C67376   1.957   7.899   5.481 -0.0238  0.1485 -0.9591
  511MOL0     C67377   2.026   7.841   5.372  0.4166  0.4185 -0.4533
  511MOL0     O67378   2.160   7.840   5.395  1.0408 -0.1633  0.3089
  511MOL0     C67379   2.246   7.839   5.288  0.3172  0.5211 -0.3048
  511MOL0     C67380   2.378   7.886   5.323 -0.4471  0.3528 -0.4609
  511MOL0     C67381   2.440   7.801   5.431 -0.3467  0.2964  0.3889
  511MOL0     C67382   2.583   7.849   5.474  1.1282  0.4252 -0.2249
  511MOL0     C67383   2.651   7.758   5.566 -0.2261 -0.5753  0.4249
  511MOL0     C67384   2.709   7.704   5.659 -0.4835 -0.2453 -0.2426
  511MOL0     C67385   1.957   7.814   5.254  0.4657  0.0263 -0.1117
  511MOL0     C67386   1.814   7.829   5.245 -0.5307 -0.4461  0.0271
  511MOL0     H67387   1.343   7.864   5.083  1.4149 -0.7842  1.2444
  511MOL0     H67388   1.132   7.989   5.085  2.4421  0.0780 -2.5579
  511MOL0     H67389   0.959   8.017   5.234 -0.5758  0.4867  0.5194
  511MOL0     H67390   0.958   8.132   5.091  0.4060 -0.3855 -0.1037
  511MOL0     H67391   0.831   8.290   5.192  1.3802 -1.7375 -1.5414
  511MOL0     H67392   0.834   8.200   5.352 -0.3221 -2.1197  0.0463
  511MOL0     H67393   0.704   8.013   5.215 -1.2070 -0.3048 -0.8109
  511MOL0     H67394   0.690   8.128   5.091 -0.7516 -3.9921  0.1382
  511MOL0     H67395   0.606   8.151   5.389  1.8459 -3.4296 -1.2716
  511MOL0     H67396   0.581   8.281   5.278 -0.0364  0.2650  1.6208
  511MOL0     H67397   0.388   8.124   5.341  1.5289 -0.4834  2.4331
  511MOL0     H67398   0.470   7.999   5.247 -1.0065  1.1565 -1.7356
  511MOL0     H67399   0.432   8.093   5.028  1.5571  0.0465 -0.4024
  511MOL0     H67400   0.404   8.252   5.095 -2.4984  0.4480 -3.5960
  511MOL0     H67401   0.224   8.009   5.100  2.0824 -0.5392  0.5762
  511MOL0     H67402   0.194   8.160   5.190 -3.0737 -0.3516 -1.0403
  511MOL0     H67403   0.209   8.165   4.886  0.3172  2.7840 -0.1269
  511MOL0     H67404   0.219   8.296   4.993  1.4193 -0.4984  1.3870
  511MOL0     H67405  -0.032   7.986   4.991 -0.6505 -0.0539 -1.3149
  511MOL0     H67406  -0.384   8.152   5.033  0.0606 -1.3557  1.5092
  511MOL0     H67407  -0.307   8.012   5.110  1.9572 -1.6121 -0.6075
  511MOL0     H67408  -0.453   7.983   4.900 -0.2206  0.4510 -3.3901
  511MOL0     H67409  -0.304   7.893   4.912  2.8135  1.1677  1.2943
  511MOL0     H67410  -0.394   8.127   4.723  1.5739 -0.7697 -3.2908
  511MOL0     H67411  -0.225   8.117   4.753  3.4149 -4.0134  0.2192
  511MOL0     H67412  -0.257   7.971   4.551  0.9240  1.2114 -0.8185
  511MOL0     H67413  -0.409   7.914   4.625  0.4640 -1.0465  0.9631
  511MOL0     H67414  -0.134   7.706   4.886 -1.2251 -0.3479 -2.1080
  511MOL0     H67415   0.092   7.702   4.962 -0.5620 -1.6784 -1.9067
  511MOL0     H67416   0.584   7.768   4.849 -0.2308  1.7917 -0.1013
  511MOL0     H67417   0.791   7.737   4.953  1.2545  2.0036  0.6656
  511MOL0     H67418   0.975   7.775   5.128  1.9305  0.6351  6.0895
  511MOL0     H67419   0.941   7.608   5.059 -3.1983 -0.3829  0.0742
  511MOL0     H67420   1.150   7.632   5.171 -0.2139 -2.2968 -0.7139
  511MOL0     H67421   1.053   7.519   5.255 -2.6934  0.0302 -0.3979
  511MOL0     H67422   1.014   7.730   5.428  0.7207  0.7537 -0.2888
  511MOL0     H67423   1.128   7.808   5.323  1.1758 -0.6728 -1.7504
  511MOL0     H67424   1.288   7.622   5.376 -0.9021 -1.3248 -0.8552
  511MOL0     H67425   1.248   7.743   5.507  1.5030  0.2847 -1.2522
  511MOL0     H67426   1.266   7.502   5.574  0.3507 -0.4330 -0.3166
  511MOL0     H67427   1.115   7.464   5.476 -1.3092  0.7731  0.5698
  511MOL0     H67428   0.972   7.598   5.602 -0.4538 -4.3042 -1.1395
  511MOL0     H67429   1.110   7.669   5.695  0.8351 -0.7003 -0.5276
  511MOL0     H67430   0.965   7.406   5.687 -1.2716  2.4000  0.3611
  511MOL0     H67431   1.138   7.402   5.748 -0.3442 -0.6047  0.7532
  511MOL0     H67432   0.959   7.400   5.918  1.4561 -0.5335  0.1105
  511MOL0     H67433   0.912   7.565   5.867  1.3088  1.7530 -1.3496
  511MOL0     H67434   0.600   7.643   5.327  0.4537 -0.0998 -0.7692
  511MOL0     H67435   0.386   7.710   5.219 -0.4330  1.3166  0.5552
  511MOL0     H67436   0.192   8.009   4.669 -3.3406  2.1162 -1.8402
  511MOL0     H67437  -0.035   7.979   4.569  6.5254 -0.8475 -2.4357
  511MOL0     H67438   1.256   8.259   5.389  1.7756  2.6434 -2.7582
  511MOL0     H67439   1.478   8.125   5.402  0.5258  0.4901 -0.6774
  511MOL0     H67440   1.767   7.926   5.578 -6.0593 -0.7587 -2.2354
  511MOL0     H67441   2.004   7.930   5.574  0.6158 -1.4232 -0.7341
  511MOL0     H67442   2.202   7.898   5.207 -3.2810 -0.0113  1.0663
  511MOL0     H67443   2.256   7.735   5.257 -3.0885  0.3828 -1.2568
  511MOL0     H67444   2.443   7.900   5.235  1.6839  2.5885  1.2972
  511MOL0     H67445   2.377   7.982   5.376  1.5116 -1.1963  2.6090
  511MOL0     H67446   2.454   7.700   5.392 -0.7380  0.7555 -0.9620
  511MOL0     H67447   2.370   7.794   5.515 -0.1828  1.3390  0.6229
  511MOL0     H67448   2.639   7.870   5.383  0.4336  2.2053 -0.2787
  511MOL0     H67449   2.577   7.939   5.535 -0.8128  0.9152 -1.0442
  511MOL0     H67450   2.762   7.643   5.730  0.9025  0.0476 -0.9864
  511MOL0     H67451   2.001   7.773   5.164 -0.1256  2.9484 -1.8915
  511MOL0     H67452   1.759   7.802   5.155  2.6226  0.0856 -2.2149
  512MOL0     O67453   8.621   0.490   5.874 -0.4682  0.4520 -0.8619
  512MOL0     C67454   8.645   0.466   5.752  0.6980 -0.5157 -0.2954
  512MOL0     O67455   8.550   0.473   5.646  0.1835 -0.3125  0.5484
  512MOL0     C67456   8.423   0.498   5.684 -0.4648  0.2140  0.1160
  512MOL0     C67457   8.370   0.629   5.704 -0.0290  0.0365 -0.1925
  512MOL0     C67458   8.238   0.643   5.735  0.2328 -0.5017  0.2049
  512MOL0     C67459   8.148   0.533   5.756 -0.0056  0.1326 -0.1391
  512MOL0     O67460   8.020   0.556   5.808 -0.4459 -0.1318 -0.6368
  512MOL0     C67461   7.912   0.472   5.781 -0.4386  0.5376  0.1531
  512MOL0     C67462   7.804   0.534   5.863 -0.8536  0.4851 -0.4022
  512MOL0     C67463   7.676   0.456   5.857 -0.9824  0.1076 -0.2421
  512MOL0     C67464   7.551   0.543   5.876 -0.4979 -0.3795  0.7177
  512MOL0     C67465   7.425   0.459   5.871  0.8908  0.4004 -0.4298
  512MOL0     C67466   7.303   0.539   5.927 -0.9214  0.2039  0.3488
  512MOL0     C67467   7.180   0.475   5.884 -0.4420 -0.5369 -0.9584
  512MOL0     C67468   7.055   0.542   5.933  0.5972 -0.3819  0.5212
  512MOL0     N67469   6.939   0.499   5.865 -1.0388  0.4568  0.3544
  512MOL0     C67470   6.809   0.542   5.897  0.4280  1.3722  0.1015
  512MOL0     C67471   6.730   0.468   5.811 -1.0341 -0.5230  0.1580
  512MOL0     C67472   6.582   0.470   5.805 -0.1801  0.9746  0.4110
  512MOL0     C67473   6.527   0.337   5.744 -1.0177 -0.3898 -0.6306
  512MOL0     C67474   6.372   0.323   5.775 -0.7911 -0.2214  0.7300
  512MOL0     C67475   6.322   0.184   5.759  0.9894  0.5413 -0.5855
  512MOL0     O67476   6.197   0.185   5.828 -0.3063 -0.2116  0.6382
  512MOL0     C67477   6.113   0.092   5.786 -0.3631  0.0592 -0.1384
  512MOL0     C67478   5.988   0.122   5.746  0.4966  0.5172 -0.2936
  512MOL0     C67479   5.898   0.031   5.693 -0.7981  0.1932 -0.5731
  512MOL0     C67480   5.946  -0.106   5.692  1.0566  0.6460  0.5275
  512MOL0     C67481   5.849  -0.212   5.665  0.2254  0.0019  0.3432
  512MOL0     O67482   5.718  -0.169   5.676  0.9104 -0.4743  0.4045
  512MOL0     C67483   5.612  -0.247   5.633 -0.4882  0.2371 -0.4716
  512MOL0     C67484   5.485  -0.203   5.655  1.1142 -0.0468  0.2739
  512MOL0     C67485   5.373  -0.282   5.627 -0.2543  0.1480  0.5800
  512MOL0     C67486   5.391  -0.404   5.552  0.6156 -0.7861  1.0919
  512MOL0     O67487   5.288  -0.483   5.500  0.0856 -0.0224 -0.1775
  512MOL0     C67488   5.153  -0.464   5.535  0.2885 -0.8427 -0.3414
  512MOL0     C67489   5.081  -0.595   5.506  0.4576  1.2757  0.6719
  512MOL0     C67490   4.929  -0.607   5.536 -0.9066  0.0422 -0.2870
  512MOL0     C67491   4.853  -0.513   5.445 -0.6985  0.2835 -0.9001
  512MOL0     C67492   4.697  -0.512   5.464 -0.6473  0.1870  1.1695
  512MOL0     C67493   4.645  -0.498   5.611  0.8988 -0.1597  0.0400
  512MOL0     C67494   4.503  -0.446   5.624  1.4006  0.1859  0.2433
  512MOL0     C67495   4.404  -0.497   5.526  0.7687  0.8057  0.0368
  512MOL0    Cl67496   4.400  -0.680   5.549 -0.0881  0.1331  0.2007
  512MOL0     C67497   5.524  -0.448   5.514 -0.6863  0.5597 -0.6830
  512MOL0     C67498   5.633  -0.368   5.564 -0.2026  1.1846  0.2069
  512MOL0     O67499   5.891  -0.321   5.640  0.1714  0.1563 -0.1552
  512MOL0     C67500   6.073  -0.148   5.739  0.1479 -0.0334 -0.6767
  512MOL0     C67501   6.155  -0.046   5.781 -0.0400  0.2368 -0.6270
  512MOL0     N67502   6.813   0.387   5.731  0.4210  0.5246  0.0354
  512MOL0     N67503   6.937   0.401   5.773 -0.0259  0.0031 -0.1544
  512MOL0     C67504   8.204   0.403   5.743 -0.7657  0.1016 -0.9979
  512MOL0     C67505   8.335   0.386   5.692  0.3266 -0.7090  0.8650
  512MOL0     C67506   8.784   0.435   5.719  0.4233  0.8398 -0.0864
  512MOL0     C67507   8.895   0.451   5.813 -0.5397 -0.4302  0.7196
  512MOL0     C67508   9.026   0.433   5.780 -0.5436  0.1171 -0.2814
  512MOL0     C67509   9.069   0.391   5.657 -0.3672 -0.7460 -0.4521
  512MOL0     O67510   9.204   0.376   5.640 -0.0693 -0.2527  0.1585
  512MOL0     C67511   9.244   0.383   5.503 -0.0256  0.2582 -0.1818
  512MOL0     C67512   9.375   0.456   5.503  0.1595 -0.5561  0.3053
  512MOL0     C67513   9.364   0.614   5.533 -0.5612  0.9891  0.4877
  512MOL0     C67514   9.477   0.693   5.464  0.8782  0.1081 -0.8882
  512MOL0     C67515   9.604   0.677   5.531 -0.6064 -0.7468 -0.8074
  512MOL0     C67516   9.716   0.639   5.575 -0.2171  0.3259 -0.1581
  512MOL0     C67517   8.962   0.378   5.561 -0.1005  0.0429  0.4025
  512MOL0     C67518   8.822   0.383   5.595 -0.4403 -0.5377  0.7394
  512MOL0     H67519   8.441   0.711   5.705 -1.5556  1.4268 -0.0415
  512MOL0     H67520   8.192   0.739   5.756 -1.1105 -1.7074  3.5582
  512MOL0     H67521   7.934   0.369   5.810  1.0448  1.2791  1.8560
  512MOL0     H67522   7.881   0.487   5.677 -2.1488  0.2299  0.5819
  512MOL0     H67523   7.788   0.636   5.827 -2.7753  0.7440  0.9986
  512MOL0     H67524   7.821   0.539   5.971  1.4427  1.6528 -0.7796
  512MOL0     H67525   7.683   0.373   5.928  0.0647 -0.5216 -1.0515
  512MOL0     H67526   7.667   0.407   5.760  0.5662  0.6504 -0.6770
  512MOL0     H67527   7.562   0.593   5.972  0.5076 -0.1935  0.5182
  512MOL0     H67528   7.557   0.623   5.802  0.6150 -2.1018 -1.1778
  512MOL0     H67529   7.434   0.369   5.933  2.0260  2.6815  3.0012
  512MOL0     H67530   7.413   0.423   5.769 -0.2266  2.1063 -0.9327
  512MOL0     H67531   7.301   0.643   5.894 -4.1191  0.1792  0.1821
  512MOL0     H67532   7.309   0.542   6.036  0.2415  0.1343  0.3008
  512MOL0     H67533   7.178   0.482   5.774  0.9428  3.5254 -0.8837
  512MOL0     H67534   7.170   0.371   5.917 -2.1095  0.5147  2.1903
  512MOL0     H67535   7.057   0.652   5.925  1.7616 -0.4469 -0.3425
  512MOL0     H67536   7.041   0.531   6.041 -1.0875  2.1131  0.6524
  512MOL0     H67537   6.781   0.613   5.974 -0.3902 -0.7799  1.9255
  512MOL0     H67538   6.546   0.549   5.738 -0.1252 -0.5202 -1.4902
  512MOL0     H67539   6.551   0.480   5.909  1.1817  1.1098  0.8247
  512MOL0     H67540   6.575   0.254   5.796 -2.3375 -0.9676 -0.2775
  512MOL0     H67541   6.552   0.337   5.637 -0.9794  1.9049 -0.6766
  512MOL0     H67542   6.353   0.365   5.874 -0.9124  4.7390 -1.1336
  512MOL0     H67543   6.326   0.398   5.710  1.4820 -0.8204 -1.7431
  512MOL0     H67544   6.392   0.117   5.810  0.7542 -0.5435 -1.6459
  512MOL0     H67545   6.316   0.156   5.653 -0.9871  0.8664 -0.5919
  512MOL0     H67546   5.969   0.229   5.748  3.1163  1.1844 -3.0955
  512MOL0     H67547   5.800   0.073   5.675 -0.4776  3.1968  3.3133
  512MOL0     H67548   5.481  -0.102   5.694  1.4481 -0.6704  2.0090
  512MOL0     H67549   5.272  -0.242   5.633  0.0953  1.5289 -1.7162
  512MOL0     H67550   5.109  -0.376   5.488 -1.8966 -2.6815 -1.9720
  512MOL0     H67551   5.149  -0.440   5.642  0.4535  4.0009 -1.2127
  512MOL0     H67552   5.126  -0.670   5.572  0.4438 -0.4004 -1.1272
  512MOL0     H67553   5.093  -0.620   5.401 -0.3460  2.0902  0.3757
  512MOL0     H67554   4.908  -0.611   5.644 -1.8627 -2.0940 -0.5049
  512MOL0     H67555   4.896  -0.705   5.502 -0.6155 -0.2497  0.2621
  512MOL0     H67556   4.883  -0.411   5.470 -1.4040  0.4052 -0.5482
  512MOL0     H67557   4.879  -0.533   5.340  2.6240 -1.6561  0.1126
  512MOL0     H67558   4.651  -0.605   5.430 -1.4465  0.9156  0.2162
  512MOL0     H67559   4.664  -0.432   5.397  0.5987  0.7260  1.1698
  512MOL0     H67560   4.715  -0.432   5.663  2.6229 -0.9989 -1.1344
  512MOL0     H67561   4.652  -0.592   5.668  0.1003 -0.4018 -0.2481
  512MOL0     H67562   4.477  -0.462   5.729 -2.6331  1.8387 -0.3172
  512MOL0     H67563   4.503  -0.337   5.617 -2.4252  0.3682  0.7778
  512MOL0     H67564   4.424  -0.463   5.424 -2.0711 -2.8551 -1.9830
  512MOL0     H67565   4.310  -0.444   5.543 -0.0640  0.1043 -2.0808
  512MOL0     H67566   5.546  -0.540   5.459 -1.0582 -0.2372  0.4702
  512MOL0     H67567   5.728  -0.409   5.531 -1.2377 -1.8725  0.6903
  512MOL0     H67568   6.090  -0.255   5.742 -2.7970 -0.6237 -1.4962
  512MOL0     H67569   6.251  -0.078   5.822  0.6018  0.0361 -2.2301
  512MOL0     H67570   8.127   0.330   5.767 -2.5141  2.0809 -0.2173
  512MOL0     H67571   8.383   0.291   5.673 -0.3325 -0.9823  0.5587
  512MOL0     H67572   8.871   0.485   5.913 -2.6451  1.0685 -0.1980
  512MOL0     H67573   9.097   0.426   5.862 -1.1583  2.8518  0.5555
  512MOL0     H67574   9.186   0.441   5.430  1.7806  3.6363  0.8441
  512MOL0     H67575   9.265   0.285   5.460  2.7294  1.2033 -1.1657
  512MOL0     H67576   9.448   0.421   5.576 -0.3008 -2.2097  0.0133
  512MOL0     H67577   9.410   0.445   5.400 -3.5998 -1.7597 -1.0223
  512MOL0     H67578   9.377   0.631   5.640 -0.4984  1.1729  0.4510
  512MOL0     H67579   9.267   0.658   5.512 -1.0788  0.8108  2.3467
  512MOL0     H67580   9.488   0.681   5.356  0.7886  0.4717 -0.9383
  512MOL0     H67581   9.444   0.797   5.478 -1.8233 -1.0549  3.0862
  512MOL0     H67582   9.806   0.592   5.611 -0.2019  1.5097  1.4669
  512MOL0     H67583   8.979   0.338   5.461  0.0081  2.9786 -0.8586
  512MOL0     H67584   8.743   0.377   5.522  1.2585  1.4466 -1.4003
  513MOL0     O67585   8.454   6.884   8.975  0.4976 -0.5830 -0.8226
  513MOL0     C67586   8.489   6.805   9.064 -0.5316  0.7815  0.4784
  513MOL0     O67587   8.409   6.744   9.154 -0.0802 -0.3656  0.1182
  513MOL0     C67588   8.277   6.795   9.173 -0.3152 -0.4989 -0.5191
  513MOL0     C67589   8.180   6.695   9.183  0.0924  0.5135 -0.0391
  513MOL0     C67590   8.047   6.723   9.225  0.2132  0.3124  0.5643
  513MOL0     C67591   8.017   6.865   9.235  1.1338  0.2173 -0.8875
  513MOL0     O67592   7.881   6.903   9.268 -0.3121 -0.7047 -0.9660
  513MOL0     C67593   7.841   7.032   9.220  0.5503  0.5645 -0.0708
  513MOL0     C67594   7.694   7.064   9.251  0.3329 -0.3443 -0.6308
  513MOL0     C67595   7.609   6.998   9.138 -0.1622  0.0201 -0.1475
  513MOL0     C67596   7.462   7.014   9.165 -0.3883 -0.0621 -0.1974
  513MOL0     C67597   7.368   6.964   9.054 -0.0480 -0.0795 -1.0035
  513MOL0     C67598   7.238   6.915   9.113  0.0342  0.0300 -0.1605
  513MOL0     C67599   7.142   6.880   9.001 -0.1142  1.2627  0.1292
  513MOL0     C67600   7.026   6.795   9.036  0.1921 -0.0139 -0.0713
  513MOL0     N67601   6.942   6.849   9.150 -0.6695  0.4094  0.8163
  513MOL0     C67602   6.920   6.784   9.263  0.0354 -0.0605 -0.1949
  513MOL0     C67603   6.835   6.867   9.326  0.5346  0.4766 -0.3868
  513MOL0     C67604   6.762   6.845   9.460  0.8285 -0.0125  0.8009
  513MOL0     C67605   6.788   6.957   9.567  0.0748  1.2531  0.6036
  513MOL0     C67606   6.704   6.945   9.694  0.4892  0.4105  0.3517
  513MOL0     C67607   6.728   6.813   9.771 -0.4922  0.0533 -0.4730
  513MOL0     O67608   6.634   6.801   9.882  0.4878 -0.9275  0.4788
  513MOL0     C67609   6.512   6.737   9.865  0.2312 -0.1674 -0.1805
  513MOL0     C67610   6.458   6.676   9.752 -0.3681  0.5830 -0.3781
  513MOL0     C67611   6.335   6.611   9.758 -0.5924 -0.3122 -0.4998
  513MOL0     C67612   6.253   6.618   9.877 -0.3567 -0.3486  0.5458
  513MOL0     C67613   6.122   6.550   9.877  0.4677 -0.3131 -0.3145
  513MOL0     O67614   6.059   6.548  10.006 -0.1993  0.0665  0.6251
  513MOL0     C67615   5.924   6.525  10.010 -0.2780 -0.6638 -0.9024
  513MOL0     C67616   5.891   6.574  10.135  0.6896  0.0138 -1.2397
  513MOL0     C67617   5.760   6.554  10.183  0.1758  0.5538 -0.1853
  513MOL0     C67618   5.658   6.495  10.097 -1.0116 -0.5520  0.3494
  513MOL0     O67619   5.531   6.497  10.152 -0.0070  0.1629 -0.4307
  513MOL0     C67620   5.416   6.460  10.078  0.3917 -1.0248  0.7428
  513MOL0     C67621   5.302   6.487  10.173 -0.4959  0.3017 -0.1240
  513MOL0     C67622   5.167   6.437  10.119  0.3113  0.7756 -0.6732
  513MOL0     C67623   5.060   6.458  10.236 -0.2615  1.2913  0.0752
  513MOL0     C67624   4.916   6.430  10.186 -0.9326 -0.1737  0.3999
  513MOL0     C67625   4.830   6.412  10.309  0.7329  0.1608 -0.4088
  513MOL0     C67626   4.688   6.354  10.283  0.1243 -0.4214  0.5264
  513MOL0     C67627   4.606   6.453  10.208 -0.8979  0.6014 -0.5937
  513MOL0    Cl67628   4.447   6.407  10.155  0.2987  0.1749  0.0854
  513MOL0     C67629   5.707   6.436   9.977  0.9124 -0.1253 -0.5245
  513MOL0     C67630   5.840   6.459   9.929 -0.2182  0.0672  0.2981
  513MOL0     O67631   6.074   6.503   9.780 -0.4133  0.5711  0.0951
  513MOL0     C67632   6.309   6.688   9.987 -1.2690 -0.3136  0.8573
  513MOL0     C67633   6.435   6.739   9.978 -0.4435 -0.7895  0.8258
  513MOL0     N67634   6.823   6.982   9.256 -0.1281 -0.6806  0.4849
  513MOL0     N67635   6.891   6.966   9.152  0.0131 -0.1826  0.0735
  513MOL0     C67636   8.115   6.962   9.227 -0.3071  0.3946 -0.1704
  513MOL0     C67637   8.246   6.926   9.197 -0.2175 -0.7944 -0.3822
  513MOL0     C67638   8.618   6.746   9.057 -0.4920 -0.7808 -0.6628
  513MOL0     C67639   8.673   6.681   9.164 -0.7583 -0.4697 -0.0751
  513MOL0     C67640   8.806   6.625   9.154 -0.1909  0.3249 -0.5043
  513MOL0     C67641   8.888   6.640   9.038 -0.1924 -0.8253 -0.6435
  513MOL0     O67642   9.015   6.589   9.032 -0.5765  0.2644 -0.0683
  513MOL0     C67643   9.095   6.648   9.129 -0.2880  0.1133  0.0073
  513MOL0     C67644   9.237   6.594   9.129 -0.3872  0.1659  0.4671
  513MOL0     C67645   9.306   6.598   8.997  0.3955 -0.3950  0.3049
  513MOL0     C67646   9.455   6.578   8.992 -0.4653 -0.1746 -0.3080
  513MOL0     C67647   9.521   6.683   9.066 -0.5000 -0.5154  0.3222
  513MOL0     C67648   9.585   6.779   9.116  0.3284 -0.1362 -0.4625
  513MOL0     C67649   8.830   6.716   8.932 -0.5944  0.2766  0.3646
  513MOL0     C67650   8.700   6.765   8.941  0.4322  0.2892 -0.2569
  513MOL0     H67651   8.210   6.590   9.178  1.9493  1.0332 -2.8698
  513MOL0     H67652   7.966   6.656   9.250  0.0246  0.2755 -0.1368
  513MOL0     H67653   7.855   7.046   9.113 -1.2150 -0.1985 -0.4381
  513MOL0     H67654   7.892   7.112   9.275  0.2163  0.9598 -0.3331
  513MOL0     H67655   7.676   7.172   9.247 -1.5347 -0.4705  1.9086
  513MOL0     H67656   7.662   7.030   9.350  0.5329  1.0894 -0.0546
  513MOL0     H67657   7.634   6.892   9.126 -0.1248  0.2501 -2.5442
  513MOL0     H67658   7.631   7.053   9.046 -2.1297  1.5549  0.2286
  513MOL0     H67659   7.434   6.966   9.259 -2.5736 -1.7819 -1.6352
  513MOL0     H67660   7.452   7.122   9.176 -1.8090 -0.1425 -0.5305
  513MOL0     H67661   7.422   6.879   9.011 -0.7723 -1.2178  0.2586
  513MOL0     H67662   7.353   7.049   8.987  2.3680 -0.2171 -1.8128
  513MOL0     H67663   7.200   7.009   9.154  1.3865  0.7175 -0.4259
  513MOL0     H67664   7.256   6.844   9.194 -0.0421  1.6478  1.3389
  513MOL0     H67665   7.104   6.975   8.964 -0.0802  1.3417  0.2950
  513MOL0     H67666   7.205   6.825   8.930 -1.6313 -0.6388  0.1544
  513MOL0     H67667   7.060   6.699   9.075 -0.3127  0.7521  2.4587
  513MOL0     H67668   6.962   6.791   8.948 -0.5046  0.0861  0.4173
  513MOL0     H67669   6.960   6.688   9.296  0.3055 -0.5206 -1.7903
  513MOL0     H67670   6.798   6.748   9.497 -0.2429 -0.6167  0.2981
  513MOL0     H67671   6.661   6.821   9.428  1.0889 -2.3186  1.5449
  513MOL0     H67672   6.768   7.056   9.525 -0.3400  1.0017  0.1955
  513MOL0     H67673   6.893   6.944   9.594 -0.2861 -0.9694  1.1037
  513MOL0     H67674   6.732   7.031   9.756  1.2942 -1.1013  2.1979
  513MOL0     H67675   6.601   6.971   9.667  0.6581  2.2949  1.3559
  513MOL0     H67676   6.830   6.806   9.809 -0.7079 -2.2435 -0.2056
  513MOL0     H67677   6.717   6.738   9.692 -1.8229  0.2488 -0.4944
  513MOL0     H67678   6.518   6.670   9.661 -0.3296  1.3476 -0.4101
  513MOL0     H67679   6.298   6.556   9.672  1.9575 -2.3223 -0.4001
  513MOL0     H67680   5.958   6.615  10.209 -1.3838 -1.7858  1.8715
  513MOL0     H67681   5.726   6.598  10.276 -1.3542 -2.1491  0.6129
  513MOL0     H67682   5.423   6.356  10.046 -1.3829 -0.8312 -0.3711
  513MOL0     H67683   5.419   6.523   9.989  0.0344  1.9949  2.7070
  513MOL0     H67684   5.286   6.594  10.185 -3.4635 -0.1179  0.3955
  513MOL0     H67685   5.325   6.441  10.269  2.7153  0.1981 -0.7921
  513MOL0     H67686   5.171   6.329  10.099  0.5223  0.1752  2.1893
  513MOL0     H67687   5.121   6.489  10.035 -0.8808  0.8971  0.0366
  513MOL0     H67688   5.086   6.393  10.321 -1.6290  1.3398  0.5529
  513MOL0     H67689   5.076   6.560  10.271 -1.0756  1.4116  0.1195
  513MOL0     H67690   4.910   6.338  10.128 -1.0376  0.3711 -0.4651
  513MOL0     H67691   4.882   6.504  10.113  1.5640  2.4081  1.6687
  513MOL0     H67692   4.829   6.504  10.368  0.9536 -0.5636  0.7703
  513MOL0     H67693   4.872   6.340  10.380 -1.0314 -1.5778 -1.0413
  513MOL0     H67694   4.688   6.256  10.234  1.6683 -0.0853 -0.2070
  513MOL0     H67695   4.632   6.340  10.376 -1.6645 -0.5808 -0.5339
  513MOL0     H67696   4.669   6.485  10.125 -1.1079  1.8410 -0.2957
  513MOL0     H67697   4.600   6.536  10.279  1.4404 -1.9531  3.0081
  513MOL0     H67698   5.638   6.374   9.920  1.3488 -0.3951 -0.7665
  513MOL0     H67699   5.867   6.412   9.835 -1.2215 -0.9202  0.4718
  513MOL0     H67700   6.264   6.693  10.086  1.7537 -0.8451  2.3737
  513MOL0     H67701   6.481   6.779  10.068 -1.6581  0.1651  1.0504
  513MOL0     H67702   8.108   7.070   9.237  0.0742  0.3777  0.2799
  513MOL0     H67703   8.309   7.014   9.184 -2.7350  1.3917  1.1034
  513MOL0     H67704   8.623   6.673   9.260  2.0935 -1.7274  1.4325
  513MOL0     H67705   8.857   6.577   9.238 -0.3667  1.5073  0.3120
  513MOL0     H67706   9.059   6.638   9.232 -0.3904 -0.6839 -0.0984
  513MOL0     H67707   9.098   6.755   9.107 -0.5927  0.0732 -0.2361
  513MOL0     H67708   9.302   6.639   9.205 -2.0638  0.6332  1.6724
  513MOL0     H67709   9.226   6.490   9.159  0.0394  0.1001  0.4036
  513MOL0     H67710   9.280   6.691   8.945  3.6697  0.8260  0.5912
  513MOL0     H67711   9.271   6.509   8.944 -0.6503 -1.1129  2.1221
  513MOL0     H67712   9.471   6.482   9.043 -2.2572  1.6201  4.1244
  513MOL0     H67713   9.485   6.575   8.887 -1.9150  1.2831 -0.7969
  513MOL0     H67714   9.639   6.852   9.173 -1.6178 -1.2235  3.0540
  513MOL0     H67715   8.866   6.722   8.830 -0.5097  0.9886  0.4293
  513MOL0     H67716   8.655   6.819   8.858 -0.2832 -1.7315 -1.2650
  514MOL0     O67717   7.979   0.670   8.451 -0.2058 -0.2530  0.6118
  514MOL0     C67718   7.977   0.788   8.489 -0.3843  0.0829 -0.1714
  514MOL0     O67719   8.061   0.879   8.436  0.3817 -0.0348 -0.0034
  514MOL0     C67720   8.182   0.847   8.375 -0.4113 -0.2256  0.1616
  514MOL0     C67721   8.268   0.737   8.415 -0.5263  0.2954  0.0619
  514MOL0     C67722   8.392   0.710   8.360 -0.1379 -0.6526  0.2266
  514MOL0     C67723   8.442   0.794   8.265  0.6051 -0.0495 -0.2324
  514MOL0     O67724   8.557   0.758   8.207 -0.7595 -0.1330  0.0304
  514MOL0     C67725   8.664   0.759   8.306  0.0758 -0.0933 -0.1893
  514MOL0     C67726   8.710   0.615   8.342  0.0509  0.7754  0.3825
  514MOL0     C67727   8.862   0.612   8.376  0.1778 -0.3291  0.6063
  514MOL0     C67728   8.895   0.471   8.391  0.4328 -0.5761 -0.3724
  514MOL0     C67729   9.042   0.464   8.430 -0.5057  0.1844  0.0470
  514MOL0     C67730   9.082   0.324   8.400 -1.1432 -0.1821 -0.2029
  514MOL0     C67731   9.228   0.300   8.446 -1.0303 -0.1601  0.4538
  514MOL0     C67732   9.341   0.399   8.407  0.2656 -0.2611 -0.5889
  514MOL0     N67733   9.373   0.404   8.269  0.0431  0.1089  0.4824
  514MOL0     C67734   9.497   0.441   8.231 -0.3184  0.6955  0.1920
  514MOL0     C67735   9.497   0.478   8.103  0.1035  0.0625  0.6092
  514MOL0     C67736   9.628   0.521   8.024 -0.0437 -1.1640 -0.4126
  514MOL0     C67737   9.607   0.653   7.927  0.1845  0.3230 -0.7056
  514MOL0     C67738   9.733   0.732   7.901  0.0288 -0.0216  0.5463
  514MOL0     C67739   9.830   0.661   7.820 -0.4650  1.3456  0.0163
  514MOL0     O67740   9.952   0.738   7.792  0.3987  0.1077  1.1008
  514MOL0     C67741  10.061   0.731   7.883 -0.1142 -0.2972  0.2285
  514MOL0     C67742  10.179   0.790   7.845 -0.7818  0.4084  0.3896
  514MOL0     C67743  10.285   0.795   7.933 -0.1550 -0.2506  0.1943
  514MOL0     C67744  10.272   0.742   8.063  0.1355  0.4483 -0.5144
  514MOL0     C67745  10.391   0.742   8.151 -0.2745  0.4154 -0.1274
  514MOL0     O67746  10.513   0.779   8.102  0.2494 -0.2902  0.7497
  514MOL0     C67747  10.625   0.785   8.182 -0.7623  0.4130  0.4562
  514MOL0     C67748  10.715   0.881   8.149 -0.7960  0.0206  0.1587
  514MOL0     C67749  10.847   0.885   8.205  0.6984 -0.1087  0.3474
  514MOL0     C67750  10.893   0.785   8.289  0.8511  1.0121 -0.1502
  514MOL0     O67751  11.019   0.772   8.342 -0.7049 -0.2397 -0.3453
  514MOL0     C67752  11.110   0.872   8.298  0.0320 -0.0475 -0.8910
  514MOL0     C67753  11.245   0.824   8.341 -0.3743  1.1129 -0.2188
  514MOL0     C67754  11.316   0.742   8.231  0.1157 -0.1529 -0.6356
  514MOL0     C67755  11.438   0.658   8.274 -0.6654 -0.1665  0.8364
  514MOL0     C67756  11.548   0.751   8.335  0.4894  1.3461 -0.2783
  514MOL0     C67757  11.683   0.683   8.331  0.1323 -0.9607 -0.8156
  514MOL0     C67758  11.787   0.770   8.417 -0.1146 -0.2035 -0.2645
  514MOL0     C67759  11.917   0.803   8.333  0.2373  0.6032 -0.2978
  514MOL0    Cl67760  11.990   0.643   8.289 -0.0013 -0.4230  0.1283
  514MOL0     C67761  10.797   0.685   8.324 -0.1552 -0.3515  0.4465
  514MOL0     C67762  10.672   0.690   8.274 -0.3643  0.4431  1.6533
  514MOL0     O67763  10.371   0.712   8.269  0.3790 -0.2255  0.4887
  514MOL0     C67764  10.149   0.692   8.109  0.6942 -0.4116  0.0997
  514MOL0     C67765  10.050   0.673   8.009  0.9797  0.6358 -0.2343
  514MOL0     N67766   9.372   0.480   8.061  0.0487  0.5140  0.6981
  514MOL0     N67767   9.300   0.426   8.154 -0.8108  0.1922 -0.4727
  514MOL0     C67768   8.367   0.900   8.236  0.6478 -0.6826 -0.7405
  514MOL0     C67769   8.247   0.943   8.291 -0.4077  0.3659 -0.1204
  514MOL0     C67770   7.888   0.829   8.600  0.2550  0.4653 -0.0834
  514MOL0     C67771   7.903   0.960   8.658 -0.2193 -0.8075 -0.0622
  514MOL0     C67772   7.810   1.002   8.751 -0.5984  0.0706  0.6259
  514MOL0     C67773   7.707   0.920   8.791 -0.1448 -1.1304 -0.4845
  514MOL0     O67774   7.606   0.969   8.869  0.1342 -0.3695  0.2209
  514MOL0     C67775   7.626   1.044   8.985 -0.0745  0.6439 -0.2981
  514MOL0     C67776   7.516   1.011   9.090  0.2734  0.3163  0.0503
  514MOL0     C67777   7.503   1.116   9.201 -0.0678 -0.3387  0.4915
  514MOL0     C67778   7.376   1.101   9.289  0.7574 -0.2124 -1.0265
  514MOL0     C67779   7.251   1.137   9.221 -0.7547  0.8778 -0.3896
  514MOL0     C67780   7.157   1.168   9.150 -0.5558  0.8245 -0.4949
  514MOL0     C67781   7.688   0.789   8.735  0.2955  0.3169 -0.1100
  514MOL0     C67782   7.784   0.741   8.648  0.0354 -0.1444  1.1698
  514MOL0     H67783   8.243   0.668   8.496 -0.0764  2.5556  2.2409
  514MOL0     H67784   8.441   0.617   8.389  1.4595  0.7823  2.4325
  514MOL0     H67785   8.642   0.813   8.399  3.2257 -4.0436  3.3133
  514MOL0     H67786   8.752   0.809   8.266  1.0358 -0.7206  1.0482
  514MOL0     H67787   8.681   0.555   8.255  0.5933  1.1452 -0.0558
  514MOL0     H67788   8.663   0.568   8.429  0.9648 -2.4649 -0.7152
  514MOL0     H67789   8.891   0.673   8.462  1.0120 -0.5903  0.5175
  514MOL0     H67790   8.921   0.664   8.300 -1.5151  0.7574 -0.0399
  514MOL0     H67791   8.835   0.427   8.470  1.0663 -1.6967 -0.5033
  514MOL0     H67792   8.889   0.420   8.294 -0.1956 -2.0660  0.4303
  514MOL0     H67793   9.062   0.489   8.535  1.4317 -0.8754 -0.0170
  514MOL0     H67794   9.098   0.532   8.366 -1.1571  0.5099 -0.1754
  514MOL0     H67795   9.078   0.308   8.292 -1.0709  1.8285 -0.5338
  514MOL0     H67796   9.011   0.262   8.456  1.0463 -4.0838 -1.3891
  514MOL0     H67797   9.241   0.296   8.555 -0.1228  0.0509  0.3599
  514MOL0     H67798   9.263   0.205   8.406  1.9905 -0.1444  2.7149
  514MOL0     H67799   9.423   0.352   8.463 -0.3809 -1.4450 -0.6089
  514MOL0     H67800   9.315   0.499   8.444  0.4159 -0.4886  0.1436
  514MOL0     H67801   9.582   0.449   8.299 -0.7928 -1.6201  1.1530
  514MOL0     H67802   9.657   0.431   7.969 -0.8631 -2.5338  1.3021
  514MOL0     H67803   9.706   0.545   8.096 -2.0308  1.6414  0.9567
  514MOL0     H67804   9.531   0.720   7.967 -1.3497 -1.1788 -0.9491
  514MOL0     H67805   9.567   0.610   7.834 -0.4556 -0.2849 -0.1613
  514MOL0     H67806   9.721   0.825   7.844  3.7546  0.3612  0.1096
  514MOL0     H67807   9.780   0.768   7.993  2.0883 -0.2719 -0.3539
  514MOL0     H67808   9.802   0.621   7.723  3.7478 -3.5584  0.3607
  514MOL0     H67809   9.852   0.567   7.872 -3.0260  1.3882  1.3097
  514MOL0     H67810  10.187   0.826   7.743 -1.9307 -1.0606 -0.2565
  514MOL0     H67811  10.358   0.869   7.905 -2.4249  1.9040 -0.3605
  514MOL0     H67812  10.687   0.950   8.070  0.0779 -0.3895 -0.5297
  514MOL0     H67813  10.901   0.976   8.182  0.4019 -0.5916 -2.7482
  514MOL0     H67814  11.089   0.965   8.351  0.4487 -1.8747  2.7470
  514MOL0     H67815  11.112   0.876   8.188 -0.4908 -1.3700 -0.9669
  514MOL0     H67816  11.234   0.773   8.437  0.0074  4.1840  1.6008
  514MOL0     H67817  11.305   0.912   8.368  1.4724 -0.5893  1.5996
  514MOL0     H67818  11.362   0.802   8.153  4.2548 -0.0558  1.5929
  514MOL0     H67819  11.247   0.664   8.196 -0.8061 -0.2864  1.3157
  514MOL0     H67820  11.400   0.579   8.340 -3.6815 -1.4306 -2.1091
  514MOL0     H67821  11.479   0.611   8.185  3.4552  0.3065  2.2783
  514MOL0     H67822  11.529   0.793   8.434 -0.0134  0.7619 -0.1180
  514MOL0     H67823  11.569   0.835   8.268  3.5955 -0.1707 -1.3696
  514MOL0     H67824  11.718   0.671   8.228  2.2166  1.6363 -0.5061
  514MOL0     H67825  11.673   0.587   8.382 -1.5426 -0.5167 -0.2407
  514MOL0     H67826  11.748   0.865   8.454 -0.5185 -0.7316  0.7311
  514MOL0     H67827  11.812   0.706   8.503  1.7056 -1.7574 -1.8493
  514MOL0     H67828  11.981   0.864   8.397 -1.1229 -0.6846  2.5035
  514MOL0     H67829  11.900   0.837   8.231  1.2055 -0.3139 -0.7848
  514MOL0     H67830  10.847   0.601   8.372 -1.8717 -1.9112 -0.4083
  514MOL0     H67831  10.605   0.605   8.286  1.8408 -1.8117 -0.7260
  514MOL0     H67832  10.147   0.652   8.210  2.1825  0.7464  0.6332
  514MOL0     H67833   9.954   0.629   8.036  0.8269  1.3516  0.3986
  514MOL0     H67834   8.386   0.973   8.158 -3.2108  1.9844  0.4857
  514MOL0     H67835   8.207   1.039   8.257 -3.0490 -1.2439 -1.9720
  514MOL0     H67836   7.974   1.028   8.613  0.1998 -2.1517 -1.5098
  514MOL0     H67837   7.830   1.095   8.804  1.4745  0.1621 -0.2189
  514MOL0     H67838   7.620   1.151   8.961  0.8286  0.4731 -1.3445
  514MOL0     H67839   7.732   1.040   9.014  0.2724 -0.5137 -1.6547
  514MOL0     H67840   7.422   1.020   9.034  0.1791 -0.3756  0.0904
  514MOL0     H67841   7.512   0.914   9.140  0.0391  0.8876  1.1533
  514MOL0     H67842   7.488   1.210   9.147  0.5380 -1.3801 -1.6212
  514MOL0     H67843   7.592   1.111   9.264  0.6947 -2.3786 -0.6411
  514MOL0     H67844   7.368   0.995   9.318  1.3671  0.0108  0.0413
  514MOL0     H67845   7.391   1.159   9.381 -1.0018 -1.3093  0.0075
  514MOL0     H67846   7.069   1.206   9.102  0.4450  2.7668 -0.9032
  514MOL0     H67847   7.596   0.741   8.765 -0.8100  1.5874 -1.3457
  514MOL0     H67848   7.777   0.642   8.605  0.0008  0.3832 -0.0804
  515MOL0     O67849   7.312   2.878   0.996  0.6737  0.3165 -0.6282
  515MOL0     C67850   7.349   2.910   0.884 -0.2553  0.9311 -0.6872
  515MOL0     O67851   7.272   2.976   0.783  0.0160  0.2889 -0.3084
  515MOL0     C67852   7.146   2.999   0.827 -0.0313 -0.3036 -0.3852
  515MOL0     C67853   7.129   3.083   0.933  0.7307  0.3991  0.4344
  515MOL0     C67854   6.994   3.116   0.977 -0.2111  0.6005 -0.3683
  515MOL0     C67855   6.881   3.074   0.907  0.6908 -0.3264  0.8440
  515MOL0     O67856   6.749   3.113   0.955  0.8490  0.7471 -0.4660
  515MOL0     C67857   6.631   3.072   0.897  0.7669  1.2325 -0.1036
  515MOL0     C67858   6.515   3.170   0.943  0.0663  0.3819 -0.6618
  515MOL0     C67859   6.380   3.132   0.893 -0.6616  1.4190 -0.2748
  515MOL0     C67860   6.261   3.202   0.948 -0.2897 -0.5813 -0.5015
  515MOL0     C67861   6.124   3.158   0.909 -0.1050 -0.1436  0.6826
  515MOL0     C67862   6.111   3.125   0.764  0.0882 -0.3952 -0.3828
  515MOL0     C67863   5.967   3.079   0.736  0.0045 -0.5014 -0.6088
  515MOL0     C67864   5.947   3.032   0.596 -0.5656 -0.8193  0.2548
  515MOL0     N67865   5.801   2.996   0.574  0.8799 -0.0043  0.5693
  515MOL0     C67866   5.705   3.085   0.538  0.2635 -0.5503  0.4940
  515MOL0     C67867   5.601   3.001   0.514  0.2024 -0.6755 -0.7457
  515MOL0     C67868   5.460   3.055   0.490  0.3482 -0.7694 -0.2546
  515MOL0     C67869   5.373   3.056   0.614  0.3870 -0.7718  0.9219
  515MOL0     C67870   5.228   3.079   0.590 -0.1213  0.6700 -0.1808
  515MOL0     C67871   5.194   3.220   0.541  0.3562  0.5857 -0.4094
  515MOL0     O67872   5.093   3.197   0.444  0.1319 -0.6255 -0.3545
  515MOL0     C67873   4.957   3.216   0.468 -0.2948  0.4616  0.2198
  515MOL0     C67874   4.907   3.327   0.540 -0.2373  0.0583 -0.7264
  515MOL0     C67875   4.768   3.356   0.545 -0.8094 -0.2889  1.7470
  515MOL0     C67876   4.679   3.276   0.467 -0.2828  0.1596  0.0002
  515MOL0     C67877   4.525   3.300   0.466  0.3108 -0.3650 -0.4501
  515MOL0     O67878   4.439   3.212   0.400 -0.3743 -0.6454 -0.4401
  515MOL0     C67879   4.304   3.240   0.378  0.4231  0.3289 -0.8602
  515MOL0     C67880   4.237   3.183   0.273  0.5385 -0.4373 -0.2626
  515MOL0     C67881   4.092   3.206   0.258 -0.6539  0.8866  1.1392
  515MOL0     C67882   4.025   3.258   0.364  0.1336  0.2656 -0.2571
  515MOL0     O67883   3.885   3.259   0.343 -0.9242 -1.0180 -0.5779
  515MOL0     C67884   3.820   3.137   0.342 -0.5798 -0.0502 -0.0504
  515MOL0     C67885   3.690   3.144   0.410  0.5777  1.1593 -0.0699
  515MOL0     C67886   3.621   3.005   0.419 -0.0426  0.2730  1.1863
  515MOL0     C67887   3.493   3.023   0.502  0.5094  0.1284 -0.4148
  515MOL0     C67888   3.421   2.887   0.493 -0.4370  0.8712 -0.7149
  515MOL0     C67889   3.307   2.909   0.599 -0.2894 -0.1546 -0.3332
  515MOL0     C67890   3.227   2.781   0.627  0.3263 -0.4665 -0.1376
  515MOL0     C67891   3.135   2.808   0.753 -0.3668  0.5182  0.1694
  515MOL0    Cl67892   3.039   2.652   0.788  0.0596 -0.2523 -0.3896
  515MOL0     C67893   4.084   3.317   0.477 -0.3345  0.7457  0.3882
  515MOL0     C67894   4.221   3.303   0.482 -0.9016  0.8745 -0.0272
  515MOL0     O67895   4.485   3.400   0.525 -0.5570  0.1920  0.5380
  515MOL0     C67896   4.732   3.161   0.402  0.3238  0.1690  0.4545
  515MOL0     C67897   4.871   3.134   0.396  0.0488 -0.0544 -0.1315
  515MOL0     N67898   5.638   2.875   0.538  1.2017 -0.3045 -0.8525
  515MOL0     N67899   5.756   2.868   0.570  0.2144 -0.2758  0.6818
  515MOL0     C67900   6.902   2.991   0.790  0.2153  0.2163 -0.6355
  515MOL0     C67901   7.032   2.955   0.757  0.6600 -0.8369 -0.0293
  515MOL0     C67902   7.484   2.875   0.857 -0.0904  0.7235 -0.2135
  515MOL0     C67903   7.580   2.856   0.954 -0.5318  0.7233  0.5105
  515MOL0     C67904   7.722   2.835   0.922  0.2175 -0.3942 -0.2958
  515MOL0     C67905   7.767   2.822   0.790  0.4860 -0.5275 -0.3991
  515MOL0     O67906   7.898   2.807   0.759  0.0496  0.8356  0.3104
  515MOL0     C67907   7.990   2.889   0.830  0.5332 -0.5098 -0.0279
  515MOL0     C67908   8.137   2.850   0.797 -0.4071  0.0250  0.5362
  515MOL0     C67909   8.234   2.935   0.877  0.0626 -0.3025 -0.4087
  515MOL0     C67910   8.385   2.908   0.839  0.7007 -0.7508 -0.1589
  515MOL0     C67911   8.407   2.875   0.698 -0.4744 -0.7022  0.5431
  515MOL0     C67912   8.437   2.860   0.582 -0.0516 -0.5504 -0.4806
  515MOL0     C67913   7.664   2.830   0.693  0.2212 -0.1816  0.1979
  515MOL0     C67914   7.529   2.861   0.723  0.2715  0.2146  0.0228
  515MOL0     H67915   7.215   3.134   0.975  1.5990 -0.5081 -0.2134
  515MOL0     H67916   6.980   3.185   1.060  1.7346  0.7967 -0.1457
  515MOL0     H67917   6.602   2.967   0.912  2.7095  0.8155  0.9942
  515MOL0     H67918   6.645   3.084   0.789  2.6146 -1.7763 -0.3173
  515MOL0     H67919   6.546   3.272   0.916  2.5900  0.4413  1.8684
  515MOL0     H67920   6.518   3.164   1.053 -2.3197 -2.1009 -0.6441
  515MOL0     H67921   6.373   3.023   0.905 -0.4701  1.4827  0.4473
  515MOL0     H67922   6.392   3.145   0.785  1.1953  2.1074 -0.0219
  515MOL0     H67923   6.264   3.202   1.058  0.2933 -1.1508 -0.5147
  515MOL0     H67924   6.275   3.301   0.905 -1.0304 -0.6452 -0.9078
  515MOL0     H67925   6.061   3.236   0.951  0.6413  0.8730 -0.0422
  515MOL0     H67926   6.090   3.065   0.956 -0.0794 -1.0693 -1.0505
  515MOL0     H67927   6.179   3.043   0.739  2.1753  1.6721 -1.8585
  515MOL0     H67928   6.143   3.214   0.709 -2.1495  2.0071  1.9207
  515MOL0     H67929   5.956   2.988   0.795  3.6817 -1.4829 -1.1954
  515MOL0     H67930   5.906   3.160   0.777  0.5366 -0.8386  0.9088
  515MOL0     H67931   6.015   2.951   0.567  1.3358  1.3763 -1.8488
  515MOL0     H67932   5.967   3.114   0.526  0.7051  1.0069  2.5971
  515MOL0     H67933   5.700   3.194   0.541  1.1749 -0.3973 -1.5580
  515MOL0     H67934   5.404   3.000   0.414  0.4441 -0.0378 -0.8650
  515MOL0     H67935   5.468   3.153   0.443  0.6362 -1.6157 -2.0371
  515MOL0     H67936   5.404   3.146   0.668 -0.2784  1.9811 -2.8252
  515MOL0     H67937   5.382   2.960   0.664  0.9668 -0.2616  1.8349
  515MOL0     H67938   5.179   3.014   0.517  0.6385  2.2030 -2.1614
  515MOL0     H67939   5.178   3.051   0.683 -1.3297  2.0752 -0.3646
  515MOL0     H67940   5.279   3.278   0.503  1.6558 -1.2045 -0.3376
  515MOL0     H67941   5.160   3.265   0.635 -1.5442 -2.2179  0.3566
  515MOL0     H67942   4.978   3.393   0.587 -0.4883  0.7933 -1.3591
  515MOL0     H67943   4.725   3.446   0.589 -0.0902  0.4735  0.9291
  515MOL0     H67944   4.300   3.144   0.194  2.1512  1.2227  0.1421
  515MOL0     H67945   4.037   3.181   0.167  0.0752  1.8443  0.4157
  515MOL0     H67946   3.887   3.066   0.392  0.2096  0.7804  0.0850
  515MOL0     H67947   3.802   3.116   0.236  1.4642 -0.2785 -0.3998
  515MOL0     H67948   3.616   3.204   0.356 -0.0729 -0.4788 -1.0708
  515MOL0     H67949   3.706   3.192   0.507  1.3049  5.0907 -1.9105
  515MOL0     H67950   3.689   2.929   0.458 -1.5912 -0.6197  2.2701
  515MOL0     H67951   3.592   2.972   0.319 -0.5392  0.5431  1.2371
  515MOL0     H67952   3.508   3.052   0.607  2.6505  2.1243 -1.1899
  515MOL0     H67953   3.429   3.098   0.454  2.0368  1.4811 -0.4116
  515MOL0     H67954   3.485   2.805   0.526 -0.3494  1.5750  0.9772
  515MOL0     H67955   3.374   2.859   0.399 -1.5884 -2.8000  0.7884
  515MOL0     H67956   3.238   2.975   0.547  1.2976 -0.7761 -3.4909
  515MOL0     H67957   3.350   2.950   0.691  2.4646  0.2893 -1.7005
  515MOL0     H67958   3.171   2.755   0.537  1.1375  1.2090 -1.1609
  515MOL0     H67959   3.292   2.695   0.646  0.9516 -0.1827 -0.9517
  515MOL0     H67960   3.057   2.883   0.737 -3.0484 -2.3205 -1.2093
  515MOL0     H67961   3.198   2.843   0.836 -0.3960  3.5130 -0.9512
  515MOL0     H67962   4.026   3.362   0.557  0.7625 -0.6617  2.0531
  515MOL0     H67963   4.269   3.323   0.577 -1.1207 -0.2772  0.3438
  515MOL0     H67964   4.664   3.086   0.364  0.5881  0.2221 -0.1374
  515MOL0     H67965   4.908   3.047   0.344  0.2188  0.1574 -0.3682
  515MOL0     H67966   6.812   2.972   0.732 -0.1457 -1.9170  0.5206
  515MOL0     H67967   7.058   2.904   0.665  0.5348  0.5288 -0.8435
  515MOL0     H67968   7.555   2.857   1.060  0.7066 -0.7579  0.8429
  515MOL0     H67969   7.791   2.815   1.003  3.2171  0.3297 -2.4497
  515MOL0     H67970   7.976   2.867   0.936  0.4886 -3.4716 -0.5630
  515MOL0     H67971   7.988   2.998   0.819  2.0759 -0.5122 -0.6376
  515MOL0     H67972   8.159   2.745   0.820  2.0364  0.8150  2.1008
  515MOL0     H67973   8.150   2.855   0.688  0.3993 -2.1732  0.4824
  515MOL0     H67974   8.220   2.909   0.982  1.7932 -1.7463 -0.4811
  515MOL0     H67975   8.214   3.042   0.864  1.8775  0.2385  0.7589
  515MOL0     H67976   8.439   2.997   0.875 -1.1967  0.0144  0.9249
  515MOL0     H67977   8.428   2.829   0.900  1.9736  0.0496  0.0222
  515MOL0     H67978   8.480   2.852   0.484  2.5081 -0.6803  0.5602
  515MOL0     H67979   7.707   2.843   0.594  1.1306 -2.7029  0.2066
  515MOL0     H67980   7.462   2.881   0.639  1.9704 -0.4025 -1.5531
  516MOL0     O67981   1.358   5.821   0.767  1.3285 -0.3214  0.0239
  516MOL0     C67982   1.356   5.852   0.888 -0.4782 -0.0820  0.9154
  516MOL0     O67983   1.272   5.936   0.948 -0.5762 -0.7245  0.6729
  516MOL0     C67984   1.169   5.999   0.875 -1.1463  0.3621 -0.2346
  516MOL0     C67985   1.046   6.009   0.937  0.2242 -0.3449 -0.9623
  516MOL0     C67986   0.933   6.068   0.876  0.2395 -0.7296  0.1051
  516MOL0     C67987   0.950   6.121   0.751  0.2375  0.3896  0.6091
  516MOL0     O67988   0.846   6.180   0.686 -0.1242  0.2619 -0.1379
  516MOL0     C67989   0.848   6.196   0.543 -0.0960 -0.6810 -0.0021
  516MOL0     C67990   0.701   6.205   0.497 -0.1699  1.1635 -0.4695
  516MOL0     C67991   0.632   6.331   0.536  0.3387  0.1576  0.0245
  516MOL0     C67992   0.491   6.343   0.470  0.2501  0.2650 -0.6891
  516MOL0     C67993   0.434   6.472   0.517  0.0650  0.6097 -0.6246
  516MOL0     C67994   0.291   6.502   0.448 -0.0900 -0.5661 -0.9289
  516MOL0     C67995   0.192   6.388   0.450  0.8100  0.5955 -0.3968
  516MOL0     C67996   0.090   6.381   0.563  0.6676 -0.6126  0.1066
  516MOL0     N67997  -0.006   6.499   0.547 -0.0921 -0.1470 -0.3444
  516MOL0     C67998  -0.033   6.578   0.660  0.6839  0.2101 -0.8165
  516MOL0     C67999  -0.144   6.657   0.615 -0.2483  0.3690  0.9318
  516MOL0     C68000  -0.224   6.763   0.686  0.5986 -0.7012 -0.0250
  516MOL0     C68001  -0.241   6.893   0.614  0.0138  0.6605 -0.1935
  516MOL0     C68002  -0.301   6.897   0.472  0.4981  0.2732 -0.9747
  516MOL0     C68003  -0.430   6.824   0.455  0.1887 -0.2022  0.9232
  516MOL0     O68004  -0.524   6.870   0.548  0.0998 -0.0837 -0.8773
  516MOL0     C68005  -0.653   6.862   0.525  0.0581 -0.4356  0.5272
  516MOL0     C68006  -0.724   6.817   0.411  0.4618  0.7691  0.4068
  516MOL0     C68007  -0.854   6.847   0.384 -0.0479 -0.0411 -0.0988
  516MOL0     C68008  -0.936   6.889   0.497 -0.0485 -0.3895  0.3255
  516MOL0     C68009  -1.082   6.896   0.472 -0.6853 -0.7322 -0.1050
  516MOL0     O68010  -1.139   6.959   0.572  0.4448 -0.2837  0.6229
  516MOL0     C68011  -1.273   6.994   0.582  0.5541  0.0321  0.4167
  516MOL0     C68012  -1.381   6.965   0.499  0.0509 -0.2440  0.0609
  516MOL0     C68013  -1.513   7.012   0.523 -0.4099 -0.4022 -0.1025
  516MOL0     C68014  -1.542   7.094   0.638  0.1028  0.1501  0.4303
  516MOL0     O68015  -1.672   7.145   0.644 -0.3941 -0.8371  0.0506
  516MOL0     C68016  -1.729   7.169   0.778 -0.3976 -0.1870 -0.1997
  516MOL0     C68017  -1.878   7.205   0.775  0.6367 -0.0768  0.6401
  516MOL0     C68018  -1.914   7.331   0.694 -0.3658  0.1432  0.1854
  516MOL0     C68019  -2.067   7.337   0.687  0.1619 -0.3222 -0.8211
  516MOL0     C68020  -2.118   7.478   0.633 -0.1268 -0.2519  0.0667
  516MOL0     C68021  -2.262   7.486   0.594  0.0207 -0.0679 -0.1572
  516MOL0     C68022  -2.351   7.413   0.697  0.9541 -0.8361 -0.0083
  516MOL0     C68023  -2.490   7.460   0.671  0.6030  0.1275  0.3375
  516MOL0    Cl68024  -2.608   7.415   0.813 -0.4861  0.3108 -0.1221
  516MOL0     C68025  -1.431   7.121   0.723 -0.2724  0.6722 -0.7766
  516MOL0     C68026  -1.300   7.074   0.694 -0.4184  0.3365 -0.4039
  516MOL0     O68027  -1.134   6.846   0.371 -0.4892 -0.0646 -0.0734
  516MOL0     C68028  -0.869   6.938   0.611  0.9160 -0.3259 -0.1663
  516MOL0     C68029  -0.727   6.932   0.621 -0.3176  0.0912  0.2620
  516MOL0     N68030  -0.181   6.608   0.487  0.6523 -0.4935 -0.6057
  516MOL0     N68031  -0.102   6.517   0.451 -0.9820 -0.0839  0.3963
  516MOL0     C68032   1.076   6.104   0.683  0.5765 -0.2254  0.1235
  516MOL0     C68033   1.187   6.046   0.746  0.3855 -0.8815 -0.6412
  516MOL0     C68034   1.445   5.770   0.970  0.1771 -0.2164 -0.4524
  516MOL0     C68035   1.504   5.656   0.930  0.4709 -0.1480  0.1385
  516MOL0     C68036   1.595   5.580   1.003 -0.4207 -0.1701 -0.3214
  516MOL0     C68037   1.647   5.643   1.123  0.4337  0.4127 -0.4755
  516MOL0     O68038   1.759   5.584   1.182  0.3967  0.7136  0.0299
  516MOL0     C68039   1.825   5.655   1.278 -0.0562  0.6832  0.2713
  516MOL0     C68040   1.949   5.583   1.331 -0.3182 -0.3018 -0.2855
  516MOL0     C68041   2.052   5.537   1.236  0.8733 -1.1943  0.0424
  516MOL0     C68042   2.146   5.434   1.302  0.6771  0.3550 -0.0366
  516MOL0     C68043   2.243   5.399   1.207  0.0783 -0.3393  0.9413
  516MOL0     C68044   2.324   5.376   1.121  0.2245  0.0564  0.2782
  516MOL0     C68045   1.586   5.765   1.167 -0.8518  0.1743 -0.1711
  516MOL0     C68046   1.474   5.820   1.107  0.6498  0.0043 -0.0207
  516MOL0     H68047   1.022   5.973   1.036  0.2575 -1.2457 -1.2724
  516MOL0     H68048   0.841   6.069   0.933  0.3091  0.3215  0.2325
  516MOL0     H68049   0.886   6.106   0.494  0.0078 -1.8685  2.1050
  516MOL0     H68050   0.903   6.289   0.524 -2.6412  1.2174  1.2909
  516MOL0     H68051   0.636   6.126   0.538 -1.2540  2.1944 -0.1371
  516MOL0     H68052   0.698   6.184   0.390  2.5736 -0.5916 -0.2986
  516MOL0     H68053   0.705   6.405   0.501  2.5480 -1.4478  1.0257
  516MOL0     H68054   0.634   6.337   0.645  0.4295 -1.7116  0.1590
  516MOL0     H68055   0.488   6.331   0.361  0.1838 -3.7022 -0.3712
  516MOL0     H68056   0.431   6.264   0.516 -0.5450  1.2466 -0.0089
  516MOL0     H68057   0.509   6.551   0.508  1.4658 -0.4325  1.1397
  516MOL0     H68058   0.417   6.463   0.625 -1.1544  1.1768 -0.7459
  516MOL0     H68059   0.298   6.548   0.349  1.2182  3.9691  1.0275
  516MOL0     H68060   0.251   6.583   0.510  0.2402 -1.1224  0.0317
  516MOL0     H68061   0.144   6.378   0.353  0.7267 -0.2191 -0.2796
  516MOL0     H68062   0.239   6.292   0.475 -2.1192 -1.0723 -0.8307
  516MOL0     H68063   0.136   6.389   0.662 -0.2976 -0.7601  0.5889
  516MOL0     H68064   0.043   6.283   0.550 -0.5534  0.1726 -1.7948
  516MOL0     H68065   0.017   6.545   0.751  1.7418 -0.9321 -1.7795
  516MOL0     H68066  -0.170   6.771   0.781  1.1324 -3.3757 -0.0405
  516MOL0     H68067  -0.326   6.729   0.709 -0.0328  0.5162 -0.8921
  516MOL0     H68068  -0.147   6.948   0.618 -0.5255  1.5841  0.1460
  516MOL0     H68069  -0.313   6.947   0.677 -0.1924 -2.5197  2.5880
  516MOL0     H68070  -0.324   6.995   0.431 -2.8167 -0.1102 -0.2787
  516MOL0     H68071  -0.226   6.840   0.417  0.1786 -2.6192  1.3171
  516MOL0     H68072  -0.424   6.715   0.457 -2.8236 -0.5273 -0.8314
  516MOL0     H68073  -0.473   6.855   0.359 -1.3053  1.0563  1.9515
  516MOL0     H68074  -0.676   6.769   0.327 -1.0256 -0.2234  0.0902
  516MOL0     H68075  -0.898   6.810   0.292 -0.4182 -5.2428  1.8406
  516MOL0     H68076  -1.361   6.907   0.410  1.2937 -3.3553  2.1735
  516MOL0     H68077  -1.588   6.994   0.446 -0.0404 -1.5969 -0.1941
  516MOL0     H68078  -1.683   7.250   0.835  0.3490 -1.3302  0.8951
  516MOL0     H68079  -1.719   7.082   0.843 -0.7089  1.2362  1.8605
  516MOL0     H68080  -1.923   7.227   0.873 -1.1914  3.3763 -0.7893
  516MOL0     H68081  -1.933   7.124   0.728  0.6752  0.3862 -0.2296
  516MOL0     H68082  -1.877   7.324   0.591  2.1367 -2.0948  1.1053
  516MOL0     H68083  -1.868   7.421   0.735 -1.4161  1.1745 -0.8585
  516MOL0     H68084  -2.104   7.257   0.622 -0.4371  0.0926 -1.0035
  516MOL0     H68085  -2.106   7.319   0.788 -2.6912 -0.7559 -1.8806
  516MOL0     H68086  -2.060   7.502   0.543 -0.7725  0.3225 -0.2026
  516MOL0     H68087  -2.097   7.555   0.707  1.4382 -1.9695  1.5159
  516MOL0     H68088  -2.271   7.439   0.496 -2.7667  0.7777 -0.3889
  516MOL0     H68089  -2.290   7.592   0.585 -1.2432 -0.0706  2.6710
  516MOL0     H68090  -2.344   7.307   0.672 -0.9816 -1.0407  0.1816
  516MOL0     H68091  -2.325   7.434   0.802 -0.5996  1.6835 -0.0463
  516MOL0     H68092  -2.525   7.422   0.574 -0.3307  0.9966  0.3112
  516MOL0     H68093  -2.484   7.569   0.670  0.4234  0.1474  1.0702
  516MOL0     H68094  -1.442   7.189   0.808 -1.5501  1.3823 -1.4691
  516MOL0     H68095  -1.224   7.087   0.772 -1.1779 -0.9370  0.5808
  516MOL0     H68096  -0.938   6.976   0.686 -0.5944  0.3666 -1.8354
  516MOL0     H68097  -0.670   6.975   0.703 -0.2649  0.6380 -0.0560
  516MOL0     H68098   1.102   6.131   0.581  0.2128 -0.2668  0.0191
  516MOL0     H68099   1.284   6.029   0.700  0.5362 -2.7834  0.2522
  516MOL0     H68100   1.478   5.628   0.829  0.0668  1.9812 -0.3927
  516MOL0     H68101   1.647   5.490   0.973 -2.3893 -1.5994  0.2984
  516MOL0     H68102   1.765   5.674   1.367 -3.1784  1.1641 -1.7797
  516MOL0     H68103   1.857   5.747   1.228  0.6448 -0.3754 -1.3130
  516MOL0     H68104   2.002   5.643   1.405 -0.3635  1.8108 -1.8766
  516MOL0     H68105   1.912   5.493   1.382 -0.7258  0.6316  1.1191
  516MOL0     H68106   2.118   5.618   1.204 -0.0048 -0.0111  1.1157
  516MOL0     H68107   1.994   5.495   1.153 -2.4284  0.1216  1.4895
  516MOL0     H68108   2.194   5.475   1.391 -0.2244  1.8771 -0.2045
  516MOL0     H68109   2.096   5.342   1.332  0.9447  0.1099 -0.3522
  516MOL0     H68110   2.398   5.338   1.053  1.4527  3.2172 -0.3386
  516MOL0     H68111   1.614   5.789   1.269  0.0853  1.5885 -0.7098
  516MOL0     H68112   1.428   5.904   1.159  1.6931  0.4202  0.2521
  517MOL0     O68113   0.991   2.031   2.708 -0.2491  0.0425  0.5442
  517MOL0     C68114   1.003   2.123   2.790 -0.0754 -0.4299  0.1516
  517MOL0     O68115   0.920   2.233   2.805 -0.0245 -0.1561 -0.5902
  517MOL0     C68116   0.805   2.260   2.737  0.5470 -0.5148 -0.3540
  517MOL0     C68117   0.793   2.384   2.667 -0.0087  0.8269 -0.3838
  517MOL0     C68118   0.680   2.411   2.603  0.1991 -0.4152 -0.0123
  517MOL0     C68119   0.564   2.331   2.620  0.1157 -0.1731  0.6657
  517MOL0     O68120   0.434   2.353   2.573  0.5567  0.1569  0.2451
  517MOL0     C68121   0.388   2.486   2.595 -0.8352 -0.2438 -0.2215
  517MOL0     C68122   0.248   2.477   2.554  0.0914 -0.2329 -0.2330
  517MOL0     C68123   0.182   2.620   2.573 -0.4878 -0.5854  0.2315
  517MOL0     C68124   0.034   2.618   2.519 -0.4056 -0.9942  0.4521
  517MOL0     C68125  -0.032   2.750   2.548  0.5080  0.1669 -0.0660
  517MOL0     C68126  -0.179   2.753   2.495  0.0933  0.5133  1.0187
  517MOL0     C68127  -0.247   2.870   2.570 -0.2312 -0.1343  0.1042
  517MOL0     C68128  -0.401   2.870   2.523 -0.1698  0.5941  0.4828
  517MOL0     N68129  -0.470   2.989   2.574 -0.7043 -0.3630 -0.8977
  517MOL0     C68130  -0.490   3.014   2.708  0.4713  0.0856  1.0418
  517MOL0     C68131  -0.596   3.100   2.706  0.2758  0.3926 -1.0009
  517MOL0     C68132  -0.659   3.162   2.823  0.7702 -0.1062 -0.0030
  517MOL0     C68133  -0.653   3.313   2.800 -0.0246 -0.0324 -0.3174
  517MOL0     C68134  -0.756   3.384   2.712  0.6438 -0.6789 -0.3191
  517MOL0     C68135  -0.757   3.539   2.735  0.5799 -0.2036  0.0754
  517MOL0     O68136  -0.850   3.599   2.640 -0.0092  0.0446  0.2788
  517MOL0     C68137  -0.885   3.729   2.655 -0.0875 -0.5313  1.0239
  517MOL0     C68138  -0.830   3.809   2.745 -0.2304 -0.6935  0.4107
  517MOL0     C68139  -0.868   3.945   2.747 -0.2861  0.6804 -0.7806
  517MOL0     C68140  -0.955   4.003   2.657 -0.9746 -0.0254 -0.1274
  517MOL0     C68141  -0.995   4.151   2.657 -0.2021  0.3032  0.7174
  517MOL0     O68142  -0.945   4.221   2.769 -0.6589 -0.0790 -0.2005
  517MOL0     C68143  -0.935   4.357   2.766 -0.2884  0.6537 -0.9957
  517MOL0     C68144  -0.894   4.421   2.644 -0.0312 -0.3473 -0.8079
  517MOL0     C68145  -0.893   4.561   2.642  0.4217  0.3287 -0.0779
  517MOL0     C68146  -0.928   4.641   2.750  0.0005 -0.5576 -0.3846
  517MOL0     O68147  -0.923   4.781   2.765 -0.4585  0.0354  0.2073
  517MOL0     C68148  -0.872   4.855   2.649  0.5072  0.4993 -0.8331
  517MOL0     C68149  -0.874   5.003   2.665  0.7917  0.0540  0.7840
  517MOL0     C68150  -1.015   5.060   2.650  0.9479 -0.1669 -0.0235
  517MOL0     C68151  -1.023   5.217   2.645 -0.1343  0.6340  0.9976
  517MOL0     C68152  -1.159   5.278   2.685  0.3261 -0.4015 -0.6290
  517MOL0     C68153  -1.260   5.243   2.574 -0.2418 -0.0735  0.1322
  517MOL0     C68154  -1.405   5.277   2.617  0.0607  0.1375  0.4000
  517MOL0     C68155  -1.514   5.247   2.513  0.3785  0.5025  0.0390
  517MOL0    Cl68156  -1.684   5.278   2.582 -0.3678 -0.3878  0.3844
  517MOL0     C68157  -0.975   4.576   2.864 -0.0681  0.1798 -0.6426
  517MOL0     C68158  -0.981   4.435   2.872 -0.0914 -0.0854 -0.2896
  517MOL0     O68159  -1.060   4.195   2.563 -0.1121 -0.1387  0.1858
  517MOL0     C68160  -1.013   3.923   2.561 -1.0370  0.2932 -0.5591
  517MOL0     C68161  -0.982   3.787   2.558 -0.7599 -0.0799  0.2797
  517MOL0     N68162  -0.652   3.113   2.584 -0.5805  0.2356  0.1441
  517MOL0     N68163  -0.571   3.052   2.504 -0.3643 -0.3793  0.5430
  517MOL0     C68164   0.575   2.213   2.681 -0.6381 -0.0290 -0.4972
  517MOL0     C68165   0.699   2.173   2.737  0.7339  0.3741  0.2122
  517MOL0     C68166   1.129   2.137   2.869 -0.5465 -0.1601  0.2805
  517MOL0     C68167   1.241   2.057   2.843 -0.5599  0.2512  0.1078
  517MOL0     C68168   1.365   2.078   2.905  0.2875 -0.2873  0.6748
  517MOL0     C68169   1.381   2.175   3.012  0.0347  0.0669  0.8367
  517MOL0     O68170   1.506   2.195   3.052 -0.1322 -0.3963  0.8453
  517MOL0     C68171   1.529   2.280   3.167 -0.8325  0.4693 -0.7103
  517MOL0     C68172   1.555   2.425   3.139 -0.3070  0.0117  0.4197
  517MOL0     C68173   1.618   2.496   3.269 -1.3209 -0.0314  0.2487
  517MOL0     C68174   1.679   2.628   3.247  0.4005 -0.0093  0.3662
  517MOL0     C68175   1.779   2.619   3.145 -0.1651 -0.0231 -0.5000
  517MOL0     C68176   1.857   2.626   3.056 -0.6545 -0.3534 -0.1606
  517MOL0     C68177   1.267   2.255   3.037  0.0037  0.3702 -0.7974
  517MOL0     C68178   1.145   2.233   2.971 -0.0004 -0.6721  0.6561
  517MOL0     H68179   0.884   2.434   2.638  1.9630 -1.4276  1.4378
  517MOL0     H68180   0.658   2.496   2.540  0.7496  0.8713  1.4696
  517MOL0     H68181   0.447   2.552   2.530  2.6277 -1.9452  0.9532
  517MOL0     H68182   0.380   2.530   2.695 -2.2791 -3.0823  1.0044
  517MOL0     H68183   0.206   2.396   2.615  2.3089 -0.5897  0.9564
  517MOL0     H68184   0.240   2.447   2.449  1.0958 -0.9785 -0.1136
  517MOL0     H68185   0.237   2.688   2.508  1.5553 -2.6814 -0.3919
  517MOL0     H68186   0.181   2.656   2.676 -1.8176 -0.7308  0.2914
  517MOL0     H68187   0.029   2.612   2.410  0.6672  0.6040  0.2853
  517MOL0     H68188  -0.012   2.533   2.571  2.1427 -2.3074  0.7509
  517MOL0     H68189   0.017   2.838   2.507 -2.2579  2.3557  1.0162
  517MOL0     H68190  -0.032   2.763   2.657 -1.6889 -1.9240  0.2821
  517MOL0     H68191  -0.232   2.661   2.524  1.2855 -1.3221 -2.1298
  517MOL0     H68192  -0.195   2.764   2.387 -0.2454 -0.7794  0.9136
  517MOL0     H68193  -0.242   2.858   2.678 -0.1268 -0.9318  0.0166
  517MOL0     H68194  -0.203   2.964   2.535  2.4820 -1.8753 -1.5232
  517MOL0     H68195  -0.451   2.778   2.557  0.0917  0.1958 -0.1981
  517MOL0     H68196  -0.402   2.877   2.414  0.1718 -0.7226  0.3777
  517MOL0     H68197  -0.440   2.968   2.793  0.5052 -0.4921  0.7090
  517MOL0     H68198  -0.618   3.135   2.920 -0.8351  2.2112  1.4347
  517MOL0     H68199  -0.764   3.132   2.825  0.6238  0.4291  0.6757
  517MOL0     H68200  -0.556   3.333   2.753 -0.4312  4.6711  0.3584
  517MOL0     H68201  -0.659   3.360   2.899  0.7873 -0.8467  0.1242
  517MOL0     H68202  -0.739   3.369   2.605 -0.5376  2.0231 -0.9621
  517MOL0     H68203  -0.858   3.350   2.731  0.9004 -1.3988 -0.1902
  517MOL0     H68204  -0.656   3.580   2.724 -0.3121  2.1896  0.3532
  517MOL0     H68205  -0.801   3.552   2.835 -0.4883  1.4951 -0.5778
  517MOL0     H68206  -0.750   3.779   2.812  1.8990  0.7356 -1.3392
  517MOL0     H68207  -0.834   4.006   2.831  2.9808 -1.4419 -0.3855
  517MOL0     H68208  -0.855   4.360   2.563  1.1449 -0.3451 -0.2644
  517MOL0     H68209  -0.857   4.614   2.554  0.0736  0.6555 -0.0258
  517MOL0     H68210  -0.935   4.827   2.564 -1.2336 -0.4884  0.6751
  517MOL0     H68211  -0.770   4.817   2.647 -0.2368 -1.6636 -0.7315
  517MOL0     H68212  -0.818   5.047   2.582  0.1949 -0.9561 -0.1912
  517MOL0     H68213  -0.832   5.033   2.761  1.5365  0.1103  0.4489
  517MOL0     H68214  -1.074   5.024   2.735  0.7728  1.2426  0.4913
  517MOL0     H68215  -1.064   5.018   2.562  1.6669 -1.2267  0.0674
  517MOL0     H68216  -0.945   5.257   2.710 -0.5650  1.7852  0.8244
  517MOL0     H68217  -1.002   5.250   2.543  2.1521 -0.0400  1.2006
  517MOL0     H68218  -1.139   5.385   2.688 -2.0146  0.1208 -1.4939
  517MOL0     H68219  -1.201   5.250   2.783  1.9176 -2.0811 -0.3746
  517MOL0     H68220  -1.244   5.138   2.547  2.7996  0.3818 -0.2128
  517MOL0     H68221  -1.232   5.288   2.479  0.9475  2.3847  1.5431
  517MOL0     H68222  -1.430   5.208   2.698  0.0242 -0.8108 -0.3973
  517MOL0     H68223  -1.413   5.382   2.648 -0.2902  0.5682 -1.0834
  517MOL0     H68224  -1.515   5.142   2.483 -0.8808  0.3615  0.4961
  517MOL0     H68225  -1.512   5.301   2.419 -0.8774  1.3955  0.4875
  517MOL0     H68226  -1.015   4.641   2.941 -2.9001 -0.6803 -1.2696
  517MOL0     H68227  -1.024   4.389   2.960  0.0544 -2.1345 -1.2389
  517MOL0     H68228  -1.077   3.966   2.485 -1.2094  2.7343  0.8285
  517MOL0     H68229  -1.016   3.717   2.483 -0.0882 -0.4284  0.2930
  517MOL0     H68230   0.492   2.146   2.704 -1.9326  1.3508 -1.0032
  517MOL0     H68231   0.702   2.075   2.784 -0.3522  0.4362  0.4440
  517MOL0     H68232   1.237   1.990   2.758 -1.8667  0.8925 -0.3572
  517MOL0     H68233   1.452   2.018   2.880  0.8732  0.6971  0.3102
  517MOL0     H68234   1.613   2.245   3.227  0.9551  2.0328 -2.1745
  517MOL0     H68235   1.441   2.273   3.232 -2.0963  0.6680 -2.3214
  517MOL0     H68236   1.625   2.427   3.055 -1.5258  0.5999 -0.6169
  517MOL0     H68237   1.464   2.474   3.104  0.4530  1.8672  0.9327
  517MOL0     H68238   1.704   2.438   3.305  0.8476  2.1279 -1.1108
  517MOL0     H68239   1.533   2.514   3.335 -2.2290  1.4610 -1.2444
  517MOL0     H68240   1.610   2.712   3.232  0.4229 -0.3460 -2.0926
  517MOL0     H68241   1.731   2.660   3.338  1.9045 -0.6631 -0.2200
  517MOL0     H68242   1.928   2.612   2.977  0.9326 -0.6643  1.2519
  517MOL0     H68243   1.274   2.350   3.088 -3.6054 -0.1061  0.9165
  517MOL0     H68244   1.073   2.302   3.015 -0.3469  0.0683 -0.9964
  518MOL0     O68245   8.270   4.964   1.719  0.4431 -0.2139  0.6155
  518MOL0     C68246   8.158   4.918   1.694 -0.7699  0.3951  0.0733
  518MOL0     O68247   8.133   4.802   1.627 -0.4286 -0.3698 -0.5255
  518MOL0     C68248   8.238   4.738   1.570 -1.3713 -0.1982  0.0606
  518MOL0     C68249   8.235   4.733   1.431  0.5518 -0.0174 -0.2941
  518MOL0     C68250   8.349   4.689   1.365  0.0077  0.5136 -0.3209
  518MOL0     C68251   8.466   4.654   1.415 -0.0604 -0.0264  0.6198
  518MOL0     O68252   8.563   4.619   1.329 -0.0410 -0.1134  0.5416
  518MOL0     C68253   8.693   4.589   1.386  0.4780  0.2285 -0.3947
  518MOL0     C68254   8.792   4.539   1.281  0.6858 -0.3013  0.3531
  518MOL0     C68255   8.907   4.483   1.364 -0.6253 -0.1880  0.6384
  518MOL0     C68256   9.023   4.420   1.283  0.2588  0.2167 -0.3339
  518MOL0     C68257   8.963   4.288   1.225  0.0426 -0.5662 -0.7585
  518MOL0     C68258   9.065   4.182   1.187  0.0381  0.6173  0.8368
  518MOL0     C68259   9.191   4.226   1.118 -0.6362  0.1716 -0.0589
  518MOL0     C68260   9.258   4.102   1.053 -0.4490 -0.4239  0.6801
  518MOL0     N68261   9.298   3.995   1.140 -0.2592  0.8127  0.6001
  518MOL0     C68262   9.218   3.891   1.177  0.2348 -0.2379 -0.1417
  518MOL0     C68263   9.285   3.826   1.270  0.2597  0.0052  0.3981
  518MOL0     C68264   9.220   3.719   1.347 -0.1161 -0.4351 -0.3084
  518MOL0     C68265   9.091   3.772   1.419  0.1021 -0.1398 -0.0142
  518MOL0     C68266   9.126   3.807   1.562  0.1110 -0.3206 -0.2067
  518MOL0     C68267   8.987   3.838   1.639  0.5065 -0.1936  0.2434
  518MOL0     O68268   8.927   3.951   1.581  0.6675  0.6408  0.2638
  518MOL0     C68269   8.842   4.038   1.649 -0.0257  0.3372 -0.5398
  518MOL0     C68270   8.786   4.133   1.567 -0.3465 -0.0239  0.1294
  518MOL0     C68271   8.697   4.227   1.619  1.3315  0.1137  0.2206
  518MOL0     C68272   8.663   4.218   1.758 -0.3834 -0.8649  1.3579
  518MOL0     C68273   8.569   4.312   1.816  0.1014 -0.2425 -0.0569
  518MOL0     O68274   8.556   4.312   1.959  0.0281 -0.3852 -0.9996
  518MOL0     C68275   8.454   4.389   2.017  0.1360  0.4274  0.9943
  518MOL0     C68276   8.456   4.527   2.000 -1.1694 -0.3730  0.3676
  518MOL0     C68277   8.358   4.612   2.062  0.1364 -1.2119  0.2022
  518MOL0     C68278   8.254   4.554   2.131  0.2333  0.3231 -0.0160
  518MOL0     O68279   8.153   4.616   2.202  0.4065  0.3953  0.4585
  518MOL0     C68280   8.136   4.756   2.181  0.2529  0.1419  0.1898
  518MOL0     C68281   8.030   4.814   2.277 -0.1485 -0.1869  0.3834
  518MOL0     C68282   8.048   4.960   2.296  0.6223 -0.3287 -0.3724
  518MOL0     C68283   7.916   5.024   2.359 -1.4311 -0.0020 -0.0251
  518MOL0     C68284   7.914   5.180   2.366 -0.3190  0.0563 -0.7093
  518MOL0     C68285   8.033   5.239   2.452  0.5101  1.4639 -0.1724
  518MOL0     C68286   8.038   5.171   2.595 -0.1410  0.3002  0.0545
  518MOL0     C68287   8.144   5.241   2.688 -0.1410 -0.1528 -0.5799
  518MOL0    Cl68288   8.118   5.414   2.690  0.0652 -0.3779 -0.1980
  518MOL0     C68289   8.246   4.418   2.148 -0.0894 -0.3111 -0.6422
  518MOL0     C68290   8.350   4.340   2.093 -0.7405  0.3706  1.0259
  518MOL0     O68291   8.510   4.391   1.739 -0.0138  0.2615  0.0289
  518MOL0     C68292   8.704   4.109   1.835  0.4512 -0.3762 -0.3605
  518MOL0     C68293   8.799   4.019   1.784  0.1423  0.6471 -0.1462
  518MOL0     N68294   9.408   3.895   1.289 -0.4518  0.4565 -0.5588
  518MOL0     N68295   9.414   3.993   1.209  0.5015  0.3167  0.3864
  518MOL0     C68296   8.467   4.660   1.555 -0.5399  0.5365  0.1227
  518MOL0     C68297   8.355   4.691   1.639  0.4397 -0.6102 -0.3609
  518MOL0     C68298   8.041   4.961   1.768  0.5323 -0.5258  0.0138
  518MOL0     C68299   7.909   4.948   1.720 -0.4971  0.3575  0.0661
  518MOL0     C68300   7.801   5.007   1.779  0.4402  0.0995  0.0269
  518MOL0     C68301   7.815   5.070   1.903 -0.1793 -0.7189  0.4576
  518MOL0     O68302   7.718   5.128   1.973  0.1477  0.0287  0.4067
  518MOL0     C68303   7.584   5.080   1.955 -0.0928  0.6096  0.5864
  518MOL0     C68304   7.488   5.115   2.071 -0.1584  0.6523  1.3759
  518MOL0     C68305   7.508   5.045   2.204  0.9450 -1.1664 -0.3946
  518MOL0     C68306   7.449   5.141   2.319  0.2610 -0.2329  0.6842
  518MOL0     C68307   7.312   5.177   2.284  0.1357  0.3154  0.7028
  518MOL0     C68308   7.197   5.210   2.274 -1.1726  0.8682  0.5840
  518MOL0     C68309   7.940   5.080   1.961 -0.2000  0.3329  0.3948
  518MOL0     C68310   8.051   5.023   1.894 -0.3087  0.1484  0.0844
  518MOL0     H68311   8.150   4.771   1.374 -0.2602 -0.3735  0.6603
  518MOL0     H68312   8.352   4.678   1.257  1.0778 -0.2169 -0.2374
  518MOL0     H68313   8.692   4.520   1.471  1.8491  1.2472  0.5056
  518MOL0     H68314   8.731   4.685   1.424  1.9892  0.0549 -1.3739
  518MOL0     H68315   8.837   4.631   1.243  0.2358  0.1102  0.8119
  518MOL0     H68316   8.743   4.481   1.202 -2.4235  1.8375  0.5563
  518MOL0     H68317   8.873   4.404   1.432 -3.1855 -0.2065 -0.5685
  518MOL0     H68318   8.956   4.562   1.422 -2.4093  2.4129 -1.2088
  518MOL0     H68319   9.056   4.488   1.204 -0.2421  0.5705 -0.2455
  518MOL0     H68320   9.108   4.393   1.347  2.0555  1.2584 -2.1527
  518MOL0     H68321   8.903   4.306   1.136  0.1998 -1.4404 -1.0563
  518MOL0     H68322   8.894   4.253   1.302  0.7749 -0.4076 -0.0068
  518MOL0     H68323   9.010   4.112   1.124  1.2547 -2.3343  2.8107
  518MOL0     H68324   9.098   4.126   1.275  1.7629 -0.4333 -0.4086
  518MOL0     H68325   9.181   4.303   1.040  0.8660 -0.7743 -1.2502
  518MOL0     H68326   9.260   4.259   1.196 -1.3155  2.7725 -0.4620
  518MOL0     H68327   9.351   4.134   1.004 -0.8051 -0.6948 -0.1920
  518MOL0     H68328   9.191   4.067   0.974  2.3217  0.4174 -2.2765
  518MOL0     H68329   9.112   3.887   1.158  0.6241  2.7286 -4.2947
  518MOL0     H68330   9.298   3.679   1.413 -0.7975  0.0268  0.8186
  518MOL0     H68331   9.185   3.632   1.291  0.2771 -1.9219  1.6286
  518MOL0     H68332   9.011   3.697   1.420 -0.4450  0.4285  1.4057
  518MOL0     H68333   9.053   3.857   1.362  0.2068 -0.6688 -0.8935
  518MOL0     H68334   9.165   3.725   1.622 -2.3505  0.9300  3.4269
  518MOL0     H68335   9.201   3.887   1.560  1.2857 -1.1838  3.1821
  518MOL0     H68336   9.009   3.852   1.745 -0.0808 -1.2669  0.5190
  518MOL0     H68337   8.914   3.757   1.634  0.2736 -0.1082  1.8519
  518MOL0     H68338   8.830   4.137   1.467  0.1875  3.0069  0.3827
  518MOL0     H68339   8.656   4.310   1.563  1.4432  0.9318  1.2982
  518MOL0     H68340   8.527   4.573   1.932 -2.1588 -1.5171 -1.5300
  518MOL0     H68341   8.358   4.721   2.055 -0.2939 -1.2970 -1.5700
  518MOL0     H68342   8.116   4.773   2.075  1.8433 -2.1168 -0.5651
  518MOL0     H68343   8.227   4.811   2.205 -0.6783  1.3156  1.1626
  518MOL0     H68344   8.044   4.765   2.374 -0.3525  2.8733  2.0855
  518MOL0     H68345   7.930   4.800   2.234 -0.8493  1.4945  1.3538
  518MOL0     H68346   8.060   5.001   2.195  0.2543 -3.8496 -1.9877
  518MOL0     H68347   8.132   4.986   2.361 -1.5557  1.2049  1.9952
  518MOL0     H68348   7.832   4.998   2.295  0.1627 -0.8741 -1.8821
  518MOL0     H68349   7.901   4.971   2.453  0.8956  0.8577  0.9156
  518MOL0     H68350   7.827   5.208   2.425  0.9496 -1.8851  2.3287
  518MOL0     H68351   7.917   5.233   2.270 -2.2214  1.2493 -0.1491
  518MOL0     H68352   8.013   5.346   2.450 -2.1097  1.0640  0.1064
  518MOL0     H68353   8.128   5.225   2.400  0.2417  1.0314 -0.5607
  518MOL0     H68354   7.940   5.187   2.641 -0.3346 -3.5196  1.3765
  518MOL0     H68355   8.060   5.064   2.594  2.8162  0.8403 -0.3613
  518MOL0     H68356   8.241   5.228   2.639 -1.1554  0.7482 -3.0173
  518MOL0     H68357   8.148   5.193   2.786  1.8458  0.3830 -0.3600
  518MOL0     H68358   8.164   4.386   2.212 -0.5112  3.7246  1.1501
  518MOL0     H68359   8.339   4.233   2.100 -0.1128  0.0419 -1.7447
  518MOL0     H68360   8.661   4.090   1.933  1.8904  0.1667  0.4113
  518MOL0     H68361   8.850   3.950   1.851  1.3556  2.5382  0.9762
  518MOL0     H68362   8.560   4.620   1.594 -0.0055 -0.4135 -1.9739
  518MOL0     H68363   8.361   4.682   1.748  1.3138 -0.8298 -0.4118
  518MOL0     H68364   7.906   4.907   1.619  0.3932  0.8241 -0.1606
  518MOL0     H68365   7.701   5.004   1.737  1.3423 -3.6468 -2.3167
  518MOL0     H68366   7.594   4.971   1.945 -0.3604  0.5838  0.5913
  518MOL0     H68367   7.552   5.121   1.859  1.0392 -3.5800 -1.8600
  518MOL0     H68368   7.503   5.222   2.087  0.7662  0.5117  1.5209
  518MOL0     H68369   7.389   5.093   2.031  0.9182  0.7066 -1.5364
  518MOL0     H68370   7.614   5.038   2.229  0.7867 -0.0583  0.7587
  518MOL0     H68371   7.468   4.944   2.215 -0.6247 -0.7992 -2.2281
  518MOL0     H68372   7.441   5.085   2.413  1.1668 -3.7721 -1.1612
  518MOL0     H68373   7.517   5.227   2.327  0.9192 -0.4211 -1.9047
  518MOL0     H68374   7.099   5.246   2.252 -0.3475  1.7799 -1.8678
  518MOL0     H68375   7.965   5.136   2.051  2.0104  0.7802 -0.4331
  518MOL0     H68376   8.143   5.026   1.952  1.1753  0.0398 -2.1266
  519MOL0     O68377   8.302   8.945   2.661 -0.8720  0.1459 -0.5128
  519MOL0     C68378   8.359   8.987   2.559  0.7333  0.7187 -0.5456
  519MOL0     O68379   8.297   9.067   2.464  0.0407  0.3714  0.5264
  519MOL0     C68380   8.163   9.053   2.460 -0.6757  0.4523 -0.1019
  519MOL0     C68381   8.099   8.929   2.435 -0.1943 -0.6666 -0.2765
  519MOL0     C68382   7.965   8.913   2.399 -0.4754  0.2671  0.7972
  519MOL0     C68383   7.887   9.018   2.414 -0.4258 -0.3433  0.0554
  519MOL0     O68384   7.748   8.991   2.393 -0.5509 -0.2794 -0.6011
  519MOL0     C68385   7.655   9.102   2.352  0.0463  0.5896 -0.1496
  519MOL0     C68386   7.540   9.024   2.291 -0.4795  0.5485  0.7256
  519MOL0     C68387   7.434   9.114   2.225 -0.8585 -0.5974 -0.5417
  519MOL0     C68388   7.331   9.031   2.154 -1.2416  0.5148 -0.0898
  519MOL0     C68389   7.235   9.132   2.097 -0.1703 -0.3230  0.7171
  519MOL0     C68390   7.138   9.062   2.006  0.3183  0.3882 -0.3938
  519MOL0     C68391   7.032   9.155   1.974  0.8461 -0.0325 -0.3943
  519MOL0     C68392   6.920   9.085   1.884  0.1424  0.1754  0.0560
  519MOL0     N68393   6.827   9.191   1.835 -0.2816 -0.8234  0.4466
  519MOL0     C68394   6.692   9.178   1.831 -0.0259 -0.7184  0.0858
  519MOL0     C68395   6.641   9.300   1.783 -0.1823 -0.4357 -0.7984
  519MOL0     C68396   6.495   9.330   1.774 -0.0639 -1.1425 -0.7268
  519MOL0     C68397   6.407   9.212   1.714 -0.0294  1.4762 -0.4569
  519MOL0     C68398   6.463   9.125   1.595 -0.8155 -0.8101  0.5148
  519MOL0     C68399   6.372   9.027   1.539 -0.7828  0.6590  0.3388
  519MOL0     O68400   6.246   9.084   1.491 -0.1844 -0.4910 -0.1891
  519MOL0     C68401   6.126   9.082   1.556 -0.4580  0.1556  0.4909
  519MOL0     C68402   6.103   9.002   1.672 -1.0636 -0.8208 -0.4010
  519MOL0     C68403   5.977   8.984   1.730 -0.9814 -0.0623 -0.0665
  519MOL0     C68404   5.871   9.073   1.691 -0.8564  0.2467  0.6249
  519MOL0     C68405   5.747   9.070   1.771 -0.7371 -0.8609 -0.2102
  519MOL0     O68406   5.628   9.115   1.712  0.4942  0.0033 -0.5882
  519MOL0     C68407   5.516   9.130   1.800  0.2367  0.1464 -0.5302
  519MOL0     C68408   5.411   9.035   1.794  0.0540  0.8788  0.6474
  519MOL0     C68409   5.301   9.045   1.875  0.2878 -0.2899  0.2825
  519MOL0     C68410   5.287   9.149   1.963 -0.1170 -0.2053 -0.7270
  519MOL0     O68411   5.175   9.159   2.033  0.7938  0.0834 -0.2234
  519MOL0     C68412   5.189   9.220   2.166 -1.3503 -0.5763 -0.5148
  519MOL0     C68413   5.062   9.202   2.252  0.2720 -0.6720 -0.4447
  519MOL0     C68414   4.939   9.285   2.193 -0.1407  0.2091 -0.2060
  519MOL0     C68415   4.798   9.256   2.257 -0.7468 -0.1427 -0.0585
  519MOL0     C68416   4.700   9.369   2.217 -0.7368  0.4082  0.2599
  519MOL0     C68417   4.672   9.387   2.068  0.1278  0.1891 -0.9012
  519MOL0     C68418   4.588   9.512   2.046  0.9981 -0.6423  0.3991
  519MOL0     C68419   4.563   9.524   1.897 -0.1419 -0.3994  0.1486
  519MOL0    Cl68420   4.449   9.665   1.858 -0.3745  0.1004  0.9137
  519MOL0     C68421   5.392   9.245   1.974 -0.2114  0.9930 -0.3528
  519MOL0     C68422   5.509   9.224   1.901  0.6227 -0.4616 -0.1521
  519MOL0     O68423   5.754   9.011   1.879 -0.0484  1.0286 -0.4315
  519MOL0     C68424   5.889   9.154   1.575  0.0482 -0.2268  0.1947
  519MOL0     C68425   6.016   9.166   1.515 -0.4384  1.0087  0.3560
  519MOL0     N68426   6.751   9.380   1.759  0.2014  0.2657 -0.2688
  519MOL0     N68427   6.861   9.311   1.785 -0.1258  0.8122  0.2233
  519MOL0     C68428   7.940   9.151   2.434 -0.2862 -0.2231  0.5206
  519MOL0     C68429   8.078   9.161   2.462  0.1070  0.3490  0.2489
  519MOL0     C68430   8.508   8.952   2.550 -0.7249  0.5920  1.3742
  519MOL0     C68431   8.589   9.013   2.445  0.1390  0.8577 -0.3791
  519MOL0     C68432   8.727   8.995   2.447 -0.2032  0.1447  0.0163
  519MOL0     C68433   8.784   8.901   2.531  0.1483 -0.0079  0.3110
  519MOL0     O68434   8.914   8.865   2.524 -0.7836  0.4386 -0.3269
  519MOL0     C68435   8.989   8.876   2.401  0.6038 -0.3328  0.0538
  519MOL0     C68436   9.081   8.764   2.403 -0.8018  0.6045 -0.4542
  519MOL0     C68437   9.160   8.755   2.262  0.2801  0.6579  0.4191
  519MOL0     C68438   9.245   8.619   2.262 -0.1392 -0.2849 -0.2932
  519MOL0     C68439   9.345   8.616   2.152  1.3765  0.7087 -0.2770
  519MOL0     C68440   9.428   8.605   2.064 -0.8991 -0.1201 -1.1361
  519MOL0     C68441   8.707   8.830   2.624 -0.1340 -0.5139  0.1560
  519MOL0     C68442   8.570   8.865   2.637  0.8353  0.4553 -0.1829
  519MOL0     H68443   8.165   8.842   2.428 -0.9443 -1.1779 -1.2091
  519MOL0     H68444   7.925   8.817   2.369  0.3508  0.1485  0.0178
  519MOL0     H68445   7.700   9.171   2.280  0.3167  1.3245  0.7011
  519MOL0     H68446   7.607   9.162   2.431  0.4935  1.6245 -0.6449
  519MOL0     H68447   7.497   8.952   2.362  0.2524 -0.1482  0.4846
  519MOL0     H68448   7.587   8.968   2.209 -1.0854  1.5329 -0.3136
  519MOL0     H68449   7.489   9.174   2.152  0.1797 -1.2388 -0.3125
  519MOL0     H68450   7.393   9.174   2.306  0.8716  1.7450 -1.2859
  519MOL0     H68451   7.385   8.968   2.083 -0.1764  1.6131 -0.2979
  519MOL0     H68452   7.282   8.966   2.227 -1.9445 -0.4767 -1.4185
  519MOL0     H68453   7.302   9.199   2.042  0.2435  0.2628  1.8893
  519MOL0     H68454   7.185   9.198   2.169  0.0537  2.0747 -1.1911
  519MOL0     H68455   7.096   8.978   2.063  1.0663  0.8068  0.8199
  519MOL0     H68456   7.190   9.016   1.922 -1.5643 -1.9404 -0.3983
  519MOL0     H68457   6.970   9.182   2.060 -3.2378 -2.7882 -2.1426
  519MOL0     H68458   7.079   9.247   1.940  0.6253 -0.7689 -2.9390
  519MOL0     H68459   6.865   9.015   1.946  0.3355  0.9256  1.0980
  519MOL0     H68460   6.972   9.039   1.799 -1.0331  0.8672 -1.0846
  519MOL0     H68461   6.637   9.094   1.873  0.5952 -0.4393  1.5081
  519MOL0     H68462   6.473   9.420   1.717 -0.6161 -1.1238 -0.4881
  519MOL0     H68463   6.466   9.359   1.875  2.0822  0.6416 -0.5410
  519MOL0     H68464   6.321   9.268   1.676 -0.3700  0.3372 -1.4338
  519MOL0     H68465   6.383   9.145   1.797 -0.4369  2.4570  0.2403
  519MOL0     H68466   6.479   9.190   1.509 -1.6552 -0.0588  0.8981
  519MOL0     H68467   6.560   9.080   1.614  1.3017  2.8356 -0.7138
  519MOL0     H68468   6.364   8.944   1.610  0.2704  0.3361  0.1104
  519MOL0     H68469   6.423   8.981   1.453  1.5037  3.3340  0.1343
  519MOL0     H68470   6.182   8.944   1.718 -1.5024  0.5354  2.2504
  519MOL0     H68471   5.953   8.909   1.805  2.9905 -2.1678 -0.6471
  519MOL0     H68472   5.417   8.954   1.722 -0.9714  1.5505 -0.2487
  519MOL0     H68473   5.215   8.980   1.860  0.4513 -0.3472 -0.4144
  519MOL0     H68474   5.204   9.328   2.161  3.8050 -0.9445  1.0806
  519MOL0     H68475   5.281   9.181   2.211 -0.9669  1.6663  0.7939
  519MOL0     H68476   5.090   9.244   2.349 -0.8715 -0.1479 -0.3299
  519MOL0     H68477   5.040   9.095   2.260 -3.2614 -0.0219  0.0553
  519MOL0     H68478   4.939   9.266   2.085  2.4793  1.2806 -0.4782
  519MOL0     H68479   4.954   9.391   2.215 -4.3460  1.0472 -0.5483
  519MOL0     H68480   4.766   9.156   2.226 -0.6576 -0.5501  1.1302
  519MOL0     H68481   4.798   9.252   2.366  0.0573 -2.9835 -0.0790
  519MOL0     H68482   4.741   9.466   2.246 -0.5352  0.3833  0.0639
  519MOL0     H68483   4.606   9.365   2.273 -0.0783  4.1251  1.9155
  519MOL0     H68484   4.624   9.296   2.033  0.3728 -0.0414 -0.6412
  519MOL0     H68485   4.763   9.400   2.009  1.2194  0.1834  0.7136
  519MOL0     H68486   4.491   9.503   2.097 -0.2936 -0.0287 -1.8116
  519MOL0     H68487   4.643   9.597   2.087  1.8794 -1.1070  0.2044
  519MOL0     H68488   4.525   9.435   1.846 -3.6323 -0.0930  1.8651
  519MOL0     H68489   4.666   9.544   1.866 -0.3357 -0.2722 -0.4256
  519MOL0     H68490   5.385   9.328   2.044  1.5252  0.0448  1.0076
  519MOL0     H68491   5.588   9.294   1.925  2.0999 -1.7661 -1.0578
  519MOL0     H68492   5.799   9.206   1.543  0.2967  2.0669  2.8795
  519MOL0     H68493   6.020   9.232   1.428 -1.1517  2.4291  1.3699
  519MOL0     H68494   7.881   9.240   2.453  0.6551  0.1495  1.7831
  519MOL0     H68495   8.114   9.263   2.469  0.8733  0.1248 -0.3142
  519MOL0     H68496   8.539   9.057   2.359 -0.8008  3.8668  1.5502
  519MOL0     H68497   8.791   9.035   2.369 -0.4529 -2.8470 -1.8673
  519MOL0     H68498   9.036   8.975   2.411 -0.6452  0.1616  1.4242
  519MOL0     H68499   8.917   8.860   2.321 -0.0485  0.7926  0.3942
  519MOL0     H68500   9.152   8.773   2.486  0.1700 -2.4471 -0.8406
  519MOL0     H68501   9.025   8.674   2.427  1.9824 -0.7469  1.4157
  519MOL0     H68502   9.230   8.835   2.236  0.8449  0.7062  1.9635
  519MOL0     H68503   9.089   8.746   2.179  2.8283  0.3706 -1.8469
  519MOL0     H68504   9.304   8.604   2.352 -0.5647  0.7994  0.1929
  519MOL0     H68505   9.180   8.532   2.250 -0.8331 -0.0191  1.2398
  519MOL0     H68506   9.499   8.597   1.985  0.5944  0.8637  0.0496
  519MOL0     H68507   8.758   8.757   2.686 -0.3236  1.1514  2.4012
  519MOL0     H68508   8.518   8.824   2.723  0.6202 -0.0348 -0.5439
  520MOL0     O68509   4.008   3.268   5.307  0.1972  0.2837 -0.0623
  520MOL0     C68510   4.042   3.347   5.218 -0.1562  0.5305 -0.1465
  520MOL0     O68511   3.976   3.377   5.108  0.2314 -0.1660 -0.6020
  520MOL0     C68512   3.844   3.366   5.087  0.4196  0.4773 -0.8024
  520MOL0     C68513   3.797   3.333   4.965 -0.5779  0.4819  0.6639
  520MOL0     C68514   3.654   3.321   4.944 -0.9115 -0.5089  0.4161
  520MOL0     C68515   3.566   3.354   5.047 -0.3477 -0.1679 -0.0366
  520MOL0     O68516   3.434   3.365   5.032 -0.5867  0.4050  0.5393
  520MOL0     C68517   3.349   3.261   5.082 -0.8130 -0.3713 -0.3205
  520MOL0     C68518   3.215   3.322   5.118  0.8600 -1.1515  0.0686
  520MOL0     C68519   3.116   3.237   5.189 -0.0445 -0.0317 -0.7454
  520MOL0     C68520   2.999   3.326   5.223  0.3757  0.1342 -0.6153
  520MOL0     C68521   2.895   3.253   5.314 -0.3177  0.5568  0.8647
  520MOL0     C68522   2.771   3.340   5.332  1.0450 -0.2476  0.0432
  520MOL0     C68523   2.663   3.271   5.414 -0.6562 -0.1849 -0.1725
  520MOL0     C68524   2.542   3.364   5.447 -0.9215 -0.6933  0.0576
  520MOL0     N68525   2.445   3.296   5.540 -0.4433 -0.4910  0.5720
  520MOL0     C68526   2.463   3.199   5.643 -0.1310  0.6123 -0.5880
  520MOL0     C68527   2.331   3.165   5.672  0.1153  0.1407  0.2412
  520MOL0     C68528   2.307   3.056   5.775  0.5602 -0.8102  0.2718
  520MOL0     C68529   2.342   3.107   5.909 -1.1170  0.3558  0.1126
  520MOL0     C68530   2.311   2.996   6.017  0.0733  0.4718  0.4410
  520MOL0     C68531   2.163   2.997   6.057  0.2405 -0.5151 -0.1576
  520MOL0     O68532   2.093   3.128   6.075 -0.0188 -0.2970  0.5916
  520MOL0     C68533   1.991   3.125   6.173  0.6943 -0.1690 -0.1161
  520MOL0     C68534   1.915   3.012   6.202 -0.8805  0.2773 -0.1038
  520MOL0     C68535   1.801   3.013   6.276  0.2793 -0.8852  0.5616
  520MOL0     C68536   1.756   3.137   6.335 -0.2013  0.9078 -0.0818
  520MOL0     C68537   1.633   3.131   6.413 -0.7975  1.0915 -0.0036
  520MOL0     O68538   1.603   3.233   6.493  0.0693  0.5589  0.5931
  520MOL0     C68539   1.476   3.248   6.538 -1.4373  0.5597 -1.2234
  520MOL0     C68540   1.464   3.300   6.667  0.9965 -0.5688 -0.0790
  520MOL0     C68541   1.330   3.317   6.718 -0.5188  0.2813 -0.1234
  520MOL0     C68542   1.217   3.304   6.634 -0.7372  0.3325  0.5689
  520MOL0     O68543   1.088   3.339   6.673  0.4689  0.0694  0.1162
  520MOL0     C68544   1.052   3.369   6.809 -0.2805 -0.1941 -1.3316
  520MOL0     C68545   1.058   3.258   6.913 -0.2767 -0.2016 -0.9462
  520MOL0     C68546   0.941   3.167   6.890  0.3108  0.1014 -0.4977
  520MOL0     C68547   0.924   3.069   7.009 -0.7366  0.3996 -0.4365
  520MOL0     C68548   0.840   2.938   6.974  1.2429 -0.1028 -0.3249
  520MOL0     C68549   0.913   2.844   6.880 -0.2404  0.6052  0.8426
  520MOL0     C68550   0.811   2.742   6.830 -0.5994  0.2403 -1.3371
  520MOL0     C68551   0.893   2.621   6.780 -0.0891 -0.1713 -0.1857
  520MOL0    Cl68552   0.779   2.498   6.715  0.1380 -0.2948 -0.2455
  520MOL0     C68553   1.232   3.260   6.506 -0.2104  0.6050  0.5609
  520MOL0     C68554   1.360   3.230   6.460 -0.4547  0.1095  0.1973
  520MOL0     O68555   1.566   3.023   6.406 -0.0797  0.1434 -0.0602
  520MOL0     C68556   1.834   3.251   6.317 -0.9232 -0.3375  0.4220
  520MOL0     C68557   1.954   3.241   6.238 -0.0389  0.2178  0.2832
  520MOL0     N68558   2.246   3.228   5.592 -0.3111  0.6317 -0.4654
  520MOL0     N68559   2.309   3.305   5.510  0.1292 -0.3421 -1.1209
  520MOL0     C68560   3.619   3.375   5.173  0.0992 -0.2382 -0.6819
  520MOL0     C68561   3.757   3.390   5.194 -0.0384 -0.4455  0.0446
  520MOL0     C68562   4.183   3.393   5.231  0.1367  0.4048 -0.1416
  520MOL0     C68563   4.269   3.350   5.332  0.3669 -0.3722 -0.2225
  520MOL0     C68564   4.399   3.395   5.325 -0.2968  0.4529  0.4517
  520MOL0     C68565   4.453   3.483   5.229  1.3057  0.4540 -0.4168
  520MOL0     O68566   4.584   3.508   5.244 -0.2118 -0.1628 -0.8547
  520MOL0     C68567   4.649   3.604   5.159 -0.5058  0.3593 -1.3430
  520MOL0     C68568   4.798   3.575   5.172 -0.1878  0.0570  0.1526
  520MOL0     C68569   4.837   3.436   5.114  0.0117 -0.3424  0.3023
  520MOL0     C68570   4.993   3.426   5.103  0.3671  0.0088  0.2448
  520MOL0     C68571   5.031   3.510   4.983  1.0643 -0.2684  0.5005
  520MOL0     C68572   5.056   3.582   4.888 -0.0669  0.2712 -0.5390
  520MOL0     C68573   4.361   3.534   5.141  0.6313  0.0067  0.1219
  520MOL0     C68574   4.230   3.491   5.142  0.3259  0.1101  0.5046
  520MOL0     H68575   3.859   3.327   4.876  0.9422 -0.1922  1.7223
  520MOL0     H68576   3.619   3.296   4.844  0.8812 -1.7708  0.0562
  520MOL0     H68577   3.378   3.217   5.178  2.1033  2.2161  0.1307
  520MOL0     H68578   3.320   3.179   5.016  0.1617 -0.2184 -0.9429
  520MOL0     H68579   3.159   3.368   5.035 -1.6635  2.8857  3.5824
  520MOL0     H68580   3.244   3.409   5.178  2.1993 -2.2854  1.1128
  520MOL0     H68581   3.160   3.187   5.276  1.6106 -1.4805 -2.3064
  520MOL0     H68582   3.086   3.156   5.122  1.6632  0.6081 -2.3869
  520MOL0     H68583   3.031   3.413   5.280 -2.4395 -0.6752  2.5199
  520MOL0     H68584   2.945   3.355   5.132 -5.1398 -0.1960  2.1112
  520MOL0     H68585   2.946   3.227   5.407 -0.2541 -0.0450  0.6630
  520MOL0     H68586   2.864   3.161   5.264 -0.2010  1.1793 -0.4133
  520MOL0     H68587   2.729   3.358   5.233  0.2715  0.5170  0.4954
  520MOL0     H68588   2.794   3.434   5.383 -0.0307 -1.8618  3.8999
  520MOL0     H68589   2.645   3.184   5.350 -0.3904 -0.1980 -0.2340
  520MOL0     H68590   2.704   3.228   5.505 -1.8268 -1.4954 -0.2455
  520MOL0     H68591   2.488   3.400   5.359 -0.2012 -1.9615 -0.9251
  520MOL0     H68592   2.582   3.454   5.495  3.4890 -2.9285  1.0333
  520MOL0     H68593   2.551   3.150   5.685 -0.6698 -0.6975 -0.9439
  520MOL0     H68594   2.367   2.971   5.740 -0.0437 -1.0866 -0.1257
  520MOL0     H68595   2.201   3.027   5.773 -1.0499  4.1387  0.6022
  520MOL0     H68596   2.293   3.203   5.929 -0.7470  0.1943  1.9666
  520MOL0     H68597   2.448   3.132   5.904 -0.8466 -0.3360  1.6388
  520MOL0     H68598   2.343   2.896   5.988 -0.9158 -0.6909  3.1148
  520MOL0     H68599   2.367   3.028   6.106  1.8677  0.5000 -0.6482
  520MOL0     H68600   2.161   2.931   6.144 -0.5252 -2.2812 -1.4477
  520MOL0     H68601   2.112   2.943   5.976 -0.3995  1.2618 -0.9889
  520MOL0     H68602   1.927   2.926   6.138 -0.6226  0.1780  0.0760
  520MOL0     H68603   1.744   2.920   6.277 -2.2168  0.5561 -0.5757
  520MOL0     H68604   1.553   3.313   6.728 -1.2389  1.3682  3.0543
  520MOL0     H68605   1.323   3.343   6.823 -0.0581  1.0022 -0.2619
  520MOL0     H68606   0.953   3.413   6.817 -0.0519  0.2702 -1.0003
  520MOL0     H68607   1.119   3.449   6.841 -0.6774 -0.3397 -0.1144
  520MOL0     H68608   1.047   3.302   7.012 -1.3294 -2.6699  0.1271
  520MOL0     H68609   1.154   3.206   6.910 -0.2931 -0.1933 -1.8878
  520MOL0     H68610   0.957   3.109   6.798 -0.7372 -1.0719  0.0259
  520MOL0     H68611   0.849   3.224   6.875  0.0442  0.2058  1.3370
  520MOL0     H68612   1.023   3.039   7.043 -1.2713 -0.6756  0.2264
  520MOL0     H68613   0.880   3.123   7.093 -1.2793 -2.1831  1.0619
  520MOL0     H68614   0.747   2.974   6.931 -0.5562  0.8124  3.8535
  520MOL0     H68615   0.815   2.881   7.064 -0.9134  2.4090  0.8164
  520MOL0     H68616   0.985   2.792   6.943 -0.3629 -3.5567 -2.0843
  520MOL0     H68617   0.963   2.881   6.790 -1.3817 -1.9819 -0.9729
  520MOL0     H68618   0.743   2.708   6.908  2.2089 -0.8010  0.8383
  520MOL0     H68619   0.743   2.768   6.749 -3.9039 -1.9249  0.5479
  520MOL0     H68620   0.956   2.586   6.862 -1.8548  0.8650  1.7050
  520MOL0     H68621   0.969   2.648   6.706  0.4469 -0.7218  0.1560
  520MOL0     H68622   1.146   3.226   6.450  0.0650 -0.4104  0.7326
  520MOL0     H68623   1.370   3.194   6.358 -1.7534  0.2803 -0.0090
  520MOL0     H68624   1.810   3.351   6.353  0.2351  0.1144 -0.0167
  520MOL0     H68625   2.011   3.331   6.217 -0.1992 -0.1797 -2.0812
  520MOL0     H68626   3.542   3.371   5.249  0.0234 -3.4082 -0.8044
  520MOL0     H68627   3.800   3.404   5.292 -1.9517 -3.2029  1.4114
  520MOL0     H68628   4.244   3.272   5.403  3.0895 -1.3795 -0.2384
  520MOL0     H68629   4.477   3.352   5.387  1.4851  2.5540 -0.1947
  520MOL0     H68630   4.627   3.705   5.195  0.1413  0.8922 -2.4138
  520MOL0     H68631   4.612   3.579   5.060  0.5294 -1.7690 -1.2377
  520MOL0     H68632   4.846   3.663   5.128  0.4239 -0.5733 -0.4714
  520MOL0     H68633   4.834   3.580   5.275 -1.8069  1.3709  0.6874
  520MOL0     H68634   4.794   3.427   5.014  1.1712 -1.0425 -0.1613
  520MOL0     H68635   4.797   3.354   5.174 -0.3354  0.0464  0.6073
  520MOL0     H68636   5.044   3.468   5.189  2.6573 -0.6993 -0.7051
  520MOL0     H68637   5.027   3.322   5.102 -1.6299 -0.7112 -1.2089
  520MOL0     H68638   5.091   3.643   4.807  0.1094 -2.1882 -2.4304
  520MOL0     H68639   4.391   3.598   5.059  0.7903  0.3427  0.4456
  520MOL0     H68640   4.160   3.548   5.083  0.2466 -1.4859 -1.0113
  521MOL0     O68641   8.734   1.651   3.618  0.1042 -0.1792  0.1964
  521MOL0     C68642   8.743   1.767   3.597  0.4589 -0.9182  0.3046
  521MOL0     O68643   8.650   1.840   3.539  0.3830  0.1341  0.1946
  521MOL0     C68644   8.530   1.799   3.484 -0.0311  0.6025  0.8940
  521MOL0     C68645   8.424   1.883   3.475 -0.6498 -0.5727  1.2481
  521MOL0     C68646   8.300   1.842   3.432  0.1835 -0.3609  0.6696
  521MOL0     C68647   8.267   1.717   3.385  0.0436 -0.6710 -0.4127
  521MOL0     O68648   8.140   1.676   3.353  0.9328  0.0638 -0.3935
  521MOL0     C68649   8.078   1.592   3.459  0.1592 -0.0426  0.6249
  521MOL0     C68650   7.952   1.527   3.404 -0.3093 -0.5963 -0.0235
  521MOL0     C68651   7.840   1.628   3.386  0.1295  0.3384  0.0899
  521MOL0     C68652   7.724   1.579   3.287 -0.8312 -0.1923  0.0910
  521MOL0     C68653   7.614   1.679   3.273  0.2270 -0.0650  0.3824
  521MOL0     C68654   7.499   1.618   3.204 -0.5584  0.1905 -0.1218
  521MOL0     C68655   7.382   1.717   3.183 -0.5184  0.2086  0.7646
  521MOL0     C68656   7.278   1.657   3.097  0.3382 -0.4617 -0.0982
  521MOL0     N68657   7.177   1.758   3.057 -0.1963  0.0908 -0.4107
  521MOL0     C68658   7.044   1.736   3.066  0.3380  0.0835 -0.3241
  521MOL0     C68659   6.978   1.854   3.032 -0.3065  0.1480 -0.4506
  521MOL0     C68660   6.827   1.879   3.000  0.8220 -0.3416 -0.0336
  521MOL0     C68661   6.760   1.998   3.078  1.0480 -0.2370 -0.0942
  521MOL0     C68662   6.802   1.995   3.229 -0.0876 -0.5721  0.4793
  521MOL0     C68663   6.750   1.874   3.302  0.9941  0.3833 -0.4172
  521MOL0     O68664   6.785   1.873   3.440 -0.0997 -0.0014 -1.0571
  521MOL0     C68665   6.680   1.923   3.513 -0.1848  0.3895 -0.7144
  521MOL0     C68666   6.667   2.063   3.546 -0.1822 -0.4981  0.7078
  521MOL0     C68667   6.568   2.110   3.631  0.3061 -0.4207 -0.0847
  521MOL0     C68668   6.473   2.020   3.687 -0.6882  0.6647 -0.6215
  521MOL0     C68669   6.370   2.071   3.784 -0.0559  0.2557  0.0887
  521MOL0     O68670   6.374   2.206   3.823  0.6357  0.6408  0.3160
  521MOL0     C68671   6.257   2.265   3.862  0.8042 -0.2759  0.6695
  521MOL0     C68672   6.125   2.221   3.829  0.4161  0.4787 -0.3776
  521MOL0     C68673   6.015   2.279   3.899  0.2951 -0.8497  0.5253
  521MOL0     C68674   6.033   2.382   3.989  0.0268  0.1208  0.5175
  521MOL0     O68675   5.921   2.420   4.060 -0.4070 -0.0518  0.1188
  521MOL0     C68676   5.941   2.497   4.182 -0.3625 -0.1804  0.2510
  521MOL0     C68677   5.809   2.478   4.256 -0.3637 -1.0307  0.0374
  521MOL0     C68678   5.707   2.585   4.207  0.7785 -0.8457  0.2426
  521MOL0     C68679   5.567   2.536   4.228 -0.1983  0.1806  0.4798
  521MOL0     C68680   5.472   2.640   4.189  0.1110  0.2807  0.3702
  521MOL0     C68681   5.323   2.582   4.214  0.6821 -0.4338 -0.5090
  521MOL0     C68682   5.289   2.442   4.162 -1.7508  0.7676  0.3849
  521MOL0     C68683   5.141   2.405   4.137 -0.5557 -0.0797 -0.6737
  521MOL0    Cl68684   5.037   2.453   4.281 -0.1868  0.1105 -0.1740
  521MOL0     C68685   6.161   2.437   4.011 -0.3689 -0.2539 -0.2844
  521MOL0     C68686   6.268   2.378   3.944 -0.7504 -1.2529 -0.1911
  521MOL0     O68687   6.289   1.990   3.825 -0.2990  0.0593  0.9330
  521MOL0     C68688   6.489   1.880   3.670 -1.1012 -0.5159  0.6776
  521MOL0     C68689   6.591   1.837   3.584 -0.2707  0.1260  0.1980
  521MOL0     N68690   7.087   1.947   3.020  0.0187 -0.5096 -0.7914
  521MOL0     N68691   7.206   1.887   3.035  0.5589  0.0448  0.7511
  521MOL0     C68692   8.372   1.623   3.398  0.1463  0.4522  0.2070
  521MOL0     C68693   8.503   1.672   3.438  0.4439  0.0648 -0.6290
  521MOL0     C68694   8.870   1.825   3.647 -0.2920 -0.0832  0.6855
  521MOL0     C68695   8.863   1.954   3.696  0.7737  0.0928  0.6079
  521MOL0     C68696   8.981   2.010   3.739 -0.5015  0.4246 -0.0801
  521MOL0     C68697   9.105   1.947   3.739  1.2340 -0.4736  0.2544
  521MOL0     O68698   9.210   2.018   3.789 -0.0615 -0.6572  0.2696
  521MOL0     C68699   9.336   1.952   3.796 -0.4470 -0.2689  0.0613
  521MOL0     C68700   9.441   2.064   3.831  0.4986  0.0068  0.0592
  521MOL0     C68701   9.581   2.004   3.833  0.4835  0.1414  0.5129
  521MOL0     C68702   9.688   2.121   3.866 -0.7885 -0.0947 -0.5486
  521MOL0     C68703   9.817   2.066   3.909 -1.6566  0.1562 -0.0388
  521MOL0     C68704   9.904   1.988   3.952  0.8119 -0.4989 -0.6101
  521MOL0     C68705   9.107   1.821   3.693 -0.5748 -0.1518 -0.0102
  521MOL0     C68706   8.994   1.755   3.646  0.7662 -0.6414  0.1582
  521MOL0     H68707   8.433   1.983   3.517 -0.3465 -0.2127  0.3543
  521MOL0     H68708   8.212   1.905   3.438 -0.5626 -1.4197  1.3062
  521MOL0     H68709   8.060   1.648   3.551  2.9708  1.5231  0.3532
  521MOL0     H68710   8.143   1.506   3.480  0.4977  0.1420  0.3515
  521MOL0     H68711   7.920   1.449   3.473 -0.9379 -0.5588 -0.2630
  521MOL0     H68712   7.969   1.475   3.309 -1.3871 -2.7770  0.8992
  521MOL0     H68713   7.885   1.719   3.346 -3.5316  3.9588  3.2275
  521MOL0     H68714   7.792   1.659   3.480 -3.1444  3.7593 -2.4047
  521MOL0     H68715   7.765   1.567   3.186  0.3975 -1.2390  0.6792
  521MOL0     H68716   7.682   1.488   3.331 -2.8617  2.1926  3.4978
  521MOL0     H68717   7.645   1.764   3.211 -0.8526  1.5462  1.9437
  521MOL0     H68718   7.572   1.726   3.362 -1.8587  2.1778 -1.6440
  521MOL0     H68719   7.475   1.529   3.264  3.7971 -1.7037 -0.7468
  521MOL0     H68720   7.530   1.572   3.109 -1.9763  0.2266 -0.6257
  521MOL0     H68721   7.333   1.750   3.275 -0.1159  1.0888  0.6716
  521MOL0     H68722   7.419   1.805   3.130 -1.3034  0.3451  0.4438
  521MOL0     H68723   7.224   1.591   3.166 -0.4071  0.5657  0.3464
  521MOL0     H68724   7.322   1.620   3.005  0.9014  2.4573 -1.1180
  521MOL0     H68725   6.998   1.638   3.075 -0.7913  0.7139  1.2961
  521MOL0     H68726   6.763   1.791   3.009 -1.9314  0.9980 -3.7880
  521MOL0     H68727   6.823   1.900   2.893 -1.6026 -2.1552 -0.3898
  521MOL0     H68728   6.651   1.998   3.072  0.8615 -3.4820  1.1280
  521MOL0     H68729   6.796   2.093   3.039 -1.0489  1.4638  1.8304
  521MOL0     H68730   6.911   1.995   3.234 -0.1076 -2.4845  3.7815
  521MOL0     H68731   6.759   2.084   3.276 -3.0679 -2.3626  1.4327
  521MOL0     H68732   6.801   1.788   3.257  0.2963 -0.3037  0.0821
  521MOL0     H68733   6.642   1.861   3.294  1.1350 -1.5046  0.1893
  521MOL0     H68734   6.738   2.135   3.507 -0.5307 -0.4726  0.1092
  521MOL0     H68735   6.569   2.215   3.659  0.2290 -0.2994 -0.5331
  521MOL0     H68736   6.107   2.141   3.758 -3.7569 -0.3811  1.3405
  521MOL0     H68737   5.916   2.234   3.894 -0.8805  1.5414  0.9604
  521MOL0     H68738   5.971   2.602   4.172  0.4768 -0.4206  0.1832
  521MOL0     H68739   6.015   2.446   4.243 -2.5375 -2.3815  1.2049
  521MOL0     H68740   5.816   2.488   4.365  0.3435 -1.5781  0.0474
  521MOL0     H68741   5.770   2.378   4.234 -2.0463 -0.3935 -0.0066
  521MOL0     H68742   5.718   2.608   4.101  1.3433  0.9438  0.6536
  521MOL0     H68743   5.733   2.674   4.265 -1.2463  1.7220 -2.5137
  521MOL0     H68744   5.562   2.448   4.163 -0.1015  0.8321 -0.4301
  521MOL0     H68745   5.570   2.501   4.332 -0.4345 -0.6675  0.2104
  521MOL0     H68746   5.477   2.650   4.080  3.4338 -2.8349  0.0545
  521MOL0     H68747   5.474   2.731   4.249  1.2711  0.8187 -0.4305
  521MOL0     H68748   5.247   2.650   4.175  0.7725 -0.5628 -0.9163
  521MOL0     H68749   5.298   2.560   4.318 -2.7360 -0.2157 -1.1710
  521MOL0     H68750   5.335   2.416   4.066  1.1206 -1.1370  2.1444
  521MOL0     H68751   5.342   2.368   4.221  0.7982  0.3906 -2.1577
  521MOL0     H68752   5.119   2.301   4.110 -2.9132  0.5520 -1.4498
  521MOL0     H68753   5.106   2.468   4.054  0.2900 -1.8726 -2.4858
  521MOL0     H68754   6.181   2.527   4.069  0.4591 -1.4574  1.4090
  521MOL0     H68755   6.371   2.411   3.953 -1.1464  0.1403 -0.4933
  521MOL0     H68756   6.429   1.804   3.719  0.5041 -4.5885 -2.9283
  521MOL0     H68757   6.591   1.730   3.564 -1.1240  0.2898 -0.7124
  521MOL0     H68758   8.347   1.520   3.376  1.4134  0.1749 -0.0110
  521MOL0     H68759   8.581   1.597   3.434  1.2038  0.8878 -3.5958
  521MOL0     H68760   8.766   1.996   3.721 -0.0459 -2.1458  1.4401
  521MOL0     H68761   8.990   2.104   3.793 -0.8440 -0.1960  1.0899
  521MOL0     H68762   9.363   1.902   3.702 -2.9360 -2.0543  0.1754
  521MOL0     H68763   9.349   1.874   3.871  2.0222  1.5165  1.6307
  521MOL0     H68764   9.436   2.143   3.756 -1.6627  0.6803  0.8534
  521MOL0     H68765   9.416   2.116   3.924  2.1691  0.5162  0.2517
  521MOL0     H68766   9.598   1.961   3.734  0.3920  3.5802 -1.1414
  521MOL0     H68767   9.576   1.933   3.915 -4.5884 -0.5692 -0.0991
  521MOL0     H68768   9.707   2.191   3.784 -2.1472 -1.0506 -1.7281
  521MOL0     H68769   9.647   2.188   3.942 -0.0131 -0.2380  0.0067
  521MOL0     H68770   9.979   1.919   3.986 -0.2494 -1.1557  0.5203
  521MOL0     H68771   9.210   1.787   3.682  0.8912  3.6664  0.2894
  521MOL0     H68772   9.003   1.656   3.603  0.6954 -0.4016 -0.4117
  522MOL0     O68773   4.295   9.428   1.002  0.4519 -0.1477 -0.5202
  522MOL0     C68774   4.331   9.420   0.881 -0.3825  0.6814 -0.9167
  522MOL0     O68775   4.263   9.468   0.772  0.2359 -0.8679  0.3202
  522MOL0     C68776   4.138   9.517   0.799  0.9973 -0.0107 -0.1156
  522MOL0     C68777   4.125   9.651   0.823  0.0862  0.3513  0.7229
  522MOL0     C68778   4.000   9.701   0.869 -0.5300 -1.0544 -0.0712
  522MOL0     C68779   3.886   9.621   0.884 -0.3180  0.8541 -0.7148
  522MOL0     O68780   3.763   9.682   0.913  0.1072 -0.6890 -0.3678
  522MOL0     C68781   3.648   9.610   0.863  0.6981 -0.2260 -0.1441
  522MOL0     C68782   3.531   9.710   0.828  0.5311 -0.3722  0.7325
  522MOL0     C68783   3.396   9.643   0.786 -0.0674 -0.3288  0.1895
  522MOL0     C68784   3.420   9.563   0.651  1.0655 -0.4135 -0.4061
  522MOL0     C68785   3.276   9.538   0.592 -0.7470  0.3623  0.7091
  522MOL0     C68786   3.269   9.444   0.465 -0.0913 -0.1915  0.5112
  522MOL0     C68787   3.132   9.432   0.418 -0.4644  0.4629  0.0429
  522MOL0     C68788   3.101   9.319   0.304 -1.2493  0.0398 -0.9798
  522MOL0     N68789   2.963   9.286   0.299 -0.2987 -0.1833 -0.0134
  522MOL0     C68790   2.869   9.357   0.236  1.1373  0.0666 -0.0850
  522MOL0     C68791   2.752   9.289   0.262 -0.0238  0.2493  0.2276
  522MOL0     C68792   2.617   9.340   0.213  0.5338  1.2593 -0.5856
  522MOL0     C68793   2.612   9.490   0.209  0.2844  0.1758 -0.1791
  522MOL0     C68794   2.464   9.538   0.226 -1.0923  0.2902  0.4209
  522MOL0     C68795   2.471   9.691   0.230  0.2925 -0.8863  0.3315
  522MOL0     O68796   2.501   9.749   0.106 -0.3560  0.6423 -0.5279
  522MOL0     C68797   2.408   9.824   0.043 -0.5472 -0.4088 -0.3360
  522MOL0     C68798   2.268   9.827   0.050  0.5120 -0.5428 -0.2246
  522MOL0     C68799   2.188   9.906  -0.030 -0.2041  2.1216  0.4567
  522MOL0     C68800   2.248   9.992  -0.121  0.6128 -0.3069 -0.5536
  522MOL0     C68801   2.162  10.084  -0.195 -0.3030  0.4660  0.6377
  522MOL0     O68802   2.025  10.073  -0.172 -0.1204  0.2947  0.0176
  522MOL0     C68803   1.939  10.165  -0.228 -0.0281  1.7186  0.3812
  522MOL0     C68804   1.964  10.302  -0.233 -0.1854  1.1896 -0.3088
  522MOL0     C68805   1.860  10.382  -0.285  0.0127 -0.7830 -0.1297
  522MOL0     C68806   1.738  10.335  -0.335 -0.0285 -0.6139  0.0094
  522MOL0     O68807   1.637  10.430  -0.364 -0.8065 -0.0117  0.2393
  522MOL0     C68808   1.504  10.385  -0.382  0.1920  0.4381  0.9911
  522MOL0     C68809   1.425  10.513  -0.382  0.3158 -0.2294 -0.1587
  522MOL0     C68810   1.279  10.482  -0.411  1.1270 -0.0590 -0.1736
  522MOL0     C68811   1.194  10.613  -0.370  0.2894  0.1594 -0.4869
  522MOL0     C68812   1.240  10.745  -0.438  0.7444 -0.6939 -0.6442
  522MOL0     C68813   1.245  10.735  -0.602 -0.0684  0.1984 -0.8737
  522MOL0     C68814   1.195  10.855  -0.676  0.6228  0.0980  0.6311
  522MOL0     C68815   1.225  10.845  -0.824 -0.2709  0.5557 -0.7339
  522MOL0    Cl68816   1.198  11.008  -0.887  0.1856 -0.3326  0.3025
  522MOL0     C68817   1.715  10.197  -0.324 -0.0494  0.0292 -0.0813
  522MOL0     C68818   1.814  10.119  -0.265  0.2547  0.4183  0.6024
  522MOL0     O68819   2.216  10.161  -0.277  0.1860 -0.3296 -0.4752
  522MOL0     C68820   2.383  10.000  -0.133  0.1333  0.8344  0.6835
  522MOL0     C68821   2.459   9.911  -0.059 -0.1952  0.3693  0.0306
  522MOL0     N68822   2.784   9.161   0.318  0.4029 -0.7977  0.0892
  522MOL0     N68823   2.917   9.165   0.342  0.0489 -0.5609 -0.3228
  522MOL0     C68824   3.899   9.486   0.845 -0.7876  0.4751  0.1927
  522MOL0     C68825   4.023   9.433   0.806  0.7968 -0.1478 -0.1759
  522MOL0     C68826   4.470   9.365   0.870 -0.6922  0.3921  0.8383
  522MOL0     C68827   4.519   9.331   0.739 -0.3064 -0.3151 -0.6457
  522MOL0     C68828   4.650   9.293   0.716  0.2541  0.2371 -0.0498
  522MOL0     C68829   4.742   9.303   0.816  0.2299  0.1200 -0.0112
  522MOL0     O68830   4.880   9.279   0.802  0.4446  0.1195  0.0590
  522MOL0     C68831   4.952   9.349   0.702 -0.3500  0.6394 -0.5369
  522MOL0     C68832   5.041   9.245   0.627 -0.0385 -0.4474 -0.5647
  522MOL0     C68833   4.973   9.147   0.528 -0.7972  0.1433 -0.0289
  522MOL0     C68834   5.067   9.067   0.441 -0.1271  0.1320  1.4612
  522MOL0     C68835   5.135   8.959   0.514  0.0881 -0.2509 -0.0938
  522MOL0     C68836   5.192   8.878   0.585  0.2689 -0.2808 -1.1166
  522MOL0     C68837   4.695   9.315   0.948  0.0697  0.0069 -0.2053
  522MOL0     C68838   4.556   9.344   0.977  0.0775  0.6383  0.3892
  522MOL0     H68839   4.215   9.712   0.828 -1.4005  2.6679  0.5897
  522MOL0     H68840   3.996   9.807   0.893  1.0809 -0.7783 -0.8951
  522MOL0     H68841   3.617   9.542   0.943  1.8242 -0.7111 -0.1019
  522MOL0     H68842   3.670   9.546   0.776  2.9508 -0.8752  0.8391
  522MOL0     H68843   3.569   9.782   0.755 -0.9886  3.1699  3.1398
  522MOL0     H68844   3.516   9.774   0.916  0.2487  1.5695 -0.6672
  522MOL0     H68845   3.327   9.725   0.763  0.9435  0.1933 -1.1511
  522MOL0     H68846   3.369   9.565   0.856  0.1366 -0.2290  0.3790
  522MOL0     H68847   3.479   9.624   0.582  1.4561 -0.6051 -0.2430
  522MOL0     H68848   3.479   9.473   0.674  1.9389  0.8482  2.8087
  522MOL0     H68849   3.241   9.640   0.570  2.5800  1.1867 -1.5338
  522MOL0     H68850   3.214   9.495   0.671  0.8275 -0.7695  1.3785
  522MOL0     H68851   3.320   9.351   0.493  0.8461 -0.0373 -0.6408
  522MOL0     H68852   3.322   9.491   0.382 -2.6231 -0.1463 -1.1953
  522MOL0     H68853   3.088   9.389   0.509  0.3738  0.8823  0.6645
  522MOL0     H68854   3.097   9.525   0.373  0.0436 -0.0074 -1.3678
  522MOL0     H68855   3.162   9.231   0.328  0.9289  1.5828 -0.5920
  522MOL0     H68856   3.149   9.345   0.209  2.7944 -0.2637  0.7677
  522MOL0     H68857   2.867   9.444   0.171 -2.9436  0.8200  0.7495
  522MOL0     H68858   2.542   9.306   0.284 -1.3697 -0.7819 -3.3771
  522MOL0     H68859   2.594   9.307   0.111 -1.6712 -1.7372  0.7507
  522MOL0     H68860   2.661   9.529   0.119  1.7445 -1.5155 -0.1649
  522MOL0     H68861   2.668   9.524   0.297  0.0615 -3.4528  1.5288
  522MOL0     H68862   2.411   9.496   0.141 -2.3165  0.6682  0.9827
  522MOL0     H68863   2.416   9.502   0.318 -1.4231 -1.0398 -0.2575
  522MOL0     H68864   2.551   9.729   0.294  0.0338  2.7168 -1.2238
  522MOL0     H68865   2.376   9.734   0.262 -1.2354 -2.0191 -2.3351
  522MOL0     H68866   2.219   9.758   0.118  4.3281 -1.6950  1.6262
  522MOL0     H68867   2.081   9.894  -0.017 -0.4112  1.8357 -1.3290
  522MOL0     H68868   2.053  10.345  -0.189  0.8785  1.8988 -2.9404
  522MOL0     H68869   1.867  10.490  -0.288  1.9942 -0.7213  2.6000
  522MOL0     H68870   1.480  10.329  -0.291  1.4865  0.7730  1.5553
  522MOL0     H68871   1.485  10.327  -0.473  0.1530 -1.6046  2.2239
  522MOL0     H68872   1.474  10.583  -0.451  1.9216 -3.3920 -2.5233
  522MOL0     H68873   1.424  10.556  -0.281  2.1235  0.7719 -0.5171
  522MOL0     H68874   1.248  10.399  -0.347  1.0111  2.1579  2.8188
  522MOL0     H68875   1.270  10.445  -0.514 -1.3286 -2.0330  0.6716
  522MOL0     H68876   1.087  10.592  -0.375 -0.2170  2.0859  0.9564
  522MOL0     H68877   1.220  10.634  -0.266  0.4759  0.0090 -0.5031
  522MOL0     H68878   1.338  10.778  -0.403  0.1682  1.9890 -1.2699
  522MOL0     H68879   1.162  10.820  -0.417  1.5855  0.4716 -1.4920
  522MOL0     H68880   1.194  10.644  -0.637 -0.6866 -0.6692  1.9996
  522MOL0     H68881   1.348  10.714  -0.633 -0.8157 -1.3940 -2.4569
  522MOL0     H68882   1.086  10.868  -0.668  0.6705  0.5249  0.5832
  522MOL0     H68883   1.235  10.943  -0.626 -0.3344  1.4081 -0.8375
  522MOL0     H68884   1.161  10.766  -0.864 -1.0471  0.8256 -0.0667
  522MOL0     H68885   1.330  10.823  -0.843  0.7111  1.6905  2.6103
  522MOL0     H68886   1.619  10.147  -0.337  0.7988 -1.6049 -0.3706
  522MOL0     H68887   1.801  10.015  -0.237  0.4685  0.3071  0.2915
  522MOL0     H68888   2.429  10.067  -0.204 -1.4914  1.9376  0.6356
  522MOL0     H68889   2.567   9.923  -0.056 -0.0588 -0.7578  2.8709
  522MOL0     H68890   3.816   9.416   0.849  0.1124 -0.6088  0.4378
  522MOL0     H68891   4.016   9.326   0.790 -0.8061  0.0138 -0.7006
  522MOL0     H68892   4.459   9.342   0.650 -1.5446  0.9769  0.3063
  522MOL0     H68893   4.676   9.263   0.614 -3.9103  0.3146 -1.3116
  522MOL0     H68894   4.990   9.444   0.741 -0.3910  1.2214 -1.8452
  522MOL0     H68895   4.879   9.384   0.629 -2.9363 -2.2680  0.4239
  522MOL0     H68896   5.124   9.295   0.575 -1.1185  0.2159 -1.7104
  522MOL0     H68897   5.079   9.186   0.711  2.2948 -0.0086 -1.2287
  522MOL0     H68898   4.906   9.200   0.459 -0.6293 -0.7970 -0.9226
  522MOL0     H68899   4.910   9.083   0.591  0.7243  0.6970  2.1584
  522MOL0     H68900   5.020   9.023   0.352  0.9185 -1.5159  1.6802
  522MOL0     H68901   5.140   9.138   0.400  1.2007 -3.0662 -2.3736
  522MOL0     H68902   5.245   8.797   0.630 -0.6351 -1.0986 -1.5006
  522MOL0     H68903   4.757   9.312   1.036 -2.8836 -0.2744  2.0280
  522MOL0     H68904   4.515   9.367   1.075  4.1755 -0.0032  2.4911
  523MOL0     O68905   5.438   9.504   5.257  0.0724 -0.3585  0.0505
  523MOL0     C68906   5.493   9.467   5.160  0.1043 -0.4959  0.1497
  523MOL0     O68907   5.439   9.387   5.050 -0.0562  0.4124 -0.4706
  523MOL0     C68908   5.303   9.372   5.036 -0.5950  0.1533 -0.2108
  523MOL0     C68909   5.238   9.393   4.913 -0.0325  0.2530  0.2620
  523MOL0     C68910   5.102   9.376   4.898 -0.5731  1.0030  0.2611
  523MOL0     C68911   5.021   9.350   5.010 -0.4296  0.3786  0.2391
  523MOL0     O68912   4.884   9.331   4.989  0.0268 -0.5002 -0.4122
  523MOL0     C68913   4.820   9.230   5.076 -0.7179 -0.2774  0.0922
  523MOL0     C68914   4.675   9.193   5.049 -0.0721 -1.3022  0.6787
  523MOL0     C68915   4.590   9.308   5.093 -0.4018  0.4498 -0.0768
  523MOL0     C68916   4.447   9.287   5.035 -0.6541  0.5018 -0.1256
  523MOL0     C68917   4.359   9.408   5.056  0.2706 -0.5369 -0.5483
  523MOL0     C68918   4.227   9.378   4.993  0.9086  0.1648  0.3222
  523MOL0     C68919   4.127   9.492   5.014 -0.3403  1.1095  0.6522
  523MOL0     C68920   4.077   9.509   5.158  0.2239 -0.3884 -0.1355
  523MOL0     N68921   3.976   9.608   5.161  0.0227  0.7208  0.6089
  523MOL0     C68922   3.840   9.571   5.184 -0.4897  0.0129  0.2182
  523MOL0     C68923   3.783   9.687   5.156 -0.0835  0.5662  1.0959
  523MOL0     C68924   3.636   9.704   5.169 -0.2290  0.3599  0.2594
  523MOL0     C68925   3.561   9.583   5.235 -0.5766 -0.2442  0.8837
  523MOL0     C68926   3.416   9.608   5.277  0.7590  0.5149  0.0235
  523MOL0     C68927   3.359   9.499   5.380 -0.0711  0.0421 -0.6287
  523MOL0     O68928   3.231   9.539   5.432  0.0813 -0.2822  0.6651
  523MOL0     C68929   3.122   9.515   5.349  0.0350 -0.3381 -0.7182
  523MOL0     C68930   3.112   9.457   5.223  0.2035  0.2641  0.2425
  523MOL0     C68931   2.982   9.437   5.163 -0.4618  0.6545 -0.0450
  523MOL0     C68932   2.869   9.483   5.222  0.4440 -0.8412 -0.1733
  523MOL0     C68933   2.733   9.458   5.163 -0.7598  0.7778 -0.3304
  523MOL0     O68934   2.626   9.484   5.244  0.8029  0.1573  0.7115
  523MOL0     C68935   2.507   9.431   5.197  0.0401  0.3938  0.3606
  523MOL0     C68936   2.470   9.298   5.230  0.4126 -0.3025 -0.1900
  523MOL0     C68937   2.351   9.244   5.183 -0.0548  1.0863  0.7281
  523MOL0     C68938   2.264   9.320   5.109  0.6917  0.2050  0.3248
  523MOL0     O68939   2.158   9.241   5.067 -0.5652  0.2804 -0.2966
  523MOL0     C68940   2.075   9.302   4.979  0.6378 -0.4108  0.6738
  523MOL0     C68941   1.956   9.213   4.930 -0.0318 -0.5928 -0.0658
  523MOL0     C68942   2.011   9.112   4.830 -0.1719  0.6648  0.0338
  523MOL0     C68943   1.903   9.030   4.771 -0.2015 -0.2821 -0.1246
  523MOL0     C68944   1.917   8.994   4.630 -0.3427  0.9539 -0.1754
  523MOL0     C68945   2.045   8.917   4.590  0.4942 -0.4193 -0.0432
  523MOL0     C68946   2.039   8.856   4.445  0.3734 -1.2172 -0.2449
  523MOL0     C68947   2.141   8.749   4.419 -0.8906 -0.3502  0.1859
  523MOL0    Cl68948   2.305   8.829   4.417 -0.2451  0.2926  0.2623
  523MOL0     C68949   2.295   9.457   5.069  0.1969 -0.3560 -0.1937
  523MOL0     C68950   2.417   9.505   5.116  0.2072 -0.7663 -1.0283
  523MOL0     O68951   2.734   9.371   5.072  0.2117  0.4804 -0.0638
  523MOL0     C68952   2.875   9.542   5.349 -0.8704 -0.6024 -0.0105
  523MOL0     C68953   2.999   9.564   5.413 -0.2532 -0.0097 -0.0772
  523MOL0     N68954   3.872   9.786   5.136  0.0122 -0.7617 -0.1665
  523MOL0     N68955   3.993   9.740   5.134 -0.5681 -0.2675  0.6052
  523MOL0     C68956   5.086   9.328   5.131  0.3250 -0.5501 -0.3543
  523MOL0     C68957   5.225   9.339   5.151 -0.3196 -0.0295  0.4323
  523MOL0     C68958   5.636   9.482   5.155  0.2615  0.0728  0.4061
  523MOL0     C68959   5.706   9.479   5.034 -0.2044  0.0700 -0.2850
  523MOL0     C68960   5.838   9.520   5.029 -0.2042 -0.3806 -0.1237
  523MOL0     C68961   5.907   9.551   5.139 -0.4998  0.5502  0.6841
  523MOL0     O68962   6.043   9.583   5.133 -0.2239 -0.1735 -0.6220
  523MOL0     C68963   6.122   9.562   5.247  0.1137 -0.1884  0.1451
  523MOL0     C68964   6.266   9.576   5.205 -0.5125  0.0692 -0.9979
  523MOL0     C68965   6.362   9.547   5.325  0.1130  0.7266  0.4391
  523MOL0     C68966   6.425   9.411   5.300  0.3379 -0.2402 -0.1688
  523MOL0     C68967   6.524   9.414   5.195 -0.8569 -1.1122 -0.2882
  523MOL0     C68968   6.616   9.399   5.116  0.7510 -0.3896  0.0283
  523MOL0     C68969   5.834   9.543   5.260 -0.7146 -0.4256  0.1129
  523MOL0     C68970   5.702   9.511   5.274  0.0817 -0.0041 -0.2345
  523MOL0     H68971   5.303   9.416   4.829  2.8561  1.6938  2.7172
  523MOL0     H68972   5.054   9.386   4.801 -0.6402  0.2197  0.2030
  523MOL0     H68973   4.806   9.263   5.179 -2.3356 -2.3940  0.6149
  523MOL0     H68974   4.884   9.141   5.078  3.6644  2.4354 -2.8702
  523MOL0     H68975   4.643   9.103   5.101 -1.6811  0.3148  2.6917
  523MOL0     H68976   4.667   9.181   4.941  2.5551 -1.3813  0.4256
  523MOL0     H68977   4.630   9.402   5.052  1.6915  0.0729  0.9418
  523MOL0     H68978   4.581   9.311   5.202  0.8524 -0.1118  0.0609
  523MOL0     H68979   4.452   9.271   4.927  3.7534  2.6843 -0.4770
  523MOL0     H68980   4.403   9.202   5.088 -1.3733  0.1556 -1.2441
  523MOL0     H68981   4.411   9.493   5.010 -3.5756  0.5368 -3.4865
  523MOL0     H68982   4.339   9.421   5.163  1.0112 -1.7178 -0.2493
  523MOL0     H68983   4.187   9.282   5.026  0.9748 -0.0060 -0.0978
  523MOL0     H68984   4.225   9.366   4.884 -0.8400 -1.2713  0.4674
  523MOL0     H68985   4.181   9.577   4.971  1.0962  0.8042  1.7653
  523MOL0     H68986   4.041   9.475   4.950 -0.6945 -1.9018  1.7598
  523MOL0     H68987   4.157   9.558   5.214  0.0771  0.0390 -0.2989
  523MOL0     H68988   4.058   9.412   5.206  3.4032 -2.6427 -2.9757
  523MOL0     H68989   3.799   9.474   5.207 -2.2240  0.1192 -2.0608
  523MOL0     H68990   3.596   9.738   5.072  1.0263  0.8582 -0.1024
  523MOL0     H68991   3.627   9.793   5.232 -1.1088  2.0426 -2.0836
  523MOL0     H68992   3.622   9.547   5.318  0.1996  1.8089  1.2514
  523MOL0     H68993   3.556   9.501   5.163  1.3286  1.2525 -1.1093
  523MOL0     H68994   3.416   9.707   5.321  1.9533 -0.4090  2.2565
  523MOL0     H68995   3.346   9.606   5.192 -0.5684  1.3049  1.0641
  523MOL0     H68996   3.417   9.496   5.473 -0.1989 -0.3441 -0.5592
  523MOL0     H68997   3.356   9.398   5.338  0.6224 -0.5839  0.7606
  523MOL0     H68998   3.201   9.427   5.168 -0.1337  1.6010 -1.1275
  523MOL0     H68999   2.991   9.381   5.071  1.0038  2.2645 -0.9467
  523MOL0     H69000   2.531   9.238   5.296 -0.2922 -1.0148 -0.1689
  523MOL0     H69001   2.324   9.143   5.212  0.6878  0.8990  0.7727
  523MOL0     H69002   2.140   9.338   4.898  0.0576  3.2274  1.6243
  523MOL0     H69003   2.021   9.384   5.027 -0.1111 -0.8955  0.6693
  523MOL0     H69004   1.872   9.257   4.877 -0.8197 -0.3745  1.3282
  523MOL0     H69005   1.918   9.160   5.018  1.1931 -2.0129 -0.3401
  523MOL0     H69006   2.084   9.040   4.869 -0.0083 -0.1890 -1.7646
  523MOL0     H69007   2.066   9.166   4.752  2.0234  0.1438  1.1264
  523MOL0     H69008   1.891   8.941   4.833  1.9494 -0.0625  0.7171
  523MOL0     H69009   1.809   9.085   4.783  0.3219  0.8712 -1.1387
  523MOL0     H69010   1.921   9.089   4.576 -2.0056 -0.1962 -2.4894
  523MOL0     H69011   1.828   8.944   4.591  1.0585  0.5305 -3.1507
  523MOL0     H69012   2.070   8.836   4.660 -1.5550  0.2277  1.5562
  523MOL0     H69013   2.122   8.994   4.602 -1.0455  1.0842  0.5802
  523MOL0     H69014   1.938   8.816   4.433 -0.8087  0.6422  2.5103
  523MOL0     H69015   2.062   8.936   4.375  0.8434  0.2551  1.5126
  523MOL0     H69016   2.123   8.705   4.321  0.6305  2.6456 -1.5861
  523MOL0     H69017   2.148   8.666   4.490  3.2459 -0.6429 -0.3256
  523MOL0     H69018   2.240   9.517   4.997  0.7812  0.5492  0.1026
  523MOL0     H69019   2.426   9.609   5.087  0.3637 -0.5080 -0.0697
  523MOL0     H69020   2.788   9.587   5.398 -1.9521 -1.0846 -1.4377
  523MOL0     H69021   3.003   9.627   5.501 -0.8165  0.2440 -0.2279
  523MOL0     H69022   5.031   9.303   5.220 -0.6954 -0.1212 -0.8557
  523MOL0     H69023   5.275   9.314   5.244  1.0265 -0.6478 -0.4182
  523MOL0     H69024   5.659   9.477   4.936 -0.3201  1.4832 -0.2734
  523MOL0     H69025   5.876   9.538   4.929 -1.5679 -1.2617 -0.8249
  523MOL0     H69026   6.090   9.471   5.297 -1.3227 -1.6012 -3.0686
  523MOL0     H69027   6.108   9.637   5.326  0.2429 -0.0482  0.0374
  523MOL0     H69028   6.279   9.500   5.128 -0.5380 -3.1997  1.9712
  523MOL0     H69029   6.294   9.675   5.167 -1.7463  0.2500 -1.5015
  523MOL0     H69030   6.312   9.550   5.422  2.5996  1.6036  1.7793
  523MOL0     H69031   6.441   9.622   5.335 -0.2941  1.0444  1.4003
  523MOL0     H69032   6.478   9.377   5.389 -1.5481 -0.0041  1.0890
  523MOL0     H69033   6.346   9.341   5.271  0.3519 -0.3318  0.0151
  523MOL0     H69034   6.678   9.358   5.040  1.0191  2.3229 -1.3336
  523MOL0     H69035   5.886   9.560   5.354  0.3674 -1.7740 -0.1999
  523MOL0     H69036   5.656   9.508   5.371  2.9394  1.7502  1.3220
  524MOL0     O69037   5.264   7.502   4.446  0.2534  0.3166  0.0823
  524MOL0     C69038   5.242   7.475   4.324  0.2219 -0.0072 -0.7405
  524MOL0     O69039   5.122   7.439   4.273 -0.6409 -0.4949 -0.2607
  524MOL0     C69040   5.007   7.434   4.350  0.6383 -0.6721  0.8633
  524MOL0     C69041   4.922   7.328   4.344 -0.2286 -0.0037  0.0875
  524MOL0     C69042   4.805   7.321   4.423 -0.6108 -1.0561 -0.3845
  524MOL0     C69043   4.766   7.427   4.514  1.3692 -0.2058 -0.1781
  524MOL0     O69044   4.641   7.422   4.587  0.0709 -0.5203 -0.5273
  524MOL0     C69045   4.605   7.540   4.656  0.3856 -0.7619  0.6445
  524MOL0     C69046   4.467   7.520   4.710 -0.3353  0.6189 -0.2587
  524MOL0     C69047   4.456   7.420   4.821  0.0991  0.1551 -1.2479
  524MOL0     C69048   4.310   7.400   4.866 -0.2224 -0.3602 -0.1158
  524MOL0     C69049   4.287   7.300   4.987  0.4961 -0.4217 -0.5018
  524MOL0     C69050   4.142   7.275   5.009  0.8581  0.3209 -0.2944
  524MOL0     C69051   4.113   7.205   5.147  0.2476 -0.4747 -0.3362
  524MOL0     C69052   3.963   7.162   5.156  0.3095  0.2837 -0.3372
  524MOL0     N69053   3.868   7.274   5.149 -0.4343 -0.3797  0.3442
  524MOL0     C69054   3.777   7.279   5.043 -0.3439  0.4590  0.0943
  524MOL0     C69055   3.702   7.387   5.076 -0.4123  0.4267  0.4963
  524MOL0     C69056   3.586   7.462   5.009 -0.1702  0.1019  0.4359
  524MOL0     C69057   3.467   7.376   4.978  0.2250 -0.0512  0.1868
  524MOL0     C69058   3.366   7.456   4.896 -0.7048 -0.5803 -0.4359
  524MOL0     C69059   3.221   7.423   4.919 -0.1837 -0.5354  0.5859
  524MOL0     O69060   3.207   7.296   4.868  0.3576 -0.8988 -0.7798
  524MOL0     C69061   3.095   7.222   4.899 -0.3736  0.0943 -0.5425
  524MOL0     C69062   3.120   7.084   4.928  0.1448 -1.1734 -0.3532
  524MOL0     C69063   3.018   6.997   4.955  0.4436 -0.2134  0.7700
  524MOL0     C69064   2.879   7.036   4.943 -0.8569  0.2336 -0.5616
  524MOL0     C69065   2.774   6.942   4.959 -0.3073 -1.4308  0.9265
  524MOL0     O69066   2.648   7.000   4.971 -0.5090 -0.5880  0.2249
  524MOL0     C69067   2.529   6.945   4.934 -0.4964 -0.1014  0.1172
  524MOL0     C69068   2.414   7.016   4.967 -0.0732 -0.1675 -0.0629
  524MOL0     C69069   2.291   6.961   4.939  0.0068  0.8901 -0.0110
  524MOL0     C69070   2.274   6.859   4.845  0.1914  0.0643  0.0453
  524MOL0     O69071   2.145   6.832   4.802  0.4263  0.0169  0.9610
  524MOL0     C69072   2.118   6.708   4.733 -0.9432 -0.3681  0.3323
  524MOL0     C69073   1.985   6.739   4.662  1.0432 -0.5889 -0.8248
  524MOL0     C69074   1.921   6.619   4.596  0.6529  0.3376 -0.2857
  524MOL0     C69075   1.837   6.541   4.700  0.7138 -0.5992  1.1224
  524MOL0     C69076   1.790   6.402   4.658 -0.3747  0.1124  0.3166
  524MOL0     C69077   1.704   6.389   4.529 -0.5508  0.5231  0.1320
  524MOL0     C69078   1.558   6.452   4.551 -0.4693  0.2583  0.4372
  524MOL0     C69079   1.468   6.435   4.424 -0.1790  0.7127  0.2832
  524MOL0    Cl69080   1.399   6.278   4.413 -0.4090  0.0824 -0.1513
  524MOL0     C69081   2.389   6.790   4.799  1.1787 -0.0817  0.3571
  524MOL0     C69082   2.515   6.833   4.850  0.4087 -0.6186  0.2008
  524MOL0     O69083   2.799   6.825   4.941  0.7828 -0.0092 -0.3443
  524MOL0     C69084   2.857   7.175   4.925  0.0860 -0.2744  0.2828
  524MOL0     C69085   2.961   7.265   4.911  0.5225 -0.1499  1.1296
  524MOL0     N69086   3.747   7.438   5.194 -0.0733  0.1617 -0.3319
  524MOL0     N69087   3.837   7.366   5.240  0.3733  0.9485 -0.3266
  524MOL0     C69088   4.851   7.539   4.513 -0.8918  0.4561  0.6051
  524MOL0     C69089   4.968   7.541   4.435 -0.0323 -0.9812  0.4145
  524MOL0     C69090   5.353   7.484   4.226 -0.8920 -0.0241 -1.2171
  524MOL0     C69091   5.330   7.479   4.091 -0.1284 -0.3991 -0.5875
  524MOL0     C69092   5.428   7.499   3.989  0.2291 -0.3801  1.2887
  524MOL0     C69093   5.557   7.522   4.030 -0.4535  0.1480 -1.0589
  524MOL0     O69094   5.670   7.514   3.948 -0.0005 -0.2481 -0.0162
  524MOL0     C69095   5.665   7.455   3.817 -0.0268 -0.2296 -0.2283
  524MOL0     C69096   5.803   7.418   3.761  0.4061 -0.1411  0.0001
  524MOL0     C69097   5.882   7.537   3.719  0.2333 -0.8859 -0.4626
  524MOL0     C69098   6.001   7.514   3.632 -0.6158 -0.3987 -0.2990
  524MOL0     C69099   6.036   7.641   3.569  0.2622  0.3686 -0.0778
  524MOL0     C69100   6.060   7.737   3.506  0.4047 -0.2318 -0.6672
  524MOL0     C69101   5.582   7.530   4.174  0.2565 -0.3244  0.1494
  524MOL0     C69102   5.481   7.515   4.268  0.2337  0.4420  0.3498
  524MOL0     H69103   4.956   7.265   4.263  0.9610  3.4324 -2.3253
  524MOL0     H69104   4.735   7.238   4.414 -1.6051 -0.3190  0.4780
  524MOL0     H69105   4.613   7.623   4.585  3.3282 -0.7515  0.8368
  524MOL0     H69106   4.680   7.560   4.734  0.8170 -0.0024  0.0566
  524MOL0     H69107   4.406   7.498   4.622 -0.7356 -3.3883  0.8484
  524MOL0     H69108   4.442   7.617   4.754  0.5575  1.1488 -0.8645
  524MOL0     H69109   4.512   7.460   4.906 -2.5650  0.0870  0.6509
  524MOL0     H69110   4.487   7.319   4.793  2.3025 -0.3154  2.3528
  524MOL0     H69111   4.265   7.493   4.904 -0.1790 -1.3808  2.6501
  524MOL0     H69112   4.240   7.367   4.788  0.6198 -0.3391 -0.9043
  524MOL0     H69113   4.327   7.351   5.076 -1.7791 -0.9365  0.8716
  524MOL0     H69114   4.347   7.209   4.988 -2.2828 -2.4966  3.5883
  524MOL0     H69115   4.102   7.214   4.928 -0.1182  1.0906 -0.4222
  524MOL0     H69116   4.082   7.366   5.000  0.7203  0.1453 -1.1900
  524MOL0     H69117   4.183   7.121   5.152  0.5110 -0.1951  1.6467
  524MOL0     H69118   4.130   7.272   5.232 -0.4275 -0.6386 -0.0580
  524MOL0     H69119   3.936   7.126   5.256 -5.5655  1.4512 -1.1693
  524MOL0     H69120   3.946   7.082   5.084  0.2575 -0.3429  0.3666
  524MOL0     H69121   3.775   7.215   4.956 -4.5122 -1.7569  1.5226
  524MOL0     H69122   3.620   7.517   4.921  1.2397 -0.9298  0.2986
  524MOL0     H69123   3.538   7.531   5.079 -1.1769 -0.8234  0.6810
  524MOL0     H69124   3.426   7.340   5.073  0.5868  1.2510  0.8644
  524MOL0     H69125   3.500   7.290   4.919  1.1836  1.6001 -1.7649
  524MOL0     H69126   3.374   7.562   4.922  0.5874 -1.3035  2.4863
  524MOL0     H69127   3.392   7.456   4.790  0.5650  2.3497 -0.2140
  524MOL0     H69128   3.143   7.489   4.878  0.0323  1.0124  2.4941
  524MOL0     H69129   3.199   7.419   5.026  4.1761 -4.8575  1.6361
  524MOL0     H69130   3.222   7.047   4.915  1.2441  2.0610 -2.1756
  524MOL0     H69131   3.037   6.892   4.973  2.3289 -0.0164  0.2000
  524MOL0     H69132   2.436   7.102   5.028 -1.1800  0.0252  0.0727
  524MOL0     H69133   2.198   7.010   4.969  1.9404  3.3675  2.4376
  524MOL0     H69134   2.111   6.631   4.812 -0.4187 -0.9936 -0.2191
  524MOL0     H69135   2.188   6.683   4.654 -1.2679 -1.8160  0.4535
  524MOL0     H69136   1.998   6.813   4.582  0.4125 -0.0196 -0.4162
  524MOL0     H69137   1.918   6.789   4.733  3.5235 -1.8877  2.6947
  524MOL0     H69138   2.000   6.549   4.568 -1.7179 -1.8810 -1.9350
  524MOL0     H69139   1.859   6.660   4.515 -0.6825 -0.4698  0.2858
  524MOL0     H69140   1.892   6.538   4.795  0.3079  2.6135  1.5618
  524MOL0     H69141   1.753   6.609   4.713  2.4015  1.3784  2.2789
  524MOL0     H69142   1.753   6.343   4.742  2.6383 -3.1237 -0.3967
  524MOL0     H69143   1.874   6.333   4.641 -1.0256 -0.9688  1.3084
  524MOL0     H69144   1.686   6.285   4.500 -0.3077  0.0793  1.4860
  524MOL0     H69145   1.763   6.436   4.450  1.2591 -1.0695  0.4679
  524MOL0     H69146   1.514   6.390   4.629 -1.7369  1.3136  0.6005
  524MOL0     H69147   1.567   6.556   4.582  1.9156  1.1757 -2.7845
  524MOL0     H69148   1.527   6.462   4.336  2.0551  3.8123  2.5085
  524MOL0     H69149   1.390   6.511   4.433  0.5602  1.4625  0.4714
  524MOL0     H69150   2.381   6.698   4.741  0.1269  0.3909 -0.2679
  524MOL0     H69151   2.602   6.798   4.795 -0.6316 -1.5962 -0.9096
  524MOL0     H69152   2.752   7.200   4.915 -0.2190 -2.1256 -2.1380
  524MOL0     H69153   2.927   7.367   4.896 -1.2944 -1.1413 -2.8041
  524MOL0     H69154   4.822   7.622   4.576 -0.2747  1.0368  0.1401
  524MOL0     H69155   5.037   7.624   4.448 -0.5876 -0.0329 -2.1248
  524MOL0     H69156   5.229   7.467   4.052 -0.4951  1.6941 -0.3852
  524MOL0     H69157   5.407   7.493   3.882 -0.1934  1.7102  1.2024
  524MOL0     H69158   5.613   7.517   3.744  0.6499  1.0501  0.3213
  524MOL0     H69159   5.617   7.357   3.815  0.7295 -0.6632  1.2133
  524MOL0     H69160   5.853   7.354   3.834 -1.8485 -2.4398 -0.3138
  524MOL0     H69161   5.800   7.341   3.684  2.9589 -2.3889  1.9792
  524MOL0     H69162   5.907   7.593   3.810  2.3408 -2.7474  0.1832
  524MOL0     H69163   5.809   7.588   3.656  0.6198 -0.8365 -0.8728
  524MOL0     H69164   6.077   7.466   3.694  0.5100 -0.2077 -1.4977
  524MOL0     H69165   5.988   7.441   3.551  1.2529 -1.2393  0.1200
  524MOL0     H69166   6.087   7.828   3.457  1.4835 -0.3972 -0.4170
  524MOL0     H69167   5.675   7.547   4.227 -0.2901  3.0876  0.2561
  524MOL0     H69168   5.499   7.504   4.375  0.8686 -1.6317  0.0722
  525MOL0     O69169   3.546   5.151   8.124  0.4075  0.1696  0.3691
  525MOL0     C69170   3.525   5.032   8.094  0.1530 -0.4946 -0.1465
  525MOL0     O69171   3.591   4.968   7.994  0.0078  0.2975  0.0099
  525MOL0     C69172   3.681   5.032   7.920  0.2867 -0.6383 -0.2226
  525MOL0     C69173   3.804   5.048   7.974 -1.0453  1.1222  0.2831
  525MOL0     C69174   3.907   5.105   7.895 -0.7966  0.2624 -0.0863
  525MOL0     C69175   3.875   5.174   7.769 -0.4536 -0.5259 -0.2843
  525MOL0     O69176   3.986   5.232   7.711  0.1386 -0.0871 -0.6817
  525MOL0     C69177   3.982   5.271   7.571  0.0821  0.4806  1.3785
  525MOL0     C69178   4.121   5.332   7.543  0.0450  0.2448 -0.0056
  525MOL0     C69179   4.175   5.319   7.404  0.3625 -0.5257  0.3869
  525MOL0     C69180   4.087   5.381   7.300 -0.2781 -0.4718 -0.3889
  525MOL0     C69181   4.103   5.530   7.297 -0.0462 -0.0461  0.4752
  525MOL0     C69182   4.042   5.604   7.175 -0.0106  0.6731  0.0062
  525MOL0     C69183   3.890   5.566   7.151  0.4819 -0.4956 -0.0045
  525MOL0     C69184   3.818   5.669   7.042 -0.0282  0.5650 -0.0741
  525MOL0     N69185   3.676   5.632   7.026  0.1362 -0.8498 -0.1261
  525MOL0     C69186   3.577   5.655   7.119 -1.1420  0.2025 -0.1119
  525MOL0     C69187   3.464   5.626   7.047  0.4358  0.0633 -0.5769
  525MOL0     C69188   3.327   5.628   7.105  0.8039  0.3119 -0.2877
  525MOL0     C69189   3.248   5.500   7.051  0.0677 -0.7973  0.1598
  525MOL0     C69190   3.302   5.369   7.100  0.0794 -0.5098  0.2005
  525MOL0     C69191   3.196   5.263   7.094  0.1255  0.3845 -0.2204
  525MOL0     O69192   3.066   5.302   7.157  0.3371  0.9519  0.7888
  525MOL0     C69193   2.952   5.251   7.106 -0.2279  0.2105 -0.6109
  525MOL0     C69194   2.840   5.316   7.143 -0.3254 -0.3459 -0.1564
  525MOL0     C69195   2.710   5.278   7.109 -0.5489 -0.0893 -0.7427
  525MOL0     C69196   2.692   5.161   7.029 -0.3118  0.1078 -0.4469
  525MOL0     C69197   2.565   5.110   6.973 -0.0276 -0.1530 -0.2683
  525MOL0     O69198   2.448   5.184   6.994  0.0077  0.3422  0.3405
  525MOL0     C69199   2.329   5.122   6.969  0.8078  0.2085 -0.6066
  525MOL0     C69200   2.291   4.985   6.989 -0.4559 -0.5051  0.0959
  525MOL0     C69201   2.155   4.939   6.976 -0.2899  0.5576  0.1740
  525MOL0     C69202   2.051   5.026   6.966  0.5893  0.0522  0.3138
  525MOL0     O69203   1.927   4.980   6.966  0.0756 -0.5663 -0.6946
  525MOL0     C69204   1.825   5.073   6.913 -0.4814  0.4003  0.0705
  525MOL0     C69205   1.690   4.999   6.910 -0.2644 -0.1842 -0.5132
  525MOL0     C69206   1.561   5.083   6.904  0.1791  0.2592  0.3073
  525MOL0     C69207   1.444   4.996   6.945 -0.2729  0.5060 -0.5580
  525MOL0     C69208   1.308   5.057   6.922  1.1733 -0.1140  0.2331
  525MOL0     C69209   1.269   5.081   6.770 -0.9984 -0.0292 -0.2122
  525MOL0     C69210   1.113   5.081   6.747 -0.5179  0.2393  0.5151
  525MOL0     C69211   1.044   5.206   6.804 -0.1045  0.2647  0.1362
  525MOL0    Cl69212   0.875   5.232   6.736  0.5303  0.1903  0.1934
  525MOL0     C69213   2.092   5.160   6.938 -0.4561 -0.6086 -0.2545
  525MOL0     C69214   2.220   5.205   6.944  0.3806 -0.5349  0.4284
  525MOL0     O69215   2.573   5.004   6.906 -0.0759 -0.2425 -0.1829
  525MOL0     C69216   2.808   5.095   6.989 -1.1501 -0.7861  0.7518
  525MOL0     C69217   2.936   5.141   7.024  0.5984  0.9875 -0.4574
  525MOL0     N69218   3.494   5.590   6.914  0.3419 -0.1771 -0.3928
  525MOL0     N69219   3.626   5.589   6.911  0.7979 -0.3354  0.4902
  525MOL0     C69220   3.746   5.151   7.711  0.0096 -0.6791 -0.3459
  525MOL0     C69221   3.652   5.077   7.786  0.5669  0.6984 -1.3082
  525MOL0     C69222   3.417   4.962   8.174 -0.2369 -0.1478  0.0747
  525MOL0     C69223   3.331   5.040   8.251 -0.1186  0.4296 -0.1762
  525MOL0     C69224   3.214   4.986   8.308  0.6514  0.1453  0.3920
  525MOL0     C69225   3.190   4.845   8.296  0.1927  0.2820  0.4104
  525MOL0     O69226   3.100   4.777   8.364  0.0251  0.0798  0.1415
  525MOL0     C69227   2.972   4.837   8.365 -0.2055 -0.2039  0.3919
  525MOL0     C69228   2.854   4.736   8.345 -0.3105 -0.7623 -1.0181
  525MOL0     C69229   2.890   4.673   8.204 -0.5938 -0.1687 -0.1019
  525MOL0     C69230   2.779   4.562   8.176 -0.6663 -0.4077 -0.2937
  525MOL0     C69231   2.641   4.612   8.177  1.0112  0.5329  0.4530
  525MOL0     C69232   2.519   4.638   8.162  0.4430  0.7987 -0.9917
  525MOL0     C69233   3.279   4.775   8.218 -0.3994  0.2117 -0.6111
  525MOL0     C69234   3.399   4.824   8.167 -0.3151 -0.3963 -0.2972
  525MOL0     H69235   3.838   5.008   8.069 -0.4261 -0.1766 -0.4604
  525MOL0     H69236   4.009   5.116   7.931 -1.0300  1.1230  0.3225
  525MOL0     H69237   3.904   5.347   7.559 -0.9170 -0.5648  1.0679
  525MOL0     H69238   3.976   5.178   7.514 -2.4026 -0.1061  2.4601
  525MOL0     H69239   4.180   5.268   7.609 -2.8298 -1.0959  1.4551
  525MOL0     H69240   4.124   5.436   7.577 -1.5365 -0.5016  2.7106
  525MOL0     H69241   4.188   5.213   7.384  2.7900 -0.7540  2.6199
  525MOL0     H69242   4.278   5.352   7.392  0.6461 -0.9277  1.5500
  525MOL0     H69243   4.135   5.338   7.212  2.3443  3.8172 -1.3345
  525MOL0     H69244   3.986   5.341   7.314 -0.0471 -1.2536 -0.8854
  525MOL0     H69245   4.204   5.562   7.320 -0.6641  2.5201 -0.0375
  525MOL0     H69246   4.042   5.562   7.382 -0.5316 -1.5122  0.7090
  525MOL0     H69247   4.106   5.578   7.090 -1.6163 -1.0165 -0.7574
  525MOL0     H69248   4.055   5.712   7.183  1.6202  0.3630  5.2234
  525MOL0     H69249   3.865   5.464   7.119 -3.7536 -0.0458  1.1761
  525MOL0     H69250   3.835   5.583   7.244 -1.0517  0.3730 -1.0227
  525MOL0     H69251   3.872   5.659   6.947 -0.6079  0.9770 -0.4506
  525MOL0     H69252   3.824   5.772   7.077  1.2695  0.0001  1.4882
  525MOL0     H69253   3.589   5.692   7.220  2.5665  2.7136 -1.2349
  525MOL0     H69254   3.270   5.716   7.072  1.3581  0.8371  0.1279
  525MOL0     H69255   3.326   5.622   7.215 -2.3430 -2.1719 -0.3049
  525MOL0     H69256   3.245   5.503   6.942 -0.2790  1.0616  0.1921
  525MOL0     H69257   3.147   5.514   7.092  0.8385  0.2442  1.7953
  525MOL0     H69258   3.385   5.354   7.030 -0.6410  1.8478 -1.2841
  525MOL0     H69259   3.338   5.368   7.203  0.0103 -0.5191  0.2248
  525MOL0     H69260   3.233   5.180   7.157 -0.2603  2.2034  2.5929
  525MOL0     H69261   3.173   5.228   6.993  0.5316  0.2132 -0.2589
  525MOL0     H69262   2.847   5.406   7.203 -1.1782 -0.3845  0.0091
  525MOL0     H69263   2.626   5.340   7.138 -1.1395 -1.8023  1.4525
  525MOL0     H69264   2.365   4.908   7.008  0.4248 -0.3244 -2.2418
  525MOL0     H69265   2.135   4.833   6.991 -1.1833  0.8456  1.1672
  525MOL0     H69266   1.857   5.091   6.810  0.7476 -0.2225  0.3218
  525MOL0     H69267   1.820   5.167   6.969 -1.3059 -0.1370  0.9364
  525MOL0     H69268   1.686   4.948   7.007 -2.0059 -0.7360 -0.8379
  525MOL0     H69269   1.697   4.927   6.828  1.0851  0.1286 -0.6965
  525MOL0     H69270   1.543   5.124   6.804  2.1732 -0.6253 -0.4743
  525MOL0     H69271   1.552   5.178   6.958 -5.0746  0.5844 -0.5870
  525MOL0     H69272   1.441   4.899   6.895  1.7844 -1.0360  2.0670
  525MOL0     H69273   1.448   4.965   7.049 -0.6785  0.1143 -0.6566
  525MOL0     H69274   1.288   5.153   6.971  1.5147 -0.7408  1.6449
  525MOL0     H69275   1.252   4.971   6.961  2.8901 -1.2733  0.2372
  525MOL0     H69276   1.306   5.001   6.706  1.0920 -0.4418  1.3971
  525MOL0     H69277   1.315   5.177   6.742 -1.1147 -0.8073 -3.4358
  525MOL0     H69278   1.085   5.072   6.642 -1.9923 -0.4129  0.9337
  525MOL0     H69279   1.068   4.995   6.797  1.5480 -0.4940  1.1824
  525MOL0     H69280   1.097   5.298   6.776 -2.5097  1.3944 -0.9844
  525MOL0     H69281   1.041   5.193   6.913  3.3774  1.3677  0.4776
  525MOL0     H69282   2.029   5.249   6.932  0.4350  0.1224  0.7728
  525MOL0     H69283   2.234   5.312   6.932 -2.9252 -0.0806 -0.3353
  525MOL0     H69284   2.812   5.004   6.929 -1.0756 -0.5559  0.4087
  525MOL0     H69285   3.015   5.070   7.002 -0.1482 -0.9611  2.6081
  525MOL0     H69286   3.732   5.187   7.610 -1.3143 -2.0553 -0.6891
  525MOL0     H69287   3.559   5.057   7.734  0.4028  0.1740 -0.8350
  525MOL0     H69288   3.352   5.146   8.255 -2.7279  1.0751 -1.3706
  525MOL0     H69289   3.163   5.054   8.375  4.9309  0.7917  3.4638
  525MOL0     H69290   2.974   4.902   8.277  1.1180  0.7590  1.0944
  525MOL0     H69291   2.955   4.899   8.454  1.4129  0.8580  0.0011
  525MOL0     H69292   2.850   4.649   8.411  0.6760 -1.8382 -2.3040
  525MOL0     H69293   2.765   4.799   8.346  1.0487  1.3711  2.1066
  525MOL0     H69294   2.983   4.618   8.219  1.9623  3.8137  0.2479
  525MOL0     H69295   2.909   4.734   8.115  0.7196 -1.8807 -1.0524
  525MOL0     H69296   2.809   4.509   8.085  0.4824  0.3167 -0.3490
  525MOL0     H69297   2.794   4.494   8.261  1.9942  3.7596  2.9841
  525MOL0     H69298   2.413   4.650   8.166  0.2765 -0.7271  1.0988
  525MOL0     H69299   3.260   4.669   8.224 -2.6707  0.6581  2.6554
  525MOL0     H69300   3.457   4.770   8.092 -0.6492 -1.4615  0.1843
  526MOL0     O69301   3.253   3.148   3.427 -0.3897  0.3920 -0.0848
  526MOL0     C69302   3.373   3.127   3.465  0.2667 -1.1244 -0.2566
  526MOL0     O69303   3.401   3.089   3.589  0.4625 -0.0152 -0.4346
  526MOL0     C69304   3.300   3.044   3.670 -0.8002  0.0104  1.1770
  526MOL0     C69305   3.285   3.098   3.789  0.4401  0.1261 -0.2503
  526MOL0     C69306   3.180   3.074   3.871  0.2419  0.3362 -0.4033
  526MOL0     C69307   3.089   2.973   3.838  0.8789 -0.0893 -0.5664
  526MOL0     O69308   2.982   2.932   3.919  0.2842 -0.2313 -0.1020
  526MOL0     C69309   2.950   3.008   4.036 -0.5943 -0.4309 -0.1071
  526MOL0     C69310   2.848   2.933   4.124  0.3442 -0.1099 -0.5640
  526MOL0     C69311   2.728   2.885   4.037  0.1458 -0.8097  0.1603
  526MOL0     C69312   2.626   2.812   4.125 -0.3860  0.2316 -0.0531
  526MOL0     C69313   2.490   2.814   4.055 -0.3044 -0.4613  0.1790
  526MOL0     C69314   2.413   2.701   4.097  0.3539  0.3876 -0.1905
  526MOL0     C69315   2.275   2.685   4.043 -0.5090 -0.0054  0.4332
  526MOL0     C69316   2.287   2.641   3.903  0.4966 -0.2182 -0.0025
  526MOL0     N69317   2.156   2.598   3.846  0.3959 -0.7290 -0.4042
  526MOL0     C69318   2.114   2.466   3.835  0.1819 -0.4906  1.1949
  526MOL0     C69319   1.997   2.472   3.757 -0.1973  0.4365  0.6008
  526MOL0     C69320   1.909   2.352   3.727 -0.2048 -0.1525  0.1193
  526MOL0     C69321   1.793   2.381   3.630  0.5639 -1.0000  0.5625
  526MOL0     C69322   1.675   2.282   3.651  0.4030  0.1486  0.2796
  526MOL0     C69323   1.558   2.305   3.549  1.1307  0.3899  0.0203
  526MOL0     O69324   1.453   2.208   3.582 -0.2838 -0.1005 -0.0205
  526MOL0     C69325   1.325   2.207   3.532  0.0918  0.8447  0.7991
  526MOL0     C69326   1.239   2.104   3.562 -0.2802  0.1389 -0.1794
  526MOL0     C69327   1.112   2.100   3.504 -0.7054  0.0186 -0.1669
  526MOL0     C69328   1.070   2.187   3.407  0.6010  0.0196 -0.1370
  526MOL0     C69329   0.925   2.170   3.345  0.0516 -0.4779 -0.3626
  526MOL0     O69330   0.893   2.274   3.264  0.3320 -0.2535 -0.0891
  526MOL0     C69331   0.773   2.288   3.206 -0.6091 -0.1705  0.8656
  526MOL0     C69332   0.648   2.238   3.250 -0.2250 -0.6789 -0.2484
  526MOL0     C69333   0.535   2.234   3.167 -0.4170 -0.2294 -0.2158
  526MOL0     C69334   0.547   2.311   3.054  0.4107 -0.1763  0.3369
  526MOL0     O69335   0.439   2.329   2.970  0.0867  0.0557  0.1248
  526MOL0     C69336   0.316   2.378   3.031 -0.4660  0.7050  0.0827
  526MOL0     C69337   0.220   2.430   2.924  0.6563  0.1318 -1.1390
  526MOL0     C69338   0.080   2.441   2.975 -0.5001  0.6021  0.5269
  526MOL0     C69339  -0.016   2.508   2.871 -0.3547 -0.1385  0.0721
  526MOL0     C69340  -0.155   2.508   2.939 -1.1810 -0.4171  0.2392
  526MOL0     C69341  -0.267   2.562   2.845 -0.2958 -0.1650  0.1512
  526MOL0     C69342  -0.410   2.533   2.896  0.8093 -0.1725 -0.0990
  526MOL0     C69343  -0.519   2.564   2.788  0.0593  0.3602  0.3355
  526MOL0    Cl69344  -0.688   2.522   2.843  0.0619 -0.5619  0.0831
  526MOL0     C69345   0.668   2.379   3.014 -0.0456  0.7285 -0.0238
  526MOL0     C69346   0.784   2.367   3.091  0.3159  0.3067 -0.0016
  526MOL0     O69347   0.862   2.063   3.360  0.0773  0.6215  0.1873
  526MOL0     C69348   1.153   2.298   3.394  0.0218 -0.1889  0.7751
  526MOL0     C69349   1.277   2.315   3.457  0.1949  0.6171  0.1622
  526MOL0     N69350   1.976   2.600   3.721 -0.5097  0.6669 -0.3844
  526MOL0     N69351   2.070   2.674   3.772  0.0357 -0.3306 -0.1891
  526MOL0     C69352   3.106   2.897   3.715  1.2998 -0.0510  0.6836
  526MOL0     C69353   3.213   2.940   3.628  0.6044 -0.5212 -0.8086
  526MOL0     C69354   3.478   3.174   3.369 -0.2791 -0.1657 -0.7357
  526MOL0     C69355   3.438   3.251   3.264 -0.2253  0.1570 -0.4545
  526MOL0     C69356   3.535   3.308   3.186  0.3827 -0.8997 -0.1109
  526MOL0     C69357   3.672   3.272   3.195  0.2751  0.3826 -0.1984
  526MOL0     O69358   3.756   3.336   3.103  0.5990  0.9426 -0.5435
  526MOL0     C69359   3.894   3.311   3.125  0.1342 -0.6195 -0.5408
  526MOL0     C69360   3.971   3.352   3.005  0.3080  0.5623 -0.5606
  526MOL0     C69361   4.124   3.353   3.043 -0.6461  0.6232  0.0329
  526MOL0     C69362   4.212   3.461   2.979 -0.2281  0.5087  0.4431
  526MOL0     C69363   4.220   3.459   2.833 -1.2030 -0.3546  0.1585
  526MOL0     C69364   4.252   3.476   2.720 -1.0387  0.5830 -0.0573
  526MOL0     C69365   3.708   3.194   3.307  0.7310  0.0511  0.3377
  526MOL0     C69366   3.610   3.144   3.391  0.6683 -0.5743 -0.0392
  526MOL0     H69367   3.348   3.181   3.822 -1.6192  1.0217  1.7092
  526MOL0     H69368   3.165   3.129   3.963  1.7681 -0.9988  0.7220
  526MOL0     H69369   2.910   3.102   3.996  0.2097  0.6692  1.5299
  526MOL0     H69370   3.036   3.045   4.092  0.1760  2.4517 -2.9136
  526MOL0     H69371   2.814   3.002   4.201  1.5543 -2.5704  2.3648
  526MOL0     H69372   2.888   2.850   4.183  0.0692 -0.1145 -0.3804
  526MOL0     H69373   2.764   2.828   3.951  1.3973  0.8311 -0.4516
  526MOL0     H69374   2.685   2.979   4.001  0.3514 -0.9008 -0.3261
  526MOL0     H69375   2.664   2.709   4.133  1.9853  0.9899 -0.8038
  526MOL0     H69376   2.628   2.865   4.221 -1.4677  2.1056 -1.0093
  526MOL0     H69377   2.507   2.824   3.947  0.8118  0.6623  0.4429
  526MOL0     H69378   2.443   2.910   4.077  0.6378  0.2168 -0.6961
  526MOL0     H69379   2.398   2.699   4.206  1.9208  0.5379  0.0544
  526MOL0     H69380   2.479   2.616   4.076  0.8417  0.6097  0.4086
  526MOL0     H69381   2.219   2.622   4.113 -0.3456 -3.0053 -1.9424
  526MOL0     H69382   2.231   2.785   4.048 -1.3731 -0.4005  0.9618
  526MOL0     H69383   2.357   2.557   3.894  0.3220 -0.3724  0.0624
  526MOL0     H69384   2.327   2.723   3.842  0.3111  1.9662  2.6531
  526MOL0     H69385   2.164   2.379   3.875 -1.0533 -1.7962  0.0098
  526MOL0     H69386   1.883   2.312   3.826  3.0682 -2.1597  0.3032
  526MOL0     H69387   1.971   2.271   3.687  2.2331  1.5613  0.2241
  526MOL0     H69388   1.830   2.368   3.528 -0.9369 -0.3132 -0.1077
  526MOL0     H69389   1.749   2.481   3.634  1.7828 -0.2871 -1.8395
  526MOL0     H69390   1.700   2.175   3.653 -0.0448 -0.0082 -1.0845
  526MOL0     H69391   1.637   2.288   3.753 -1.3873  0.0547 -0.3457
  526MOL0     H69392   1.591   2.306   3.445 -2.7621  0.5254 -1.3463
  526MOL0     H69393   1.517   2.403   3.576 -3.8595 -1.5086  0.2380
  526MOL0     H69394   1.271   2.031   3.635  2.3916  1.8200  0.4436
  526MOL0     H69395   1.054   2.012   3.530 -0.6714 -0.1648 -0.6945
  526MOL0     H69396   0.641   2.191   3.347  0.9136 -3.4416 -1.3968
  526MOL0     H69397   0.443   2.181   3.190 -0.0213 -0.5520  0.6705
  526MOL0     H69398   0.344   2.469   3.085 -2.1587  1.9235 -0.9714
  526MOL0     H69399   0.281   2.297   3.095  1.5073 -1.0291 -0.9253
  526MOL0     H69400   0.235   2.370   2.834 -0.2386  0.0306 -1.2288
  526MOL0     H69401   0.257   2.528   2.892  2.9587 -0.9170 -1.8894
  526MOL0     H69402   0.078   2.483   3.075  4.3202 -0.9298  1.5434
  526MOL0     H69403   0.051   2.336   2.988  1.8283 -0.1904 -0.1668
  526MOL0     H69404   0.016   2.611   2.859 -0.6703 -0.0432  0.0410
  526MOL0     H69405  -0.033   2.454   2.778 -4.0625 -0.3846  0.7268
  526MOL0     H69406  -0.140   2.563   3.033  0.3121 -0.4736  0.0549
  526MOL0     H69407  -0.171   2.406   2.975  3.1895 -1.1215  0.7329
  526MOL0     H69408  -0.258   2.513   2.748  1.8277 -0.6250  0.5427
  526MOL0     H69409  -0.255   2.669   2.827  0.6601 -0.6073 -2.2025
  526MOL0     H69410  -0.419   2.430   2.933  0.4170  0.2848  1.1569
  526MOL0     H69411  -0.422   2.599   2.983  3.3174  0.4538 -0.1345
  526MOL0     H69412  -0.507   2.505   2.697  2.4907  0.4033  0.5584
  526MOL0     H69413  -0.519   2.672   2.768 -0.1395  0.0006 -1.8550
  526MOL0     H69414   0.670   2.429   2.918  0.3745  0.8643  0.0528
  526MOL0     H69415   0.878   2.413   3.060  0.8325 -0.2038  0.7716
  526MOL0     H69416   1.128   2.387   3.337 -0.9436 -0.0773  1.3361
  526MOL0     H69417   1.339   2.398   3.422  1.4758 -1.0709 -1.8106
  526MOL0     H69418   3.041   2.815   3.684 -0.5535  2.1588 -1.6389
  526MOL0     H69419   3.234   2.885   3.537  1.3980 -0.2236 -0.8079
  526MOL0     H69420   3.339   3.295   3.255 -0.1846  0.1390 -1.0461
  526MOL0     H69421   3.503   3.374   3.106 -0.6100  3.0348  3.2252
  526MOL0     H69422   3.915   3.205   3.139  2.5224  0.0591  1.9057
  526MOL0     H69423   3.919   3.365   3.217 -0.6520 -1.0642 -0.0487
  526MOL0     H69424   3.953   3.281   2.924  1.4848 -0.2639 -0.1319
  526MOL0     H69425   3.931   3.451   2.982 -0.5369  0.5873  0.9187
  526MOL0     H69426   4.172   3.259   3.014  4.2935  2.0154  2.5615
  526MOL0     H69427   4.141   3.365   3.150 -1.9166 -3.3190  0.8303
  526MOL0     H69428   4.192   3.561   3.019 -0.4111  1.2677 -1.4415
  526MOL0     H69429   4.312   3.435   3.014  1.2274  3.3030 -1.2413
  526MOL0     H69430   4.266   3.501   2.617 -0.5993 -2.0866 -0.7186
  526MOL0     H69431   3.811   3.161   3.321  0.5698 -1.4771 -1.5446
  526MOL0     H69432   3.638   3.088   3.480  1.0221 -0.0932  0.1552
  527MOL0     O69433   8.669   2.817  11.188  0.0635  0.4003  0.7716
  527MOL0     C69434   8.729   2.732  11.125 -0.8886  0.0689 -0.3502
  527MOL0     O69435   8.672   2.670  11.014 -0.2762 -0.3107 -0.9364
  527MOL0     C69436   8.544   2.706  10.963  0.4612  1.0685 -0.0620
  527MOL0     C69437   8.422   2.639  10.989  0.5106  0.2222 -0.7916
  527MOL0     C69438   8.300   2.682  10.927  0.0107  0.1760  0.3912
  527MOL0     C69439   8.306   2.807  10.853 -0.3085  0.4079 -0.6064
  527MOL0     O69440   8.197   2.838  10.772 -0.4145 -0.0309  0.7020
  527MOL0     C69441   8.132   2.967  10.776 -0.0140  0.1047 -0.2659
  527MOL0     C69442   8.016   2.979  10.680  0.0926 -0.9540 -0.3735
  527MOL0     C69443   7.949   2.851  10.645  0.2272 -0.1090 -0.3295
  527MOL0     C69444   7.816   2.877  10.581  0.0687  0.7735 -0.2586
  527MOL0     C69445   7.769   2.754  10.501 -0.2922 -0.2786  0.4566
  527MOL0     C69446   7.797   2.745  10.348 -0.3755  0.5896 -0.0082
  527MOL0     C69447   7.725   2.633  10.270 -0.0332  0.3948 -0.0004
  527MOL0     C69448   7.658   2.678  10.138  0.9236  0.2493  0.1838
  527MOL0     N69449   7.603   2.557  10.067  0.2433 -0.2013  0.1447
  527MOL0     C69450   7.675   2.461  10.008  0.0191 -0.3984  0.1817
  527MOL0     C69451   7.587   2.369   9.969  0.1804 -0.1894  0.2854
  527MOL0     C69452   7.608   2.245   9.891  0.0641 -0.1524 -0.9192
  527MOL0     C69453   7.506   2.213   9.773 -1.6439  0.6648 -0.7652
  527MOL0     C69454   7.381   2.161   9.840  0.6946 -0.1447  0.0001
  527MOL0     C69455   7.277   2.134   9.723  0.4024  0.4591  0.5168
  527MOL0     O69456   7.158   2.074   9.778  0.1518 -0.5984  0.1831
  527MOL0     C69457   7.058   2.043   9.689 -0.1857  0.6347  0.0279
  527MOL0     C69458   6.946   1.979   9.746  0.1319 -0.2466  0.3920
  527MOL0     C69459   6.828   1.972   9.671 -0.0586  0.0337 -0.0234
  527MOL0     C69460   6.830   2.013   9.533 -0.3191  0.2461 -0.6971
  527MOL0     C69461   6.694   2.016   9.459 -0.5517 -0.8930 -0.2706
  527MOL0     O69462   6.584   1.997   9.538  0.0491 -0.0108  0.7618
  527MOL0     C69463   6.456   1.999   9.481 -0.1069  0.2683  0.1443
  527MOL0     C69464   6.408   2.105   9.406  0.1197  0.0695  0.6441
  527MOL0     C69465   6.276   2.118   9.356 -0.4934 -0.3470 -0.5475
  527MOL0     C69466   6.190   2.015   9.393  0.1983 -0.4357 -0.2302
  527MOL0     O69467   6.056   2.003   9.366 -0.4971  0.0986  0.7576
  527MOL0     C69468   5.986   2.081   9.269  0.3096 -0.0918 -0.0458
  527MOL0     C69469   5.892   1.981   9.209  0.1640 -0.5387  0.3789
  527MOL0     C69470   5.954   1.859   9.141  0.1866  0.6240 -0.1182
  527MOL0     C69471   5.845   1.770   9.095 -0.6632  1.0884 -0.6326
  527MOL0     C69472   5.909   1.630   9.056  0.4941  0.0802 -0.4611
  527MOL0     C69473   5.801   1.522   9.040 -0.2959 -0.2077  0.1040
  527MOL0     C69474   5.677   1.579   8.972  0.4262 -0.5576 -0.4806
  527MOL0     C69475   5.609   1.460   8.900  1.1383  0.6486 -0.3708
  527MOL0    Cl69476   5.431   1.483   8.858  0.1015 -0.0510  0.2018
  527MOL0     C69477   6.235   1.909   9.471 -0.0729 -1.0536  0.3963
  527MOL0     C69478   6.364   1.903   9.511 -0.8038  0.7109  0.0676
  527MOL0     O69479   6.692   2.040   9.342  0.3775  0.8055  0.8416
  527MOL0     C69480   6.946   2.064   9.478 -0.5400 -0.8575  0.5981
  527MOL0     C69481   7.066   2.078   9.551  0.3708  0.4369  0.1834
  527MOL0     N69482   7.457   2.419  10.009  0.9077  0.0367  0.1847
  527MOL0     N69483   7.470   2.530  10.069  0.4838 -0.1708 -0.1592
  527MOL0     C69484   8.429   2.867  10.831 -0.2770 -0.1294 -0.0263
  527MOL0     C69485   8.553   2.814  10.885 -1.0871 -0.5336 -0.4510
  527MOL0     C69486   8.857   2.684  11.170 -0.8430  0.0551  0.3808
  527MOL0     C69487   8.913   2.567  11.113  0.2045  0.0841 -0.5630
  527MOL0     C69488   9.039   2.529  11.156 -0.2794 -0.4900 -0.0298
  527MOL0     C69489   9.114   2.610  11.244  0.0356  0.7905 -0.1184
  527MOL0     O69490   9.246   2.568  11.266  0.7169 -0.2759  0.2906
  527MOL0     C69491   9.300   2.597  11.399  0.9175  0.1098  0.1259
  527MOL0     C69492   9.413   2.508  11.455 -0.8452  0.1287  0.5356
  527MOL0     C69493   9.369   2.358  11.434  0.1652  0.1562  0.6464
  527MOL0     C69494   9.243   2.326  11.513  0.2887  0.0260  0.1316
  527MOL0     C69495   9.217   2.187  11.544  0.1695 -1.0439 -0.6498
  527MOL0     C69496   9.174   2.086  11.594 -0.4831 -0.2802 -0.3732
  527MOL0     C69497   9.058   2.727  11.292  0.2169 -0.0550 -0.4607
  527MOL0     C69498   8.930   2.762  11.263  0.3715 -0.5566 -0.0204
  527MOL0     H69499   8.428   2.547  11.047  4.1494 -1.9676 -4.0852
  527MOL0     H69500   8.206   2.629  10.937  0.1687 -0.6754 -1.9248
  527MOL0     H69501   8.194   3.054  10.757 -2.8225  2.1951 -0.5403
  527MOL0     H69502   8.096   2.982  10.879  0.5518 -0.5941  0.0484
  527MOL0     H69503   8.048   3.032  10.590 -3.3704  0.6811 -0.7872
  527MOL0     H69504   7.944   3.052  10.716  0.9161 -0.4079  0.1970
  527MOL0     H69505   7.931   2.790  10.734 -1.7658  0.6365 -0.1865
  527MOL0     H69506   8.014   2.790  10.581  2.8722  0.5709  1.5370
  527MOL0     H69507   7.743   2.911  10.655  1.5033 -0.5110  1.8801
  527MOL0     H69508   7.813   2.961  10.511 -1.7503  2.5033  1.7335
  527MOL0     H69509   7.661   2.746  10.519 -0.5456  0.9663 -0.3612
  527MOL0     H69510   7.811   2.663  10.543  3.0378  0.3351 -1.2270
  527MOL0     H69511   7.905   2.726  10.344  0.1643  2.6413  2.2034
  527MOL0     H69512   7.769   2.840  10.302  0.2160  0.6760 -0.2017
  527MOL0     H69513   7.794   2.551  10.245 -0.4427 -0.1840  0.7103
  527MOL0     H69514   7.651   2.592  10.340 -0.7767  0.3974 -0.7747
  527MOL0     H69515   7.732   2.715  10.066  0.4501  0.6869 -0.0870
  527MOL0     H69516   7.575   2.747  10.153  1.4293  0.9625 -0.2128
  527MOL0     H69517   7.782   2.455   9.995  0.2095  1.4643  0.6682
  527MOL0     H69518   7.601   2.167   9.967 -0.8354  2.0283  1.3953
  527MOL0     H69519   7.713   2.249   9.860  1.0549 -0.2029  2.1035
  527MOL0     H69520   7.551   2.135   9.711  1.6777 -0.6241  2.8860
  527MOL0     H69521   7.492   2.296   9.703  2.4759  1.3132 -1.0679
  527MOL0     H69522   7.396   2.067   9.893  0.4856 -0.2582 -0.1425
  527MOL0     H69523   7.347   2.236   9.912  3.7862  1.0168  0.4094
  527MOL0     H69524   7.318   2.065   9.649 -1.6028  0.1042 -0.3374
  527MOL0     H69525   7.248   2.227   9.674 -1.7181 -1.2171 -1.7081
  527MOL0     H69526   6.944   1.954   9.851 -0.4289  0.1709  0.4790
  527MOL0     H69527   6.736   1.936   9.717 -0.2343 -0.1921 -0.5434
  527MOL0     H69528   6.481   2.182   9.380 -2.3658  2.3034 -0.0831
  527MOL0     H69529   6.239   2.191   9.286  0.7844  2.2372  1.2994
  527MOL0     H69530   6.056   2.118   9.193  1.9459  2.7542  2.6255
  527MOL0     H69531   5.934   2.168   9.309 -0.7272 -0.1226 -1.2657
  527MOL0     H69532   5.843   2.038   9.130  1.5758  2.5655  1.6037
  527MOL0     H69533   5.818   1.947   9.282  1.3619 -5.1774 -0.1991
  527MOL0     H69534   6.012   1.813   9.222 -1.5235  0.1643  0.9106
  527MOL0     H69535   6.016   1.892   9.058 -0.2144  1.7289 -0.0017
  527MOL0     H69536   5.761   1.761   9.165  0.2430  1.8760  0.5968
  527MOL0     H69537   5.803   1.815   9.005 -2.5932  1.2409  0.3003
  527MOL0     H69538   5.978   1.607   9.138 -2.3477 -0.6281  1.8923
  527MOL0     H69539   5.962   1.651   8.963 -2.2848  2.2392 -1.6754
  527MOL0     H69540   5.770   1.476   9.134  2.7704 -1.7771  0.4887
  527MOL0     H69541   5.832   1.426   8.998 -0.4725 -0.5221  0.6808
  527MOL0     H69542   5.607   1.615   9.049 -1.5887 -2.2641 -1.4288
  527MOL0     H69543   5.696   1.657   8.897 -3.5633 -0.7835 -1.9305
  527MOL0     H69544   5.613   1.372   8.965  1.7155 -0.5291 -1.9258
  527MOL0     H69545   5.664   1.435   8.809  2.7796  1.9094  0.2303
  527MOL0     H69546   6.163   1.830   9.487 -1.4376 -0.0475 -0.6169
  527MOL0     H69547   6.386   1.815   9.569  0.4182  0.5448 -0.6164
  527MOL0     H69548   6.938   2.084   9.371 -0.4393  0.0477  0.7540
  527MOL0     H69549   7.150   2.121   9.497 -0.0731 -0.8725 -1.6279
  527MOL0     H69550   8.432   2.952  10.764 -0.9321  1.5248  1.9492
  527MOL0     H69551   8.648   2.866  10.882 -1.3378 -0.0295  0.1330
  527MOL0     H69552   8.850   2.523  11.037 -0.5338  2.0780 -1.1807
  527MOL0     H69553   9.081   2.431  11.136 -1.5323 -1.3929  1.4681
  527MOL0     H69554   9.212   2.591  11.465  0.6202  0.1189 -0.2676
  527MOL0     H69555   9.330   2.702  11.401 -0.1708  0.4440  1.8659
  527MOL0     H69556   9.508   2.509  11.400 -1.9481 -2.2401 -1.6887
  527MOL0     H69557   9.435   2.529  11.560  1.2636  0.3466  0.0900
  527MOL0     H69558   9.442   2.283  11.468 -2.6163 -3.5954 -0.9572
  527MOL0     H69559   9.352   2.337  11.328 -1.6114 -0.7050  1.0650
  527MOL0     H69560   9.257   2.382  11.606  0.3439  1.5232 -0.7415
  527MOL0     H69561   9.155   2.364  11.460  1.2043 -1.2319 -2.4116
  527MOL0     H69562   9.139   2.001  11.648  0.4611 -0.4127  0.0416
  527MOL0     H69563   9.114   2.776  11.371 -0.0494 -4.9905  3.2916
  527MOL0     H69564   8.882   2.845  11.315 -3.2091 -1.0908 -2.1358
  528MOL0     O69565   8.681   7.418   3.314  0.2161 -0.2048  0.1851
  528MOL0     C69566   8.798   7.391   3.291  0.0362  0.4032 -0.0767
  528MOL0     O69567   8.841   7.283   3.221  0.8510  0.6871 -0.7041
  528MOL0     C69568   8.741   7.204   3.156  0.2532  0.0663  1.1297
  528MOL0     C69569   8.751   7.189   3.018 -0.3311 -0.6662  0.9537
  528MOL0     C69570   8.651   7.151   2.930 -0.3292 -0.6090 -0.5643
  528MOL0     C69571   8.538   7.095   2.986 -0.2929  0.2772  0.9817
  528MOL0     O69572   8.439   7.039   2.904  0.0033  0.7279  0.2151
  528MOL0     C69573   8.348   6.940   2.956 -0.1378 -0.6926  0.2129
  528MOL0     C69574   8.306   6.855   2.843  0.7664  0.1866 -0.0408
  528MOL0     C69575   8.222   6.728   2.874 -0.0745 -0.0705  0.6939
  528MOL0     C69576   8.099   6.739   2.971 -0.1748 -0.3737  0.2686
  528MOL0     C69577   7.986   6.639   2.959 -0.9864 -0.6553  0.7524
  528MOL0     C69578   8.021   6.495   3.004  0.0157  0.1192 -0.2351
  528MOL0     C69579   7.911   6.398   2.952  0.0215  0.8457  0.6050
  528MOL0     C69580   7.892   6.397   2.800  0.2532 -0.0708 -0.4713
  528MOL0     N69581   7.844   6.260   2.744  0.0442  0.0984  0.2470
  528MOL0     C69582   7.911   6.169   2.671  1.1281  0.4712 -0.3040
  528MOL0     C69583   7.813   6.071   2.647  0.0977 -0.0076  0.5767
  528MOL0     C69584   7.831   5.941   2.569  0.9672  0.0353 -0.6449
  528MOL0     C69585   7.969   5.878   2.608 -1.0380 -0.2655 -1.1099
  528MOL0     C69586   7.985   5.730   2.568  0.1655 -0.2838  0.1882
  528MOL0     C69587   7.978   5.690   2.417  0.6715 -0.1261 -0.6448
  528MOL0     O69588   7.843   5.715   2.379 -0.0811 -0.3537  0.9401
  528MOL0     C69589   7.741   5.643   2.413 -0.9361 -0.9221  0.0088
  528MOL0     C69590   7.752   5.514   2.459 -0.3306 -0.4441  0.2411
  528MOL0     C69591   7.633   5.449   2.503 -0.1293 -0.0972 -0.8029
  528MOL0     C69592   7.512   5.514   2.496 -0.3729 -0.7849  0.2606
  528MOL0     C69593   7.387   5.451   2.546 -0.5330  0.3355  0.2457
  528MOL0     O69594   7.405   5.363   2.645  0.3498 -0.2885 -0.1748
  528MOL0     C69595   7.292   5.308   2.706 -0.5678 -0.2834  1.1728
  528MOL0     C69596   7.272   5.333   2.844  0.1782 -0.4688  0.7942
  528MOL0     C69597   7.153   5.287   2.901  0.8268 -0.1232 -0.0362
  528MOL0     C69598   7.055   5.218   2.829 -0.5180 -0.0387  1.2475
  528MOL0     O69599   6.927   5.186   2.877  0.0201  0.2375  0.0888
  528MOL0     C69600   6.899   5.197   3.020 -0.1969 -0.2581  0.7271
  528MOL0     C69601   6.756   5.165   3.045  0.8058  1.0601  0.5895
  528MOL0     C69602   6.655   5.266   2.997 -0.3459  0.2653 -0.1377
  528MOL0     C69603   6.599   5.351   3.117 -0.2089 -0.6382 -0.1002
  528MOL0     C69604   6.500   5.269   3.209  0.8178  0.5128 -0.4051
  528MOL0     C69605   6.408   5.364   3.283 -0.0154  0.7002  0.4312
  528MOL0     C69606   6.336   5.294   3.401  0.2400  0.4096 -0.2480
  528MOL0     C69607   6.240   5.388   3.473  0.7577  0.5142  0.0089
  528MOL0    Cl69608   6.329   5.505   3.578  0.4131 -0.2261  0.3698
  528MOL0     C69609   7.081   5.190   2.690  0.6653 -0.2836  0.4344
  528MOL0     C69610   7.195   5.246   2.630  0.8552 -0.8345 -0.7110
  528MOL0     O69611   7.274   5.497   2.503  0.2358 -0.2914 -0.2418
  528MOL0     C69612   7.504   5.642   2.434  0.2934  0.0565  0.6497
  528MOL0     C69613   7.620   5.711   2.399  0.9653 -0.1122 -0.4009
  528MOL0     N69614   7.693   6.124   2.691 -0.5342  0.5411  0.6413
  528MOL0     N69615   7.714   6.227   2.755 -1.0138 -0.2987  0.7845
  528MOL0     C69616   8.522   7.090   3.123  0.3090 -0.1210 -0.6986
  528MOL0     C69617   8.626   7.149   3.211 -0.2854  0.1850  0.2128
  528MOL0     C69618   8.905   7.459   3.363 -0.3421  0.5959  0.3295
  528MOL0     C69619   8.864   7.585   3.427 -0.1227  0.9214  1.2737
  528MOL0     C69620   8.952   7.646   3.512 -0.0030 -0.5651 -0.4414
  528MOL0     C69621   9.079   7.593   3.547  0.0383 -0.1448 -0.1121
  528MOL0     O69622   9.161   7.648   3.637  0.2258  0.5957  0.5010
  528MOL0     C69623   9.179   7.792   3.629  0.2072  0.2471  0.2134
  528MOL0     C69624   9.124   7.853   3.761 -0.1105 -0.4889  0.0546
  528MOL0     C69625   9.235   7.846   3.869 -0.3132 -0.3837 -0.5860
  528MOL0     C69626   9.168   7.899   4.003 -0.3909 -0.7710  0.1305
  528MOL0     C69627   9.111   7.786   4.078 -0.5870 -0.4047 -0.3925
  528MOL0     C69628   9.057   7.686   4.127 -0.4321 -0.2692  0.3126
  528MOL0     C69629   9.119   7.479   3.472 -0.2816 -0.2844  0.5719
  528MOL0     C69630   9.039   7.409   3.373 -0.5364 -0.7114 -0.0632
  528MOL0     H69631   8.837   7.242   2.980 -1.0777 -0.4634 -0.4998
  528MOL0     H69632   8.664   7.163   2.823 -0.1772  1.1588 -0.3763
  528MOL0     H69633   8.258   6.995   2.985 -0.6517 -1.8264  0.8413
  528MOL0     H69634   8.386   6.880   3.040 -0.0603 -0.8645  0.0547
  528MOL0     H69635   8.391   6.805   2.794  0.5814 -0.1491 -0.0253
  528MOL0     H69636   8.246   6.909   2.770  0.6629  0.9560  0.6098
  528MOL0     H69637   8.291   6.647   2.898 -1.2039 -1.6702 -1.1427
  528MOL0     H69638   8.169   6.695   2.784 -2.2921 -0.2335  2.0000
  528MOL0     H69639   8.131   6.728   3.075 -1.4844  1.7738  0.9767
  528MOL0     H69640   8.041   6.831   2.961 -1.2935 -1.2875 -2.5913
  528MOL0     H69641   7.969   6.655   2.852  2.8064 -0.3212  0.0627
  528MOL0     H69642   7.898   6.666   3.018 -0.5588 -1.8684  1.9919
  528MOL0     H69643   8.024   6.484   3.113 -3.8942  0.7561  0.0795
  528MOL0     H69644   8.120   6.459   2.976 -0.9262 -2.6454 -0.3574
  528MOL0     H69645   7.958   6.303   2.978  0.3713  0.7951 -0.1972
  528MOL0     H69646   7.821   6.401   3.015  0.7959 -3.7449  2.3375
  528MOL0     H69647   7.984   6.423   2.745  0.1094  1.4963 -0.0009
  528MOL0     H69648   7.815   6.470   2.777 -1.0310 -1.2062  0.0960
  528MOL0     H69649   8.016   6.165   2.644  0.6495  0.6648 -2.4193
  528MOL0     H69650   7.828   5.967   2.463  3.3032 -2.8972 -1.5495
  528MOL0     H69651   7.746   5.875   2.587  0.4758  0.8949  0.3285
  528MOL0     H69652   7.996   5.883   2.714  2.5766  0.9586 -1.9461
  528MOL0     H69653   8.046   5.935   2.554  0.8481  0.0473  1.6745
  528MOL0     H69654   8.085   5.703   2.603 -0.4906  0.6694  3.0010
  528MOL0     H69655   7.912   5.675   2.627 -1.1031  1.4861  0.3622
  528MOL0     H69656   8.008   5.585   2.402  3.0932  0.6371 -1.5775
  528MOL0     H69657   8.033   5.755   2.349  0.8599 -1.8002 -2.1859
  528MOL0     H69658   7.847   5.462   2.460 -1.0038 -1.7798 -0.8387
  528MOL0     H69659   7.642   5.347   2.538 -1.4499  0.0057 -0.1002
  528MOL0     H69660   7.340   5.397   2.899  0.3063 -0.0347  0.1522
  528MOL0     H69661   7.143   5.316   3.006 -1.7483  3.5836 -1.0952
  528MOL0     H69662   6.909   5.300   3.052  1.5419 -0.0826 -0.2814
  528MOL0     H69663   6.971   5.142   3.080 -0.2897 -0.7245  0.4191
  528MOL0     H69664   6.742   5.136   3.150  0.0921 -1.2875 -0.0797
  528MOL0     H69665   6.731   5.071   2.995 -0.4348  0.5454  2.0756
  528MOL0     H69666   6.562   5.227   2.954 -0.9304  0.7844  0.6326
  528MOL0     H69667   6.708   5.330   2.925 -1.6103 -2.1450 -3.4962
  528MOL0     H69668   6.683   5.396   3.172 -0.5664  0.0890 -0.1391
  528MOL0     H69669   6.547   5.437   3.074  1.3946  0.3581 -0.1711
  528MOL0     H69670   6.553   5.206   3.281  0.3077  1.6364  0.9864
  528MOL0     H69671   6.443   5.207   3.139 -0.4485  0.6288  0.4957
  528MOL0     H69672   6.325   5.398   3.220 -1.4555 -2.7942  0.2346
  528MOL0     H69673   6.468   5.448   3.320  0.4868  0.7429 -0.4657
  528MOL0     H69674   6.278   5.216   3.351  2.4533  0.2472 -2.7782
  528MOL0     H69675   6.402   5.248   3.475 -0.1277  0.3357  0.0363
  528MOL0     H69676   6.182   5.337   3.550 -1.0337 -1.2320 -2.3578
  528MOL0     H69677   6.179   5.435   3.395  1.5278  1.5381 -0.0071
  528MOL0     H69678   7.004   5.136   2.637  0.1670  0.4137  0.4406
  528MOL0     H69679   7.204   5.227   2.524 -1.2862 -1.6717 -0.8025
  528MOL0     H69680   7.409   5.695   2.434  0.3815  0.2191  0.3729
  528MOL0     H69681   7.628   5.806   2.347  3.0897 -0.2481 -0.4207
  528MOL0     H69682   8.430   7.051   3.165  0.7862 -1.6526 -1.0172
  528MOL0     H69683   8.609   7.148   3.318 -0.7968  1.8021  0.1705
  528MOL0     H69684   8.761   7.618   3.414 -0.3108 -0.1750 -0.3202
  528MOL0     H69685   8.922   7.743   3.551  2.2289  0.5662 -1.3953
  528MOL0     H69686   9.120   7.838   3.550  0.8795  0.1831 -0.3407
  528MOL0     H69687   9.284   7.820   3.617 -0.1585  2.2823  1.3527
  528MOL0     H69688   9.096   7.958   3.747  2.1102 -0.0059 -1.1441
  528MOL0     H69689   9.034   7.804   3.801  0.4333 -1.0375  0.6184
  528MOL0     H69690   9.315   7.916   3.844  0.9921 -1.2046  1.0153
  528MOL0     H69691   9.283   7.748   3.873 -1.4200 -0.9454 -0.7812
  528MOL0     H69692   9.242   7.949   4.065  0.9157 -2.1113 -0.2978
  528MOL0     H69693   9.093   7.974   3.977  1.6739  0.6068 -2.1756
  528MOL0     H69694   9.006   7.596   4.152 -1.6187  0.7505  1.7359
  528MOL0     H69695   9.208   7.425   3.503  0.7915  0.7695 -0.5838
  528MOL0     H69696   9.086   7.320   3.332  0.9216 -0.3331  0.6963
  529MOL0     O69697   1.649   6.295   4.996 -0.1618 -0.1095  0.5207
  529MOL0     C69698   1.634   6.401   5.053  1.1231  0.5749 -0.9461
  529MOL0     O69699   1.519   6.476   5.038  0.1855 -0.2651 -0.3968
  529MOL0     C69700   1.408   6.428   4.972  0.8246  0.0441  0.7942
  529MOL0     C69701   1.379   6.499   4.861 -0.0656  0.4530  0.1059
  529MOL0     C69702   1.271   6.452   4.777  0.1655 -0.5332 -0.1337
  529MOL0     C69703   1.202   6.337   4.807  0.4869  0.1742 -0.3214
  529MOL0     O69704   1.086   6.307   4.750  0.1569 -0.3333 -0.0201
  529MOL0     C69705   1.075   6.338   4.608 -0.3296 -0.6131 -0.0957
  529MOL0     C69706   0.977   6.247   4.552 -0.4861  0.7990  0.3319
  529MOL0     C69707   1.023   6.099   4.536 -0.3327  0.4832 -0.0393
  529MOL0     C69708   0.905   6.014   4.478 -0.7852  0.2124  0.8335
  529MOL0     C69709   0.954   5.871   4.441  0.0678  0.6384 -0.5019
  529MOL0     C69710   1.011   5.777   4.553 -0.4091  0.1446 -0.3253
  529MOL0     C69711   0.909   5.739   4.657  0.6485  1.0517  0.0637
  529MOL0     C69712   0.828   5.618   4.608  0.0732 -0.0054 -0.3077
  529MOL0     N69713   0.711   5.584   4.696  0.0824  0.2131 -0.1454
  529MOL0     C69714   0.686   5.464   4.772  0.6725  0.1520  0.5570
  529MOL0     C69715   0.555   5.475   4.805  0.1346  1.1683 -0.0721
  529MOL0     C69716   0.477   5.376   4.888 -0.9059  0.2994  0.4043
  529MOL0     C69717   0.331   5.376   4.857  0.3588 -0.6827 -0.0603
  529MOL0     C69718   0.250   5.360   4.988 -0.1965 -0.2735  0.0120
  529MOL0     C69719   0.102   5.359   4.968 -0.0013 -0.3461  0.0969
  529MOL0     O69720   0.025   5.401   5.087  0.0047  0.3132  0.8563
  529MOL0     C69721  -0.111   5.394   5.081 -0.2837 -0.1674  0.0874
  529MOL0     C69722  -0.186   5.490   5.150  0.1929 -0.0609 -0.0511
  529MOL0     C69723  -0.328   5.484   5.151  0.1187  0.1922 -0.7095
  529MOL0     C69724  -0.397   5.381   5.087  0.3025 -0.8414  0.8636
  529MOL0     C69725  -0.544   5.381   5.089 -0.2593  0.1372  0.5682
  529MOL0     O69726  -0.599   5.508   5.122 -0.4247  0.2401  0.9406
  529MOL0     C69727  -0.731   5.540   5.113  0.2084 -0.6037  0.1441
  529MOL0     C69728  -0.817   5.478   5.022 -0.3168  0.5894  0.2155
  529MOL0     C69729  -0.956   5.507   5.020 -0.5808 -0.7313 -0.4693
  529MOL0     C69730  -1.006   5.601   5.096  0.3553 -0.2943 -0.6013
  529MOL0     O69731  -1.141   5.641   5.102 -0.7835  0.1324 -0.2889
  529MOL0     C69732  -1.239   5.564   5.032  0.0214  0.6865  0.1096
  529MOL0     C69733  -1.364   5.618   5.083  0.0748 -0.9035 -0.4286
  529MOL0     C69734  -1.388   5.751   5.014  0.4706  0.0650 -0.3747
  529MOL0     C69735  -1.533   5.784   5.014  0.0180 -0.2344 -0.9538
  529MOL0     C69736  -1.565   5.895   4.916  0.0768  0.8100  0.2061
  529MOL0     C69737  -1.706   5.959   4.961  0.6097  0.3428 -0.1370
  529MOL0     C69738  -1.826   5.868   4.934  0.5551 -0.1836  0.4618
  529MOL0     C69739  -1.963   5.939   4.961 -0.0932 -0.8532 -0.0962
  529MOL0    Cl69740  -1.963   5.995   5.129 -0.2678 -0.1314 -0.5406
  529MOL0     C69741  -0.926   5.668   5.191  0.8018 -0.1269 -0.2315
  529MOL0     C69742  -0.788   5.639   5.194 -0.0150  0.4647  0.3795
  529MOL0     O69743  -0.600   5.272   5.086  0.3373 -0.1188  0.5768
  529MOL0     C69744  -0.321   5.286   5.016  0.2916 -0.1634  0.2806
  529MOL0     C69745  -0.179   5.295   5.006  0.0366  0.2008  0.8074
  529MOL0     N69746   0.510   5.593   4.754 -0.0800 -0.6664 -0.3522
  529MOL0     N69747   0.601   5.657   4.685 -0.3126 -0.2199 -0.2087
  529MOL0     C69748   1.242   6.263   4.924  0.1354 -0.1175  0.3243
  529MOL0     C69749   1.350   6.307   5.006 -0.0194  0.2679 -0.3178
  529MOL0     C69750   1.739   6.456   5.147 -0.7604  0.5740  0.6855
  529MOL0     C69751   1.871   6.412   5.160  0.4044 -0.5350  0.4714
  529MOL0     C69752   1.959   6.465   5.248  0.3830 -0.3290  0.2656
  529MOL0     C69753   1.933   6.583   5.322 -0.0270 -0.1370  0.6856
  529MOL0     O69754   2.020   6.652   5.402 -0.1154  0.2296 -0.3398
  529MOL0     C69755   2.158   6.658   5.363  1.0694  1.0386 -0.3883
  529MOL0     C69756   2.249   6.576   5.457  1.0107 -0.2676 -0.5400
  529MOL0     C69757   2.288   6.653   5.587  0.1024  0.3676  0.3933
  529MOL0     C69758   2.373   6.574   5.700 -0.6161  0.5880 -0.0061
  529MOL0     C69759   2.446   6.675   5.786  0.8542  0.7945 -0.3331
  529MOL0     C69760   2.497   6.767   5.848 -0.0123  0.1030  0.5756
  529MOL0     C69761   1.796   6.628   5.314 -0.2729 -0.6083 -0.7189
  529MOL0     C69762   1.704   6.564   5.232 -0.6372 -0.4042  0.2898
  529MOL0     H69763   1.422   6.596   4.838 -0.3865  0.3941 -0.7591
  529MOL0     H69764   1.237   6.496   4.684 -2.6993 -2.5433 -0.1674
  529MOL0     H69765   1.170   6.311   4.560 -1.6118 -2.4747 -1.7324
  529MOL0     H69766   1.048   6.442   4.592  1.7097 -0.1843 -1.0554
  529MOL0     H69767   0.954   6.276   4.449 -0.8609 -1.4311 -0.2691
  529MOL0     H69768   0.877   6.234   4.595 -1.5228 -2.0534 -2.4604
  529MOL0     H69769   1.052   6.057   4.633 -0.2407  1.2489  0.2655
  529MOL0     H69770   1.110   6.100   4.470  0.3579  1.0713  0.8525
  529MOL0     H69771   0.817   6.008   4.543  0.1981 -0.2517  2.1743
  529MOL0     H69772   0.864   6.068   4.392 -0.6326  2.1968  1.9416
  529MOL0     H69773   1.032   5.878   4.364 -0.0662 -2.0988 -0.9855
  529MOL0     H69774   0.866   5.827   4.393 -3.3336  1.9727  3.8108
  529MOL0     H69775   1.090   5.833   4.604 -2.4121  1.1275  1.8895
  529MOL0     H69776   1.053   5.691   4.500 -3.0753 -1.7548  0.4474
  529MOL0     H69777   0.963   5.703   4.745  0.5295 -2.3266 -1.0983
  529MOL0     H69778   0.843   5.824   4.677  1.3588  0.8371  3.9325
  529MOL0     H69779   0.906   5.542   4.607  1.1562  1.0772 -1.0983
  529MOL0     H69780   0.806   5.621   4.500  0.8774 -1.1286 -0.5232
  529MOL0     H69781   0.756   5.382   4.785 -2.3550 -2.9311 -0.9656
  529MOL0     H69782   0.482   5.418   4.989  1.8701 -0.6116  0.7379
  529MOL0     H69783   0.512   5.273   4.881  2.3334  1.3614 -1.0219
  529MOL0     H69784   0.305   5.301   4.782 -0.7196 -0.1930 -0.2017
  529MOL0     H69785   0.307   5.473   4.812  5.7807  0.6488 -0.7804
  529MOL0     H69786   0.284   5.272   5.043 -2.0420 -0.8249  0.3331
  529MOL0     H69787   0.291   5.442   5.047  2.6962 -1.0883 -0.6699
  529MOL0     H69788   0.080   5.256   4.939  1.0293 -0.8820  1.1181
  529MOL0     H69789   0.077   5.427   4.886 -1.0599 -0.4044  0.3540
  529MOL0     H69790  -0.150   5.578   5.202  0.8021  0.5024 -1.3833
  529MOL0     H69791  -0.373   5.568   5.203  5.6177  2.6066  0.9362
  529MOL0     H69792  -0.780   5.397   4.960  1.7959 -1.8247  4.2316
  529MOL0     H69793  -1.021   5.458   4.949  0.4666 -1.7929 -0.7347
  529MOL0     H69794  -1.234   5.459   5.062 -2.8139  0.0079 -1.4861
  529MOL0     H69795  -1.238   5.574   4.924  0.5308 -1.5600 -0.1380
  529MOL0     H69796  -1.342   5.628   5.190  0.5427 -0.2744 -0.5775
  529MOL0     H69797  -1.453   5.560   5.056 -2.4030  3.4896 -2.8456
  529MOL0     H69798  -1.360   5.745   4.908 -2.4310  0.8435 -1.2650
  529MOL0     H69799  -1.328   5.824   5.071 -0.8077 -0.6975  2.0619
  529MOL0     H69800  -1.600   5.701   4.988 -2.4951  1.8000 -1.3599
  529MOL0     H69801  -1.548   5.812   5.119  1.4672  0.1737 -0.8286
  529MOL0     H69802  -1.582   5.854   4.816  1.3532 -1.7343  0.9410
  529MOL0     H69803  -1.489   5.974   4.916  0.4684  0.4830 -2.0919
  529MOL0     H69804  -1.722   6.056   4.914  1.1614 -0.1405 -1.3665
  529MOL0     H69805  -1.700   5.972   5.070 -1.7281 -0.2346  0.1036
  529MOL0     H69806  -1.828   5.824   4.834  1.2350  0.8944 -0.0374
  529MOL0     H69807  -1.823   5.779   4.998 -0.5791 -1.2870 -0.9488
  529MOL0     H69808  -2.053   5.882   4.936 -1.3585  1.0795 -0.2071
  529MOL0     H69809  -1.962   6.026   4.895  1.9520  0.1782  1.2127
  529MOL0     H69810  -0.977   5.744   5.249  1.2010 -0.8496  1.1209
  529MOL0     H69811  -0.738   5.697   5.271 -0.4997  2.5590 -0.8020
  529MOL0     H69812  -0.377   5.210   4.963  0.1107  0.8176 -0.9726
  529MOL0     H69813  -0.127   5.217   4.952 -3.2838 -0.8035 -1.2307
  529MOL0     H69814   1.181   6.177   4.950  0.2386 -0.4600 -0.5301
  529MOL0     H69815   1.398   6.249   5.084 -1.4589 -1.7048 -0.7962
  529MOL0     H69816   1.898   6.320   5.107 -0.4730 -1.2213  1.1818
  529MOL0     H69817   2.059   6.426   5.264  0.3032 -0.4123  0.5721
  529MOL0     H69818   2.180   6.765   5.372  0.9914  0.9171  1.6017
  529MOL0     H69819   2.173   6.616   5.263 -0.3939 -0.7458  0.0868
  529MOL0     H69820   2.207   6.481   5.493 -0.1352  0.1508 -0.7624
  529MOL0     H69821   2.346   6.564   5.407  2.6666  4.5782  0.9091
  529MOL0     H69822   2.198   6.696   5.632 -0.9234  0.8092 -1.9353
  529MOL0     H69823   2.347   6.742   5.562 -0.0292  0.3237 -0.0927
  529MOL0     H69824   2.309   6.524   5.773  0.1971 -0.2503  0.1477
  529MOL0     H69825   2.437   6.499   5.654 -2.9090 -1.7445  0.4138
  529MOL0     H69826   2.541   6.843   5.908  1.1553 -1.9372  2.4630
  529MOL0     H69827   1.772   6.723   5.360  1.4153  0.3597 -1.7398
  529MOL0     H69828   1.603   6.602   5.219 -1.1760 -1.5388  1.0717
  530MOL0     O69829   6.299   7.693   3.977  0.7870  0.3037  0.5395
  530MOL0     C69830   6.316   7.613   3.885  1.1968  1.0682  0.4375
  530MOL0     O69831   6.294   7.481   3.899 -0.0482  0.1359  0.1774
  530MOL0     C69832   6.207   7.433   3.987  0.0158 -0.5906 -0.4904
  530MOL0     C69833   6.237   7.307   4.043 -0.6690  0.1591  0.1122
  530MOL0     C69834   6.150   7.241   4.127  0.6817  0.6612 -0.2870
  530MOL0     C69835   6.028   7.299   4.164  0.1448 -0.3923  1.0100
  530MOL0     O69836   5.942   7.231   4.248 -0.5302 -0.0100 -0.0956
  530MOL0     C69837   5.810   7.274   4.256  0.8129  0.0322  0.4643
  530MOL0     C69838   5.727   7.188   4.149  0.2705 -0.6212 -0.2847
  530MOL0     C69839   5.576   7.191   4.177  0.0876  0.2691 -0.0834
  530MOL0     C69840   5.536   7.176   4.330 -0.4087 -0.0014 -0.8415
  530MOL0     C69841   5.391   7.149   4.343 -0.2477 -0.5483  0.4570
  530MOL0     C69842   5.348   7.093   4.476  0.4432 -0.0770  0.3888
  530MOL0     C69843   5.196   7.101   4.513 -0.8683 -0.1416  0.2078
  530MOL0     C69844   5.172   7.066   4.662 -0.0298  0.3538 -0.1111
  530MOL0     N69845   5.038   7.020   4.706  0.0380 -0.3309  0.0599
  530MOL0     C69846   4.918   7.064   4.652 -0.3853  0.4831  0.7035
  530MOL0     C69847   4.823   7.029   4.737 -0.8803  0.2767  0.1208
  530MOL0     C69848   4.689   7.079   4.753  0.5731  0.9377 -0.0521
  530MOL0     C69849   4.611   6.954   4.706  0.1924 -1.1754 -0.3670
  530MOL0     C69850   4.461   6.975   4.734 -0.2299 -0.3089 -0.5328
  530MOL0     C69851   4.373   6.861   4.676 -0.7465 -0.6942 -0.2207
  530MOL0     O69852   4.245   6.889   4.729 -0.4322  0.6566 -0.5144
  530MOL0     C69853   4.132   6.839   4.673 -0.4370 -0.3282 -0.2204
  530MOL0     C69854   4.015   6.897   4.719 -0.1622  1.0827 -1.2289
  530MOL0     C69855   3.891   6.866   4.672  0.0277 -0.6441 -0.1708
  530MOL0     C69856   3.874   6.753   4.590 -1.2741  0.3832  0.8223
  530MOL0     C69857   3.743   6.713   4.544  0.6382  0.7588  0.0999
  530MOL0     O69858   3.730   6.585   4.500  0.6344 -0.8878  0.1649
  530MOL0     C69859   3.600   6.543   4.486  0.4764 -0.7913 -0.1593
  530MOL0     C69860   3.554   6.435   4.572 -0.1144  0.5631  0.2419
  530MOL0     C69861   3.423   6.387   4.556 -0.6856 -0.6335 -0.0667
  530MOL0     C69862   3.342   6.444   4.460 -0.2439 -0.7428  0.0430
  530MOL0     O69863   3.203   6.418   4.460  0.3326  0.3904  0.4041
  530MOL0     C69864   3.161   6.283   4.478 -0.0800 -0.6915 -0.4002
  530MOL0     C69865   3.089   6.231   4.355  0.9713  0.2437 -0.4165
  530MOL0     C69866   2.937   6.219   4.390 -0.3609 -0.3865 -0.5598
  530MOL0     C69867   2.847   6.152   4.272 -0.0306  0.8406  0.0958
  530MOL0     C69868   2.702   6.164   4.321  0.4053  0.4344  1.1116
  530MOL0     C69869   2.621   6.077   4.224 -0.4711 -0.1761  0.7576
  530MOL0     C69870   2.465   6.070   4.241  0.2577 -0.4578 -0.0651
  530MOL0     C69871   2.391   6.037   4.108  0.5249  0.3672 -0.1742
  530MOL0    Cl69872   2.212   6.027   4.146 -0.1976  0.0673  0.0910
  530MOL0     C69873   3.380   6.554   4.379 -0.5811  1.0038 -0.2294
  530MOL0     C69874   3.510   6.598   4.388 -0.6094 -0.2568  0.1899
  530MOL0     O69875   3.653   6.797   4.555  0.0216  0.1577 -0.1855
  530MOL0     C69876   3.992   6.689   4.547  0.2719  1.3734  0.7827
  530MOL0     C69877   4.119   6.734   4.579 -0.3519 -0.3111 -0.1473
  530MOL0     N69878   4.884   6.957   4.844 -0.1774  0.5275  0.4191
  530MOL0     N69879   5.015   6.954   4.820 -0.4084 -0.3538  0.2018
  530MOL0     C69880   5.989   7.424   4.103  0.8824 -0.2997  0.1611
  530MOL0     C69881   6.079   7.486   4.013  0.0721  0.2546  0.6912
  530MOL0     C69882   6.356   7.673   3.755  0.4697 -0.1129 -0.2079
  530MOL0     C69883   6.384   7.811   3.741  0.4079  0.2158  0.0414
  530MOL0     C69884   6.415   7.857   3.613 -0.0090  0.0409  0.6658
  530MOL0     C69885   6.423   7.772   3.501  0.0556  0.0416 -0.0127
  530MOL0     O69886   6.458   7.811   3.376  0.8498 -0.2268  0.2967
  530MOL0     C69887   6.424   7.943   3.337 -0.1957 -0.1139 -0.0937
  530MOL0     C69888   6.476   7.967   3.200  0.2799 -0.7659 -1.0063
  530MOL0     C69889   6.447   8.110   3.149  0.3159  0.2665 -0.0384
  530MOL0     C69890   6.439   8.123   2.998 -0.5624  0.1787 -0.0679
  530MOL0     C69891   6.560   8.068   2.917  0.4933  0.1675 -0.4744
  530MOL0     C69892   6.661   8.008   2.885  0.2120  0.0727  0.5238
  530MOL0     C69893   6.408   7.636   3.528  0.0618 -0.3929 -0.4284
  530MOL0     C69894   6.378   7.585   3.647  0.5340 -0.7505 -0.0609
  530MOL0     H69895   6.331   7.259   4.018 -1.4416 -0.8523 -0.9602
  530MOL0     H69896   6.164   7.145   4.174 -2.6292 -0.5042 -1.3955
  530MOL0     H69897   5.792   7.380   4.237 -2.3186 -0.1728  1.6828
  530MOL0     H69898   5.769   7.265   4.357 -3.8981  0.0771 -1.1884
  530MOL0     H69899   5.762   7.087   4.171 -1.9349 -1.5955 -0.9798
  530MOL0     H69900   5.757   7.217   4.049 -0.1772  2.1955  0.3029
  530MOL0     H69901   5.548   7.104   4.116  0.0923 -1.0312  1.6901
  530MOL0     H69902   5.519   7.275   4.136 -0.3217 -0.0719 -0.2222
  530MOL0     H69903   5.595   7.092   4.369  0.0568  0.8737  0.4099
  530MOL0     H69904   5.563   7.265   4.387 -0.1456  1.9133 -3.7678
  530MOL0     H69905   5.358   7.085   4.261  4.1708  0.5426 -2.5857
  530MOL0     H69906   5.336   7.242   4.332  0.4359  0.0941  2.1301
  530MOL0     H69907   5.394   7.156   4.553  1.3007  2.1604 -1.8271
  530MOL0     H69908   5.382   6.990   4.487  4.6635  1.2463  1.3930
  530MOL0     H69909   5.189   7.209   4.493  3.6334  0.2742 -0.3261
  530MOL0     H69910   5.125   7.048   4.449 -0.2541 -1.6801  0.7582
  530MOL0     H69911   5.202   7.158   4.713 -1.7118  0.1070  1.4537
  530MOL0     H69912   5.243   6.990   4.694  0.1828  0.0533 -1.2587
  530MOL0     H69913   4.907   7.121   4.560  0.4372 -0.0763  0.2416
  530MOL0     H69914   4.668   7.169   4.694  0.7469  0.0581 -1.5068
  530MOL0     H69915   4.674   7.088   4.861 -0.8134  1.0593 -0.2374
  530MOL0     H69916   4.644   6.877   4.777 -0.2100  0.5099  1.7348
  530MOL0     H69917   4.618   6.931   4.599 -1.0913 -4.4170  0.1128
  530MOL0     H69918   4.456   6.991   4.842  1.2174  0.9889 -0.6340
  530MOL0     H69919   4.424   7.064   4.681 -2.2254  0.6434  2.2185
  530MOL0     H69920   4.401   6.761   4.710 -1.3241 -0.0558  2.3044
  530MOL0     H69921   4.385   6.855   4.567 -1.2718 -0.1537 -0.3087
  530MOL0     H69922   4.013   6.975   4.795 -0.9006 -0.5716  0.5495
  530MOL0     H69923   3.807   6.924   4.710  1.3213  2.0781 -1.2023
  530MOL0     H69924   3.616   6.388   4.648  0.0586  1.1150  0.4426
  530MOL0     H69925   3.384   6.310   4.622 -0.5631 -2.2885 -1.8463
  530MOL0     H69926   3.095   6.282   4.565  2.5645  0.0593  1.7691
  530MOL0     H69927   3.249   6.227   4.510  0.1038 -0.2762 -0.1596
  530MOL0     H69928   3.138   6.137   4.330  1.5923  0.4864 -0.1504
  530MOL0     H69929   3.091   6.301   4.271 -0.3367  1.0349  0.1878
  530MOL0     H69930   2.903   6.322   4.407  2.5002  0.6490 -0.5275
  530MOL0     H69931   2.925   6.173   4.488  4.9563  0.3830  0.7583
  530MOL0     H69932   2.855   6.203   4.176  5.3759 -0.5743 -0.4744
  530MOL0     H69933   2.875   6.050   4.249 -2.3693  0.5010 -1.6212
  530MOL0     H69934   2.691   6.272   4.331  0.2922  0.3314  2.3477
  530MOL0     H69935   2.685   6.114   4.417 -4.8999 -2.0505 -0.7383
  530MOL0     H69936   2.664   5.976   4.221  1.9311  0.7994 -0.7028
  530MOL0     H69937   2.630   6.114   4.121 -2.7139 -0.8302  0.2736
  530MOL0     H69938   2.448   6.000   4.323 -1.7041  1.4874  1.2767
  530MOL0     H69939   2.424   6.162   4.283  1.3344  0.1123 -0.2211
  530MOL0     H69940   2.431   5.947   4.061 -0.7802 -0.0809 -0.4838
  530MOL0     H69941   2.417   6.125   4.049  4.0825 -1.1801 -1.1275
  530MOL0     H69942   3.308   6.595   4.309 -1.8781  1.2187  1.1802
  530MOL0     H69943   3.557   6.679   4.333  1.3230 -1.5519 -0.1553
  530MOL0     H69944   3.989   6.599   4.487  1.4705  0.8447  1.4901
  530MOL0     H69945   4.210   6.683   4.549  2.0038  2.3283  1.9641
  530MOL0     H69946   5.897   7.478   4.120  2.2274  1.3214  2.8846
  530MOL0     H69947   6.056   7.575   3.957  3.1903  0.0117 -1.2529
  530MOL0     H69948   6.377   7.880   3.824  1.1268  2.1963 -1.4647
  530MOL0     H69949   6.433   7.964   3.610  1.3706 -0.1911  0.1794
  530MOL0     H69950   6.468   8.011   3.409  0.9794 -2.8575  1.9596
  530MOL0     H69951   6.317   7.963   3.335  0.1697  2.2817  1.0249
  530MOL0     H69952   6.582   7.944   3.191  1.1088  1.8005  1.0544
  530MOL0     H69953   6.414   7.902   3.137 -1.1336  0.0407 -0.5020
  530MOL0     H69954   6.527   8.172   3.189  1.6252 -1.8392  0.7578
  530MOL0     H69955   6.355   8.145   3.196 -0.6206 -3.0409  0.8516
  530MOL0     H69956   6.342   8.085   2.967 -0.8243  0.3442  0.5459
  530MOL0     H69957   6.425   8.227   2.966  1.1571  0.8620  1.2184
  530MOL0     H69958   6.752   7.960   2.856 -0.3525  0.4752 -2.1425
  530MOL0     H69959   6.412   7.564   3.446  0.0189 -0.2633 -0.5445
  530MOL0     H69960   6.370   7.478   3.665  0.6376 -0.5852  1.0173
  531MOL0     O69961   4.127   7.469   7.496 -0.0261  0.0427 -0.9838
  531MOL0     C69962   4.198   7.395   7.422  0.1799 -0.1948  0.0572
  531MOL0     O69963   4.152   7.301   7.329 -0.3698  0.1763  0.0854
  531MOL0     C69964   4.017   7.274   7.309  0.1249  0.7157 -0.1412
  531MOL0     C69965   3.908   7.364   7.332  0.7757 -0.5020 -0.1290
  531MOL0     C69966   3.777   7.320   7.310  0.2606  0.8708 -0.1214
  531MOL0     C69967   3.744   7.187   7.259 -0.3143 -0.3046 -0.1031
  531MOL0     O69968   3.617   7.166   7.231 -0.1683  0.7898 -0.0167
  531MOL0     C69969   3.563   7.032   7.249  0.6940 -0.0440  0.5394
  531MOL0     C69970   3.410   7.055   7.249  0.6090 -0.6652 -0.1094
  531MOL0     C69971   3.342   6.920   7.277 -0.0895 -0.5685  0.4269
  531MOL0     C69972   3.192   6.936   7.296 -0.0763 -0.3202 -0.0426
  531MOL0     C69973   3.132   6.795   7.330 -0.4599  0.2091  0.3567
  531MOL0     C69974   2.976   6.789   7.342 -0.3592 -0.8555  0.6605
  531MOL0     C69975   2.916   6.658   7.394 -1.2139  0.0664  0.7545
  531MOL0     C69976   2.767   6.650   7.419 -0.1709 -0.0213  0.5710
  531MOL0     N69977   2.729   6.517   7.468 -0.4522 -0.0178  0.2969
  531MOL0     C69978   2.596   6.486   7.474 -0.4946 -0.3555  0.7958
  531MOL0     C69979   2.585   6.351   7.473 -0.8817 -0.1067 -0.2576
  531MOL0     C69980   2.461   6.284   7.480 -0.2059  0.1851 -0.0648
  531MOL0     C69981   2.445   6.206   7.611 -0.2226 -0.0617 -0.0930
  531MOL0     C69982   2.478   6.266   7.736  0.3650 -0.4366  0.6253
  531MOL0     C69983   2.364   6.352   7.794  0.2455  0.3762  0.9494
  531MOL0     O69984   2.268   6.267   7.855 -0.4317 -0.2620  1.4322
  531MOL0     C69985   2.143   6.280   7.807  0.2467  0.1697 -0.2039
  531MOL0     C69986   2.072   6.183   7.741 -0.6471  0.6489  0.4956
  531MOL0     C69987   1.942   6.193   7.706  0.3014 -0.0458  0.1604
  531MOL0     C69988   1.873   6.306   7.743  0.7563 -0.0293 -0.9899
  531MOL0     C69989   1.729   6.313   7.694 -0.3826 -0.0382 -0.0407
  531MOL0     O69990   1.667   6.196   7.669 -0.5265  0.1393 -0.2582
  531MOL0     C69991   1.529   6.198   7.661 -0.2404 -1.2795  0.4458
  531MOL0     C69992   1.436   6.287   7.706  0.0537 -0.1356  0.6036
  531MOL0     C69993   1.305   6.263   7.672  0.1631  0.0125  0.3168
  531MOL0     C69994   1.265   6.159   7.597 -0.1471  0.2791  0.1557
  531MOL0     O69995   1.133   6.157   7.570 -0.0532  0.6553  0.1033
  531MOL0     C69996   1.064   6.030   7.518 -0.8095 -0.2132 -0.5566
  531MOL0     C69997   0.912   6.038   7.516  0.4092 -0.8047 -0.7359
  531MOL0     C69998   0.847   5.916   7.442 -0.3496  0.6303 -0.5942
  531MOL0     C69999   0.710   5.955   7.379 -0.2856 -0.3640 -0.7464
  531MOL0     C70000   0.654   5.870   7.265  0.6220  0.5255 -0.1622
  531MOL0     C70001   0.505   5.895   7.254  0.4744  0.3350 -0.0991
  531MOL0     C70002   0.469   6.038   7.205  0.2090 -0.2717  0.9628
  531MOL0     C70003   0.320   6.050   7.178 -0.3183  0.2846  0.2681
  531MOL0    Cl70004   0.281   5.957   7.022  0.1668 -0.0082  0.0432
  531MOL0     C70005   1.364   6.066   7.559  0.4488  0.3452 -0.3803
  531MOL0     C70006   1.493   6.087   7.587  0.0291  0.2649  0.1695
  531MOL0     O70007   1.679   6.425   7.683 -0.7848 -0.9968  0.4405
  531MOL0     C70008   1.938   6.415   7.814 -0.0160 -1.0307  0.5483
  531MOL0     C70009   2.073   6.396   7.847  0.2785 -0.2046  0.1547
  531MOL0     N70010   2.721   6.306   7.466 -0.2065  0.0124 -1.3085
  531MOL0     N70011   2.803   6.406   7.463 -1.0504 -0.0691 -0.1471
  531MOL0     C70012   3.850   7.097   7.233 -0.5217 -0.3840  0.6906
  531MOL0     C70013   3.977   7.145   7.262  0.0607 -0.3763 -0.1508
  531MOL0     C70014   4.342   7.432   7.435 -0.2185 -0.4243 -0.2340
  531MOL0     C70015   4.398   7.511   7.535  0.5472  0.1312 -0.6956
  531MOL0     C70016   4.536   7.543   7.536  0.2767  0.5954  0.2445
  531MOL0     C70017   4.626   7.491   7.436 -1.0467  0.3381  0.7016
  531MOL0     O70018   4.765   7.513   7.436  0.3858  0.3676  0.6927
  531MOL0     C70019   4.801   7.637   7.499 -0.0652 -0.2313  0.2937
  531MOL0     C70020   4.950   7.668   7.486 -0.3976 -0.7957 -0.3844
  531MOL0     C70021   4.982   7.812   7.509  0.0262  0.1266 -0.2881
  531MOL0     C70022   4.989   7.850   7.655  1.2599 -0.1312  0.1933
  531MOL0     C70023   5.071   7.970   7.678  0.9271 -0.8905  0.1919
  531MOL0     C70024   5.127   8.071   7.716  0.1004  0.4267 -0.2058
  531MOL0     C70025   4.570   7.410   7.348  0.0917  0.0583  0.3235
  531MOL0     C70026   4.436   7.380   7.341  0.0213 -0.1330  0.6464
  531MOL0     H70027   3.928   7.462   7.374  1.2311 -1.6912  2.6234
  531MOL0     H70028   3.699   7.384   7.351 -0.0964  0.6051 -0.3790
  531MOL0     H70029   3.606   6.981   7.336  1.2837 -2.1901 -0.9304
  531MOL0     H70030   3.599   6.970   7.166 -1.1500  0.7241 -0.8911
  531MOL0     H70031   3.380   7.103   7.156  0.0574 -1.5610 -0.4011
  531MOL0     H70032   3.380   7.132   7.321 -2.8016 -0.2825 -1.7699
  531MOL0     H70033   3.390   6.883   7.369  2.0195 -1.1985 -0.8725
  531MOL0     H70034   3.358   6.850   7.195  1.1856 -0.8031  0.8552
  531MOL0     H70035   3.167   7.013   7.370  1.1033  1.0715 -1.0209
  531MOL0     H70036   3.162   6.965   7.195  4.2756 -5.5699 -3.3790
  531MOL0     H70037   3.165   6.769   7.431  1.4460 -0.2096 -0.3310
  531MOL0     H70038   3.172   6.726   7.254 -2.5477 -1.3304  0.5780
  531MOL0     H70039   2.947   6.805   7.237 -2.8291 -2.1903  1.0839
  531MOL0     H70040   2.940   6.869   7.406 -0.8902 -0.6005  0.0595
  531MOL0     H70041   2.931   6.586   7.313  1.5198  1.9496 -0.5802
  531MOL0     H70042   2.969   6.625   7.484 -0.2184 -0.6687 -0.0774
  531MOL0     H70043   2.725   6.673   7.321  2.1787  0.7091 -0.3369
  531MOL0     H70044   2.729   6.723   7.491 -0.2584 -1.3822  1.9497
  531MOL0     H70045   2.510   6.550   7.460 -0.3887 -0.8350 -3.6814
  531MOL0     H70046   2.461   6.218   7.393  3.0944 -3.0829  2.1163
  531MOL0     H70047   2.377   6.355   7.488  0.0580  0.6205 -1.0938
  531MOL0     H70048   2.507   6.116   7.598 -2.0481 -1.4338  0.1907
  531MOL0     H70049   2.346   6.164   7.629 -0.1916  1.0141  3.2011
  531MOL0     H70050   2.507   6.187   7.806  1.3450 -2.2257 -1.6981
  531MOL0     H70051   2.569   6.327   7.727  0.3807 -0.6285 -0.6526
  531MOL0     H70052   2.317   6.414   7.717  1.2891  1.4103  1.1162
  531MOL0     H70053   2.387   6.421   7.877 -1.2912 -0.3589  2.0399
  531MOL0     H70054   2.130   6.095   7.714  1.5741  0.6774  4.4172
  531MOL0     H70055   1.905   6.118   7.637 -0.4704 -0.5440  1.0999
  531MOL0     H70056   1.465   6.373   7.766  1.1027  0.5771 -0.8470
  531MOL0     H70057   1.226   6.328   7.709  0.9977 -0.2197  2.6431
  531MOL0     H70058   1.104   5.952   7.584  1.3315  0.2551 -1.2321
  531MOL0     H70059   1.096   6.002   7.418 -0.4861  2.1707 -1.1629
  531MOL0     H70060   0.876   6.130   7.470 -1.0525 -0.8657  0.2518
  531MOL0     H70061   0.877   6.049   7.619  1.6628  0.2021 -0.3939
  531MOL0     H70062   0.827   5.836   7.514 -1.2039  1.8316  0.5724
  531MOL0     H70063   0.918   5.893   7.362 -0.1837  1.2053 -0.6170
  531MOL0     H70064   0.644   5.960   7.466 -0.2097 -0.5239 -0.6789
  531MOL0     H70065   0.722   6.054   7.335  2.4067  0.1522  0.9328
  531MOL0     H70066   0.669   5.766   7.295  0.7502 -0.6183 -3.7035
  531MOL0     H70067   0.708   5.889   7.172  3.4401 -2.3453  0.7159
  531MOL0     H70068   0.446   5.866   7.341 -0.5076  1.6237 -0.3159
  531MOL0     H70069   0.464   5.830   7.175  0.8578  2.0021 -1.7252
  531MOL0     H70070   0.502   6.112   7.278  0.4778  1.2316 -0.6071
  531MOL0     H70071   0.522   6.068   7.114 -1.1508  0.5004  0.3881
  531MOL0     H70072   0.282   6.150   7.152 -4.0278 -0.9682  0.1973
  531MOL0     H70073   0.249   6.020   7.256 -0.7178  1.7501  0.5137
  531MOL0     H70074   1.334   5.984   7.495  4.4709 -0.5355 -1.4117
  531MOL0     H70075   1.572   6.018   7.556 -1.9765 -2.7226  1.3015
  531MOL0     H70076   1.881   6.507   7.822  0.0789 -1.0404  1.5116
  531MOL0     H70077   2.125   6.471   7.905 -1.4126  0.4720  0.8360
  531MOL0     H70078   3.828   7.000   7.189  0.1739 -0.3365  0.2263
  531MOL0     H70079   4.051   7.072   7.232 -2.6664 -2.5823 -1.9928
  531MOL0     H70080   4.333   7.540   7.616  0.4071 -1.4390 -0.2039
  531MOL0     H70081   4.584   7.596   7.618 -0.0687  1.2450  0.0244
  531MOL0     H70082   4.775   7.625   7.605  1.0436 -2.9214  0.3317
  531MOL0     H70083   4.747   7.724   7.459 -2.0003 -2.1785 -1.6126
  531MOL0     H70084   5.009   7.614   7.561  0.0160  1.5946  1.0848
  531MOL0     H70085   4.996   7.630   7.394  2.9315 -0.9924  1.1876
  531MOL0     H70086   4.922   7.883   7.450 -1.4499  0.8449  1.9723
  531MOL0     H70087   5.083   7.837   7.474  0.1662  2.0063  1.2780
  531MOL0     H70088   4.886   7.863   7.689  0.5583 -2.1504 -0.9703
  531MOL0     H70089   5.030   7.766   7.712  0.9726 -0.4338 -0.0411
  531MOL0     H70090   5.179   8.163   7.732  0.5355 -0.2585  3.0697
  531MOL0     H70091   4.638   7.366   7.275 -1.2800 -0.3337 -0.7747
  531MOL0     H70092   4.401   7.311   7.264  0.3488 -2.0493  2.1256
  532MOL0     O70093   7.146   9.854   6.340  0.7373  0.2537  1.0359
  532MOL0     C70094   7.212   9.953   6.347 -0.2951  0.3697 -0.0242
  532MOL0     O70095   7.164  10.082   6.350  0.6330 -0.0169 -0.2819
  532MOL0     C70096   7.025  10.109   6.356 -0.4319  0.0584  0.2097
  532MOL0     C70097   6.977  10.213   6.279  0.1333 -0.0964 -1.1908
  532MOL0     C70098   6.835  10.242   6.262 -0.9735 -0.0694  0.6394
  532MOL0     C70099   6.750  10.167   6.334  0.1460 -0.2598  0.4503
  532MOL0     O70100   6.618  10.168   6.326 -0.4280 -0.5977  0.2486
  532MOL0     C70101   6.561  10.167   6.190 -0.1405 -0.1626 -0.1458
  532MOL0     C70102   6.412  10.208   6.204 -0.8976  0.1856 -1.0449
  532MOL0     C70103   6.337  10.205   6.069  0.5166  0.7196  0.3769
  532MOL0     C70104   6.195  10.252   6.082  0.8874 -0.3722  0.3612
  532MOL0     C70105   6.110  10.229   5.959 -0.0233  0.1193  0.1386
  532MOL0     C70106   5.963  10.281   5.984  0.1263  0.5961 -0.5147
  532MOL0     C70107   5.893  10.316   5.850 -0.3935  0.1110  0.3728
  532MOL0     C70108   5.889  10.194   5.752  0.6525  0.7017  0.5624
  532MOL0     N70109   5.826  10.070   5.805  0.3400 -0.5344 -0.1696
  532MOL0     C70110   5.692  10.072   5.826 -0.3679 -0.0637 -0.8225
  532MOL0     C70111   5.668   9.953   5.890 -0.2302 -0.2898 -0.6558
  532MOL0     C70112   5.529   9.917   5.924  0.5978  0.2022  0.3711
  532MOL0     C70113   5.517   9.867   6.065  0.2207  0.0846 -0.4560
  532MOL0     C70114   5.370   9.813   6.083 -0.5278 -0.0757  0.3660
  532MOL0     C70115   5.343   9.783   6.234 -0.7757  0.7606  0.4067
  532MOL0     O70116   5.201   9.772   6.238  0.6216 -0.4084  0.2695
  532MOL0     C70117   5.149   9.689   6.340  0.2967  0.1415  0.3573
  532MOL0     C70118   5.006   9.681   6.347 -0.3853 -0.2927 -0.0934
  532MOL0     C70119   4.928   9.608   6.432  0.0372 -0.6054  0.6918
  532MOL0     C70120   4.992   9.528   6.521  0.4969  0.0556 -0.5123
  532MOL0     C70121   4.910   9.438   6.609  0.3665 -0.3008 -0.0841
  532MOL0     O70122   4.781   9.420   6.570 -0.2593  0.0780 -0.1933
  532MOL0     C70123   4.706   9.327   6.634  0.5342  0.3103 -0.4070
  532MOL0     C70124   4.583   9.358   6.683  0.7126 -1.2245 -0.1119
  532MOL0     C70125   4.500   9.276   6.758 -0.2081 -0.9770 -0.3164
  532MOL0     C70126   4.542   9.145   6.790 -0.1293  0.3885 -0.6881
  532MOL0     O70127   4.471   9.056   6.867  0.2991  0.3641  0.1177
  532MOL0     C70128   4.349   9.087   6.935 -0.2309  0.3954  0.1421
  532MOL0     C70129   4.228   9.083   6.835  0.3542 -0.1179 -0.4555
  532MOL0     C70130   4.097   9.078   6.909  0.5650  0.6354 -0.2002
  532MOL0     C70131   3.961   9.069   6.820 -0.0437  0.5631 -0.2533
  532MOL0     C70132   3.942   8.953   6.726  0.0208  0.0927  0.2584
  532MOL0     C70133   3.913   8.821   6.791 -0.0181 -1.1047 -0.2363
  532MOL0     C70134   3.890   8.697   6.709 -0.0882  0.2055 -0.2333
  532MOL0     C70135   3.892   8.581   6.807  0.4187 -0.6677  0.6019
  532MOL0    Cl70136   3.861   8.429   6.718 -0.1081  0.0249  0.0556
  532MOL0     C70137   4.654   9.100   6.721  0.5785  0.5363 -0.5313
  532MOL0     C70138   4.742   9.188   6.649  0.5060 -0.3998 -0.4970
  532MOL0     O70139   4.960   9.404   6.716  0.0407 -0.3613  0.3569
  532MOL0     C70140   5.131   9.534   6.537 -0.3368  0.1882  1.0050
  532MOL0     C70141   5.216   9.611   6.441  0.8349  0.1375 -0.6168
  532MOL0     N70142   5.793   9.878   5.910  0.3368 -0.2166 -0.1221
  532MOL0     N70143   5.882   9.956   5.855  0.8297 -0.1311  0.3961
  532MOL0     C70144   6.793  10.072   6.421 -0.4205  0.7240  0.4807
  532MOL0     C70145   6.926  10.036   6.431 -0.5208 -0.3550  0.3055
  532MOL0     C70146   7.361   9.934   6.326 -0.4269  0.2089  0.2264
  532MOL0     C70147   7.425   9.812   6.361 -0.9068 -0.6017  0.0631
  532MOL0     C70148   7.560   9.798   6.352 -0.0112  0.5835  0.0131
  532MOL0     C70149   7.634   9.901   6.300 -0.6851  0.7418 -0.1514
  532MOL0     O70150   7.770   9.897   6.274 -0.4157 -0.0564  0.2955
  532MOL0     C70151   7.849   9.787   6.310  1.0356 -0.7552 -0.1915
  532MOL0     C70152   7.978   9.796   6.235  0.2453 -0.2119  0.9706
  532MOL0     C70153   8.052   9.661   6.234  0.5932 -0.0459  0.5050
  532MOL0     C70154   8.101   9.631   6.093  0.3696  0.0503 -0.5676
  532MOL0     C70155   8.191   9.734   6.042  0.5874 -0.0115 -0.9223
  532MOL0     C70156   8.259   9.835   6.013 -0.3932 -0.0739  0.6946
  532MOL0     C70157   7.575  10.025   6.268 -0.4691 -0.1777 -0.4608
  532MOL0     C70158   7.434  10.039   6.274  0.0526  0.3387  0.5902
  532MOL0     H70159   7.051  10.260   6.215 -0.7921  1.5403 -1.1132
  532MOL0     H70160   6.805  10.312   6.185 -0.2530  0.3988  0.7736
  532MOL0     H70161   6.588  10.071   6.147  1.1282  0.1471 -0.0651
  532MOL0     H70162   6.599  10.251   6.131 -1.2751  0.3279 -0.1980
  532MOL0     H70163   6.404  10.309   6.245  1.0427 -0.2757  0.6118
  532MOL0     H70164   6.363  10.138   6.272 -0.3897  0.1502 -0.7136
  532MOL0     H70165   6.329  10.105   6.025  2.1221  0.4732  0.5585
  532MOL0     H70166   6.386  10.270   5.996 -1.1488  1.3869 -0.2037
  532MOL0     H70167   6.139  10.209   6.165 -2.4513  0.1424 -1.4355
  532MOL0     H70168   6.190  10.358   6.109 -1.0312 -0.0034 -1.2047
  532MOL0     H70169   6.114  10.122   5.934  1.1895  0.1461  0.1733
  532MOL0     H70170   6.154  10.290   5.880 -1.1091  0.5839 -0.1255
  532MOL0     H70171   5.964  10.373   6.043  0.1616 -0.3002  0.9248
  532MOL0     H70172   5.910  10.210   6.047 -0.3893  0.9039 -0.5891
  532MOL0     H70173   5.790  10.350   5.856 -1.2017 -1.2028 -3.5227
  532MOL0     H70174   5.955  10.385   5.792 -2.1210  0.7257 -0.7882
  532MOL0     H70175   5.986  10.159   5.714  0.2968  1.3757 -1.0363
  532MOL0     H70176   5.824  10.216   5.667  0.5012 -0.0686  0.4737
  532MOL0     H70177   5.622  10.149   5.795 -1.4016 -0.7713 -0.3129
  532MOL0     H70178   5.502   9.846   5.845 -0.2635  4.3076 -3.4433
  532MOL0     H70179   5.466  10.002   5.895  1.1224  1.1978  2.0077
  532MOL0     H70180   5.538   9.950   6.133 -0.4274  0.1999 -0.3976
  532MOL0     H70181   5.597   9.795   6.088 -0.4118 -0.6677 -0.5728
  532MOL0     H70182   5.306   9.892   6.042  0.0985 -0.1361 -0.7506
  532MOL0     H70183   5.343   9.729   6.017  0.9910 -1.1056  1.0067
  532MOL0     H70184   5.366   9.870   6.296 -0.8580  0.5593  0.7213
  532MOL0     H70185   5.393   9.691   6.266 -2.6925 -0.2028  0.8055
  532MOL0     H70186   4.955   9.735   6.268  2.3622 -1.0270 -2.5944
  532MOL0     H70187   4.820   9.598   6.423  0.1477 -2.5015  1.1953
  532MOL0     H70188   4.546   9.459   6.673 -0.8865 -1.5823  1.5141
  532MOL0     H70189   4.411   9.320   6.800  0.5829  0.2072  0.1815
  532MOL0     H70190   4.358   9.186   6.982  1.8200  0.1298  0.4372
  532MOL0     H70191   4.340   9.010   7.011  0.6819  0.0192 -0.1093
  532MOL0     H70192   4.226   8.989   6.778  0.1725 -0.6731  0.4421
  532MOL0     H70193   4.216   9.174   6.775 -2.3110  0.2154  0.4347
  532MOL0     H70194   4.088   9.164   6.975 -1.7044 -0.6206  1.2310
  532MOL0     H70195   4.103   8.987   6.969  1.0109 -0.2772 -1.5594
  532MOL0     H70196   3.875   9.070   6.888  0.5391 -3.1149  0.7383
  532MOL0     H70197   3.956   9.166   6.769  0.5937  2.1569  2.5476
  532MOL0     H70198   4.030   8.940   6.662 -0.2109 -1.9436  0.2772
  532MOL0     H70199   3.855   8.979   6.665 -1.6829  0.5170  2.7387
  532MOL0     H70200   3.821   8.829   6.849  0.5738 -0.5886  0.6718
  532MOL0     H70201   3.993   8.796   6.862 -0.8559 -1.8020  0.4835
  532MOL0     H70202   3.794   8.696   6.656 -0.1740 -0.8173 -0.0821
  532MOL0     H70203   3.971   8.678   6.639  0.1460  0.3987 -0.0166
  532MOL0     H70204   3.810   8.584   6.879 -1.1470 -0.8551 -1.0783
  532MOL0     H70205   3.990   8.568   6.853  0.4961 -2.4001  0.0603
  532MOL0     H70206   4.687   8.997   6.729 -2.6487 -0.4503  3.0339
  532MOL0     H70207   4.842   9.164   6.612 -0.3629 -3.4505 -1.1018
  532MOL0     H70208   5.171   9.477   6.620 -2.3938 -0.1344  1.8340
  532MOL0     H70209   5.322   9.618   6.461  0.4694 -1.8526  2.9999
  532MOL0     H70210   6.729  10.004   6.477 -3.3828 -0.0366 -3.3519
  532MOL0     H70211   6.956   9.951   6.492 -1.8138 -1.6281 -0.7453
  532MOL0     H70212   7.371   9.736   6.416 -1.0406 -0.0412  0.7261
  532MOL0     H70213   7.605   9.703   6.380 -0.4835  0.1893 -0.5428
  532MOL0     H70214   7.793   9.695   6.288 -1.0620  1.0084 -2.8998
  532MOL0     H70215   7.882   9.794   6.414  2.0769  1.4663 -0.6186
  532MOL0     H70216   7.952   9.830   6.135 -1.2315 -1.9774  0.6897
  532MOL0     H70217   8.043   9.866   6.289  0.4577 -0.1573  0.6386
  532MOL0     H70218   7.993   9.577   6.272 -0.8497  1.9886  3.0598
  532MOL0     H70219   8.145   9.678   6.289  0.7954 -0.4938  0.3105
  532MOL0     H70220   8.152   9.535   6.091  1.4037  0.5219  0.7706
  532MOL0     H70221   8.006   9.619   6.040 -0.3471 -0.0131  0.6788
  532MOL0     H70222   8.323   9.920   6.004 -3.4683  2.4402  0.9179
  532MOL0     H70223   7.649  10.103   6.252  0.7400 -1.5306 -1.7881
  532MOL0     H70224   7.385  10.133   6.249 -2.5760 -0.6904  1.4973
  533MOL0     O70225   1.790   6.628   1.477  0.5541 -0.3538  0.4575
  533MOL0     C70226   1.794   6.701   1.370 -0.4929  0.0130 -0.4292
  533MOL0     O70227   1.913   6.753   1.315  0.3132  0.4844 -0.3013
  533MOL0     C70228   2.029   6.726   1.383 -0.1356  0.3185  0.8569
  533MOL0     C70229   2.085   6.592   1.382  0.2027 -0.2387 -0.7112
  533MOL0     C70230   2.191   6.575   1.472  0.7802  0.4904  0.6290
  533MOL0     C70231   2.252   6.680   1.548  0.4895  0.0743  0.0445
  533MOL0     O70232   2.360   6.639   1.623 -0.3096 -0.6080 -0.2609
  533MOL0     C70233   2.374   6.710   1.746  0.6616  0.3171 -0.6325
  533MOL0     C70234   2.492   6.815   1.741  0.3550  0.4943  0.4925
  533MOL0     C70235   2.633   6.765   1.705 -0.3428 -0.9916 -0.0340
  533MOL0     C70236   2.685   6.659   1.805  0.1621  0.4118  0.2254
  533MOL0     C70237   2.845   6.648   1.803 -0.0370 -0.4774 -0.2950
  533MOL0     C70238   2.889   6.526   1.894  0.0157  0.2256 -0.6697
  533MOL0     C70239   3.037   6.509   1.925  0.4895  0.0250 -0.0150
  533MOL0     C70240   3.115   6.550   1.792 -0.3586 -1.1710 -0.8356
  533MOL0     N70241   3.263   6.528   1.793 -0.0218  0.7735  0.4085
  533MOL0     C70242   3.362   6.617   1.830 -0.1769  0.9828  1.7505
  533MOL0     C70243   3.483   6.551   1.824 -0.3179  0.0860 -0.2271
  533MOL0     C70244   3.615   6.622   1.859  0.2006  0.1359  0.1430
  533MOL0     C70245   3.661   6.722   1.752  0.2068  0.3188 -0.0110
  533MOL0     C70246   3.660   6.675   1.609  0.6397  0.4206  0.4237
  533MOL0     C70247   3.733   6.781   1.529 -0.3432  0.3132  0.9649
  533MOL0     O70248   3.671   6.913   1.547  0.5067 -0.0975 -0.2091
  533MOL0     C70249   3.539   6.945   1.496 -0.1897 -0.6059  0.1191
  533MOL0     C70250   3.457   6.859   1.420 -0.2717 -0.3668  0.0530
  533MOL0     C70251   3.322   6.883   1.389  0.1438 -0.6339 -0.0320
  533MOL0     C70252   3.266   7.000   1.441  0.0833 -0.2423 -0.2780
  533MOL0     C70253   3.121   7.031   1.419 -0.0593 -0.2871  0.6354
  533MOL0     O70254   3.055   6.939   1.350 -0.2586  0.6218  0.3775
  533MOL0     C70255   2.932   6.980   1.302 -0.1510  0.4866 -0.4523
  533MOL0     C70256   2.824   6.939   1.382 -0.2125 -0.2407 -0.1978
  533MOL0     C70257   2.696   6.976   1.341 -0.4264  1.2650  0.2100
  533MOL0     C70258   2.664   7.045   1.219  0.4185 -0.7090  0.1629
  533MOL0     O70259   2.545   7.100   1.186 -0.7346  0.5157  0.1714
  533MOL0     C70260   2.450   6.999   1.132  0.3224  0.1224  0.0269
  533MOL0     C70261   2.324   7.053   1.180 -0.0147  0.3200  0.9067
  533MOL0     C70262   2.191   6.978   1.149 -0.3188 -0.1263 -0.0698
  533MOL0     C70263   2.171   6.939   1.005  0.4901 -0.0109  0.7061
  533MOL0     C70264   2.028   6.879   0.996  0.1361  0.5227 -0.5382
  533MOL0     C70265   1.990   6.816   0.857 -0.9218 -0.9969 -0.0246
  533MOL0     C70266   1.835   6.793   0.848  0.4052 -0.8134  0.6250
  533MOL0     C70267   1.754   6.870   0.747 -0.4299 -0.2535 -0.0075
  533MOL0    Cl70268   1.843   6.872   0.584  0.1865  0.1005  0.2878
  533MOL0     C70269   2.777   7.077   1.143 -0.1204  0.2604  0.5840
  533MOL0     C70270   2.908   7.041   1.178  0.7594  0.2745 -0.3674
  533MOL0     O70271   3.076   7.138   1.464  0.3109 -0.3167 -0.3225
  533MOL0     C70272   3.355   7.095   1.511 -0.5382  0.0145 -0.4774
  533MOL0     C70273   3.489   7.064   1.532  0.3073  0.2231  0.0810
  533MOL0     N70274   3.451   6.421   1.784 -0.0186  0.6079  0.0959
  533MOL0     N70275   3.326   6.407   1.772  0.1444  0.1899 -0.0779
  533MOL0     C70276   2.199   6.811   1.534 -0.7169  0.2590 -0.1817
  533MOL0     C70277   2.085   6.831   1.454 -0.5629 -0.8984 -0.6375
  533MOL0     C70278   1.665   6.725   1.300  0.6452 -0.4241  0.4071
  533MOL0     C70279   1.551   6.651   1.347  0.4080 -0.3252 -0.0347
  533MOL0     C70280   1.429   6.673   1.289  0.0391 -0.4147 -0.3231
  533MOL0     C70281   1.415   6.765   1.189 -0.3062  0.0753 -0.7513
  533MOL0     O70282   1.285   6.781   1.136  0.0537 -0.2667  0.3033
  533MOL0     C70283   1.260   6.846   1.006  0.0070  0.5283  0.1809
  533MOL0     C70284   1.222   6.995   1.029  0.9048  0.3249  0.5450
  533MOL0     C70285   1.080   7.020   1.063  0.0285 -0.0810  0.2159
  533MOL0     C70286   0.991   7.015   0.938  0.7804 -0.3761  1.0115
  533MOL0     C70287   0.850   7.044   0.974  0.9083 -0.0289 -0.2124
  533MOL0     C70288   0.735   7.065   0.994  0.7369  0.0163 -0.5090
  533MOL0     C70289   1.518   6.836   1.146  0.2761  0.0729 -0.1625
  533MOL0     C70290   1.646   6.822   1.203 -0.1165  0.5230  0.6607
  533MOL0     H70291   2.047   6.506   1.327  2.0693 -1.7507  0.2497
  533MOL0     H70292   2.225   6.473   1.485 -0.1413  0.1566  0.4707
  533MOL0     H70293   2.395   6.646   1.832  2.7406 -1.3146 -2.2361
  533MOL0     H70294   2.278   6.758   1.766  0.7816  0.0169  0.7585
  533MOL0     H70295   2.486   6.871   1.835  0.3097  1.6732 -0.1823
  533MOL0     H70296   2.473   6.891   1.664  2.6818 -2.3199 -3.1971
  533MOL0     H70297   2.698   6.853   1.703 -3.0767  1.1854 -0.0222
  533MOL0     H70298   2.631   6.717   1.607  2.4542 -0.3726 -0.4707
  533MOL0     H70299   2.664   6.669   1.912  4.5693 -1.0759  1.4533
  533MOL0     H70300   2.645   6.567   1.761 -1.7539  2.6727 -3.2429
  533MOL0     H70301   2.866   6.746   1.848  0.6881 -0.6794 -0.1925
  533MOL0     H70302   2.873   6.633   1.698  0.8495  2.1958 -0.5356
  533MOL0     H70303   2.846   6.434   1.854  2.7088 -0.7219 -1.6025
  533MOL0     H70304   2.849   6.540   1.995  0.8632 -1.5858 -0.0305
  533MOL0     H70305   3.067   6.575   2.006  1.1875  0.2103 -0.4241
  533MOL0     H70306   3.068   6.407   1.951  1.2567  0.0849 -0.6682
  533MOL0     H70307   3.101   6.652   1.756  0.6898 -0.6693  0.1033
  533MOL0     H70308   3.073   6.494   1.708 -1.9145  0.7917 -1.4475
  533MOL0     H70309   3.337   6.717   1.864 -3.5340  1.8678 -2.5290
  533MOL0     H70310   3.694   6.552   1.885 -0.3329 -0.5625 -0.0789
  533MOL0     H70311   3.605   6.676   1.953  3.7930 -1.3165  1.5461
  533MOL0     H70312   3.758   6.763   1.780 -1.1386  2.5936  1.6621
  533MOL0     H70313   3.595   6.808   1.764  1.3166  1.0655  0.8775
  533MOL0     H70314   3.703   6.575   1.601 -0.6006  0.0119 -3.4788
  533MOL0     H70315   3.558   6.669   1.569  0.4048  0.8602  0.9456
  533MOL0     H70316   3.744   6.769   1.421 -1.1567  2.4298  0.5943
  533MOL0     H70317   3.833   6.798   1.569  1.6109  0.4590 -3.4771
  533MOL0     H70318   3.507   6.776   1.371  0.1093  2.4496 -4.8892
  533MOL0     H70319   3.269   6.810   1.330 -2.6449  0.1812  1.2857
  533MOL0     H70320   2.836   6.888   1.477 -0.4246  2.2533  1.2570
  533MOL0     H70321   2.616   6.932   1.400  1.8788 -2.3662  1.0129
  533MOL0     H70322   2.456   6.899   1.177  0.1442  0.5413  1.0069
  533MOL0     H70323   2.452   6.997   1.023 -1.0422 -1.1257  0.0053
  533MOL0     H70324   2.316   7.158   1.151 -2.5979  1.0023  3.5776
  533MOL0     H70325   2.337   7.053   1.289  4.3663  0.8098  0.5373
  533MOL0     H70326   2.108   7.034   1.193 -0.6636 -2.2962  2.2789
  533MOL0     H70327   2.187   6.887   1.210 -3.6731  0.1429  0.2821
  533MOL0     H70328   2.186   7.026   0.940 -0.0906 -0.4283  0.0032
  533MOL0     H70329   2.235   6.856   0.976 -0.7914 -1.8039  2.7195
  533MOL0     H70330   1.955   6.957   1.019  0.6374  0.1705  2.8519
  533MOL0     H70331   2.015   6.801   1.072  0.9873  1.2377  0.3700
  533MOL0     H70332   2.058   6.734   0.831  0.0536  0.5105 -2.6420
  533MOL0     H70333   2.023   6.892   0.785 -1.5067  0.4261  1.1649
  533MOL0     H70334   1.809   6.689   0.826 -1.1559 -0.2694 -0.2482
  533MOL0     H70335   1.790   6.828   0.942 -2.7047 -1.0855 -0.6430
  533MOL0     H70336   1.743   6.974   0.781 -0.6761 -0.0808 -0.5982
  533MOL0     H70337   1.655   6.825   0.736 -0.6644  0.3981 -0.6337
  533MOL0     H70338   2.763   7.145   1.060  0.4476  0.6342  0.7937
  533MOL0     H70339   2.991   7.054   1.110 -0.0260  0.7529 -1.2694
  533MOL0     H70340   3.317   7.185   1.557  1.3673  0.5733  0.1224
  533MOL0     H70341   3.540   7.143   1.586 -2.1244  1.1078  1.2293
  533MOL0     H70342   2.247   6.894   1.586  2.8548 -0.5566 -1.8748
  533MOL0     H70343   2.037   6.928   1.455  0.9775  0.0363 -3.8392
  533MOL0     H70344   1.565   6.565   1.412 -0.5820 -1.5155 -1.3150
  533MOL0     H70345   1.341   6.617   1.318 -2.1157  2.4462 -0.9125
  533MOL0     H70346   1.188   6.783   0.952 -0.7978  1.3155  0.3198
  533MOL0     H70347   1.359   6.843   0.959  1.1098 -5.0865  1.9968
  533MOL0     H70348   1.284   7.023   1.115  1.1362 -0.3027  0.5922
  533MOL0     H70349   1.252   7.057   0.945  1.7031 -0.2257  0.4108
  533MOL0     H70350   1.073   7.118   1.111 -0.0489 -0.0783  0.1993
  533MOL0     H70351   1.055   6.938   1.132  1.8710 -1.2207 -0.3984
  533MOL0     H70352   1.029   7.094   0.872  1.7930 -3.0691 -1.8815
  533MOL0     H70353   1.004   6.931   0.870  2.0446  1.9293 -1.8254
  533MOL0     H70354   0.629   7.084   0.997  0.8148  0.6897 -1.6254
  533MOL0     H70355   1.514   6.918   1.076  0.5069 -0.2055 -0.5046
  533MOL0     H70356   1.721   6.888   1.161 -1.1238  1.3605  0.1283
  534MOL0     O70357   8.174  10.998   1.551 -0.0730 -0.3861  0.1742
  534MOL0     C70358   8.235  11.057   1.467  0.7077 -0.0597 -0.2345
  534MOL0     O70359   8.180  11.127   1.365 -0.9942 -0.3726  0.3419
  534MOL0     C70360   8.050  11.101   1.340  0.3920  0.5237 -0.3292
  534MOL0     C70361   8.001  11.038   1.222 -0.6282 -0.3540 -0.5397
  534MOL0     C70362   7.869  11.017   1.197  0.1354 -0.3281 -0.4354
  534MOL0     C70363   7.774  11.046   1.298 -0.4634  0.1243 -0.2436
  534MOL0     O70364   7.650  10.991   1.293 -0.0221  0.3056  0.4634
  534MOL0     C70365   7.648  10.845   1.331 -0.4866 -0.8882  0.2078
  534MOL0     C70366   7.506  10.784   1.308 -1.1649  0.0585  0.1121
  534MOL0     C70367   7.398  10.843   1.409  0.3543  0.3949 -0.1990
  534MOL0     C70368   7.293  10.744   1.426  0.5856 -0.0661 -0.4510
  534MOL0     C70369   7.173  10.792   1.339  0.2941  0.3010  1.0223
  534MOL0     C70370   7.040  10.738   1.379  0.3327 -0.1740  0.0699
  534MOL0     C70371   6.965  10.642   1.277 -0.8652 -0.7460 -0.5396
  534MOL0     C70372   6.828  10.609   1.342  0.3453  0.1347  0.7525
  534MOL0     N70373   6.766  10.510   1.246 -0.7335  0.1066  0.4301
  534MOL0     C70374   6.783  10.524   1.109  1.3246  0.6859 -0.0582
  534MOL0     C70375   6.764  10.402   1.053  0.3057 -0.3037  0.4239
  534MOL0     C70376   6.786  10.384   0.906 -0.0017 -0.7050 -0.2398
  534MOL0     C70377   6.884  10.286   0.886 -0.4352  0.1755  0.0918
  534MOL0     C70378   6.921  10.288   0.732  0.4433  1.7209 -0.4931
  534MOL0     C70379   7.014  10.178   0.693 -0.0783  0.0248  0.5449
  534MOL0     O70380   7.051  10.187   0.551 -0.7685 -1.0139 -0.6864
  534MOL0     C70381   7.170  10.257   0.521  0.0210 -0.2553  0.7813
  534MOL0     C70382   7.227  10.235   0.394  0.0853  1.2834 -0.8763
  534MOL0     C70383   7.341  10.294   0.346 -0.0094  0.5102  0.6990
  534MOL0     C70384   7.404  10.394   0.420  0.1165  0.0434  0.4839
  534MOL0     C70385   7.521  10.458   0.369  0.1310 -0.9451 -0.4902
  534MOL0     O70386   7.586  10.544   0.463 -0.5937  0.1746  0.8246
  534MOL0     C70387   7.706  10.603   0.432  0.2831  0.2638  0.4812
  534MOL0     C70388   7.792  10.634   0.544  0.0370 -0.2408  0.4129
  534MOL0     C70389   7.921  10.695   0.532 -0.3724 -0.0954 -0.5308
  534MOL0     C70390   7.968  10.719   0.406  0.7899 -0.3620  0.5322
  534MOL0     O70391   8.094  10.767   0.377  0.4923 -0.1744  0.5257
  534MOL0     C70392   8.208  10.689   0.406 -0.1324  1.8905 -0.0973
  534MOL0     C70393   8.329  10.736   0.326  0.3821 -0.3329  0.0494
  534MOL0     C70394   8.417  10.833   0.409 -0.0886  0.2853 -0.2420
  534MOL0     C70395   8.499  10.925   0.314  0.6777  0.3349 -0.1546
  534MOL0     C70396   8.607  11.010   0.380  0.1950 -0.0730 -0.5093
  534MOL0     C70397   8.556  11.105   0.499 -0.1389  0.0103 -0.2177
  534MOL0     C70398   8.456  11.205   0.454 -0.3637 -0.8741  0.3551
  534MOL0     C70399   8.411  11.279   0.586  0.2280 -0.4200  1.4737
  534MOL0    Cl70400   8.287  11.408   0.549 -0.1316 -0.3726 -0.3255
  534MOL0     C70401   7.894  10.688   0.297  0.7277 -0.0484  0.3062
  534MOL0     C70402   7.762  10.634   0.302 -0.7586 -0.0142  0.4367
  534MOL0     O70403   7.554  10.443   0.254  0.2273  0.0822  0.9898
  534MOL0     C70404   7.358  10.419   0.549  0.1171 -0.7352 -0.1608
  534MOL0     C70405   7.241  10.359   0.596  0.4674 -0.1422  0.5614
  534MOL0     N70406   6.726  10.315   1.157  0.1732  0.1860 -0.1758
  534MOL0     N70407   6.733  10.382   1.269 -0.3209 -0.1204  0.3742
  534MOL0     C70408   7.822  11.102   1.413  0.1787 -0.4891  0.2616
  534MOL0     C70409   7.952  11.147   1.430 -0.0182  0.5488  0.5037
  534MOL0     C70410   8.380  11.062   1.494  0.2176  0.1790  0.3188
  534MOL0     C70411   8.451  11.149   1.411 -0.4127 -0.0485  1.0853
  534MOL0     C70412   8.598  11.153   1.421  0.1884 -0.2416 -0.4335
  534MOL0     C70413   8.662  11.080   1.523 -0.2916  0.6398  0.5218
  534MOL0     O70414   8.795  11.078   1.549 -0.3587 -0.2311 -0.0269
  534MOL0     C70415   8.877  11.098   1.433  0.4323  0.0735  0.7151
  534MOL0     C70416   9.023  11.046   1.456  0.4406 -0.0274  0.3211
  534MOL0     C70417   9.128  11.099   1.355  0.3027  0.0268 -0.2642
  534MOL0     C70418   9.146  11.245   1.385  0.0049 -0.0626  0.9713
  534MOL0     C70419   9.273  11.289   1.329 -0.3770  0.5526 -0.2172
  534MOL0     C70420   9.380  11.321   1.284  0.0121 -0.5409 -0.1125
  534MOL0     C70421   8.578  11.008   1.613  0.7208  0.3984  0.2872
  534MOL0     C70422   8.443  10.978   1.589  0.3618 -0.4074 -0.8016
  534MOL0     H70423   8.076  11.016   1.148  1.5299  0.2800  1.3590
  534MOL0     H70424   7.855  10.965   1.103  1.1715  2.0621 -2.0004
  534MOL0     H70425   7.690  10.827   1.430  1.2430 -1.4435 -0.5992
  534MOL0     H70426   7.721  10.794   1.269  1.4377 -0.2046  1.8064
  534MOL0     H70427   7.524  10.677   1.327 -1.4323  0.1137  0.7225
  534MOL0     H70428   7.476  10.791   1.203  0.5227 -0.8382 -0.4734
  534MOL0     H70429   7.349  10.933   1.371 -0.2348  0.2140  0.1124
  534MOL0     H70430   7.452  10.853   1.503 -0.2537 -1.0718  0.3354
  534MOL0     H70431   7.316  10.641   1.399 -2.3935 -1.5096  1.8856
  534MOL0     H70432   7.277  10.735   1.534 -0.2391 -2.5977 -0.7174
  534MOL0     H70433   7.187  10.775   1.232 -0.5254 -1.2001  1.1260
  534MOL0     H70434   7.145  10.898   1.340 -2.0412 -0.0565 -3.0205
  534MOL0     H70435   6.965  10.816   1.396  0.7917 -0.2852  3.0600
  534MOL0     H70436   7.038  10.683   1.473 -3.9625 -0.9569 -0.2729
  534MOL0     H70437   6.945  10.703   1.188 -1.9985 -1.0077 -0.4737
  534MOL0     H70438   7.030  10.560   1.246  2.5159  1.8938 -1.1004
  534MOL0     H70439   6.761  10.696   1.342 -0.8712 -0.6756 -2.1063
  534MOL0     H70440   6.850  10.568   1.441 -0.4596  0.2244  0.9749
  534MOL0     H70441   6.805  10.614   1.053  0.3928 -0.1149 -1.7951
  534MOL0     H70442   6.800  10.484   0.866 -1.4727 -0.4090 -0.0578
  534MOL0     H70443   6.690  10.358   0.862 -0.0416 -0.4583 -0.2957
  534MOL0     H70444   6.856  10.184   0.915  0.4122 -0.0804  0.0356
  534MOL0     H70445   6.972  10.318   0.941 -0.2777 -0.2607  0.0956
  534MOL0     H70446   6.829  10.282   0.673  0.0731  0.1832  0.1872
  534MOL0     H70447   6.976  10.381   0.714  2.5313  1.7098  4.4366
  534MOL0     H70448   6.960  10.085   0.712 -1.5448  0.2411 -2.1591
  534MOL0     H70449   7.106  10.178   0.753 -0.0510  0.5657  0.5075
  534MOL0     H70450   7.179  10.161   0.330 -1.4617  2.2468 -0.8870
  534MOL0     H70451   7.386  10.255   0.255  0.6385 -2.3982  2.1304
  534MOL0     H70452   7.742  10.616   0.638  0.3798  1.1691  0.8838
  534MOL0     H70453   7.984  10.704   0.620 -1.9994  0.2347  0.6535
  534MOL0     H70454   8.194  10.586   0.372  2.2794  1.2584  0.6419
  534MOL0     H70455   8.223  10.687   0.515 -0.8103 -1.5272  0.0621
  534MOL0     H70456   8.294  10.798   0.242  2.7626  1.2440  0.1358
  534MOL0     H70457   8.387  10.656   0.278 -0.7703 -1.3489  0.2932
  534MOL0     H70458   8.481  10.760   0.460 -0.0926  0.6480  0.2838
  534MOL0     H70459   8.360  10.887   0.485  2.1351  0.5426  1.3204
  534MOL0     H70460   8.540  10.866   0.232  2.0667 -0.2731  0.9432
  534MOL0     H70461   8.426  10.992   0.266 -0.1706 -1.3588 -1.3394
  534MOL0     H70462   8.652  11.077   0.306 -2.2181  0.2158 -1.8308
  534MOL0     H70463   8.677  10.937   0.419  0.4614 -1.1578 -2.8435
  534MOL0     H70464   8.644  11.159   0.535  0.7545 -1.4388 -0.1388
  534MOL0     H70465   8.513  11.039   0.574  0.7297  0.9245  1.1264
  534MOL0     H70466   8.493  11.286   0.391  3.1772  0.6425  4.0150
  534MOL0     H70467   8.371  11.155   0.407  0.4073 -1.0078 -0.9559
  534MOL0     H70468   8.502  11.323   0.629  1.2091 -3.1173  2.3821
  534MOL0     H70469   8.368  11.205   0.654 -2.3004 -0.6732 -0.2858
  534MOL0     H70470   7.947  10.698   0.203  1.1358 -2.8005  0.1581
  534MOL0     H70471   7.703  10.622   0.212 -1.3783  1.1655  0.6688
  534MOL0     H70472   7.407  10.496   0.608 -2.6587  0.3841  0.8726
  534MOL0     H70473   7.208  10.389   0.695 -0.0063 -0.1359  0.4016
  534MOL0     H70474   7.758  11.121   1.499 -0.1272 -1.1955  0.1984
  534MOL0     H70475   7.976  11.181   1.530 -0.5844 -2.0978  1.6131
  534MOL0     H70476   8.406  11.203   1.329  3.5991 -0.2614 -1.4837
  534MOL0     H70477   8.648  11.197   1.335 -1.3982 -1.3644 -1.9861
  534MOL0     H70478   8.863  11.200   1.398  0.1835  0.4018  1.7367
  534MOL0     H70479   8.845  11.043   1.345  2.9205  0.0262 -0.2512
  534MOL0     H70480   9.043  11.065   1.562  0.8032  0.5169  0.1596
  534MOL0     H70481   9.012  10.938   1.448 -1.4769  0.1071  0.6544
  534MOL0     H70482   9.079  11.091   1.257 -4.6428  1.5223  1.7355
  534MOL0     H70483   9.218  11.040   1.373 -0.1552 -0.2424  1.3054
  534MOL0     H70484   9.070  11.310   1.340 -1.2493 -1.5373  0.8575
  534MOL0     H70485   9.143  11.263   1.492 -1.1928 -1.9780  1.3023
  534MOL0     H70486   9.474  11.356   1.246 -0.0547 -2.3383 -2.1638
  534MOL0     H70487   8.618  10.949   1.695  4.9401  1.5435 -0.7181
  534MOL0     H70488   8.388  10.914   1.657 -0.3011  0.2369 -0.7262
  535MOL0     O70489   7.975   3.257   3.619  0.3277 -0.3135 -0.6209
  535MOL0     C70490   7.925   3.359   3.580 -0.3589 -0.1255 -0.4202
  535MOL0     O70491   7.798   3.400   3.591  0.2218 -0.4663  0.3673
  535MOL0     C70492   7.694   3.312   3.606 -0.2544  0.1247 -0.4968
  535MOL0     C70493   7.702   3.177   3.573 -0.3495  0.0629  0.4055
  535MOL0     C70494   7.585   3.101   3.598  0.7407 -0.3241 -0.4169
  535MOL0     C70495   7.462   3.150   3.638 -0.8410  0.3577 -0.1625
  535MOL0     O70496   7.357   3.061   3.631  0.2798  0.3359 -0.0975
  535MOL0     C70497   7.238   3.089   3.714 -0.7493 -0.2016  0.2069
  535MOL0     C70498   7.140   2.966   3.689  0.0076 -0.2680 -0.3120
  535MOL0     C70499   6.993   3.008   3.686  0.0430 -0.3123  0.3030
  535MOL0     C70500   6.962   3.048   3.836  0.3063  0.4600  0.0877
  535MOL0     C70501   6.820   3.097   3.838 -0.2485  0.6220 -0.2275
  535MOL0     C70502   6.767   3.132   3.968  0.0310  0.6462  0.1467
  535MOL0     C70503   6.626   3.180   3.968 -0.9569  0.2470 -0.7109
  535MOL0     C70504   6.585   3.202   4.113 -0.8485 -0.1699 -0.8258
  535MOL0     N70505   6.484   3.308   4.115  0.3575 -0.3456  0.8856
  535MOL0     C70506   6.350   3.292   4.100  0.3495  0.3682 -0.2177
  535MOL0     C70507   6.300   3.411   4.133  0.4657  0.0134 -0.2842
  535MOL0     C70508   6.156   3.447   4.120  0.5549 -0.7889  0.1490
  535MOL0     C70509   6.061   3.375   4.213  0.0815  0.3272  0.6563
  535MOL0     C70510   5.923   3.350   4.155 -0.1320 -0.0692  0.7891
  535MOL0     C70511   5.844   3.475   4.120  0.4342  0.2419  0.8222
  535MOL0     O70512   5.708   3.435   4.089 -0.1601 -0.0815  0.3373
  535MOL0     C70513   5.595   3.426   4.171 -0.8233 -0.0685  0.4797
  535MOL0     C70514   5.470   3.407   4.113 -0.3158  0.0334 -0.4380
  535MOL0     C70515   5.363   3.388   4.203  0.2741 -0.4642 -0.4809
  535MOL0     C70516   5.372   3.390   4.342 -0.7426 -0.2690  0.2810
  535MOL0     C70517   5.245   3.379   4.417  0.0782 -0.8588  0.7093
  535MOL0     O70518   5.138   3.446   4.361 -1.5926 -0.5940  0.0990
  535MOL0     C70519   5.021   3.450   4.429 -0.7099 -0.1714  0.1139
  535MOL0     C70520   5.014   3.524   4.545  0.4567  0.7316  0.8674
  535MOL0     C70521   4.887   3.531   4.601  0.4954  0.7263 -0.2380
  535MOL0     C70522   4.777   3.452   4.555  0.3321 -0.2419 -0.4451
  535MOL0     O70523   4.669   3.438   4.636  0.6993 -0.1756  0.2238
  535MOL0     C70524   4.539   3.448   4.571  0.3757 -0.0707 -0.2255
  535MOL0     C70525   4.431   3.516   4.662 -0.4909  0.2764 -0.2227
  535MOL0     C70526   4.287   3.481   4.607  0.0993 -0.9258 -0.0791
  535MOL0     C70527   4.175   3.556   4.690 -0.1050  0.1470  0.2802
  535MOL0     C70528   4.030   3.528   4.637 -0.1090  0.0221 -0.2301
  535MOL0     C70529   3.944   3.628   4.713  0.3417  0.3663 -0.2166
  535MOL0     C70530   3.799   3.617   4.668  0.7196 -0.7781  0.0964
  535MOL0     C70531   3.707   3.729   4.737 -0.3093  0.6052  0.8812
  535MOL0    Cl70532   3.687   3.665   4.913  0.0148 -0.3271 -0.0808
  535MOL0     C70533   4.792   3.383   4.433 -0.1563  0.7627 -0.0381
  535MOL0     C70534   4.922   3.377   4.381 -0.3750 -0.0837  0.5521
  535MOL0     O70535   5.246   3.324   4.527 -0.4040 -0.6154  0.1363
  535MOL0     C70536   5.497   3.389   4.404  0.2113 -0.1314 -0.0706
  535MOL0     C70537   5.607   3.424   4.317  0.6115  0.2137  0.1252
  535MOL0     N70538   6.403   3.493   4.181 -0.3983  0.8414  0.4678
  535MOL0     N70539   6.511   3.427   4.164  0.6293 -0.0815 -0.1907
  535MOL0     C70540   7.460   3.285   3.666  0.5307  0.0255 -0.5919
  535MOL0     C70541   7.572   3.367   3.644  0.0761  0.6387  0.0666
  535MOL0     C70542   8.018   3.451   3.514 -0.0085  0.5203 -0.1390
  535MOL0     C70543   8.153   3.473   3.559  0.8560 -1.0238  0.3893
  535MOL0     C70544   8.231   3.572   3.493  0.2334 -0.2749 -0.4072
  535MOL0     C70545   8.183   3.647   3.389 -0.0861 -0.0280 -1.3034
  535MOL0     O70546   8.240   3.749   3.320 -0.0553 -0.9596  0.2344
  535MOL0     C70547   8.378   3.771   3.355  0.2195  0.8891  0.6910
  535MOL0     C70548   8.450   3.854   3.256  0.0902 -1.1098  0.8245
  535MOL0     C70549   8.419   4.001   3.269  0.2603 -0.1363 -0.1952
  535MOL0     C70550   8.502   4.076   3.161  0.0686 -0.3488  0.0119
  535MOL0     C70551   8.642   4.032   3.139 -1.1354  0.6534  1.5490
  535MOL0     C70552   8.756   3.980   3.131  0.2055  0.4102  0.4587
  535MOL0     C70553   8.053   3.622   3.344  0.0285 -0.0257 -0.1678
  535MOL0     C70554   7.978   3.521   3.403 -0.1429 -0.5561  0.0306
  535MOL0     H70555   7.798   3.140   3.538 -0.4386  0.7120 -0.5558
  535MOL0     H70556   7.584   2.993   3.587  2.0774 -0.3047 -1.0359
  535MOL0     H70557   7.197   3.180   3.670 -0.5870 -0.2995 -0.1578
  535MOL0     H70558   7.263   3.093   3.820  1.8586  0.8103 -0.3799
  535MOL0     H70559   7.158   2.901   3.776  2.9479  0.8173  0.0015
  535MOL0     H70560   7.163   2.912   3.597  1.3611  0.0101 -0.1629
  535MOL0     H70561   6.930   2.921   3.665 -0.0079 -0.5914  1.5409
  535MOL0     H70562   6.973   3.093   3.620 -2.2934 -2.4237 -1.8972
  535MOL0     H70563   6.966   2.957   3.896 -0.9963  0.7452  0.6494
  535MOL0     H70564   7.026   3.130   3.872 -0.6995  1.6249 -0.6900
  535MOL0     H70565   6.763   3.014   3.795 -0.4159  0.9845 -0.7170
  535MOL0     H70566   6.805   3.176   3.764 -2.9950  0.4159 -0.0021
  535MOL0     H70567   6.840   3.209   3.996  2.6494  0.2166 -4.4885
  535MOL0     H70568   6.783   3.042   4.028  0.0578 -0.5797 -1.6366
  535MOL0     H70569   6.609   3.262   3.898 -2.1045  0.4866 -0.1721
  535MOL0     H70570   6.561   3.104   3.923  1.3977 -1.8456 -0.8369
  535MOL0     H70571   6.668   3.238   4.174 -0.0739  1.1763 -2.5653
  535MOL0     H70572   6.549   3.109   4.157 -1.4830 -0.0502 -1.0708
  535MOL0     H70573   6.291   3.206   4.071 -2.9814  2.1344  0.8077
  535MOL0     H70574   6.131   3.450   4.013  0.0261  1.4598  0.2768
  535MOL0     H70575   6.139   3.550   4.155 -1.8209 -1.3894  0.9311
  535MOL0     H70576   6.048   3.427   4.309 -0.3055  0.7046  0.4004
  535MOL0     H70577   6.108   3.279   4.240 -1.4802 -0.2067  1.5917
  535MOL0     H70578   5.924   3.295   4.061 -2.9252  3.2288 -1.4066
  535MOL0     H70579   5.861   3.296   4.228 -2.0199  0.7869 -0.1309
  535MOL0     H70580   5.882   3.519   4.028 -0.5293  2.9577  1.6339
  535MOL0     H70581   5.852   3.560   4.188  4.1280 -0.7987  1.8879
  535MOL0     H70582   5.454   3.422   4.007  0.3404  4.4979 -0.0931
  535MOL0     H70583   5.266   3.382   4.153  1.8758 -0.5880 -3.9154
  535MOL0     H70584   5.106   3.575   4.573  1.4902 -0.0011 -1.0054
  535MOL0     H70585   4.870   3.574   4.699 -2.7383 -0.2443 -0.2754
  535MOL0     H70586   4.506   3.352   4.530 -1.0070  0.8027 -1.2656
  535MOL0     H70587   4.551   3.513   4.483 -0.1428 -2.1549 -1.9275
  535MOL0     H70588   4.456   3.623   4.663 -2.6285  0.8305  1.2564
  535MOL0     H70589   4.446   3.460   4.755 -1.8825  1.0363  0.4955
  535MOL0     H70590   4.271   3.373   4.608 -0.7227 -0.8481 -1.7679
  535MOL0     H70591   4.280   3.509   4.502  2.6335 -0.8230 -0.2847
  535MOL0     H70592   4.193   3.521   4.792 -0.6732 -1.6779 -0.2076
  535MOL0     H70593   4.206   3.661   4.693  1.8690 -0.4064  0.8314
  535MOL0     H70594   4.025   3.420   4.648 -0.5027 -0.3200 -3.0116
  535MOL0     H70595   4.030   3.551   4.530 -2.3808  0.2584 -0.2251
  535MOL0     H70596   3.975   3.728   4.680  1.3542 -1.1285 -4.4844
  535MOL0     H70597   3.958   3.622   4.821 -0.4750 -1.5418 -0.1676
  535MOL0     H70598   3.790   3.625   4.559  1.8190 -0.2164  0.0321
  535MOL0     H70599   3.760   3.518   4.691  0.0013 -0.2951  1.0163
  535MOL0     H70600   3.623   3.752   4.671  0.9658  2.0101 -0.3285
  535MOL0     H70601   3.751   3.829   4.737 -1.2736  1.0999 -1.8998
  535MOL0     H70602   4.711   3.324   4.392  0.0521  0.1085  0.4850
  535MOL0     H70603   4.944   3.329   4.286 -1.5357 -1.1530  0.7904
  535MOL0     H70604   5.503   3.389   4.513 -1.8999  2.1507  0.1221
  535MOL0     H70605   5.703   3.438   4.365 -0.1017  1.0913  1.3539
  535MOL0     H70606   7.362   3.319   3.699 -0.6372 -2.0811 -1.6694
  535MOL0     H70607   7.555   3.474   3.655  0.9472  0.8174 -0.2830
  535MOL0     H70608   8.188   3.409   3.640 -0.6940  0.1167  2.0384
  535MOL0     H70609   8.324   3.596   3.543  0.0498  0.3827 -0.3663
  535MOL0     H70610   8.426   3.673   3.363  0.1421  0.8566  0.7567
  535MOL0     H70611   8.387   3.827   3.448 -0.8615 -0.0577  1.3915
  535MOL0     H70612   8.557   3.835   3.274 -0.4292 -5.3703  0.4057
  535MOL0     H70613   8.424   3.819   3.156 -1.4081  3.2666 -0.5803
  535MOL0     H70614   8.451   4.041   3.366 -0.3751 -4.1046  1.8368
  535MOL0     H70615   8.311   4.013   3.265  0.4841  2.8337  0.2129
  535MOL0     H70616   8.452   4.061   3.064  1.0141 -0.4334 -0.4706
  535MOL0     H70617   8.495   4.182   3.188 -0.5347 -0.9192  2.3078
  535MOL0     H70618   8.854   3.937   3.138  0.2039  0.5148  1.3015
  535MOL0     H70619   8.019   3.684   3.261 -2.1195 -0.8911 -0.0092
  535MOL0     H70620   7.879   3.503   3.363 -0.3990 -1.1876  0.9075
  536MOL0     O70621   8.370   5.920   5.010 -0.6571  0.3576 -0.0619
  536MOL0     C70622   8.483   5.893   4.961  0.0436  0.0116 -0.3845
  536MOL0     O70623   8.500   5.802   4.863  0.4526  0.0981  0.0329
  536MOL0     C70624   8.385   5.755   4.798  0.1122  0.5890  0.2099
  536MOL0     C70625   8.328   5.630   4.825 -0.7609  0.0806 -0.2317
  536MOL0     C70626   8.221   5.580   4.757  0.0393  0.3393  0.7144
  536MOL0     C70627   8.175   5.652   4.642  0.5392 -0.7666  0.1445
  536MOL0     O70628   8.063   5.614   4.572 -0.2170 -0.1300  0.3706
  536MOL0     C70629   8.022   5.475   4.568 -0.2012 -0.5327 -0.3998
  536MOL0     C70630   7.950   5.451   4.436 -0.0805 -0.2049  0.4380
  536MOL0     C70631   7.813   5.510   4.411 -1.2553 -0.6577  0.0393
  536MOL0     C70632   7.760   5.453   4.284 -0.3136 -0.9053 -0.1205
  536MOL0     C70633   7.619   5.506   4.252 -0.0180  0.7527  0.2677
  536MOL0     C70634   7.553   5.424   4.136  0.8884  0.0090  0.4671
  536MOL0     C70635   7.402   5.460   4.107 -0.0561  0.9661 -1.5398
  536MOL0     C70636   7.392   5.593   4.051  0.2187 -0.4328  0.6253
  536MOL0     N70637   7.252   5.629   4.018 -0.0523  0.5101  0.1631
  536MOL0     C70638   7.139   5.634   4.100  0.3430  0.3511 -0.4556
  536MOL0     C70639   7.048   5.706   4.038  0.3996  0.3655  0.7305
  536MOL0     C70640   6.905   5.702   4.055 -0.0154 -0.3434  0.8865
  536MOL0     C70641   6.846   5.722   4.201  0.1407  0.0269  1.3068
  536MOL0     C70642   6.701   5.769   4.188 -0.5490 -0.0841 -0.8322
  536MOL0     C70643   6.616   5.656   4.143  1.3268  0.1207 -0.5323
  536MOL0     O70644   6.484   5.674   4.199 -0.2922 -0.1429  0.6300
  536MOL0     C70645   6.358   5.635   4.140  0.3883  0.1019  0.8884
  536MOL0     C70646   6.241   5.673   4.205 -0.5735 -0.8350 -0.0346
  536MOL0     C70647   6.115   5.655   4.159  1.1426 -0.7176  0.5235
  536MOL0     C70648   6.097   5.592   4.027  0.1712  0.1464 -0.1865
  536MOL0     C70649   5.963   5.574   3.967 -0.9960  0.7739 -0.8600
  536MOL0     O70650   5.862   5.618   4.034  0.4755 -0.5947 -0.3075
  536MOL0     C70651   5.732   5.556   4.019  0.4907  0.5202  0.8448
  536MOL0     C70652   5.656   5.506   4.128  0.4552 -0.3787 -0.1017
  536MOL0     C70653   5.517   5.487   4.119 -0.0992 -0.0736 -0.0141
  536MOL0     C70654   5.456   5.496   3.993  0.1326 -0.2267 -0.7082
  536MOL0     O70655   5.325   5.468   3.959  0.2993 -0.5110  0.3443
  536MOL0     C70656   5.240   5.472   4.071 -0.0757 -0.1407 -0.4255
  536MOL0     C70657   5.096   5.447   4.035  0.3623  0.0224 -0.5595
  536MOL0     C70658   5.002   5.433   4.155 -0.0824 -0.5361 -0.1480
  536MOL0     C70659   4.885   5.341   4.125 -0.4378 -0.4865 -0.3423
  536MOL0     C70660   4.769   5.376   4.226 -0.4350  0.3276 -0.0608
  536MOL0     C70661   4.635   5.329   4.167  0.1007  0.1762 -0.0782
  536MOL0     C70662   4.558   5.438   4.087  0.0025 -0.6770 -0.4851
  536MOL0     C70663   4.417   5.392   4.055 -0.5129  0.6962 -0.1107
  536MOL0    Cl70664   4.314   5.526   3.993 -0.0891 -0.0287  0.0666
  536MOL0     C70665   5.534   5.508   3.879 -0.7669  0.5126 -0.2774
  536MOL0     C70666   5.666   5.551   3.896 -0.5005 -0.0135  0.0674
  536MOL0     O70667   5.962   5.531   3.853  0.5637  0.1356  0.1453
  536MOL0     C70668   6.211   5.542   3.962  0.8898  0.3409  0.1382
  536MOL0     C70669   6.338   5.581   4.010  0.6208  0.3393 -0.1606
  536MOL0     N70670   7.100   5.756   3.919  0.4620 -0.0163 -0.3868
  536MOL0     N70671   7.220   5.707   3.906 -0.4551  0.5215  0.0045
  536MOL0     C70672   8.231   5.777   4.610 -0.4342  0.3659  0.3734
  536MOL0     C70673   8.343   5.829   4.689 -0.3578 -0.3497  0.5340
  536MOL0     C70674   8.594   5.987   4.993  0.3128 -0.8167 -0.9843
  536MOL0     C70675   8.580   6.083   5.094  0.1050 -0.8496  0.3722
  536MOL0     C70676   8.675   6.185   5.112 -0.0284  0.8861 -0.2719
  536MOL0     C70677   8.792   6.179   5.038 -0.4808 -0.1589  0.9126
  536MOL0     O70678   8.893   6.259   5.084  0.4720  0.3963  0.6298
  536MOL0     C70679   9.000   6.187   5.146 -0.3425  0.3269  0.7745
  536MOL0     C70680   9.100   6.284   5.203 -0.0156 -0.3158 -0.5261
  536MOL0     C70681   9.038   6.363   5.323  0.3014  0.9725 -0.6749
  536MOL0     C70682   9.003   6.503   5.285  0.7857 -0.4404 -0.4202
  536MOL0     C70683   9.113   6.593   5.269 -0.5589  0.6588  0.0468
  536MOL0     C70684   9.200   6.672   5.246 -0.3991 -0.6691  0.5471
  536MOL0     C70685   8.806   6.077   4.946  0.6315 -0.1454 -0.0549
  536MOL0     C70686   8.703   5.992   4.910 -0.3171  0.5496  1.2217
  536MOL0     H70687   8.363   5.581   4.915  1.6143  0.5015 -0.8474
  536MOL0     H70688   8.176   5.487   4.789 -1.6939  0.2406 -1.7605
  536MOL0     H70689   7.951   5.462   4.650  1.0319  0.3427  0.8590
  536MOL0     H70690   8.100   5.398   4.571  1.4297  1.0015  3.6891
  536MOL0     H70691   7.931   5.344   4.423 -1.8435  0.2047 -0.6274
  536MOL0     H70692   8.019   5.476   4.355  1.3092 -2.7606  0.7320
  536MOL0     H70693   7.835   5.617   4.409  0.0779 -0.9268 -0.9232
  536MOL0     H70694   7.746   5.490   4.495  0.5901  1.0703  2.0521
  536MOL0     H70695   7.835   5.473   4.207  0.0002 -0.4432  0.3000
  536MOL0     H70696   7.750   5.345   4.278 -2.4999 -0.7036 -1.2128
  536MOL0     H70697   7.632   5.611   4.224 -1.4416  2.3670  4.7041
  536MOL0     H70698   7.551   5.499   4.337 -0.4353  0.3694 -0.0912
  536MOL0     H70699   7.549   5.320   4.169 -2.3430 -0.5373 -1.2885
  536MOL0     H70700   7.616   5.436   4.047  0.2617  1.7735  0.2291
  536MOL0     H70701   7.358   5.383   4.042  0.5980 -1.2139  0.4758
  536MOL0     H70702   7.341   5.450   4.197 -0.7421 -3.7208 -2.2413
  536MOL0     H70703   7.456   5.592   3.962  0.2766  0.3051  0.6547
  536MOL0     H70704   7.425   5.663   4.129 -1.4887  1.1547  0.0028
  536MOL0     H70705   7.120   5.566   4.182 -1.8554 -0.5950 -1.6363
  536MOL0     H70706   6.859   5.612   4.015  1.6738 -1.8016  2.0630
  536MOL0     H70707   6.870   5.785   3.992  0.4672 -0.4428  0.4761
  536MOL0     H70708   6.910   5.797   4.248 -0.4567  2.8791 -2.0715
  536MOL0     H70709   6.857   5.627   4.255  0.7590 -1.1247 -0.7238
  536MOL0     H70710   6.676   5.806   4.288 -1.9949 -2.4433 -0.2429
  536MOL0     H70711   6.683   5.852   4.118 -2.2213 -0.0741 -0.4361
  536MOL0     H70712   6.656   5.559   4.173  2.3294 -0.0901 -2.4101
  536MOL0     H70713   6.606   5.659   4.034  0.1661 -0.5767 -0.4698
  536MOL0     H70714   6.258   5.737   4.291  2.6688 -0.6466 -0.6885
  536MOL0     H70715   6.029   5.698   4.210  0.3711 -1.3724 -0.1732
  536MOL0     H70716   5.716   5.499   4.218  2.2828 -0.6709 -1.2953
  536MOL0     H70717   5.471   5.459   4.214  0.7051 -0.8098  0.1705
  536MOL0     H70718   5.239   5.571   4.116 -0.4072 -1.4146  2.6568
  536MOL0     H70719   5.269   5.405   4.153  2.8587  2.4311  0.8406
  536MOL0     H70720   5.087   5.356   3.975  0.4246  0.2396 -0.8999
  536MOL0     H70721   5.066   5.527   3.966  0.9051  0.2429 -0.5404
  536MOL0     H70722   4.971   5.535   4.182 -2.0645 -1.0934 -0.1743
  536MOL0     H70723   5.059   5.388   4.237 -0.1612 -0.4220 -0.0294
  536MOL0     H70724   4.845   5.342   4.023  0.9846 -1.4808 -0.9392
  536MOL0     H70725   4.919   5.237   4.133  0.3217 -0.0847  3.7105
  536MOL0     H70726   4.768   5.484   4.245 -0.9404  1.0551 -3.5764
  536MOL0     H70727   4.794   5.316   4.314  1.8497  2.5080  0.9040
  536MOL0     H70728   4.569   5.284   4.241 -1.5373  1.1224 -0.8976
  536MOL0     H70729   4.659   5.247   4.099  0.7452 -0.4028  0.8241
  536MOL0     H70730   4.539   5.520   4.158  1.3703  0.7221 -1.6626
  536MOL0     H70731   4.605   5.471   3.994  0.2748 -1.7344 -0.7313
  536MOL0     H70732   4.391   5.355   4.155  0.4784  0.9408  0.2504
  536MOL0     H70733   4.423   5.305   3.990  0.8763  0.6248  0.0904
  536MOL0     H70734   5.488   5.526   3.782  2.2116  3.0330 -1.4028
  536MOL0     H70735   5.717   5.590   3.809 -1.6732  0.5339 -0.4023
  536MOL0     H70736   6.205   5.493   3.866 -2.2145 -2.0710  1.3549
  536MOL0     H70737   6.423   5.570   3.943 -0.4309  0.4879 -1.5805
  536MOL0     H70738   8.192   5.828   4.522 -1.3989 -2.9551 -1.3253
  536MOL0     H70739   8.390   5.925   4.668 -3.7134  1.5367  1.0383
  536MOL0     H70740   8.490   6.092   5.154 -1.8643  0.0498 -2.4958
  536MOL0     H70741   8.649   6.258   5.188  0.2023  0.7553 -0.0653
  536MOL0     H70742   9.047   6.122   5.071 -0.5964  0.7176  0.2651
  536MOL0     H70743   8.960   6.126   5.227 -1.9089 -2.6938 -2.0621
  536MOL0     H70744   9.183   6.222   5.238 -0.0019 -0.1326 -0.2234
  536MOL0     H70745   9.139   6.343   5.120  0.6212 -0.0828 -0.0764
  536MOL0     H70746   9.110   6.368   5.406 -0.7157  0.5724  0.2596
  536MOL0     H70747   8.950   6.306   5.355  1.6272 -2.8366 -3.1325
  536MOL0     H70748   8.939   6.511   5.197  0.6211 -1.9572 -0.4507
  536MOL0     H70749   8.944   6.553   5.363 -2.0812  0.5214 -3.0095
  536MOL0     H70750   9.276   6.746   5.232  1.6397 -1.9362  3.7383
  536MOL0     H70751   8.897   6.085   4.888  1.7773 -1.6908  1.4348
  536MOL0     H70752   8.705   5.928   4.823  1.6949 -0.0286  1.6451
  537MOL0     O70753   8.441   3.010   4.538 -0.2201  0.4469 -0.7705
  537MOL0     C70754   8.482   3.018   4.421  0.0973 -0.1806  0.2554
  537MOL0     O70755   8.436   2.939   4.322 -0.5861 -0.6463  0.4869
  537MOL0     C70756   8.324   2.861   4.338 -0.9126  0.1679 -0.8068
  537MOL0     C70757   8.199   2.921   4.370 -0.7109 -0.1459 -0.4020
  537MOL0     C70758   8.088   2.840   4.386  0.6671 -0.5632 -0.0037
  537MOL0     C70759   8.092   2.702   4.371  0.0965  0.6103 -0.2481
  537MOL0     O70760   7.980   2.626   4.380 -0.2639  0.7377 -0.2287
  537MOL0     C70761   7.985   2.481   4.371 -0.0976  0.3153  0.2949
  537MOL0     C70762   7.848   2.417   4.405  0.4308  0.2544  0.0801
  537MOL0     C70763   7.848   2.264   4.411  1.0458  1.4119  0.3565
  537MOL0     C70764   7.697   2.223   4.398 -0.1459  0.5356  0.7672
  537MOL0     C70765   7.693   2.081   4.446 -0.8421 -0.2955  0.0051
  537MOL0     C70766   7.549   2.021   4.418  0.4130 -0.9594 -0.1245
  537MOL0     C70767   7.529   1.874   4.438 -0.0852  0.9220  0.3720
  537MOL0     C70768   7.576   1.792   4.320  0.6122 -0.5193 -0.8225
  537MOL0     N70769   7.581   1.643   4.354  0.2443 -0.9796 -0.2907
  537MOL0     C70770   7.517   1.590   4.458  0.9417 -0.2071 -0.2998
  537MOL0     C70771   7.524   1.453   4.434 -1.2061 -0.0057  0.1797
  537MOL0     C70772   7.445   1.358   4.513  0.4329 -0.5335  0.0095
  537MOL0     C70773   7.514   1.213   4.522 -0.8742  0.0042 -0.4448
  537MOL0     C70774   7.418   1.110   4.582 -0.2904  0.2298  0.2380
  537MOL0     C70775   7.478   0.963   4.549  0.0359  0.3087 -0.2231
  537MOL0     O70776   7.389   0.849   4.581 -0.4076  0.1643 -0.0097
  537MOL0     C70777   7.275   0.832   4.508  0.0910  0.1836  0.1175
  537MOL0     C70778   7.178   0.747   4.558  0.3423 -0.0728  0.9024
  537MOL0     C70779   7.056   0.723   4.505 -0.4093  0.4272  0.4481
  537MOL0     C70780   7.030   0.776   4.378 -0.3435 -0.5469 -0.1011
  537MOL0     C70781   6.899   0.740   4.318  0.7164  0.5131  0.3723
  537MOL0     O70782   6.834   0.628   4.361  0.7791  0.1908  0.2278
  537MOL0     C70783   6.701   0.601   4.323 -0.0479  0.4976 -0.3905
  537MOL0     C70784   6.603   0.701   4.313  0.2115 -0.0076 -0.2816
  537MOL0     C70785   6.474   0.672   4.254 -0.8883  0.5985  0.3766
  537MOL0     C70786   6.457   0.545   4.197 -0.2673  0.4640  0.0988
  537MOL0     O70787   6.339   0.511   4.132 -0.1982 -0.0316  0.2248
  537MOL0     C70788   6.219   0.537   4.210 -0.9996  0.0411  0.9579
  537MOL0     C70789   6.096   0.488   4.139 -0.4132  1.4730 -0.1456
  537MOL0     C70790   5.981   0.494   4.237 -0.8537 -0.0717 -0.9086
  537MOL0     C70791   5.845   0.473   4.167 -0.7150 -0.0778 -0.0133
  537MOL0     C70792   5.738   0.474   4.273  0.0989 -0.0920  0.5720
  537MOL0     C70793   5.603   0.410   4.231 -0.4476 -0.3847  0.1911
  537MOL0     C70794   5.512   0.404   4.352  0.3719 -0.4354 -0.0930
  537MOL0     C70795   5.377   0.359   4.307  0.9647 -0.8502 -0.2846
  537MOL0    Cl70796   5.317   0.460   4.175  0.0043  0.2445 -0.7522
  537MOL0     C70797   6.551   0.451   4.204 -0.1590  0.5191  0.7017
  537MOL0     C70798   6.669   0.474   4.269  0.7319  0.7658 -0.4499
  537MOL0     O70799   6.849   0.824   4.243  0.2529 -0.0112  0.5691
  537MOL0     C70800   7.120   0.867   4.321  0.5378 -0.9217 -0.5198
  537MOL0     C70801   7.245   0.898   4.382  1.0321  1.0790  0.6164
  537MOL0     N70802   7.599   1.427   4.316  0.1816  0.2458 -0.3102
  537MOL0     N70803   7.620   1.546   4.273 -0.6238 -0.4433  0.4878
  537MOL0     C70804   8.216   2.644   4.330 -0.5185 -0.0169  0.0123
  537MOL0     C70805   8.332   2.722   4.314  0.0329  0.9493 -0.5672
  537MOL0     C70806   8.601   3.100   4.392  0.2915 -0.0324  0.3327
  537MOL0     C70807   8.651   3.207   4.477  0.4205  0.1680  0.8525
  537MOL0     C70808   8.762   3.282   4.442  0.2716 -1.0357  1.3382
  537MOL0     C70809   8.823   3.277   4.309  0.0357 -0.4597  0.0709
  537MOL0     O70810   8.902   3.381   4.256 -0.1704 -0.0704 -0.8726
  537MOL0     C70811   9.035   3.411   4.315 -0.6924 -0.3825 -0.3649
  537MOL0     C70812   9.161   3.381   4.231 -0.6384  0.4872  0.2033
  537MOL0     C70813   9.190   3.488   4.118  0.4012 -0.5904 -0.5098
  537MOL0     C70814   9.154   3.635   4.152 -0.2081  0.1983 -0.5745
  537MOL0     C70815   9.233   3.686   4.262 -0.0419  0.3114 -0.2968
  537MOL0     C70816   9.316   3.723   4.342  0.3663  0.8890  0.1377
  537MOL0     C70817   8.776   3.174   4.227  0.0020 -0.4638  0.0379
  537MOL0     C70818   8.673   3.085   4.273 -0.4578 -0.1558 -0.1609
  537MOL0     H70819   8.209   3.029   4.384 -1.0685  0.0003 -1.1918
  537MOL0     H70820   7.995   2.889   4.413 -0.2518 -2.9310  1.4198
  537MOL0     H70821   8.062   2.441   4.437 -0.4612 -0.2542  0.3817
  537MOL0     H70822   8.009   2.451   4.269 -1.3583 -2.8929  0.8274
  537MOL0     H70823   7.772   2.468   4.345 -0.3492  1.5772  2.0938
  537MOL0     H70824   7.823   2.447   4.507  2.5040 -0.2807  0.8001
  537MOL0     H70825   7.891   2.229   4.505  0.0681 -2.0589 -0.3237
  537MOL0     H70826   7.910   2.226   4.329 -1.8832 -0.6935 -1.0830
  537MOL0     H70827   7.629   2.285   4.458  0.1414  2.3368 -0.6505
  537MOL0     H70828   7.672   2.227   4.291  0.2165 -0.0064  0.6585
  537MOL0     H70829   7.716   2.078   4.553 -2.0794  0.1958  0.3062
  537MOL0     H70830   7.766   2.017   4.396 -1.4291 -2.1460  1.3780
  537MOL0     H70831   7.529   2.035   4.311 -0.5366 -0.7917  0.0722
  537MOL0     H70832   7.481   2.087   4.473  2.9289  1.1415  0.7130
  537MOL0     H70833   7.590   1.840   4.522 -0.4526 -1.4613 -0.2607
  537MOL0     H70834   7.422   1.857   4.453 -0.1620  1.2762  0.2365
  537MOL0     H70835   7.675   1.820   4.282  0.2734  1.6748 -0.2434
  537MOL0     H70836   7.506   1.802   4.237 -0.9439 -2.6749  0.1449
  537MOL0     H70837   7.457   1.645   4.529 -0.5855 -0.6809 -1.1806
  537MOL0     H70838   7.344   1.350   4.471  0.6696  0.5169 -0.8047
  537MOL0     H70839   7.425   1.399   4.612 -0.0924 -0.6794 -0.0286
  537MOL0     H70840   7.603   1.201   4.585 -0.0507 -1.9558 -1.8943
  537MOL0     H70841   7.541   1.178   4.422 -1.8863 -2.9358  0.2284
  537MOL0     H70842   7.403   1.114   4.690 -1.9998 -0.7196  0.0692
  537MOL0     H70843   7.315   1.120   4.546 -2.0286  0.1362  4.6001
  537MOL0     H70844   7.569   0.954   4.609 -1.1448  5.3802  2.9883
  537MOL0     H70845   7.517   0.966   4.447 -3.8679 -0.1439 -1.8914
  537MOL0     H70846   7.217   0.722   4.656  3.2799  5.9486  1.7142
  537MOL0     H70847   6.983   0.659   4.553 -1.4114  0.7021 -0.6634
  537MOL0     H70848   6.621   0.797   4.361  5.3610 -1.2940  1.0013
  537MOL0     H70849   6.406   0.757   4.257  1.1678  2.3481  0.0309
  537MOL0     H70850   6.204   0.640   4.242  0.0778 -0.6839  4.2233
  537MOL0     H70851   6.224   0.478   4.302  0.3910  1.3265  1.7441
  537MOL0     H70852   6.110   0.383   4.110 -1.2400  1.4765 -0.5658
  537MOL0     H70853   6.082   0.551   4.050 -1.3762  1.8439  0.2584
  537MOL0     H70854   5.972   0.583   4.300 -3.5133 -0.7826 -0.1848
  537MOL0     H70855   6.010   0.412   4.303  1.4704  1.1989 -0.2333
  537MOL0     H70856   5.835   0.562   4.103 -0.8878  0.0985  0.2587
  537MOL0     H70857   5.834   0.383   4.106 -2.6292  0.9880 -1.3426
  537MOL0     H70858   5.719   0.577   4.305 -0.6937 -0.0676  0.0335
  537MOL0     H70859   5.773   0.424   4.364  2.2814  2.2983  1.1716
  537MOL0     H70860   5.621   0.311   4.189  0.0940 -0.1102 -0.2370
  537MOL0     H70861   5.554   0.465   4.149 -0.3026 -0.2128  0.2202
  537MOL0     H70862   5.542   0.330   4.428 -1.6249 -2.6301 -1.3015
  537MOL0     H70863   5.507   0.508   4.385 -2.8565 -0.9934  1.6571
  537MOL0     H70864   5.308   0.358   4.392  0.7688  1.2784 -0.3670
  537MOL0     H70865   5.372   0.258   4.266 -2.1099 -1.0733  0.3416
  537MOL0     H70866   6.543   0.352   4.162  0.2990  0.4950  0.6696
  537MOL0     H70867   6.740   0.392   4.265 -1.5759 -1.3377 -0.9531
  537MOL0     H70868   7.097   0.905   4.222  4.0039 -0.9207 -1.4351
  537MOL0     H70869   7.325   0.960   4.341  1.6585 -0.6866 -0.9867
  537MOL0     H70870   8.211   2.537   4.310 -2.3449  0.1424 -0.5246
  537MOL0     H70871   8.429   2.678   4.293 -1.4159 -3.1255  0.2572
  537MOL0     H70872   8.598   3.227   4.570  1.0734 -1.4177  1.5945
  537MOL0     H70873   8.807   3.349   4.514 -0.1370 -1.0375  1.5969
  537MOL0     H70874   9.046   3.350   4.405 -0.6273  0.1266 -0.0192
  537MOL0     H70875   9.039   3.514   4.351  1.8298  0.4475 -2.6546
  537MOL0     H70876   9.258   3.383   4.283  0.7605  2.4497 -2.2236
  537MOL0     H70877   9.148   3.281   4.187 -2.4450  1.9237 -2.8900
  537MOL0     H70878   9.120   3.465   4.036 -2.5740  0.1898  1.6302
  537MOL0     H70879   9.294   3.484   4.085 -0.0854  1.6530 -2.6033
  537MOL0     H70880   9.185   3.711   4.080  0.1471  3.9537  3.1397
  537MOL0     H70881   9.047   3.649   4.170 -0.2604 -0.7627 -0.0557
  537MOL0     H70882   9.389   3.744   4.418  0.7564  0.8993 -0.2381
  537MOL0     H70883   8.805   3.157   4.124 -4.5007  2.3224 -1.9733
  537MOL0     H70884   8.647   2.998   4.214  0.5912 -2.9720  3.1531
  538MOL0     O70885   1.531   2.017   4.285  0.0495  0.0098 -0.8107
  538MOL0     C70886   1.557   1.994   4.404 -0.2787 -0.2188 -0.6472
  538MOL0     O70887   1.475   1.930   4.496 -0.0653 -0.1512 -0.1607
  538MOL0     C70888   1.360   1.861   4.455  0.0480 -0.0343  0.3764
  538MOL0     C70889   1.350   1.768   4.351 -0.0131  0.1488  0.3099
  538MOL0     C70890   1.226   1.697   4.343  0.2481 -1.1570  0.0014
  538MOL0     C70891   1.122   1.722   4.433  0.3803 -0.3449 -0.0536
  538MOL0     O70892   1.006   1.647   4.430 -0.5895  0.4546 -0.3709
  538MOL0     C70893   0.920   1.664   4.320 -0.5608 -0.1172  0.2416
  538MOL0     C70894   0.800   1.592   4.365 -0.1819  0.4187  0.6677
  538MOL0     C70895   0.699   1.665   4.452  0.3207  0.2517  0.2893
  538MOL0     C70896   0.583   1.570   4.502 -0.3531  1.1545 -0.2614
  538MOL0     C70897   0.510   1.483   4.401 -0.7863 -0.1373  0.7476
  538MOL0     C70898   0.415   1.559   4.304 -0.6850  0.5076  0.1819
  538MOL0     C70899   0.344   1.453   4.225 -0.8423  0.2156  0.4862
  538MOL0     C70900   0.242   1.517   4.129 -0.6324  0.4447 -1.0711
  538MOL0     N70901   0.130   1.583   4.204  0.0162  0.0413 -0.0836
  538MOL0     C70902   0.032   1.517   4.282 -0.1230 -0.4996  0.3866
  538MOL0     C70903  -0.048   1.615   4.314 -0.0463  1.2506 -0.1582
  538MOL0     C70904  -0.167   1.599   4.403  0.2293 -0.1600 -0.0431
  538MOL0     C70905  -0.119   1.546   4.536 -0.1475  0.0874  0.1158
  538MOL0     C70906  -0.240   1.517   4.640 -0.3471 -0.5455  0.1300
  538MOL0     C70907  -0.294   1.648   4.678  0.2765  0.2772  0.5407
  538MOL0     O70908  -0.337   1.639   4.815  0.1581 -0.1917  0.6412
  538MOL0     C70909  -0.475   1.647   4.837  0.2948 -0.3394 -0.7124
  538MOL0     C70910  -0.548   1.545   4.902  0.3040  0.2686 -0.2407
  538MOL0     C70911  -0.683   1.562   4.921  0.0146  0.1428  1.0409
  538MOL0     C70912  -0.759   1.672   4.879 -0.1109 -0.1381  0.2473
  538MOL0     C70913  -0.903   1.682   4.912  0.5878  1.0154 -0.3231
  538MOL0     O70914  -0.960   1.806   4.920 -0.0419  0.9372  0.7567
  538MOL0     C70915  -1.093   1.823   4.940  0.2293  0.2287 -0.5148
  538MOL0     C70916  -1.130   1.929   5.017  0.3341 -0.3417  0.3453
  538MOL0     C70917  -1.269   1.965   5.031 -0.2456 -0.1724  0.6583
  538MOL0     C70918  -1.368   1.881   4.971 -0.4344  0.3122  0.0471
  538MOL0     O70919  -1.503   1.879   5.010 -0.5713 -0.1484 -0.0465
  538MOL0     C70920  -1.546   2.014   5.016 -0.1470 -0.5701 -0.0646
  538MOL0     C70921  -1.694   2.017   4.963 -0.4821 -0.6534 -0.2779
  538MOL0     C70922  -1.700   2.024   4.811 -0.3186  0.1777  0.1428
  538MOL0     C70923  -1.841   2.038   4.768 -0.3263  0.6063  0.5573
  538MOL0     C70924  -1.853   2.066   4.609 -0.8616  0.4481 -0.4778
  538MOL0     C70925  -2.003   2.109   4.572 -0.6722  0.0162  0.8333
  538MOL0     C70926  -2.109   2.009   4.595  0.0110  0.4541  1.0020
  538MOL0     C70927  -2.241   2.037   4.519  0.3490 -0.0521  0.3466
  538MOL0    Cl70928  -2.354   1.883   4.519 -0.0958 -0.4815 -0.7476
  538MOL0     C70929  -1.324   1.762   4.912 -0.3013 -0.5556  0.4789
  538MOL0     C70930  -1.189   1.725   4.895 -0.1401 -0.9433 -0.4611
  538MOL0     O70931  -0.958   1.565   4.939  1.1558 -0.2040  0.3922
  538MOL0     C70932  -0.683   1.778   4.833 -0.1202  0.5123 -0.9414
  538MOL0     C70933  -0.548   1.770   4.815  0.2494  1.0559 -0.5551
  538MOL0     N70934  -0.002   1.733   4.260 -1.0614  0.0198 -0.3177
  538MOL0     N70935   0.108   1.712   4.190  0.2175 -0.9875 -0.4765
  538MOL0     C70936   1.133   1.820   4.521  0.0286  0.1693 -1.0631
  538MOL0     C70937   1.252   1.883   4.535  0.5772  0.2266 -0.0494
  538MOL0     C70938   1.699   2.016   4.447 -0.3873 -0.5446 -0.7036
  538MOL0     C70939   1.792   2.083   4.359 -0.2079 -0.0841 -0.3813
  538MOL0     C70940   1.931   2.085   4.387 -0.1109 -0.1858 -0.4825
  538MOL0     C70941   1.974   2.045   4.513  0.7419 -0.3518 -0.3421
  538MOL0     O70942   2.110   2.057   4.543 -0.5401  0.2236 -0.5306
  538MOL0     C70943   2.159   2.192   4.586 -0.1938  0.0570  0.0994
  538MOL0     C70944   2.289   2.175   4.666  1.2786 -0.2024  0.0521
  538MOL0     C70945   2.263   2.090   4.796  0.4152  0.4232 -0.2622
  538MOL0     C70946   2.388   2.049   4.859 -0.1256  0.0184 -0.7725
  538MOL0     C70947   2.392   1.916   4.927  0.6617  1.2039 -0.3708
  538MOL0     C70948   2.392   1.805   4.981  0.6388 -0.1252  0.1109
  538MOL0     C70949   1.883   2.005   4.605 -0.1864 -0.1223  0.0013
  538MOL0     C70950   1.753   1.982   4.578  0.3138  0.6282  0.2205
  538MOL0     H70951   1.442   1.748   4.296 -0.2811  3.5122 -1.5958
  538MOL0     H70952   1.222   1.628   4.259 -2.6237  0.7090 -1.6041
  538MOL0     H70953   0.960   1.618   4.229  0.4806  2.3202 -0.6238
  538MOL0     H70954   0.899   1.768   4.295 -1.8289 -0.8737 -2.1442
  538MOL0     H70955   0.840   1.509   4.424  1.9967 -0.1423 -1.4230
  538MOL0     H70956   0.769   1.539   4.274  0.2463  1.5063 -0.1345
  538MOL0     H70957   0.646   1.746   4.401  0.0013 -0.1453 -0.0189
  538MOL0     H70958   0.747   1.712   4.538 -1.8450  0.4642  1.4471
  538MOL0     H70959   0.631   1.500   4.571 -0.3925  0.5937 -0.7982
  538MOL0     H70960   0.503   1.624   4.554 -0.5066  0.4025  0.2872
  538MOL0     H70961   0.447   1.413   4.456 -2.9276 -0.2153 -1.6446
  538MOL0     H70962   0.586   1.423   4.349  2.3505  4.2302 -0.3293
  538MOL0     H70963   0.477   1.626   4.243 -1.6387  1.3909  0.1462
  538MOL0     H70964   0.346   1.618   4.365  1.2943  3.3311 -0.1110
  538MOL0     H70965   0.417   1.392   4.171 -0.1230 -0.1072  1.7970
  538MOL0     H70966   0.294   1.388   4.298 -2.5388  1.0146  0.0944
  538MOL0     H70967   0.200   1.440   4.063  0.9355 -0.7968 -0.6814
  538MOL0     H70968   0.292   1.582   4.057  0.0284 -2.4615 -3.4352
  538MOL0     H70969   0.019   1.416   4.319  1.3778 -0.4205  1.2037
  538MOL0     H70970  -0.238   1.527   4.362  0.3297  0.5623 -1.5460
  538MOL0     H70971  -0.219   1.693   4.423  2.0541  0.7919  0.4345
  538MOL0     H70972  -0.050   1.610   4.592 -0.3647 -1.2814  2.0398
  538MOL0     H70973  -0.073   1.448   4.516 -1.6035 -0.3053 -1.5592
  538MOL0     H70974  -0.318   1.457   4.591 -1.9788  0.9929  0.7196
  538MOL0     H70975  -0.210   1.454   4.724 -1.0263  1.3160  1.8619
  538MOL0     H70976  -0.366   1.689   4.606 -1.0746 -0.4437  1.4304
  538MOL0     H70977  -0.213   1.722   4.686  0.1210  0.3728  1.3135
  538MOL0     H70978  -0.499   1.451   4.925 -1.1862 -0.6802 -0.7697
  538MOL0     H70979  -0.730   1.475   4.966 -0.0793 -0.8168 -0.8216
  538MOL0     H70980  -1.051   1.984   5.067  1.2781 -0.4714 -0.9406
  538MOL0     H70981  -1.301   2.043   5.099  2.2154  0.7592  0.8472
  538MOL0     H70982  -1.479   2.080   4.961  0.4447  1.2452  2.6263
  538MOL0     H70983  -1.545   2.050   5.120 -1.4110  1.1798 -0.6123
  538MOL0     H70984  -1.744   2.105   5.005  1.0896  0.6829 -1.1072
  538MOL0     H70985  -1.740   1.925   4.999  2.1677 -1.5362  1.0733
  538MOL0     H70986  -1.640   1.941   4.772  0.6815 -0.0834  2.1202
  538MOL0     H70987  -1.647   2.116   4.784 -0.2355  1.2361  3.5071
  538MOL0     H70988  -1.902   1.949   4.788  0.4831 -0.4880 -1.5591
  538MOL0     H70989  -1.898   2.116   4.819  1.4768  2.2868  0.1075
  538MOL0     H70990  -1.823   1.978   4.552  0.8467  0.3084  0.5677
  538MOL0     H70991  -1.779   2.144   4.584 -0.3274  0.6258  1.5266
  538MOL0     H70992  -2.001   2.124   4.463  0.5530  0.3346  0.8902
  538MOL0     H70993  -2.037   2.202   4.619  1.4318  1.3270 -0.0424
  538MOL0     H70994  -2.074   1.911   4.565 -1.9698 -0.2375  0.7599
  538MOL0     H70995  -2.126   1.985   4.700  2.3554 -1.1822  1.0661
  538MOL0     H70996  -2.219   2.060   4.415 -1.2274  0.9639  0.1905
  538MOL0     H70997  -2.290   2.129   4.555 -0.9250 -0.9072  0.9108
  538MOL0     H70998  -1.399   1.694   4.874  0.2409 -1.2410  0.6035
  538MOL0     H70999  -1.177   1.630   4.844  1.6706 -0.9750 -0.0445
  538MOL0     H71000  -0.733   1.858   4.780 -1.0287  0.2690 -0.4563
  538MOL0     H71001  -0.489   1.852   4.776  1.4152 -0.7427 -2.8969
  538MOL0     H71002   1.055   1.841   4.593  0.0793  1.2089 -1.2890
  538MOL0     H71003   1.281   1.958   4.608  2.5522  0.9497 -1.4723
  538MOL0     H71004   1.766   2.127   4.263  2.6961 -0.4249 -1.4179
  538MOL0     H71005   2.005   2.127   4.320  2.0823 -0.8780  1.3580
  538MOL0     H71006   2.072   2.235   4.636 -2.0447 -2.9490 -0.2628
  538MOL0     H71007   2.186   2.239   4.492 -0.7949  1.0744  0.4243
  538MOL0     H71008   2.348   2.115   4.596  0.1539 -2.1050  0.6467
  538MOL0     H71009   2.332   2.274   4.684  0.3986 -0.2296  2.7056
  538MOL0     H71010   2.208   1.999   4.771  3.8919 -1.1862 -2.7874
  538MOL0     H71011   2.194   2.142   4.863 -0.9161  1.5942 -2.4075
  538MOL0     H71012   2.475   2.044   4.792  1.3183 -0.9574  1.0927
  538MOL0     H71013   2.416   2.125   4.932 -2.5147 -0.9212  1.2452
  538MOL0     H71014   2.398   1.704   5.018 -1.4113 -0.7072 -1.0059
  538MOL0     H71015   1.920   1.984   4.705 -1.5960 -4.5273 -0.1971
  538MOL0     H71016   1.678   1.945   4.648 -0.4485 -0.2725 -1.0287
  539MOL0     O71017   5.164   8.910  11.232  0.3646  0.6659  0.1990
  539MOL0     C71018   5.195   8.900  11.350 -0.0768 -0.1365  0.3351
  539MOL0     O71019   5.123   8.829  11.439 -0.5641  0.3420  0.5606
  539MOL0     C71020   4.989   8.787  11.423 -0.6924 -0.5103 -0.2106
  539MOL0     C71021   4.922   8.761  11.544 -0.1117  0.3726 -0.5772
  539MOL0     C71022   4.788   8.739  11.546  1.1381  0.0807  0.6097
  539MOL0     C71023   4.712   8.727  11.427 -0.2484  0.5897  0.4432
  539MOL0     O71024   4.582   8.694  11.422 -0.2538  0.8046  0.1628
  539MOL0     C71025   4.484   8.781  11.478 -0.0750 -0.2716 -0.1836
  539MOL0     C71026   4.467   8.904  11.378 -0.7650 -0.2643 -0.5472
  539MOL0     C71027   4.425   8.842  11.247 -0.1779  0.2339 -1.0486
  539MOL0     C71028   4.354   8.946  11.158  0.2083  0.0583 -0.0449
  539MOL0     C71029   4.326   8.895  11.007  0.0541  0.2918  0.3525
  539MOL0     C71030   4.266   8.754  11.015  0.4341 -0.3295  0.0991
  539MOL0     C71031   4.219   8.700  10.887  0.6502 -0.3060  0.6423
  539MOL0     C71032   4.123   8.578  10.899  0.6346 -1.1479 -0.2349
  539MOL0     N71033   4.088   8.540  10.760 -0.6535  0.4853 -0.2896
  539MOL0     C71034   4.001   8.608  10.684  0.2785 -0.5024  0.2105
  539MOL0     C71035   4.013   8.559  10.560 -0.5038 -0.5960 -0.3071
  539MOL0     C71036   3.943   8.601  10.431 -0.1226  0.1528 -0.2517
  539MOL0     C71037   3.792   8.571  10.443 -0.1367  0.1223 -0.5898
  539MOL0     C71038   3.732   8.674  10.534  0.5932 -0.8381 -0.2558
  539MOL0     C71039   3.573   8.679  10.520  0.3134 -0.2332 -0.0542
  539MOL0     O71040   3.500   8.560  10.561  0.3248 -0.0287 -0.1536
  539MOL0     C71041   3.357   8.562  10.555  0.0657 -1.5480  0.5280
  539MOL0     C71042   3.285   8.655  10.478  0.4986  0.1853  0.5135
  539MOL0     C71043   3.146   8.659  10.479 -0.2131 -0.3359  0.0739
  539MOL0     C71044   3.071   8.579  10.564  0.5839  0.1349 -0.7521
  539MOL0     C71045   2.924   8.600  10.579  0.3147 -0.2193 -0.0360
  539MOL0     O71046   2.856   8.676  10.482 -0.7865 -0.0012  0.6013
  539MOL0     C71047   2.720   8.675  10.490  0.4233  0.3274 -0.2212
  539MOL0     C71048   2.640   8.602  10.399 -0.6958  0.5201 -0.4383
  539MOL0     C71049   2.500   8.619  10.405 -0.8751  0.3623  0.1797
  539MOL0     C71050   2.440   8.724  10.479 -0.0068 -1.1262 -0.3993
  539MOL0     O71051   2.303   8.734  10.475  0.1417  0.8159  0.3114
  539MOL0     C71052   2.236   8.851  10.506  0.5837 -0.4143 -0.5561
  539MOL0     C71053   2.090   8.823  10.480  0.0662  0.0685 -0.9866
  539MOL0     C71054   2.028   8.835  10.338  0.4695 -0.7833  0.1470
  539MOL0     C71055   1.887   8.776  10.332  0.4293 -0.0864  0.1885
  539MOL0     C71056   1.813   8.787  10.196 -0.4328 -0.1024 -0.5780
  539MOL0     C71057   1.768   8.925  10.151 -1.0736  0.3150 -0.1121
  539MOL0     C71058   1.697   8.933  10.014  0.2185 -0.7854  0.0599
  539MOL0     C71059   1.667   9.078   9.969  0.3562  0.3928  0.3725
  539MOL0    Cl71060   1.559   9.164  10.090 -0.2120 -0.4610  0.0251
  539MOL0     C71061   2.520   8.802  10.563 -0.2222  0.1495  1.2130
  539MOL0     C71062   2.657   8.778  10.567 -0.0402 -0.4368 -0.0113
  539MOL0     O71063   2.879   8.548  10.682  0.3550 -0.7839 -0.6428
  539MOL0     C71064   3.143   8.480  10.637  0.4851  0.6035  0.0935
  539MOL0     C71065   3.283   8.477  10.638 -0.7068  0.4198  0.0609
  539MOL0     N71066   4.099   8.446  10.572 -0.1749 -0.3428 -0.5912
  539MOL0     N71067   4.149   8.443  10.687  0.1361  0.0976  0.1667
  539MOL0     C71068   4.784   8.735  11.305  0.3314  0.0132 -0.4613
  539MOL0     C71069   4.922   8.768  11.305 -0.2014  0.5097 -0.0967
  539MOL0     C71070   5.323   8.957  11.389 -0.1933  0.6203 -0.8136
  539MOL0     C71071   5.395   8.914  11.507  0.8485 -0.2772  0.0783
  539MOL0     C71072   5.519   8.964  11.543  0.5019 -0.7261  0.3936
  539MOL0     C71073   5.579   9.054  11.458 -0.9431 -0.5184 -0.2871
  539MOL0     O71074   5.691   9.119  11.485 -0.4709 -0.3738  0.0855
  539MOL0     C71075   5.725   9.143  11.626  0.1688 -0.3067 -0.1481
  539MOL0     C71076   5.811   9.276  11.638  0.3557  0.0399  0.4234
  539MOL0     C71077   5.862   9.302  11.778  0.0780  0.2166 -0.1005
  539MOL0     C71078   5.966   9.414  11.783  0.1692 -0.3594  1.1331
  539MOL0     C71079   6.031   9.413  11.907 -0.6917  0.4828 -0.7950
  539MOL0     C71080   6.088   9.400  12.014  0.1603 -0.1857  0.5028
  539MOL0     C71081   5.511   9.090  11.341 -0.5212 -0.1837  0.1889
  539MOL0     C71082   5.386   9.049  11.304  0.3387  0.2962  0.4854
  539MOL0     H71083   4.976   8.766  11.638 -2.4510 -2.4218  1.1021
  539MOL0     H71084   4.723   8.720  11.631 -0.8483  2.9531 -0.1170
  539MOL0     H71085   4.516   8.826  11.572 -0.7132  0.5907 -0.3754
  539MOL0     H71086   4.387   8.732  11.493  1.1050 -2.3353  1.1651
  539MOL0     H71087   4.546   8.978  11.367 -1.7215  0.7437 -0.8419
  539MOL0     H71088   4.378   8.965  11.398  0.0842  0.5771  0.8291
  539MOL0     H71089   4.365   8.754  11.268  3.2222 -2.0142  0.0558
  539MOL0     H71090   4.520   8.810  11.202  0.8153  0.8896  0.4964
  539MOL0     H71091   4.257   8.974  11.200 -1.3040 -2.8403 -1.3232
  539MOL0     H71092   4.412   9.037  11.179  1.0630 -0.8069  1.5511
  539MOL0     H71093   4.416   8.897  10.945 -3.6335  2.0512 -5.8006
  539MOL0     H71094   4.261   8.966  10.955 -3.5919 -1.0736  2.6071
  539MOL0     H71095   4.176   8.744  11.076  1.3882 -1.0766  1.4341
  539MOL0     H71096   4.339   8.686  11.059 -0.5514 -1.0211  0.7033
  539MOL0     H71097   4.159   8.777  10.837 -0.4001 -1.3079  0.3158
  539MOL0     H71098   4.304   8.678  10.821  0.0684 -0.3905 -0.0891
  539MOL0     H71099   4.037   8.607  10.960  1.0723 -0.4529  0.0673
  539MOL0     H71100   4.183   8.500  10.947  0.1462 -1.4317 -0.0800
  539MOL0     H71101   3.959   8.702  10.719  1.0492  0.8056 -2.1569
  539MOL0     H71102   3.988   8.546  10.347  0.6041  3.6483 -2.3677
  539MOL0     H71103   3.964   8.706  10.409  2.0473 -0.6145 -2.2542
  539MOL0     H71104   3.769   8.466  10.463  0.4182 -0.2105 -1.5935
  539MOL0     H71105   3.756   8.592  10.341  0.0386  1.1886 -0.4360
  539MOL0     H71106   3.762   8.652  10.637 -0.2897 -5.7248 -0.7992
  539MOL0     H71107   3.775   8.768  10.497 -2.6576  0.7457 -0.3773
  539MOL0     H71108   3.547   8.706  10.417 -0.1363  0.2726  0.1814
  539MOL0     H71109   3.533   8.755  10.589  0.6817  0.7357 -0.8786
  539MOL0     H71110   3.321   8.737  10.416 -0.0216 -0.5409 -0.7862
  539MOL0     H71111   3.093   8.726  10.412 -1.8516  0.7749  2.3510
  539MOL0     H71112   2.679   8.525  10.333 -0.2675 -1.3056  1.7864
  539MOL0     H71113   2.449   8.548  10.340  0.1967  0.0312 -0.3212
  539MOL0     H71114   2.268   8.937  10.446 -0.4874  1.0659  0.9063
  539MOL0     H71115   2.245   8.883  10.610  3.1739 -2.0939 -0.1619
  539MOL0     H71116   2.042   8.903  10.537  1.4151  1.8658 -2.2557
  539MOL0     H71117   2.058   8.732  10.530  0.5500  0.1720 -0.4807
  539MOL0     H71118   2.090   8.785  10.263  1.1518  0.8579 -0.4475
  539MOL0     H71119   2.030   8.941  10.312  0.4518 -1.0724 -1.0949
  539MOL0     H71120   1.902   8.668  10.343 -0.6109 -0.4515 -1.5607
  539MOL0     H71121   1.823   8.814  10.412 -0.0071  0.9527 -0.6262
  539MOL0     H71122   1.719   8.733  10.200 -1.9373  2.2851 -1.2423
  539MOL0     H71123   1.876   8.742  10.119 -2.3590 -2.9736 -0.6085
  539MOL0     H71124   1.860   8.984  10.153 -0.0448 -1.2500  0.8669
  539MOL0     H71125   1.706   8.973  10.227 -0.6838 -1.8777  1.7025
  539MOL0     H71126   1.756   8.890   9.933  2.6358  1.4829  0.4832
  539MOL0     H71127   1.607   8.871  10.027 -0.2331 -0.0318  0.6325
  539MOL0     H71128   1.622   9.078   9.869  0.4239 -0.3028  0.3383
  539MOL0     H71129   1.759   9.137   9.963  0.9649 -0.4422  1.2487
  539MOL0     H71130   2.474   8.878  10.625  0.4278 -0.3569  2.3656
  539MOL0     H71131   2.735   8.834  10.618  2.6335 -0.8592 -3.2314
  539MOL0     H71132   3.087   8.417  10.706 -0.0969 -2.4755 -2.9004
  539MOL0     H71133   3.339   8.413  10.705 -0.9447 -0.0192 -0.1525
  539MOL0     H71134   4.735   8.725  11.209  1.6131  1.3212 -1.2822
  539MOL0     H71135   4.975   8.793  11.214 -0.4070 -0.3631 -0.4589
  539MOL0     H71136   5.348   8.845  11.576 -2.2061 -0.4772 -2.0121
  539MOL0     H71137   5.565   8.936  11.637  0.9666 -0.4291  0.2570
  539MOL0     H71138   5.777   9.056  11.665 -1.6866 -1.6270 -0.4892
  539MOL0     H71139   5.636   9.157  11.689 -0.8325 -0.0151 -1.5701
  539MOL0     H71140   5.894   9.265  11.567  0.0253  0.6416 -0.0664
  539MOL0     H71141   5.748   9.357  11.601 -2.6690 -2.4247 -0.2560
  539MOL0     H71142   5.906   9.209  11.815  1.6055  1.2462  0.8001
  539MOL0     H71143   5.772   9.330  11.833  0.1340 -0.2075  0.2098
  539MOL0     H71144   6.036   9.413  11.699 -1.1361  3.3652 -0.2236
  539MOL0     H71145   5.905   9.505  11.772 -2.3798 -1.9347  1.5256
  539MOL0     H71146   6.139   9.380  12.106  1.2822  0.9815  0.1749
  539MOL0     H71147   5.564   9.151  11.268  3.4087 -2.4266  0.9115
  539MOL0     H71148   5.351   9.086  11.209  1.2763 -2.9721 -1.2815
  540MOL0     O71149   0.635   8.950   7.166  0.3088  0.0427 -0.0317
  540MOL0     C71150   0.612   9.023   7.261 -0.0681 -0.4440 -0.0851
  540MOL0     O71151   0.562   8.981   7.381 -0.0631 -0.3097  0.2479
  540MOL0     C71152   0.512   8.852   7.389  0.0862 -0.0208  0.6074
  540MOL0     C71153   0.388   8.828   7.324 -0.3290  0.5737  0.0962
  540MOL0     C71154   0.337   8.696   7.326 -0.6220  0.5923 -0.3150
  540MOL0     C71155   0.412   8.585   7.383  0.2518 -0.1678 -0.9448
  540MOL0     O71156   0.369   8.457   7.380  0.7969 -0.0859  0.1004
  540MOL0     C71157   0.243   8.423   7.314  0.3501 -0.0261  0.0366
  540MOL0     C71158   0.118   8.424   7.406 -0.4011  0.3527  0.5112
  540MOL0     C71159   0.016   8.347   7.330  0.1859 -0.3253 -0.6963
  540MOL0     C71160  -0.050   8.422   7.233  0.1341  0.0106  0.2657
  540MOL0     C71161  -0.180   8.347   7.199  0.3605  0.5694  0.3941
  540MOL0     C71162  -0.268   8.436   7.114 -0.1800  0.6560  1.1720
  540MOL0     C71163  -0.407   8.370   7.082  0.1952  0.5145  0.0695
  540MOL0     C71164  -0.502   8.361   7.203  0.2069 -0.2667  0.5958
  540MOL0     N71165  -0.639   8.314   7.158 -0.1250  0.1731  0.2696
  540MOL0     C71166  -0.719   8.365   7.052 -0.0752  0.5365 -0.1220
  540MOL0     C71167  -0.840   8.309   7.061 -0.3319 -0.3035 -0.4203
  540MOL0     C71168  -0.956   8.335   6.970 -0.6878  0.3400  0.5364
  540MOL0     C71169  -1.093   8.299   7.035  0.7737  0.5745  0.2440
  540MOL0     C71170  -1.204   8.367   6.945  0.4985  0.0738 -0.2851
  540MOL0     C71171  -1.345   8.327   6.998  0.3313 -0.0439  0.6863
  540MOL0     O71172  -1.364   8.384   7.133 -0.4035 -0.1126  0.1103
  540MOL0     C71173  -1.484   8.428   7.180  0.2550  0.3070  0.2736
  540MOL0     C71174  -1.499   8.397   7.314 -0.1181  1.0689 -0.5584
  540MOL0     C71175  -1.612   8.434   7.380  0.7345  0.3172  0.1182
  540MOL0     C71176  -1.720   8.501   7.314 -0.1955  0.0890  0.1034
  540MOL0     C71177  -1.846   8.542   7.389 -0.1985 -0.0285 -0.2931
  540MOL0     O71178  -1.950   8.606   7.327  1.0702 -0.0890 -0.5252
  540MOL0     C71179  -2.053   8.673   7.389  0.5451  1.3561  0.0176
  540MOL0     C71180  -2.072   8.691   7.527  0.1190  0.1258  0.2546
  540MOL0     C71181  -2.191   8.744   7.567 -0.1088 -0.2998  0.2208
  540MOL0     C71182  -2.279   8.806   7.484  0.5937  0.4027 -0.1515
  540MOL0     O71183  -2.383   8.890   7.519 -1.1440  0.3390  0.2780
  540MOL0     C71184  -2.387   8.936   7.654  0.7454 -1.2632 -0.0747
  540MOL0     C71185  -2.505   9.035   7.681  0.1206  0.2064  0.2472
  540MOL0     C71186  -2.649   8.986   7.664 -0.0846 -0.4188  0.2637
  540MOL0     C71187  -2.737   9.096   7.614  0.5334  0.2468 -1.2110
  540MOL0     C71188  -2.730   9.151   7.468  0.7361  0.3347 -0.2181
  540MOL0     C71189  -2.731   9.039   7.358 -0.3320 -0.5401  0.1514
  540MOL0     C71190  -2.694   9.101   7.219 -0.5646  0.5592 -0.5367
  540MOL0     C71191  -2.698   8.983   7.121 -0.3009  1.2414 -0.6344
  540MOL0    Cl71192  -2.564   8.854   7.155 -0.0355 -0.4076  0.3431
  540MOL0     C71193  -2.266   8.790   7.344 -0.0783  0.8922  0.4663
  540MOL0     C71194  -2.147   8.731   7.302  0.1467  0.6725 -1.1399
  540MOL0     O71195  -1.841   8.515   7.513  0.1136  0.0069 -0.1799
  540MOL0     C71196  -1.708   8.533   7.175 -0.7570 -0.7709 -0.5665
  540MOL0     C71197  -1.588   8.499   7.117 -0.1873  0.0507  0.7861
  540MOL0     N71198  -0.837   8.222   7.167  0.8487  0.0560 -0.0844
  540MOL0     N71199  -0.721   8.222   7.213  0.2628  0.5324 -0.5926
  540MOL0     C71200   0.524   8.609   7.466 -1.5425  0.0837 -0.2873
  540MOL0     C71201   0.575   8.740   7.462  0.3353 -0.6304 -0.0760
  540MOL0     C71202   0.638   9.169   7.259  0.3714 -0.6010  1.0168
  540MOL0     C71203   0.712   9.228   7.149 -0.6416  0.0699 -0.3101
  540MOL0     C71204   0.733   9.364   7.138  0.1884 -0.1936  0.7176
  540MOL0     C71205   0.678   9.451   7.225  0.3406 -0.1098 -0.2940
  540MOL0     O71206   0.674   9.591   7.210  0.4702 -0.3386  0.8516
  540MOL0     C71207   0.768   9.646   7.114 -0.1973 -0.2315 -0.4012
  540MOL0     C71208   0.771   9.792   7.110 -0.4215 -1.0656  0.2513
  540MOL0     C71209   0.880   9.842   7.010 -0.9904  0.5704 -0.0972
  540MOL0     C71210   1.023   9.822   7.059 -0.0115 -0.4460  0.0489
  540MOL0     C71211   1.064   9.922   7.155  0.3819  0.3998 -0.2299
  540MOL0     C71212   1.095  10.017   7.222  0.8263 -0.1952 -1.0291
  540MOL0     C71213   0.602   9.393   7.337 -0.5864  0.2115 -0.2971
  540MOL0     C71214   0.575   9.255   7.353 -0.6072  0.7683  0.7656
  540MOL0     H71215   0.319   8.900   7.283  0.3745  0.3780 -1.5126
  540MOL0     H71216   0.251   8.680   7.262  0.8513 -0.6455 -2.0700
  540MOL0     H71217   0.264   8.325   7.270  1.0838  0.7343 -1.3478
  540MOL0     H71218   0.221   8.486   7.228 -1.2373 -1.5448 -0.7361
  540MOL0     H71219   0.084   8.524   7.436  1.2923  0.8331  0.9405
  540MOL0     H71220   0.151   8.366   7.492  2.5526  1.2848  0.1248
  540MOL0     H71221  -0.052   8.295   7.397  1.4248 -2.0201 -0.7029
  540MOL0     H71222   0.069   8.266   7.280  1.8091  0.0785  0.2720
  540MOL0     H71223  -0.077   8.517   7.281  1.7619  0.2419  0.7603
  540MOL0     H71224   0.017   8.449   7.151 -1.3902  1.2594 -0.6332
  540MOL0     H71225  -0.235   8.309   7.285  0.4934  0.6017  0.4931
  540MOL0     H71226  -0.149   8.257   7.146 -0.2430 -0.5376  1.8434
  540MOL0     H71227  -0.219   8.461   7.019 -1.3459 -0.4002  0.2552
  540MOL0     H71228  -0.279   8.527   7.174 -1.3950  0.7075  0.9064
  540MOL0     H71229  -0.458   8.429   7.005 -1.2489 -0.0820  0.5233
  540MOL0     H71230  -0.397   8.272   7.034 -2.4912  1.4771 -2.7957
  540MOL0     H71231  -0.509   8.452   7.264  1.8093 -0.2884  0.8644
  540MOL0     H71232  -0.467   8.290   7.278 -0.4786 -0.6894  0.5160
  540MOL0     H71233  -0.693   8.439   6.977  0.9082 -1.7290 -2.1724
  540MOL0     H71234  -0.928   8.278   6.881 -0.0586 -0.4380  1.2315
  540MOL0     H71235  -0.960   8.437   6.930  1.7929 -0.0428 -0.8689
  540MOL0     H71236  -1.097   8.341   7.136  0.5801  4.7762 -1.2995
  540MOL0     H71237  -1.124   8.194   7.036  0.2321  0.6360 -2.3418
  540MOL0     H71238  -1.197   8.476   6.942  3.2980  0.0227  1.2382
  540MOL0     H71239  -1.192   8.330   6.842 -1.0741 -0.3483 -0.3467
  540MOL0     H71240  -1.349   8.217   7.002  1.1382 -0.0524  1.7117
  540MOL0     H71241  -1.429   8.363   6.938 -2.1045 -3.0789  1.9840
  540MOL0     H71242  -1.415   8.356   7.368 -2.7855 -0.5815  2.7540
  540MOL0     H71243  -1.621   8.413   7.486  3.2886 -0.8207  0.1874
  540MOL0     H71244  -2.000   8.664   7.603  0.4473 -1.2965 -0.5141
  540MOL0     H71245  -2.199   8.753   7.675  2.0131 -0.9189  0.4878
  540MOL0     H71246  -2.292   8.985   7.678  0.1419 -1.3952  3.0734
  540MOL0     H71247  -2.395   8.854   7.727  3.3210  0.0542  1.8448
  540MOL0     H71248  -2.496   9.123   7.618  4.2142 -0.1509  0.0782
  540MOL0     H71249  -2.496   9.078   7.781 -1.3231  1.6501 -0.2048
  540MOL0     H71250  -2.685   8.944   7.758  0.9393  3.0041  2.3584
  540MOL0     H71251  -2.664   8.915   7.582  1.7716  2.6499 -2.9985
  540MOL0     H71252  -2.838   9.058   7.633  1.4473 -0.6750  2.6345
  540MOL0     H71253  -2.719   9.182   7.678  4.6589 -0.7636 -0.7201
  540MOL0     H71254  -2.642   9.217   7.459  0.9572  0.2376  1.1312
  540MOL0     H71255  -2.818   9.214   7.452 -2.9192 -4.1020  0.6570
  540MOL0     H71256  -2.832   8.997   7.346 -0.6632  0.6465 -1.4465
  540MOL0     H71257  -2.671   8.954   7.392 -2.1296 -1.1016  2.1430
  540MOL0     H71258  -2.763   9.178   7.186 -2.0364 -0.4796  0.0303
  540MOL0     H71259  -2.590   9.137   7.222  0.1468 -1.3443  1.4744
  540MOL0     H71260  -2.670   9.017   7.021  0.6699 -0.1022 -0.8419
  540MOL0     H71261  -2.795   8.934   7.120  0.5644 -1.1936  4.1271
  540MOL0     H71262  -2.328   8.824   7.262 -0.9019 -0.7639  0.3584
  540MOL0     H71263  -2.129   8.724   7.195 -0.9290 -2.0841 -1.2261
  540MOL0     H71264  -1.792   8.580   7.125  1.3334  0.8347 -2.8548
  540MOL0     H71265  -1.581   8.526   7.012 -0.2868  3.2841  1.4865
  540MOL0     H71266   0.585   8.534   7.516 -0.0405  0.9997 -0.6801
  540MOL0     H71267   0.660   8.763   7.525  1.3681  1.4469 -2.0881
  540MOL0     H71268   0.753   9.152   7.084 -2.8554  1.8608 -4.1307
  540MOL0     H71269   0.788   9.400   7.052 -0.7210 -3.1282 -1.2326
  540MOL0     H71270   0.746   9.618   7.010 -0.8555 -0.5505 -0.1851
  540MOL0     H71271   0.869   9.615   7.142 -0.1109  1.0788  0.7943
  540MOL0     H71272   0.672   9.826   7.079 -1.1141 -0.3288  2.9506
  540MOL0     H71273   0.786   9.832   7.211  1.1713 -0.7381 -0.0965
  540MOL0     H71274   0.863   9.950   6.997  1.1403  1.3935  2.8429
  540MOL0     H71275   0.865   9.790   6.915 -2.0920  0.5461  0.0656
  540MOL0     H71276   1.035   9.723   7.105  1.5262 -0.3538 -0.0910
  540MOL0     H71277   1.100   9.833   6.981  1.0760  0.4597  1.2142
  540MOL0     H71278   1.118  10.100   7.286  2.7098 -0.9627 -0.6286
  540MOL0     H71279   0.556   9.450   7.417  0.6722  1.5096 -0.4494
  540MOL0     H71280   0.514   9.213   7.433 -0.9228  0.9059  0.5964
  541MOL0     O71281   2.662   5.228   4.550 -0.5220  0.2134 -0.4191
  541MOL0     C71282   2.619   5.320   4.610 -0.0695 -0.1696  0.7289
  541MOL0     O71283   2.491   5.354   4.607  0.6061 -0.4142 -0.4993
  541MOL0     C71284   2.409   5.278   4.528 -0.3044  1.6560  0.2580
  541MOL0     C71285   2.404   5.306   4.390 -0.0495  0.2636  1.1566
  541MOL0     C71286   2.335   5.221   4.299  0.4635 -0.5274  0.3498
  541MOL0     C71287   2.259   5.107   4.347  0.8862  0.1495 -0.3829
  541MOL0     O71288   2.176   5.042   4.258 -0.2815 -0.5500 -0.4520
  541MOL0     C71289   2.041   5.006   4.303 -0.9597  0.0497  0.3995
  541MOL0     C71290   1.936   5.035   4.200 -0.1101 -0.2184  0.1744
  541MOL0     C71291   1.897   5.187   4.211  0.8136  0.8014  0.5018
  541MOL0     C71292   1.796   5.210   4.095 -0.1546  0.6559  0.2487
  541MOL0     C71293   1.760   5.357   4.068 -0.2314  0.1148 -0.7365
  541MOL0     C71294   1.658   5.368   3.948  0.1346 -0.6523 -0.4897
  541MOL0     C71295   1.631   5.511   3.931  0.7679 -0.1979 -0.1820
  541MOL0     C71296   1.566   5.552   3.806 -0.0996  0.4688 -0.1033
  541MOL0     N71297   1.431   5.510   3.797 -0.1346 -0.1605  0.1737
  541MOL0     C71298   1.377   5.393   3.749 -0.2938 -0.4768 -0.3661
  541MOL0     C71299   1.243   5.406   3.768 -0.6980  0.3175 -0.4176
  541MOL0     C71300   1.144   5.315   3.709  0.3493 -0.1774  0.7426
  541MOL0     C71301   1.042   5.272   3.820  0.4567  0.8428  0.2313
  541MOL0     C71302   0.953   5.162   3.756 -0.0457 -0.1342  0.0190
  541MOL0     C71303   0.831   5.131   3.854  1.3657  0.5022  0.4618
  541MOL0     O71304   0.785   4.991   3.815 -1.0642  0.0730  0.2026
  541MOL0     C71305   0.664   4.936   3.822  0.2872 -0.1992 -0.6482
  541MOL0     C71306   0.657   4.793   3.823 -0.1122 -0.2203 -0.5002
  541MOL0     C71307   0.532   4.729   3.810  0.1472  0.1725 -0.3320
  541MOL0     C71308   0.416   4.803   3.817  0.0529 -0.9121  0.3223
  541MOL0     C71309   0.287   4.737   3.809  0.2928  0.2695  0.7248
  541MOL0     O71310   0.181   4.822   3.814  0.3600 -0.0392  1.4103
  541MOL0     C71311   0.051   4.791   3.770  0.1425 -0.4877  0.3744
  541MOL0     C71312   0.009   4.714   3.660  0.4129  0.1493  0.0982
  541MOL0     C71313  -0.126   4.678   3.638 -0.2499 -0.9919 -0.0290
  541MOL0     C71314  -0.220   4.737   3.728  0.7017 -0.8966  0.1745
  541MOL0     O71315  -0.358   4.708   3.711 -0.7763 -0.0882 -0.0806
  541MOL0     C71316  -0.461   4.796   3.764 -0.8717  0.3935 -0.3474
  541MOL0     C71317  -0.588   4.752   3.707  0.2638 -0.6616 -0.2735
  541MOL0     C71318  -0.612   4.596   3.684 -1.0729 -0.0375  0.7592
  541MOL0     C71319  -0.745   4.572   3.622  0.1976 -0.8593 -0.9930
  541MOL0     C71320  -0.740   4.608   3.476 -0.7342 -0.6910 -0.6894
  541MOL0     C71321  -0.876   4.578   3.407  0.7206  0.4180 -0.3243
  541MOL0     C71322  -0.890   4.565   3.258 -0.9544  0.3544  0.4959
  541MOL0     C71323  -0.850   4.694   3.187 -0.1058 -0.3066 -0.4956
  541MOL0    Cl71324  -0.975   4.816   3.220 -0.3486  0.0418 -0.3075
  541MOL0     C71325  -0.180   4.835   3.820 -0.6794  0.5142 -0.7321
  541MOL0     C71326  -0.046   4.860   3.846 -0.4970 -0.1073  0.4032
  541MOL0     O71327   0.281   4.617   3.776 -0.6723 -0.3423  0.1931
  541MOL0     C71328   0.424   4.942   3.835  0.3114  0.8062 -0.7856
  541MOL0     C71329   0.547   5.012   3.844 -0.4322  1.3313 -0.4029
  541MOL0     N71330   1.213   5.523   3.842  0.2580  0.4126  0.0698
  541MOL0     N71331   1.327   5.576   3.862 -0.6718  0.2900  0.2678
  541MOL0     C71332   2.266   5.082   4.489  0.6201  0.6064  0.2209
  541MOL0     C71333   2.338   5.164   4.579  0.0649 -0.0997  0.4355
  541MOL0     C71334   2.717   5.399   4.693 -0.4291  0.0961  0.4229
  541MOL0     C71335   2.862   5.371   4.698  0.7265 -0.5344  0.2965
  541MOL0     C71336   2.943   5.447   4.778 -0.0798  0.6973  0.0318
  541MOL0     C71337   2.893   5.544   4.862  0.2110 -0.4948 -0.7725
  541MOL0     O71338   2.973   5.630   4.937 -1.0584 -0.3976  0.3134
  541MOL0     C71339   3.116   5.622   4.934  0.5461 -0.1911 -0.4377
  541MOL0     C71340   3.175   5.747   5.012  0.1503  0.6867 -0.0195
  541MOL0     C71341   3.182   5.712   5.163  0.3316 -0.0715  0.3945
  541MOL0     C71342   3.040   5.668   5.216 -0.7166  0.6645  0.1823
  541MOL0     C71343   3.055   5.646   5.360  0.4147  0.2184 -0.1883
  541MOL0     C71344   3.040   5.622   5.484 -0.2445  0.2027  0.4386
  541MOL0     C71345   2.753   5.569   4.864  1.2109  0.6513 -0.4756
  541MOL0     C71346   2.668   5.497   4.782  0.5550 -0.9511  0.1549
  541MOL0     H71347   2.454   5.394   4.350  1.1352 -2.0155 -2.9131
  541MOL0     H71348   2.338   5.236   4.191  0.6242 -2.3671  0.0719
  541MOL0     H71349   2.011   5.050   4.398  1.6761  0.1519  1.2819
  541MOL0     H71350   2.043   4.898   4.318  2.3053  0.3310  3.3600
  541MOL0     H71351   1.843   4.979   4.203 -0.6337  0.3355 -2.6624
  541MOL0     H71352   1.972   5.013   4.099  0.0539 -0.8194  0.3619
  541MOL0     H71353   1.984   5.252   4.198  0.4155  0.8121 -3.0941
  541MOL0     H71354   1.854   5.216   4.307 -1.3248  3.4047 -1.0848
  541MOL0     H71355   1.828   5.172   3.998 -1.1422 -1.1434  0.5865
  541MOL0     H71356   1.706   5.151   4.117  0.2766  0.0628  0.4318
  541MOL0     H71357   1.850   5.417   4.053  0.3694 -0.7541 -0.6502
  541MOL0     H71358   1.713   5.394   4.160 -0.5197 -2.2219  0.1210
  541MOL0     H71359   1.561   5.323   3.969 -1.4135  2.7244  0.1362
  541MOL0     H71360   1.684   5.317   3.855 -3.7384  1.0002 -2.7023
  541MOL0     H71361   1.571   5.539   4.018 -0.5286 -0.5068 -0.9475
  541MOL0     H71362   1.728   5.562   3.931  0.8620 -0.3726 -0.6390
  541MOL0     H71363   1.628   5.508   3.727  1.1066 -0.1892  1.1580
  541MOL0     H71364   1.580   5.660   3.795 -1.8660  0.9339  1.6919
  541MOL0     H71365   1.430   5.321   3.688  1.9024  1.6334 -1.1375
  541MOL0     H71366   1.194   5.221   3.682 -1.1215 -2.4716  5.0056
  541MOL0     H71367   1.095   5.362   3.624  0.4038 -0.7144  0.4056
  541MOL0     H71368   0.988   5.364   3.845 -0.9289  0.8571 -2.3837
  541MOL0     H71369   1.099   5.229   3.902 -1.8128 -1.1684  0.8503
  541MOL0     H71370   0.911   5.192   3.659 -2.6024 -1.0542  0.7537
  541MOL0     H71371   1.009   5.069   3.742 -0.2701 -0.7015  2.4892
  541MOL0     H71372   0.755   5.209   3.851 -0.5178 -1.1987  1.8548
  541MOL0     H71373   0.853   5.127   3.961  0.2037  0.3446  0.7049
  541MOL0     H71374   0.747   4.732   3.815  1.1526  1.6139 -0.9746
  541MOL0     H71375   0.532   4.621   3.801 -3.2483  0.1081 -1.0536
  541MOL0     H71376   0.080   4.661   3.597 -1.8000 -0.9497 -1.6295
  541MOL0     H71377  -0.154   4.634   3.543  1.3662 -0.1232 -0.9463
  541MOL0     H71378  -0.443   4.901   3.739  1.0546  0.5432  1.3788
  541MOL0     H71379  -0.461   4.787   3.873  0.7390 -0.8478 -0.4168
  541MOL0     H71380  -0.583   4.807   3.612  1.5299  2.9366  1.6948
  541MOL0     H71381  -0.659   4.803   3.772  1.6120  1.5153 -0.3981
  541MOL0     H71382  -0.599   4.541   3.778 -0.2291 -2.4388 -0.6768
  541MOL0     H71383  -0.545   4.549   3.612 -0.7857  1.9162 -0.3371
  541MOL0     H71384  -0.763   4.465   3.638 -1.8531 -0.1718  2.2580
  541MOL0     H71385  -0.827   4.623   3.674  1.4812 -1.7513  2.0988
  541MOL0     H71386  -0.669   4.547   3.419  2.5198  0.2208  2.0670
  541MOL0     H71387  -0.711   4.712   3.457 -0.7413 -1.2363 -4.5951
  541MOL0     H71388  -0.946   4.653   3.445  1.3790  0.9493 -0.1370
  541MOL0     H71389  -0.904   4.478   3.441 -1.0038  1.7383  2.5463
  541MOL0     H71390  -0.828   4.484   3.218 -1.7460 -1.3310  2.4919
  541MOL0     H71391  -0.989   4.527   3.229 -1.0596 -1.0142  2.4924
  541MOL0     H71392  -0.835   4.677   3.080 -0.0812  1.8566 -0.8770
  541MOL0     H71393  -0.756   4.736   3.223 -1.6816  0.8442  2.6042
  541MOL0     H71394  -0.256   4.870   3.889 -2.5314 -1.9948 -1.3517
  541MOL0     H71395  -0.014   4.931   3.922 -2.3677 -0.0246  1.1666
  541MOL0     H71396   0.334   5.003   3.838  0.0131  0.3412 -0.1779
  541MOL0     H71397   0.561   5.119   3.856 -0.4374  1.3013 -0.1374
  541MOL0     H71398   2.212   4.996   4.527 -0.3535  0.1703 -1.9835
  541MOL0     H71399   2.340   5.135   4.684 -0.0532  1.3949  0.8662
  541MOL0     H71400   2.909   5.299   4.632  0.8649 -0.9441  0.8347
  541MOL0     H71401   3.050   5.427   4.773  0.0563 -0.0425  3.5287
  541MOL0     H71402   3.150   5.622   4.831  4.2362  3.3398  0.5655
  541MOL0     H71403   3.145   5.523   4.971  1.9159  1.3406  2.9835
  541MOL0     H71404   3.277   5.749   4.970 -0.1232  0.6798 -0.6935
  541MOL0     H71405   3.124   5.844   5.002 -0.4165  0.2723 -1.2787
  541MOL0     H71406   3.211   5.803   5.215 -2.0579  1.1798 -0.3122
  541MOL0     H71407   3.249   5.632   5.195  1.9555  0.1269 -2.2288
  541MOL0     H71408   2.975   5.754   5.199 -1.3084 -0.0903 -1.5800
  541MOL0     H71409   2.994   5.576   5.178 -0.3575 -0.5026  2.3675
  541MOL0     H71410   3.027   5.595   5.587  0.1251 -0.8908  0.2077
  541MOL0     H71411   2.720   5.647   4.932  0.7614 -0.0469  0.1170
  541MOL0     H71412   2.563   5.520   4.769  0.3768 -2.2293 -0.8849
  542MOL0     O71413  10.855   7.252   6.222 -0.1719  0.0793  0.4122
  542MOL0     C71414  10.902   7.366   6.234 -0.1997  0.5170 -0.5272
  542MOL0     O71415  10.827   7.486   6.239 -0.4334 -0.4193  0.0629
  542MOL0     C71416  10.692   7.480   6.244  0.0958  0.3393 -0.3324
  542MOL0     C71417  10.609   7.538   6.138 -0.6083  0.5939 -0.4609
  542MOL0     C71418  10.473   7.521   6.146  0.1058 -0.1412 -0.6998
  542MOL0     C71419  10.413   7.451   6.253 -0.5241 -0.1304  0.3010
  542MOL0     O71420  10.280   7.428   6.256 -0.4974 -0.0307  0.4328
  542MOL0     C71421  10.199   7.541   6.215  0.3114 -0.4488 -0.2755
  542MOL0     C71422  10.071   7.545   6.295 -0.5274  0.0971 -0.8309
  542MOL0     C71423  10.093   7.566   6.452 -1.3836 -1.0543  0.5054
  542MOL0     C71424   9.969   7.584   6.530 -0.4249 -0.2163 -0.4394
  542MOL0     C71425   9.974   7.657   6.662 -0.2864 -0.3721 -0.1553
  542MOL0     C71426   9.853   7.626   6.747 -0.0606 -0.3047  0.0962
  542MOL0     C71427   9.710   7.657   6.697 -0.3179 -0.4490 -0.4001
  542MOL0     C71428   9.671   7.810   6.710  0.2123 -0.2311 -0.0806
  542MOL0     N71429   9.718   7.881   6.594  0.1646 -0.1575  0.3363
  542MOL0     C71430   9.773   7.998   6.595  0.1032 -0.1317 -0.0175
  542MOL0     C71431   9.798   8.034   6.459 -0.3777  0.3224 -0.6103
  542MOL0     C71432   9.846   8.164   6.401  0.2385 -0.2701  0.2789
  542MOL0     C71433  10.002   8.197   6.410  0.6454 -0.1462 -0.6695
  542MOL0     C71434  10.088   8.079   6.368 -0.4195  0.5652 -0.6507
  542MOL0     C71435  10.151   8.000   6.493  0.1754 -0.3005  0.1808
  542MOL0     O71436  10.249   7.898   6.441 -0.1050  0.0248  0.3084
  542MOL0     C71437  10.375   7.938   6.421 -0.7517 -0.3720  1.8434
  542MOL0     C71438  10.423   8.072   6.414  0.6897  0.0466  0.4542
  542MOL0     C71439  10.554   8.096   6.369 -0.7843  0.0469  1.3636
  542MOL0     C71440  10.644   7.992   6.334  0.1875  0.6658 -0.2875
  542MOL0     C71441  10.780   8.010   6.280 -0.2041 -0.2530 -0.4171
  542MOL0     O71442  10.843   7.908   6.216 -0.3301  0.1711  0.0726
  542MOL0     C71443  10.974   7.923   6.188 -0.7990 -0.8429 -0.2520
  542MOL0     C71444  11.076   7.939   6.284 -0.9580  0.4493  0.1754
  542MOL0     C71445  11.211   7.937   6.251  0.3460  0.4134  0.1278
  542MOL0     C71446  11.253   7.934   6.114  0.8872  0.5991 -1.5592
  542MOL0     O71447  11.384   7.942   6.081  0.2582  0.0608 -0.3700
  542MOL0     C71448  11.419   7.944   5.942 -0.8947 -0.1928 -1.3529
  542MOL0     C71449  11.541   8.028   5.930  0.6337 -0.1157  0.2449
  542MOL0     C71450  11.665   7.968   5.996 -0.0115  0.2846 -0.3190
  542MOL0     C71451  11.791   8.032   5.944 -0.4861  0.0238  0.3898
  542MOL0     C71452  11.913   8.040   6.043 -0.2184  0.3446 -0.5420
  542MOL0     C71453  11.949   7.905   6.097 -0.5628  0.0261 -1.0452
  542MOL0     C71454  12.099   7.910   6.154 -1.0882 -0.0869 -0.0802
  542MOL0     C71455  12.119   7.785   6.235  0.1266 -0.2290  0.1006
  542MOL0    Cl71456  12.289   7.746   6.294 -0.2828 -0.0262 -0.1467
  542MOL0     C71457  11.147   7.911   6.022 -0.4807 -0.0361 -0.4049
  542MOL0     C71458  11.012   7.901   6.057  0.4213  0.4757  0.2590
  542MOL0     O71459  10.822   8.128   6.286 -0.9793  0.4923  0.1129
  542MOL0     C71460  10.592   7.863   6.340  0.3373 -0.1317 -0.4026
  542MOL0     C71461  10.465   7.835   6.385  0.2435 -0.0230 -0.7177
  542MOL0     N71462   9.754   7.927   6.386  0.1760 -0.0571  0.2363
  542MOL0     N71463   9.700   7.838   6.464  0.4564 -0.1484 -0.2120
  542MOL0     C71464  10.495   7.403   6.357  0.3184 -0.2987 -0.3672
  542MOL0     C71465  10.631   7.415   6.352 -1.0890  0.0317 -0.4434
  542MOL0     C71466  11.054   7.381   6.228  0.4524  1.2399 -0.4774
  542MOL0     C71467  11.145   7.270   6.224  0.5906  0.4877 -0.3336
  542MOL0     C71468  11.278   7.299   6.200  0.3217 -0.2692 -0.8144
  542MOL0     C71469  11.328   7.427   6.184  0.4546  1.1999 -0.5425
  542MOL0     O71470  11.469   7.435   6.189 -0.4895  0.1802  0.0340
  542MOL0     C71471  11.526   7.564   6.214 -0.4156 -0.0403  0.1251
  542MOL0     C71472  11.661   7.573   6.147  0.2619  0.2195 -1.3180
  542MOL0     C71473  11.652   7.547   5.996 -0.0920  0.4439  0.8664
  542MOL0     C71474  11.784   7.544   5.916 -0.2599  0.0157  0.4763
  542MOL0     C71475  11.866   7.438   5.968 -0.4972  0.1427  0.0166
  542MOL0     C71476  11.906   7.333   6.018  0.8506 -0.0247 -0.7959
  542MOL0     C71477  11.240   7.532   6.187  0.5321 -0.6530 -0.0250
  542MOL0     C71478  11.105   7.509   6.216 -0.1792 -0.0057  0.0259
  542MOL0     H71479  10.655   7.591   6.056  0.7286  0.6019  0.2732
  542MOL0     H71480  10.416   7.562   6.063  0.8843  0.9813 -0.7143
  542MOL0     H71481  10.170   7.537   6.110  0.3713 -1.1280 -0.2704
  542MOL0     H71482  10.249   7.637   6.231 -0.6959  0.0333  0.0566
  542MOL0     H71483  10.015   7.454   6.273  2.0253 -1.3924 -1.5918
  542MOL0     H71484  10.012   7.627   6.252 -1.4707 -0.1215  0.0098
  542MOL0     H71485  10.169   7.643   6.470  0.9139 -2.9781 -0.3244
  542MOL0     H71486  10.138   7.470   6.476 -3.3356 -2.5788 -1.5418
  542MOL0     H71487   9.901   7.637   6.463  0.1726 -2.0972 -2.6624
  542MOL0     H71488   9.930   7.484   6.549  0.2998 -0.5368 -0.6092
  542MOL0     H71489   9.992   7.761   6.632  1.6391  0.4265  3.2474
  542MOL0     H71490  10.054   7.635   6.733 -0.1792  2.1717  0.6412
  542MOL0     H71491   9.868   7.680   6.841  2.7131  1.1445 -1.0506
  542MOL0     H71492   9.867   7.519   6.766 -0.4502 -0.8487 -2.2665
  542MOL0     H71493   9.681   7.618   6.599 -3.1133 -1.3681  0.7106
  542MOL0     H71494   9.651   7.605   6.772 -2.2181  2.4154  0.2399
  542MOL0     H71495   9.720   7.846   6.801  0.8709 -0.7450 -0.2285
  542MOL0     H71496   9.563   7.823   6.724  0.3936 -0.3412  1.6914
  542MOL0     H71497   9.784   8.051   6.689  2.2635 -0.8066  0.1712
  542MOL0     H71498   9.794   8.249   6.447 -1.3152 -1.3032  0.5061
  542MOL0     H71499   9.822   8.161   6.294  3.3598 -2.8699 -0.4726
  542MOL0     H71500  10.036   8.238   6.506  0.8353  0.5633 -1.0282
  542MOL0     H71501  10.014   8.284   6.344  0.7509  1.3009  1.1918
  542MOL0     H71502  10.032   7.999   6.318  2.5801 -2.5119  0.4732
  542MOL0     H71503  10.172   8.118   6.309 -0.4796  2.0070  0.1785
  542MOL0     H71504  10.071   7.945   6.544 -0.5110  1.4719  1.0995
  542MOL0     H71505  10.198   8.079   6.551  0.5464  0.6114 -1.3096
  542MOL0     H71506  10.361   8.159   6.432 -2.1857 -1.3604 -1.7232
  542MOL0     H71507  10.588   8.198   6.352 -1.2081  0.0444  0.4202
  542MOL0     H71508  11.048   7.949   6.388  0.0402 -0.7046  0.5820
  542MOL0     H71509  11.282   7.929   6.332 -0.4573 -0.7861  0.7511
  542MOL0     H71510  11.349   7.985   5.869 -3.3692 -0.3877  0.7928
  542MOL0     H71511  11.430   7.840   5.909  1.0496 -0.4154 -0.1834
  542MOL0     H71512  11.528   8.125   5.977  0.0845  0.1418 -0.4169
  542MOL0     H71513  11.568   8.029   5.823  2.0191 -2.2824  0.5165
  542MOL0     H71514  11.671   7.863   5.966 -0.1863  0.6851 -1.8603
  542MOL0     H71515  11.667   7.980   6.105 -1.6243 -1.4509 -0.0418
  542MOL0     H71516  11.812   7.987   5.847 -3.5817  1.0766 -0.9107
  542MOL0     H71517  11.765   8.138   5.934 -1.4498 -0.1813  0.5645
  542MOL0     H71518  11.895   8.111   6.124  1.0720  2.6809 -2.1714
  542MOL0     H71519  12.000   8.076   5.988 -0.2280 -2.2608 -2.4664
  542MOL0     H71520  11.939   7.835   6.014  0.7052  0.9768 -2.0309
  542MOL0     H71521  11.886   7.895   6.186  0.1609  0.7062 -0.4378
  542MOL0     H71522  12.180   7.921   6.082 -0.6930  0.6376  0.4553
  542MOL0     H71523  12.115   7.993   6.224 -2.9177 -0.1244  0.4418
  542MOL0     H71524  12.092   7.705   6.165  0.4324  1.6475 -2.3264
  542MOL0     H71525  12.051   7.784   6.320  0.3566 -1.3529  0.2802
  542MOL0     H71526  11.182   7.886   5.922  2.0408 -1.3067  0.7024
  542MOL0     H71527  10.944   7.887   5.974  0.3982  1.1204  0.1635
  542MOL0     H71528  10.654   7.777   6.319  1.6566  1.0582 -1.5821
  542MOL0     H71529  10.424   7.734   6.381 -0.9464  0.1362  3.3656
  542MOL0     H71530  10.437   7.351   6.432  1.6424 -1.4379 -0.0939
  542MOL0     H71531  10.698   7.373   6.426  0.8126  2.8691 -0.3813
  542MOL0     H71532  11.111   7.169   6.243  1.6601  0.5233  2.2582
  542MOL0     H71533  11.347   7.216   6.217 -1.6451 -1.7096  0.5844
  542MOL0     H71534  11.521   7.582   6.322 -3.4993  0.4425  0.0080
  542MOL0     H71535  11.473   7.647   6.167  0.4585  0.9409  0.8213
  542MOL0     H71536  11.697   7.676   6.158 -1.6432  0.6995  1.3665
  542MOL0     H71537  11.719   7.497   6.202  1.2050  1.9164  0.1531
  542MOL0     H71538  11.606   7.636   5.954  1.0718  1.0843  0.9115
  542MOL0     H71539  11.591   7.460   5.969 -1.3401  1.4920  0.2142
  542MOL0     H71540  11.761   7.527   5.811  0.3240 -1.5573  0.5813
  542MOL0     H71541  11.842   7.636   5.928 -2.5008  1.8218 -1.5053
  542MOL0     H71542  11.946   7.249   6.072 -1.7002 -0.3632  0.7376
  542MOL0     H71543  11.281   7.632   6.186  1.2324 -0.7795  3.3373
  542MOL0     H71544  11.036   7.591   6.236  0.7927  0.8094  0.1257
  543MOL0     O71545   4.269   1.509   3.470 -0.2882  0.1421  0.1316
  543MOL0     C71546   4.169   1.440   3.439  0.5230  0.4539 -0.1943
  543MOL0     O71547   4.170   1.315   3.397  1.0000  0.5903  0.0323
  543MOL0     C71548   4.285   1.234   3.385 -1.2140  0.5391 -0.5702
  543MOL0     C71549   4.277   1.095   3.418  0.0319  0.0460 -0.2331
  543MOL0     C71550   4.384   1.006   3.403  0.3594  0.2303  0.0561
  543MOL0     C71551   4.512   1.051   3.374  0.4216  0.0335  0.1589
  543MOL0     O71552   4.602   0.954   3.343  0.2378 -0.0459 -0.1159
  543MOL0     C71553   4.726   0.990   3.285 -0.0869  0.6666  0.6774
  543MOL0     C71554   4.795   0.849   3.248 -0.8533 -0.2750 -0.0877
  543MOL0     C71555   4.710   0.764   3.151  0.0608 -0.1872  0.1606
  543MOL0     C71556   4.761   0.626   3.131  0.2591  0.8497  0.1632
  543MOL0     C71557   4.663   0.545   3.051  0.2009  0.0847  0.3275
  543MOL0     C71558   4.524   0.510   3.117 -0.8953 -0.3883  0.2742
  543MOL0     C71559   4.526   0.426   3.234  0.0154 -0.4895 -0.4048
  543MOL0     C71560   4.389   0.397   3.304 -0.5827  0.5686 -0.7742
  543MOL0     N71561   4.376   0.282   3.398 -0.1974 -0.2478 -0.3525
  543MOL0     C71562   4.483   0.233   3.469 -0.3416 -0.0038  0.1927
  543MOL0     C71563   4.456   0.104   3.490  0.4345 -0.7889 -0.2632
  543MOL0     C71564   4.551  -0.000   3.556 -1.2462  0.7714  0.3522
  543MOL0     C71565   4.464  -0.098   3.646  1.9686 -0.4802 -0.6183
  543MOL0     C71566   4.397  -0.214   3.566 -0.3787 -0.7248 -0.2420
  543MOL0     C71567   4.294  -0.280   3.661 -0.2284 -0.6202  0.0444
  543MOL0     O71568   4.210  -0.370   3.585 -0.5973 -0.2190  0.0840
  543MOL0     C71569   4.095  -0.395   3.647 -0.2937  0.1515 -0.5190
  543MOL0     C71570   3.994  -0.457   3.568 -0.2205 -0.3913 -0.5575
  543MOL0     C71571   3.878  -0.512   3.633 -0.0326 -0.2335  0.3633
  543MOL0     C71572   3.864  -0.499   3.771  0.0360  0.2996  0.0245
  543MOL0     C71573   3.737  -0.559   3.843 -0.1417 -0.0936 -0.3871
  543MOL0     O71574   3.678  -0.667   3.780  0.2521  0.2234 -0.2420
  543MOL0     C71575   3.560  -0.725   3.829 -0.1749  0.4079 -0.0077
  543MOL0     C71576   3.519  -0.841   3.767  0.7732 -0.0152  0.0177
  543MOL0     C71577   3.402  -0.911   3.814  0.6942  0.0207 -0.0438
  543MOL0     C71578   3.319  -0.864   3.914  0.5283 -0.2293 -0.2907
  543MOL0     O71579   3.205  -0.936   3.947  0.3004 -0.0652  0.4358
  543MOL0     C71580   3.166  -1.057   3.874  0.1668  0.1216  0.3276
  543MOL0     C71581   3.040  -1.111   3.935  0.1430 -0.5870 -0.5688
  543MOL0     C71582   2.911  -1.075   3.856  0.4031 -0.5749  0.1608
  543MOL0     C71583   2.788  -1.089   3.935 -0.9487  0.1951  0.6944
  543MOL0     C71584   2.669  -1.053   3.857  1.2880  0.8547 -0.0871
  543MOL0     C71585   2.533  -1.058   3.933 -1.6196 -0.1617  1.3575
  543MOL0     C71586   2.492  -1.195   3.994  0.2446 -0.4537  0.8025
  543MOL0     C71587   2.355  -1.189   4.072  0.1021  0.3989 -0.3364
  543MOL0    Cl71588   2.338  -1.362   4.105 -0.0879 -0.3981  0.4365
  543MOL0     C71589   3.362  -0.744   3.984  0.4924  0.5190  0.2343
  543MOL0     C71590   3.477  -0.680   3.938 -0.0585 -0.7304  0.9448
  543MOL0     O71591   3.711  -0.525   3.954 -0.0366 -0.0880  0.1359
  543MOL0     C71592   3.967  -0.447   3.847  0.4438  0.1483 -0.2846
  543MOL0     C71593   4.081  -0.393   3.784 -0.5567 -0.0023 -0.4331
  543MOL0     N71594   4.329   0.083   3.442 -0.1454 -0.7835 -0.1885
  543MOL0     N71595   4.288   0.179   3.378 -0.0477  0.2888 -0.2040
  543MOL0     C71596   4.531   1.189   3.359  0.3556  0.5158  0.4530
  543MOL0     C71597   4.417   1.281   3.355 -0.2587  0.1069  0.0590
  543MOL0     C71598   4.035   1.500   3.452 -0.6687 -0.0490 -0.1940
  543MOL0     C71599   4.035   1.643   3.461  0.6417  0.3091  0.1406
  543MOL0     C71600   3.915   1.706   3.456  0.6535 -0.4729  1.0915
  543MOL0     C71601   3.794   1.640   3.451 -0.8002  0.0912  0.4987
  543MOL0     O71602   3.676   1.704   3.426 -0.5370  0.4913 -0.4848
  543MOL0     C71603   3.677   1.817   3.334 -0.8610  0.1742 -0.3615
  543MOL0     C71604   3.724   1.790   3.188 -0.0135 -0.2377  0.5299
  543MOL0     C71605   3.660   1.672   3.121 -0.5076  0.3667 -0.0576
  543MOL0     C71606   3.537   1.695   3.029  0.2505  0.2788 -0.0351
  543MOL0     C71607   3.410   1.718   3.094 -0.6071 -0.1886  0.9577
  543MOL0     C71608   3.311   1.740   3.143  1.1778 -0.7700 -0.6781
  543MOL0     C71609   3.793   1.500   3.454  0.2306  0.1853 -0.1940
  543MOL0     C71610   3.916   1.430   3.454  0.4900 -0.8157 -0.0456
  543MOL0     H71611   4.186   1.042   3.444 -3.0986  2.3610 -4.9906
  543MOL0     H71612   4.357   0.903   3.421 -1.7554  0.9675  1.3498
  543MOL0     H71613   4.785   1.048   3.355  2.2713  0.0287 -0.6682
  543MOL0     H71614   4.722   1.040   3.188  0.2013 -0.6578 -0.0456
  543MOL0     H71615   4.808   0.787   3.337 -2.8761 -0.3803  0.1973
  543MOL0     H71616   4.891   0.873   3.202  1.4425  0.6486  4.5998
  543MOL0     H71617   4.701   0.820   3.057 -0.1505 -0.9256 -0.2744
  543MOL0     H71618   4.607   0.756   3.189  0.2202 -2.0485  0.3287
  543MOL0     H71619   4.855   0.633   3.075 -1.6175  0.9337 -3.2003
  543MOL0     H71620   4.784   0.588   3.231  0.9326  0.8172  0.0023
  543MOL0     H71621   4.716   0.455   3.015  1.8085  1.9326 -2.3230
  543MOL0     H71622   4.652   0.596   2.955  2.1266 -0.5469 -0.2831
  543MOL0     H71623   4.468   0.467   3.033  0.3342  0.6498 -1.1377
  543MOL0     H71624   4.478   0.607   3.138  1.7198  1.2107 -0.8206
  543MOL0     H71625   4.577   0.333   3.204 -1.1503 -1.4957  0.6097
  543MOL0     H71626   4.598   0.465   3.307  1.5451 -0.1496 -2.0244
  543MOL0     H71627   4.313   0.377   3.227  1.7294  1.2678 -3.4166
  543MOL0     H71628   4.352   0.486   3.357  1.6613  1.7163 -1.0311
  543MOL0     H71629   4.582   0.269   3.494 -1.2939  2.7654  0.3648
  543MOL0     H71630   4.629   0.041   3.621 -0.1560  1.0236 -1.0743
  543MOL0     H71631   4.605  -0.054   3.478 -0.6266 -0.5357  1.6322
  543MOL0     H71632   4.381  -0.043   3.693  1.5324  1.1246 -3.0986
  543MOL0     H71633   4.530  -0.140   3.722  1.7682  0.8586  0.3377
  543MOL0     H71634   4.339  -0.173   3.483 -2.0427  1.2719  1.7804
  543MOL0     H71635   4.477  -0.276   3.524  0.1851 -1.0957  1.3293
  543MOL0     H71636   4.233  -0.197   3.698  1.1623  0.4021  0.1111
  543MOL0     H71637   4.347  -0.337   3.738  1.6451  2.0415  0.8896
  543MOL0     H71638   4.007  -0.452   3.460  1.7154  0.8497 -0.3103
  543MOL0     H71639   3.795  -0.544   3.570 -1.5917 -1.1288  2.7112
  543MOL0     H71640   3.586  -0.875   3.689 -0.7140 -1.2886 -0.7735
  543MOL0     H71641   3.381  -1.004   3.763 -2.6351  0.0361  1.0500
  543MOL0     H71642   3.239  -1.135   3.896 -1.3025 -0.8652  2.0825
  543MOL0     H71643   3.153  -1.041   3.767 -0.8947  1.5762  0.6443
  543MOL0     H71644   3.034  -1.070   4.036  0.1885 -0.0589 -0.7739
  543MOL0     H71645   3.043  -1.220   3.938 -1.5814 -0.7228 -2.1951
  543MOL0     H71646   2.907  -1.137   3.766  0.1679 -0.6726  0.2381
  543MOL0     H71647   2.912  -0.971   3.823  0.5728 -0.4171  0.6644
  543MOL0     H71648   2.792  -1.189   3.980  1.7519  0.3823  1.0335
  543MOL0     H71649   2.788  -1.014   4.015  1.7573  1.1316 -0.0716
  543MOL0     H71650   2.663  -1.127   3.777 -1.6776  0.5639  0.2980
  543MOL0     H71651   2.689  -0.953   3.820 -0.5585  1.2249 -0.1653
  543MOL0     H71652   2.457  -1.025   3.861  0.1385  1.4820  0.1565
  543MOL0     H71653   2.538  -0.985   4.015  2.1286  1.1964  0.0969
  543MOL0     H71654   2.489  -1.265   3.910  0.8608 -0.9844  1.2113
  543MOL0     H71655   2.568  -1.226   4.067  0.7323  1.8556  1.3513
  543MOL0     H71656   2.279  -1.157   4.001  1.3602 -0.3467 -2.0967
  543MOL0     H71657   2.364  -1.132   4.165  0.4988 -3.3673  2.2006
  543MOL0     H71658   3.322  -0.694   4.071 -0.1039 -0.4972  0.5649
  543MOL0     H71659   3.512  -0.602   4.004  0.9289 -1.2776  1.0885
  543MOL0     H71660   3.961  -0.451   3.955 -0.2809 -1.2686 -0.3466
  543MOL0     H71661   4.159  -0.367   3.855 -0.6217  0.3441 -0.4901
  543MOL0     H71662   4.633   1.223   3.345  0.2188  0.1685 -1.8221
  543MOL0     H71663   4.438   1.383   3.324  2.0600  0.2932  1.9547
  543MOL0     H71664   4.125   1.699   3.439  2.7312 -3.1625 -0.9653
  543MOL0     H71665   3.931   1.814   3.450  2.2918 -0.6030  2.4765
  543MOL0     H71666   3.743   1.900   3.360 -3.0636  1.7051  0.6324
  543MOL0     H71667   3.574   1.854   3.338 -1.7750 -2.1516 -0.4102
  543MOL0     H71668   3.710   1.876   3.122 -0.9679 -1.1437 -0.4985
  543MOL0     H71669   3.830   1.769   3.205 -0.8342 -3.0348  3.1890
  543MOL0     H71670   3.610   1.601   3.187 -1.8035  1.2941  0.0068
  543MOL0     H71671   3.728   1.606   3.068 -1.7662 -1.7069  0.7872
  543MOL0     H71672   3.572   1.781   2.971  0.3013  1.1800  1.2857
  543MOL0     H71673   3.530   1.603   2.971  0.5222  0.1799  0.0870
  543MOL0     H71674   3.213   1.761   3.183  1.0539 -0.9047 -0.9129
  543MOL0     H71675   3.699   1.451   3.431  0.9749 -1.4470  0.1461
  543MOL0     H71676   3.903   1.322   3.465  0.5976 -1.0093 -1.5813
  544MOL0     O71677   1.025   2.088   8.175  0.4325  0.3442 -0.1303
  544MOL0     C71678   1.057   2.064   8.061  0.1855 -0.2294  0.7428
  544MOL0     O71679   0.973   2.022   7.955 -0.2775 -0.6279 -0.0308
  544MOL0     C71680   0.831   2.020   7.971 -0.0596 -0.2943  0.2282
  544MOL0     C71681   0.762   2.003   7.853  0.5951  0.2388 -0.8275
  544MOL0     C71682   0.624   1.989   7.846 -0.3070 -0.7356  0.1184
  544MOL0     C71683   0.552   1.997   7.968  0.1275 -0.3772 -0.5985
  544MOL0     O71684   0.417   1.971   7.970  0.2721 -1.1912 -0.1168
  544MOL0     C71685   0.338   2.053   7.877 -0.5905  0.1392 -0.0516
  544MOL0     C71686   0.190   2.041   7.918 -0.0261  0.7213 -0.0903
  544MOL0     C71687   0.091   2.094   7.813 -0.2216 -0.0390  0.3427
  544MOL0     C71688  -0.060   2.074   7.852  0.0831  0.6316 -0.1261
  544MOL0     C71689  -0.165   2.169   7.785  0.3297  0.1437 -0.0755
  544MOL0     C71690  -0.304   2.167   7.850  0.4700 -0.8193 -0.7155
  544MOL0     C71691  -0.363   2.027   7.860 -0.8166  0.5586 -0.7472
  544MOL0     C71692  -0.382   1.954   7.723 -0.2725 -0.0399 -0.5753
  544MOL0     N71693  -0.514   1.898   7.700  0.1146  0.2865  0.6835
  544MOL0     C71694  -0.626   1.971   7.682  0.8279  0.5114  0.2077
  544MOL0     C71695  -0.727   1.874   7.671 -0.9701 -0.1033 -0.6014
  544MOL0     C71696  -0.867   1.914   7.638 -0.1807  0.6672  0.3877
  544MOL0     C71697  -0.980   1.797   7.655  0.4074 -0.5518  0.3194
  544MOL0     C71698  -1.008   1.766   7.797  1.0441 -0.5508  0.5376
  544MOL0     C71699  -1.127   1.675   7.802 -0.6288 -0.2591 -0.2682
  544MOL0     O71700  -1.152   1.625   7.939 -0.0112  0.1366 -0.6424
  544MOL0     C71701  -1.278   1.580   7.979 -0.0843 -0.7797  1.1646
  544MOL0     C71702  -1.370   1.518   7.899  0.3872 -0.3807  0.4425
  544MOL0     C71703  -1.490   1.472   7.959 -0.9108  0.3940 -0.2851
  544MOL0     C71704  -1.515   1.491   8.092 -0.4707  0.2892 -1.0623
  544MOL0     C71705  -1.626   1.421   8.159 -0.4859 -0.3493 -0.0270
  544MOL0     O71706  -1.700   1.351   8.076 -0.2557  0.3435 -0.0238
  544MOL0     C71707  -1.819   1.298   8.115 -1.5068 -0.0367  0.3436
  544MOL0     C71708  -1.933   1.326   8.037 -1.0616  0.5287 -0.1042
  544MOL0     C71709  -2.059   1.302   8.088  0.3477  0.8208  0.0229
  544MOL0     C71710  -2.076   1.232   8.214  0.0603  0.3242 -0.2691
  544MOL0     O71711  -2.201   1.225   8.268 -0.5921 -0.0002 -0.3577
  544MOL0     C71712  -2.308   1.204   8.175  0.3168 -0.0160  0.6620
  544MOL0     C71713  -2.421   1.108   8.218  0.2232  0.2883 -0.2700
  544MOL0     C71714  -2.511   1.066   8.102  0.3086 -0.2336  0.2107
  544MOL0     C71715  -2.621   1.174   8.078 -0.4335  0.3835  0.1416
  544MOL0     C71716  -2.726   1.125   7.974 -0.1158 -0.5776 -0.0511
  544MOL0     C71717  -2.671   1.122   7.825 -0.1551  0.0296  0.0453
  544MOL0     C71718  -2.646   1.265   7.775  0.3541 -0.0602 -0.0639
  544MOL0     C71719  -2.623   1.249   7.620  0.0223  0.0997  0.0611
  544MOL0    Cl71720  -2.622   1.399   7.531  0.1708 -0.1345 -0.2681
  544MOL0     C71721  -1.971   1.190   8.285 -0.8356  0.6798 -0.0386
  544MOL0     C71722  -1.843   1.222   8.233 -0.2885 -0.9581 -0.3118
  544MOL0     O71723  -1.645   1.437   8.280 -0.0585  0.9783 -0.4696
  544MOL0     C71724  -1.418   1.554   8.175  0.0242  0.3299  0.4835
  544MOL0     C71725  -1.293   1.597   8.119 -0.3865  0.0551  0.4105
  544MOL0     N71726  -0.672   1.751   7.673 -0.1009 -0.1656 -0.3277
  544MOL0     N71727  -0.545   1.768   7.692 -0.3984  0.2632  0.1027
  544MOL0     C71728   0.620   2.016   8.090  0.2589 -0.9631  0.5736
  544MOL0     C71729   0.755   2.034   8.088 -0.4568 -0.0559 -0.1468
  544MOL0     C71730   1.196   2.083   8.027 -0.5191 -0.6668  0.8284
  544MOL0     C71731   1.294   2.068   8.125  0.3912  0.2426  0.5467
  544MOL0     C71732   1.427   2.061   8.088  0.3214 -0.0737  0.1721
  544MOL0     C71733   1.460   2.083   7.957 -1.0749 -0.5182  0.1992
  544MOL0     O71734   1.598   2.101   7.920 -0.0565 -0.0959 -1.0116
  544MOL0     C71735   1.645   1.998   7.833 -0.2013  0.2016 -0.1608
  544MOL0     C71736   1.792   2.028   7.788 -0.1267  0.0960  0.5209
  544MOL0     C71737   1.887   2.023   7.909 -0.6630  1.0227 -0.5603
  544MOL0     C71738   1.878   1.885   7.987 -0.5383  0.6112 -0.3042
  544MOL0     C71739   1.982   1.889   8.087  0.2983 -0.1280  0.0441
  544MOL0     C71740   2.078   1.886   8.162 -0.3529  0.4374  0.4608
  544MOL0     C71741   1.369   2.114   7.856 -0.3365  0.4850 -0.5249
  544MOL0     C71742   1.238   2.116   7.892 -0.5581  0.6989  0.8553
  544MOL0     H71743   0.820   1.988   7.762 -0.3976 -0.8830 -1.3072
  544MOL0     H71744   0.567   1.965   7.756 -1.6268 -0.0339  0.7337
  544MOL0     H71745   0.347   2.018   7.774  1.2429  0.7300 -0.1208
  544MOL0     H71746   0.374   2.155   7.893  0.3473 -0.1572 -0.2270
  544MOL0     H71747   0.190   2.093   8.014  0.9189 -1.7138  1.3362
  544MOL0     H71748   0.162   1.938   7.941 -2.6825  1.3569 -0.2342
  544MOL0     H71749   0.110   2.052   7.714  0.8202  1.0024  0.0865
  544MOL0     H71750   0.103   2.200   7.791  0.1543  0.0898  1.1467
  544MOL0     H71751  -0.091   1.973   7.825 -1.1461  0.8491  0.4188
  544MOL0     H71752  -0.058   2.078   7.961 -2.6370  0.5271 -0.0184
  544MOL0     H71753  -0.172   2.146   7.678 -0.8894  2.2848 -0.5002
  544MOL0     H71754  -0.118   2.268   7.789  2.3426 -0.5246 -3.0791
  544MOL0     H71755  -0.376   2.237   7.809  0.1639 -0.1783  0.8209
  544MOL0     H71756  -0.284   2.199   7.953  0.8049 -1.9921 -0.3981
  544MOL0     H71757  -0.307   1.966   7.931 -0.2110  1.3432 -0.5257
  544MOL0     H71758  -0.461   2.047   7.904  0.6859  2.1027  2.2558
  544MOL0     H71759  -0.308   1.873   7.730 -1.0543 -0.6932  0.4868
  544MOL0     H71760  -0.357   2.016   7.636 -0.9094 -1.1145 -1.5631
  544MOL0     H71761  -0.619   2.078   7.665 -0.4175  0.7598  1.1653
  544MOL0     H71762  -0.865   1.956   7.537  0.3879  0.8503  0.4723
  544MOL0     H71763  -0.899   2.002   7.694  1.1974  1.6311 -0.2951
  544MOL0     H71764  -0.946   1.706   7.604 -0.0746 -0.5151 -0.0719
  544MOL0     H71765  -1.070   1.835   7.607 -1.1415 -3.3365  0.8052
  544MOL0     H71766  -0.926   1.703   7.835  1.8743 -0.3327 -0.8254
  544MOL0     H71767  -1.016   1.859   7.854  2.2189 -0.8532  1.2400
  544MOL0     H71768  -1.119   1.589   7.736  2.8280 -0.1133 -0.2093
  544MOL0     H71769  -1.211   1.738   7.771  0.4524  0.0956 -2.7031
  544MOL0     H71770  -1.362   1.495   7.793 -4.7300  0.5990 -0.4169
  544MOL0     H71771  -1.552   1.414   7.891 -1.5344 -0.6489  1.1207
  544MOL0     H71772  -1.925   1.385   7.946 -2.1714  1.6840  0.5148
  544MOL0     H71773  -2.142   1.343   8.032 -1.4793  0.1433  2.0980
  544MOL0     H71774  -2.269   1.157   8.085  3.3266  0.2530  1.7351
  544MOL0     H71775  -2.351   1.304   8.158 -1.4420 -0.5417  1.7922
  544MOL0     H71776  -2.468   1.152   8.307  1.2395 -2.3121  1.7075
  544MOL0     H71777  -2.366   1.019   8.249  3.0713  0.9790 -2.9099
  544MOL0     H71778  -2.556   0.967   8.116 -2.2500  0.8640  0.3232
  544MOL0     H71779  -2.462   1.049   8.006 -0.2919 -0.3701 -0.0802
  544MOL0     H71780  -2.673   1.206   8.169  0.6185 -3.5752  2.3536
  544MOL0     H71781  -2.566   1.254   8.028  2.9410 -3.3757 -2.8230
  544MOL0     H71782  -2.808   1.197   7.983  0.9889  0.4924  2.4104
  544MOL0     H71783  -2.766   1.023   7.986 -4.5272  0.4872 -3.2127
  544MOL0     H71784  -2.740   1.075   7.755  1.0636 -0.5814 -0.7809
  544MOL0     H71785  -2.575   1.070   7.834  0.4398  0.9067 -0.9598
  544MOL0     H71786  -2.736   1.326   7.778  1.0827  1.0183  1.6147
  544MOL0     H71787  -2.579   1.331   7.831 -0.7232  0.2371  0.9220
  544MOL0     H71788  -2.694   1.183   7.571 -0.9962  0.2174  1.3293
  544MOL0     H71789  -2.523   1.206   7.606 -0.3526 -0.2382 -1.7962
  544MOL0     H71790  -1.988   1.144   8.381 -1.1413  1.1236  0.1193
  544MOL0     H71791  -1.764   1.203   8.304 -0.9535  1.8068  1.3125
  544MOL0     H71792  -1.430   1.551   8.282 -1.6067 -0.6473  0.2942
  544MOL0     H71793  -1.220   1.645   8.184  0.0801 -2.2516  1.7234
  544MOL0     H71794   0.563   2.007   8.181 -1.5298  1.3792 -0.2215
  544MOL0     H71795   0.811   2.047   8.180 -0.3607 -1.1137 -0.0490
  544MOL0     H71796   1.275   2.052   8.231 -0.7643 -0.5647  0.2279
  544MOL0     H71797   1.508   2.050   8.161  0.7709  3.0918  0.2909
  544MOL0     H71798   1.577   1.989   7.747 -2.4333 -0.1037  1.5462
  544MOL0     H71799   1.648   1.897   7.877  2.1628  0.5318  0.5524
  544MOL0     H71800   1.828   1.953   7.718  0.2735 -0.2896  1.1272
  544MOL0     H71801   1.801   2.124   7.736  2.1597 -0.3992 -0.1083
  544MOL0     H71802   1.877   2.099   7.987 -0.2984  0.4664  0.0426
  544MOL0     H71803   1.990   2.044   7.879  0.2339  0.9736  2.1325
  544MOL0     H71804   1.781   1.865   8.034  0.4510 -2.8225  0.5706
  544MOL0     H71805   1.896   1.798   7.923 -2.6054 -1.0845  1.2497
  544MOL0     H71806   2.157   1.895   8.234 -3.4228  1.6796  4.0315
  544MOL0     H71807   1.410   2.143   7.759 -0.2675  1.8646 -0.1071
  544MOL0     H71808   1.161   2.133   7.817 -2.7724  3.7869  3.5660
  545MOL0     O71809   0.063   0.652   4.587 -0.5775  0.5064  0.0289
  545MOL0     C71810   0.070   0.720   4.683  0.6345  0.6367 -0.7490
  545MOL0     O71811  -0.039   0.754   4.758 -0.2402  0.4040  0.4947
  545MOL0     C71812  -0.169   0.721   4.734  0.8911 -1.5085  0.2261
  545MOL0     C71813  -0.230   0.636   4.638 -0.6642 -1.2026  0.7154
  545MOL0     C71814  -0.367   0.612   4.626 -0.3396 -0.0221  0.1791
  545MOL0     C71815  -0.452   0.675   4.715 -0.1498  0.3354 -0.1516
  545MOL0     O71816  -0.587   0.660   4.718 -0.1995  0.4793  0.6175
  545MOL0     C71817  -0.664   0.655   4.589  0.6215 -0.4984  1.0991
  545MOL0     C71818  -0.761   0.534   4.570  0.3462  0.3428  0.8676
  545MOL0     C71819  -0.859   0.550   4.450 -0.6515  0.3258  0.1769
  545MOL0     C71820  -0.992   0.625   4.472 -0.2679  0.6270 -0.3516
  545MOL0     C71821  -1.085   0.578   4.358 -0.3227  0.8574 -0.4792
  545MOL0     C71822  -1.234   0.617   4.385 -0.3570  0.2809  1.0656
  545MOL0     C71823  -1.325   0.606   4.256  0.0559 -0.4770  0.4227
  545MOL0     C71824  -1.430   0.486   4.263 -0.2555  0.8112  0.2847
  545MOL0     N71825  -1.510   0.506   4.385  0.2769  0.0880 -0.1495
  545MOL0     C71826  -1.623   0.587   4.386 -0.8422  0.1736 -0.0384
  545MOL0     C71827  -1.696   0.534   4.482  0.0979  0.5481 -0.2160
  545MOL0     C71828  -1.828   0.593   4.522 -0.1561  0.0290 -0.1057
  545MOL0     C71829  -1.952   0.525   4.473  0.0977 -1.1245  0.0756
  545MOL0     C71830  -1.954   0.374   4.489  0.2352  0.4829 -0.0559
  545MOL0     C71831  -2.100   0.318   4.483  0.1189  0.5947  0.6346
  545MOL0     O71832  -2.168   0.333   4.606  0.1588 -0.3215 -0.2885
  545MOL0     C71833  -2.289   0.275   4.632 -0.4620  0.5500  0.2749
  545MOL0     C71834  -2.367   0.209   4.533 -0.6486  0.3612  0.1198
  545MOL0     C71835  -2.497   0.166   4.563  0.9294  0.6009  0.3258
  545MOL0     C71836  -2.555   0.186   4.689  0.3908 -0.3666  1.1753
  545MOL0     C71837  -2.693   0.149   4.714 -0.1543 -1.7327  0.0067
  545MOL0     O71838  -2.751   0.190   4.828 -1.0158  0.2705 -1.3420
  545MOL0     C71839  -2.884   0.180   4.839 -0.2883  0.3494 -0.0739
  545MOL0     C71840  -2.966   0.280   4.790 -0.5681 -0.4673 -0.5744
  545MOL0     C71841  -3.103   0.260   4.797 -0.6010  0.6364  0.5045
  545MOL0     C71842  -3.160   0.161   4.875 -0.1487  0.3764 -0.7231
  545MOL0     O71843  -3.296   0.135   4.880 -0.2471 -0.1164 -0.3947
  545MOL0     C71844  -3.383   0.241   4.855 -0.1584 -0.3027  0.1112
  545MOL0     C71845  -3.525   0.196   4.896  0.1938  0.0438 -0.4311
  545MOL0     C71846  -3.623   0.303   4.839  0.3157  0.4715  0.1052
  545MOL0     C71847  -3.772   0.262   4.852  0.5366 -0.8049 -0.2434
  545MOL0     C71848  -3.848   0.393   4.811  0.1205  0.0182 -0.8710
  545MOL0     C71849  -3.994   0.355   4.832  0.2943  1.0460  0.9686
  545MOL0     C71850  -4.080   0.483   4.848 -0.3227 -0.5106 -0.3396
  545MOL0     C71851  -4.221   0.466   4.887  0.7267 -0.7461 -0.0993
  545MOL0    Cl71852  -4.316   0.385   4.758 -0.1850 -0.0890 -0.4660
  545MOL0     C71853  -3.076   0.082   4.956 -0.1877  0.7235  0.3263
  545MOL0     C71854  -2.933   0.092   4.935 -0.7196  0.7074 -0.1090
  545MOL0     O71855  -2.751   0.090   4.623  0.0840  0.8343  0.7469
  545MOL0     C71856  -2.475   0.250   4.784  0.7572  0.1898  0.2214
  545MOL0     C71857  -2.342   0.290   4.757  0.8513  0.3284  0.6232
  545MOL0     N71858  -1.633   0.420   4.535  0.9038 -0.0058 -0.3869
  545MOL0     N71859  -1.514   0.413   4.487 -0.0199  0.1454  0.0487
  545MOL0     C71860  -0.396   0.761   4.810 -0.4070 -0.1108  0.1369
  545MOL0     C71861  -0.264   0.782   4.830  0.0275  0.1521  0.5084
  545MOL0     C71862   0.196   0.763   4.741  0.0779 -0.1374  1.1565
  545MOL0     C71863   0.208   0.875   4.822 -0.9644  0.3665  0.0078
  545MOL0     C71864   0.335   0.908   4.868 -0.2373  0.3898 -0.2624
  545MOL0     C71865   0.451   0.834   4.837  0.1777  0.3358  0.3984
  545MOL0     O71866   0.571   0.882   4.891 -0.3440 -0.2662  0.4692
  545MOL0     C71867   0.685   0.803   4.844 -0.5909  0.5153  0.8346
  545MOL0     C71868   0.822   0.868   4.886  0.2509  0.2462 -0.0016
  545MOL0     C71869   0.847   0.853   5.035  0.4157 -0.1857 -0.8046
  545MOL0     C71870   0.981   0.920   5.070 -1.0256 -0.2553 -0.0813
  545MOL0     C71871   1.049   0.838   5.160 -0.5173 -0.3048  0.4012
  545MOL0     C71872   1.112   0.766   5.232 -0.6454 -0.2040  0.2339
  545MOL0     C71873   0.438   0.720   4.756  0.6206 -0.2485 -0.5544
  545MOL0     C71874   0.312   0.689   4.705  0.4403 -0.3204 -0.2804
  545MOL0     H71875  -0.163   0.593   4.565  1.3533  1.2067  0.9918
  545MOL0     H71876  -0.394   0.533   4.556 -0.3835 -0.9725  1.2420
  545MOL0     H71877  -0.604   0.669   4.499  1.1667 -0.7426  1.4234
  545MOL0     H71878  -0.732   0.740   4.589 -0.3082 -1.2231  0.9223
  545MOL0     H71879  -0.821   0.524   4.661 -1.7131  0.0119 -0.4718
  545MOL0     H71880  -0.700   0.444   4.559 -1.6804 -1.2225  1.7519
  545MOL0     H71881  -0.871   0.448   4.412  0.0184  1.2192 -2.6975
  545MOL0     H71882  -0.798   0.593   4.370  0.0821 -0.6881  0.1622
  545MOL0     H71883  -1.039   0.600   4.568 -0.7260 -0.0299 -0.7401
  545MOL0     H71884  -0.977   0.733   4.483 -0.6148  0.5212  1.5802
  545MOL0     H71885  -1.073   0.469   4.355 -0.8546  0.6707  2.0417
  545MOL0     H71886  -1.047   0.621   4.265  3.0446  0.5075  0.6133
  545MOL0     H71887  -1.235   0.724   4.405 -0.3228  0.8931 -1.8999
  545MOL0     H71888  -1.277   0.554   4.465 -0.5704 -0.8870  0.0609
  545MOL0     H71889  -1.384   0.697   4.247  0.3887 -0.2083  0.8915
  545MOL0     H71890  -1.254   0.599   4.173  0.7108 -1.3364  1.0271
  545MOL0     H71891  -1.384   0.386   4.259 -0.4215  0.7120  0.7256
  545MOL0     H71892  -1.500   0.496   4.180 -1.0344 -2.4244  0.4097
  545MOL0     H71893  -1.633   0.678   4.329  2.5644  0.5461 -0.2833
  545MOL0     H71894  -1.821   0.700   4.500 -1.9057  0.2463  0.2303
  545MOL0     H71895  -1.832   0.597   4.632 -0.0686  1.3438 -0.1332
  545MOL0     H71896  -1.960   0.545   4.366 -0.5218 -3.2480 -0.3137
  545MOL0     H71897  -2.031   0.570   4.534  0.5191 -0.7277  0.3354
  545MOL0     H71898  -1.887   0.332   4.413  2.3548  1.1326  1.3647
  545MOL0     H71899  -1.915   0.336   4.584  0.7463 -0.1123 -0.4946
  545MOL0     H71900  -2.093   0.210   4.465  0.2023  0.2584  2.4951
  545MOL0     H71901  -2.158   0.366   4.403 -2.6382 -3.1821  0.0680
  545MOL0     H71902  -2.321   0.210   4.435  2.9970  1.0055  1.6941
  545MOL0     H71903  -2.551   0.121   4.480  1.1649 -1.6198  1.3066
  545MOL0     H71904  -2.931   0.361   4.727  1.6594  0.0605  1.2272
  545MOL0     H71905  -3.172   0.314   4.733 -1.4179 -3.9897 -3.0549
  545MOL0     H71906  -3.382   0.251   4.746 -2.7749 -4.7153 -0.5959
  545MOL0     H71907  -3.367   0.338   4.903 -3.5015 -0.9484  2.9846
  545MOL0     H71908  -3.553   0.202   5.001 -1.3538  4.0229 -0.9091
  545MOL0     H71909  -3.541   0.094   4.859 -3.8796  1.4769 -3.3026
  545MOL0     H71910  -3.597   0.322   4.735 -1.1570 -1.3319 -0.6393
  545MOL0     H71911  -3.600   0.396   4.893  2.4416 -0.7656  1.4848
  545MOL0     H71912  -3.793   0.189   4.773 -0.2415  0.3921 -1.1643
  545MOL0     H71913  -3.798   0.229   4.953  0.5887  1.1433  0.4509
  545MOL0     H71914  -3.823   0.420   4.708  0.9880  2.5274 -0.0812
  545MOL0     H71915  -3.826   0.484   4.869 -0.5789 -0.9803  1.0567
  545MOL0     H71916  -4.004   0.296   4.923  0.3991 -2.3934 -1.0719
  545MOL0     H71917  -4.024   0.294   4.745  1.1645 -0.4189  1.6635
  545MOL0     H71918  -4.040   0.544   4.929  0.9570 -0.7429 -0.7715
  545MOL0     H71919  -4.080   0.549   4.761 -1.6874  0.9940  0.7539
  545MOL0     H71920  -4.266   0.564   4.905  2.4263  0.3996 -1.7353
  545MOL0     H71921  -4.223   0.407   4.980  1.0619 -2.0522 -0.8888
  545MOL0     H71922  -3.126   0.011   5.022  0.3838 -0.7939 -0.7886
  545MOL0     H71923  -2.868   0.024   4.990  2.7461  3.2809 -0.6824
  545MOL0     H71924  -2.519   0.277   4.880 -0.9494  1.4721 -0.8648
  545MOL0     H71925  -2.283   0.348   4.827  4.5704 -2.0078 -0.2916
  545MOL0     H71926  -0.464   0.806   4.882 -0.3113 -0.8169  0.6833
  545MOL0     H71927  -0.219   0.840   4.909  0.5671 -1.4398  1.4129
  545MOL0     H71928   0.125   0.941   4.847 -1.6927 -0.9984  1.3453
  545MOL0     H71929   0.333   1.002   4.921 -0.3319  1.1761 -1.6028
  545MOL0     H71930   0.688   0.806   4.734 -0.2603 -0.3003  0.8167
  545MOL0     H71931   0.689   0.700   4.879  3.0728  1.0749  2.5724
  545MOL0     H71932   0.896   0.818   4.824  0.4401  1.8502 -1.1327
  545MOL0     H71933   0.825   0.973   4.855 -0.1834  0.4419  0.5913
  545MOL0     H71934   0.832   0.751   5.071 -0.6583  0.0812 -0.4589
  545MOL0     H71935   0.767   0.904   5.090 -1.5173 -1.1186 -2.6164
  545MOL0     H71936   1.028   0.922   4.971 -2.1781 -2.0960 -0.7145
  545MOL0     H71937   0.965   1.016   5.120  1.1295  0.8153 -1.2850
  545MOL0     H71938   1.167   0.698   5.294 -1.3047  0.9350  2.1516
  545MOL0     H71939   0.518   0.648   4.740  2.0505  1.3950 -1.1942
  545MOL0     H71940   0.308   0.607   4.635 -1.2471  0.7271 -1.4853
  546MOL0     O71941   7.500   7.343  11.229 -0.5096 -0.0596  0.6300
  546MOL0     C71942   7.536   7.376  11.343 -0.2153 -0.8495 -0.3108
  546MOL0     O71943   7.458   7.395  11.448 -0.0689 -0.4819  0.8862
  546MOL0     C71944   7.322   7.417  11.427 -0.7832  0.1390 -0.3274
  546MOL0     C71945   7.227   7.368  11.520 -0.3811  0.4819 -0.8213
  546MOL0     C71946   7.091   7.383  11.508 -0.6812 -1.0203 -0.2858
  546MOL0     C71947   7.042   7.462  11.410 -0.0189  0.1937  0.3622
  546MOL0     O71948   6.906   7.481  11.380 -0.5249 -0.7043  0.0166
  546MOL0     C71949   6.798   7.408  11.440  0.3879  0.3126  0.3638
  546MOL0     C71950   6.658   7.428  11.377 -0.5467  0.5989  0.7927
  546MOL0     C71951   6.566   7.326  11.434  0.7868 -0.0210 -1.0331
  546MOL0     C71952   6.426   7.341  11.378 -0.7479 -0.9343  0.8609
  546MOL0     C71953   6.318   7.267  11.461 -0.1277 -0.0439 -1.1230
  546MOL0     C71954   6.302   7.117  11.418  0.7429  0.0097  0.0093
  546MOL0     C71955   6.190   7.029  11.478 -0.0104 -0.0675  0.1741
  546MOL0     C71956   6.153   7.047  11.628  0.1615 -0.3487  0.4467
  546MOL0     N71957   6.033   6.966  11.675 -0.1973 -0.2285 -0.2012
  546MOL0     C71958   6.006   6.830  11.647  0.4099 -0.5206  0.0775
  546MOL0     C71959   5.880   6.813  11.692  0.2841 -0.5842 -0.0486
  546MOL0     C71960   5.806   6.682  11.680 -0.9321  0.3378 -0.4234
  546MOL0     C71961   5.657   6.691  11.682 -0.7390 -0.5774  1.2219
  546MOL0     C71962   5.615   6.714  11.820  0.5116 -0.4671  0.3889
  546MOL0     C71963   5.485   6.802  11.825 -0.0916 -0.4439 -0.1086
  546MOL0     O71964   5.413   6.792  11.952  0.3252 -0.1495 -0.4685
  546MOL0     C71965   5.277   6.802  11.944 -0.2278 -0.4566  1.2273
  546MOL0     C71966   5.199   6.708  11.997 -0.0449 -0.2706 -0.1925
  546MOL0     C71967   5.064   6.709  11.992 -0.3016 -0.6660  0.8139
  546MOL0     C71968   4.994   6.814  11.932 -0.4684  0.7892  0.1277
  546MOL0     C71969   4.844   6.822  11.940 -1.3356  0.5110  0.5859
  546MOL0     O71970   4.783   6.905  11.849  0.3424 -0.4730 -0.5316
  546MOL0     C71971   4.646   6.903  11.835 -0.0623 -0.1965 -0.4748
  546MOL0     C71972   4.595   7.013  11.766 -0.8304 -0.1783  0.7261
  546MOL0     C71973   4.461   7.018  11.733  0.1631 -0.8269 -0.4719
  546MOL0     C71974   4.372   6.927  11.792 -0.1540  0.7019  0.1278
  546MOL0     O71975   4.236   6.944  11.769 -1.3710  0.5788  0.1067
  546MOL0     C71976   4.187   6.952  11.629 -0.1360  0.8862 -0.1536
  546MOL0     C71977   4.081   7.057  11.631 -0.4034 -0.3076  0.3271
  546MOL0     C71978   3.946   7.012  11.691 -0.0457  0.1543 -1.0204
  546MOL0     C71979   3.846   7.125  11.666 -0.0626  0.0431  0.3470
  546MOL0     C71980   3.752   7.127  11.788 -0.7652  0.2187  0.3302
  546MOL0     C71981   3.680   7.260  11.795 -0.8989 -0.0619 -0.4435
  546MOL0     C71982   3.592   7.267  11.918 -0.7782  0.1718  0.0728
  546MOL0     C71983   3.549   7.412  11.947  0.2408 -0.3675 -0.5282
  546MOL0    Cl71984   3.444   7.465  11.811 -0.1997  0.1108 -0.2443
  546MOL0     C71985   4.421   6.822  11.865 -0.0117 -0.2496 -0.4560
  546MOL0     C71986   4.561   6.803  11.883  0.9321 -0.0071  0.2613
  546MOL0     O71987   4.791   6.756  12.031 -0.1336 -0.7870  0.3097
  546MOL0     C71988   5.072   6.916  11.869  0.6845 -0.5580  0.6218
  546MOL0     C71989   5.212   6.902  11.871 -0.4384 -0.7823 -0.0046
  546MOL0     N71990   5.834   6.940  11.739 -0.0336  0.0476 -0.0735
  546MOL0     N71991   5.933   7.020  11.740  0.4888 -0.6764 -0.2956
  546MOL0     C71992   7.134   7.533  11.323 -0.8063  0.6068  0.2153
  546MOL0     C71993   7.277   7.510  11.334  0.7799  0.1650 -0.4023
  546MOL0     C71994   7.678   7.409  11.377 -0.8002 -0.4264  0.1420
  546MOL0     C71995   7.776   7.383  11.273  0.7105  0.1974  0.4326
  546MOL0     C71996   7.914   7.414  11.290  0.6606 -0.0030 -0.0776
  546MOL0     C71997   7.954   7.472  11.409 -0.1660 -0.5603  0.4659
  546MOL0     O71998   8.085   7.503  11.446  0.2116 -0.6860  0.4202
  546MOL0     C71999   8.183   7.555  11.345  0.2273 -0.9191 -0.5488
  546MOL0     C72000   8.171   7.710  11.351 -0.3400 -0.4830  0.7303
  546MOL0     C72001   8.131   7.775  11.216 -0.8065  0.3128  0.8909
  546MOL0     C72002   8.200   7.720  11.092  0.5964 -0.6164  0.7715
  546MOL0     C72003   8.166   7.801  10.978  0.3496  0.5015 -0.1199
  546MOL0     C72004   8.130   7.870  10.883  0.0912  0.1233 -0.3460
  546MOL0     C72005   7.861   7.492  11.512  0.6926 -0.7797  0.2039
  546MOL0     C72006   7.723   7.473  11.495 -0.1207  0.2945  0.4177
  546MOL0     H72007   7.267   7.298  11.592 -2.4524 -0.5706 -0.6261
  546MOL0     H72008   7.028   7.338  11.584 -0.2081 -1.6690 -0.2809
  546MOL0     H72009   6.798   7.437  11.546 -0.5974 -1.6924  0.9784
  546MOL0     H72010   6.821   7.301  11.443 -1.3894 -0.1305 -0.5880
  546MOL0     H72011   6.667   7.408  11.270  0.6608 -1.6274  1.2265
  546MOL0     H72012   6.622   7.531  11.372  0.3564  0.8705 -0.9477
  546MOL0     H72013   6.564   7.355  11.540  0.0594  2.6223 -1.6877
  546MOL0     H72014   6.611   7.229  11.411 -0.1773 -0.1315 -2.5530
  546MOL0     H72015   6.408   7.449  11.382 -0.0773 -0.8413  2.0777
  546MOL0     H72016   6.424   7.299  11.277  0.3926 -0.6762  0.7119
  546MOL0     H72017   6.219   7.309  11.442 -0.1455  1.6584  2.0927
  546MOL0     H72018   6.333   7.288  11.567 -1.6266 -1.0738 -0.6792
  546MOL0     H72019   6.395   7.060  11.427 -0.5395 -1.9269  2.0361
  546MOL0     H72020   6.283   7.111  11.311 -0.2055 -2.3870  0.2533
  546MOL0     H72021   6.102   7.044  11.415  0.3547  3.1058  0.2366
  546MOL0     H72022   6.229   6.927  11.469  1.7144  0.5424  0.2545
  546MOL0     H72023   6.142   7.155  11.643  2.7090  0.3760 -1.9311
  546MOL0     H72024   6.236   7.004  11.684  2.4158  0.3826 -2.1214
  546MOL0     H72025   6.068   6.759  11.594  2.9586  2.2798 -0.9508
  546MOL0     H72026   5.848   6.605  11.745  1.7729  1.9521 -0.0969
  546MOL0     H72027   5.825   6.649  11.577 -2.8052 -0.8767 -0.4253
  546MOL0     H72028   5.620   6.596  11.644 -0.0051 -0.3379 -0.1384
  546MOL0     H72029   5.622   6.767  11.612 -0.5120 -0.4840  1.2082
  546MOL0     H72030   5.578   6.624  11.869  0.5206  0.7075  2.6928
  546MOL0     H72031   5.689   6.764  11.884 -1.0838 -0.0213  1.9713
  546MOL0     H72032   5.422   6.785  11.737  1.6584 -0.4135 -1.4297
  546MOL0     H72033   5.513   6.907  11.813 -3.0608  0.4801  0.1070
  546MOL0     H72034   5.241   6.618  12.041 -3.7470 -0.9500  2.4566
  546MOL0     H72035   5.017   6.631  12.051  2.3334 -1.3325  2.1612
  546MOL0     H72036   4.662   7.096  11.746 -1.5974  1.5849  4.4478
  546MOL0     H72037   4.422   7.106  11.682  3.8477  1.2644 -0.0054
  546MOL0     H72038   4.142   6.858  11.597 -0.0653  0.9337 -0.4011
  546MOL0     H72039   4.264   6.961  11.551 -0.0591  0.7379 -0.0971
  546MOL0     H72040   4.070   7.099  11.531 -1.3216  3.9789  2.0053
  546MOL0     H72041   4.122   7.136  11.696  0.0013 -1.1399  1.1026
  546MOL0     H72042   3.961   7.004  11.799 -0.7050  1.2589 -0.8308
  546MOL0     H72043   3.903   6.915  11.666 -3.5417  0.5504  2.4827
  546MOL0     H72044   3.894   7.223  11.661 -1.0214  0.5913  1.4231
  546MOL0     H72045   3.789   7.111  11.574 -1.7122 -0.5840  1.4290
  546MOL0     H72046   3.803   7.110  11.884 -3.2833 -2.6099  1.3544
  546MOL0     H72047   3.681   7.045  11.779 -1.6903  1.0394  0.0249
  546MOL0     H72048   3.622   7.275  11.704  1.4443  0.7456 -1.8806
  546MOL0     H72049   3.764   7.330  11.802  2.0829 -3.0195 -3.4262
  546MOL0     H72050   3.497   7.214  11.900 -1.0327  0.7963 -0.4776
  546MOL0     H72051   3.629   7.215  12.006  0.1429 -0.3863 -0.6260
  546MOL0     H72052   3.640   7.472  11.940  1.3490 -1.9917 -0.3916
  546MOL0     H72053   3.505   7.432  12.045  0.6253  1.7321 -0.7453
  546MOL0     H72054   4.356   6.744  11.905 -1.0660  0.6553 -0.3693
  546MOL0     H72055   4.587   6.714  11.938 -1.0732 -0.7864  0.0114
  546MOL0     H72056   5.021   6.996  11.816  0.8195 -1.0372 -0.2445
  546MOL0     H72057   5.267   6.980  11.820 -1.2042 -0.5965 -0.5516
  546MOL0     H72058   7.091   7.616  11.267  0.3213  0.9465 -0.1808
  546MOL0     H72059   7.356   7.562  11.281 -0.7413  3.3200  0.2089
  546MOL0     H72060   7.747   7.323  11.188 -2.8795 -1.0141  2.2937
  546MOL0     H72061   7.992   7.391  11.218 -0.1096 -1.4612 -0.4734
  546MOL0     H72062   8.171   7.496  11.253 -1.3093 -4.4585  1.6893
  546MOL0     H72063   8.279   7.530  11.392 -0.5563  0.6673  2.1013
  546MOL0     H72064   8.116   7.738  11.441 -0.0734 -0.2106  0.8097
  546MOL0     H72065   8.271   7.753  11.360 -1.3339  2.1591  0.0177
  546MOL0     H72066   8.137   7.884  11.220  3.4924  0.3194 -0.5458
  546MOL0     H72067   8.026   7.746  11.201 -1.3125  2.4143 -0.0258
  546MOL0     H72068   8.309   7.729  11.101  0.9808 -2.0680 -1.7030
  546MOL0     H72069   8.158   7.623  11.067  0.4693 -0.6143  0.9714
  546MOL0     H72070   8.078   7.915  10.800 -1.7069 -1.6986 -0.3038
  546MOL0     H72071   7.885   7.538  11.607  0.5300  2.5628 -1.2377
  546MOL0     H72072   7.651   7.492  11.574 -0.0058 -0.7182  0.7899
  547MOL0     O72073   1.406   1.013   9.006  0.7344  0.1522 -0.9194
  547MOL0     C72074   1.517   1.061   8.984 -0.1058 -0.0722 -0.1386
  547MOL0     O72075   1.534   1.189   8.938  0.0285 -0.0480 -0.0856
  547MOL0     C72076   1.428   1.256   8.884  0.2847 -0.0378  0.2360
  547MOL0     C72077   1.399   1.387   8.931 -0.1565  0.5744  1.0345
  547MOL0     C72078   1.315   1.466   8.864  0.4093  0.1638  0.6000
  547MOL0     C72079   1.250   1.419   8.752 -0.6567 -0.1565 -0.2411
  547MOL0     O72080   1.170   1.508   8.681 -0.1699  0.2691 -0.5127
  547MOL0     C72081   1.029   1.463   8.656  0.0938  0.6843  0.2562
  547MOL0     C72082   0.951   1.430   8.784 -0.4971  0.5225 -0.2248
  547MOL0     C72083   0.842   1.330   8.768 -0.6718  0.5478  0.8014
  547MOL0     C72084   0.787   1.283   8.909 -0.6373 -0.0842  0.4916
  547MOL0     C72085   0.745   1.403   8.999 -0.0890  0.5114 -0.5080
  547MOL0     C72086   0.671   1.362   9.126 -0.2698 -0.6316  0.9579
  547MOL0     C72087   0.672   1.469   9.233  0.8975 -0.3739  0.8585
  547MOL0     C72088   0.586   1.588   9.202  0.0446  0.2534  0.7629
  547MOL0     N72089   0.444   1.544   9.203 -0.3905  0.2617  0.9502
  547MOL0     C72090   0.378   1.517   9.321  0.0889  0.3599 -0.7042
  547MOL0     C72091   0.256   1.492   9.284  0.3908  0.1676 -0.4006
  547MOL0     C72092   0.132   1.444   9.365  1.3710 -0.7602  1.0306
  547MOL0     C72093   0.128   1.292   9.364  0.3806 -0.0724  0.0251
  547MOL0     C72094   0.243   1.210   9.435  0.5843 -0.2717 -0.3723
  547MOL0     C72095   0.213   1.056   9.440 -0.0619 -0.3848  0.8242
  547MOL0     O72096   0.115   1.038   9.543  0.6640  0.2426 -0.2456
  547MOL0     C72097  -0.005   0.975   9.518  0.2982  0.7005  0.3859
  547MOL0     C72098  -0.080   0.930   9.625 -0.1745 -0.4297  0.8675
  547MOL0     C72099  -0.211   0.878   9.601  0.6867 -0.0679 -0.2632
  547MOL0     C72100  -0.260   0.865   9.466 -0.5019 -0.8113 -0.6840
  547MOL0     C72101  -0.389   0.810   9.441  0.7620 -0.5237 -0.6170
  547MOL0     O72102  -0.464   0.773   9.547  0.8828  0.1755 -0.9588
  547MOL0     C72103  -0.588   0.709   9.545  0.3267 -0.1220  0.3034
  547MOL0     C72104  -0.620   0.614   9.455 -0.2036 -0.3598  0.3149
  547MOL0     C72105  -0.738   0.538   9.467 -0.2336 -0.1348  0.0525
  547MOL0     C72106  -0.820   0.555   9.576 -0.0477  0.2873  0.2740
  547MOL0     O72107  -0.928   0.470   9.581  0.5012  0.7825 -0.4262
  547MOL0     C72108  -1.015   0.469   9.698  0.1993  0.0019  0.0912
  547MOL0     C72109  -1.135   0.385   9.653 -0.2856 -0.3140  0.8279
  547MOL0     C72110  -1.261   0.396   9.747 -0.2457  0.1309 -0.8153
  547MOL0     C72111  -1.329   0.530   9.713  1.0431 -0.4349  0.7582
  547MOL0     C72112  -1.451   0.565   9.801 -0.1554  0.5076 -0.3767
  547MOL0     C72113  -1.573   0.459   9.789 -0.1707  0.2566  0.4389
  547MOL0     C72114  -1.629   0.427   9.642 -0.2786  0.1336 -0.3853
  547MOL0     C72115  -1.667   0.553   9.565  0.4184 -0.6110  1.0219
  547MOL0    Cl72116  -1.797   0.640   9.639 -0.2405 -0.3190  0.1525
  547MOL0     C72117  -0.795   0.652   9.671 -0.4894 -0.3123  0.3727
  547MOL0     C72118  -0.679   0.734   9.652  0.0139  0.2076 -0.2369
  547MOL0     O72119  -0.407   0.780   9.327  0.2422 -0.3386 -0.2363
  547MOL0     C72120  -0.189   0.919   9.368 -0.0449 -0.4356  0.8299
  547MOL0     C72121  -0.056   0.963   9.387  0.2480  0.4705  0.0007
  547MOL0     N72122   0.245   1.510   9.147 -0.8278 -0.1409  0.5081
  547MOL0     N72123   0.361   1.556   9.102  0.2075 -0.2683 -0.2936
  547MOL0     C72124   1.272   1.283   8.710 -0.0169 -0.3022  0.5501
  547MOL0     C72125   1.356   1.199   8.779 -0.3554  0.3627 -0.2054
  547MOL0     C72126   1.631   0.995   9.049  0.2816  0.9255  0.4109
  547MOL0     C72127   1.764   1.033   9.026 -0.0213 -0.0613  0.1023
  547MOL0     C72128   1.873   0.977   9.097  0.9516 -0.6113  0.0222
  547MOL0     C72129   1.845   0.879   9.199 -0.9216 -0.2077 -0.6479
  547MOL0     O72130   1.943   0.817   9.276 -0.1863 -0.2547 -0.3533
  547MOL0     C72131   2.084   0.852   9.261  0.2036 -0.0790 -0.0569
  547MOL0     C72132   2.149   0.793   9.138  0.5300  0.5480 -0.2410
  547MOL0     C72133   2.284   0.732   9.175  0.6630 -0.7903 -0.0781
  547MOL0     C72134   2.354   0.676   9.048  0.1325 -0.4019 -0.9006
  547MOL0     C72135   2.486   0.633   9.094  0.0026  0.1011 -0.0795
  547MOL0     C72136   2.606   0.628   9.119  0.2397  0.6027 -0.1348
  547MOL0     C72137   1.711   0.852   9.232  0.4192  0.3198 -0.0862
  547MOL0     C72138   1.607   0.898   9.150  0.9471  0.3750 -0.3352
  547MOL0     H72139   1.459   1.415   9.017  0.2129 -1.2633  1.4087
  547MOL0     H72140   1.305   1.565   8.908 -0.6334 -0.3827  1.6652
  547MOL0     H72141   1.031   1.385   8.579  3.1885  1.6297 -0.7472
  547MOL0     H72142   0.976   1.547   8.608  0.7943  0.0968 -1.6296
  547MOL0     H72143   0.912   1.524   8.825 -2.7176  0.0742 -1.1795
  547MOL0     H72144   1.018   1.397   8.864 -1.1852  1.7480  0.9047
  547MOL0     H72145   0.880   1.246   8.710  0.9188  2.7088 -1.4932
  547MOL0     H72146   0.753   1.367   8.716 -0.5170 -1.1007 -0.7218
  547MOL0     H72147   0.705   1.214   8.885  0.5775 -0.8970 -1.6042
  547MOL0     H72148   0.871   1.237   8.961  1.3141  2.3670 -0.2755
  547MOL0     H72149   0.683   1.467   8.935 -1.2027 -0.8876 -0.8991
  547MOL0     H72150   0.830   1.463   9.031  0.4581 -0.1483 -0.7108
  547MOL0     H72151   0.725   1.278   9.171  1.3178 -0.3128 -0.2479
  547MOL0     H72152   0.573   1.321   9.102  0.1018 -0.2611 -1.4565
  547MOL0     H72153   0.633   1.427   9.325 -0.3276 -1.9702 -0.3293
  547MOL0     H72154   0.770   1.511   9.255 -0.3942  2.8655  1.0377
  547MOL0     H72155   0.623   1.633   9.109 -0.7484  0.6563  0.6354
  547MOL0     H72156   0.597   1.663   9.280  0.0972 -0.7455  1.7501
  547MOL0     H72157   0.415   1.508   9.423 -0.9765  0.4236 -0.3049
  547MOL0     H72158   0.040   1.485   9.323  1.0861 -2.0652  0.3367
  547MOL0     H72159   0.138   1.476   9.470 -0.7156  1.6248  0.5060
  547MOL0     H72160   0.119   1.257   9.260  4.2949  1.0773 -0.8762
  547MOL0     H72161   0.030   1.269   9.407  0.1064 -0.1928 -0.6360
  547MOL0     H72162   0.341   1.219   9.388 -0.0549  0.9749 -1.5488
  547MOL0     H72163   0.249   1.253   9.535  0.1403  0.3376 -0.6015
  547MOL0     H72164   0.293   0.991   9.478 -2.0089 -3.3235  0.2240
  547MOL0     H72165   0.185   1.020   9.341  0.6494  1.3373 -0.0446
  547MOL0     H72166  -0.033   0.936   9.722  3.2448 -0.1132 -0.6531
  547MOL0     H72167  -0.268   0.838   9.683 -0.7727  4.1249  1.0458
  547MOL0     H72168  -0.552   0.588   9.374 -1.0023 -2.2507  0.1999
  547MOL0     H72169  -0.775   0.465   9.395 -1.8003 -0.5837  1.2379
  547MOL0     H72170  -1.047   0.570   9.727  2.0850  0.4260  0.8693
  547MOL0     H72171  -0.988   0.425   9.794 -0.8603 -0.1934  0.3107
  547MOL0     H72172  -1.105   0.283   9.678 -0.6779 -0.1975  1.8236
  547MOL0     H72173  -1.157   0.397   9.547 -0.9727  1.2338  1.1132
  547MOL0     H72174  -1.240   0.383   9.854 -3.6331 -0.0278 -0.0374
  547MOL0     H72175  -1.326   0.312   9.721  1.0568 -1.2902  0.3453
  547MOL0     H72176  -1.252   0.606   9.727 -0.0940  1.3281 -1.8409
  547MOL0     H72177  -1.364   0.543   9.610 -3.8152 -1.6525  1.9570
  547MOL0     H72178  -1.472   0.667   9.769  1.7537 -0.0013 -3.7228
  547MOL0     H72179  -1.427   0.568   9.908  0.7352 -1.1427 -0.4959
  547MOL0     H72180  -1.658   0.502   9.842  0.1608  0.1747  1.0502
  547MOL0     H72181  -1.547   0.367   9.842 -2.7938 -0.4518  0.6181
  547MOL0     H72182  -1.549   0.368   9.596 -1.0850 -1.3224  0.0416
  547MOL0     H72183  -1.715   0.361   9.637  0.3724 -0.8396  0.7710
  547MOL0     H72184  -1.713   0.530   9.469 -1.3279 -2.3812  2.2078
  547MOL0     H72185  -1.580   0.619   9.556 -0.6275  0.7703  0.5300
  547MOL0     H72186  -0.866   0.679   9.749 -0.4985  2.3590 -0.4616
  547MOL0     H72187  -0.645   0.817   9.713  2.3598 -1.4878  0.9020
  547MOL0     H72188  -0.224   0.907   9.266  0.2593 -0.7196  0.7530
  547MOL0     H72189  -0.012   0.991   9.292 -0.3675  1.0367 -0.1256
  547MOL0     H72190   1.215   1.253   8.623 -0.7733  0.8028  0.6472
  547MOL0     H72191   1.360   1.094   8.749 -2.8085 -0.6512  2.5502
  547MOL0     H72192   1.795   1.113   8.960 -0.9087  0.8657  0.7786
  547MOL0     H72193   1.973   1.019   9.089 -0.2524  2.1133 -2.2121
  547MOL0     H72194   2.160   0.832   9.338  0.1176  0.5723  0.1954
  547MOL0     H72195   2.087   0.961   9.260  0.8967 -0.0422  1.8684
  547MOL0     H72196   2.084   0.716   9.094 -1.3903  1.8300  0.2156
  547MOL0     H72197   2.163   0.871   9.063  1.8288  0.9383  0.3756
  547MOL0     H72198   2.268   0.651   9.247  1.0209 -0.7755  0.0212
  547MOL0     H72199   2.345   0.807   9.226 -0.0157  0.0446 -0.4730
  547MOL0     H72200   2.292   0.597   9.003 -1.2218 -0.6466  1.2828
  547MOL0     H72201   2.374   0.758   8.978 -2.1952 -0.3478 -1.5776
  547MOL0     H72202   2.711   0.620   9.139  0.2863 -1.1959 -0.8602
  547MOL0     H72203   1.694   0.790   9.319  1.5733  2.0452  1.4313
  547MOL0     H72204   1.509   0.856   9.174  1.3914 -0.9370 -0.7087
  548MOL0     O72205   3.956  11.083   0.042 -0.0273 -0.0335 -0.4091
  548MOL0     C72206   3.959  11.136   0.155 -0.4528  0.0432 -0.2166
  548MOL0     O72207   3.854  11.145   0.238  0.4350 -0.0878 -0.7769
  548MOL0     C72208   3.724  11.104   0.210  0.3880  0.3120  0.2369
  548MOL0     C72209   3.640  11.141   0.316 -0.3698 -0.2192  0.6676
  548MOL0     C72210   3.502  11.111   0.309  1.4341  0.4390  0.0298
  548MOL0     C72211   3.450  11.029   0.198 -0.1621  0.5633 -0.2119
  548MOL0     O72212   3.312  11.003   0.195 -0.0120  0.2493  0.5091
  548MOL0     C72213   3.251  10.911   0.097  0.4759  0.1673 -0.6622
  548MOL0     C72214   3.105  10.907   0.121  0.0453  0.3127  0.4083
  548MOL0     C72215   3.076  10.840   0.258 -0.5585 -0.0645 -0.2666
  548MOL0     C72216   3.066  10.688   0.261 -1.2426  0.7025  0.7803
  548MOL0     C72217   2.995  10.631   0.387 -0.7483  0.2560 -0.7407
  548MOL0     C72218   2.938  10.494   0.368 -0.0074  0.2112 -0.6277
  548MOL0     C72219   2.871  10.438   0.502 -0.0408  0.4177 -0.2498
  548MOL0     C72220   2.776  10.321   0.459 -0.0858 -0.0133  0.1228
  548MOL0     N72221   2.721  10.262   0.582 -0.0288  0.2085  0.2570
  548MOL0     C72222   2.631  10.317   0.666  0.3311 -0.6952 -0.6091
  548MOL0     C72223   2.631  10.235   0.776 -0.9262 -0.4066  0.1728
  548MOL0     C72224   2.545  10.256   0.896 -0.9608 -0.0577 -0.2910
  548MOL0     C72225   2.391  10.258   0.875 -0.6081 -0.4325 -1.1815
  548MOL0     C72226   2.323  10.274   1.009  0.0898  0.3382  0.1413
  548MOL0     C72227   2.174  10.263   1.000  0.1105  0.0385  0.0639
  548MOL0     O72228   2.110  10.380   0.962 -0.5033  0.4316  0.2721
  548MOL0     C72229   1.970  10.372   0.953 -1.1517 -0.6450  0.2713
  548MOL0     C72230   1.898  10.266   0.987  0.3061  0.2843  0.2342
  548MOL0     C72231   1.756  10.269   0.976 -0.3295 -0.5444 -0.6130
  548MOL0     C72232   1.694  10.376   0.910  0.6182 -0.9666 -0.6043
  548MOL0     C72233   1.552  10.359   0.869  0.1296  0.6646 -0.6975
  548MOL0     O72234   1.486  10.234   0.882 -0.4380 -0.2627 -0.0943
  548MOL0     C72235   1.351  10.223   0.871 -0.4706  0.1394 -0.2272
  548MOL0     C72236   1.302  10.107   0.808  0.5186 -0.6891 -0.3163
  548MOL0     C72237   1.163  10.085   0.799 -0.3486  0.7677 -0.2414
  548MOL0     C72238   1.081  10.174   0.855  0.1626  0.4448  0.0672
  548MOL0     O72239   0.945  10.153   0.822 -0.4298 -0.3655  0.8616
  548MOL0     C72240   0.854  10.221   0.909 -0.0640  0.5705 -0.4556
  548MOL0     C72241   0.710  10.167   0.890 -0.3525 -0.4330  0.0960
  548MOL0     C72242   0.690  10.049   0.986  0.1918 -0.0602  0.4566
  548MOL0     C72243   0.546  10.003   0.993  0.0533 -0.0143 -0.0003
  548MOL0     C72244   0.529   9.882   1.087  0.4144 -0.1486  0.1602
  548MOL0     C72245   0.408   9.792   1.050 -0.8417 -0.4887 -0.6338
  548MOL0     C72246   0.268   9.866   1.069  0.1636  0.2711 -0.2648
  548MOL0     C72247   0.240   9.916   1.212  0.1204 -0.0966 -0.9081
  548MOL0    Cl72248   0.081   9.994   1.214  0.2684  0.2951 -0.0302
  548MOL0     C72249   1.132  10.283   0.932  0.3357  0.2458 -1.2105
  548MOL0     C72250   1.268  10.309   0.937 -0.3191 -0.3986 -0.3544
  548MOL0     O72251   1.496  10.467   0.844 -0.5491  0.1728  0.2452
  548MOL0     C72252   1.765  10.485   0.870  0.0042  0.7948  0.0618
  548MOL0     C72253   1.906  10.487   0.898 -0.7611  0.1018  0.9808
  548MOL0     N72254   2.732  10.148   0.760 -0.6488  0.1983 -0.3203
  548MOL0     N72255   2.785  10.160   0.643 -0.1478  0.1854 -0.1684
  548MOL0     C72256   3.544  10.978   0.102  1.4730 -0.6134 -0.1478
  548MOL0     C72257   3.674  11.025   0.105 -0.1795 -0.6553  0.2461
  548MOL0     C72258   4.085  11.193   0.198 -0.5107 -0.4537  0.5150
  548MOL0     C72259   4.100  11.245   0.328 -0.1524  0.8413  0.3742
  548MOL0     C72260   4.224  11.296   0.381  0.4733  0.2513 -0.5450
  548MOL0     C72261   4.332  11.299   0.296 -0.0772 -0.0493 -0.8842
  548MOL0     O72262   4.457  11.346   0.348  0.3739  0.9104 -0.0230
  548MOL0     C72263   4.551  11.242   0.374  0.2775  0.5114 -0.1106
  548MOL0     C72264   4.662  11.229   0.260  0.5624  0.4832 -0.1180
  548MOL0     C72265   4.701  11.376   0.227  0.4245 -0.5259 -0.5684
  548MOL0     C72266   4.809  11.375   0.125  0.8022  0.9388  0.6594
  548MOL0     C72267   4.945  11.354   0.178  0.7604 -0.2861 -0.2027
  548MOL0     C72268   5.051  11.337   0.225 -0.3684  0.8388 -0.4067
  548MOL0     C72269   4.323  11.258   0.158 -0.3044 -0.2148  0.4309
  548MOL0     C72270   4.200  11.208   0.113 -0.7235  0.6947 -0.5354
  548MOL0     H72271   3.689  11.190   0.400  2.2494 -0.3073 -0.7137
  548MOL0     H72272   3.432  11.132   0.390  0.1097 -2.3701 -0.2589
  548MOL0     H72273   3.293  10.813   0.121  1.5124  0.9105  0.7043
  548MOL0     H72274   3.275  10.945  -0.005  0.6237 -0.7135 -0.9246
  548MOL0     H72275   3.044  10.852   0.049 -3.1343  2.6440  1.0964
  548MOL0     H72276   3.072  11.012   0.116 -0.6521  0.0503 -1.0912
  548MOL0     H72277   2.979  10.882   0.288  0.0641  2.2554 -1.2310
  548MOL0     H72278   3.155  10.882   0.322  1.5574 -1.8290 -1.5661
  548MOL0     H72279   3.008  10.655   0.174  2.8255  2.0584 -2.8239
  548MOL0     H72280   3.163  10.640   0.253 -2.5200 -2.1726  1.2624
  548MOL0     H72281   2.918  10.703   0.416 -1.0391 -0.9304  1.7229
  548MOL0     H72282   3.065  10.632   0.470 -1.2209  0.3810 -0.3381
  548MOL0     H72283   3.011  10.420   0.334 -0.1437 -1.7644  2.9154
  548MOL0     H72284   2.860  10.510   0.293 -0.1332  2.0802 -0.1526
  548MOL0     H72285   2.954  10.402   0.563  0.1308 -0.6972 -1.1022
  548MOL0     H72286   2.807  10.505   0.559 -0.5323 -1.6438  1.7407
  548MOL0     H72287   2.836  10.249   0.402 -0.7549 -1.1336  0.7963
  548MOL0     H72288   2.706  10.366   0.387 -0.6620 -0.5071  0.3682
  548MOL0     H72289   2.575  10.410   0.666  1.0969 -0.1797  1.5235
  548MOL0     H72290   2.584  10.349   0.937  0.0504 -1.4520  2.1391
  548MOL0     H72291   2.572  10.177   0.967  4.3773  1.9868  0.4170
  548MOL0     H72292   2.356  10.165   0.828 -2.4746  1.1864 -3.1963
  548MOL0     H72293   2.374  10.335   0.799  2.8901  0.7205 -0.9982
  548MOL0     H72294   2.360  10.192   1.072  1.1902 -0.7473 -1.8135
  548MOL0     H72295   2.350  10.370   1.054  1.0271 -1.1463  3.0388
  548MOL0     H72296   2.143  10.230   1.100 -1.3034 -3.9182 -1.4615
  548MOL0     H72297   2.148  10.180   0.933 -0.0550  0.9371 -1.0073
  548MOL0     H72298   1.937  10.173   1.025 -0.7502 -0.3245 -0.1188
  548MOL0     H72299   1.697  10.184   1.009 -3.0386  1.3684 -0.2596
  548MOL0     H72300   1.373  10.049   0.750  0.5248 -0.3862 -0.6147
  548MOL0     H72301   1.127   9.993   0.753 -0.6867 -1.3095  3.7504
  548MOL0     H72302   0.862  10.329   0.890  1.7718  0.6878  0.7362
  548MOL0     H72303   0.886  10.204   1.013  1.1440  1.0776 -0.7279
  548MOL0     H72304   0.683  10.145   0.786  1.3335 -0.3717 -0.3902
  548MOL0     H72305   0.637  10.238   0.929 -1.2973 -1.2700 -0.1165
  548MOL0     H72306   0.718  10.085   1.086 -0.0381 -1.8976  1.2286
  548MOL0     H72307   0.760   9.969   0.959 -0.8967  0.2028 -3.8972
  548MOL0     H72308   0.484  10.082   1.037 -0.1939  0.0975 -0.5397
  548MOL0     H72309   0.516   9.981   0.891  0.8977  0.9697 -0.4819
  548MOL0     H72310   0.533   9.904   1.194  1.4055 -0.6327  0.2379
  548MOL0     H72311   0.617   9.817   1.087  0.8928  0.3701  3.3396
  548MOL0     H72312   0.400   9.712   1.123 -1.7921  0.5938  0.5063
  548MOL0     H72313   0.423   9.750   0.950 -3.6034 -0.2165 -1.2384
  548MOL0     H72314   0.265   9.957   1.007 -1.0211  0.3285 -0.1502
  548MOL0     H72315   0.193   9.798   1.028 -0.0415  0.1072  0.3835
  548MOL0     H72316   0.318   9.985   1.241  1.5595 -1.3085 -1.7124
  548MOL0     H72317   0.239   9.827   1.276  1.8153  0.7206  0.3218
  548MOL0     H72318   1.060  10.354   0.971  2.4435  0.5423  2.5591
  548MOL0     H72319   1.310  10.378   1.009  0.7978  0.2224 -1.5647
  548MOL0     H72320   1.735  10.571   0.811 -0.3354  0.1491 -0.7251
  548MOL0     H72321   1.971  10.567   0.863 -1.5087  0.4773  0.4232
  548MOL0     H72322   3.508  10.913   0.023  0.3677 -1.0392  0.6748
  548MOL0     H72323   3.739  10.992   0.025  0.2585  1.7915 -0.4748
  548MOL0     H72324   4.011  11.252   0.389 -0.3349  0.3177  0.1698
  548MOL0     H72325   4.230  11.339   0.481  0.3867  0.8082 -0.7719
  548MOL0     H72326   4.506  11.144   0.396 -0.1841  0.7941  0.2230
  548MOL0     H72327   4.608  11.272   0.462 -2.3204 -0.0531  1.8937
  548MOL0     H72328   4.737  11.165   0.306 -1.7003 -0.6857  2.1974
  548MOL0     H72329   4.626  11.182   0.169  0.3409 -2.0315  1.1886
  548MOL0     H72330   4.733  11.436   0.312 -0.4228 -1.5556  0.5197
  548MOL0     H72331   4.613  11.425   0.184  0.9146 -0.5174 -1.5930
  548MOL0     H72332   4.796  11.301   0.046  2.6766  3.3216 -2.1305
  548MOL0     H72333   4.812  11.471   0.071  2.4072  0.8273  0.4831
  548MOL0     H72334   5.148  11.309   0.262  1.4103  3.1842 -2.8753
  548MOL0     H72335   4.403  11.271   0.085 -0.4063  1.7203  0.6101
  548MOL0     H72336   4.181  11.171   0.013 -0.6426  1.4498 -0.8376
  549MOL0     O72337   6.884   5.752   4.781 -0.6979 -0.0433 -0.6661
  549MOL0     C72338   6.936   5.753   4.663  0.1012 -0.9423 -0.1784
  549MOL0     O72339   6.857   5.764   4.550  0.5569 -0.4850 -0.0095
  549MOL0     C72340   6.725   5.772   4.563 -0.2756  0.0426 -0.5650
  549MOL0     C72341   6.668   5.899   4.569  0.2462  0.5551 -0.1484
  549MOL0     C72342   6.534   5.914   4.580 -0.3650  0.3505  1.3919
  549MOL0     C72343   6.448   5.802   4.584 -0.3929 -0.7559  0.0402
  549MOL0     O72344   6.312   5.818   4.597 -0.6399 -0.5745  0.4875
  549MOL0     C72345   6.250   5.918   4.682 -0.1607 -0.4101  0.3241
  549MOL0     C72346   6.133   5.998   4.615  0.4949 -0.0543 -0.1503
  549MOL0     C72347   5.993   5.940   4.642 -1.1195 -0.2966  0.2397
  549MOL0     C72348   5.978   5.812   4.561 -0.2766  0.2185 -0.1811
  549MOL0     C72349   5.839   5.743   4.568  0.4414 -0.2865 -0.2875
  549MOL0     C72350   5.741   5.826   4.481  0.2424 -0.0407  0.3074
  549MOL0     C72351   5.617   5.746   4.470 -0.3287  0.5576 -0.0963
  549MOL0     C72352   5.505   5.812   4.395  0.3521 -0.3370  0.1233
  549MOL0     N72353   5.374   5.748   4.422 -0.5019  0.1873 -0.4686
  549MOL0     C72354   5.261   5.819   4.457 -0.0065 -0.3011  0.1768
  549MOL0     C72355   5.152   5.751   4.433 -0.0989  0.1539 -0.5568
  549MOL0     C72356   5.011   5.796   4.462  0.0488 -0.4017  0.1940
  549MOL0     C72357   4.974   5.794   4.606  0.8533 -0.6839 -0.0639
  549MOL0     C72358   4.822   5.818   4.619 -0.3635 -0.3081  0.2714
  549MOL0     C72359   4.754   5.686   4.623  0.4015  0.3208  0.2759
  549MOL0     O72360   4.625   5.686   4.685  0.5132  0.4086  0.3298
  549MOL0     C72361   4.542   5.591   4.637  0.4321  0.4027  0.8261
  549MOL0     C72362   4.469   5.511   4.728  0.7492 -0.6507 -0.3269
  549MOL0     C72363   4.363   5.421   4.692  0.4865 -0.3620 -0.0204
  549MOL0     C72364   4.324   5.415   4.556  0.4720  0.2817  0.6302
  549MOL0     C72365   4.206   5.338   4.507 -0.5510  0.1169  0.9299
  549MOL0     O72366   4.082   5.343   4.569 -0.0580 -0.1345 -0.0480
  549MOL0     C72367   3.981   5.271   4.517  0.2294 -0.1535  1.1056
  549MOL0     C72368   3.883   5.326   4.435  0.9515 -0.7905 -0.1852
  549MOL0     C72369   3.773   5.255   4.394 -0.3264  0.1918 -0.0075
  549MOL0     C72370   3.760   5.115   4.413  0.0673  0.2506 -0.0039
  549MOL0     O72371   3.657   5.039   4.366 -0.4446 -0.2782  0.1069
  549MOL0     C72372   3.560   5.099   4.278 -0.2956  0.2078  0.2759
  549MOL0     C72373   3.444   5.004   4.262  0.0152 -0.6382 -0.0672
  549MOL0     C72374   3.326   5.062   4.186  1.1008  0.1990  0.7776
  549MOL0     C72375   3.225   4.943   4.164 -0.3324 -0.4890 -0.0445
  549MOL0     C72376   3.073   4.983   4.145 -0.1901 -0.8362 -0.3508
  549MOL0     C72377   3.007   5.034   4.277  0.4770 -0.0535 -0.3591
  549MOL0     C72378   2.872   5.099   4.254  0.0076 -0.2023 -0.2576
  549MOL0     C72379   2.872   5.247   4.261 -0.6542 -0.3142 -0.1425
  549MOL0    Cl72380   2.946   5.326   4.119  0.0109 -0.0927  0.0341
  549MOL0     C72381   3.860   5.061   4.503  0.0078  0.0985  1.2520
  549MOL0     C72382   3.970   5.136   4.547 -0.1660 -0.1923 -0.1269
  549MOL0     O72383   4.234   5.287   4.394  0.3955 -0.6227  0.4237
  549MOL0     C72384   4.403   5.486   4.463 -0.5391 -0.7432  0.3302
  549MOL0     C72385   4.508   5.573   4.506 -0.1785  0.0283 -0.0316
  549MOL0     N72386   5.196   5.627   4.393 -0.6972  0.3268  0.0950
  549MOL0     N72387   5.329   5.629   4.374 -0.3146 -0.1259 -0.4468
  549MOL0     C72388   6.505   5.677   4.572 -0.5077  0.0827  0.5897
  549MOL0     C72389   6.638   5.660   4.552 -0.3201 -0.6667 -0.0618
  549MOL0     C72390   7.078   5.719   4.646 -0.5515 -0.8063 -0.0632
  549MOL0     C72391   7.166   5.725   4.759 -0.9614  0.3111 -0.8157
  549MOL0     C72392   7.307   5.711   4.734 -0.7191  0.0643 -0.7363
  549MOL0     C72393   7.355   5.679   4.611 -0.2404 -0.5218 -0.4677
  549MOL0     O72394   7.489   5.648   4.593  0.1491  0.1134 -0.3403
  549MOL0     C72395   7.574   5.761   4.560  1.1547  0.7438 -0.3336
  549MOL0     C72396   7.672   5.807   4.675 -0.5890 -0.8845  0.1753
  549MOL0     C72397   7.780   5.890   4.607  0.7844 -0.1105  1.5301
  549MOL0     C72398   7.894   5.933   4.697  0.4864  0.0315 -0.4015
  549MOL0     C72399   7.988   6.014   4.615  0.1033  0.1435  0.4549
  549MOL0     C72400   8.061   6.077   4.547 -0.0776  0.4973 -0.8600
  549MOL0     C72401   7.264   5.673   4.502  0.3921 -0.2365  0.6356
  549MOL0     C72402   7.131   5.690   4.516  0.1350 -0.9186  0.0666
  549MOL0     H72403   6.727   5.990   4.573  0.8062  0.3420 -2.2593
  549MOL0     H72404   6.479   6.007   4.591 -2.4744 -0.0564 -3.2868
  549MOL0     H72405   6.326   5.981   4.728 -0.5181 -1.3238  2.2722
  549MOL0     H72406   6.204   5.871   4.770 -2.8239  1.6207  0.1614
  549MOL0     H72407   6.161   6.019   4.512 -1.3611  4.1966 -0.0186
  549MOL0     H72408   6.131   6.101   4.652 -1.7813  0.1538 -0.7194
  549MOL0     H72409   5.920   6.012   4.604 -0.5380 -1.5994 -3.8185
  549MOL0     H72410   5.989   5.913   4.748  0.0354 -0.7996  0.1668
  549MOL0     H72411   6.025   5.822   4.462  1.7201  0.2507  0.7225
  549MOL0     H72412   6.037   5.734   4.610  0.2814 -0.4441 -1.8204
  549MOL0     H72413   5.794   5.738   4.668 -4.5386 -1.7136 -2.3237
  549MOL0     H72414   5.837   5.641   4.529 -3.1223  0.7131 -3.2504
  549MOL0     H72415   5.790   5.856   4.388 -2.5019  0.8671 -0.9546
  549MOL0     H72416   5.707   5.913   4.538  0.5716 -0.6090  1.3943
  549MOL0     H72417   5.640   5.652   4.421  0.8026  1.1181 -0.6721
  549MOL0     H72418   5.588   5.724   4.573  2.0639  2.4993  1.0896
  549MOL0     H72419   5.523   5.810   4.287 -0.3087  0.2218 -0.0078
  549MOL0     H72420   5.501   5.914   4.432 -1.5441 -0.4044  0.2097
  549MOL0     H72421   5.256   5.920   4.497 -0.4420 -1.1197  2.3224
  549MOL0     H72422   4.957   5.717   4.410  1.5396 -0.8809 -0.6903
  549MOL0     H72423   4.982   5.893   4.422  3.0385  0.7239  0.4853
  549MOL0     H72424   5.026   5.885   4.638  2.9103 -0.5263 -3.3360
  549MOL0     H72425   5.009   5.709   4.666  1.3822 -1.5474 -1.5402
  549MOL0     H72426   4.808   5.860   4.719  1.9675  0.6828  0.2529
  549MOL0     H72427   4.771   5.882   4.547 -0.4671 -1.0762 -0.3490
  549MOL0     H72428   4.802   5.604   4.676  0.8990 -0.4054 -1.2516
  549MOL0     H72429   4.743   5.657   4.518  2.7850  0.3281 -0.0350
  549MOL0     H72430   4.489   5.535   4.832 -2.0939 -0.2867  0.2379
  549MOL0     H72431   4.318   5.360   4.771  0.6632  2.9218  2.8551
  549MOL0     H72432   3.879   5.434   4.424 -1.2907 -0.6571  1.2462
  549MOL0     H72433   3.688   5.311   4.356  0.8733  2.0814 -0.0416
  549MOL0     H72434   3.601   5.121   4.179  1.3344  1.3692  1.1540
  549MOL0     H72435   3.529   5.194   4.322 -1.2920 -0.9353  2.2129
  549MOL0     H72436   3.407   4.974   4.361 -4.1826 -0.1158 -1.2550
  549MOL0     H72437   3.479   4.919   4.203 -0.9399 -1.3293  0.3183
  549MOL0     H72438   3.367   5.100   4.092  1.7343  1.7984  1.6739
  549MOL0     H72439   3.281   5.145   4.240 -0.0740  0.5948 -0.7356
  549MOL0     H72440   3.259   4.876   4.084 -4.0821  0.0263 -2.2981
  549MOL0     H72441   3.231   4.886   4.258 -1.5533  1.5164  1.3246
  549MOL0     H72442   3.013   4.896   4.116 -0.8057  0.1732 -2.3159
  549MOL0     H72443   3.061   5.055   4.063 -2.1886  1.9724  2.1906
  549MOL0     H72444   3.074   5.107   4.323  0.4695 -0.2438 -0.0499
  549MOL0     H72445   2.994   4.950   4.346 -1.2329  2.5474  2.7639
  549MOL0     H72446   2.823   5.068   4.162 -3.3734  0.3557  1.2041
  549MOL0     H72447   2.800   5.067   4.330 -0.0556  3.3803  1.4133
  549MOL0     H72448   2.897   5.285   4.360 -0.9890  0.7376 -0.4417
  549MOL0     H72449   2.768   5.280   4.259 -0.2164  1.3243  1.3908
  549MOL0     H72450   3.839   4.961   4.541  2.5869 -0.4047  1.5473
  549MOL0     H72451   4.052   5.091   4.602  0.6992  1.7844  0.3192
  549MOL0     H72452   4.388   5.488   4.356  1.5189  0.3968  0.0187
  549MOL0     H72453   4.568   5.620   4.428 -1.4390  1.4630 -0.2028
  549MOL0     H72454   6.450   5.584   4.583  1.9652 -1.3416  1.6235
  549MOL0     H72455   6.691   5.568   4.533  1.5973  0.8285 -2.6661
  549MOL0     H72456   7.126   5.736   4.859 -0.0152 -1.7486 -0.1728
  549MOL0     H72457   7.386   5.706   4.809  0.5531 -1.5540 -2.1076
  549MOL0     H72458   7.516   5.848   4.529 -1.1414 -0.7542 -0.4222
  549MOL0     H72459   7.632   5.728   4.473 -0.8004 -0.5815 -1.2020
  549MOL0     H72460   7.622   5.877   4.742  0.8595  1.8248 -1.4181
  549MOL0     H72461   7.714   5.725   4.734 -1.4125 -0.7182  1.0187
  549MOL0     H72462   7.735   5.978   4.561  1.0886 -0.4567  0.5603
  549MOL0     H72463   7.819   5.836   4.520 -0.4043  2.2252 -0.5713
  549MOL0     H72464   7.832   5.990   4.766 -2.3058  0.8311 -3.3240
  549MOL0     H72465   7.940   5.848   4.748  0.4662  1.8623  2.9756
  549MOL0     H72466   8.125   6.130   4.480  0.4414  0.0187 -0.7486
  549MOL0     H72467   7.293   5.649   4.401 -0.4294  2.1199 -0.2253
  549MOL0     H72468   7.066   5.690   4.429  0.8979  1.2163 -0.5599
  550MOL0     O72469   7.211   2.496   1.218 -0.9201 -0.2607 -0.2071
  550MOL0     C72470   7.252   2.607   1.267  0.5245  0.6608 -0.4089
  550MOL0     O72471   7.178   2.712   1.301  0.3404 -0.5254 -0.0210
  550MOL0     C72472   7.045   2.711   1.262 -0.4955 -0.0022  0.2874
  550MOL0     C72473   7.003   2.818   1.184  0.0430  0.5049 -0.4684
  550MOL0     C72474   6.868   2.833   1.161  0.4203  0.0336  0.3905
  550MOL0     C72475   6.774   2.735   1.202  0.6505  0.6971  0.0187
  550MOL0     O72476   6.644   2.751   1.165 -0.5799 -0.6261  0.4090
  550MOL0     C72477   6.528   2.729   1.250 -0.4751 -0.5842  0.4401
  550MOL0     C72478   6.410   2.792   1.178 -0.4878  0.4605  0.1186
  550MOL0     C72479   6.291   2.768   1.255 -0.0461  1.1899 -0.4938
  550MOL0     C72480   6.158   2.800   1.186  0.0446  0.3745 -0.6212
  550MOL0     C72481   6.055   2.875   1.280  0.2377  0.5660 -1.1573
  550MOL0     C72482   5.922   2.828   1.256 -0.5834 -0.1736  0.1515
  550MOL0     C72483   5.846   2.892   1.369 -0.5461  0.6288  0.2659
  550MOL0     C72484   5.696   2.861   1.352  0.7390  0.4483 -0.2766
  550MOL0     N72485   5.615   2.939   1.450  0.0646  0.3221  0.6678
  550MOL0     C72486   5.585   2.918   1.579  0.1831 -0.1528  0.1373
  550MOL0     C72487   5.512   3.028   1.627  0.3945  0.7930  0.1968
  550MOL0     C72488   5.437   3.040   1.761 -0.6692 -0.2155  0.4770
  550MOL0     C72489   5.412   3.191   1.789 -0.9369  0.0505  0.2522
  550MOL0     C72490   5.322   3.211   1.910  0.7638  0.0656  0.5660
  550MOL0     C72491   5.218   3.330   1.906 -0.6751  0.0529  0.6201
  550MOL0     O72492   5.134   3.313   1.788 -0.7045  0.0025 -0.0149
  550MOL0     C72493   5.002   3.281   1.806  0.1770  0.4599  0.4128
  550MOL0     C72494   4.950   3.221   1.920  0.8236 -0.0084  0.2496
  550MOL0     C72495   4.816   3.179   1.918 -0.5236  0.1965  0.9399
  550MOL0     C72496   4.729   3.191   1.802 -0.0111 -0.3180  0.3532
  550MOL0     C72497   4.588   3.159   1.797  0.8092  1.4613  0.5870
  550MOL0     O72498   4.527   3.135   1.920  0.3729  0.1813  0.6878
  550MOL0     C72499   4.396   3.099   1.914 -0.8659  0.2536  0.0350
  550MOL0     C72500   4.299   3.173   1.977  0.4679  0.4328 -0.2122
  550MOL0     C72501   4.169   3.126   1.974 -0.0196  0.2156  0.4394
  550MOL0     C72502   4.134   3.014   1.904  1.2214  0.5353  0.0519
  550MOL0     O72503   3.998   2.993   1.917 -0.0996 -0.0308  0.5910
  550MOL0     C72504   3.944   2.858   1.929 -0.3437 -0.2581  0.1010
  550MOL0     C72505   3.810   2.858   1.984 -0.1688  0.1629  0.8123
  550MOL0     C72506   3.731   2.725   1.955 -0.3622 -0.1428  0.5912
  550MOL0     C72507   3.586   2.756   2.008  0.0782 -0.2222  0.8757
  550MOL0     C72508   3.492   2.642   1.992 -0.0734 -0.3420  0.4351
  550MOL0     C72509   3.346   2.683   2.026 -0.8005 -0.1970  0.3278
  550MOL0     C72510   3.319   2.677   2.176  0.7286  0.3735  0.0824
  550MOL0     C72511   3.173   2.716   2.203  0.0736  0.9214 -0.3160
  550MOL0    Cl72512   3.138   2.883   2.168 -0.0100  0.1855 -0.0339
  550MOL0     C72513   4.230   2.938   1.847  0.3946 -0.3839 -0.1549
  550MOL0     C72514   4.366   2.979   1.850  0.0563  0.0868 -1.2222
  550MOL0     O72515   4.534   3.146   1.682  0.9213  0.7827 -0.7691
  550MOL0     C72516   4.788   3.250   1.694 -0.1739  0.6279  0.2586
  550MOL0     C72517   4.920   3.308   1.697  0.2135 -0.0242  0.4895
  550MOL0     N72518   5.512   3.117   1.521  0.1814 -0.7900 -0.0631
  550MOL0     N72519   5.571   3.063   1.422 -0.4499 -0.6686  0.4409
  550MOL0     C72520   6.817   2.625   1.280 -0.5715 -0.3609 -0.1323
  550MOL0     C72521   6.959   2.617   1.312 -0.0444  0.3081  0.2092
  550MOL0     C72522   7.402   2.622   1.282  0.0609 -0.2217  1.0772
  550MOL0     C72523   7.487   2.559   1.188 -0.0525  0.2191  0.2692
  550MOL0     C72524   7.628   2.577   1.203 -0.7479 -0.0087 -0.3321
  550MOL0     C72525   7.683   2.673   1.285  0.1163 -0.3952  0.6323
  550MOL0     O72526   7.816   2.723   1.280  0.4772 -0.1890 -0.0844
  550MOL0     C72527   7.924   2.646   1.223  0.7151  0.1387 -0.4409
  550MOL0     C72528   7.957   2.541   1.328  0.2417 -0.6360  0.0787
  550MOL0     C72529   8.079   2.474   1.292 -0.0138  0.1568 -0.1173
  550MOL0     C72530   8.098   2.343   1.378  0.2162  0.3885  0.1426
  550MOL0     C72531   8.220   2.275   1.343  0.5105 -0.7293  0.2348
  550MOL0     C72532   8.312   2.203   1.312 -0.4684 -0.5615  0.2366
  550MOL0     C72533   7.597   2.746   1.363  0.0128  0.6911 -0.7579
  550MOL0     C72534   7.462   2.719   1.365  0.2653 -0.5869  0.4935
  550MOL0     H72535   7.071   2.886   1.135  0.6766 -0.8884 -1.5891
  550MOL0     H72536   6.825   2.916   1.106  1.4552 -1.7506 -3.4609
  550MOL0     H72537   6.539   2.788   1.342  1.0195  0.8685 -0.6130
  550MOL0     H72538   6.522   2.626   1.287  1.4370 -0.3051  1.6806
  550MOL0     H72539   6.411   2.740   1.082 -1.9369  2.7084 -1.2130
  550MOL0     H72540   6.416   2.899   1.156 -2.7580  0.4811 -0.6015
  550MOL0     H72541   6.288   2.831   1.345  0.4421  1.9338 -0.9791
  550MOL0     H72542   6.275   2.664   1.285 -1.0759  0.9315 -1.8639
  550MOL0     H72543   6.183   2.856   1.095  3.4789  2.2248  1.2365
  550MOL0     H72544   6.118   2.704   1.152  3.1910  0.2168 -4.6789
  550MOL0     H72545   6.070   2.982   1.261 -1.6566  0.8537 -1.2009
  550MOL0     H72546   6.084   2.850   1.383  0.4436 -0.6278 -1.4973
  550MOL0     H72547   5.909   2.720   1.262 -0.4741 -0.1273  1.5230
  550MOL0     H72548   5.878   2.860   1.161 -0.8162 -0.5801  0.1204
  550MOL0     H72549   5.883   2.861   1.467  1.7621  2.9778  0.2431
  550MOL0     H72550   5.866   2.999   1.368 -0.6177  0.6503 -0.8935
  550MOL0     H72551   5.674   2.755   1.364 -2.5799  1.2566  2.2360
  550MOL0     H72552   5.656   2.878   1.252  0.0909 -1.7833 -0.4444
  550MOL0     H72553   5.600   2.828   1.638 -1.9417 -2.4841 -2.5570
  550MOL0     H72554   5.488   3.000   1.849  1.1105 -2.7928 -1.5557
  550MOL0     H72555   5.341   2.988   1.751 -0.6213  0.1488 -2.9357
  550MOL0     H72556   5.371   3.231   1.696  1.5281 -2.5162 -2.1501
  550MOL0     H72557   5.506   3.245   1.807 -0.8534  1.5459 -3.7518
  550MOL0     H72558   5.266   3.119   1.934  1.4739 -1.3105 -2.5411
  550MOL0     H72559   5.382   3.217   2.001  0.6297 -2.2756  0.8921
  550MOL0     H72560   5.278   3.421   1.899  1.4889 -1.3446 -0.3370
  550MOL0     H72561   5.156   3.338   1.996 -0.4552 -1.2283  0.9102
  550MOL0     H72562   5.011   3.202   2.008  1.9365  0.2172 -0.4540
  550MOL0     H72563   4.767   3.160   2.013 -1.3309 -1.5350  0.2189
  550MOL0     H72564   4.320   3.261   2.037  1.6786 -2.3267  3.8153
  550MOL0     H72565   4.106   3.200   2.022 -0.1448  0.7353 -0.5180
  550MOL0     H72566   3.997   2.790   1.997  0.9373 -0.4954 -1.0839
  550MOL0     H72567   3.930   2.815   1.829 -0.6095  3.4758 -1.6738
  550MOL0     H72568   3.754   2.943   1.946 -1.9714 -1.2939  0.0323
  550MOL0     H72569   3.814   2.871   2.092  4.3242  3.4344  0.5338
  550MOL0     H72570   3.769   2.633   2.001 -0.2498 -2.9221 -4.3501
  550MOL0     H72571   3.723   2.720   1.846  0.0339 -0.2385  0.5683
  550MOL0     H72572   3.590   2.783   2.115 -2.7645  2.6125  0.4285
  550MOL0     H72573   3.549   2.843   1.952 -0.4692 -0.4725  0.8399
  550MOL0     H72574   3.527   2.558   2.053 -0.4436 -0.2708  0.7434
  550MOL0     H72575   3.487   2.595   1.893 -3.7745 -0.2114  0.4237
  550MOL0     H72576   3.278   2.616   1.972  0.5387  0.3940 -2.2409
  550MOL0     H72577   3.333   2.783   1.985  2.4644  0.9641  1.7345
  550MOL0     H72578   3.328   2.572   2.207  0.5099  0.4497  0.4091
  550MOL0     H72579   3.393   2.736   2.231  0.7081  0.7133 -0.2482
  550MOL0     H72580   3.142   2.686   2.303 -2.7660  3.1979 -0.3799
  550MOL0     H72581   3.113   2.653   2.137  1.4703 -2.3102  1.2539
  550MOL0     H72582   4.197   2.844   1.803 -1.8381 -0.9210  2.3897
  550MOL0     H72583   4.453   2.926   1.812  1.1810 -0.8702  2.2900
  550MOL0     H72584   4.738   3.256   1.598 -0.6390 -0.7575  0.3847
  550MOL0     H72585   4.960   3.365   1.614  0.3568 -0.1772  0.4526
  550MOL0     H72586   6.748   2.553   1.322 -0.4609 -0.6223 -0.3888
  550MOL0     H72587   6.998   2.534   1.370 -1.4624 -1.9078 -1.8046
  550MOL0     H72588   7.435   2.483   1.131 -1.7187  0.1171  1.8368
  550MOL0     H72589   7.696   2.533   1.130 -0.0869  1.7514 -0.8478
  550MOL0     H72590   8.013   2.703   1.191  0.5906  1.0684  0.7614
  550MOL0     H72591   7.888   2.597   1.133 -2.5123  1.0764  0.2058
  550MOL0     H72592   7.966   2.592   1.425 -4.2223 -1.4228  1.1323
  550MOL0     H72593   7.880   2.464   1.332 -0.6882  0.3083  2.1618
  550MOL0     H72594   8.166   2.540   1.302  0.4692 -0.4996  0.0698
  550MOL0     H72595   8.078   2.440   1.188  2.2096  1.7232 -0.7219
  550MOL0     H72596   8.107   2.377   1.482 -0.6797  1.5824 -0.1537
  550MOL0     H72597   8.015   2.271   1.378 -0.1747  0.7938  1.5877
  550MOL0     H72598   8.397   2.142   1.291  0.3936  0.6630  0.0579
  550MOL0     H72599   7.636   2.829   1.422 -0.4755 -1.0369  2.2410
  550MOL0     H72600   7.396   2.770   1.434  0.0030  0.6437 -0.6093
  551MOL0     O72601   5.456  10.868   7.832  0.5619 -0.4495 -0.4725
  551MOL0     C72602   5.423  10.787   7.739 -0.6125  0.4572 -0.2581
  551MOL0     O72603   5.511  10.724   7.656 -0.6668 -0.4489 -0.3537
  551MOL0     C72604   5.649  10.756   7.649 -0.7638  0.5342 -0.2404
  551MOL0     C72605   5.691  10.890   7.672  0.4573 -0.7148  0.9192
  551MOL0     C72606   5.819  10.933   7.643  0.2322 -0.6303 -0.0226
  551MOL0     C72607   5.917  10.834   7.610  0.1621  0.1819  0.2584
  551MOL0     O72608   6.053  10.859   7.604  0.4494 -0.5398 -0.3004
  551MOL0     C72609   6.100  10.993   7.599 -0.1954 -0.4214 -0.3017
  551MOL0     C72610   6.233  10.991   7.529  0.6348 -1.1943 -0.1400
  551MOL0     C72611   6.346  10.944   7.615  0.0342 -0.6469 -0.4096
  551MOL0     C72612   6.477  10.949   7.543 -0.0866 -0.0767 -0.2409
  551MOL0     C72613   6.595  10.919   7.637  0.4952 -0.5569  0.4840
  551MOL0     C72614   6.711  10.877   7.560  0.7973 -0.0667  0.2903
  551MOL0     C72615   6.799  11.002   7.530  0.3966 -0.4808 -0.0337
  551MOL0     C72616   6.902  11.015   7.643  0.6955  1.1041  0.3059
  551MOL0     N72617   7.006  11.105   7.594  0.0412  0.6206 -0.9158
  551MOL0     C72618   6.989  11.246   7.620  1.2195  0.4706 -0.1376
  551MOL0     C72619   7.090  11.302   7.561  0.0133  0.3103  0.7047
  551MOL0     C72620   7.122  11.447   7.558  0.6820 -0.8265 -0.2739
  551MOL0     C72621   7.138  11.508   7.696  0.0625 -0.0345 -0.9698
  551MOL0     C72622   7.202  11.640   7.706  0.1808 -0.3564 -0.2343
  551MOL0     C72623   7.181  11.690   7.844 -0.0531  0.2402  0.4540
  551MOL0     O72624   7.047  11.735   7.854  1.0923  0.0168  0.1900
  551MOL0     C72625   7.016  11.861   7.826 -0.0884 -0.3681  0.1658
  551MOL0     C72626   7.080  11.957   7.743  0.5782 -0.6612  0.0021
  551MOL0     C72627   7.033  12.085   7.722 -0.4814  0.6115  0.1220
  551MOL0     C72628   6.913  12.126   7.788  0.2552  0.2697  0.2882
  551MOL0     C72629   6.880  12.274   7.779 -0.7134  0.4430 -0.7757
  551MOL0     O72630   6.947  12.347   7.684  0.2096 -0.2318  0.4653
  551MOL0     C72631   6.931  12.481   7.680 -0.4459  1.1315 -0.1988
  551MOL0     C72632   6.961  12.542   7.557 -0.7477  0.3845  0.6519
  551MOL0     C72633   6.958  12.687   7.545  0.4770  0.3044  0.0454
  551MOL0     C72634   6.942  12.762   7.663  0.4486 -0.3951  0.4909
  551MOL0     O72635   6.968  12.897   7.640  0.1626  0.2804 -0.0956
  551MOL0     C72636   6.906  12.988   7.740  0.0489 -0.0423  0.5251
  551MOL0     C72637   6.886  13.129   7.681 -0.2479 -0.0093 -0.3007
  551MOL0     C72638   7.012  13.209   7.684 -0.3331 -0.2277  0.1624
  551MOL0     C72639   7.003  13.333   7.593  0.6570  0.1088  0.1977
  551MOL0     C72640   7.114  13.434   7.625  0.2948 -0.0986  0.3675
  551MOL0     C72641   7.106  13.552   7.537 -0.6197  0.0178  0.5353
  551MOL0     C72642   7.191  13.662   7.586 -0.3168 -0.4272 -0.5430
  551MOL0     C72643   7.166  13.793   7.509 -0.1511 -0.6785 -0.6385
  551MOL0    Cl72644   7.004  13.852   7.534 -0.1944  0.1404  0.4453
  551MOL0     C72645   6.924  12.701   7.785  0.7393  0.4484 -0.0539
  551MOL0     C72646   6.916  12.560   7.798  0.8448  0.2424 -0.4563
  551MOL0     O72647   6.791  12.306   7.858 -0.2674 -0.2046 -0.7950
  551MOL0     C72648   6.848  12.033   7.870  1.0302  0.4654 -0.1181
  551MOL0     C72649   6.893  11.904   7.887 -0.6241  0.0960 -0.1968
  551MOL0     N72650   7.159  11.195   7.496 -0.0162  0.1751  0.4040
  551MOL0     N72651   7.102  11.085   7.507 -0.5406 -0.2283 -0.0614
  551MOL0     C72652   5.877  10.701   7.589  0.2020 -0.4174  0.2643
  551MOL0     C72653   5.743  10.665   7.608 -1.0544  0.4156 -0.9289
  551MOL0     C72654   5.282  10.785   7.701 -0.5757 -0.2016 -0.2402
  551MOL0     C72655   5.187  10.841   7.791 -0.2532 -0.2720  0.7046
  551MOL0     C72656   5.052  10.847   7.754  0.9358  0.0384 -0.1829
  551MOL0     C72657   5.003  10.777   7.640 -0.1977 -0.9766 -0.3550
  551MOL0     O72658   4.874  10.762   7.608  0.3644 -0.6006 -0.6886
  551MOL0     C72659   4.764  10.813   7.681  0.4681  0.3378 -0.1382
  551MOL0     C72660   4.632  10.798   7.617  0.0769  0.1956 -0.0109
  551MOL0     C72661   4.620  10.674   7.520 -0.5651  0.4308 -0.4739
  551MOL0     C72662   4.653  10.545   7.613  0.0813  0.3246  0.9335
  551MOL0     C72663   4.648  10.435   7.524  1.1249 -0.7342 -0.6892
  551MOL0     C72664   4.642  10.342   7.440  0.4039 -1.1588 -0.2579
  551MOL0     C72665   5.091  10.713   7.559 -1.0469  0.5308  0.3673
  551MOL0     C72666   5.233  10.718   7.592 -0.1853 -0.2921 -0.3925
  551MOL0     H72667   5.624  10.974   7.684 -0.5848 -1.5168  0.7738
  551MOL0     H72668   5.845  11.038   7.644  0.5560 -0.6819  2.7275
  551MOL0     H72669   6.120  11.026   7.701  0.5475 -0.1708 -0.5235
  551MOL0     H72670   6.036  11.059   7.541  0.9583  0.8551 -0.1681
  551MOL0     H72671   6.241  11.094   7.491  2.0500 -1.1313  0.2771
  551MOL0     H72672   6.219  10.929   7.440 -2.6372  2.5280 -2.6025
  551MOL0     H72673   6.306  10.846   7.643 -2.4028  0.4357  0.1330
  551MOL0     H72674   6.361  11.000   7.708  0.7819  0.0914 -0.9646
  551MOL0     H72675   6.481  10.877   7.461  2.5932 -1.3444  0.8602
  551MOL0     H72676   6.501  11.050   7.509  0.6023 -0.1946 -0.1343
  551MOL0     H72677   6.572  10.835   7.704 -0.9404 -0.7772 -0.2507
  551MOL0     H72678   6.624  11.003   7.701  3.2239 -1.6425  0.7879
  551MOL0     H72679   6.686  10.819   7.471 -0.0686 -0.2414  0.6349
  551MOL0     H72680   6.761  10.800   7.620  0.7718  0.7787  1.4206
  551MOL0     H72681   6.858  10.974   7.442 -1.1778 -2.3920 -0.5574
  551MOL0     H72682   6.734  11.089   7.516 -0.0157 -1.2854 -4.7852
  551MOL0     H72683   6.942  10.915   7.663 -1.0360  0.4854  0.9425
  551MOL0     H72684   6.857  11.051   7.737 -2.8895  1.0050 -1.2067
  551MOL0     H72685   6.909  11.291   7.678 -0.1835 -0.7190 -1.0897
  551MOL0     H72686   7.051  11.511   7.505  3.2500  2.6064  0.0702
  551MOL0     H72687   7.212  11.460   7.497  1.2007 -2.6812  0.0305
  551MOL0     H72688   7.188  11.443   7.769  0.9607  2.0166  0.3043
  551MOL0     H72689   7.033  11.508   7.725  0.1772 -0.8497 -0.5325
  551MOL0     H72690   7.306  11.633   7.673 -0.1724 -3.1479 -0.9649
  551MOL0     H72691   7.147  11.705   7.637 -0.4532 -1.7841 -1.1162
  551MOL0     H72692   7.258  11.765   7.866  0.4572  0.3633 -1.5779
  551MOL0     H72693   7.196  11.607   7.914  1.9394  0.9098  0.8970
  551MOL0     H72694   7.177  11.930   7.703  0.1571  0.8272 -2.2134
  551MOL0     H72695   7.092  12.150   7.659  1.5238  0.7746  2.0386
  551MOL0     H72696   6.976  12.483   7.467 -2.5520  2.8103 -1.3838
  551MOL0     H72697   6.979  12.737   7.451  1.5294 -1.0154 -0.4522
  551MOL0     H72698   6.967  13.001   7.830 -0.9982  1.7283  1.0443
  551MOL0     H72699   6.803  12.956   7.760 -1.1136  0.2403 -3.9578
  551MOL0     H72700   6.810  13.182   7.739  0.5111  0.6276  0.1302
  551MOL0     H72701   6.848  13.131   7.578  0.6100 -0.2494 -0.6273
  551MOL0     H72702   7.103  13.150   7.668 -0.0819  0.2663 -0.2883
  551MOL0     H72703   7.031  13.252   7.783  1.1101 -0.1353 -0.1260
  551MOL0     H72704   7.012  13.305   7.487  2.8414  2.0551 -0.2236
  551MOL0     H72705   6.905  13.378   7.606 -0.5262 -2.5990  1.3486
  551MOL0     H72706   7.213  13.388   7.618  0.6578  0.5799  0.9673
  551MOL0     H72707   7.113  13.471   7.727  1.0485  2.3509 -0.4413
  551MOL0     H72708   7.002  13.588   7.534 -1.3617 -1.8814  1.2897
  551MOL0     H72709   7.142  13.518   7.439  0.9570 -0.4748  1.2612
  551MOL0     H72710   7.154  13.688   7.686  1.1883  0.9788 -0.2982
  551MOL0     H72711   7.298  13.638   7.598 -0.3581  0.1219  1.2002
  551MOL0     H72712   7.197  13.791   7.404 -1.8189  0.7029 -1.2043
  551MOL0     H72713   7.238  13.865   7.552  0.5156 -1.2858 -0.7259
  551MOL0     H72714   6.929  12.755   7.879  2.6086 -1.6888  1.1855
  551MOL0     H72715   6.907  12.520   7.898  1.4026  1.9503  0.3100
  551MOL0     H72716   6.756  12.062   7.919  0.7372 -1.1911  0.3961
  551MOL0     H72717   6.848  11.837   7.958 -1.9740  1.9926  0.8106
  551MOL0     H72718   5.950  10.627   7.558  0.3877  0.7353 -2.2549
  551MOL0     H72719   5.716  10.563   7.585  1.5435 -0.2880 -1.0976
  551MOL0     H72720   5.213  10.899   7.878 -1.0449 -0.9110  1.3783
  551MOL0     H72721   4.981  10.894   7.821  0.6265  1.4009 -1.4088
  551MOL0     H72722   4.777  10.921   7.690  0.8153  0.3140 -0.3184
  551MOL0     H72723   4.769  10.768   7.781  0.7559  0.8017  0.0606
  551MOL0     H72724   4.553  10.783   7.692 -1.4984 -0.9221 -1.8110
  551MOL0     H72725   4.615  10.891   7.563 -0.2618 -0.7666 -1.6500
  551MOL0     H72726   4.697  10.684   7.443  1.4029 -0.1145  1.3129
  551MOL0     H72727   4.514  10.672   7.497 -0.6060 -0.7161 -0.2238
  551MOL0     H72728   4.747  10.550   7.668  0.7970  4.1287 -0.3636
  551MOL0     H72729   4.570  10.550   7.685 -0.2639  2.3908  0.4543
  551MOL0     H72730   4.655  10.262   7.370  1.9429  0.1453 -1.5595
  551MOL0     H72731   5.066  10.671   7.462 -0.9127  2.2902 -0.4673
  551MOL0     H72732   5.312  10.678   7.528 -0.2352  0.8137 -1.1837
  552MOL0     O72733   1.484   1.340   3.503  0.3753  0.1056 -0.5657
  552MOL0     C72734   1.527   1.451   3.484 -0.1358 -0.7900 -0.1527
  552MOL0     O72735   1.451   1.570   3.484  0.1217 -0.3347 -0.2625
  552MOL0     C72736   1.317   1.574   3.461  0.3283  0.6638 -0.8041
  552MOL0     C72737   1.246   1.483   3.378 -0.3862  1.3929 -1.4428
  552MOL0     C72738   1.109   1.494   3.365 -0.2562 -1.2496  0.3507
  552MOL0     C72739   1.041   1.603   3.422  0.4854  0.4049 -0.6101
  552MOL0     O72740   0.910   1.597   3.395 -0.3487 -0.0415 -0.3176
  552MOL0     C72741   0.829   1.691   3.453 -0.1411 -0.8879 -0.3037
  552MOL0     C72742   0.694   1.678   3.403  0.7843  0.7066  0.2402
  552MOL0     C72743   0.600   1.768   3.477 -0.5482  0.1796  0.7265
  552MOL0     C72744   0.467   1.754   3.390 -0.1819 -0.4168 -0.3585
  552MOL0     C72745   0.382   1.873   3.446  0.1223 -0.3434  0.0741
  552MOL0     C72746   0.247   1.882   3.380  0.0828  0.7338  0.5343
  552MOL0     C72747   0.146   1.993   3.416 -0.1684  0.2907  0.1153
  552MOL0     C72748   0.008   1.939   3.371  0.6636  0.5276  0.5458
  552MOL0     N72749  -0.079   2.049   3.405 -0.1864 -0.3826  0.9129
  552MOL0     C72750  -0.115   2.139   3.308 -0.4005  0.4533  0.7515
  552MOL0     C72751  -0.231   2.198   3.355 -0.1245 -0.2499  0.4686
  552MOL0     C72752  -0.321   2.303   3.291  0.7448 -0.5233 -0.2157
  552MOL0     C72753  -0.467   2.293   3.281 -0.0262  0.1102 -0.3692
  552MOL0     C72754  -0.528   2.438   3.248  0.0852 -0.0258  0.0201
  552MOL0     C72755  -0.683   2.438   3.269  1.1032  0.0488 -0.0353
  552MOL0     O72756  -0.731   2.550   3.194  0.2536 -0.7388 -1.2751
  552MOL0     C72757  -0.867   2.580   3.186 -0.3480 -0.3177  0.4922
  552MOL0     C72758  -0.904   2.681   3.101 -0.1000 -0.4121 -0.1345
  552MOL0     C72759  -1.038   2.716   3.081 -0.2086  0.1395 -0.0908
  552MOL0     C72760  -1.140   2.656   3.159  0.6117 -0.8199 -0.0110
  552MOL0     C72761  -1.279   2.696   3.145 -0.7518 -0.1127  0.1893
  552MOL0     O72762  -1.373   2.617   3.206 -0.2008  0.2464  0.2528
  552MOL0     C72763  -1.504   2.633   3.183  0.3095 -0.7224 -0.4130
  552MOL0     C72764  -1.560   2.574   3.066  0.4643  0.0178 -0.3634
  552MOL0     C72765  -1.695   2.595   3.037  0.1373 -1.0953  0.5654
  552MOL0     C72766  -1.767   2.684   3.114  0.7147  0.3304 -0.8476
  552MOL0     O72767  -1.895   2.702   3.068  0.0644  0.6945  0.0665
  552MOL0     C72768  -1.993   2.719   3.171 -0.0005 -0.4061  0.4616
  552MOL0     C72769  -2.127   2.750   3.113  0.0983  0.0441  0.0203
  552MOL0     C72770  -2.224   2.790   3.220  0.1721 -0.7070  0.6618
  552MOL0     C72771  -2.350   2.855   3.157 -0.3669  0.8909 -0.9169
  552MOL0     C72772  -2.460   2.865   3.256 -0.4272 -0.3888 -0.2717
  552MOL0     C72773  -2.594   2.910   3.200  0.2654  1.1271  0.0322
  552MOL0     C72774  -2.648   2.828   3.084  0.3366  0.2338  0.2754
  552MOL0     C72775  -2.797   2.860   3.055 -0.4157 -0.4770 -0.8676
  552MOL0    Cl72776  -2.832   3.033   2.999  0.3524  0.5763  0.3514
  552MOL0     C72777  -1.716   2.726   3.233 -0.2553 -1.1573 -0.2786
  552MOL0     C72778  -1.586   2.701   3.262 -0.4816 -0.0812 -0.1234
  552MOL0     O72779  -1.305   2.786   3.071 -0.0509 -0.2613  0.0800
  552MOL0     C72780  -1.106   2.558   3.253 -0.6494 -0.1429  0.1606
  552MOL0     C72781  -0.971   2.520   3.267  0.3065  0.1423  0.5680
  552MOL0     N72782  -0.240   2.161   3.487 -0.2849 -0.0952 -0.6306
  552MOL0     N72783  -0.152   2.069   3.515 -0.0655 -0.5065 -0.6157
  552MOL0     C72784   1.108   1.695   3.505  0.1949  0.0324 -0.7303
  552MOL0     C72785   1.246   1.678   3.526 -0.5390  0.0716 -0.6227
  552MOL0     C72786   1.674   1.480   3.465  0.5759  0.5061  0.4515
  552MOL0     C72787   1.762   1.375   3.487  0.3527  0.1871 -0.0651
  552MOL0     C72788   1.896   1.394   3.471 -0.6469  0.1078  0.2707
  552MOL0     C72789   1.955   1.517   3.440 -0.6581 -0.6005  0.0175
  552MOL0     O72790   2.094   1.504   3.438  0.1026 -0.1177  0.4914
  552MOL0     C72791   2.172   1.627   3.423 -0.0786 -0.3645  0.4301
  552MOL0     C72792   2.322   1.604   3.384 -0.3388  0.4583  0.6457
  552MOL0     C72793   2.408   1.711   3.436  0.2725 -0.3476 -0.7166
  552MOL0     C72794   2.529   1.745   3.348  0.2143  0.6567 -0.0968
  552MOL0     C72795   2.631   1.815   3.429  0.1815  0.1582  0.3733
  552MOL0     C72796   2.704   1.883   3.493 -0.2991  0.3749 -0.6927
  552MOL0     C72797   1.867   1.624   3.419  0.5038 -0.5667 -0.8251
  552MOL0     C72798   1.720   1.608   3.427  0.5845 -1.1748 -0.1293
  552MOL0     H72799   1.288   1.400   3.322 -1.5621 -0.9700  0.9233
  552MOL0     H72800   1.053   1.434   3.295  1.2196 -1.2090 -0.9371
  552MOL0     H72801   0.873   1.791   3.451  1.1941 -1.4622 -0.1683
  552MOL0     H72802   0.822   1.658   3.557  1.3525 -1.1016 -0.2547
  552MOL0     H72803   0.661   1.575   3.420  1.9878  0.0446 -1.1822
  552MOL0     H72804   0.704   1.681   3.294 -2.9338 -0.3698 -0.2614
  552MOL0     H72805   0.637   1.871   3.485 -1.8455  0.6295  1.3708
  552MOL0     H72806   0.583   1.735   3.580 -1.9832  1.2840  0.8894
  552MOL0     H72807   0.487   1.768   3.283  0.5024  0.0607 -0.1802
  552MOL0     H72808   0.421   1.656   3.402 -0.8053  0.1051  2.0847
  552MOL0     H72809   0.434   1.964   3.417 -0.7941  1.0554  2.4943
  552MOL0     H72810   0.377   1.879   3.555  0.2215 -1.0971  0.1310
  552MOL0     H72811   0.199   1.784   3.394  1.4843  0.0311  0.5591
  552MOL0     H72812   0.261   1.897   3.273 -2.3616  3.3389  0.4489
  552MOL0     H72813   0.140   2.017   3.522 -1.3798 -0.9008  0.3321
  552MOL0     H72814   0.172   2.083   3.359 -0.1512 -0.4921 -1.1423
  552MOL0     H72815  -0.033   1.849   3.418  0.7282 -0.5804 -1.3908
  552MOL0     H72816   0.009   1.914   3.264 -0.8403 -1.8340  0.9912
  552MOL0     H72817  -0.052   2.162   3.222  0.6765  0.8464  1.6234
  552MOL0     H72818  -0.287   2.331   3.191 -2.1817  4.5927 -0.1008
  552MOL0     H72819  -0.292   2.397   3.338  2.2804  0.4428 -2.8826
  552MOL0     H72820  -0.503   2.277   3.383 -3.7942 -2.7182 -1.9013
  552MOL0     H72821  -0.502   2.207   3.223 -2.2928 -1.4442  3.0112
  552MOL0     H72822  -0.481   2.520   3.303  1.3657 -0.3324 -0.5924
  552MOL0     H72823  -0.502   2.458   3.143 -0.6249  0.8560 -0.0051
  552MOL0     H72824  -0.709   2.439   3.375  4.1403 -0.5652  0.8258
  552MOL0     H72825  -0.722   2.346   3.224  1.1103  1.4477 -3.1229
  552MOL0     H72826  -0.838   2.736   3.034  0.6291  0.5020  1.2993
  552MOL0     H72827  -1.065   2.795   3.013 -1.3085  1.6477  1.9875
  552MOL0     H72828  -1.494   2.522   2.997 -1.0934 -1.7193 -0.6458
  552MOL0     H72829  -1.734   2.548   2.947  3.7712 -2.3734 -0.5203
  552MOL0     H72830  -1.961   2.798   3.240 -1.4600  0.2283  0.4499
  552MOL0     H72831  -2.008   2.627   3.229 -1.7679 -2.3740 -2.8023
  552MOL0     H72832  -2.152   2.658   3.059  0.8437 -0.7839  1.0355
  552MOL0     H72833  -2.121   2.831   3.040  0.8615  0.4901  0.5690
  552MOL0     H72834  -2.181   2.865   3.287  3.0680  0.0510 -1.8185
  552MOL0     H72835  -2.254   2.701   3.276  1.8928 -2.3676 -0.9228
  552MOL0     H72836  -2.326   2.952   3.113  0.4414  1.4378  0.6716
  552MOL0     H72837  -2.382   2.785   3.079  1.4601  1.3322 -2.1206
  552MOL0     H72838  -2.426   2.940   3.327  1.0834 -1.1639 -0.1341
  552MOL0     H72839  -2.474   2.770   3.309 -3.2432  0.7409  1.2398
  552MOL0     H72840  -2.587   3.013   3.163  0.6033  1.5159  1.1368
  552MOL0     H72841  -2.665   2.910   3.283 -2.4659 -0.8517 -2.1216
  552MOL0     H72842  -2.586   2.844   2.995 -1.0276  3.4545 -0.2517
  552MOL0     H72843  -2.636   2.723   3.111 -0.2823 -0.0966 -0.6875
  552MOL0     H72844  -2.853   2.852   3.148 -0.4594  0.4146 -0.8171
  552MOL0     H72845  -2.832   2.791   2.977  0.0685 -0.1655 -1.3676
  552MOL0     H72846  -1.754   2.802   3.301  3.6864 -0.5435  1.5240
  552MOL0     H72847  -1.530   2.747   3.343  0.7371 -0.3620 -0.7908
  552MOL0     H72848  -1.177   2.491   3.301 -1.7303  0.1594 -0.9884
  552MOL0     H72849  -0.939   2.439   3.331  2.5694  1.5639  1.3606
  552MOL0     H72850   1.065   1.777   3.561  0.3388 -0.0781 -0.4586
  552MOL0     H72851   1.293   1.742   3.600 -0.1453 -1.2330  0.2889
  552MOL0     H72852   1.723   1.274   3.495  2.2034 -0.6481 -0.8748
  552MOL0     H72853   1.965   1.311   3.481  1.2418  1.6084  0.4327
  552MOL0     H72854   2.169   1.691   3.511 -0.5984 -2.0331  1.6615
  552MOL0     H72855   2.132   1.691   3.343  2.3397 -0.0395 -0.6218
  552MOL0     H72856   2.361   1.512   3.428  0.1705  1.4380  2.3725
  552MOL0     H72857   2.323   1.592   3.276  4.4630 -0.0742  0.5266
  552MOL0     H72858   2.436   1.689   3.540  1.5828 -2.3630 -1.4340
  552MOL0     H72859   2.352   1.805   3.448 -0.4639 -0.6049 -2.0116
  552MOL0     H72860   2.583   1.657   3.313 -0.7806  0.6073 -1.6085
  552MOL0     H72861   2.505   1.806   3.260  0.8820  0.3248 -0.5154
  552MOL0     H72862   2.777   1.942   3.544  2.3920 -2.1724 -1.3328
  552MOL0     H72863   1.912   1.721   3.401  1.0677 -0.5677  0.4121
  552MOL0     H72864   1.650   1.686   3.398 -0.4517 -2.7817 -2.1511
  553MOL0     O72865   7.338   3.137   5.544  0.1232 -0.3268  0.3760
  553MOL0     C72866   7.400   3.056   5.480 -0.4287 -0.2368 -0.3921
  553MOL0     O72867   7.369   2.917   5.467 -0.3685 -0.1590 -0.7162
  553MOL0     C72868   7.253   2.868   5.524 -0.6127 -0.0881 -0.5460
  553MOL0     C72869   7.135   2.894   5.453 -1.1166 -0.9276 -0.3471
  553MOL0     C72870   7.013   2.842   5.506  0.5259 -0.4897  0.6724
  553MOL0     C72871   7.020   2.746   5.607 -0.6544 -0.0289 -0.7510
  553MOL0     O72872   6.897   2.696   5.624 -0.1473 -0.0532  0.3958
  553MOL0     C72873   6.871   2.571   5.696 -0.6205  0.3691  0.2560
  553MOL0     C72874   6.719   2.542   5.670 -0.6931 -0.8456 -0.6816
  553MOL0     C72875   6.627   2.625   5.766  0.2867 -0.4087 -0.0217
  553MOL0     C72876   6.494   2.623   5.697 -0.4953 -1.0375  0.5724
  553MOL0     C72877   6.484   2.724   5.588  0.0518  0.1853 -0.4942
  553MOL0     C72878   6.370   2.704   5.488 -0.0188 -0.2192  0.1337
  553MOL0     C72879   6.238   2.700   5.559 -0.4234 -0.1543 -0.8360
  553MOL0     C72880   6.123   2.703   5.464  1.1637 -0.5739 -0.0915
  553MOL0     N72881   5.997   2.735   5.543 -0.5627 -0.0872 -0.2408
  553MOL0     C72882   5.911   2.639   5.584  0.8879  1.1292  0.3498
  553MOL0     C72883   5.814   2.714   5.643 -0.0806  0.4539 -0.9737
  553MOL0     C72884   5.693   2.664   5.720  0.4432  0.4057  0.1269
  553MOL0     C72885   5.550   2.701   5.688 -0.2653  0.7527  0.6207
  553MOL0     C72886   5.461   2.609   5.762  0.5520 -0.4442  0.1327
  553MOL0     C72887   5.322   2.630   5.713  0.1637 -0.2671  0.2774
  553MOL0     O72888   5.227   2.560   5.790  0.5462 -0.3217 -0.1941
  553MOL0     C72889   5.102   2.557   5.748  0.1047 -0.8912 -0.1989
  553MOL0     C72890   5.060   2.603   5.624  0.5854 -0.8623 -0.2895
  553MOL0     C72891   4.931   2.583   5.587 -0.3260 -0.8806 -0.4343
  553MOL0     C72892   4.838   2.513   5.664 -1.0430 -0.0309 -0.0696
  553MOL0     C72893   4.691   2.502   5.622 -0.3541  0.8095  0.0881
  553MOL0     O72894   4.601   2.447   5.709  0.6021  0.0415  0.1946
  553MOL0     C72895   4.471   2.447   5.673  0.7852 -0.7140 -0.5350
  553MOL0     C72896   4.402   2.331   5.656  0.5217  0.4446 -0.0882
  553MOL0     C72897   4.270   2.329   5.600  0.9208  0.5511 -0.3635
  553MOL0     C72898   4.201   2.443   5.581 -0.4194  0.4981  1.3758
  553MOL0     O72899   4.070   2.424   5.534 -0.3719 -0.1023  0.4343
  553MOL0     C72900   3.978   2.521   5.575  0.3289 -0.0698  0.6853
  553MOL0     C72901   3.838   2.465   5.584  0.7876  0.4127  0.6612
  553MOL0     C72902   3.814   2.343   5.675  0.4271 -0.2754 -0.3762
  553MOL0     C72903   3.668   2.304   5.688 -0.3140 -1.3253 -0.3675
  553MOL0     C72904   3.590   2.406   5.777  0.4195 -0.2481 -1.0985
  553MOL0     C72905   3.458   2.339   5.826 -0.2967 -0.0791  1.2960
  553MOL0     C72906   3.380   2.431   5.911  0.2717 -0.3850  0.0822
  553MOL0     C72907   3.259   2.351   5.957  0.1646 -0.6212  0.5813
  553MOL0    Cl72908   3.145   2.437   6.069 -0.0345  0.1631 -0.6952
  553MOL0     C72909   4.263   2.565   5.605  0.1948  0.9770 -0.4234
  553MOL0     C72910   4.398   2.570   5.643  0.2670 -0.0060  1.1045
  553MOL0     O72911   4.668   2.536   5.506 -1.1779 -0.2530 -0.6229
  553MOL0     C72912   4.884   2.449   5.783 -0.7215 -0.6150 -0.2345
  553MOL0     C72913   5.012   2.477   5.823  1.0483  0.0205 -0.5440
  553MOL0     N72914   5.852   2.850   5.648 -0.1810 -0.7171  0.2266
  553MOL0     N72915   5.953   2.861   5.563  0.5408  0.0249 -0.5390
  553MOL0     C72916   7.138   2.720   5.670  0.1053  0.5340  0.0566
  553MOL0     C72917   7.253   2.775   5.623 -0.2516  0.3069 -0.2901
  553MOL0     C72918   7.523   3.105   5.421  0.2534 -0.2929 -0.6383
  553MOL0     C72919   7.584   3.227   5.453  0.2866  0.4348  0.9888
  553MOL0     C72920   7.711   3.250   5.408  0.1344 -0.0445  0.2576
  553MOL0     C72921   7.785   3.162   5.327 -0.0592 -0.7896  0.6600
  553MOL0     O72922   7.917   3.190   5.302  0.0948  0.6009 -0.3962
  553MOL0     C72923   8.006   3.096   5.257 -0.9437  0.6539  0.8357
  553MOL0     C72924   8.154   3.131   5.290 -0.0229 -0.6574  1.0207
  553MOL0     C72925   8.214   3.231   5.191 -0.1411 -0.2571  0.1409
  553MOL0     C72926   8.147   3.370   5.197  0.1695  0.5161  0.5107
  553MOL0     C72927   8.213   3.470   5.105 -0.8486 -0.5642  1.8010
  553MOL0     C72928   8.267   3.552   5.028 -0.6413 -0.5376  0.0153
  553MOL0     C72929   7.720   3.041   5.294  1.3201 -0.4118 -0.3666
  553MOL0     C72930   7.593   3.017   5.330  0.3145  0.5930 -0.4165
  553MOL0     H72931   7.127   2.951   5.361 -0.7915 -0.4243 -0.0670
  553MOL0     H72932   6.917   2.874   5.466 -0.0551 -0.4146  2.0722
  553MOL0     H72933   6.880   2.591   5.803 -0.1486  1.2059  0.0681
  553MOL0     H72934   6.941   2.493   5.663  2.3410  2.6200  0.8215
  553MOL0     H72935   6.720   2.435   5.695 -0.7191 -0.8541 -0.7191
  553MOL0     H72936   6.698   2.569   5.566  1.7717  2.8712 -0.3692
  553MOL0     H72937   6.656   2.731   5.765 -0.5744 -0.1144  1.7703
  553MOL0     H72938   6.628   2.584   5.868 -1.0885  1.6334  0.8854
  553MOL0     H72939   6.465   2.524   5.660  1.5274 -0.9002 -1.6398
  553MOL0     H72940   6.427   2.651   5.778 -0.1363 -1.5896  1.0712
  553MOL0     H72941   6.577   2.740   5.532  0.9672  1.5831  1.3356
  553MOL0     H72942   6.484   2.820   5.640 -0.5575 -0.4906  0.7804
  553MOL0     H72943   6.382   2.608   5.437 -3.3293  0.0011 -1.2552
  553MOL0     H72944   6.380   2.770   5.402 -0.7484  0.1421  0.3131
  553MOL0     H72945   6.248   2.603   5.610  0.7610  1.5275  2.4194
  553MOL0     H72946   6.227   2.783   5.630  0.0814  0.2704 -1.2407
  553MOL0     H72947   6.111   2.610   5.407  1.4180  0.3912 -1.7611
  553MOL0     H72948   6.128   2.780   5.387 -1.3660 -0.7622 -0.5424
  553MOL0     H72949   5.932   2.534   5.574  2.3574  1.4853 -0.5365
  553MOL0     H72950   5.709   2.685   5.826 -0.1694 -1.5014  0.6413
  553MOL0     H72951   5.702   2.555   5.727  0.1219  0.4333  1.1189
  553MOL0     H72952   5.540   2.691   5.580 -2.4764 -2.1335  0.9600
  553MOL0     H72953   5.538   2.806   5.715  1.7005  0.4826  2.8843
  553MOL0     H72954   5.486   2.504   5.750  1.1020 -0.2898 -0.0698
  553MOL0     H72955   5.471   2.632   5.869 -1.1423  1.2791 -0.0343
  553MOL0     H72956   5.309   2.588   5.612  1.3128  3.1360 -1.4466
  553MOL0     H72957   5.311   2.738   5.706 -0.6387 -0.3651 -0.0456
  553MOL0     H72958   5.124   2.669   5.567  0.7031 -0.5772  0.1622
  553MOL0     H72959   4.885   2.629   5.501 -2.7477  0.0465  1.2311
  553MOL0     H72960   4.448   2.234   5.672  3.4046  1.5595 -0.9773
  553MOL0     H72961   4.212   2.238   5.595 -0.0681  1.1885 -0.7733
  553MOL0     H72962   3.963   2.599   5.499 -1.6605 -2.0225 -1.0935
  553MOL0     H72963   4.005   2.564   5.672  3.4783  0.1091 -0.1616
  553MOL0     H72964   3.797   2.426   5.491  1.3955 -1.6777  1.2165
  553MOL0     H72965   3.771   2.543   5.622  2.4395  1.1267  2.2725
  553MOL0     H72966   3.868   2.367   5.768  1.6864 -1.7187 -0.7051
  553MOL0     H72967   3.861   2.258   5.625  3.0663  1.6257 -1.3614
  553MOL0     H72968   3.622   2.322   5.591  1.9009  0.3414 -1.1864
  553MOL0     H72969   3.653   2.204   5.731 -0.5600 -1.2253 -0.2142
  553MOL0     H72970   3.566   2.499   5.724  3.1581  1.6478  0.7567
  553MOL0     H72971   3.655   2.434   5.860 -0.2899  1.1513 -0.9908
  553MOL0     H72972   3.491   2.255   5.888  2.4499  1.0768  1.5302
  553MOL0     H72973   3.397   2.309   5.740  0.6046  0.5541  0.4076
  553MOL0     H72974   3.440   2.456   5.999  0.6458  0.4274 -0.3977
  553MOL0     H72975   3.353   2.523   5.859 -0.3244 -2.0613 -2.8176
  553MOL0     H72976   3.288   2.259   6.008  0.7521  0.2629  1.8901
  553MOL0     H72977   3.204   2.315   5.870  1.4437 -0.0685 -0.4935
  553MOL0     H72978   4.206   2.653   5.576  0.9956  1.3944 -0.7855
  553MOL0     H72979   4.442   2.669   5.651 -1.0184  0.5545  1.4343
  553MOL0     H72980   4.822   2.385   5.844 -0.0835  1.0305  2.2862
  553MOL0     H72981   5.052   2.419   5.905  3.0804 -0.6547 -1.9144
  553MOL0     H72982   7.143   2.637   5.740 -1.1416 -0.3042 -0.8135
  553MOL0     H72983   7.346   2.745   5.669  0.0390  0.7845 -0.5556
  553MOL0     H72984   7.549   3.308   5.516 -0.2979  1.8430 -1.0595
  553MOL0     H72985   7.759   3.346   5.427 -2.9781  1.4214  1.3452
  553MOL0     H72986   7.992   3.070   5.151  1.1516 -1.6209  1.0154
  553MOL0     H72987   7.985   3.007   5.317  1.3596 -2.3367 -2.3561
  553MOL0     H72988   8.142   3.174   5.390  0.0151  1.1230  0.2982
  553MOL0     H72989   8.214   3.040   5.286  0.8694 -0.0706 -1.6264
  553MOL0     H72990   8.206   3.183   5.093  2.6496  2.6210 -1.6744
  553MOL0     H72991   8.321   3.247   5.207  0.6544 -3.0224 -1.6472
  553MOL0     H72992   8.040   3.361   5.175  0.1460 -0.2885  0.9365
  553MOL0     H72993   8.154   3.413   5.297  0.1873 -1.1404  1.2473
  553MOL0     H72994   8.331   3.616   4.971 -2.0257  0.0653 -0.9169
  553MOL0     H72995   7.777   2.972   5.234  1.8571  0.7133 -1.1685
  553MOL0     H72996   7.555   2.921   5.297  0.6343  0.2175  0.2724
  554MOL0     O72997  11.242   7.654   0.751 -0.1910 -0.0952  0.2408
  554MOL0     C72998  11.291   7.742   0.818  0.5336 -0.4405  0.7839
  554MOL0     O72999  11.211   7.826   0.897  0.5795  0.5497  0.0045
  554MOL0     C73000  11.077   7.851   0.872  0.0745  1.2149 -0.5134
  554MOL0     C73001  11.001   7.793   0.773 -0.3798  0.1792  0.0994
  554MOL0     C73002  10.863   7.826   0.761  0.3292  0.3696  0.0567
  554MOL0     C73003  10.809   7.930   0.842 -0.1022 -0.0736  1.0786
  554MOL0     O73004  10.682   7.981   0.826 -0.0656 -0.0446 -0.9662
  554MOL0     C73005  10.629   8.005   0.694  0.6283  0.0696  1.0768
  554MOL0     C73006  10.503   8.103   0.712 -0.2576  0.0025  0.5072
  554MOL0     C73007  10.427   8.106   0.571 -0.2748 -1.0681 -0.1806
  554MOL0     C73008  10.336   8.224   0.578 -0.0521 -0.6184  0.1901
  554MOL0     C73009  10.189   8.167   0.585 -0.1824 -0.8273  0.7335
  554MOL0     C73010  10.105   8.290   0.607  0.5672  0.0503 -0.3978
  554MOL0     C73011   9.962   8.246   0.605 -0.3070  0.2185  0.0625
  554MOL0     C73012   9.857   8.361   0.635 -0.8729  0.2329 -0.4954
  554MOL0     N73013   9.725   8.305   0.648 -0.3436 -0.3668  0.0392
  554MOL0     C73014   9.638   8.332   0.547  0.0357  1.4208  0.1257
  554MOL0     C73015   9.530   8.276   0.597  0.4249  0.3814 -0.5781
  554MOL0     C73016   9.392   8.298   0.536  0.4573 -0.4169 -0.1608
  554MOL0     C73017   9.316   8.398   0.633 -0.2008 -0.7895  0.1285
  554MOL0     C73018   9.187   8.470   0.594  0.0401  0.0499 -0.0020
  554MOL0     C73019   9.071   8.381   0.543 -0.1509  0.4353  0.2346
  554MOL0     O73020   9.027   8.287   0.647  0.2313 -0.9338  0.5290
  554MOL0     C73021   8.921   8.206   0.607 -0.2605 -0.5722  0.1410
  554MOL0     C73022   8.846   8.217   0.486  0.0315  0.0611 -0.0372
  554MOL0     C73023   8.740   8.133   0.466 -0.7427  0.3602  0.7301
  554MOL0     C73024   8.693   8.038   0.565  0.5165 -0.0237  0.9268
  554MOL0     C73025   8.585   7.935   0.553 -0.4551  0.0286  0.5371
  554MOL0     O73026   8.592   7.813   0.629 -0.0354  0.0359 -0.5368
  554MOL0     C73027   8.475   7.755   0.654  1.0103  0.9937 -0.1095
  554MOL0     C73028   8.388   7.806   0.749 -0.3223 -0.1477 -0.3061
  554MOL0     C73029   8.255   7.758   0.759  0.0996  0.8365  0.8918
  554MOL0     C73030   8.219   7.640   0.688 -0.0178  0.0462 -0.8909
  554MOL0     O73031   8.106   7.565   0.717  0.2964 -0.6655 -0.3933
  554MOL0     C73032   7.989   7.616   0.785 -0.6654  0.2868  0.7606
  554MOL0     C73033   7.887   7.506   0.814  0.2923 -0.0520 -0.3406
  554MOL0     C73034   7.855   7.426   0.680  0.0992  0.0719 -1.1419
  554MOL0     C73035   7.729   7.342   0.701  0.2361 -0.0843 -0.3847
  554MOL0     C73036   7.709   7.265   0.575  0.2220 -1.4011  0.3570
  554MOL0     C73037   7.592   7.168   0.596 -0.1641 -0.0265 -0.7623
  554MOL0     C73038   7.555   7.119   0.461 -0.1295  0.0294  0.1656
  554MOL0     C73039   7.454   7.004   0.459  0.5259 -0.3217 -0.2724
  554MOL0    Cl73040   7.295   7.072   0.527 -0.0789 -0.5439 -0.0437
  554MOL0     C73041   8.312   7.590   0.593 -0.3893  0.0971 -0.0191
  554MOL0     C73042   8.438   7.645   0.575 -0.4090 -0.0204  0.3153
  554MOL0     O73043   8.491   7.967   0.478  0.4469  0.2048 -0.5832
  554MOL0     C73044   8.761   8.036   0.689 -0.4341  0.0075  0.6704
  554MOL0     C73045   8.875   8.117   0.707  0.1601 -1.1254 -0.0936
  554MOL0     N73046   9.552   8.224   0.723  0.0640 -0.0588  0.2171
  554MOL0     N73047   9.673   8.238   0.755 -0.9858 -0.6963  0.0238
  554MOL0     C73048  10.879   7.980   0.945  0.2725 -0.5086  0.1234
  554MOL0     C73049  11.018   7.945   0.954  0.2224  0.0115 -0.6773
  554MOL0     C73050  11.438   7.754   0.809  0.5601 -0.2163  0.5340
  554MOL0     C73051  11.511   7.690   0.710  0.3524 -1.2293 -0.0291
  554MOL0     C73052  11.644   7.715   0.706 -0.3012  0.0011  0.3847
  554MOL0     C73053  11.712   7.790   0.800 -0.3161 -0.7042  0.4524
  554MOL0     O73054  11.855   7.802   0.782  0.5882  0.2202  0.6472
  554MOL0     C73055  11.930   7.883   0.872  0.2744 -1.2103 -0.0360
  554MOL0     C73056  12.069   7.893   0.818  0.9749 -0.1560  0.5145
  554MOL0     C73057  12.171   7.967   0.905 -0.3066 -0.1765 -0.4282
  554MOL0     C73058  12.238   7.864   1.001 -0.3412  0.3259  0.6534
  554MOL0     C73059  12.365   7.930   1.032  0.9167 -0.0486 -0.5534
  554MOL0     C73060  12.467   7.989   1.057  0.3879  0.0402  0.4396
  554MOL0     C73061  11.641   7.856   0.898  0.5053 -1.0551  0.4843
  554MOL0     C73062  11.501   7.836   0.903  0.0774  0.3662 -1.0141
  554MOL0     H73063  11.042   7.730   0.694 -0.4744 -0.5032  0.5817
  554MOL0     H73064  10.805   7.794   0.675 -0.9218  2.5344  0.0041
  554MOL0     H73065  10.601   7.914   0.641 -0.1779  1.8669 -1.8578
  554MOL0     H73066  10.682   8.061   0.616 -0.8820 -0.1207 -0.1361
  554MOL0     H73067  10.539   8.200   0.749 -2.6628  0.7904  0.9661
  554MOL0     H73068  10.427   8.065   0.780 -0.2551 -2.6136 -0.8321
  554MOL0     H73069  10.370   8.016   0.546 -2.0112 -0.0347 -0.0782
  554MOL0     H73070  10.494   8.122   0.486  0.7002  0.9759  0.8866
  554MOL0     H73071  10.354   8.282   0.669  0.2012 -0.4113  0.0073
  554MOL0     H73072  10.367   8.281   0.490  1.0658 -0.9973  0.3281
  554MOL0     H73073  10.161   8.108   0.673 -5.5252  1.4189  0.9668
  554MOL0     H73074  10.164   8.114   0.493 -2.8400 -1.5275  1.7509
  554MOL0     H73075  10.121   8.368   0.531  3.2668 -0.7326 -0.7463
  554MOL0     H73076  10.143   8.329   0.702  0.4085  0.5651 -0.5394
  554MOL0     H73077   9.929   8.200   0.511 -2.4126 -1.1337  1.3727
  554MOL0     H73078   9.950   8.175   0.687  2.9741  1.3237  1.7015
  554MOL0     H73079   9.865   8.438   0.558  0.4282  0.1010 -0.5095
  554MOL0     H73080   9.879   8.413   0.728  1.8313  0.9273 -1.4420
  554MOL0     H73081   9.647   8.375   0.448 -1.7319  0.2671 -0.5906
  554MOL0     H73082   9.345   8.201   0.515  1.6537 -0.4974 -2.9033
  554MOL0     H73083   9.385   8.343   0.437 -4.7922 -1.4213 -0.5826
  554MOL0     H73084   9.396   8.471   0.649  1.5537 -2.2438 -1.5256
  554MOL0     H73085   9.301   8.337   0.722 -0.5250 -3.3185 -1.5440
  554MOL0     H73086   9.146   8.524   0.680  0.6020 -2.0030  1.6338
  554MOL0     H73087   9.215   8.541   0.516  4.2655  1.3611  2.4139
  554MOL0     H73088   9.107   8.327   0.455 -2.1358 -0.5769 -0.0038
  554MOL0     H73089   8.985   8.438   0.507 -0.3258  0.1708  0.2315
  554MOL0     H73090   8.874   8.286   0.408 -0.0649  0.8330  0.5978
  554MOL0     H73091   8.684   8.150   0.375  2.9233 -2.8089 -2.4543
  554MOL0     H73092   8.428   7.892   0.802 -2.2577 -0.2145  1.3429
  554MOL0     H73093   8.192   7.812   0.830  0.7647  1.9895  0.6368
  554MOL0     H73094   7.937   7.694   0.729 -1.1333  0.8156  1.8877
  554MOL0     H73095   8.029   7.665   0.875 -1.2246 -1.5547  2.0747
  554MOL0     H73096   7.796   7.559   0.844 -1.1197 -0.6955 -3.1823
  554MOL0     H73097   7.915   7.442   0.898 -1.4474  0.3959  0.6299
  554MOL0     H73098   7.938   7.360   0.654  1.8516  1.5777  0.3531
  554MOL0     H73099   7.825   7.500   0.606 -2.8434  0.6206  0.4260
  554MOL0     H73100   7.754   7.274   0.784  0.7208  0.9629  0.3505
  554MOL0     H73101   7.646   7.405   0.736  3.0936  2.9801  1.4853
  554MOL0     H73102   7.803   7.211   0.556  1.9908  1.1496  1.3012
  554MOL0     H73103   7.705   7.335   0.491  2.1729 -1.5700  0.0742
  554MOL0     H73104   7.521   7.228   0.653  0.5084 -0.9520  1.1339
  554MOL0     H73105   7.627   7.082   0.653 -1.9633 -1.2922 -1.4946
  554MOL0     H73106   7.511   7.209   0.416 -2.9721 -1.7595 -0.8483
  554MOL0     H73107   7.644   7.086   0.407 -0.6768 -0.3714 -0.5033
  554MOL0     H73108   7.472   6.914   0.518 -0.2658 -0.2916  0.0319
  554MOL0     H73109   7.435   6.979   0.354 -4.2332  0.6803  0.1259
  554MOL0     H73110   8.288   7.499   0.539 -0.1096  0.3547 -0.5936
  554MOL0     H73111   8.508   7.599   0.505  0.4646  2.3948 -0.4902
  554MOL0     H73112   8.735   7.972   0.773  1.0639  1.9730  2.7335
  554MOL0     H73113   8.928   8.120   0.802 -0.7440 -1.5995  0.4388
  554MOL0     H73114  10.842   8.052   1.017  1.2046  2.3119 -1.9979
  554MOL0     H73115  11.074   7.993   1.033 -2.6262  1.0124  0.8975
  554MOL0     H73116  11.463   7.629   0.635  2.2541  0.1079 -2.4597
  554MOL0     H73117  11.706   7.672   0.629 -2.2337  0.4422 -1.5255
  554MOL0     H73118  11.926   7.834   0.969 -0.4706  0.5572  0.8849
  554MOL0     H73119  11.894   7.986   0.880  1.1141 -0.8552 -0.5895
  554MOL0     H73120  12.111   7.794   0.796  2.0118  0.0193  1.5793
  554MOL0     H73121  12.054   7.955   0.729  0.3375  0.6151  1.1411
  554MOL0     H73122  12.140   8.056   0.960  0.7057  0.3159 -0.6361
  554MOL0     H73123  12.247   7.996   0.831  1.6303 -1.2320  1.0491
  554MOL0     H73124  12.181   7.865   1.094 -2.1131 -1.8695 -0.3094
  554MOL0     H73125  12.246   7.764   0.956 -3.8117  0.9014 -1.6378
  554MOL0     H73126  12.544   8.058   1.084 -0.2253  1.3286 -0.9314
  554MOL0     H73127  11.678   7.928   0.970  0.0945  1.8097 -2.0088
  554MOL0     H73128  11.441   7.890   0.975 -0.4539 -0.4923 -0.7861
  555MOL0     O73129   3.134   4.731   8.982  0.1445  0.4533  0.1123
  555MOL0     C73130   3.152   4.722   8.864  0.1355  0.3826 -0.0711
  555MOL0     O73131   3.052   4.714   8.767  0.7484  0.0823 -0.7299
  555MOL0     C73132   2.922   4.704   8.812  0.7713  1.1475  0.1808
  555MOL0     C73133   2.822   4.781   8.757  0.2341 -0.4459  0.5088
  555MOL0     C73134   2.688   4.756   8.788  0.9708  0.2195  0.5199
  555MOL0     C73135   2.654   4.654   8.882  0.5478 -0.1880 -0.4654
  555MOL0     O73136   2.516   4.642   8.907 -0.2746 -0.3664 -0.1199
  555MOL0     C73137   2.486   4.598   9.035  0.3461  0.2469  1.0314
  555MOL0     C73138   2.331   4.612   9.053  0.0465 -0.0642  0.0318
  555MOL0     C73139   2.260   4.509   8.966 -0.7246  0.1495 -0.2055
  555MOL0     C73140   2.111   4.533   8.960  0.8003  0.4093  0.4036
  555MOL0     C73141   2.035   4.441   8.875  0.1751  0.3301 -0.2726
  555MOL0     C73142   1.888   4.470   8.910 -0.0777 -0.1223  0.1827
  555MOL0     C73143   1.793   4.389   8.820  0.5386  0.3134 -0.3199
  555MOL0     C73144   1.782   4.445   8.667  0.1660  0.1917 -0.9369
  555MOL0     N73145   1.730   4.332   8.585  0.7899  0.3522 -0.0496
  555MOL0     C73146   1.798   4.238   8.510  0.3873  0.0304  0.8205
  555MOL0     C73147   1.710   4.153   8.456 -0.0951  0.4956  0.3440
  555MOL0     C73148   1.721   4.042   8.358  0.1299 -0.0205 -0.0560
  555MOL0     C73149   1.758   4.083   8.213 -0.5009 -0.2731 -0.3708
  555MOL0     C73150   1.749   3.961   8.116 -0.5870  0.0472 -0.3135
  555MOL0     C73151   1.603   3.910   8.090  0.4971  0.1567 -0.5224
  555MOL0     O73152   1.519   4.020   8.064  0.1241 -0.2310  0.5279
  555MOL0     C73153   1.481   4.041   7.934  0.0789 -0.4227  0.1731
  555MOL0     C73154   1.538   3.967   7.822 -0.3717 -0.2296 -0.4021
  555MOL0     C73155   1.497   3.993   7.690  0.1720 -0.7367 -0.1800
  555MOL0     C73156   1.399   4.097   7.661 -0.3160 -0.0271 -0.4213
  555MOL0     C73157   1.356   4.112   7.522 -0.4834  0.2406 -0.5160
  555MOL0     O73158   1.253   4.194   7.491 -0.0573  0.1590  0.0236
  555MOL0     C73159   1.216   4.210   7.361  0.0731  0.2674  0.5679
  555MOL0     C73160   1.158   4.108   7.290  0.0745  0.3593  0.7838
  555MOL0     C73161   1.120   4.134   7.154  0.4305  0.1727  0.2588
  555MOL0     C73162   1.127   4.260   7.096 -0.1140  0.3198 -1.0418
  555MOL0     O73163   1.087   4.293   6.970  0.4813  0.4952  0.9814
  555MOL0     C73164   0.972   4.225   6.901 -0.0473 -0.4443 -0.3736
  555MOL0     C73165   0.843   4.273   6.970  0.1708 -0.1537 -0.1325
  555MOL0     C73166   0.720   4.190   6.924 -0.2914  0.0312 -0.3331
  555MOL0     C73167   0.587   4.253   6.947 -0.8451  0.4630  0.3154
  555MOL0     C73168   0.475   4.143   6.930  0.6361  1.4174  0.4127
  555MOL0     C73169   0.329   4.186   6.966 -0.3012 -0.1034  0.6112
  555MOL0     C73170   0.239   4.074   6.930  0.0895  0.3380 -0.4060
  555MOL0     C73171   0.093   4.112   6.929  1.1211 -0.3762 -0.2704
  555MOL0    Cl73172   0.032   4.226   6.804 -0.2830 -0.7204  0.0172
  555MOL0     C73173   1.188   4.362   7.171 -0.0502  0.1232  0.1383
  555MOL0     C73174   1.223   4.342   7.306  0.1419 -0.1762 -0.1021
  555MOL0     O73175   1.413   4.045   7.434 -0.2836  0.2953 -0.3926
  555MOL0     C73176   1.346   4.165   7.772  0.5294 -0.2278 -0.1422
  555MOL0     C73177   1.385   4.145   7.909 -0.7217  0.9219 -0.2618
  555MOL0     N73178   1.585   4.208   8.491 -0.7727 -0.5921  0.1107
  555MOL0     N73179   1.595   4.306   8.570  0.5316 -0.8287 -0.0975
  555MOL0     C73180   2.752   4.567   8.921  0.0481 -0.2454  0.5679
  555MOL0     C73181   2.887   4.591   8.892 -0.4434 -0.4860  0.4675
  555MOL0     C73182   3.290   4.719   8.797 -0.3299  0.5851 -0.2413
  555MOL0     C73183   3.397   4.738   8.879  0.8594 -1.3786 -0.1125
  555MOL0     C73184   3.518   4.753   8.815 -0.4163 -0.7619 -0.2551
  555MOL0     C73185   3.540   4.759   8.676 -0.4352  0.2164 -0.1803
  555MOL0     O73186   3.667   4.789   8.633  0.5298 -0.7524  0.8515
  555MOL0     C73187   3.689   4.818   8.492 -0.0743 -0.1683 -1.3427
  555MOL0     C73188   3.835   4.796   8.471  0.5700  0.4126 -0.0608
  555MOL0     C73189   3.869   4.810   8.322  0.7235 -0.0411 -0.2186
  555MOL0     C73190   4.018   4.777   8.288 -0.4099  0.0086  0.0892
  555MOL0     C73191   4.074   4.877   8.188 -0.9165  0.3960  0.3919
  555MOL0     C73192   4.111   4.952   8.109 -0.3379 -1.0005  0.3669
  555MOL0     C73193   3.425   4.745   8.599 -0.2185 -0.0530 -0.6027
  555MOL0     C73194   3.305   4.712   8.660 -0.0931 -1.0390 -0.0905
  555MOL0     H73195   2.842   4.862   8.687 -0.7025 -1.1537 -0.6089
  555MOL0     H73196   2.604   4.806   8.740  0.8174  0.7495  1.3210
  555MOL0     H73197   2.536   4.652   9.116 -1.0690  0.6757  1.6628
  555MOL0     H73198   2.510   4.491   9.034  4.2007  0.9769  0.9238
  555MOL0     H73199   2.300   4.714   9.025 -0.1013  0.7787  2.9318
  555MOL0     H73200   2.305   4.606   9.159 -0.4650 -0.3655 -0.1131
  555MOL0     H73201   2.278   4.413   9.015 -3.4481 -0.1975  0.2294
  555MOL0     H73202   2.300   4.504   8.864  1.3929  0.5505  0.5567
  555MOL0     H73203   2.071   4.538   9.062  3.8369 -1.5761  1.8263
  555MOL0     H73204   2.090   4.626   8.906 -2.0843  0.8764  2.0801
  555MOL0     H73205   2.055   4.340   8.909 -1.2440  0.7597  2.0965
  555MOL0     H73206   2.067   4.452   8.771  0.5818 -0.3658 -0.2186
  555MOL0     H73207   1.875   4.577   8.890 -1.6416 -0.8404 -3.5756
  555MOL0     H73208   1.870   4.448   9.016  2.8755 -2.4601  0.3112
  555MOL0     H73209   1.825   4.285   8.813 -1.3648 -0.2817 -0.9204
  555MOL0     H73210   1.694   4.383   8.867  0.0409 -0.4004 -1.4223
  555MOL0     H73211   1.875   4.486   8.627  0.9295 -0.4672  0.1038
  555MOL0     H73212   1.705   4.523   8.667 -0.0308  0.0511  0.8429
  555MOL0     H73213   1.906   4.232   8.499  0.3957 -1.3163  1.4825
  555MOL0     H73214   1.619   4.003   8.354 -0.3400  0.8940  2.0293
  555MOL0     H73215   1.798   3.977   8.399  0.4458  2.8692  4.6081
  555MOL0     H73216   1.859   4.125   8.211 -1.5493  2.4742 -0.0024
  555MOL0     H73217   1.680   4.157   8.194 -0.4028 -0.5717 -2.1613
  555MOL0     H73218   1.783   3.988   8.016 -2.0635 -2.2196 -1.4928
  555MOL0     H73219   1.817   3.879   8.145 -0.7324 -0.5508 -1.6108
  555MOL0     H73220   1.567   3.870   8.185  0.0264  0.5822 -0.5139
  555MOL0     H73221   1.590   3.830   8.018 -0.6560 -1.0040  0.9140
  555MOL0     H73222   1.627   3.904   7.824  0.2942  0.5875  3.4332
  555MOL0     H73223   1.532   3.924   7.613  1.4423  0.4502 -0.7200
  555MOL0     H73224   1.137   4.010   7.333  1.2345 -0.9795 -1.5099
  555MOL0     H73225   1.065   4.057   7.100  0.7148  0.1362  0.0198
  555MOL0     H73226   0.984   4.116   6.899  0.7043 -0.4281  1.3785
  555MOL0     H73227   0.973   4.262   6.798  0.7347 -0.0546 -0.2329
  555MOL0     H73228   0.824   4.380   6.952  3.0031  0.7660  1.6137
  555MOL0     H73229   0.859   4.256   7.077 -0.5920  1.7858  0.3399
  555MOL0     H73230   0.721   4.098   6.983 -3.0072  0.4249  0.4685
  555MOL0     H73231   0.733   4.159   6.820  1.9319 -1.1745  0.2376
  555MOL0     H73232   0.579   4.298   7.047 -1.0131  2.4949 -0.5709
  555MOL0     H73233   0.566   4.336   6.879 -1.9237 -2.4038 -3.0894
  555MOL0     H73234   0.502   4.055   6.988 -1.0047  0.3519 -0.3616
  555MOL0     H73235   0.475   4.115   6.824 -0.7354  0.8368  0.5414
  555MOL0     H73236   0.300   4.274   6.908 -1.7537 -1.8431 -1.4768
  555MOL0     H73237   0.313   4.214   7.070 -2.2307  0.4801  0.2018
  555MOL0     H73238   0.264   4.031   6.832  0.4234  0.4507 -0.3706
  555MOL0     H73239   0.260   3.997   7.004  3.3495  1.0979 -0.4089
  555MOL0     H73240   0.054   4.150   7.025  1.0725  1.8429 -1.1137
  555MOL0     H73241   0.038   4.022   6.901 -0.6278  1.2578 -2.4924
  555MOL0     H73242   1.195   4.459   7.124  0.4842  2.2771  4.1837
  555MOL0     H73243   1.263   4.418   7.372 -0.8716  0.2919 -0.0011
  555MOL0     H73244   1.268   4.238   7.749  1.1601 -0.0179 -1.7256
  555MOL0     H73245   1.359   4.204   7.996 -3.5505  3.8512 -2.8424
  555MOL0     H73246   2.724   4.473   8.967 -1.0661 -1.1323 -1.7786
  555MOL0     H73247   2.970   4.529   8.923  0.4203  0.7313  0.6511
  555MOL0     H73248   3.383   4.745   8.986  2.5932  0.5291  0.0639
  555MOL0     H73249   3.603   4.771   8.880 -0.4357  1.3753 -0.7488
  555MOL0     H73250   3.661   4.921   8.467  1.2402  1.1783  2.0867
  555MOL0     H73251   3.634   4.746   8.432 -0.0198  0.5158 -2.2329
  555MOL0     H73252   3.905   4.868   8.516  3.0608 -2.7000  1.4777
  555MOL0     H73253   3.865   4.703   8.520  3.8520  0.9243 -0.8306
  555MOL0     H73254   3.851   4.915   8.297  3.3105 -0.0531 -2.4693
  555MOL0     H73255   3.807   4.748   8.256  1.0104 -1.1430  0.5221
  555MOL0     H73256   4.068   4.785   8.385  0.1749 -2.2993  0.0177
  555MOL0     H73257   4.025   4.674   8.255 -2.0880 -1.5233  3.8998
  555MOL0     H73258   4.156   5.014   8.034 -1.5374 -0.2070  0.2776
  555MOL0     H73259   3.418   4.769   8.494 -2.0169 -0.4793 -0.6190
  555MOL0     H73260   3.219   4.693   8.596 -0.7981 -0.7601  0.7494
  556MOL0     O73261   8.250   4.907  10.169 -0.4871  0.1819  0.7327
  556MOL0     C73262   8.159   4.923  10.246 -0.3658 -0.3321 -0.5032
  556MOL0     O73263   8.158   4.890  10.378  0.3143 -0.4182  0.5626
  556MOL0     C73264   8.280   4.861  10.430 -0.0701 -0.3857 -0.3115
  556MOL0     C73265   8.344   4.739  10.411  0.0449  0.2299  0.5581
  556MOL0     C73266   8.468   4.711  10.472  0.0761 -1.1642 -0.4967
  556MOL0     C73267   8.527   4.805  10.557  0.0416 -0.5881  0.0176
  556MOL0     O73268   8.625   4.762  10.647 -0.0018  0.4246  0.1015
  556MOL0     C73269   8.721   4.669  10.602 -0.4012 -0.0902 -0.5305
  556MOL0     C73270   8.842   4.731  10.668  0.2825  0.3403  0.4602
  556MOL0     C73271   8.961   4.659  10.616  0.1176  0.1976 -0.6903
  556MOL0     C73272   9.095   4.737  10.644  1.2242  0.0879 -0.1773
  556MOL0     C73273   9.225   4.669  10.589 -0.5631 -0.2964  0.3394
  556MOL0     C73274   9.363   4.714  10.659 -0.2317  0.1939  0.1850
  556MOL0     C73275   9.363   4.705  10.811 -0.5819 -0.6590 -0.1926
  556MOL0     C73276   9.498   4.709  10.864 -0.5995 -0.2111 -0.0414
  556MOL0     N73277   9.504   4.698  11.011  0.5349  0.3514  0.1608
  556MOL0     C73278   9.464   4.590  11.086 -0.4322  0.4933  0.5407
  556MOL0     C73279   9.475   4.635  11.213  0.6030 -0.8089 -0.9141
  556MOL0     C73280   9.442   4.567  11.348 -0.4831 -0.6698  0.8521
  556MOL0     C73281   9.327   4.628  11.430 -0.0666  0.0431 -0.4045
  556MOL0     C73282   9.190   4.602  11.367 -0.1069  0.8166  0.4899
  556MOL0     C73283   9.081   4.692  11.425  0.0913 -0.0180 -0.0157
  556MOL0     O73284   8.950   4.664  11.355 -0.4507  0.0507 -0.3959
  556MOL0     C73285   8.840   4.615  11.421 -0.1334 -0.2115  0.0150
  556MOL0     C73286   8.837   4.582  11.555 -0.4548 -0.1667 -0.1229
  556MOL0     C73287   8.716   4.549  11.617 -0.0817  0.0570  0.0959
  556MOL0     C73288   8.600   4.554  11.544  0.4996 -1.0286  0.5727
  556MOL0     C73289   8.461   4.528  11.600 -0.2499 -0.3919  0.2536
  556MOL0     O73290   8.359   4.505  11.518  0.0173  0.3819 -0.5154
  556MOL0     C73291   8.233   4.506  11.568  0.0422 -0.1261 -0.4660
  556MOL0     C73292   8.173   4.606  11.640  0.6339  0.0120  0.2291
  556MOL0     C73293   8.041   4.597  11.700 -0.0710  0.5171 -0.0477
  556MOL0     C73294   7.971   4.480  11.688  0.0701  0.2546  0.2768
  556MOL0     O73295   7.843   4.447  11.736  0.0202  0.0414 -0.0134
  556MOL0     C73296   7.789   4.533  11.835 -0.3633 -0.2847  0.4064
  556MOL0     C73297   7.660   4.469  11.895  0.2514  0.2718  0.3619
  556MOL0     C73298   7.681   4.331  11.961 -0.4191 -0.1164  0.3549
  556MOL0     C73299   7.556   4.292  12.040  0.1193  0.5788 -0.1012
  556MOL0     C73300   7.551   4.137  12.059 -0.4277 -0.6045 -0.3549
  556MOL0     C73301   7.443   4.099  12.166  0.1748 -0.0969 -0.3399
  556MOL0     C73302   7.438   3.951  12.196  0.0903  0.3900  0.5552
  556MOL0     C73303   7.325   3.904  12.298 -0.2426  0.1838  0.2084
  556MOL0    Cl73304   7.171   3.964  12.257  0.2012  0.2192  0.3725
  556MOL0     C73305   8.025   4.382  11.611 -0.4613  0.0738  0.3043
  556MOL0     C73306   8.152   4.389  11.551 -0.3523  0.1158  0.2881
  556MOL0     O73307   8.454   4.522  11.723  0.1084  0.3312 -0.4218
  556MOL0     C73308   8.598   4.587  11.411 -1.0198  0.0540 -0.2998
  556MOL0     C73309   8.719   4.619  11.354 -0.3906 -0.0268 -0.2161
  556MOL0     N73310   9.533   4.758  11.213  0.2833  0.5763  0.0295
  556MOL0     N73311   9.537   4.800  11.091 -1.1934  0.2383  0.2382
  556MOL0     C73312   8.467   4.928  10.573  0.2556  0.0993  0.1084
  556MOL0     C73313   8.350   4.953  10.509  0.8123  0.4070  0.2295
  556MOL0     C73314   8.034   4.980  10.191  0.2075 -0.0163  0.7914
  556MOL0     C73315   8.016   5.000  10.050  0.0096  0.3541 -0.5099
  556MOL0     C73316   7.895   5.050   9.994 -0.4325  0.0531 -0.1762
  556MOL0     C73317   7.796   5.101  10.077 -0.4635 -0.0172 -0.1948
  556MOL0     O73318   7.679   5.156  10.029  0.9880 -0.6828 -0.3930
  556MOL0     C73319   7.645   5.293  10.064  0.3878  0.3908 -0.3493
  556MOL0     C73320   7.636   5.372   9.930  0.9566 -0.6411 -0.2710
  556MOL0     C73321   7.773   5.364   9.849  0.5972 -0.2872  0.5363
  556MOL0     C73322   7.772   5.450   9.729  0.0958  0.4274 -0.6387
  556MOL0     C73323   7.880   5.409   9.644 -0.2574 -0.3697  0.3546
  556MOL0     C73324   7.966   5.351   9.587  0.3407  0.3562  0.6302
  556MOL0     C73325   7.818   5.096  10.219  0.0301 -0.3116 -0.0626
  556MOL0     C73326   7.932   5.026  10.269  0.1579 -0.0622 -0.1860
  556MOL0     H73327   8.300   4.669  10.341 -1.5639 -0.1898  1.9207
  556MOL0     H73328   8.505   4.618  10.432  2.3770 -0.7499  0.5017
  556MOL0     H73329   8.744   4.676  10.495  1.1949  1.4326 -0.1272
  556MOL0     H73330   8.699   4.567  10.635  0.5324 -0.1922 -0.1794
  556MOL0     H73331   8.832   4.725  10.777 -0.5398  0.6569  0.4082
  556MOL0     H73332   8.850   4.834  10.630 -0.4975  1.1155  2.2736
  556MOL0     H73333   8.962   4.643  10.508 -1.2627  0.7394 -0.7984
  556MOL0     H73334   8.958   4.565  10.671 -0.4930  1.1294  0.9406
  556MOL0     H73335   9.091   4.836  10.597  0.3492 -0.6061 -1.6416
  556MOL0     H73336   9.113   4.730  10.752  3.8200 -2.4793 -0.6522
  556MOL0     H73337   9.243   4.680  10.482 -1.1978  1.9083  0.4101
  556MOL0     H73338   9.210   4.566  10.623 -0.7775  0.2313  1.9514
  556MOL0     H73339   9.380   4.822  10.655  0.7420  0.1180  1.6195
  556MOL0     H73340   9.438   4.663  10.599 -1.0827  2.3082 -2.9231
  556MOL0     H73341   9.300   4.782  10.856 -0.4941 -1.8004  1.9852
  556MOL0     H73342   9.299   4.621  10.841 -4.8607  2.2349 -0.2438
  556MOL0     H73343   9.563   4.793  10.836  2.8283 -2.2998  0.9328
  556MOL0     H73344   9.552   4.625  10.819 -1.3971  0.1531 -1.7484
  556MOL0     H73345   9.432   4.491  11.058  0.1085  0.2541  0.7421
  556MOL0     H73346   9.534   4.564  11.407  0.1226  1.4727  0.1186
  556MOL0     H73347   9.417   4.464  11.320 -0.3528 -0.5588  0.3150
  556MOL0     H73348   9.348   4.735  11.438 -2.0095  0.2916  2.9335
  556MOL0     H73349   9.342   4.594  11.533 -1.5926  0.8552  0.1062
  556MOL0     H73350   9.193   4.629  11.261 -1.5395  2.2030  0.7650
  556MOL0     H73351   9.160   4.498  11.385  0.7410  0.4454 -0.1947
  556MOL0     H73352   9.106   4.797  11.406 -0.9056  0.1006 -0.7692
  556MOL0     H73353   9.090   4.675  11.532  1.6815 -0.3246 -0.1781
  556MOL0     H73354   8.915   4.605  11.626  0.0109 -0.3628 -0.5668
  556MOL0     H73355   8.706   4.536  11.725 -3.7578 -1.0054 -0.2373
  556MOL0     H73356   8.232   4.694  11.660  0.2323 -0.2428  2.8729
  556MOL0     H73357   8.011   4.683  11.759 -0.6144  1.4632 -1.6544
  556MOL0     H73358   7.770   4.631  11.790  0.9326  0.5915  1.6894
  556MOL0     H73359   7.870   4.542  11.907  1.8772 -1.0802 -1.8655
  556MOL0     H73360   7.590   4.466  11.811  1.0685 -0.4117 -0.3244
  556MOL0     H73361   7.618   4.533  11.973 -1.9542 -0.0335 -0.5073
  556MOL0     H73362   7.762   4.346  12.033 -1.4060  3.8999  0.8709
  556MOL0     H73363   7.721   4.250  11.899  1.1675  0.3672  0.6864
  556MOL0     H73364   7.552   4.341  12.138 -3.0816  2.9182 -1.2104
  556MOL0     H73365   7.466   4.330  11.990 -1.4181 -0.5042  1.6929
  556MOL0     H73366   7.650   4.104  12.090 -0.8246 -0.9226  0.6201
  556MOL0     H73367   7.536   4.079  11.966  1.2851  0.4733 -1.3435
  556MOL0     H73368   7.344   4.127  12.127 -0.9558 -3.8451 -0.6401
  556MOL0     H73369   7.456   4.158  12.257  1.6322 -0.4793 -0.2736
  556MOL0     H73370   7.421   3.891  12.106 -0.5772  0.7414  0.4433
  556MOL0     H73371   7.534   3.927  12.243  1.3901  0.7039 -1.7979
  556MOL0     H73372   7.355   3.923  12.402  0.7678 -0.9423  0.1390
  556MOL0     H73373   7.326   3.795  12.303  0.5882  0.1482 -0.4227
  556MOL0     H73374   7.978   4.285  11.596  0.1110 -0.3930  1.4013
  556MOL0     H73375   8.197   4.309  11.492 -0.1490  0.2861  0.2095
  556MOL0     H73376   8.509   4.575  11.350 -1.0809 -0.8018 -0.0457
  556MOL0     H73377   8.713   4.650  11.250 -0.1715  0.2939 -0.1369
  556MOL0     H73378   8.520   5.003  10.631  2.4442  1.0903 -2.9416
  556MOL0     H73379   8.306   5.052  10.500 -0.0738  0.1593  1.6337
  556MOL0     H73380   8.098   4.956   9.994  1.3836  0.5713  1.2380
  556MOL0     H73381   7.880   5.043   9.886 -2.3588 -1.8877  0.1598
  556MOL0     H73382   7.723   5.339  10.126 -0.0687  1.7993 -0.7984
  556MOL0     H73383   7.554   5.282  10.123 -1.5159 -1.1494 -3.3185
  556MOL0     H73384   7.552   5.324   9.878  1.3354 -1.8049  0.1701
  556MOL0     H73385   7.608   5.478   9.938 -0.9394 -1.1804  0.9841
  556MOL0     H73386   7.800   5.261   9.824 -1.1417 -2.1895  5.3298
  556MOL0     H73387   7.854   5.399   9.913 -0.5457  0.9066  1.3811
  556MOL0     H73388   7.680   5.428   9.673  0.3859  1.0362 -1.3827
  556MOL0     H73389   7.780   5.556   9.756  0.8285  0.4935 -1.0899
  556MOL0     H73390   8.042   5.301   9.531 -0.8109 -0.0767 -0.5699
  556MOL0     H73391   7.758   5.135  10.301  3.9871  0.1125  2.9644
  556MOL0     H73392   7.922   5.019  10.377  3.8859  0.1122  0.3100
  557MOL0     O73393   5.104   9.026   6.631  0.2189  0.2264  0.3418
  557MOL0     C73394   5.175   9.062   6.728 -0.2510 -0.3865  0.0809
  557MOL0     O73395   5.159   9.029   6.855  0.0701 -0.0061 -0.1496
  557MOL0     C73396   5.063   8.939   6.885  0.2977 -0.7808  0.4282
  557MOL0     C73397   4.948   8.997   6.949  0.3846  0.2662  0.2228
  557MOL0     C73398   4.837   8.918   6.976  0.5435  0.5406 -0.3942
  557MOL0     C73399   4.839   8.782   6.950 -0.0621  0.7944  0.4296
  557MOL0     O73400   4.726   8.716   7.003 -0.2882 -0.3871 -0.0024
  557MOL0     C73401   4.684   8.598   6.925  0.2240 -0.6508 -0.1981
  557MOL0     C73402   4.538   8.602   6.888  0.1479 -0.3996 -0.4564
  557MOL0     C73403   4.445   8.606   7.010 -0.0556 -0.0639 -0.4223
  557MOL0     C73404   4.323   8.687   6.974  0.0687 -0.3444 -0.8192
  557MOL0     C73405   4.226   8.690   7.096  0.0314  0.3154 -0.2783
  557MOL0     C73406   4.281   8.759   7.223 -0.2753  0.7120  0.1630
  557MOL0     C73407   4.180   8.863   7.257 -0.8342 -0.1847 -0.3922
  557MOL0     C73408   4.221   8.956   7.377  0.3473 -0.3715 -0.0224
  557MOL0     N73409   4.321   9.054   7.346  0.3779 -0.0460 -0.1989
  557MOL0     C73410   4.449   9.038   7.333 -0.0910 -0.1090 -0.0567
  557MOL0     C73411   4.492   9.159   7.287 -0.6141  0.9118  0.0094
  557MOL0     C73412   4.647   9.175   7.268  0.4505 -0.4599  0.6892
  557MOL0     C73413   4.717   9.244   7.382  0.0819 -0.1091  0.5167
  557MOL0     C73414   4.841   9.325   7.341  0.0822  0.2826  0.8647
  557MOL0     C73415   4.955   9.237   7.294  0.3909  0.3889  0.1861
  557MOL0     O73416   5.057   9.319   7.271 -0.0669 -0.6199 -0.2993
  557MOL0     C73417   5.172   9.262   7.229  0.2997 -0.2418  0.2214
  557MOL0     C73418   5.280   9.344   7.236 -0.0046 -0.3180 -0.7525
  557MOL0     C73419   5.408   9.309   7.184  0.0578  0.0241 -0.1183
  557MOL0     C73420   5.433   9.175   7.144 -0.5647  0.0975 -0.4645
  557MOL0     C73421   5.569   9.137   7.103  0.3789  1.2143 -0.2196
  557MOL0     O73422   5.671   9.223   7.110  0.3184  1.1125  0.8483
  557MOL0     C73423   5.791   9.174   7.090  0.4308  0.7054 -0.4174
  557MOL0     C73424   5.876   9.280   7.049  0.5702 -0.2541 -0.3916
  557MOL0     C73425   6.016   9.262   7.056  0.5130 -0.4979  0.1469
  557MOL0     C73426   6.072   9.146   7.103  0.4581  0.2238 -0.2922
  557MOL0     O73427   6.199   9.124   7.112 -1.4243 -0.0779 -0.3920
  557MOL0     C73428   6.260   9.068   6.994 -0.0917 -0.1464  0.2731
  557MOL0     C73429   6.404   9.053   7.019  0.0105 -0.1541 -1.4603
  557MOL0     C73430   6.444   8.964   7.136 -0.4177  0.5778 -0.3519
  557MOL0     C73431   6.591   8.992   7.172 -0.2104  0.2627  0.2943
  557MOL0     C73432   6.678   8.864   7.143 -0.7167 -0.5189  0.0504
  557MOL0     C73433   6.823   8.893   7.137  0.4274 -0.3239  0.6308
  557MOL0     C73434   6.910   8.775   7.164 -0.0127 -0.1361 -1.0618
  557MOL0     C73435   7.064   8.819   7.171 -0.7990 -0.1361 -0.0908
  557MOL0    Cl73436   7.180   8.702   7.257  0.5717  0.2037 -0.1016
  557MOL0     C73437   5.986   9.050   7.153  0.6158  0.5882  0.3445
  557MOL0     C73438   5.849   9.064   7.148 -0.1731  0.0642 -0.2525
  557MOL0     O73439   5.576   9.018   7.062  0.6093  0.3629  0.4782
  557MOL0     C73440   5.324   9.086   7.153 -0.2176  0.0814  0.2287
  557MOL0     C73441   5.194   9.129   7.189  0.5274 -0.2563 -1.0198
  557MOL0     N73442   4.392   9.246   7.268  0.2571  0.0216  0.3097
  557MOL0     N73443   4.284   9.177   7.289  0.0484 -0.0444 -0.3001
  557MOL0     C73444   4.952   8.726   6.887  0.2996  1.7442 -0.7553
  557MOL0     C73445   5.061   8.807   6.851  0.1288 -0.3420  0.2878
  557MOL0     C73446   5.289   9.145   6.685 -0.0213  0.9724  0.4479
  557MOL0     C73447   5.380   9.194   6.783  0.3050  0.2656 -0.2185
  557MOL0     C73448   5.503   9.253   6.740 -0.1294 -0.4298  0.6248
  557MOL0     C73449   5.524   9.281   6.601 -0.5349 -0.0721 -0.7440
  557MOL0     O73450   5.644   9.341   6.566 -0.4155  0.6913  1.1482
  557MOL0     C73451   5.657   9.385   6.432  0.1457 -0.1941  0.4936
  557MOL0     C73452   5.796   9.459   6.425 -0.1851  0.3144 -1.1573
  557MOL0     C73453   5.902   9.354   6.393 -0.1951  0.3221  0.2615
  557MOL0     C73454   6.046   9.407   6.383  0.2364 -0.1159  0.6584
  557MOL0     C73455   6.109   9.464   6.504  1.5028  0.8110 -0.0991
  557MOL0     C73456   6.152   9.517   6.603 -0.1451  0.1699  0.2708
  557MOL0     C73457   5.424   9.244   6.501  0.5422 -0.6062 -0.3981
  557MOL0     C73458   5.309   9.178   6.547  0.3877  1.2948 -0.5197
  557MOL0     H73459   4.945   9.103   6.974 -2.0160 -0.6206  4.6737
  557MOL0     H73460   4.743   8.960   7.011  0.0697  0.5578 -1.6647
  557MOL0     H73461   4.701   8.506   6.981  1.3070  0.2730  1.0774
  557MOL0     H73462   4.737   8.597   6.830  0.9468 -0.5072  0.1899
  557MOL0     H73463   4.508   8.511   6.835 -1.7054  0.8292 -1.6732
  557MOL0     H73464   4.513   8.686   6.822  1.0936  1.3196  1.2724
  557MOL0     H73465   4.495   8.649   7.097  0.5556  1.7620 -1.6160
  557MOL0     H73466   4.414   8.507   7.044 -1.9497  1.2697  2.0515
  557MOL0     H73467   4.361   8.789   6.958 -1.5763  1.4554  4.4514
  557MOL0     H73468   4.256   8.645   6.899 -2.0866 -0.5151  1.0740
  557MOL0     H73469   4.187   8.590   7.113  0.9398  0.0730  0.4787
  557MOL0     H73470   4.143   8.747   7.053 -0.6960 -2.8806 -3.6100
  557MOL0     H73471   4.377   8.809   7.208  0.1004  1.0807  3.1229
  557MOL0     H73472   4.301   8.682   7.298 -1.0980 -1.0686 -1.3698
  557MOL0     H73473   4.173   8.927   7.169  0.8527 -0.7341 -0.9781
  557MOL0     H73474   4.085   8.811   7.270 -1.1291  0.7724  1.6964
  557MOL0     H73475   4.263   8.901   7.461  3.1503 -0.3537 -1.3126
  557MOL0     H73476   4.136   9.017   7.409 -0.4130 -1.0647 -0.6756
  557MOL0     H73477   4.508   8.959   7.380  1.1035  1.4226  1.1255
  557MOL0     H73478   4.654   9.227   7.172 -2.4096 -2.3709 -0.6895
  557MOL0     H73479   4.696   9.079   7.248  1.8573  0.1662  0.9737
  557MOL0     H73480   4.746   9.169   7.456 -0.9338 -1.5356 -0.4961
  557MOL0     H73481   4.643   9.312   7.425  0.2057  1.1533 -1.1465
  557MOL0     H73482   4.814   9.406   7.272  0.3676 -1.0594 -0.8856
  557MOL0     H73483   4.872   9.373   7.434  4.4323 -0.0802 -0.1675
  557MOL0     H73484   4.932   9.172   7.209  0.0415 -1.4545  1.6225
  557MOL0     H73485   4.974   9.169   7.377 -1.4351  1.3550  1.4754
  557MOL0     H73486   5.266   9.440   7.285  2.4425  0.3451 -1.1857
  557MOL0     H73487   5.489   9.380   7.196  0.6209 -0.6015 -0.1243
  557MOL0     H73488   5.837   9.378   7.027  1.5410  0.6490  1.6479
  557MOL0     H73489   6.083   9.346   7.036 -0.4198 -0.2281 -2.1429
  557MOL0     H73490   6.250   9.147   6.918  1.0158 -1.8537 -1.7394
  557MOL0     H73491   6.216   8.975   6.957  1.9080 -0.9344 -0.2161
  557MOL0     H73492   6.447   9.150   7.046  2.8735 -1.3983 -1.0916
  557MOL0     H73493   6.453   9.015   6.929  0.8093 -0.7418 -0.8026
  557MOL0     H73494   6.426   8.858   7.115 -1.8379  0.8578 -0.6361
  557MOL0     H73495   6.381   8.987   7.222 -1.2277  0.1736 -0.8296
  557MOL0     H73496   6.630   9.071   7.106 -3.6098  0.9278 -1.1196
  557MOL0     H73497   6.598   9.024   7.276  0.3369  4.0869 -0.7431
  557MOL0     H73498   6.649   8.820   7.047 -0.9148 -0.5078  0.1035
  557MOL0     H73499   6.660   8.785   7.217  1.7143 -1.2738 -0.0982
  557MOL0     H73500   6.852   8.976   7.202 -0.8262  0.3979  0.3029
  557MOL0     H73501   6.838   8.935   7.037  0.3267  0.9986  1.1507
  557MOL0     H73502   6.871   8.724   7.253  2.6672  0.6447  0.6790
  557MOL0     H73503   6.899   8.698   7.087  1.7119 -1.3621 -0.1527
  557MOL0     H73504   7.079   8.914   7.223  5.0557 -0.6678 -0.2192
  557MOL0     H73505   7.104   8.837   7.071  0.8728 -1.0956  0.3569
  557MOL0     H73506   6.028   8.957   7.191 -1.7173 -1.2848 -1.3158
  557MOL0     H73507   5.781   8.993   7.194 -0.5925  2.8751  3.9644
  557MOL0     H73508   5.350   8.984   7.125  0.6409  0.0803  0.9562
  557MOL0     H73509   5.107   9.065   7.182  0.7191 -0.6881  0.2460
  557MOL0     H73510   4.940   8.620   6.870 -1.5766  2.1545 -2.4724
  557MOL0     H73511   5.146   8.765   6.800 -0.8937  0.6453 -2.3780
  557MOL0     H73512   5.366   9.162   6.886  0.8268 -0.9966 -0.5114
  557MOL0     H73513   5.581   9.258   6.815  1.0485 -2.1085 -0.4228
  557MOL0     H73514   5.578   9.452   6.398 -0.1321  0.9046  3.0645
  557MOL0     H73515   5.657   9.300   6.363  0.4760 -0.0011  0.2523
  557MOL0     H73516   5.783   9.526   6.339  0.2945  0.3402 -1.2114
  557MOL0     H73517   5.811   9.514   6.518 -0.4293 -3.4351  1.2979
  557MOL0     H73518   5.878   9.305   6.298  2.7545  1.0026 -0.9673
  557MOL0     H73519   5.895   9.271   6.465  1.4413 -0.9039 -0.9013
  557MOL0     H73520   6.106   9.329   6.335  0.2076  1.1947 -1.6507
  557MOL0     H73521   6.052   9.482   6.304 -0.6476 -0.4737  0.2321
  557MOL0     H73522   6.206   9.556   6.688  2.2276 -0.4779 -0.8410
  557MOL0     H73523   5.433   9.267   6.395 -1.0521  0.0731 -0.4159
  557MOL0     H73524   5.225   9.145   6.486 -0.2614 -2.2343  2.0127
  558MOL0     O73525   0.342   8.380   3.333  0.4394  0.3076  0.9621
  558MOL0     C73526   0.348   8.260   3.307  0.4358 -0.0776  0.2123
  558MOL0     O73527   0.243   8.170   3.315  1.2337  0.0769 -0.0386
  558MOL0     C73528   0.128   8.228   3.347  0.1031 -0.5194  0.3767
  558MOL0     C73529   0.076   8.223   3.478  0.5482 -0.2128 -0.4414
  558MOL0     C73530  -0.049   8.288   3.497  0.4603  0.6662  0.3725
  558MOL0     C73531  -0.114   8.356   3.398 -0.5545 -0.2775 -0.0395
  558MOL0     O73532  -0.220   8.437   3.428  0.0563  0.6513 -0.4207
  558MOL0     C73533  -0.345   8.382   3.477  0.2399  0.7433  0.5441
  558MOL0     C73534  -0.460   8.456   3.405  0.1073  0.1356 -0.5492
  558MOL0     C73535  -0.436   8.469   3.260 -0.4908 -0.3994  0.4264
  558MOL0     C73536  -0.551   8.554   3.205  0.4158  0.2741 -1.1002
  558MOL0     C73537  -0.525   8.586   3.057  0.0510 -0.1064  0.6696
  558MOL0     C73538  -0.650   8.674   2.996 -0.6928  0.3961 -0.4444
  558MOL0     C73539  -0.785   8.599   3.009 -0.2586 -0.1970 -0.1593
  558MOL0     C73540  -0.902   8.680   2.949  0.4104 -0.0414  0.0364
  558MOL0     N73541  -1.035   8.633   2.980  0.4901  0.3912  0.5970
  558MOL0     C73542  -1.120   8.673   3.076 -0.3045 -0.4033 -0.8982
  558MOL0     C73543  -1.233   8.600   3.063 -0.7291  0.1730 -0.0827
  558MOL0     C73544  -1.344   8.623   3.155  0.2595  0.4570  0.1869
  558MOL0     C73545  -1.472   8.568   3.088  0.2565 -0.2041  0.2737
  558MOL0     C73546  -1.593   8.611   3.179 -0.8565  0.9860  0.4449
  558MOL0     C73547  -1.609   8.535   3.315  0.2783 -1.2035  0.2001
  558MOL0     O73548  -1.726   8.590   3.370 -1.5496  0.1868 -0.3874
  558MOL0     C73549  -1.833   8.519   3.400 -1.0692 -0.2524 -0.0429
  558MOL0     C73550  -1.832   8.388   3.428  0.0198  0.9192 -0.0835
  558MOL0     C73551  -1.960   8.324   3.448 -0.5692  1.5156  0.9551
  558MOL0     C73552  -2.082   8.400   3.445 -0.8793  0.2051  0.1323
  558MOL0     C73553  -2.223   8.342   3.454  0.2566  0.4252 -0.4020
  558MOL0     O73554  -2.242   8.207   3.434 -0.3217  1.4281  0.1864
  558MOL0     C73555  -2.360   8.149   3.460  0.3684  0.7483  1.3291
  558MOL0     C73556  -2.439   8.177   3.574  0.3156 -0.5139  0.0820
  558MOL0     C73557  -2.560   8.107   3.595 -0.2368 -0.0526 -0.4638
  558MOL0     C73558  -2.608   8.006   3.507  0.4922  0.2045  0.3523
  558MOL0     O73559  -2.727   7.931   3.522  0.4893  1.2297 -0.3219
  558MOL0     C73560  -2.775   7.910   3.652 -0.5993 -0.8545  0.0342
  558MOL0     C73561  -2.849   7.778   3.644 -0.9961 -0.3334  0.1352
  558MOL0     C73562  -2.978   7.794   3.578 -0.0936  0.2150 -0.0666
  558MOL0     C73563  -3.048   7.668   3.538 -0.2071 -0.8847 -0.5597
  558MOL0     C73564  -3.084   7.597   3.672 -0.0772 -0.1589 -0.0400
  558MOL0     C73565  -3.203   7.499   3.662 -0.4250  0.3363  0.1954
  558MOL0     C73566  -3.180   7.358   3.594  0.2785 -0.3979 -0.1915
  558MOL0     C73567  -3.078   7.280   3.667 -0.4767  0.5741 -0.1571
  558MOL0    Cl73568  -3.157   7.209   3.813 -0.0177 -0.1330  0.1117
  558MOL0     C73569  -2.528   7.979   3.392 -0.4221  0.0843  0.0908
  558MOL0     C73570  -2.404   8.037   3.376 -0.0735 -0.0055 -0.4229
  558MOL0     O73571  -2.318   8.420   3.484 -0.1863  0.1622  0.6224
  558MOL0     C73572  -2.069   8.532   3.409 -1.2511 -0.2673 -0.0917
  558MOL0     C73573  -1.950   8.593   3.394  0.3102 -0.2756  0.4640
  558MOL0     N73574  -1.208   8.500   2.965 -0.3364 -0.9349 -0.9467
  558MOL0     N73575  -1.087   8.517   2.918 -0.1702  0.3058 -0.0496
  558MOL0     C73576  -0.052   8.369   3.269 -0.7682  0.2757 -0.4049
  558MOL0     C73577   0.060   8.296   3.241 -0.6820 -0.3736 -0.0731
  558MOL0     C73578   0.483   8.206   3.281 -0.5194 -0.8924  0.3571
  558MOL0     C73579   0.495   8.072   3.224  0.1679 -0.4267 -0.1666
  558MOL0     C73580   0.619   8.019   3.184  0.3181 -0.2746  0.1283
  558MOL0     C73581   0.736   8.099   3.206  0.2618  0.1369  0.9332
  558MOL0     O73582   0.870   8.064   3.181  0.3316 -0.5455  0.0159
  558MOL0     C73583   0.899   7.951   3.098 -0.5337  0.3451  0.5408
  558MOL0     C73584   1.044   7.899   3.121  0.3367 -0.1279 -1.0384
  558MOL0     C73585   1.147   7.990   3.072 -0.0854  0.6926  0.3644
  558MOL0     C73586   1.295   7.942   3.072 -0.2213 -0.4763 -0.7503
  558MOL0     C73587   1.317   7.852   3.187 -0.0961  0.1280 -0.1666
  558MOL0     C73588   1.332   7.776   3.275  0.1600  0.2960 -1.0970
  558MOL0     C73589   0.732   8.226   3.261  0.8330  0.2087 -0.3752
  558MOL0     C73590   0.606   8.277   3.304 -0.0356  0.7357 -0.8250
  558MOL0     H73591   0.136   8.187   3.561 -0.4853  2.0263  1.3639
  558MOL0     H73592  -0.092   8.290   3.597  0.8953  3.6887  0.5988
  558MOL0     H73593  -0.344   8.403   3.585 -0.7921 -0.6674  0.8590
  558MOL0     H73594  -0.349   8.272   3.481  0.6355  0.7512  2.3774
  558MOL0     H73595  -0.480   8.550   3.457  0.4370 -1.5092  2.8690
  558MOL0     H73596  -0.546   8.393   3.427  0.4521  0.8747  3.9111
  558MOL0     H73597  -0.442   8.365   3.226  1.1327 -1.1749  2.3228
  558MOL0     H73598  -0.334   8.504   3.241 -0.0784 -0.8732  1.6727
  558MOL0     H73599  -0.638   8.497   3.237  2.6564 -1.9867  1.5581
  558MOL0     H73600  -0.554   8.647   3.262  1.0945  0.1813 -0.9003
  558MOL0     H73601  -0.514   8.494   2.999  0.8688  1.5483 -1.9971
  558MOL0     H73602  -0.435   8.647   3.045 -2.6192  3.6322 -3.0246
  558MOL0     H73603  -0.631   8.716   2.897  0.0961 -1.0062 -0.9101
  558MOL0     H73604  -0.655   8.763   3.059  0.3819  1.1094 -1.3275
  558MOL0     H73605  -0.783   8.502   2.959 -0.2758 -0.0876 -0.3695
  558MOL0     H73606  -0.802   8.585   3.116 -0.3633 -3.3583 -0.5015
  558MOL0     H73607  -0.889   8.674   2.841 -1.7300 -1.2704 -0.2080
  558MOL0     H73608  -0.901   8.781   2.992 -2.2556  0.1908 -0.2796
  558MOL0     H73609  -1.106   8.756   3.146 -0.3084 -0.6389 -0.6155
  558MOL0     H73610  -1.354   8.732   3.161 -1.0102  0.3085  1.0969
  558MOL0     H73611  -1.324   8.593   3.259  0.6781 -0.3839 -0.1302
  558MOL0     H73612  -1.475   8.462   3.058  0.0164 -0.6360  1.7657
  558MOL0     H73613  -1.485   8.631   2.999 -0.8853  2.0806  1.9594
  558MOL0     H73614  -1.578   8.718   3.197 -0.4873  1.3282 -1.6465
  558MOL0     H73615  -1.681   8.602   3.115 -0.0195  0.5290 -0.6738
  558MOL0     H73616  -1.526   8.543   3.386  1.1998  0.1601 -0.9901
  558MOL0     H73617  -1.622   8.427   3.299 -1.8107 -0.7611 -1.6582
  558MOL0     H73618  -1.733   8.350   3.450  0.4259  1.5151 -0.8418
  558MOL0     H73619  -1.968   8.217   3.465 -3.2510  1.6295  0.8171
  558MOL0     H73620  -2.407   8.254   3.644  0.3497 -2.6676  2.5810
  558MOL0     H73621  -2.608   8.134   3.688 -0.4342  1.1226 -0.8851
  558MOL0     H73622  -2.841   7.994   3.675  0.3633  0.2295 -0.9879
  558MOL0     H73623  -2.689   7.899   3.719  1.0023  1.9185 -1.3413
  558MOL0     H73624  -2.871   7.741   3.745 -3.4291  1.0315  0.1820
  558MOL0     H73625  -2.796   7.700   3.589 -2.2053 -0.5296 -0.8040
  558MOL0     H73626  -2.970   7.863   3.493  0.7027  0.4220  0.1644
  558MOL0     H73627  -3.046   7.851   3.642  2.0072  0.5775  1.9779
  558MOL0     H73628  -3.141   7.693   3.488 -0.0020 -1.2563 -1.1409
  558MOL0     H73629  -2.984   7.611   3.469  0.5877 -1.0821  0.3125
  558MOL0     H73630  -3.116   7.667   3.750 -2.5428  1.2856 -2.1890
  558MOL0     H73631  -2.995   7.547   3.711  0.4216 -0.3633 -1.3978
  558MOL0     H73632  -3.286   7.553   3.616  0.5414  1.0722 -0.7101
  558MOL0     H73633  -3.240   7.483   3.764 -1.9910  0.8749 -0.2621
  558MOL0     H73634  -3.272   7.301   3.606  0.6618 -1.0254 -0.1789
  558MOL0     H73635  -3.162   7.377   3.488  0.0719  0.8573 -0.0265
  558MOL0     H73636  -2.978   7.320   3.686  1.0729 -3.2097  0.5641
  558MOL0     H73637  -3.058   7.194   3.602 -1.3984 -0.0512  0.3668
  558MOL0     H73638  -2.553   7.899   3.323  1.0066  0.7004 -1.2122
  558MOL0     H73639  -2.351   8.008   3.287 -2.0121 -0.4163 -1.5056
  558MOL0     H73640  -2.157   8.594   3.397 -2.1699 -1.6493 -0.7031
  558MOL0     H73641  -1.949   8.701   3.383  1.4019 -0.2086  0.9974
  558MOL0     H73642  -0.089   8.434   3.190  0.9607  1.1293 -0.5664
  558MOL0     H73643   0.094   8.284   3.138  0.6620 -0.5384  0.3823
  558MOL0     H73644   0.403   8.018   3.207 -0.3032  0.5014 -0.6328
  558MOL0     H73645   0.618   7.917   3.147 -4.4036  0.0747 -1.4255
  558MOL0     H73646   0.893   7.989   2.995  2.1506  0.5952  0.4126
  558MOL0     H73647   0.828   7.870   3.115 -0.0449 -0.2877 -0.3467
  558MOL0     H73648   1.048   7.877   3.229 -3.3440  0.5745 -0.6249
  558MOL0     H73649   1.057   7.806   3.064  2.8363 -0.8548  0.5540
  558MOL0     H73650   1.152   8.088   3.120  0.5069  0.1393  1.4706
  558MOL0     H73651   1.118   8.012   2.968  2.0337  3.9331  0.3345
  558MOL0     H73652   1.301   7.873   2.988 -2.3720 -2.8569  0.8736
  558MOL0     H73653   1.366   8.025   3.084 -1.7612  1.2889 -2.9356
  558MOL0     H73654   1.325   7.715   3.364 -2.0941  0.0867 -1.3545
  558MOL0     H73655   0.827   8.266   3.295  1.0727 -0.7685  0.1461
  558MOL0     H73656   0.607   8.374   3.353  0.3567  0.1949  0.2789
  559MOL0     O73657   1.438   2.458  10.062  0.0663 -0.3624 -0.0199
  559MOL0     C73658   1.422   2.576  10.066 -0.5882  0.6317 -0.5964
  559MOL0     O73659   1.311   2.641  10.032 -0.1667  0.1866  0.3683
  559MOL0     C73660   1.198   2.582   9.989  1.0216  0.5053  0.0409
  559MOL0     C73661   1.079   2.655  10.005  0.4804  0.1986 -0.3090
  559MOL0     C73662   0.958   2.618   9.937  0.2136  0.2453 -0.2698
  559MOL0     C73663   0.950   2.503   9.851  0.3761 -0.0881  0.7950
  559MOL0     O73664   0.842   2.452   9.780  0.1513  0.1739  0.1213
  559MOL0     C73665   0.758   2.560   9.740  0.4677  0.0037  0.4203
  559MOL0     C73666   0.665   2.516   9.630 -1.0347  0.2910 -0.0951
  559MOL0     C73667   0.565   2.404   9.664  0.7369  0.1514  0.3442
  559MOL0     C73668   0.461   2.448   9.767  0.5078 -0.2469 -0.3146
  559MOL0     C73669   0.385   2.331   9.841 -1.0935 -0.1472  0.9463
  559MOL0     C73670   0.323   2.230   9.740  0.8040  0.0793 -0.6270
  559MOL0     C73671   0.238   2.288   9.631  0.9805  0.1667 -1.0774
  559MOL0     C73672   0.196   2.191   9.517 -0.6050 -0.1838 -0.1480
  559MOL0     N73673   0.110   2.249   9.419  0.5780  0.0489  0.3664
  559MOL0     C73674   0.007   2.187   9.351 -0.1460  0.4989  0.5047
  559MOL0     C73675  -0.039   2.267   9.253 -0.4977 -0.2714 -0.3012
  559MOL0     C73676  -0.146   2.236   9.152  0.6177 -0.8760 -0.4384
  559MOL0     C73677  -0.284   2.243   9.216  1.1236 -0.3025 -0.4875
  559MOL0     C73678  -0.320   2.131   9.313 -0.3188 -0.1198  0.5060
  559MOL0     C73679  -0.469   2.146   9.342  0.7968  0.3624 -1.1623
  559MOL0     O73680  -0.549   2.109   9.231  0.1011  0.1718 -0.3729
  559MOL0     C73681  -0.682   2.109   9.244  0.3064 -0.2227 -0.0260
  559MOL0     C73682  -0.750   1.984   9.282 -0.4077 -0.1791 -0.0279
  559MOL0     C73683  -0.884   1.987   9.310  0.1265 -0.4858 -0.6158
  559MOL0     C73684  -0.959   2.112   9.306 -0.2322  0.1667 -1.1500
  559MOL0     C73685  -1.100   2.125   9.354  0.0420  0.8761  0.8359
  559MOL0     O73686  -1.136   2.040   9.451 -0.0791 -0.2249  0.0014
  559MOL0     C73687  -1.262   1.990   9.465 -0.4406  0.7152 -0.5218
  559MOL0     C73688  -1.298   1.931   9.584 -0.3135  0.3507 -0.3062
  559MOL0     C73689  -1.419   1.871   9.612  0.3618 -0.6666 -0.5459
  559MOL0     C73690  -1.526   1.878   9.515  0.4602 -0.0665  0.8790
  559MOL0     O73691  -1.649   1.826   9.536 -0.2633 -0.4841 -0.5295
  559MOL0     C73692  -1.650   1.720   9.640 -0.1255  0.3752  0.0464
  559MOL0     C73693  -1.743   1.614   9.607 -0.1201  0.3395 -0.0253
  559MOL0     C73694  -1.895   1.647   9.636 -0.6249 -0.0171  1.2835
  559MOL0     C73695  -1.989   1.519   9.642  0.0407 -0.0541 -0.1211
  559MOL0     C73696  -2.134   1.561   9.663 -0.6578 -0.1754  0.8587
  559MOL0     C73697  -2.238   1.454   9.661  0.1779  0.2949 -0.1466
  559MOL0     C73698  -2.385   1.506   9.674  0.2547  0.2801 -0.0010
  559MOL0     C73699  -2.490   1.385   9.680 -0.0150 -0.1526  0.1244
  559MOL0    Cl73700  -2.637   1.444   9.767  0.0324 -0.0293 -0.3062
  559MOL0     C73701  -1.495   1.931   9.396 -0.2225 -0.3077  0.0673
  559MOL0     C73702  -1.367   1.985   9.372  0.1749 -0.0755 -0.1483
  559MOL0     O73703  -1.178   2.200   9.289  0.4983  0.2826 -0.3519
  559MOL0     C73704  -0.889   2.227   9.259  0.6012 -0.2768 -0.8529
  559MOL0     C73705  -0.754   2.223   9.229  0.4212 -0.0119  0.5075
  559MOL0     N73706   0.043   2.373   9.254 -0.3632 -0.2160 -0.0133
  559MOL0     N73707   0.120   2.367   9.352  0.4887  0.3781 -0.3841
  559MOL0     C73708   1.074   2.432   9.841 -0.0761 -0.3395  1.0876
  559MOL0     C73709   1.187   2.465   9.911  0.0647  0.1442 -0.5765
  559MOL0     C73710   1.538   2.658  10.096 -0.2604  0.2112  0.3090
  559MOL0     C73711   1.666   2.605  10.084 -1.2549  0.4102 -0.1167
  559MOL0     C73712   1.770   2.695  10.117  0.1904 -0.4121 -0.2663
  559MOL0     C73713   1.749   2.824  10.167 -0.2763  0.6454 -0.4933
  559MOL0     O73714   1.845   2.916  10.204  0.3805 -0.0154  0.6948
  559MOL0     C73715   1.973   2.893  10.159  0.0771  0.0999  0.6196
  559MOL0     C73716   2.067   2.998  10.216  0.6860  0.0405  0.1508
  559MOL0     C73717   2.062   3.048  10.362  0.4717  0.5830  0.0482
  559MOL0     C73718   2.177   3.148  10.368 -0.2312 -0.0865 -0.5550
  559MOL0     C73719   2.160   3.282  10.297  0.4121 -0.1978 -0.4643
  559MOL0     C73720   2.167   3.389  10.243  0.1658 -0.7550 -0.1526
  559MOL0     C73721   1.620   2.867  10.184 -0.3538  0.3195 -1.4249
  559MOL0     C73722   1.516   2.790  10.149  0.3137  0.9911 -0.1557
  559MOL0     H73723   1.076   2.750  10.057 -3.1245 -1.9409  4.0988
  559MOL0     H73724   0.873   2.684   9.948 -1.5656 -2.0875  0.7743
  559MOL0     H73725   0.813   2.644   9.697  1.0436 -1.1442 -1.2071
  559MOL0     H73726   0.694   2.606   9.816 -0.8873 -0.1741 -0.5668
  559MOL0     H73727   0.729   2.476   9.551  0.5055  2.5155 -0.0828
  559MOL0     H73728   0.622   2.601   9.577  3.4370  2.7861 -0.2232
  559MOL0     H73729   0.627   2.320   9.696  0.5540 -0.7783 -1.5832
  559MOL0     H73730   0.513   2.365   9.576  3.2143  0.0802 -1.1885
  559MOL0     H73731   0.495   2.518   9.843 -1.1108 -2.1957  2.3657
  559MOL0     H73732   0.388   2.503   9.707  0.0235  1.2386  1.5404
  559MOL0     H73733   0.307   2.369   9.907  1.2081 -0.1230  3.8236
  559MOL0     H73734   0.451   2.274   9.906 -0.4708 -2.1195 -1.2707
  559MOL0     H73735   0.250   2.166   9.791  0.9300  0.1742 -0.3226
  559MOL0     H73736   0.395   2.159   9.698  0.3486 -0.6137 -0.2625
  559MOL0     H73737   0.151   2.337   9.676  1.4404 -0.0184  0.0448
  559MOL0     H73738   0.292   2.371   9.586  1.6384  2.5238  3.4476
  559MOL0     H73739   0.156   2.101   9.565 -0.6178 -0.6570 -1.0320
  559MOL0     H73740   0.285   2.158   9.463 -0.6723 -1.6203  0.5686
  559MOL0     H73741  -0.021   2.084   9.370 -1.9676  1.3589  2.9876
  559MOL0     H73742  -0.138   2.145   9.092 -1.3370  1.4843 -4.7189
  559MOL0     H73743  -0.145   2.323   9.087 -0.8393 -0.2279  0.3599
  559MOL0     H73744  -0.353   2.257   9.131  1.4656 -1.9305 -1.0580
  559MOL0     H73745  -0.292   2.331   9.280  0.0466 -0.8717  0.1871
  559MOL0     H73746  -0.296   2.031   9.274  1.5024  1.3148 -2.4901
  559MOL0     H73747  -0.267   2.143   9.408 -1.7609  4.1671  0.9985
  559MOL0     H73748  -0.497   2.247   9.372  3.0127  0.6517  0.1938
  559MOL0     H73749  -0.491   2.079   9.425  1.8548  1.9485  0.4841
  559MOL0     H73750  -0.691   1.894   9.293 -1.8215 -1.3552 -1.5653
  559MOL0     H73751  -0.926   1.893   9.343  0.1784  0.4673  2.4581
  559MOL0     H73752  -1.233   1.928   9.670  1.3189  1.5299 -1.4242
  559MOL0     H73753  -1.433   1.835   9.713  3.7388 -0.6274  0.0443
  559MOL0     H73754  -1.669   1.764   9.738 -2.6727  0.4641 -0.4323
  559MOL0     H73755  -1.551   1.673   9.639  0.8769  2.0757  3.1579
  559MOL0     H73756  -1.712   1.530   9.670  3.5253  2.9801  2.1016
  559MOL0     H73757  -1.744   1.590   9.501 -3.6027 -1.1822  0.2381
  559MOL0     H73758  -1.920   1.722   9.561 -2.1726 -2.0163 -0.2938
  559MOL0     H73759  -1.904   1.690   9.736 -1.3746  3.9680 -0.3034
  559MOL0     H73760  -1.979   1.472   9.543  2.7751 -2.2536  1.0824
  559MOL0     H73761  -1.963   1.444   9.717 -3.1899 -1.8748 -0.6329
  559MOL0     H73762  -2.157   1.632   9.583  2.5770 -0.6581 -0.6916
  559MOL0     H73763  -2.130   1.616   9.757  0.4147  3.2292 -0.9887
  559MOL0     H73764  -2.202   1.395   9.746 -1.0253 -0.5578 -0.1979
  559MOL0     H73765  -2.239   1.388   9.573 -1.2473 -2.1803  1.5996
  559MOL0     H73766  -2.394   1.564   9.766 -0.4713 -0.7133  0.5826
  559MOL0     H73767  -2.401   1.566   9.584 -0.2419  3.1106  1.8452
  559MOL0     H73768  -2.450   1.290   9.715 -0.9453 -0.6547 -0.1407
  559MOL0     H73769  -2.517   1.361   9.577 -1.5864 -1.3903  0.7827
  559MOL0     H73770  -1.573   1.939   9.321  0.8239 -2.7497 -1.4242
  559MOL0     H73771  -1.357   2.037   9.277  0.8939 -2.6951 -1.5818
  559MOL0     H73772  -0.942   2.320   9.241 -1.1403 -0.8779  0.7826
  559MOL0     H73773  -0.702   2.314   9.200 -0.7183  1.3795  2.5677
  559MOL0     H73774   1.084   2.350   9.770 -0.0108 -0.9260  1.7619
  559MOL0     H73775   1.275   2.404   9.897 -0.4684 -0.6600 -0.4917
  559MOL0     H73776   1.697   2.505  10.056  1.7593  0.8656  1.2488
  559MOL0     H73777   1.869   2.652  10.111 -0.2668 -2.1376  2.5898
  559MOL0     H73778   1.982   2.891  10.050  1.4469  1.3235  0.6761
  559MOL0     H73779   2.008   2.793  10.187 -1.4460 -0.7296 -0.3032
  559MOL0     H73780   2.167   2.955  10.203  1.3689  1.9900 -1.5899
  559MOL0     H73781   2.059   3.083  10.148  2.8845 -1.2042 -1.8306
  559MOL0     H73782   2.075   2.963  10.430 -1.6414  1.6418  1.8917
  559MOL0     H73783   1.966   3.096  10.384 -1.2229 -2.3899 -0.3003
  559MOL0     H73784   2.205   3.170  10.472 -0.8973  0.8952 -0.5637
  559MOL0     H73785   2.264   3.099  10.323 -0.2094 -0.2969 -0.2845
  559MOL0     H73786   2.172   3.486  10.197  1.1638 -1.4782 -1.6554
  559MOL0     H73787   1.599   2.967  10.220 -3.9270 -0.3077 -1.4264
  559MOL0     H73788   1.418   2.832  10.167  0.4540  1.7570 -1.1529
  560MOL0     O73789   7.438  10.504   8.290 -0.2845 -0.3020  0.3130
  560MOL0     C73790   7.462  10.431   8.193  0.6722  0.6180 -0.7245
  560MOL0     O73791   7.375  10.339   8.137 -0.5701  0.4041  0.3785
  560MOL0     C73792   7.247  10.326   8.186  0.4018 -0.9044 -0.8525
  560MOL0     C73793   7.147  10.418   8.140 -0.1689 -0.4604 -0.0430
  560MOL0     C73794   7.012  10.416   8.181  0.5255  0.1850  0.6004
  560MOL0     C73795   6.978  10.318   8.271  0.7519 -0.1495 -0.3211
  560MOL0     O73796   6.845  10.322   8.294 -0.5494  0.4038  0.7694
  560MOL0     C73797   6.778  10.215   8.354  0.5727  0.1948  0.3356
  560MOL0     C73798   6.619  10.237   8.344 -0.4851 -0.1543  0.4326
  560MOL0     C73799   6.570  10.215   8.201 -0.1871 -0.3505 -0.2585
  560MOL0     C73800   6.426  10.262   8.188  0.2450 -0.0797  0.4008
  560MOL0     C73801   6.351  10.189   8.064  0.0149  0.5747 -0.0075
  560MOL0     C73802   6.209  10.229   8.043 -0.2534 -0.0876  0.3867
  560MOL0     C73803   6.110  10.176   8.154 -0.1155  0.2576 -0.1587
  560MOL0     C73804   5.958  10.204   8.131 -0.3103 -0.3594 -0.7650
  560MOL0     N73805   5.891  10.160   8.251  0.1474 -0.5571  0.4385
  560MOL0     C73806   5.831  10.039   8.267  0.1101 -0.1017 -0.5704
  560MOL0     C73807   5.773  10.043   8.392 -0.2472 -0.0563 -0.5219
  560MOL0     C73808   5.689   9.934   8.450  0.6440  0.7071 -0.6725
  560MOL0     C73809   5.535   9.962   8.437 -0.0863  0.5883  0.6410
  560MOL0     C73810   5.469   9.844   8.501 -0.1366  0.0743 -0.5108
  560MOL0     C73811   5.318   9.858   8.473 -0.1564 -0.1638 -0.6089
  560MOL0     O73812   5.254   9.735   8.506  0.5555 -0.4306  0.3011
  560MOL0     C73813   5.127   9.725   8.540 -0.6705  0.5411 -0.1252
  560MOL0     C73814   5.082   9.589   8.548  0.4645 -0.2516  1.2551
  560MOL0     C73815   4.946   9.562   8.545  0.0777  0.3584 -0.2141
  560MOL0     C73816   4.848   9.670   8.550 -0.4790  0.5650  0.1131
  560MOL0     C73817   4.700   9.643   8.560 -0.6061 -0.5188  0.4065
  560MOL0     O73818   4.611   9.750   8.527 -0.2752  0.2176 -1.3213
  560MOL0     C73819   4.475   9.742   8.523  0.2120 -0.0060  0.4220
  560MOL0     C73820   4.406   9.865   8.524  0.5101 -0.2618  0.1185
  560MOL0     C73821   4.270   9.860   8.517  0.3960  1.2224 -0.1518
  560MOL0     C73822   4.202   9.739   8.506 -0.0397  0.2105  0.1586
  560MOL0     O73823   4.067   9.746   8.483 -0.3342  0.1799 -0.3133
  560MOL0     C73824   3.975   9.642   8.514 -0.4136 -0.0450 -0.2336
  560MOL0     C73825   3.929   9.585   8.373  0.3346  0.2491  0.2082
  560MOL0     C73826   3.835   9.671   8.291  0.0150  0.2451 -0.4110
  560MOL0     C73827   3.735   9.759   8.373 -0.2255  0.4061 -0.4104
  560MOL0     C73828   3.625   9.831   8.291 -0.1985  0.0758  0.4725
  560MOL0     C73829   3.546   9.913   8.391 -0.7393  0.5990  1.0896
  560MOL0     C73830   3.469  10.025   8.333 -0.9407 -0.5724  0.3800
  560MOL0     C73831   3.397  10.093   8.444  0.0836 -0.1524 -0.4592
  560MOL0    Cl73832   3.251  10.001   8.493 -0.0904 -0.2367  0.0270
  560MOL0     C73833   4.271   9.622   8.506  0.2412 -0.1939 -0.9867
  560MOL0     C73834   4.409   9.617   8.520 -0.6937  0.3053 -0.5734
  560MOL0     O73835   4.671   9.534   8.611  1.0241 -0.0533 -0.1078
  560MOL0     C73836   4.896   9.799   8.560 -0.6339 -0.4925 -0.8766
  560MOL0     C73837   5.032   9.827   8.555 -0.0920  0.1657  0.0061
  560MOL0     N73838   5.795  10.166   8.451 -0.6396  0.3020  0.0953
  560MOL0     N73839   5.864  10.231   8.368 -0.1854  0.2859  0.9190
  560MOL0     C73840   7.077  10.232   8.321 -0.3283  0.7363  0.5239
  560MOL0     C73841   7.210  10.229   8.280  0.2585  0.0684  0.2899
  560MOL0     C73842   7.592  10.434   8.129  0.5324  0.9836  0.2205
  560MOL0     C73843   7.629  10.356   8.014  0.0899 -0.9102  0.0312
  560MOL0     C73844   7.757  10.362   7.960  0.0249  0.5327  0.2604
  560MOL0     C73845   7.849  10.450   8.018 -0.2152  0.9931  0.7176
  560MOL0     O73846   7.970  10.463   7.947  0.8634  0.5649 -0.7039
  560MOL0     C73847   8.084  10.545   8.003 -0.7233  0.0526 -0.7307
  560MOL0     C73848   8.154  10.475   8.115 -0.2697 -0.5174 -0.0564
  560MOL0     C73849   8.208  10.344   8.065 -0.0322  0.0863 -0.0605
  560MOL0     C73850   8.301  10.274   8.167  0.3294 -0.1433 -0.3922
  560MOL0     C73851   8.212  10.193   8.255  0.5681  0.7156  0.7541
  560MOL0     C73852   8.144  10.117   8.333 -0.4154 -0.6598  0.2909
  560MOL0     C73853   7.820  10.516   8.134 -0.2116  0.4288  0.1159
  560MOL0     C73854   7.698  10.504   8.188  0.9675  0.1072  0.6073
  560MOL0     H73855   7.189  10.498   8.079  0.8750 -1.5278 -0.7747
  560MOL0     H73856   6.933  10.477   8.140 -0.4660  0.1462  2.3913
  560MOL0     H73857   6.807  10.207   8.459  0.1590 -1.2420  0.3692
  560MOL0     H73858   6.793  10.122   8.298 -2.0704 -1.8030  2.6647
  560MOL0     H73859   6.581  10.331   8.383 -1.5277 -0.0834 -0.6989
  560MOL0     H73860   6.580  10.158   8.409 -0.7168 -0.9666 -0.6641
  560MOL0     H73861   6.565  10.108   8.178 -4.7169 -0.5496  0.7441
  560MOL0     H73862   6.638  10.245   8.120  1.3435 -2.1742  0.2985
  560MOL0     H73863   6.384  10.234   8.284  1.7780 -1.1483  0.8007
  560MOL0     H73864   6.431  10.370   8.174 -0.7190 -0.3274 -2.7850
  560MOL0     H73865   6.365  10.081   8.075 -0.3544  0.7367  2.8905
  560MOL0     H73866   6.408  10.210   7.973  1.1282  0.4981  0.6489
  560MOL0     H73867   6.176  10.172   7.955  1.7241  0.5021 -0.7859
  560MOL0     H73868   6.189  10.336   8.036 -0.9423 -0.0817  2.0421
  560MOL0     H73869   6.133  10.070   8.147  2.2803  0.8198 -2.8762
  560MOL0     H73870   6.150  10.215   8.249  0.4488 -1.8147  0.4942
  560MOL0     H73871   5.929  10.132   8.054 -0.6510 -0.2339 -0.7535
  560MOL0     H73872   5.930  10.306   8.104 -2.0277 -1.4536 -3.4997
  560MOL0     H73873   5.829   9.951   8.203 -0.5164  0.5108 -1.4143
  560MOL0     H73874   5.708   9.915   8.556  0.9772  1.1814 -0.6460
  560MOL0     H73875   5.711   9.842   8.395  0.0958  0.6002 -0.7188
  560MOL0     H73876   5.514   9.962   8.330 -2.0560  1.4089  0.9917
  560MOL0     H73877   5.513  10.053   8.493  0.7534  0.7339  0.7512
  560MOL0     H73878   5.512   9.747   8.475  3.2772  0.6963  2.0825
  560MOL0     H73879   5.495   9.856   8.607  2.5603 -1.3418 -0.9257
  560MOL0     H73880   5.310   9.877   8.365  1.1923  0.5624 -0.5979
  560MOL0     H73881   5.284   9.950   8.523  3.4116  1.0454 -0.1599
  560MOL0     H73882   5.147   9.504   8.531  1.1385  0.4037  0.4167
  560MOL0     H73883   4.925   9.456   8.550 -0.1054  0.2868 -1.9373
  560MOL0     H73884   4.458   9.960   8.535 -1.2762  1.2256 -2.9941
  560MOL0     H73885   4.220   9.956   8.525 -2.1868  0.0538 -1.3433
  560MOL0     H73886   3.894   9.681   8.577 -1.1554 -2.8141  0.6471
  560MOL0     H73887   4.019   9.556   8.564 -1.4168 -0.4156  0.0235
  560MOL0     H73888   3.879   9.492   8.401  0.1586  0.5198  0.8000
  560MOL0     H73889   4.018   9.555   8.316 -0.8563 -1.1333 -1.0107
  560MOL0     H73890   3.770   9.604   8.235  1.7898 -1.8260 -0.1318
  560MOL0     H73891   3.896   9.734   8.225 -1.5679  3.0452  0.6289
  560MOL0     H73892   3.691   9.707   8.458 -0.4208  0.6258 -0.3762
  560MOL0     H73893   3.803   9.832   8.416  1.0265 -0.3491 -1.0668
  560MOL0     H73894   3.559   9.755   8.248 -1.7964  1.4609  0.4016
  560MOL0     H73895   3.662   9.892   8.207  0.7416  0.7725  1.3709
  560MOL0     H73896   3.612   9.954   8.467  0.5223 -0.2928  0.5199
  560MOL0     H73897   3.472   9.840   8.426 -1.0449  0.5046  0.2805
  560MOL0     H73898   3.535  10.098   8.286 -1.1737 -0.1058  0.7747
  560MOL0     H73899   3.403   9.986   8.255  1.7070  0.1715 -2.4271
  560MOL0     H73900   3.374  10.197   8.420  1.4007  0.5654  1.2369
  560MOL0     H73901   3.472  10.091   8.524  1.6510 -1.1464 -1.8817
  560MOL0     H73902   4.224   9.525   8.493 -2.6134  0.6993  1.6385
  560MOL0     H73903   4.458   9.520   8.517  0.4212  0.7526  1.3016
  560MOL0     H73904   4.820   9.876   8.560 -1.6246 -1.4263  0.0941
  560MOL0     H73905   5.064   9.930   8.554 -2.1890  0.8724 -1.9075
  560MOL0     H73906   7.055  10.156   8.395 -1.8181  0.2417 -0.3918
  560MOL0     H73907   7.280  10.154   8.316 -1.4589 -1.5317  0.4269
  560MOL0     H73908   7.550  10.299   7.965  1.2327 -2.6883  0.1394
  560MOL0     H73909   7.769  10.316   7.862 -1.4096 -3.6560  1.8379
  560MOL0     H73910   8.046  10.642   8.036  0.2722  0.1102  0.2983
  560MOL0     H73911   8.160  10.565   7.927  2.0348 -2.6580  1.0499
  560MOL0     H73912   8.235  10.545   8.138 -2.2970  1.4538  1.5978
  560MOL0     H73913   8.090  10.452   8.200 -0.3119 -2.0404 -0.4709
  560MOL0     H73914   8.269  10.379   7.981  0.8650  2.6278  1.5380
  560MOL0     H73915   8.135  10.272   8.028  1.8024 -1.8875  0.0249
  560MOL0     H73916   8.373  10.205   8.122  1.1874 -0.4383  1.3317
  560MOL0     H73917   8.356  10.343   8.231  1.3288 -1.9073  0.7602
  560MOL0     H73918   8.092  10.058   8.406 -1.0549  0.0280  0.3931
  560MOL0     H73919   7.893  10.583   8.179  0.2331 -1.5149  2.5440
  560MOL0     H73920   7.679  10.552   8.284 -3.1758  0.1519 -0.0541
  561MOL0     O73921   8.155   7.495   6.969  0.1936  0.5986 -0.1939
  561MOL0     C73922   8.082   7.437   6.897  0.2877  1.5962  0.0708
  561MOL0     O73923   8.115   7.326   6.824 -0.2821 -0.3123 -1.1689
  561MOL0     C73924   8.245   7.298   6.795 -0.5152 -0.1739 -0.4989
  561MOL0     C73925   8.361   7.354   6.857 -0.9249  0.4126  0.2079
  561MOL0     C73926   8.494   7.333   6.812  0.2942 -0.1445  0.6013
  561MOL0     C73927   8.521   7.240   6.716  0.5087  0.2089  1.1230
  561MOL0     O73928   8.640   7.199   6.677 -0.1219  1.4171 -0.3618
  561MOL0     C73929   8.752   7.281   6.705  0.4235  0.2221 -0.0907
  561MOL0     C73930   8.867   7.243   6.617  1.1773 -0.2328 -0.7896
  561MOL0     C73931   8.927   7.105   6.652 -0.1891  1.1157 -0.1497
  561MOL0     C73932   9.046   7.060   6.568 -0.1573  0.1943 -1.0293
  561MOL0     C73933   9.032   6.907   6.557 -0.3509  0.1645  0.0413
  561MOL0     C73934   9.153   6.853   6.471  0.4279 -0.3030 -0.0081
  561MOL0     C73935   9.297   6.850   6.533  0.0521 -0.2340  0.3565
  561MOL0     C73936   9.387   6.766   6.442  0.7238 -0.2979 -0.3541
  561MOL0     N73937   9.341   6.618   6.447 -1.1858 -0.3280  0.0513
  561MOL0     C73938   9.312   6.550   6.334 -0.1101 -0.0496 -0.4855
  561MOL0     C73939   9.332   6.416   6.359  0.2527  0.6910  0.4667
  561MOL0     C73940   9.289   6.292   6.271 -0.8703 -0.6850 -0.8046
  561MOL0     C73941   9.181   6.211   6.346  0.0906  0.0785 -0.1429
  561MOL0     C73942   9.158   6.084   6.270 -0.8159  0.6731 -0.2507
  561MOL0     C73943   9.022   6.026   6.298 -0.2001 -0.4755  0.4177
  561MOL0     O73944   8.926   6.100   6.230  0.2247  0.2075 -0.2197
  561MOL0     C73945   8.792   6.077   6.261 -0.1402  0.9135  0.0044
  561MOL0     C73946   8.695   6.183   6.249  1.1777 -0.4866 -0.1796
  561MOL0     C73947   8.564   6.144   6.283 -0.2451  0.6724  0.2282
  561MOL0     C73948   8.528   6.011   6.314  0.3117 -0.0134  0.1959
  561MOL0     C73949   8.380   5.984   6.327 -0.8410 -0.3420  0.2273
  561MOL0     O73950   8.299   6.075   6.280 -0.8904  0.1159  0.9698
  561MOL0     C73951   8.162   6.062   6.302 -0.0266 -0.4250 -0.3393
  561MOL0     C73952   8.074   6.004   6.213  0.1849  0.0948 -0.1587
  561MOL0     C73953   7.937   5.977   6.244 -0.4979 -0.6762  0.1597
  561MOL0     C73954   7.880   6.025   6.361  0.7119  0.3015  0.1940
  561MOL0     O73955   7.751   6.002   6.381 -1.0110  0.2929 -0.0120
  561MOL0     C73956   7.666   6.079   6.470  0.3257  0.6646  0.4137
  561MOL0     C73957   7.532   6.019   6.461  0.6307  0.7665 -0.2821
  561MOL0     C73958   7.484   6.002   6.315 -0.3388  0.0897 -0.3619
  561MOL0     C73959   7.494   6.123   6.217 -0.2861 -0.0903  0.5623
  561MOL0     C73960   7.403   6.102   6.097  0.3347  0.3035  0.1795
  561MOL0     C73961   7.394   6.238   6.022  0.1615 -0.0454  0.0517
  561MOL0     C73962   7.319   6.229   5.885  0.4366 -0.2500 -0.2166
  561MOL0     C73963   7.175   6.198   5.906  0.5035  0.1689  0.2888
  561MOL0    Cl73964   7.076   6.235   5.761 -0.3457  0.0984 -0.5816
  561MOL0     C73965   7.965   6.077   6.455  0.3829  0.4204  0.3790
  561MOL0     C73966   8.102   6.094   6.435  0.7258  0.4204  0.1762
  561MOL0     O73967   8.346   5.876   6.387 -0.7931  0.0001  0.8575
  561MOL0     C73968   8.621   5.912   6.309 -0.9794 -0.0097 -0.2614
  561MOL0     C73969   8.756   5.947   6.289 -0.2694  0.3317 -0.2254
  561MOL0     N73970   9.367   6.398   6.490 -0.2305  0.1020  0.6700
  561MOL0     N73971   9.380   6.522   6.541  0.7779 -1.0265 -0.5355
  561MOL0     C73972   8.410   7.173   6.653 -0.4287  0.3132  0.7202
  561MOL0     C73973   8.279   7.207   6.693  0.1581  0.6264  1.6466
  561MOL0     C73974   7.936   7.468   6.896  0.4397 -0.4736  0.2411
  561MOL0     C73975   7.836   7.401   6.824 -0.3008 -0.2828  0.6843
  561MOL0     C73976   7.706   7.437   6.833 -0.0779 -0.1387  0.6210
  561MOL0     C73977   7.665   7.554   6.909 -0.3404  0.2032 -0.1866
  561MOL0     O73978   7.534   7.580   6.940  0.1591  0.3813  0.5866
  561MOL0     C73979   7.429   7.538   6.842 -0.7730 -0.5765  0.0997
  561MOL0     C73980   7.379   7.391   6.850 -0.1524 -0.5446 -0.3135
  561MOL0     C73981   7.361   7.339   6.994 -0.0736 -0.0452 -0.4601
  561MOL0     C73982   7.275   7.424   7.085 -1.1723  0.4297  0.2182
  561MOL0     C73983   7.146   7.466   7.036 -0.7979  0.1973 -0.2138
  561MOL0     C73984   7.033   7.493   6.993  0.1538  0.8368 -0.2660
  561MOL0     C73985   7.763   7.630   6.974  0.0676  0.0314  0.3970
  561MOL0     C73986   7.894   7.578   6.975 -0.6001 -0.2767  0.4639
  561MOL0     H73987   8.364   7.434   6.931  1.5482  1.7785 -1.2339
  561MOL0     H73988   8.573   7.373   6.874 -0.1643  0.2439  0.9429
  561MOL0     H73989   8.786   7.284   6.808 -0.6877  2.4540  0.2755
  561MOL0     H73990   8.724   7.386   6.688 -1.0144 -0.3506 -1.6093
  561MOL0     H73991   8.938   7.326   6.619 -0.4932  1.2680  0.9445
  561MOL0     H73992   8.831   7.239   6.513  1.5805  1.5092 -1.0303
  561MOL0     H73993   8.844   7.035   6.637  1.0838 -0.5009  0.0864
  561MOL0     H73994   8.950   7.097   6.758 -1.6357  2.4426  0.3088
  561MOL0     H73995   9.040   7.106   6.469 -0.6859 -3.7980 -3.0325
  561MOL0     H73996   9.139   7.087   6.619 -1.5465  0.4213  1.5779
  561MOL0     H73997   8.938   6.889   6.504  1.4188 -1.5151 -2.7768
  561MOL0     H73998   9.013   6.858   6.653 -3.1636 -0.0967 -0.5568
  561MOL0     H73999   9.153   6.911   6.378 -2.3109  1.4127  0.9288
  561MOL0     H74000   9.121   6.752   6.441 -0.0830 -0.4972  1.1428
  561MOL0     H74001   9.340   6.950   6.527 -0.6837  0.1020  0.6035
  561MOL0     H74002   9.291   6.811   6.635 -0.9339 -2.4767 -0.4790
  561MOL0     H74003   9.493   6.771   6.472  1.4271 -1.1815 -2.4860
  561MOL0     H74004   9.385   6.800   6.338  0.9736 -1.1205 -0.6424
  561MOL0     H74005   9.274   6.591   6.241  0.5908  1.6721 -0.0503
  561MOL0     H74006   9.378   6.229   6.260  0.8455  1.3267  0.6438
  561MOL0     H74007   9.244   6.326   6.177 -0.1259  1.7215 -0.3737
  561MOL0     H74008   9.090   6.271   6.350 -0.6649 -1.0332 -0.2716
  561MOL0     H74009   9.203   6.183   6.449  0.7360 -1.5874 -0.7093
  561MOL0     H74010   9.174   6.095   6.162  1.6161  0.8408  0.0823
  561MOL0     H74011   9.237   6.024   6.316 -1.0894  1.7317  1.6706
  561MOL0     H74012   9.015   6.044   6.406 -1.6169 -0.4227  0.3335
  561MOL0     H74013   9.018   5.917   6.289  0.5587 -0.5280  0.6236
  561MOL0     H74014   8.738   6.276   6.216 -0.1969 -0.5620 -2.3897
  561MOL0     H74015   8.485   6.219   6.293 -0.2576  0.7724 -0.5778
  561MOL0     H74016   8.106   5.959   6.120 -2.2309 -0.7546 -0.6472
  561MOL0     H74017   7.871   5.928   6.173  1.5791 -6.1578  1.5854
  561MOL0     H74018   7.645   6.185   6.456 -0.6543  0.8319  2.6079
  561MOL0     H74019   7.695   6.063   6.575 -0.3752 -0.3451  0.4759
  561MOL0     H74020   7.464   6.093   6.504 -0.8784 -0.1205 -1.0600
  561MOL0     H74021   7.521   5.928   6.522 -2.7060  0.9958 -0.3211
  561MOL0     H74022   7.378   5.977   6.324 -0.4070 -0.0533 -1.4336
  561MOL0     H74023   7.545   5.922   6.272 -0.3367 -1.5995  2.5720
  561MOL0     H74024   7.469   6.215   6.271  0.9201  0.0262  0.9689
  561MOL0     H74025   7.595   6.129   6.176 -0.8429 -3.6062 -1.6759
  561MOL0     H74026   7.310   6.057   6.132 -0.8806  2.3555 -0.2597
  561MOL0     H74027   7.461   6.033   6.034 -1.3647 -1.1379  0.1206
  561MOL0     H74028   7.495   6.272   5.998  0.9577 -1.7645  0.7943
  561MOL0     H74029   7.353   6.314   6.089  0.4365 -0.3131  0.5268
  561MOL0     H74030   7.315   6.326   5.834 -0.0223 -0.4319 -0.5295
  561MOL0     H74031   7.371   6.159   5.819 -2.2982  0.1264 -3.0397
  561MOL0     H74032   7.136   6.273   5.976  1.9429  1.3380 -0.1230
  561MOL0     H74033   7.148   6.098   5.942 -0.6682  1.3778  3.0236
  561MOL0     H74034   7.917   6.109   6.547 -0.7895  0.2798 -0.1643
  561MOL0     H74035   8.171   6.141   6.504 -1.9174  0.9375  2.6304
  561MOL0     H74036   8.599   5.806   6.320  2.1383 -0.6363  1.2787
  561MOL0     H74037   8.819   5.860   6.272 -2.7186 -1.3192 -1.4338
  561MOL0     H74038   8.433   7.100   6.577 -0.4207  1.8637 -0.8275
  561MOL0     H74039   8.206   7.152   6.634  1.0587 -0.2074  1.2722
  561MOL0     H74040   7.872   7.322   6.759  2.8847  1.8899 -0.4452
  561MOL0     H74041   7.631   7.372   6.789 -0.7621  1.8711 -1.3872
  561MOL0     H74042   7.467   7.569   6.745  2.4073  4.5332  2.5581
  561MOL0     H74043   7.354   7.615   6.865 -1.0970 -1.0788  0.7649
  561MOL0     H74044   7.280   7.380   6.806 -0.4265 -0.1338  0.1904
  561MOL0     H74045   7.447   7.321   6.799  1.1448 -0.2010  0.8569
  561MOL0     H74046   7.456   7.330   7.049 -0.4033 -1.1043 -0.0361
  561MOL0     H74047   7.320   7.238   6.997 -0.3651  0.0774  2.1503
  561MOL0     H74048   7.255   7.375   7.181 -2.3163  0.5666  0.0635
  561MOL0     H74049   7.327   7.517   7.111  3.7687 -0.4064 -4.7130
  561MOL0     H74050   6.933   7.524   6.971 -0.2750 -0.9370 -0.9398
  561MOL0     H74051   7.737   7.726   7.018 -1.0400 -0.3483  0.6098
  561MOL0     H74052   7.962   7.643   7.028 -0.4390  1.2387 -1.4949
  562MOL0     O74053   6.896   4.345  10.328 -0.1627  0.2043 -0.0941
  562MOL0     C74054   6.870   4.300  10.215  0.5056  0.7192  0.1679
  562MOL0     O74055   6.946   4.312  10.101  0.3855  0.2488 -0.1635
  562MOL0     C74056   7.052   4.396  10.111 -0.7064  0.9123  0.1015
  562MOL0     C74057   7.029   4.526  10.155 -0.1194  0.0402 -0.0928
  562MOL0     C74058   7.126   4.621  10.167  0.1602  0.6568  0.3591
  562MOL0     C74059   7.254   4.580  10.134 -0.1179 -0.2165 -1.1917
  562MOL0     O74060   7.351   4.682  10.147 -0.2999 -0.1553 -0.0696
  562MOL0     C74061   7.476   4.643  10.202  0.1692  0.3475 -0.8652
  562MOL0     C74062   7.579   4.753  10.162 -0.2596 -0.0045 -0.2606
  562MOL0     C74063   7.711   4.697  10.119  0.2509  0.3377 -0.2850
  562MOL0     C74064   7.719   4.661   9.976  0.0195 -1.1718 -0.0749
  562MOL0     C74065   7.864   4.656   9.934 -0.3985 -0.5731 -0.0834
  562MOL0     C74066   7.901   4.603   9.788  0.4470  0.3787  0.9850
  562MOL0     C74067   7.876   4.457   9.768 -0.1120  0.0614  0.6711
  562MOL0     C74068   7.936   4.427   9.629  0.2526  0.2696  0.6478
  562MOL0     N74069   7.929   4.281   9.612  0.0644  0.0090  0.3464
  562MOL0     C74070   7.823   4.220   9.556 -1.1598 -1.0057  0.1075
  562MOL0     C74071   7.858   4.092   9.538  0.0824  0.4028  0.0323
  562MOL0     C74072   7.767   4.006   9.460 -0.7600 -0.3302 -0.6581
  562MOL0     C74073   7.824   3.859   9.477  0.0519  0.0599 -0.9945
  562MOL0     C74074   7.770   3.762   9.369  0.2897 -0.4415 -0.1361
  562MOL0     C74075   7.623   3.732   9.376  0.1660  0.1114  0.1966
  562MOL0     O74076   7.577   3.625   9.297 -0.6742 -0.3276  0.1630
  562MOL0     C74077   7.436   3.598   9.287  0.4589  1.0669 -0.2848
  562MOL0     C74078   7.342   3.674   9.349 -0.6859  0.0225  0.9242
  562MOL0     C74079   7.202   3.650   9.328  0.0845  0.0159 -0.3371
  562MOL0     C74080   7.155   3.529   9.261 -0.3993 -0.5198 -0.0255
  562MOL0     C74081   7.018   3.500   9.245  0.5313  0.9524 -0.2228
  562MOL0     O74082   6.995   3.408   9.145 -0.0732  0.2544  0.8114
  562MOL0     C74083   6.866   3.365   9.125  0.4002  0.2799 -1.3596
  562MOL0     C74084   6.778   3.334   9.224  0.1978  0.1536 -0.1062
  562MOL0     C74085   6.651   3.278   9.193  0.3840 -0.1373  0.0737
  562MOL0     C74086   6.617   3.244   9.055 -0.8358 -0.2263  0.3654
  562MOL0     O74087   6.502   3.189   9.012 -0.6854 -0.5665 -0.2898
  562MOL0     C74088   6.426   3.106   9.102 -0.1395  1.3085  0.7859
  562MOL0     C74089   6.343   2.986   9.045 -0.6054  0.3790  0.5996
  562MOL0     C74090   6.208   3.027   8.979  0.0714  0.0892 -0.5215
  562MOL0     C74091   6.131   2.905   8.915 -0.3043  0.4512 -0.2396
  562MOL0     C74092   5.995   2.930   8.848  0.2922  0.1265 -0.3983
  562MOL0     C74093   5.907   2.992   8.958  0.1130  0.1882  0.6606
  562MOL0     C74094   5.760   2.970   8.940 -0.8121  0.3550 -0.2351
  562MOL0     C74095   5.704   3.024   8.812 -0.2623 -0.5092  1.0261
  562MOL0    Cl74096   5.703   3.206   8.834 -0.1207 -0.0340 -0.0561
  562MOL0     C74097   6.716   3.265   8.963  0.3919  0.0951  0.9109
  562MOL0     C74098   6.835   3.331   8.999  0.9165 -0.1176 -0.6200
  562MOL0     O74099   6.935   3.563   9.302  0.1775 -0.5153 -0.2123
  562MOL0     C74100   7.261   3.446   9.205  0.0068  0.2542 -0.0473
  562MOL0     C74101   7.396   3.482   9.214 -0.0920 -0.0567 -0.6272
  562MOL0     N74102   7.983   4.075   9.587 -0.4207 -0.6363 -0.6092
  562MOL0     N74103   8.018   4.183   9.639  0.2568 -0.7234 -1.1518
  562MOL0     C74104   7.280   4.449  10.089 -0.8786 -0.1654  0.2198
  562MOL0     C74105   7.185   4.356  10.088 -0.2651  0.9123 -0.3714
  562MOL0     C74106   6.754   4.207  10.208  0.0365  0.2627 -0.2788
  562MOL0     C74107   6.683   4.178  10.331  0.0484 -1.2831 -0.3525
  562MOL0     C74108   6.564   4.102  10.325  0.1178  0.1821  0.5383
  562MOL0     C74109   6.502   4.084  10.197  0.0744 -0.0663 -0.8744
  562MOL0     O74110   6.377   4.038  10.174 -0.0881  0.0407 -0.3987
  562MOL0     C74111   6.282   4.040  10.289 -0.0166  0.5711  0.2351
  562MOL0     C74112   6.141   4.057  10.227  0.9293 -0.0841  0.4338
  562MOL0     C74113   6.026   4.019  10.315 -0.7670  0.8160 -0.4703
  562MOL0     C74114   5.900   3.996  10.240  1.4439  0.1110  0.7085
  562MOL0     C74115   5.800   3.979  10.343 -0.1395 -0.2725 -1.1357
  562MOL0     C74116   5.717   3.982  10.436 -0.7566  0.9117  0.6318
  562MOL0     C74117   6.577   4.105  10.079 -0.3360 -0.6497 -0.3673
  562MOL0     C74118   6.700   4.167  10.091 -0.7735  0.3580  0.0689
  562MOL0     H74119   6.928   4.545  10.190 -0.1824  0.5240 -0.5219
  562MOL0     H74120   7.087   4.722  10.179  4.0424  2.7635 -2.3062
  562MOL0     H74121   7.515   4.553  10.154 -2.7598 -1.4375 -0.1391
  562MOL0     H74122   7.461   4.634  10.310  0.2834  0.9386 -0.7980
  562MOL0     H74123   7.602   4.809  10.254  0.2891  1.8597 -1.4777
  562MOL0     H74124   7.535   4.814  10.082  1.3388 -1.1876 -2.1400
  562MOL0     H74125   7.739   4.607  10.175 -0.8339 -2.3195 -3.6507
  562MOL0     H74126   7.793   4.768  10.136  1.7972 -1.1097 -1.4068
  562MOL0     H74127   7.669   4.565   9.957 -2.5135  0.5709 -3.1435
  562MOL0     H74128   7.666   4.730   9.910  1.0752 -0.3696 -0.1112
  562MOL0     H74129   7.916   4.597  10.010 -1.5009 -0.2791  0.9402
  562MOL0     H74130   7.908   4.754   9.950 -1.0171 -0.3854  0.5331
  562MOL0     H74131   8.007   4.620   9.769 -0.0845  2.1600 -0.7124
  562MOL0     H74132   7.837   4.657   9.718  1.0426  0.1765  0.2846
  562MOL0     H74133   7.931   4.417   9.853  2.2060  2.2863  0.3555
  562MOL0     H74134   7.772   4.426   9.782 -0.4026  0.5362 -0.3053
  562MOL0     H74135   8.039   4.462   9.616  0.0316  0.5485 -0.4830
  562MOL0     H74136   7.882   4.479   9.548  1.1986  2.2760  1.2409
  562MOL0     H74137   7.735   4.274   9.523 -0.0247  1.8192  1.3653
  562MOL0     H74138   7.756   4.036   9.356 -0.4110 -0.9399 -0.8748
  562MOL0     H74139   7.669   4.007   9.508 -1.9521  1.6573 -2.9681
  562MOL0     H74140   7.797   3.811   9.571 -0.8321 -0.5809 -1.5552
  562MOL0     H74141   7.931   3.857   9.454 -0.2933 -1.2330 -2.7036
  562MOL0     H74142   7.795   3.796   9.268 -0.4557 -2.8555 -1.2068
  562MOL0     H74143   7.809   3.660   9.385  1.8463  0.6168  4.0581
  562MOL0     H74144   7.572   3.825   9.348 -1.4485 -0.7368  0.1894
  562MOL0     H74145   7.604   3.704   9.480 -0.4764 -1.6807 -0.3639
  562MOL0     H74146   7.360   3.765   9.405 -2.4549 -1.3143  3.8585
  562MOL0     H74147   7.134   3.728   9.360  0.8081 -0.0910  1.6707
  562MOL0     H74148   6.806   3.351   9.327  0.5571  1.9126 -0.4605
  562MOL0     H74149   6.590   3.237   9.273  1.1551 -2.3846 -0.4247
  562MOL0     H74150   6.361   3.171   9.161  0.3786  1.4740  1.1796
  562MOL0     H74151   6.502   3.064   9.169 -0.9183 -1.6276  0.0109
  562MOL0     H74152   6.322   2.908   9.118 -1.3891 -0.7983 -0.8367
  562MOL0     H74153   6.410   2.939   8.973 -1.3419  0.8321 -0.3988
  562MOL0     H74154   6.221   3.102   8.900 -1.0520 -0.4147 -1.2129
  562MOL0     H74155   6.146   3.078   9.052  1.5731 -0.2900  1.0973
  562MOL0     H74156   6.193   2.848   8.845 -0.6298 -0.3899  0.1439
  562MOL0     H74157   6.098   2.838   8.994 -3.1757 -1.1788 -2.6223
  562MOL0     H74158   5.947   2.837   8.818 -0.7642  1.3420 -2.7753
  562MOL0     H74159   6.005   3.002   8.766 -3.3972 -0.1576 -1.2685
  562MOL0     H74160   5.934   3.096   8.979  0.2521  0.5128 -0.9482
  562MOL0     H74161   5.916   2.933   9.050 -1.4458 -0.6938  0.2850
  562MOL0     H74162   5.745   2.862   8.933  0.5772  0.1672 -0.6176
  562MOL0     H74163   5.696   2.984   9.028 -2.8763 -0.5050 -1.5295
  562MOL0     H74164   5.608   2.985   8.777 -0.6549  2.5551 -1.8522
  562MOL0     H74165   5.776   3.007   8.731  0.9581 -4.4671  2.6796
  562MOL0     H74166   6.696   3.255   8.857 -2.8764  2.5180  1.1462
  562MOL0     H74167   6.897   3.361   8.916  0.9877  1.6929  0.0297
  562MOL0     H74168   7.235   3.361   9.142  0.7831 -0.6128  0.7734
  562MOL0     H74169   7.469   3.422   9.162  1.6827  1.0356  0.5054
  562MOL0     H74170   7.381   4.423  10.061 -0.7134 -1.0988  1.6206
  562MOL0     H74171   7.220   4.254  10.077 -1.1533  0.2896  1.9936
  562MOL0     H74172   6.721   4.209  10.428 -0.9162 -1.9493  0.2495
  562MOL0     H74173   6.509   4.094  10.418  0.1995 -0.1197  0.5602
  562MOL0     H74174   6.309   4.115  10.363  0.9950 -0.6216  1.1287
  562MOL0     H74175   6.270   3.945  10.343  0.3472 -0.4621 -1.4289
  562MOL0     H74176   6.138   4.162  10.198 -0.2545 -0.4177 -0.7805
  562MOL0     H74177   6.138   4.006  10.129  0.1725  1.7148 -0.5235
  562MOL0     H74178   6.007   4.097  10.389 -2.1998 -1.7571  2.0957
  562MOL0     H74179   6.052   3.925  10.364 -1.8519 -0.6593 -2.5481
  562MOL0     H74180   5.870   4.083  10.181 -2.2561  0.2250  2.4724
  562MOL0     H74181   5.909   3.920  10.162 -0.4441  1.0140 -0.4794
  562MOL0     H74182   5.656   3.978  10.524  2.0152 -0.3185  2.6059
  562MOL0     H74183   6.548   4.080   9.978 -2.0873  1.3070 -0.4034
  562MOL0     H74184   6.738   4.214  10.001 -1.4436  2.3571  0.7859
  563MOL0     O74185   4.885   7.257   0.546 -0.1844 -0.3074  0.4488
  563MOL0     C74186   4.922   7.338   0.464  0.0183 -0.2766  0.4808
  563MOL0     O74187   4.841   7.392   0.357 -0.0212  0.4320 -0.4191
  563MOL0     C74188   4.706   7.397   0.378  0.4254  0.3421 -0.9199
  563MOL0     C74189   4.644   7.417   0.509 -0.0310  0.4262  0.2539
  563MOL0     C74190   4.500   7.420   0.508 -0.5245 -0.3657 -0.2584
  563MOL0     C74191   4.429   7.420   0.394 -0.2372  0.4924 -0.1448
  563MOL0     O74192   4.291   7.434   0.404  0.0541 -0.2439 -0.2491
  563MOL0     C74193   4.222   7.487   0.295 -0.4385  0.9734  1.2598
  563MOL0     C74194   4.079   7.489   0.348 -0.0901  0.1580  0.5704
  563MOL0     C74195   3.973   7.548   0.257  0.2150  0.3814 -0.6764
  563MOL0     C74196   3.843   7.572   0.328 -0.2353 -0.1525 -0.4894
  563MOL0     C74197   3.736   7.632   0.239  0.0427  0.7214 -0.5699
  563MOL0     C74198   3.599   7.627   0.306 -0.4941  0.2844  0.2140
  563MOL0     C74199   3.493   7.681   0.208  0.1651 -0.1729  0.0718
  563MOL0     C74200   3.438   7.567   0.117 -0.7032 -0.5864  0.9378
  563MOL0     N74201   3.342   7.619   0.020 -0.2633 -0.6039 -0.1851
  563MOL0     C74202   3.211   7.664   0.051 -0.2442  0.5811  0.3829
  563MOL0     C74203   3.150   7.685  -0.072 -0.2854  0.0787 -0.1663
  563MOL0     C74204   3.002   7.700  -0.094  0.3395 -0.1175 -0.7981
  563MOL0     C74205   2.911   7.632   0.007  0.4349 -0.1622 -0.9289
  563MOL0     C74206   2.769   7.621  -0.024 -0.3617  1.2703  0.5927
  563MOL0     C74207   2.716   7.763  -0.042  0.4659  0.6140  0.6664
  563MOL0     O74208   2.574   7.780  -0.038 -0.0166 -0.4221  0.6259
  563MOL0     C74209   2.496   7.750  -0.146  0.3296  0.2016 -0.2798
  563MOL0     C74210   2.355   7.752  -0.137  0.9529  0.6395  0.8726
  563MOL0     C74211   2.267   7.712  -0.243 -0.4079 -0.2368  0.3545
  563MOL0     C74212   2.319   7.674  -0.372  0.0945 -0.1662 -0.5623
  563MOL0     C74213   2.228   7.619  -0.475 -0.5088 -0.0452 -1.4950
  563MOL0     O74214   2.094   7.618  -0.431  0.0496  0.2704 -0.8957
  563MOL0     C74215   2.000   7.618  -0.529  0.0341 -0.1778 -0.0437
  563MOL0     C74216   1.927   7.734  -0.565  1.1627 -0.4690  0.1267
  563MOL0     C74217   1.810   7.732  -0.652  0.4985  0.8262  0.0798
  563MOL0     C74218   1.777   7.603  -0.706 -0.1784  0.2104  0.4690
  563MOL0     O74219   1.690   7.571  -0.804 -0.5421  0.2293  1.0082
  563MOL0     C74220   1.597   7.669  -0.832 -1.0022 -0.0611  0.3023
  563MOL0     C74221   1.509   7.617  -0.946  0.6035  0.7182 -0.0223
  563MOL0     C74222   1.455   7.470  -0.919 -0.4615  0.0237 -0.1922
  563MOL0     C74223   1.339   7.431  -1.012  0.1009 -1.1509  0.1181
  563MOL0     C74224   1.282   7.298  -0.980  0.1838  0.4252 -0.0675
  563MOL0     C74225   1.195   7.259  -1.088 -0.2410 -0.2249  0.0101
  563MOL0     C74226   1.109   7.134  -1.066  0.8857  0.1719 -0.3038
  563MOL0     C74227   1.023   7.106  -1.189  0.0127 -1.1384  0.1266
  563MOL0    Cl74228   0.869   7.022  -1.149 -0.3440 -0.0258  0.3959
  563MOL0     C74229   1.857   7.496  -0.672 -0.5078  0.4456  0.7344
  563MOL0     C74230   1.966   7.497  -0.588  0.2727 -0.0140 -0.4350
  563MOL0     O74231   2.270   7.597  -0.588 -0.7712  0.4154  0.7546
  563MOL0     C74232   2.454   7.678  -0.379  0.4710  0.1929 -0.1227
  563MOL0     C74233   2.543   7.719  -0.274  0.2399  0.5321 -1.0240
  563MOL0     N74234   3.249   7.676  -0.174  0.7797  0.6213 -0.0561
  563MOL0     N74235   3.354   7.644  -0.110 -0.9100  0.3487 -0.2022
  563MOL0     C74236   4.492   7.424   0.270  0.5078  0.4693  1.0781
  563MOL0     C74237   4.631   7.415   0.261  0.0143 -0.1713  0.4300
  563MOL0     C74238   5.066   7.363   0.463  0.0654  0.6521 -0.2799
  563MOL0     C74239   5.146   7.307   0.566  0.5927 -0.3685 -0.0268
  563MOL0     C74240   5.279   7.320   0.571 -0.0107  0.3525  0.3448
  563MOL0     C74241   5.351   7.368   0.461  1.2143  1.0344  0.3888
  563MOL0     O74242   5.483   7.364   0.450 -0.0318 -0.2374  0.0225
  563MOL0     C74243   5.567   7.398   0.573 -0.8338  0.0831  0.0850
  563MOL0     C74244   5.719   7.396   0.528  0.3209  0.8108  0.3932
  563MOL0     C74245   5.808   7.444   0.648  0.2741 -0.0382 -0.6829
  563MOL0     C74246   5.959   7.417   0.634 -0.4869 -0.7430  0.5078
  563MOL0     C74247   6.009   7.478   0.507 -0.5762  0.1401 -0.8595
  563MOL0     C74248   6.047   7.522   0.400 -1.4971 -0.0632  0.1380
  563MOL0     C74249   5.279   7.416   0.355  0.2828 -0.2200  0.3248
  563MOL0     C74250   5.141   7.425   0.358 -0.2950 -0.2257 -0.2160
  563MOL0     H74251   4.709   7.439   0.592  0.5070 -0.4785  0.0779
  563MOL0     H74252   4.443   7.403   0.599 -2.4709 -4.0688 -1.9562
  563MOL0     H74253   4.230   7.428   0.204  0.2836 -0.1735  2.0469
  563MOL0     H74254   4.260   7.589   0.278 -2.0956  1.4466  0.2182
  563MOL0     H74255   4.085   7.536   0.446  0.1130 -0.8903  1.0715
  563MOL0     H74256   4.063   7.383   0.370  3.6023 -0.1339  2.6818
  563MOL0     H74257   3.956   7.488   0.168 -0.7917  0.7549 -0.7549
  563MOL0     H74258   4.009   7.646   0.224 -1.5253  0.8541 -1.2516
  563MOL0     H74259   3.801   7.474   0.355  0.2198  0.3893  2.5801
  563MOL0     H74260   3.855   7.634   0.417  2.2230 -3.5833  1.8368
  563MOL0     H74261   3.730   7.569   0.149  1.7472  1.2264 -1.0640
  563MOL0     H74262   3.758   7.735   0.209 -3.0203  1.6073 -0.1845
  563MOL0     H74263   3.610   7.696   0.390  3.4029  1.5846 -1.1436
  563MOL0     H74264   3.571   7.526   0.337  1.1864 -0.8760 -1.7411
  563MOL0     H74265   3.411   7.721   0.268  1.9124  0.1648  2.3779
  563MOL0     H74266   3.536   7.762   0.149  0.1602 -0.2153  0.0100
  563MOL0     H74267   3.389   7.502   0.191 -0.9517 -0.5938  0.7699
  563MOL0     H74268   3.512   7.508   0.062 -1.9063 -0.4616 -0.9135
  563MOL0     H74269   3.169   7.661   0.151  2.2690 -0.4584  1.4974
  563MOL0     H74270   2.980   7.662  -0.194  0.8439 -0.9560 -0.6073
  563MOL0     H74271   2.993   7.808  -0.101 -1.7231 -0.2607 -0.8147
  563MOL0     H74272   2.925   7.685   0.101  2.3140  0.6621 -1.6292
  563MOL0     H74273   2.955   7.533   0.025 -1.7925 -0.6025  3.4770
  563MOL0     H74274   2.760   7.557  -0.112  0.2039  1.5637  0.3168
  563MOL0     H74275   2.715   7.566   0.054  1.5580  0.1626  1.1996
  563MOL0     H74276   2.763   7.822  -0.121  2.2590 -2.6775 -0.9779
  563MOL0     H74277   2.738   7.797   0.060 -0.3316  2.0185  0.3888
  563MOL0     H74278   2.326   7.786  -0.038  1.5808 -0.1445  1.3362
  563MOL0     H74279   2.160   7.721  -0.225 -0.4381  0.1322 -0.0140
  563MOL0     H74280   1.950   7.827  -0.513 -0.1963  0.3411 -0.6684
  563MOL0     H74281   1.755   7.820  -0.682 -0.3317  0.5311  0.6820
  563MOL0     H74282   1.620   7.770  -0.866  1.8205 -0.5735  0.4848
  563MOL0     H74283   1.527   7.691  -0.751 -0.5335 -1.2503  1.0537
  563MOL0     H74284   1.570   7.612  -1.036 -0.8829  1.0071 -1.0821
  563MOL0     H74285   1.421   7.681  -0.962  1.2152  1.7413  0.6209
  563MOL0     H74286   1.422   7.460  -0.815  0.9213 -0.6283  0.2049
  563MOL0     H74287   1.527   7.392  -0.946  2.6823  2.6240  0.0980
  563MOL0     H74288   1.260   7.506  -1.014 -0.4306 -1.6132  1.8723
  563MOL0     H74289   1.377   7.429  -1.114  1.6103 -0.8307  0.6469
  563MOL0     H74290   1.218   7.307  -0.891 -0.0947  1.0753 -0.3249
  563MOL0     H74291   1.369   7.235  -0.963 -0.3353 -0.6217 -1.1203
  563MOL0     H74292   1.255   7.233  -1.176 -0.2787 -1.7243  0.3843
  563MOL0     H74293   1.144   7.355  -1.101  2.4231  1.2745 -0.0147
  563MOL0     H74294   1.176   7.048  -1.053  1.4951  0.6202 -0.4021
  563MOL0     H74295   1.048   7.158  -0.979  0.5629 -1.9235  0.0796
  563MOL0     H74296   1.069   7.042  -1.265  1.8460 -0.7986  0.8916
  563MOL0     H74297   1.003   7.205  -1.230  1.0692 -0.5627  0.9611
  563MOL0     H74298   1.827   7.402  -0.718  2.4961 -0.1125 -0.3478
  563MOL0     H74299   2.016   7.408  -0.552 -1.5036 -0.6440  0.5784
  563MOL0     H74300   2.502   7.632  -0.465  0.8807 -1.5183  0.9716
  563MOL0     H74301   2.649   7.713  -0.298 -0.1943  2.1060 -3.6928
  563MOL0     H74302   4.437   7.427   0.176  3.9017 -2.1838 -1.2436
  563MOL0     H74303   4.685   7.408   0.167  1.4412 -0.8986  1.2616
  563MOL0     H74304   5.090   7.266   0.650 -2.1190  2.4917 -0.2780
  563MOL0     H74305   5.330   7.269   0.652 -1.7363 -0.7887  0.7681
  563MOL0     H74306   5.546   7.323   0.649  0.1956 -0.8765 -0.5347
  563MOL0     H74307   5.544   7.500   0.605 -1.7793  0.6826 -2.2550
  563MOL0     H74308   5.752   7.295   0.503 -1.7664  0.3236 -0.6138
  563MOL0     H74309   5.721   7.450   0.433  0.1838 -0.5183 -0.3903
  563MOL0     H74310   5.782   7.386   0.736  0.5337 -0.3339 -0.7991
  563MOL0     H74311   5.787   7.548   0.678 -0.5827 -0.0343 -1.2645
  563MOL0     H74312   6.013   7.458   0.720 -0.1938  0.6666 -0.3270
  563MOL0     H74313   5.984   7.310   0.632  0.3272 -0.5426 -0.6311
  563MOL0     H74314   6.080   7.547   0.301  0.8456  0.4072  0.9666
  563MOL0     H74315   5.331   7.465   0.273 -0.4197 -0.8277 -0.5028
  563MOL0     H74316   5.086   7.461   0.272  2.1067 -1.4275 -2.3735
  564MOL0     O74317   0.250   3.085   2.404  0.1908  0.2776  0.4158
  564MOL0     C74318   0.278   2.988   2.332  0.2156 -0.1319 -0.5358
  564MOL0     O74319   0.194   2.925   2.257  0.1095  0.4599  0.8985
  564MOL0     C74320   0.076   2.987   2.225 -0.1336 -0.0181  1.7150
  564MOL0     C74321  -0.013   3.053   2.316  0.4796  0.8071 -0.1156
  564MOL0     C74322  -0.133   3.109   2.271 -0.6491 -0.3356 -0.3915
  564MOL0     C74323  -0.165   3.109   2.135  0.3041  0.3314 -0.2440
  564MOL0     O74324  -0.275   3.180   2.083  0.3130  0.6707  0.1491
  564MOL0     C74325  -0.378   3.213   2.171  0.6769  0.6930  0.4932
  564MOL0     C74326  -0.501   3.274   2.102  0.0712  0.2991  0.3422
  564MOL0     C74327  -0.622   3.278   2.197 -0.3530 -0.1787 -0.1755
  564MOL0     C74328  -0.729   3.357   2.126  1.0385 -0.3658  0.1160
  564MOL0     C74329  -0.851   3.400   2.207  0.5074 -0.4958  0.1661
  564MOL0     C74330  -0.926   3.279   2.266  0.3606  0.9845  0.2444
  564MOL0     C74331  -1.055   3.320   2.334 -0.0276  0.2059  0.4518
  564MOL0     C74332  -1.049   3.413   2.456 -0.8573  0.3294 -0.0825
  564MOL0     N74333  -1.171   3.418   2.530 -0.2666  0.5736 -0.6362
  564MOL0     C74334  -1.275   3.504   2.512 -1.3263  0.7154  0.2692
  564MOL0     C74335  -1.358   3.501   2.624  0.2258 -0.2538  0.6389
  564MOL0     C74336  -1.492   3.576   2.636  0.7700 -0.0764 -0.4031
  564MOL0     C74337  -1.488   3.708   2.712  0.9885  0.2994 -0.7069
  564MOL0     C74338  -1.421   3.812   2.630  0.4226  0.1852  0.2724
  564MOL0     C74339  -1.373   3.932   2.717 -0.3137  0.0705 -0.1466
  564MOL0     O74340  -1.467   3.980   2.812 -0.3614 -0.0267 -0.2610
  564MOL0     C74341  -1.417   4.061   2.909 -0.3719 -0.5103 -1.0425
  564MOL0     C74342  -1.466   4.039   3.036  1.0561  0.1633  0.0915
  564MOL0     C74343  -1.426   4.123   3.142 -1.0717  0.6747 -0.5001
  564MOL0     C74344  -1.327   4.224   3.121  0.8918  0.1509  0.1553
  564MOL0     C74345  -1.296   4.317   3.235 -0.1118 -0.6259 -0.8373
  564MOL0     O74346  -1.378   4.318   3.348  0.0380  0.3158  0.2935
  564MOL0     C74347  -1.352   4.402   3.456 -0.0733 -0.4927  0.1947
  564MOL0     C74348  -1.254   4.505   3.468  0.2122 -0.1703  0.5160
  564MOL0     C74349  -1.252   4.597   3.566  0.2549  0.3166 -0.8196
  564MOL0     C74350  -1.337   4.579   3.679  0.3532 -0.4999 -0.6194
  564MOL0     O74351  -1.344   4.665   3.786 -0.4252 -0.5487 -0.2832
  564MOL0     C74352  -1.264   4.786   3.781 -0.4572 -0.0547 -0.5565
  564MOL0     C74353  -1.118   4.758   3.823  0.0051 -0.2731  0.1794
  564MOL0     C74354  -1.034   4.878   3.832  0.2537  0.5544 -0.4722
  564MOL0     C74355  -1.088   4.972   3.953  0.3644 -0.0157  0.3469
  564MOL0     C74356  -0.990   5.081   3.989  0.8270  0.7783 -0.5540
  564MOL0     C74357  -1.000   5.202   3.898 -1.1638  0.1935  0.4009
  564MOL0     C74358  -0.921   5.321   3.955 -0.0239 -0.6348  0.2574
  564MOL0     C74359  -0.772   5.283   3.973  0.5049  0.4120 -0.1879
  564MOL0    Cl74360  -0.666   5.399   4.058  0.5032 -0.1681 -0.0675
  564MOL0     C74361  -1.421   4.468   3.679 -0.0078  0.0868 -0.8956
  564MOL0     C74362  -1.434   4.376   3.571  0.2595  0.8132 -0.3328
  564MOL0     O74363  -1.195   4.388   3.215 -0.4985 -0.0375  0.1803
  564MOL0     C74364  -1.281   4.253   2.993  0.1492 -0.4452 -0.1487
  564MOL0     C74365  -1.318   4.161   2.893 -0.9930 -0.1416  0.2876
  564MOL0     N74366  -1.298   3.414   2.716 -0.9022 -0.2509  0.5747
  564MOL0     N74367  -1.189   3.383   2.655  0.1506  0.2445  0.5277
  564MOL0     C74368  -0.085   3.045   2.040  0.0473  0.2597  0.1626
  564MOL0     C74369   0.037   2.986   2.086  0.1739 -0.1175  0.2307
  564MOL0     C74370   0.416   2.943   2.338 -0.4784 -0.3611 -0.0158
  564MOL0     C74371   0.518   3.020   2.402 -1.1517  0.1736  0.9137
  564MOL0     C74372   0.656   2.973   2.403  0.3210  0.6473  0.5497
  564MOL0     C74373   0.686   2.843   2.345 -0.4817  0.0091  0.0623
  564MOL0     O74374   0.805   2.776   2.356  0.5405  0.0780  0.1643
  564MOL0     C74375   0.929   2.849   2.360 -0.0374  0.1903 -0.2602
  564MOL0     C74376   0.976   2.861   2.504  0.2804  0.6979 -0.0373
  564MOL0     C74377   1.117   2.916   2.501  0.8041 -0.2037 -0.1611
  564MOL0     C74378   1.227   2.808   2.474  0.0316  0.0026  0.8598
  564MOL0     C74379   1.359   2.861   2.467 -0.0285  0.5565 -0.5797
  564MOL0     C74380   1.471   2.904   2.464  0.0683  0.1432 -0.3170
  564MOL0     C74381   0.583   2.778   2.275  0.1521  0.1860  0.2291
  564MOL0     C74382   0.450   2.822   2.274 -0.9499  0.0574  0.3145
  564MOL0     H74383   0.020   3.042   2.419 -0.2267  2.1239  0.2706
  564MOL0     H74384  -0.193   3.164   2.343 -1.5531  0.7645 -1.9262
  564MOL0     H74385  -0.347   3.281   2.250  0.9144 -2.0597  2.9255
  564MOL0     H74386  -0.419   3.126   2.223 -0.9962  3.3715  4.1385
  564MOL0     H74387  -0.523   3.205   2.021  3.3939  1.3971 -1.7006
  564MOL0     H74388  -0.475   3.367   2.051 -0.6149  1.1885  1.5564
  564MOL0     H74389  -0.592   3.322   2.292  0.6492  0.7463 -0.8906
  564MOL0     H74390  -0.662   3.176   2.201 -1.0413  0.0505 -0.8384
  564MOL0     H74391  -0.687   3.447   2.081  0.2731 -0.6511 -1.2296
  564MOL0     H74392  -0.756   3.302   2.035  4.5856 -0.3937 -1.0784
  564MOL0     H74393  -0.926   3.450   2.144 -0.5531 -0.1657  1.6198
  564MOL0     H74394  -0.821   3.471   2.285 -1.4809  0.0932  0.4648
  564MOL0     H74395  -0.870   3.229   2.345 -0.8699 -0.5958  0.1569
  564MOL0     H74396  -0.939   3.199   2.193  2.0803  1.2899 -0.4513
  564MOL0     H74397  -1.112   3.379   2.261  0.8870 -0.3017 -0.6867
  564MOL0     H74398  -1.098   3.224   2.363 -0.5013  0.7192  1.5082
  564MOL0     H74399  -1.013   3.512   2.429  2.7320 -0.6403  0.5408
  564MOL0     H74400  -0.969   3.359   2.508 -0.4913 -1.7778 -2.6319
  564MOL0     H74401  -1.288   3.559   2.420 -2.3586  2.8049  1.5984
  564MOL0     H74402  -1.559   3.522   2.703  2.6775  2.8194  4.3188
  564MOL0     H74403  -1.541   3.600   2.541 -1.4497  3.7488  1.4747
  564MOL0     H74404  -1.425   3.696   2.801  2.1737  1.9476 -1.2768
  564MOL0     H74405  -1.589   3.739   2.741 -0.5731 -2.4085 -2.7927
  564MOL0     H74406  -1.333   3.766   2.584 -1.0956 -2.2170 -0.4224
  564MOL0     H74407  -1.483   3.858   2.552  1.2446  2.3444  0.8177
  564MOL0     H74408  -1.347   4.013   2.648  1.6720 -0.5759 -0.2294
  564MOL0     H74409  -1.278   3.911   2.768 -0.0202  3.5029  0.9648
  564MOL0     H74410  -1.532   3.954   3.054  0.4710  0.6931  0.5028
  564MOL0     H74411  -1.476   4.114   3.238 -5.3782 -2.5375 -2.6780
  564MOL0     H74412  -1.186   4.530   3.388  2.2438 -2.8658  1.2674
  564MOL0     H74413  -1.182   4.679   3.564  0.4308  0.3389  1.9093
  564MOL0     H74414  -1.311   4.858   3.849  0.1458  1.0480 -1.2781
  564MOL0     H74415  -1.267   4.834   3.683  1.1913  0.5523 -0.3376
  564MOL0     H74416  -1.070   4.696   3.746 -0.0365 -1.5735  1.1742
  564MOL0     H74417  -1.105   4.692   3.909  1.6009  0.5806  0.6295
  564MOL0     H74418  -1.037   4.936   3.739  0.7168 -0.4953 -1.1618
  564MOL0     H74419  -0.931   4.851   3.855  0.2699 -0.1120 -1.3026
  564MOL0     H74420  -1.182   5.025   3.931  0.3174  3.2538  6.3489
  564MOL0     H74421  -1.097   4.905   4.038 -1.3501 -0.4428 -0.1357
  564MOL0     H74422  -0.897   5.025   3.979  0.6602  0.5532 -0.8713
  564MOL0     H74423  -1.003   5.111   4.094 -1.1961  0.5888 -0.7043
  564MOL0     H74424  -1.105   5.230   3.889 -0.6830  1.4143 -2.0619
  564MOL0     H74425  -0.957   5.172   3.802 -1.2370 -0.0601  0.4480
  564MOL0     H74426  -0.928   5.398   3.879  1.2442 -1.1510 -0.4116
  564MOL0     H74427  -0.968   5.350   4.050 -0.5928 -1.4847  0.2515
  564MOL0     H74428  -0.724   5.283   3.875 -0.4940  0.6938 -0.6974
  564MOL0     H74429  -0.763   5.189   4.028  0.3476  0.8504  0.5920
  564MOL0     H74430  -1.481   4.457   3.769  0.0286 -0.6620 -0.9483
  564MOL0     H74431  -1.505   4.295   3.584  3.7900 -2.0788  3.9817
  564MOL0     H74432  -1.227   4.343   2.964 -0.7620 -0.1977 -1.1624
  564MOL0     H74433  -1.286   4.198   2.796 -0.2880  1.1107  0.9626
  564MOL0     H74434  -0.108   3.065   1.936 -2.4830  3.7341  1.2294
  564MOL0     H74435   0.113   2.939   2.024 -0.1544 -0.8665  0.3879
  564MOL0     H74436   0.495   3.119   2.441 -1.6258  1.0234 -1.3729
  564MOL0     H74437   0.731   3.027   2.460  1.5402 -1.0847  0.6534
  564MOL0     H74438   0.920   2.952   2.322  2.3956  1.6569  2.6602
  564MOL0     H74439   1.012   2.795   2.313 -0.5681 -1.2765  0.4300
  564MOL0     H74440   0.912   2.922   2.569  0.5602  0.3359  0.5899
  564MOL0     H74441   0.978   2.764   2.554 -2.2672  1.7024  2.2661
  564MOL0     H74442   1.142   2.952   2.601 -0.3288  0.2227 -0.0105
  564MOL0     H74443   1.118   2.996   2.426 -1.7302  0.5037  0.4592
  564MOL0     H74444   1.233   2.738   2.558  0.4060  0.3017  1.0860
  564MOL0     H74445   1.200   2.755   2.382  0.6659  1.3644 -0.1356
  564MOL0     H74446   1.567   2.951   2.458  1.3371 -2.2292  0.0456
  564MOL0     H74447   0.611   2.678   2.242  1.1564  0.1469  1.1821
  564MOL0     H74448   0.381   2.748   2.235 -1.8333  1.4799 -0.8911
  565MOL0     O74449   6.651   4.096   6.998  0.6292 -0.4869  0.3325
  565MOL0     C74450   6.703   4.135   6.893 -0.1543 -0.1535  0.0855
  565MOL0     O74451   6.641   4.210   6.797 -0.0461 -0.2976 -0.2745
  565MOL0     C74452   6.502   4.208   6.782 -0.2472 -0.6627  0.2904
  565MOL0     C74453   6.421   4.108   6.825  0.3561  0.7587  0.0852
  565MOL0     C74454   6.282   4.109   6.791  0.4965  0.1709  0.1168
  565MOL0     C74455   6.229   4.211   6.711  0.6663  0.1030 -0.1294
  565MOL0     O74456   6.102   4.227   6.679  0.2982  0.0397 -1.1057
  565MOL0     C74457   6.033   4.098   6.658  0.7286  0.1347 -0.0120
  565MOL0     C74458   5.895   4.112   6.597  0.3299 -0.2888 -0.2999
  565MOL0     C74459   5.796   4.158   6.703 -1.0607  0.1930  0.0044
  565MOL0     C74460   5.656   4.130   6.659  1.0253 -0.3043 -0.2217
  565MOL0     C74461   5.613   4.204   6.525 -0.5284 -0.2316 -0.1267
  565MOL0     C74462   5.451   4.214   6.527  0.3522 -0.5893 -0.6534
  565MOL0     C74463   5.408   4.262   6.387  0.1477  0.1709  0.1823
  565MOL0     C74464   5.263   4.268   6.369  0.6603  0.0674 -0.5604
  565MOL0     N74465   5.219   4.126   6.365 -0.9530  0.6886  0.1760
  565MOL0     C74466   5.170   4.065   6.258  0.2698  0.5812  1.6418
  565MOL0     C74467   5.105   3.955   6.302  0.4580  0.3295  0.6062
  565MOL0     C74468   5.020   3.847   6.230  0.1958 -0.9928  0.3850
  565MOL0     C74469   4.866   3.877   6.230  0.0340  0.1936  0.1669
  565MOL0     C74470   4.809   3.895   6.367  0.1934  0.6104  1.1282
  565MOL0     C74471   4.661   3.915   6.346 -0.4230  0.4715 -0.8640
  565MOL0     O74472   4.604   3.976   6.470  0.4109 -0.1389  0.9937
  565MOL0     C74473   4.469   3.969   6.488  0.3958 -0.3080  0.8081
  565MOL0     C74474   4.428   4.011   6.612 -0.1649 -0.8428  0.5823
  565MOL0     C74475   4.294   4.015   6.650  0.4924  0.1802 -0.1245
  565MOL0     C74476   4.196   3.977   6.556 -0.3928 -0.3913 -0.2140
  565MOL0     C74477   4.051   3.995   6.583 -0.0875  0.0984  0.0151
  565MOL0     O74478   3.960   3.904   6.522  1.0514 -0.4353 -0.3786
  565MOL0     C74479   3.820   3.916   6.563  0.1918 -0.0082  0.5019
  565MOL0     C74480   3.717   3.920   6.473  0.2646  0.7172  0.8610
  565MOL0     C74481   3.588   3.945   6.526 -0.5415 -0.4980  0.8620
  565MOL0     C74482   3.565   3.952   6.665 -1.1469 -0.0087 -0.1188
  565MOL0     O74483   3.446   3.978   6.714  0.3388 -0.0929  0.0724
  565MOL0     C74484   3.332   3.902   6.656 -0.6062  1.0069  0.7402
  565MOL0     C74485   3.199   3.933   6.731 -0.4319  0.2101 -0.4248
  565MOL0     C74486   3.083   3.841   6.686  0.5808 -0.3184  0.2048
  565MOL0     C74487   2.960   3.866   6.770  0.9744  0.7548 -0.0788
  565MOL0     C74488   2.830   3.811   6.711 -0.6688  1.0444  0.4050
  565MOL0     C74489   2.721   3.844   6.804  0.5115 -0.7128  0.0888
  565MOL0     C74490   2.594   3.765   6.771 -0.4227  0.2743  0.9642
  565MOL0     C74491   2.481   3.778   6.872 -0.3802  0.4597  0.3235
  565MOL0    Cl74492   2.408   3.946   6.871 -0.0209  0.2490  0.0132
  565MOL0     C74493   3.674   3.922   6.756  0.0351  0.4242 -0.8482
  565MOL0     C74494   3.800   3.908   6.702 -0.0448  0.7242 -0.3256
  565MOL0     O74495   4.026   4.090   6.657 -0.0659 -0.7534  0.2333
  565MOL0     C74496   4.232   3.931   6.432  0.4466 -0.3375 -0.6758
  565MOL0     C74497   4.372   3.923   6.400 -0.2031 -0.3259  0.4514
  565MOL0     N74498   5.132   3.944   6.442 -0.5485 -0.4424  0.8459
  565MOL0     N74499   5.190   4.054   6.476 -0.2985  0.2418  0.3184
  565MOL0     C74500   6.314   4.323   6.688  0.9481  0.6744  0.6983
  565MOL0     C74501   6.442   4.314   6.714 -0.8646 -0.2622 -0.1082
  565MOL0     C74502   6.844   4.115   6.875 -0.2838 -0.4962  0.7238
  565MOL0     C74503   6.931   4.132   6.986  0.5356 -0.6635 -0.5544
  565MOL0     C74504   7.071   4.117   6.968 -0.3985 -0.3800 -0.5539
  565MOL0     C74505   7.119   4.106   6.838  0.3037 -0.8812  0.6404
  565MOL0     O74506   7.253   4.109   6.804 -0.4230  0.0592 -0.1201
  565MOL0     C74507   7.346   4.094   6.915  0.1563 -0.1629  0.4476
  565MOL0     C74508   7.495   4.096   6.847  0.4601 -0.3024 -0.0121
  565MOL0     C74509   7.595   4.077   6.961  0.8131  0.2473  0.2545
  565MOL0     C74510   7.725   4.161   6.943 -0.0572  0.2304  0.3847
  565MOL0     C74511   7.788   4.100   6.828 -0.6327  0.2011 -0.6707
  565MOL0     C74512   7.836   4.038   6.734 -0.2730  0.4242  0.0779
  565MOL0     C74513   7.036   4.114   6.724 -0.2513 -0.1191 -1.1382
  565MOL0     C74514   6.893   4.122   6.745 -0.4135 -0.2624  0.0174
  565MOL0     H74515   6.464   4.015   6.861 -0.5830 -0.3696 -1.5993
  565MOL0     H74516   6.220   4.027   6.823  0.5868 -0.6075 -1.6054
  565MOL0     H74517   6.016   4.048   6.754 -0.8831 -0.4055 -0.5518
  565MOL0     H74518   6.096   4.036   6.594  0.1553 -2.3707  1.6979
  565MOL0     H74519   5.848   4.015   6.576 -0.0278  0.1799 -1.8246
  565MOL0     H74520   5.899   4.162   6.500 -2.8851  0.1528 -0.3404
  565MOL0     H74521   5.821   4.262   6.724  0.2470 -0.4443  1.8563
  565MOL0     H74522   5.801   4.098   6.795 -1.0439  0.6049  0.2753
  565MOL0     H74523   5.641   4.022   6.650 -2.5175 -0.3961  3.6543
  565MOL0     H74524   5.587   4.161   6.739  1.4354 -1.0059  0.4261
  565MOL0     H74525   5.643   4.134   6.447  0.9829 -0.3796  0.5603
  565MOL0     H74526   5.660   4.298   6.499  4.2376 -2.5485 -0.9118
  565MOL0     H74527   5.424   4.291   6.599 -2.3836 -1.4667 -0.6333
  565MOL0     H74528   5.410   4.116   6.553 -0.7938  0.4854  1.9300
  565MOL0     H74529   5.445   4.363   6.368  2.7794 -0.9804 -1.2796
  565MOL0     H74530   5.447   4.198   6.307 -2.0868  0.4298 -1.2269
  565MOL0     H74531   5.252   4.307   6.267  3.1562 -1.4826 -1.4988
  565MOL0     H74532   5.219   4.331   6.447 -0.3682 -1.8233  0.4513
  565MOL0     H74533   5.183   4.102   6.157  0.2425 -3.0848  0.1452
  565MOL0     H74534   5.035   3.747   6.274  0.2297 -1.8438 -1.4670
  565MOL0     H74535   5.057   3.838   6.128  0.9168  1.3433  0.3962
  565MOL0     H74536   4.814   3.794   6.181  0.2090 -0.1865  0.6098
  565MOL0     H74537   4.843   3.962   6.165 -1.3075 -0.0006  0.3637
  565MOL0     H74538   4.822   3.806   6.428 -0.7884 -1.0044 -0.9165
  565MOL0     H74539   4.851   3.983   6.418 -1.3739 -0.6590  4.9414
  565MOL0     H74540   4.611   3.820   6.324  2.5838 -1.5414  0.2242
  565MOL0     H74541   4.650   3.987   6.265 -2.6502  0.1544 -0.9152
  565MOL0     H74542   4.512   4.039   6.674  1.5504 -1.0400 -1.5033
  565MOL0     H74543   4.273   4.045   6.752 -2.2154 -1.9766  0.0612
  565MOL0     H74544   3.733   3.928   6.365 -3.1036  0.7583  0.2728
  565MOL0     H74545   3.510   3.971   6.455  0.0337  1.5712  0.9316
  565MOL0     H74546   3.354   3.795   6.659 -1.1033  0.6256 -3.4367
  565MOL0     H74547   3.316   3.919   6.549 -1.5768 -4.3327 -0.3003
  565MOL0     H74548   3.169   4.037   6.720 -0.5831  0.1368 -0.7258
  565MOL0     H74549   3.207   3.920   6.839 -0.3954 -0.3699 -0.4923
  565MOL0     H74550   3.105   3.734   6.692  0.9106 -0.2023  1.1901
  565MOL0     H74551   3.051   3.859   6.583  0.3345  1.0842  0.5143
  565MOL0     H74552   2.978   3.836   6.874  2.1729 -2.0478 -1.0138
  565MOL0     H74553   2.938   3.974   6.770  0.5428  0.6682 -0.1144
  565MOL0     H74554   2.834   3.703   6.697  1.0554  0.9847  1.1140
  565MOL0     H74555   2.809   3.852   6.612  3.2531  0.2763 -0.9183
  565MOL0     H74556   2.693   3.949   6.791 -0.8165 -1.1490 -0.6706
  565MOL0     H74557   2.750   3.830   6.909 -0.3349  0.0519  0.4397
  565MOL0     H74558   2.557   3.791   6.671 -0.0552 -0.8294  0.5257
  565MOL0     H74559   2.616   3.659   6.781  2.7100  0.8781  1.2628
  565MOL0     H74560   2.527   3.743   6.965  1.8012  0.0409 -0.8379
  565MOL0     H74561   2.410   3.695   6.860 -0.5136 -0.0274  3.4274
  565MOL0     H74562   3.667   3.928   6.864 -1.2921  2.6724 -0.9986
  565MOL0     H74563   3.885   3.903   6.769  0.3059  2.3818 -0.6013
  565MOL0     H74564   4.150   3.910   6.364 -0.0964 -0.4334 -0.0028
  565MOL0     H74565   4.413   3.880   6.309  4.6906  2.1273  1.1565
  565MOL0     H74566   6.276   4.417   6.649 -0.7717 -0.0981  0.4267
  565MOL0     H74567   6.508   4.399   6.701 -0.2787 -0.5118  1.1242
  565MOL0     H74568   6.890   4.132   7.086  2.6209 -0.4898  0.3478
  565MOL0     H74569   7.137   4.121   7.054 -1.8774 -2.2000  0.7239
  565MOL0     H74570   7.344   3.996   6.964  3.7501 -2.2181 -2.8901
  565MOL0     H74571   7.356   4.184   6.976  2.9399 -0.0754 -0.0088
  565MOL0     H74572   7.511   4.012   6.779  1.4559 -1.5893  1.7197
  565MOL0     H74573   7.511   4.190   6.793 -0.3000  1.0300  1.9461
  565MOL0     H74574   7.611   3.970   6.980 -0.2880 -0.0870 -0.5758
  565MOL0     H74575   7.551   4.118   7.052 -2.7919  0.0102 -1.1986
  565MOL0     H74576   7.708   4.268   6.925 -3.7810 -0.1205  1.0863
  565MOL0     H74577   7.794   4.143   7.027  0.2300 -2.5366 -0.3675
  565MOL0     H74578   7.869   3.971   6.658 -0.8224 -0.8274  0.9151
  565MOL0     H74579   7.068   4.107   6.621 -2.8021 -2.0656 -1.9105
  565MOL0     H74580   6.826   4.130   6.661  0.0826  1.0422 -0.2814
  566MOL0     O74581   5.143   6.492   8.317 -0.0428 -1.0496 -0.2255
  566MOL0     C74582   5.112   6.590   8.388  0.2471 -0.3780 -0.0594
  566MOL0     O74583   4.991   6.625   8.435  0.5808 -0.2330  0.3906
  566MOL0     C74584   4.881   6.545   8.421  0.2433  0.5541  0.0316
  566MOL0     C74585   4.766   6.614   8.440  0.5394  1.0992 -0.7618
  566MOL0     C74586   4.645   6.553   8.438  1.3258 -0.1761 -0.0033
  566MOL0     C74587   4.637   6.415   8.409  0.9309 -0.3443 -0.0124
  566MOL0     O74588   4.517   6.350   8.431 -0.2265 -0.5768  0.5058
  566MOL0     C74589   4.487   6.236   8.339  0.7719  0.4248 -0.2777
  566MOL0     C74590   4.428   6.280   8.205  0.6940  0.4288  0.4717
  566MOL0     C74591   4.317   6.385   8.206  0.0868 -0.8421 -0.4753
  566MOL0     C74592   4.221   6.353   8.331  0.1589 -0.3972 -0.2722
  566MOL0     C74593   4.085   6.426   8.293 -0.5282 -0.0595 -0.5220
  566MOL0     C74594   4.001   6.459   8.417  0.9008 -0.0785 -0.2542
  566MOL0     C74595   3.860   6.513   8.384  0.8383  0.0667 -0.5952
  566MOL0     C74596   3.778   6.438   8.289  0.2699  0.4918 -0.2491
  566MOL0     N74597   3.642   6.495   8.285 -0.3184  0.0944 -0.1052
  566MOL0     C74598   3.540   6.428   8.216  0.8273  0.5283 -0.6100
  566MOL0     C74599   3.427   6.500   8.249  0.1976 -0.2122 -0.3074
  566MOL0     C74600   3.289   6.464   8.203 -0.5415 -0.6422 -0.2437
  566MOL0     C74601   3.293   6.464   8.048 -0.2477  0.8653 -1.0897
  566MOL0     C74602   3.302   6.611   7.997  0.5240 -1.1427  1.0749
  566MOL0     C74603   3.291   6.622   7.834  0.3267  0.3916  0.0485
  566MOL0     O74604   3.171   6.564   7.783 -0.6056  0.3720 -0.5351
  566MOL0     C74605   3.050   6.626   7.801  0.2508  0.4415 -0.1248
  566MOL0     C74606   3.025   6.758   7.838 -0.3525  0.5430 -0.6548
  566MOL0     C74607   2.898   6.813   7.841 -0.0111  0.3065  0.8018
  566MOL0     C74608   2.784   6.732   7.812  0.4179 -0.9661  0.5850
  566MOL0     C74609   2.644   6.785   7.802 -0.4054  0.7749  0.4089
  566MOL0     O74610   2.556   6.707   7.733 -0.7083  0.1242 -0.1796
  566MOL0     C74611   2.425   6.748   7.740  0.2763  0.9462  0.4338
  566MOL0     C74612   2.362   6.768   7.615  0.8985 -0.0540  0.5757
  566MOL0     C74613   2.230   6.802   7.610 -0.2587 -1.4251 -0.2993
  566MOL0     C74614   2.153   6.819   7.724 -0.4353 -0.6581 -0.6179
  566MOL0     O74615   2.018   6.847   7.707 -0.2190 -0.4727  0.5533
  566MOL0     C74616   1.940   6.860   7.825 -0.1417  1.0045  0.3412
  566MOL0     C74617   1.798   6.893   7.792  0.1180 -0.6570 -0.1536
  566MOL0     C74618   1.724   6.774   7.728  0.8594  0.2673 -0.5995
  566MOL0     C74619   1.587   6.819   7.688  0.5267 -0.6343 -0.3915
  566MOL0     C74620   1.509   6.706   7.616  0.0391 -0.0254 -0.4308
  566MOL0     C74621   1.380   6.756   7.551  0.3628 -0.4306  0.5222
  566MOL0     C74622   1.323   6.643   7.469  0.3271 -0.1999  0.2664
  566MOL0     C74623   1.205   6.698   7.374 -0.4075 -0.2950  0.3674
  566MOL0    Cl74624   1.272   6.795   7.240 -0.1641  0.3525  0.9997
  566MOL0     C74625   2.219   6.814   7.850  0.2699  0.3675  0.2668
  566MOL0     C74626   2.354   6.783   7.853  0.1103 -0.4135  0.1157
  566MOL0     O74627   2.622   6.892   7.852  0.0783 -0.0853  0.5114
  566MOL0     C74628   2.807   6.596   7.791 -0.3202 -0.9651  1.0798
  566MOL0     C74629   2.939   6.549   7.790  0.1462 -0.1180  0.7108
  566MOL0     N74630   3.465   6.613   8.325  0.4433 -0.3113 -0.3298
  566MOL0     N74631   3.592   6.609   8.332 -0.0921 -0.0998 -0.5187
  566MOL0     C74632   4.751   6.339   8.382  0.5106 -0.2174  0.2449
  566MOL0     C74633   4.872   6.407   8.386 -0.4719  0.3199  0.4263
  566MOL0     C74634   5.219   6.689   8.421  0.6106  0.4903 -0.6727
  566MOL0     C74635   5.352   6.673   8.380  0.3511  0.3218  0.5570
  566MOL0     C74636   5.450   6.767   8.393  0.3928 -0.7982 -0.4198
  566MOL0     C74637   5.434   6.880   8.468  0.8640 -0.3850 -0.2554
  566MOL0     O74638   5.535   6.968   8.489  0.0746 -0.5692 -0.1014
  566MOL0     C74639   5.671   6.927   8.497  0.2908  0.7878 -0.0362
  566MOL0     C74640   5.750   6.954   8.366 -0.0535  0.4287 -0.0542
  566MOL0     C74641   5.883   6.883   8.360  0.5957 -0.0478 -0.2129
  566MOL0     C74642   5.952   6.937   8.236  0.6374  0.1016  0.3027
  566MOL0     C74643   6.074   6.858   8.213 -0.1201 -0.1870 -1.0082
  566MOL0     C74644   6.181   6.804   8.187 -0.5352 -0.4755 -0.6957
  566MOL0     C74645   5.300   6.906   8.519  0.6967 -0.2812  0.3157
  566MOL0     C74646   5.193   6.812   8.497  0.5354  0.3543 -0.5576
  566MOL0     H74647   4.758   6.716   8.477  0.3441  2.0129 -3.1403
  566MOL0     H74648   4.550   6.590   8.476  0.9407  1.0663 -2.0242
  566MOL0     H74649   4.409   6.184   8.396  1.1106 -1.2118 -1.2287
  566MOL0     H74650   4.569   6.169   8.310 -0.5864 -0.3195 -2.7193
  566MOL0     H74651   4.396   6.195   8.144  0.8059  1.8292 -1.6728
  566MOL0     H74652   4.516   6.319   8.154  2.4813 -1.4737  1.9497
  566MOL0     H74653   4.264   6.388   8.110 -3.5094  0.8809  1.3513
  566MOL0     H74654   4.356   6.486   8.211 -0.6809 -0.4926 -1.3210
  566MOL0     H74655   4.198   6.246   8.338 -0.7013 -0.3269 -1.7454
  566MOL0     H74656   4.269   6.386   8.424 -1.3696  0.2358  0.3278
  566MOL0     H74657   4.030   6.365   8.221 -4.3982  1.4439  0.8927
  566MOL0     H74658   4.105   6.522   8.244  4.7993 -0.4350  0.2681
  566MOL0     H74659   4.053   6.536   8.476 -1.6487  0.8698  0.8991
  566MOL0     H74660   4.003   6.366   8.473  0.4264 -0.4533 -0.8483
  566MOL0     H74661   3.802   6.524   8.476 -2.2745  1.2366 -2.5554
  566MOL0     H74662   3.875   6.614   8.346 -0.0359  0.0373 -1.0401
  566MOL0     H74663   3.770   6.331   8.308 -1.0349 -0.0089 -3.0539
  566MOL0     H74664   3.821   6.455   8.190  0.9048  3.5344  0.4427
  566MOL0     H74665   3.549   6.339   8.155  0.9204 -0.4680  0.7876
  566MOL0     H74666   3.207   6.528   8.238  0.6357 -0.0032  1.4623
  566MOL0     H74667   3.262   6.367   8.245 -1.1799 -1.0205 -1.4637
  566MOL0     H74668   3.197   6.424   8.013  0.2889  0.2028 -1.8478
  566MOL0     H74669   3.381   6.407   8.017  0.3877  0.9825  0.4365
  566MOL0     H74670   3.217   6.662   8.043  0.1481 -1.5219  0.8017
  566MOL0     H74671   3.400   6.657   8.016 -0.5387  1.7056  0.1638
  566MOL0     H74672   3.378   6.571   7.792  1.3648 -0.5993  3.0690
  566MOL0     H74673   3.298   6.728   7.810  1.0392  0.3579  0.0880
  566MOL0     H74674   3.112   6.823   7.847  0.0951 -0.0943 -0.3302
  566MOL0     H74675   2.893   6.920   7.861  0.4880  0.5472 -0.2574
  566MOL0     H74676   2.413   6.757   7.519 -0.6030  0.1826 -0.2788
  566MOL0     H74677   2.192   6.833   7.513 -0.5364  1.5816  0.6630
  566MOL0     H74678   1.978   6.938   7.892 -0.7752  1.9316 -0.3564
  566MOL0     H74679   1.930   6.760   7.870 -0.7815 -0.7547 -3.3161
  566MOL0     H74680   1.799   6.976   7.721 -0.8990  0.2989  0.9130
  566MOL0     H74681   1.733   6.923   7.874 -0.5035 -2.4651  0.0706
  566MOL0     H74682   1.721   6.682   7.788 -1.5809  0.8147  0.2747
  566MOL0     H74683   1.774   6.751   7.634 -3.0854  2.0931 -3.4012
  566MOL0     H74684   1.536   6.848   7.780 -0.9325  1.0968 -1.6701
  566MOL0     H74685   1.585   6.900   7.615 -1.1811 -0.8815 -0.6618
  566MOL0     H74686   1.483   6.629   7.689 -1.4080  1.6010  0.8443
  566MOL0     H74687   1.561   6.643   7.542  1.4083 -2.2566  2.2279
  566MOL0     H74688   1.402   6.837   7.480 -2.1141  1.2482  1.5320
  566MOL0     H74689   1.311   6.792   7.627  1.2882  1.0256  0.7076
  566MOL0     H74690   1.401   6.599   7.406  0.7974 -0.0616  0.7412
  566MOL0     H74691   1.276   6.571   7.537  0.1695  0.9700  1.4311
  566MOL0     H74692   1.139   6.765   7.430  0.7189  0.3271  0.9779
  566MOL0     H74693   1.144   6.620   7.327 -0.0393  0.2568 -1.0818
  566MOL0     H74694   2.165   6.844   7.939 -2.4088  2.9351 -2.0492
  566MOL0     H74695   2.409   6.777   7.946  0.0051  1.5703  0.3365
  566MOL0     H74696   2.725   6.526   7.786 -0.1318 -1.0986 -0.7153
  566MOL0     H74697   2.956   6.444   7.771  0.1686 -0.6988  3.5117
  566MOL0     H74698   4.757   6.230   8.379 -1.5564 -0.3495 -1.7592
  566MOL0     H74699   4.963   6.351   8.369  0.7012  2.2244  0.1011
  566MOL0     H74700   5.387   6.587   8.323  0.0648  0.6130 -0.0666
  566MOL0     H74701   5.545   6.736   8.352  1.1972  0.9534  0.0063
  566MOL0     H74702   5.666   6.821   8.524 -1.6300  0.7329 -0.4749
  566MOL0     H74703   5.716   6.982   8.580  0.3185  0.8162 -0.0695
  566MOL0     H74704   5.694   6.907   8.285 -0.0601 -1.3789  0.9448
  566MOL0     H74705   5.760   7.062   8.354  0.4709  0.3540 -0.3018
  566MOL0     H74706   5.862   6.776   8.362  1.4357 -0.2241 -0.2739
  566MOL0     H74707   5.946   6.896   8.449  0.6873  1.9323 -0.5146
  566MOL0     H74708   5.893   6.927   8.144  1.0882 -1.0561  0.1164
  566MOL0     H74709   5.969   7.045   8.244 -2.1498  0.4559  3.4338
  566MOL0     H74710   6.274   6.756   8.161  1.4083  3.4037 -1.6814
  566MOL0     H74711   5.285   6.998   8.575 -0.7565  0.9210 -1.8956
  566MOL0     H74712   5.090   6.826   8.528 -0.6161 -4.0091 -1.8211
  567MOL0     O74713   4.494   5.497   5.302  0.2248  0.0085 -0.1442
  567MOL0     C74714   4.511   5.416   5.208 -0.2514  0.9334 -0.2555
  567MOL0     O74715   4.414   5.350   5.142 -0.4097 -0.1371 -0.4275
  567MOL0     C74716   4.276   5.358   5.182 -0.6201 -0.7643  0.1809
  567MOL0     C74717   4.239   5.363   5.317 -0.0925 -0.8068 -0.9181
  567MOL0     C74718   4.107   5.381   5.363  0.0478  0.7833 -0.1541
  567MOL0     C74719   4.007   5.385   5.268 -0.4019  0.7125  0.2319
  567MOL0     O74720   3.872   5.375   5.289  0.2239  0.0203 -0.6670
  567MOL0     C74721   3.829   5.451   5.401 -0.0675  0.2257  0.8342
  567MOL0     C74722   3.687   5.402   5.447 -0.2284  0.1285 -0.4670
  567MOL0     C74723   3.585   5.398   5.328  0.2521  0.0544  0.0759
  567MOL0     C74724   3.450   5.359   5.381 -0.4199  0.4013  0.4428
  567MOL0     C74725   3.344   5.329   5.276 -0.7210 -0.2703 -0.3512
  567MOL0     C74726   3.210   5.288   5.339 -0.2703 -1.1607  0.3722
  567MOL0     C74727   3.204   5.199   5.467 -0.5094  0.3708  0.1957
  567MOL0     C74728   3.065   5.150   5.515 -0.6755 -0.2674  0.1553
  567MOL0     N74729   2.999   5.064   5.415  0.0450  0.2989  1.2830
  567MOL0     C74730   3.035   4.930   5.397 -0.1552  0.2280  0.8564
  567MOL0     C74731   2.935   4.877   5.323 -0.9188 -0.5694 -0.0938
  567MOL0     C74732   2.920   4.739   5.260 -0.6845 -1.1071 -1.3021
  567MOL0     C74733   2.788   4.679   5.287  1.2411  0.0377 -0.0353
  567MOL0     C74734   2.781   4.544   5.214 -0.3711 -0.0396  0.5848
  567MOL0     C74735   2.668   4.457   5.265  0.2251 -0.5090 -0.2334
  567MOL0     O74736   2.545   4.499   5.193 -0.2777 -0.7568  0.3202
  567MOL0     C74737   2.431   4.442   5.227  0.0239  0.4434 -0.5667
  567MOL0     C74738   2.415   4.343   5.323  0.1529  0.8458 -0.4543
  567MOL0     C74739   2.297   4.271   5.343 -0.0299 -0.8164  0.1501
  567MOL0     C74740   2.186   4.302   5.255 -0.1892 -0.1692  0.1885
  567MOL0     C74741   2.050   4.249   5.292 -1.1984  1.1443  0.5501
  567MOL0     O74742   1.967   4.250   5.184  0.4979  0.0623  0.4771
  567MOL0     C74743   1.842   4.202   5.201  0.0894 -0.2406  0.2235
  567MOL0     C74744   1.758   4.265   5.302  0.8724 -0.4873  0.7610
  567MOL0     C74745   1.625   4.221   5.301 -0.1876 -0.4250  0.4070
  567MOL0     C74746   1.583   4.121   5.209 -0.2463 -0.0684  0.1599
  567MOL0     O74747   1.451   4.090   5.223 -0.2667 -0.1448 -0.4512
  567MOL0     C74748   1.388   4.049   5.105  0.9909  0.3709  0.6131
  567MOL0     C74749   1.224   4.054   5.143 -0.6199  0.7485  0.2909
  567MOL0     C74750   1.158   4.180   5.164  0.6295 -0.9619  0.0998
  567MOL0     C74751   1.005   4.158   5.169  0.6040 -0.9829 -0.1216
  567MOL0     C74752   0.928   4.277   5.230  0.2909 -0.4598 -0.6183
  567MOL0     C74753   0.776   4.250   5.227 -0.4427 -0.1810  0.3716
  567MOL0     C74754   0.693   4.360   5.302  0.1594 -0.6616 -0.0816
  567MOL0     C74755   0.546   4.332   5.295  0.1966 -0.6919 -0.0011
  567MOL0    Cl74756   0.491   4.231   5.425 -0.1337  0.0533  0.2671
  567MOL0     C74757   1.673   4.059   5.132  0.4735  0.9014 -0.1121
  567MOL0     C74758   1.800   4.095   5.125 -0.5327  1.2739  0.3057
  567MOL0     O74759   2.034   4.203   5.403 -0.2046 -0.4636 -0.1342
  567MOL0     C74760   2.201   4.403   5.157 -0.4692 -0.0040  0.2989
  567MOL0     C74761   2.322   4.462   5.138 -0.5896  0.0847 -0.4874
  567MOL0     N74762   2.850   4.980   5.289  0.1376  0.2480 -0.3028
  567MOL0     N74763   2.881   5.083   5.357  0.1423 -0.5408  0.1393
  567MOL0     C74764   4.041   5.387   5.127  1.2007  0.7138 -0.1515
  567MOL0     C74765   4.176   5.380   5.089 -0.6512 -0.0206 -0.0662
  567MOL0     C74766   4.653   5.385   5.175 -0.2380 -0.0934 -0.4723
  567MOL0     C74767   4.692   5.289   5.080 -0.4981 -0.0902  0.1699
  567MOL0     C74768   4.824   5.260   5.061 -0.5563  0.1332  0.4564
  567MOL0     C74769   4.925   5.338   5.123  0.6341 -0.3325  0.2631
  567MOL0     O74770   5.060   5.310   5.086 -0.6046  0.3690  0.4555
  567MOL0     C74771   5.166   5.394   5.135 -0.7217 -0.0764  0.6621
  567MOL0     C74772   5.194   5.347   5.274  0.5167 -0.1381 -0.4283
  567MOL0     C74773   5.290   5.225   5.261 -1.1409 -0.4423 -0.5558
  567MOL0     C74774   5.362   5.201   5.393  0.0426 -0.4290  0.4667
  567MOL0     C74775   5.451   5.088   5.390 -0.7128 -0.1719  0.0264
  567MOL0     C74776   5.520   4.987   5.389  0.3508 -0.0940  0.0334
  567MOL0     C74777   4.897   5.436   5.226  1.1222 -0.0496  0.0151
  567MOL0     C74778   4.757   5.459   5.251 -0.2870  0.3151 -0.5384
  567MOL0     H74779   4.315   5.363   5.394  1.9790  2.7026 -2.6985
  567MOL0     H74780   4.083   5.362   5.467  1.0770  2.0196  0.3428
  567MOL0     H74781   3.823   5.553   5.362 -0.9026 -1.3541 -3.8634
  567MOL0     H74782   3.889   5.453   5.492  1.5010  2.0996 -0.1693
  567MOL0     H74783   3.647   5.476   5.518 -1.1809 -1.1229  0.3406
  567MOL0     H74784   3.686   5.303   5.492  0.1091  0.7753  1.0550
  567MOL0     H74785   3.625   5.321   5.262 -1.1128 -0.6751  0.0556
  567MOL0     H74786   3.577   5.496   5.279  1.7336 -0.7989 -1.9809
  567MOL0     H74787   3.471   5.260   5.424  1.7077 -0.1874 -1.7518
  567MOL0     H74788   3.410   5.432   5.452 -3.5512 -0.7791  0.0625
  567MOL0     H74789   3.380   5.246   5.214  1.8720  0.0766  0.5815
  567MOL0     H74790   3.349   5.413   5.206  1.7567 -0.6116 -0.6642
  567MOL0     H74791   3.141   5.242   5.267  0.0460 -1.1489  0.0599
  567MOL0     H74792   3.162   5.383   5.364 -1.0487 -2.4555  4.5824
  567MOL0     H74793   3.278   5.120   5.452  1.2299  1.8179  0.9201
  567MOL0     H74794   3.251   5.256   5.547  0.4157 -0.6049  0.3759
  567MOL0     H74795   3.012   5.243   5.540  2.3172  1.5885  0.1530
  567MOL0     H74796   3.088   5.090   5.603 -0.5818  0.7006  0.8128
  567MOL0     H74797   3.118   4.881   5.447 -1.9182 -1.7102  2.0671
  567MOL0     H74798   2.995   4.673   5.304 -0.1753 -0.3070 -0.9244
  567MOL0     H74799   2.952   4.745   5.156 -0.0614 -1.9283 -1.1665
  567MOL0     H74800   2.707   4.739   5.244  2.0895  1.2606  0.0168
  567MOL0     H74801   2.775   4.665   5.395 -1.7586  0.8446 -0.1819
  567MOL0     H74802   2.770   4.556   5.106 -1.0489 -1.0617  0.5196
  567MOL0     H74803   2.875   4.491   5.232  0.0680  0.9172  1.1901
  567MOL0     H74804   2.673   4.444   5.374  3.1910  0.1824 -0.2162
  567MOL0     H74805   2.680   4.351   5.240  0.8414 -0.2584 -1.0089
  567MOL0     H74806   2.490   4.321   5.399 -0.7325  0.5422  0.3419
  567MOL0     H74807   2.285   4.199   5.423 -2.8340  3.0704  3.6438
  567MOL0     H74808   1.782   4.349   5.367  1.4815 -0.8494  1.0104
  567MOL0     H74809   1.559   4.276   5.368  1.5164  1.3811  0.7030
  567MOL0     H74810   1.407   3.948   5.066 -1.0347  0.6750 -1.3629
  567MOL0     H74811   1.407   4.125   5.029  3.8868  3.5291  4.1652
  567MOL0     H74812   1.200   3.977   5.217  0.5998 -0.1320 -0.1981
  567MOL0     H74813   1.173   4.021   5.052  0.4731  2.0698 -0.8500
  567MOL0     H74814   1.175   4.257   5.089  2.1167 -1.7289 -0.4055
  567MOL0     H74815   1.187   4.227   5.258  0.1511 -2.6977  1.1690
  567MOL0     H74816   0.973   4.127   5.069  0.7145  1.3364 -0.9362
  567MOL0     H74817   0.979   4.073   5.233  0.4405 -0.9507 -0.1447
  567MOL0     H74818   0.945   4.377   5.189 -2.1784  0.5758  0.6746
  567MOL0     H74819   0.958   4.289   5.335  1.9822 -0.3314 -1.0911
  567MOL0     H74820   0.743   4.153   5.267 -4.8764  0.6892 -0.5951
  567MOL0     H74821   0.749   4.244   5.121 -1.2396 -1.6846  0.6260
  567MOL0     H74822   0.713   4.372   5.409 -0.2495  1.6725 -0.2303
  567MOL0     H74823   0.713   4.461   5.265 -1.7695 -0.2014  0.0612
  567MOL0     H74824   0.529   4.289   5.196  0.2887 -3.2629  1.0096
  567MOL0     H74825   0.504   4.432   5.305  1.1168 -0.4831  2.4875
  567MOL0     H74826   1.635   3.977   5.071  1.8541 -0.2641  0.5397
  567MOL0     H74827   1.863   4.049   5.049 -1.7435 -1.2082  0.7167
  567MOL0     H74828   2.117   4.429   5.094  0.3091 -0.1976 -0.8353
  567MOL0     H74829   2.336   4.534   5.058 -2.1777 -2.0208 -2.8229
  567MOL0     H74830   3.968   5.375   5.048  0.6060  3.2345 -0.0707
  567MOL0     H74831   4.206   5.399   4.986 -1.1953 -2.9008 -0.8429
  567MOL0     H74832   4.624   5.223   5.025 -2.9834  0.8014  1.9946
  567MOL0     H74833   4.862   5.196   4.982 -2.1369 -0.7704  0.3925
  567MOL0     H74834   5.141   5.500   5.137 -1.3946 -0.1704  4.1814
  567MOL0     H74835   5.250   5.377   5.068  0.7491 -0.3535  2.4840
  567MOL0     H74836   5.242   5.421   5.339 -0.2076 -0.2895  0.2955
  567MOL0     H74837   5.105   5.314   5.327 -0.4630 -0.2065 -2.0527
  567MOL0     H74838   5.371   5.233   5.188 -0.1302 -3.5987  0.0145
  567MOL0     H74839   5.232   5.136   5.236 -0.6132 -0.8036 -0.5208
  567MOL0     H74840   5.427   5.286   5.417  1.5449  0.7707 -5.8896
  567MOL0     H74841   5.291   5.199   5.476 -0.8433 -2.3149 -0.2719
  567MOL0     H74842   5.573   4.894   5.392  0.0623 -0.2326  1.3442
  567MOL0     H74843   4.971   5.502   5.270  0.7573  1.3993 -1.4264
  567MOL0     H74844   4.724   5.524   5.331  0.6679 -0.4972  0.5586
  568MOL0     O74845   0.508   2.378   6.035 -0.0745 -0.0457  0.6036
  568MOL0     C74846   0.544   2.444   5.937 -0.3066  0.2123  1.0107
  568MOL0     O74847   0.482   2.448   5.815  0.5554 -0.9718 -0.4858
  568MOL0     C74848   0.355   2.395   5.813  0.0274  0.6759 -0.4303
  568MOL0     C74849   0.256   2.438   5.901 -0.1918  0.6637  0.2152
  568MOL0     C74850   0.124   2.383   5.892  0.2311  0.5471 -0.1353
  568MOL0     C74851   0.100   2.270   5.801  0.0731 -0.6907 -0.0518
  568MOL0     O74852  -0.014   2.191   5.774 -0.0720 -0.2816  0.2289
  568MOL0     C74853  -0.107   2.178   5.878  0.4449  0.4418 -0.8537
  568MOL0     C74854  -0.072   2.057   5.967 -0.2114 -0.5321 -0.8424
  568MOL0     C74855   0.022   1.947   5.912  0.7969  0.5193  0.9150
  568MOL0     C74856   0.035   1.840   6.011  0.3780  0.8377 -0.2250
  568MOL0     C74857   0.174   1.775   6.030  0.2064 -0.7129  0.5588
  568MOL0     C74858   0.162   1.670   6.129  0.3495  0.6889 -0.2254
  568MOL0     C74859   0.298   1.595   6.134  0.1341  0.3084  0.2972
  568MOL0     C74860   0.416   1.661   6.215  0.3825 -0.5953 -0.6445
  568MOL0     N74861   0.542   1.599   6.173 -0.1522 -0.3786  0.2546
  568MOL0     C74862   0.617   1.489   6.212  0.8824 -0.5183 -0.9098
  568MOL0     C74863   0.740   1.515   6.163  0.1030  0.1494 -0.0454
  568MOL0     C74864   0.856   1.421   6.187  0.4653 -0.5314 -0.0027
  568MOL0     C74865   0.993   1.497   6.157  0.3835 -0.0179  0.9439
  568MOL0     C74866   1.119   1.417   6.176  0.4780  0.6350 -0.7399
  568MOL0     C74867   1.238   1.507   6.175  0.6155  0.5844 -0.0406
  568MOL0     O74868   1.353   1.434   6.147  0.5968 -0.0921  0.6155
  568MOL0     C74869   1.477   1.493   6.166  0.0190  1.3334 -0.6573
  568MOL0     C74870   1.498   1.622   6.201 -0.0660  0.3838  0.3670
  568MOL0     C74871   1.626   1.675   6.212  0.0537  0.2259 -0.0087
  568MOL0     C74872   1.742   1.598   6.186 -0.9453 -0.2901  0.2341
  568MOL0     C74873   1.873   1.650   6.197  0.0201  0.4551 -0.7377
  568MOL0     O74874   1.883   1.758   6.278 -0.4059  0.3698 -0.1078
  568MOL0     C74875   2.010   1.818   6.304 -0.0766  0.6952 -0.1106
  568MOL0     C74876   2.057   1.931   6.225  0.0413  0.6589 -0.0957
  568MOL0     C74877   2.186   1.988   6.248 -0.6152  0.4330 -0.0795
  568MOL0     C74878   2.258   1.946   6.359  0.0698 -0.7329  1.3680
  568MOL0     O74879   2.373   2.011   6.385 -0.7012  0.2572 -0.4253
  568MOL0     C74880   2.464   1.939   6.466  0.0358 -0.1601 -0.0712
  568MOL0     C74881   2.612   1.985   6.454  0.3647 -0.3848  0.1402
  568MOL0     C74882   2.666   1.954   6.313 -0.2632  0.2585  0.2947
  568MOL0     C74883   2.811   1.987   6.288 -0.0165 -0.2558 -0.4252
  568MOL0     C74884   2.847   1.964   6.145 -0.1857 -0.0223 -0.4642
  568MOL0     C74885   2.780   2.072   6.058  0.5382 -0.1039  0.9214
  568MOL0     C74886   2.866   2.200   6.056 -0.1397 -0.2449  0.5373
  568MOL0     C74887   2.785   2.330   6.028  0.1690 -0.1389 -0.3850
  568MOL0    Cl74888   2.727   2.341   5.863 -0.0807  0.2168  0.2783
  568MOL0     C74889   2.210   1.837   6.438  0.2727 -0.9599  0.1687
  568MOL0     C74890   2.085   1.769   6.416 -0.7044 -0.6009  0.5731
  568MOL0     O74891   1.969   1.595   6.142 -0.0329 -0.1631  0.3368
  568MOL0     C74892   1.720   1.465   6.145 -0.2845  0.0540 -0.0814
  568MOL0     C74893   1.591   1.410   6.133 -0.0488 -0.0473  0.2691
  568MOL0     N74894   0.737   1.634   6.093  0.1544  0.1879 -0.0771
  568MOL0     N74895   0.618   1.677   6.097  0.4510  0.1496 -0.6518
  568MOL0     C74896   0.206   2.224   5.721  0.1495 -0.5501 -0.4061
  568MOL0     C74897   0.332   2.287   5.727  0.6507  1.1206  0.2914
  568MOL0     C74898   0.669   2.530   5.941 -0.1194  0.0840 -0.2757
  568MOL0     C74899   0.738   2.534   6.068 -0.7247  0.3504  0.1370
  568MOL0     C74900   0.855   2.615   6.084  0.8465  0.2768 -0.1356
  568MOL0     C74901   0.897   2.690   5.971 -0.0797 -0.6713 -0.1049
  568MOL0     O74902   1.003   2.780   5.968  0.2979 -0.0833 -0.3640
  568MOL0     C74903   1.047   2.842   6.088 -0.1529 -0.1921  0.2440
  568MOL0     C74904   1.185   2.905   6.068  0.9697 -0.2364 -0.0621
  568MOL0     C74905   1.282   2.809   6.001  0.3689  0.0962 -0.3340
  568MOL0     C74906   1.322   2.678   6.078  1.0611  0.1676  0.3111
  568MOL0     C74907   1.416   2.708   6.191  1.2357 -0.1755  0.8460
  568MOL0     C74908   1.503   2.747   6.259  0.4844 -0.1762 -0.7128
  568MOL0     C74909   0.836   2.685   5.846  0.3483  1.2504  0.0085
  568MOL0     C74910   0.716   2.599   5.831 -0.6899 -0.4960 -0.0297
  568MOL0     H74911   0.273   2.511   5.980  0.2787 -0.2882  1.0084
  568MOL0     H74912   0.042   2.418   5.954 -0.5580 -0.6084 -0.4800
  568MOL0     H74913  -0.207   2.167   5.837  0.7057  0.3218 -1.4769
  568MOL0     H74914  -0.119   2.263   5.946 -1.1772 -1.0185  0.7953
  568MOL0     H74915  -0.159   2.004   6.007  1.1923 -2.0506  0.3523
  568MOL0     H74916  -0.019   2.113   6.045 -1.3063  1.5754 -1.5467
  568MOL0     H74917   0.118   1.994   5.891 -0.1216  1.6314 -1.1241
  568MOL0     H74918  -0.018   1.914   5.816 -0.7911  0.3870  1.5759
  568MOL0     H74919   0.003   1.881   6.107 -2.8251 -0.2349 -0.7249
  568MOL0     H74920  -0.031   1.760   5.976  0.1835  1.0683 -0.3907
  568MOL0     H74921   0.243   1.847   6.076 -0.9180 -1.1551  3.1230
  568MOL0     H74922   0.202   1.744   5.929 -1.2503  0.9354 -0.3995
  568MOL0     H74923   0.082   1.602   6.101  0.9352 -0.1117  0.0136
  568MOL0     H74924   0.133   1.712   6.226  1.3328  1.2271 -0.1440
  568MOL0     H74925   0.277   1.504   6.191  0.4345  0.0936  0.0685
  568MOL0     H74926   0.339   1.574   6.035  1.6501  2.7351  0.3392
  568MOL0     H74927   0.408   1.636   6.321 -1.0848 -1.9795 -1.0472
  568MOL0     H74928   0.425   1.769   6.196  1.7342 -0.9171 -2.0118
  568MOL0     H74929   0.582   1.406   6.273 -1.8151  1.7398  0.9081
  568MOL0     H74930   0.853   1.335   6.120 -0.3022 -0.8965  0.4920
  568MOL0     H74931   0.863   1.393   6.292 -1.0721 -0.1782  0.2067
  568MOL0     H74932   1.009   1.582   6.224  0.2318  1.0785 -0.3728
  568MOL0     H74933   0.986   1.520   6.050  1.0418  0.3853  0.9785
  568MOL0     H74934   1.109   1.356   6.266  1.5338  0.3130 -0.8279
  568MOL0     H74935   1.125   1.345   6.094 -2.0112 -0.1106 -0.3636
  568MOL0     H74936   1.241   1.573   6.263 -1.1509  2.1919 -1.0958
  568MOL0     H74937   1.224   1.591   6.106  0.6343 -0.0645 -0.8356
  568MOL0     H74938   1.421   1.685   6.244 -1.0376 -0.5761  0.0683
  568MOL0     H74939   1.625   1.776   6.252  4.3466  1.3781 -2.2526
  568MOL0     H74940   1.993   1.982   6.154  1.0800  1.7984 -0.2400
  568MOL0     H74941   2.219   2.065   6.179 -2.9126 -0.3777 -2.2465
  568MOL0     H74942   2.449   1.833   6.444  0.1504 -0.4228  1.0428
  568MOL0     H74943   2.430   1.965   6.567  3.4081  1.2587  0.8551
  568MOL0     H74944   2.668   1.930   6.530 -0.1699  1.4580  1.9507
  568MOL0     H74945   2.621   2.094   6.466 -0.5084 -0.2141 -0.6533
  568MOL0     H74946   2.597   1.984   6.234  0.7146 -0.4691 -0.8752
  568MOL0     H74947   2.675   1.845   6.309  1.8962  0.3937 -0.2400
  568MOL0     H74948   2.834   2.090   6.316 -0.1692 -0.7528  1.6959
  568MOL0     H74949   2.874   1.928   6.354 -0.4397  3.0293  3.3114
  568MOL0     H74950   2.813   1.863   6.120  2.1055 -1.5084  1.9323
  568MOL0     H74951   2.955   1.960   6.127 -0.0520 -2.6688  0.5162
  568MOL0     H74952   2.673   2.085   6.073  0.7564 -1.3154  4.2515
  568MOL0     H74953   2.782   2.040   5.953  0.7244  1.6370  0.3619
  568MOL0     H74954   2.920   2.208   6.151 -1.0813 -0.7074  1.1306
  568MOL0     H74955   2.949   2.188   5.987 -2.4389  0.1785 -2.4810
  568MOL0     H74956   2.846   2.419   6.041 -0.7448  0.2712  1.3548
  568MOL0     H74957   2.703   2.345   6.100  0.9763  3.2500 -0.0413
  568MOL0     H74958   2.263   1.816   6.530 -0.1885 -1.0475  0.4107
  568MOL0     H74959   2.057   1.691   6.485 -2.5592 -0.1390  0.3792
  568MOL0     H74960   1.813   1.410   6.134  0.8449  1.3209  2.3793
  568MOL0     H74961   1.586   1.305   6.107  1.6601 -0.1686  0.3019
  568MOL0     H74962   0.186   2.126   5.679 -0.3215 -0.0585 -1.3601
  568MOL0     H74963   0.416   2.242   5.676 -0.0385 -2.9743  2.3341
  568MOL0     H74964   0.702   2.470   6.148 -1.1089 -0.3747 -0.6064
  568MOL0     H74965   0.914   2.606   6.175 -3.4721 -2.7189  2.7523
  568MOL0     H74966   1.064   2.763   6.162  4.6833  0.3944  0.0198
  568MOL0     H74967   0.991   2.928   6.125  2.9976  1.6428  1.0870
  568MOL0     H74968   1.162   2.986   5.997 -0.2177  0.3456  0.9595
  568MOL0     H74969   1.237   2.926   6.162  5.2484 -3.6102 -1.3384
  568MOL0     H74970   1.369   2.874   5.987  0.5083  0.2720  1.2346
  568MOL0     H74971   1.255   2.792   5.896  2.7564  0.4710 -1.0706
  568MOL0     H74972   1.232   2.635   6.123  0.3611  2.0902  0.8518
  568MOL0     H74973   1.371   2.599   6.021  1.1995 -0.4592  1.2711
  568MOL0     H74974   1.588   2.773   6.319 -0.1835 -1.0337  0.6504
  568MOL0     H74975   0.894   2.742   5.774 -0.0798  3.1291  1.0879
  568MOL0     H74976   0.667   2.578   5.736 -4.1781  1.6769  1.0916
  569MOL0     O74977   4.052   3.061   0.706 -0.1568 -0.6464 -0.0550
  569MOL0     C74978   4.039   2.998   0.805 -0.3464  0.5905 -1.3488
  569MOL0     O74979   4.146   2.944   0.875 -0.2150  0.0717 -0.6049
  569MOL0     C74980   4.274   2.962   0.830  0.4053 -0.3017  0.0175
  569MOL0     C74981   4.310   2.948   0.694 -0.2902  0.2922  0.4906
  569MOL0     C74982   4.437   2.974   0.639  0.2215 -0.3690 -0.6004
  569MOL0     C74983   4.536   3.008   0.735 -0.0913  0.8666 -0.5329
  569MOL0     O74984   4.653   3.045   0.677 -0.4842 -0.1242  0.7691
  569MOL0     C74985   4.778   2.998   0.736 -0.2596 -0.3248  0.0837
  569MOL0     C74986   4.837   2.889   0.653 -0.2990 -1.4379 -0.3348
  569MOL0     C74987   4.957   2.834   0.737  0.1547 -0.0105  0.4306
  569MOL0     C74988   5.040   2.740   0.649 -0.2573  0.8452  0.4858
  569MOL0     C74989   5.156   2.672   0.728 -0.6123 -0.3815 -0.4710
  569MOL0     C74990   5.224   2.593   0.608  0.0359  0.2942  0.6406
  569MOL0     C74991   5.330   2.491   0.625 -0.1884 -0.7165 -0.0519
  569MOL0     C74992   5.382   2.406   0.500 -0.1055 -0.4219 -0.3898
  569MOL0     N74993   5.473   2.300   0.548 -0.0949  0.1507 -0.0488
  569MOL0     C74994   5.568   2.291   0.652  0.0650  1.0789  0.0218
  569MOL0     C74995   5.638   2.173   0.629 -0.4327 -0.4310  0.2803
  569MOL0     C74996   5.735   2.104   0.717 -0.6270 -0.2390  0.4798
  569MOL0     C74997   5.860   2.067   0.633 -0.1927  0.0259  0.2430
  569MOL0     C74998   5.984   2.005   0.694  0.0770  0.4393 -0.6487
  569MOL0     C74999   6.085   1.954   0.593 -0.1560  0.7122  0.3342
  569MOL0     O75000   6.124   2.051   0.494 -0.5807 -0.6513 -0.2771
  569MOL0     C75001   6.223   2.004   0.411  0.8161  0.2610  0.0210
  569MOL0     C75002   6.246   1.863   0.379 -0.5696 -0.5580  0.2920
  569MOL0     C75003   6.348   1.829   0.299 -1.3604  0.0260 -0.4852
  569MOL0     C75004   6.449   1.925   0.253 -0.1722  0.2116  0.3720
  569MOL0     C75005   6.557   1.896   0.152  0.0954  0.9999  0.1311
  569MOL0     O75006   6.574   1.770   0.108  0.1733  0.0518 -0.7730
  569MOL0     C75007   6.649   1.724   0.003 -0.1912  0.2218  0.4123
  569MOL0     C75008   6.674   1.805  -0.112  0.8438  0.1763  0.7652
  569MOL0     C75009   6.750   1.744  -0.219 -0.1822  0.7507  0.3592
  569MOL0     C75010   6.804   1.608  -0.214 -0.1492  0.5141  0.6064
  569MOL0     O75011   6.872   1.541  -0.324 -0.2615  0.0405 -0.0988
  569MOL0     C75012   6.897   1.617  -0.444  0.9800 -0.8910  0.0445
  569MOL0     C75013   6.940   1.529  -0.551  0.0186  0.1639 -0.6794
  569MOL0     C75014   6.976   1.613  -0.675 -0.1519  0.6218 -0.1437
  569MOL0     C75015   6.997   1.531  -0.809  0.3789 -0.5505  0.0603
  569MOL0     C75016   6.948   1.616  -0.935 -0.1069  0.1780 -0.1940
  569MOL0     C75017   7.025   1.583  -1.064 -0.7489 -0.9476  0.6599
  569MOL0     C75018   7.012   1.437  -1.110  0.0852  0.1192 -0.3158
  569MOL0     C75019   6.858   1.397  -1.133  0.1717 -0.2457  0.1868
  569MOL0    Cl75020   6.849   1.225  -1.190  0.4464  0.1682 -0.3816
  569MOL0     C75021   6.771   1.535  -0.096 -0.1456  0.1724 -1.2108
  569MOL0     C75022   6.693   1.592   0.007  0.6964  0.5754  1.0987
  569MOL0     O75023   6.623   1.993   0.123 -0.6677  0.9175 -0.2393
  569MOL0     C75024   6.424   2.060   0.289 -0.3048  0.2081  0.1642
  569MOL0     C75025   6.314   2.100   0.366 -0.3293  0.6324  0.2590
  569MOL0     N75026   5.578   2.117   0.510  0.6219  0.4044  1.1168
  569MOL0     N75027   5.487   2.194   0.468  0.6941 -0.4651 -0.4293
  569MOL0     C75028   4.508   3.010   0.880  0.9387  1.2002  0.8776
  569MOL0     C75029   4.372   2.993   0.926 -0.3997 -0.4291 -0.3478
  569MOL0     C75030   3.906   2.961   0.849  0.1245  0.2339 -0.0019
  569MOL0     C75031   3.796   2.968   0.765  0.0334 -0.2364  0.6651
  569MOL0     C75032   3.673   2.929   0.815 -0.0001 -0.1664  0.3745
  569MOL0     C75033   3.648   2.906   0.951 -0.3971  0.0132  0.6084
  569MOL0     O75034   3.522   2.877   0.995  0.5188 -0.7196 -0.1554
  569MOL0     C75035   3.485   2.877   1.136 -0.1420 -0.5612  0.2125
  569MOL0     C75036   3.333   2.864   1.164  0.4240  0.1860 -0.1508
  569MOL0     C75037   3.288   2.716   1.145  0.0561 -0.4564  0.2664
  569MOL0     C75038   3.147   2.679   1.191 -0.4417  0.1456  0.5080
  569MOL0     C75039   3.143   2.532   1.203 -0.6363  1.1239 -0.4439
  569MOL0     C75040   3.135   2.409   1.223  0.8065  0.0768 -0.3589
  569MOL0     C75041   3.761   2.908   1.034  0.5883  0.8310 -0.7616
  569MOL0     C75042   3.884   2.929   0.987  0.2097 -0.0338  0.2565
  569MOL0     H75043   4.236   2.915   0.622  2.1823  2.1769 -3.1893
  569MOL0     H75044   4.453   2.964   0.532 -0.1552  0.9395 -0.8053
  569MOL0     H75045   4.760   2.964   0.839  2.8275  0.9932  1.1718
  569MOL0     H75046   4.858   3.071   0.750  1.1177 -1.9164  0.9367
  569MOL0     H75047   4.860   2.939   0.558 -1.9454  1.9360  0.8520
  569MOL0     H75048   4.760   2.814   0.632 -0.8186 -1.1745  0.5542
  569MOL0     H75049   4.918   2.780   0.824  0.2102  0.0233  0.4759
  569MOL0     H75050   5.024   2.908   0.782  2.8235 -1.4824 -0.8783
  569MOL0     H75051   4.965   2.675   0.602 -1.2993  2.8679 -0.7769
  569MOL0     H75052   5.087   2.797   0.568  1.5056  0.0504  0.8836
  569MOL0     H75053   5.111   2.609   0.805 -1.0832  0.5033 -0.0039
  569MOL0     H75054   5.233   2.732   0.778 -1.9094  0.0402  1.1108
  569MOL0     H75055   5.263   2.662   0.533 -0.7083 -2.8427 -2.9861
  569MOL0     H75056   5.147   2.544   0.547 -0.1472 -0.8545  1.7477
  569MOL0     H75057   5.418   2.531   0.677  0.4829 -1.5976 -0.4610
  569MOL0     H75058   5.288   2.414   0.689 -0.7898  0.6054  1.1829
  569MOL0     H75059   5.429   2.473   0.428 -0.9463  0.6000 -0.0000
  569MOL0     H75060   5.295   2.361   0.452 -0.1596  1.2068 -1.9399
  569MOL0     H75061   5.591   2.368   0.725 -1.9713  2.7483 -0.9854
  569MOL0     H75062   5.682   2.017   0.758 -0.6452  0.0696  1.1325
  569MOL0     H75063   5.757   2.173   0.799  0.1123 -0.6170  0.6088
  569MOL0     H75064   5.891   2.159   0.582  1.6389 -0.6420  0.0656
  569MOL0     H75065   5.833   1.990   0.560  0.7436  0.1450 -0.2488
  569MOL0     H75066   6.034   2.073   0.764  2.6511 -0.8908 -1.0495
  569MOL0     H75067   5.941   1.926   0.756  0.9167  1.4698  1.3512
  569MOL0     H75068   6.038   1.873   0.536 -0.6222  1.6150 -0.6072
  569MOL0     H75069   6.167   1.912   0.652  0.7817 -0.1556 -1.4861
  569MOL0     H75070   6.192   1.781   0.426  1.8257 -1.7437  1.1475
  569MOL0     H75071   6.351   1.726   0.268  0.2618 -0.8695  2.2395
  569MOL0     H75072   6.631   1.904  -0.124 -3.3353 -1.4947  0.4221
  569MOL0     H75073   6.766   1.807  -0.305 -0.5438  1.2903  0.6842
  569MOL0     H75074   6.973   1.695  -0.432  1.0624 -0.6919 -1.4889
  569MOL0     H75075   6.805   1.669  -0.473  1.1161 -1.2391 -1.0679
  569MOL0     H75076   6.862   1.456  -0.573 -1.6554  0.7348  2.8060
  569MOL0     H75077   7.012   1.458  -0.510 -1.3098  0.6339  2.7256
  569MOL0     H75078   7.070   1.667  -0.656  0.9216 -1.0050 -0.6146
  569MOL0     H75079   6.891   1.678  -0.696 -0.5665 -0.2092 -1.0847
  569MOL0     H75080   7.105   1.523  -0.819  0.6823  0.9087  1.7221
  569MOL0     H75081   6.950   1.433  -0.796  1.8224 -1.1402  1.0802
  569MOL0     H75082   6.953   1.721  -0.908  2.7855  0.2217 -0.5938
  569MOL0     H75083   6.842   1.591  -0.947 -0.6281  2.7611 -2.0138
  569MOL0     H75084   7.129   1.616  -1.063 -1.3766  1.1724  0.3532
  569MOL0     H75085   6.982   1.645  -1.143  2.9241  0.4203 -0.4758
  569MOL0     H75086   7.066   1.416  -1.203 -0.7592  0.5416 -0.9159
  569MOL0     H75087   7.055   1.385  -1.024  1.4002  1.7917  0.0965
  569MOL0     H75088   6.831   1.477  -1.203  1.3481  1.8267  1.9837
  569MOL0     H75089   6.800   1.419  -1.043  1.8636  2.5127  0.7007
  569MOL0     H75090   6.805   1.433  -0.083 -0.3039  0.4478  2.1261
  569MOL0     H75091   6.664   1.534   0.094  1.2929 -0.2700  0.7596
  569MOL0     H75092   6.496   2.137   0.264  0.3040 -0.7582 -1.1945
  569MOL0     H75093   6.297   2.206   0.384 -0.6672  0.7143 -0.5474
  569MOL0     H75094   4.585   3.039   0.951 -0.2175  2.6420  1.5966
  569MOL0     H75095   4.341   2.997   1.030 -0.5109  0.1246 -0.3971
  569MOL0     H75096   3.794   2.970   0.657  0.2643 -0.3442  0.6577
  569MOL0     H75097   3.584   2.918   0.755  0.6148  3.4185 -1.4732
  569MOL0     H75098   3.522   2.966   1.187  1.1959 -0.3568 -1.0467
  569MOL0     H75099   3.544   2.800   1.187  1.0096 -0.8581 -1.4665
  569MOL0     H75100   3.316   2.881   1.270 -2.7806 -0.5842 -0.4508
  569MOL0     H75101   3.271   2.931   1.104 -1.3919 -0.9646  0.3620
  569MOL0     H75102   3.355   2.646   1.194  0.6659  0.6616  1.0619
  569MOL0     H75103   3.292   2.703   1.036 -3.7718  0.7629 -0.1820
  569MOL0     H75104   3.134   2.726   1.289  0.7836 -0.7581  1.1397
  569MOL0     H75105   3.071   2.700   1.116  0.1376 -1.5777 -0.6155
  569MOL0     H75106   3.122   2.307   1.252 -0.7038  0.4781  0.4814
  569MOL0     H75107   3.747   2.873   1.135  0.8058  0.8873 -0.7104
  569MOL0     H75108   3.962   2.918   1.062 -2.9586 -3.4968  3.4434
  570MOL0     O75109   3.452   9.169   1.243  0.6889 -0.5920  0.1688
  570MOL0     C75110   3.473   9.166   1.123 -0.1445 -0.6087 -0.1391
  570MOL0     O75111   3.376   9.171   1.022 -0.0616  0.0824 -1.3714
  570MOL0     C75112   3.246   9.198   1.058  0.8582 -0.7626 -0.0064
  570MOL0     C75113   3.181   9.309   0.996  0.1229 -0.0864  0.8952
  570MOL0     C75114   3.041   9.326   1.013  1.1994  0.3963  0.4069
  570MOL0     C75115   2.975   9.255   1.103 -0.3992 -0.1465  0.3871
  570MOL0     O75116   2.845   9.293   1.118  0.1975  0.3313  0.4081
  570MOL0     C75117   2.746   9.194   1.159  0.3120  0.2988 -0.0841
  570MOL0     C75118   2.697   9.094   1.055 -0.3695 -0.1771  1.0208
  570MOL0     C75119   2.636   8.968   1.115  0.2991 -0.2632 -0.3900
  570MOL0     C75120   2.559   8.892   1.004  0.0961  0.0062 -0.0475
  570MOL0     C75121   2.435   8.949   0.941 -0.2995  0.9274  0.1637
  570MOL0     C75122   2.345   8.839   0.869  0.1734 -0.6529  0.5330
  570MOL0     C75123   2.241   8.777   0.974  0.1737  1.1023  0.8401
  570MOL0     C75124   2.128   8.870   1.018 -0.4876  0.2731 -0.0195
  570MOL0     N75125   2.023   8.871   0.916 -0.5980  0.1949 -0.2558
  570MOL0     C75126   2.031   8.962   0.811  0.2603  0.1762  0.2024
  570MOL0     C75127   1.918   8.945   0.741  0.0612  0.5550  0.1753
  570MOL0     C75128   1.884   9.010   0.611  0.0347 -1.1419  0.2289
  570MOL0     C75129   1.773   9.114   0.626 -0.6143  0.5496 -0.1868
  570MOL0     C75130   1.732   9.202   0.505  0.4680 -0.0190 -0.4929
  570MOL0     C75131   1.837   9.232   0.404 -0.5829  0.2325  0.0922
  570MOL0     O75132   1.799   9.354   0.350  0.4206 -0.3118  0.0780
  570MOL0     C75133   1.682   9.366   0.275 -0.6774  0.8319 -0.5147
  570MOL0     C75134   1.645   9.495   0.250  0.2974 -0.5458  0.7258
  570MOL0     C75135   1.541   9.526   0.159 -0.0727  0.5542 -0.1532
  570MOL0     C75136   1.470   9.419   0.094 -0.1824 -1.1104 -0.3109
  570MOL0     C75137   1.354   9.442   0.007 -1.2924 -0.0572 -0.0407
  570MOL0     O75138   1.297   9.336  -0.057  0.4551  1.0328 -0.1341
  570MOL0     C75139   1.168   9.342  -0.115 -1.0063  0.1552  0.0389
  570MOL0     C75140   1.067   9.438  -0.088 -0.6085 -0.8873  0.7329
  570MOL0     C75141   0.938   9.425  -0.149 -0.2144 -0.5385 -0.4921
  570MOL0     C75142   0.917   9.324  -0.244  0.0754 -0.5778  1.4565
  570MOL0     O75143   0.798   9.295  -0.306 -0.3481  0.7728 -0.2059
  570MOL0     C75144   0.755   9.364  -0.425  0.0670  0.2680 -0.0172
  570MOL0     C75145   0.837   9.327  -0.536 -0.6180  0.3847  0.6345
  570MOL0     C75146   0.791   9.405  -0.662  0.0628  0.1930  0.2051
  570MOL0     C75147   0.864   9.348  -0.786  0.1948 -0.6702  0.4421
  570MOL0     C75148   0.804   9.392  -0.918  0.4875  0.3734 -0.6458
  570MOL0     C75149   0.871   9.344  -1.048  0.0245  0.4118 -0.4170
  570MOL0     C75150   1.017   9.392  -1.078  0.3366  0.6844 -0.3866
  570MOL0     C75151   1.052   9.369  -1.224 -0.3194 -0.2394 -0.0244
  570MOL0    Cl75152   1.197   9.454  -1.283  0.2607  0.5298  0.2396
  570MOL0     C75153   1.019   9.239  -0.274  0.0778 -0.1962  0.0343
  570MOL0     C75154   1.143   9.243  -0.211 -0.1327  0.0028  0.0594
  570MOL0     O75155   1.314   9.559   0.008  0.1116 -0.0231  0.3470
  570MOL0     C75156   1.527   9.295   0.108 -0.8708  0.0995 -0.1941
  570MOL0     C75157   1.625   9.264   0.198  0.0888  0.8920 -0.2771
  570MOL0     N75158   1.837   8.863   0.813  0.0985  0.0722  0.2100
  570MOL0     N75159   1.892   8.822   0.919 -0.2494 -0.6369 -1.1074
  570MOL0     C75160   3.042   9.144   1.162  0.0546 -0.3974 -0.6409
  570MOL0     C75161   3.171   9.108   1.138 -0.4332 -0.5099  0.2976
  570MOL0     C75162   3.603   9.116   1.080 -0.5449 -0.3601 -0.3990
  570MOL0     C75163   3.635   9.104   0.942  1.5280  0.5391 -0.1557
  570MOL0     C75164   3.745   9.034   0.897 -0.4402  0.6587 -0.1441
  570MOL0     C75165   3.833   8.987   0.983 -0.3222 -1.2290  0.4159
  570MOL0     O75166   3.947   8.914   0.962 -0.1639 -0.3104  0.2579
  570MOL0     C75167   4.012   8.939   0.830  0.1054 -0.5976  0.0762
  570MOL0     C75168   4.142   9.019   0.864 -1.4248 -0.0658  1.1088
  570MOL0     C75169   4.227   8.936   0.960  0.3358  0.2494  0.6351
  570MOL0     C75170   4.360   8.992   0.986  0.2862  0.7800 -0.4124
  570MOL0     C75171   4.401   8.914   1.102  1.0103  0.5928 -0.8436
  570MOL0     C75172   4.442   8.859   1.203  0.9131 -0.1766  0.6280
  570MOL0     C75173   3.821   9.013   1.120  0.4721 -0.2627  0.3919
  570MOL0     C75174   3.702   9.081   1.175 -0.0889 -0.1161 -0.4899
  570MOL0     H75175   3.250   9.372   0.941 -0.6550  0.3584  0.4021
  570MOL0     H75176   2.990   9.411   0.968  1.6425  1.5595  2.0140
  570MOL0     H75177   2.658   9.257   1.175 -1.4252 -1.7729 -0.8918
  570MOL0     H75178   2.787   9.143   1.246  0.5289 -0.7282 -0.7641
  570MOL0     H75179   2.789   9.067   1.002 -1.3048  2.6917 -2.4758
  570MOL0     H75180   2.638   9.139   0.974 -0.3745 -1.9012  0.0037
  570MOL0     H75181   2.574   8.983   1.204  2.2472 -0.3348  1.0307
  570MOL0     H75182   2.712   8.897   1.148 -0.9840 -0.3109  2.8299
  570MOL0     H75183   2.625   8.863   0.922  0.2742  1.1480 -0.3314
  570MOL0     H75184   2.528   8.801   1.056  1.3435 -0.6754 -0.4638
  570MOL0     H75185   2.482   9.002   0.858 -1.5865 -1.0760 -1.9557
  570MOL0     H75186   2.380   9.019   1.005 -1.3694  0.7456 -0.5550
  570MOL0     H75187   2.408   8.762   0.823 -0.6188 -0.1287 -1.5242
  570MOL0     H75188   2.289   8.890   0.791 -0.7185 -2.5834 -0.1642
  570MOL0     H75189   2.192   8.691   0.928  2.1487  1.5082 -2.2957
  570MOL0     H75190   2.295   8.757   1.068 -0.1139  0.5537  0.8905
  570MOL0     H75191   2.175   8.966   1.040  1.8082 -0.8683  0.4854
  570MOL0     H75192   2.081   8.839   1.112  0.8328 -1.6143  0.0815
  570MOL0     H75193   2.114   9.029   0.790 -2.3887  3.7369  0.0682
  570MOL0     H75194   1.847   8.934   0.541 -0.1323 -0.5419 -0.3388
  570MOL0     H75195   1.977   9.047   0.566  0.0835 -1.9700 -0.3734
  570MOL0     H75196   1.796   9.172   0.716  1.9839 -0.4909 -0.1080
  570MOL0     H75197   1.687   9.057   0.664 -0.1860 -2.4529 -3.2568
  570MOL0     H75198   1.656   9.148   0.446  2.1824 -0.2688 -2.6021
  570MOL0     H75199   1.690   9.291   0.553  0.1514 -1.3725  1.8896
  570MOL0     H75200   1.864   9.163   0.323  1.1086  0.9825 -0.0066
  570MOL0     H75201   1.937   9.247   0.446  0.3966  0.2378 -2.1089
  570MOL0     H75202   1.692   9.572   0.310 -0.1246 -0.8438  1.4559
  570MOL0     H75203   1.511   9.626   0.130 -0.8992  0.6485  0.9717
  570MOL0     H75204   1.082   9.519  -0.017 -0.8264  0.9913 -1.2459
  570MOL0     H75205   0.856   9.494  -0.134 -0.2912 -0.1563 -2.3189
  570MOL0     H75206   0.753   9.471  -0.404 -2.0320  0.2053  0.4033
  570MOL0     H75207   0.653   9.325  -0.430 -0.2134  1.0223 -0.4454
  570MOL0     H75208   0.834   9.219  -0.546 -0.0721  0.4512 -0.4249
  570MOL0     H75209   0.941   9.357  -0.517  0.0894 -0.6395 -1.3105
  570MOL0     H75210   0.803   9.513  -0.657  1.3030  0.0391  0.9275
  570MOL0     H75211   0.684   9.382  -0.672 -0.4582  2.4948 -0.0906
  570MOL0     H75212   0.971   9.369  -0.784  0.2949 -0.5425 -2.1578
  570MOL0     H75213   0.848   9.240  -0.781 -0.6375 -0.5505  0.5435
  570MOL0     H75214   0.797   9.501  -0.914 -0.2358  0.3051  1.5164
  570MOL0     H75215   0.702   9.354  -0.925  0.9293 -0.7824 -1.0638
  570MOL0     H75216   0.806   9.385  -1.125  0.7151 -0.3415 -1.4234
  570MOL0     H75217   0.863   9.235  -1.043  2.6625  0.2031  2.1599
  570MOL0     H75218   1.018   9.499  -1.055 -2.4404  0.7677 -0.3828
  570MOL0     H75219   1.090   9.347  -1.009 -1.0258 -0.4258  0.3655
  570MOL0     H75220   0.971   9.394  -1.292 -0.7167  0.4799  0.6942
  570MOL0     H75221   1.069   9.261  -1.234 -2.0976 -0.6063  0.6055
  570MOL0     H75222   1.008   9.163  -0.351 -0.9737  0.8230 -0.8766
  570MOL0     H75223   1.218   9.167  -0.234 -1.5817 -1.4796  0.0432
  570MOL0     H75224   1.488   9.213   0.047  1.7090 -1.6352  0.3506
  570MOL0     H75225   1.663   9.162   0.210  1.2023  0.9885 -2.4207
  570MOL0     H75226   2.982   9.095   1.239 -0.6827  2.5719  0.8018
  570MOL0     H75227   3.222   9.025   1.185 -0.6714 -0.9868 -0.2691
  570MOL0     H75228   3.562   9.126   0.865 -0.5693 -4.2698  0.1006
  570MOL0     H75229   3.744   9.028   0.788  0.2604 -2.4839 -0.0847
  570MOL0     H75230   3.952   8.988   0.754  1.1589 -0.4310 -0.6778
  570MOL0     H75231   4.051   8.847   0.784 -0.5774 -1.2752  0.8443
  570MOL0     H75232   4.195   9.041   0.771 -4.8689 -0.0578 -1.0571
  570MOL0     H75233   4.124   9.117   0.908 -0.6562  1.4980 -1.7517
  570MOL0     H75234   4.235   8.838   0.912 -4.0374 -0.2796  0.5461
  570MOL0     H75235   4.170   8.926   1.053  0.2372 -0.2733  0.5192
  570MOL0     H75236   4.443   8.974   0.916  1.9826  3.1350  0.8466
  570MOL0     H75237   4.347   9.096   1.015  1.5749  0.9591 -0.4045
  570MOL0     H75238   4.479   8.812   1.292  1.9129 -0.7274 -0.0557
  570MOL0     H75239   3.897   8.967   1.183  1.6155  0.4517 -0.4409
  570MOL0     H75240   3.687   9.096   1.282 -1.0985  0.9547 -0.7591
  571MOL0     O75241   5.841   9.582   7.191 -0.2624 -0.0096  0.9179
  571MOL0     C75242   5.910   9.604   7.286  1.1129 -1.0312 -0.6359
  571MOL0     O75243   5.876   9.590   7.425 -0.8311  0.0489  0.9930
  571MOL0     C75244   5.762   9.526   7.465  0.0725 -0.5547  0.0955
  571MOL0     C75245   5.667   9.578   7.552  0.6548  0.8829 -0.9085
  571MOL0     C75246   5.551   9.504   7.581  0.8287  0.7915  0.4343
  571MOL0     C75247   5.532   9.372   7.536 -0.7280 -0.1485 -0.6210
  571MOL0     O75248   5.428   9.285   7.560  0.1511  0.3095  0.3335
  571MOL0     C75249   5.300   9.348   7.608 -0.4895  1.0115  0.5738
  571MOL0     C75250   5.203   9.246   7.665  1.0619 -0.1891 -0.3400
  571MOL0     C75251   5.078   9.317   7.712 -0.3858  0.3516 -0.3168
  571MOL0     C75252   4.974   9.214   7.752 -0.1199 -0.0664  0.4917
  571MOL0     C75253   4.842   9.283   7.776  0.6644 -0.0314 -0.3882
  571MOL0     C75254   4.732   9.198   7.841 -0.3529 -0.7044  0.5046
  571MOL0     C75255   4.668   9.116   7.733  0.1999 -0.0124 -0.2556
  571MOL0     C75256   4.559   9.014   7.771 -1.1567 -0.5790  0.1871
  571MOL0     N75257   4.430   9.063   7.811  0.2321 -0.3701  0.9290
  571MOL0     C75258   4.402   9.128   7.922  0.8031  0.0306  0.2498
  571MOL0     C75259   4.268   9.125   7.933  0.0082 -0.2147  0.8631
  571MOL0     C75260   4.191   9.175   8.051  0.0689  0.9159 -0.7574
  571MOL0     C75261   4.063   9.237   8.002  0.3333  0.0028  0.0889
  571MOL0     C75262   3.995   9.311   8.120 -1.1711 -0.1083 -0.2042
  571MOL0     C75263   3.856   9.356   8.082  0.2962 -0.7256  0.3985
  571MOL0     O75264   3.868   9.475   7.995 -0.7320 -0.1548  0.2298
  571MOL0     C75265   3.750   9.535   7.959  0.5905 -0.4803  0.3776
  571MOL0     C75266   3.620   9.474   7.939 -0.4155  0.9110  0.2383
  571MOL0     C75267   3.501   9.537   7.903 -0.3709  0.2950 -0.7938
  571MOL0     C75268   3.520   9.664   7.855 -0.3763  0.3496 -0.8620
  571MOL0     C75269   3.403   9.723   7.797  0.0334 -0.1214 -0.1601
  571MOL0     O75270   3.282   9.662   7.821  0.0236 -0.4847  0.3457
  571MOL0     C75271   3.163   9.727   7.798  0.3621  0.2926 -0.0044
  571MOL0     C75272   3.135   9.846   7.727  0.2160 -0.3146 -0.9138
  571MOL0     C75273   2.998   9.888   7.719  0.0662  0.7659  0.6652
  571MOL0     C75274   2.887   9.801   7.755 -1.1373  0.6998  0.5109
  571MOL0     O75275   2.751   9.828   7.731  0.4094  0.5771 -0.5467
  571MOL0     C75276   2.711   9.918   7.626 -0.1955  0.0761  0.1708
  571MOL0     C75277   2.577   9.884   7.574 -0.3251 -0.7847 -0.9839
  571MOL0     C75278   2.526   9.974   7.467 -0.5618  0.4823 -1.2887
  571MOL0     C75279   2.377   9.948   7.420 -0.9532 -1.1565 -0.1709
  571MOL0     C75280   2.354   9.804   7.367 -0.5829 -0.6095  0.2748
  571MOL0     C75281   2.436   9.743   7.256 -0.0495  0.3270  0.6860
  571MOL0     C75282   2.405   9.602   7.226  0.0058  1.0819 -0.0335
  571MOL0     C75283   2.289   9.587   7.131 -0.3012 -0.4474 -0.1974
  571MOL0    Cl75284   2.266   9.406   7.124  0.0284 -0.1476  0.2311
  571MOL0     C75285   2.923   9.679   7.805 -0.1446  0.1895  0.1391
  571MOL0     C75286   3.052   9.645   7.832 -0.4577  1.1027  0.1554
  571MOL0     O75287   3.415   9.835   7.751 -0.3501  0.0637 -0.1426
  571MOL0     C75288   3.646   9.728   7.860  0.8837  0.0351 -0.1312
  571MOL0     C75289   3.760   9.662   7.913 -0.1852 -0.2214 -0.6199
  571MOL0     N75290   4.220   9.070   7.823 -0.3560 -0.1188  0.8165
  571MOL0     N75291   4.313   9.033   7.742  0.6572  0.1796 -0.1255
  571MOL0     C75292   5.627   9.320   7.446 -0.1360 -0.2166  0.7921
  571MOL0     C75293   5.742   9.398   7.413 -0.3943 -0.1544 -0.0874
  571MOL0     C75294   6.049   9.636   7.268  0.3898  0.2096 -0.1223
  571MOL0     C75295   6.140   9.645   7.369  0.3792 -0.6519 -0.0059
  571MOL0     C75296   6.282   9.666   7.348  1.0960  0.2649 -0.6655
  571MOL0     C75297   6.326   9.688   7.216 -0.4888  0.0920 -0.3893
  571MOL0     O75298   6.458   9.722   7.187 -0.6726 -0.0491  0.6251
  571MOL0     C75299   6.566   9.672   7.260  0.4274 -0.5731 -0.0287
  571MOL0     C75300   6.579   9.529   7.306  0.7819  0.3259  0.1813
  571MOL0     C75301   6.554   9.433   7.181  0.0411 -0.2308  0.2973
  571MOL0     C75302   6.683   9.425   7.096  0.7850  0.3138 -0.8516
  571MOL0     C75303   6.797   9.360   7.153 -0.1425  0.1548 -0.5004
  571MOL0     C75304   6.893   9.299   7.197  1.2572 -0.5241 -0.0901
  571MOL0     C75305   6.233   9.683   7.110 -1.4167  0.0463 -0.7364
  571MOL0     C75306   6.099   9.661   7.135 -0.2712 -0.6053 -0.3776
  571MOL0     H75307   5.685   9.677   7.591 -2.5525  1.2695 -0.0883
  571MOL0     H75308   5.485   9.531   7.662  0.5884  0.9339  0.1935
  571MOL0     H75309   5.254   9.398   7.522 -2.2570  0.7428  1.3061
  571MOL0     H75310   5.313   9.418   7.692  0.1929  0.5238  0.8815
  571MOL0     H75311   5.237   9.185   7.749  0.3734 -2.4774 -1.6453
  571MOL0     H75312   5.190   9.167   7.591  1.8602 -0.8181  0.1729
  571MOL0     H75313   5.040   9.370   7.624 -2.2059  2.1612  1.4513
  571MOL0     H75314   5.099   9.390   7.790 -2.1687  0.3608  0.2044
  571MOL0     H75315   4.961   9.135   7.678  1.9300  0.9038 -0.9933
  571MOL0     H75316   5.013   9.171   7.845  1.5438  2.3756  1.0272
  571MOL0     H75317   4.805   9.336   7.688  0.6263 -0.9089 -0.9088
  571MOL0     H75318   4.860   9.358   7.854 -1.0909 -0.6179  0.6305
  571MOL0     H75319   4.655   9.261   7.885 -2.4648 -0.1158 -3.4827
  571MOL0     H75320   4.776   9.132   7.916  2.0504 -2.3619 -2.1476
  571MOL0     H75321   4.627   9.182   7.656  2.5636 -0.0705 -1.6460
  571MOL0     H75322   4.749   9.061   7.684  1.3699  1.6517 -0.2662
  571MOL0     H75323   4.595   8.947   7.850 -2.0457 -0.5402  0.6322
  571MOL0     H75324   4.543   8.963   7.675  0.6748 -1.1118  0.1244
  571MOL0     H75325   4.475   9.150   7.999  2.3389 -2.4672 -0.3686
  571MOL0     H75326   4.255   9.235   8.116  1.3139  1.5562 -2.4982
  571MOL0     H75327   4.149   9.094   8.113  0.6816  1.4028  0.3205
  571MOL0     H75328   3.993   9.163   7.962 -0.4896  0.2775  0.9840
  571MOL0     H75329   4.091   9.306   7.921 -0.3057 -0.5801 -0.6374
  571MOL0     H75330   3.985   9.249   8.210 -3.1887 -0.5331 -0.6668
  571MOL0     H75331   4.049   9.403   8.143 -1.6546  0.0489  0.3090
  571MOL0     H75332   3.790   9.375   8.167 -3.4591  1.1179 -2.5834
  571MOL0     H75333   3.821   9.267   8.029  1.2318 -0.1147 -1.3178
  571MOL0     H75334   3.613   9.366   7.948 -2.4275  1.1172  1.8533
  571MOL0     H75335   3.404   9.489   7.901 -0.2462  0.0596 -1.5713
  571MOL0     H75336   3.205   9.909   7.673  0.1344 -2.3487 -3.6045
  571MOL0     H75337   2.979   9.990   7.687 -0.6827  0.7346  0.9870
  571MOL0     H75338   2.786   9.921   7.547 -0.7078 -0.1907 -0.3251
  571MOL0     H75339   2.710  10.022   7.660  3.0695  0.1878  0.2228
  571MOL0     H75340   2.501   9.888   7.653  0.7741 -0.0360  0.0814
  571MOL0     H75341   2.591   9.781   7.540  0.0133 -0.3298 -2.2531
  571MOL0     H75342   2.606   9.961   7.393 -0.2545 -0.9681 -0.7403
  571MOL0     H75343   2.533  10.078   7.498  1.6599  0.9264 -3.0077
  571MOL0     H75344   2.314   9.963   7.508  1.3499 -0.6826  1.5220
  571MOL0     H75345   2.346  10.015   7.339 -1.5212 -0.3851  0.6757
  571MOL0     H75346   2.247   9.801   7.345 -0.3048 -2.7763 -1.0981
  571MOL0     H75347   2.367   9.736   7.452  2.6687  0.4336  0.7558
  571MOL0     H75348   2.541   9.760   7.282  0.5596 -0.8833 -0.8939
  571MOL0     H75349   2.426   9.808   7.168 -1.4529 -0.3427  0.3293
  571MOL0     H75350   2.494   9.549   7.191 -0.5234  0.6322 -0.7614
  571MOL0     H75351   2.374   9.544   7.314 -0.7094  0.3985 -0.7123
  571MOL0     H75352   2.317   9.623   7.032 -0.4047  0.6206  0.1480
  571MOL0     H75353   2.197   9.636   7.165  1.4736  2.5038  0.7325
  571MOL0     H75354   2.843   9.609   7.827 -1.5607  1.4835 -0.6267
  571MOL0     H75355   3.091   9.556   7.880 -0.8064  0.4043 -0.8271
  571MOL0     H75356   3.657   9.829   7.822 -1.3619 -0.0323 -1.1443
  571MOL0     H75357   3.860   9.704   7.912 -0.6164  0.8875  0.5950
  571MOL0     H75358   5.617   9.221   7.402  0.1231  0.2959 -0.4435
  571MOL0     H75359   5.815   9.366   7.339 -1.4120  2.9392 -2.6997
  571MOL0     H75360   6.109   9.645   7.473 -2.3136 -2.5747 -0.7198
  571MOL0     H75361   6.330   9.677   7.444 -2.8698 -0.6166  1.6356
  571MOL0     H75362   6.578   9.741   7.344 -0.8756 -1.9098  1.3334
  571MOL0     H75363   6.655   9.698   7.202 -0.6682  1.1667 -1.0004
  571MOL0     H75364   6.680   9.510   7.342  1.1502  2.0393  0.1745
  571MOL0     H75365   6.515   9.506   7.392 -0.2882 -0.2281 -0.7309
  571MOL0     H75366   6.469   9.485   7.134  1.6587  2.6632  0.3367
  571MOL0     H75367   6.521   9.334   7.215 -0.3996  1.0675  4.0951
  571MOL0     H75368   6.654   9.370   7.007 -0.5815 -0.5490  0.0845
  571MOL0     H75369   6.713   9.523   7.058  2.8607 -0.8489 -2.4340
  571MOL0     H75370   6.964   9.229   7.237  0.3086 -1.6029 -0.2523
  571MOL0     H75371   6.263   9.680   7.006  2.4494 -2.7629  0.2563
  571MOL0     H75372   6.034   9.653   7.048 -0.5762 -1.7651 -0.0579
  572MOL0     O75373   6.061  10.731   4.899 -0.3013  0.9050  0.0252
  572MOL0     C75374   6.085  10.665   5.003 -0.6460  0.2060 -0.6615
  572MOL0     O75375   5.984  10.601   5.074  0.4530 -0.5841 -0.6612
  572MOL0     C75376   5.850  10.598   5.048 -0.2169  0.1374 -0.2307
  572MOL0     C75377   5.762  10.566   5.152 -0.2735 -0.2999  0.0162
  572MOL0     C75378   5.628  10.555   5.133  0.2600  0.2530 -0.3390
  572MOL0     C75379   5.571  10.589   5.011 -0.1186  0.8258  0.8509
  572MOL0     O75380   5.442  10.584   4.965 -1.0905 -0.2449  0.4080
  572MOL0     C75381   5.345  10.580   5.067  0.2440  0.0471  0.1740
  572MOL0     C75382   5.220  10.634   5.015  0.7523  0.9082 -0.2807
  572MOL0     C75383   5.121  10.537   4.954  0.4492  0.1237 -0.5272
  572MOL0     C75384   4.998  10.587   4.871 -0.1591 -0.6551 -0.4978
  572MOL0     C75385   4.909  10.468   4.816  0.9196 -0.5118 -0.4397
  572MOL0     C75386   4.802  10.523   4.719 -0.2756 -0.0709  0.6951
  572MOL0     C75387   4.735  10.409   4.649 -0.2101 -0.2024  0.3948
  572MOL0     C75388   4.630  10.460   4.555 -0.2213  0.4654 -1.4241
  572MOL0     N75389   4.497  10.488   4.623 -0.0438  0.5146  0.5018
  572MOL0     C75390   4.415  10.410   4.701  0.0239  0.1444 -0.4111
  572MOL0     C75391   4.311  10.480   4.753  0.1062  0.1359  1.3129
  572MOL0     C75392   4.205  10.439   4.853 -0.0661  0.0343 -0.5232
  572MOL0     C75393   4.059  10.443   4.796 -0.5363 -0.2531 -0.4041
  572MOL0     C75394   3.978  10.548   4.853  0.6046 -0.2713 -0.0039
  572MOL0     C75395   3.861  10.578   4.754  0.6929 -0.1648  0.2742
  572MOL0     O75396   3.771  10.459   4.747 -0.0744 -0.6726  0.4365
  572MOL0     C75397   3.667  10.462   4.829 -0.4957  0.0592 -0.8987
  572MOL0     C75398   3.633  10.569   4.917  0.5706  0.0566 -0.4777
  572MOL0     C75399   3.519  10.566   4.995  0.1290  0.3253  0.3814
  572MOL0     C75400   3.437  10.450   4.992 -0.2429 -0.3743  0.1349
  572MOL0     C75401   3.320  10.447   5.089  0.7994 -0.4727 -0.2440
  572MOL0     O75402   3.214  10.369   5.053  0.3090 -0.0630  0.1750
  572MOL0     C75403   3.101  10.372   5.137 -0.6634  0.0982  0.4067
  572MOL0     C75404   3.087  10.266   5.233 -0.2677 -0.5796  0.4265
  572MOL0     C75405   2.965  10.267   5.302 -0.4683  0.4497 -0.2614
  572MOL0     C75406   2.863  10.361   5.273  0.6994 -0.4696 -0.4298
  572MOL0     O75407   2.744  10.377   5.344  0.0186 -0.0374 -0.4380
  572MOL0     C75408   2.720  10.273   5.441  0.4423 -0.7322 -0.1388
  572MOL0     C75409   2.591  10.301   5.514 -1.1520  0.0278 -0.0812
  572MOL0     C75410   2.464  10.271   5.431 -0.5223 -0.1214 -0.4204
  572MOL0     C75411   2.349  10.297   5.528  0.1511  0.0313 -0.2884
  572MOL0     C75412   2.216  10.238   5.468 -0.7511  0.0951  0.4697
  572MOL0     C75413   2.102  10.222   5.558  0.0719  0.0815 -0.7665
  572MOL0     C75414   2.008  10.132   5.488  0.2819 -0.2666 -0.0247
  572MOL0     C75415   1.869  10.115   5.567 -0.2098 -0.0786  0.5733
  572MOL0    Cl75416   1.731  10.093   5.454  0.2978 -0.6685  0.1967
  572MOL0     C75417   2.875  10.452   5.170 -0.7135 -0.8681 -0.0240
  572MOL0     C75418   2.999  10.465   5.104  0.1512  0.5149 -0.5206
  572MOL0     O75419   3.318  10.512   5.186  0.2577  0.2653 -0.7975
  572MOL0     C75420   3.469  10.339   4.906 -0.9823  0.6501 -0.1496
  572MOL0     C75421   3.585  10.349   4.821 -0.2893  0.4839 -0.2816
  572MOL0     N75422   4.329  10.606   4.688 -0.1556  0.5022  0.5045
  572MOL0     N75423   4.434  10.608   4.615 -0.7283 -0.0848 -0.3702
  572MOL0     C75424   5.657  10.595   4.898  0.4380 -0.4637  0.5209
  572MOL0     C75425   5.795  10.609   4.920 -0.2385  0.6488  0.0855
  572MOL0     C75426   6.229  10.646   5.064 -0.1957 -0.0334 -0.5326
  572MOL0     C75427   6.256  10.518   5.130 -0.4410  0.4432  0.1768
  572MOL0     C75428   6.388  10.502   5.185 -1.0632 -0.0511  0.8610
  572MOL0     C75429   6.490  10.588   5.163 -0.6860  0.2150  0.4926
  572MOL0     O75430   6.618  10.553   5.202  0.1368  0.9800  0.2944
  572MOL0     C75431   6.735  10.645   5.188  0.9487  0.0436  0.1525
  572MOL0     C75432   6.840  10.568   5.264 -0.4407 -0.2377  0.0740
  572MOL0     C75433   6.985  10.633   5.250 -0.8936  0.1475 -0.3065
  572MOL0     C75434   7.093  10.558   5.323 -0.1240 -0.4848  0.5268
  572MOL0     C75435   7.208  10.638   5.341 -0.2960  0.3755 -0.4362
  572MOL0     C75436   7.308  10.702   5.353 -0.8516 -0.3911 -0.5177
  572MOL0     C75437   6.463  10.702   5.085 -0.1995  0.6006  0.0483
  572MOL0     C75438   6.339  10.738   5.049  1.0622  0.3727  1.1400
  572MOL0     H75439   5.817  10.536   5.241  1.1545 -1.0535 -1.0791
  572MOL0     H75440   5.562  10.532   5.217 -1.0489  0.8076 -1.1769
  572MOL0     H75441   5.383  10.635   5.153 -0.9462  2.1558 -0.5913
  572MOL0     H75442   5.319  10.476   5.090 -1.2010 -0.1684 -2.0587
  572MOL0     H75443   5.244  10.717   4.949 -1.9602  1.9233 -0.1100
  572MOL0     H75444   5.172  10.683   5.100 -1.7950  4.2891 -3.3612
  572MOL0     H75445   5.082  10.473   5.033 -0.0060  2.1944  1.0005
  572MOL0     H75446   5.169  10.475   4.877 -1.6530 -0.1196 -1.7234
  572MOL0     H75447   4.945  10.652   4.941  1.2711 -0.8549  0.8322
  572MOL0     H75448   5.040  10.638   4.784  0.7588 -0.6151 -0.0419
  572MOL0     H75449   4.860  10.411   4.895  0.4009 -0.3204 -0.6193
  572MOL0     H75450   4.976  10.399   4.763  2.2118  0.6895 -0.4327
  572MOL0     H75451   4.864  10.578   4.648 -0.7715  2.1016  1.8509
  572MOL0     H75452   4.732  10.595   4.762  0.5038  0.8660  0.4490
  572MOL0     H75453   4.815  10.370   4.585 -0.7890 -1.1636  0.2348
  572MOL0     H75454   4.712  10.327   4.717 -0.3533 -0.0591  0.5188
  572MOL0     H75455   4.601  10.379   4.486 -0.9260 -2.6133  2.1263
  572MOL0     H75456   4.669  10.548   4.504  1.2227  1.8209  1.7608
  572MOL0     H75457   4.441  10.308   4.726  1.0493  0.4792 -0.0305
  572MOL0     H75458   4.214  10.503   4.941  1.3386  0.5062 -0.9884
  572MOL0     H75459   4.221  10.338   4.892 -0.4062  0.6638  1.3356
  572MOL0     H75460   4.002  10.350   4.804  0.2161 -0.7722 -0.9169
  572MOL0     H75461   4.083  10.453   4.690  0.2975 -2.0191 -0.4278
  572MOL0     H75462   3.934  10.520   4.949  0.7291 -0.6000 -0.0445
  572MOL0     H75463   4.027  10.644   4.873 -1.2944  0.2225  2.9298
  572MOL0     H75464   3.894  10.599   4.652 -1.0504 -1.1562 -0.5515
  572MOL0     H75465   3.817  10.674   4.782  2.7841  0.9930 -0.1757
  572MOL0     H75466   3.701  10.650   4.942  1.0736 -0.9934  1.7949
  572MOL0     H75467   3.496  10.640   5.070 -0.5484  0.2975  0.2145
  572MOL0     H75468   3.167  10.201   5.267 -2.9412 -2.2600  4.1864
  572MOL0     H75469   2.952  10.188   5.376 -0.8500  0.8185  0.0665
  572MOL0     H75470   2.805  10.260   5.508  0.9201 -0.3155 -0.6408
  572MOL0     H75471   2.702  10.177   5.391 -1.5790 -0.7880  0.6304
  572MOL0     H75472   2.589  10.406   5.545 -1.1187 -0.3855  1.4021
  572MOL0     H75473   2.584  10.230   5.597 -0.2858  1.3563  1.1730
  572MOL0     H75474   2.468  10.168   5.395 -0.7660 -1.1218  2.2049
  572MOL0     H75475   2.454  10.340   5.346  0.4770  2.7124  1.6211
  572MOL0     H75476   2.360  10.254   5.629 -1.1705 -2.1919 -1.0104
  572MOL0     H75477   2.327  10.404   5.531 -0.0477  0.0144  2.7309
  572MOL0     H75478   2.255  10.148   5.418  1.7474  1.7584 -0.8274
  572MOL0     H75479   2.191  10.306   5.386 -1.4025 -0.0297  0.5656
  572MOL0     H75480   2.061  10.319   5.586  2.9652  1.0813  0.3826
  572MOL0     H75481   2.117  10.169   5.652 -3.2204  0.5747  0.1424
  572MOL0     H75482   1.977  10.180   5.395 -0.4603 -2.2766 -0.8844
  572MOL0     H75483   2.057  10.036   5.464 -0.4552 -0.6067 -0.2005
  572MOL0     H75484   1.858  10.197   5.639  0.0692  0.7493 -0.3036
  572MOL0     H75485   1.872  10.030   5.635  3.0117 -0.1131  0.5674
  572MOL0     H75486   2.808  10.533   5.144 -1.1819 -2.2432 -3.6299
  572MOL0     H75487   3.008  10.540   5.026  2.7411  0.1246 -0.7015
  572MOL0     H75488   3.405  10.252   4.893  2.8026 -1.9653 -3.6210
  572MOL0     H75489   3.614  10.269   4.754 -1.0597  0.3933 -0.5124
  572MOL0     H75490   5.615  10.591   4.799 -0.6606  1.0101  0.8958
  572MOL0     H75491   5.854  10.637   4.833 -1.3434  1.7424 -0.3360
  572MOL0     H75492   6.185  10.437   5.124  0.7371 -0.4850 -2.8423
  572MOL0     H75493   6.417  10.405   5.224 -0.8939 -0.2650  0.2100
  572MOL0     H75494   6.710  10.742   5.232 -1.7625 -0.6319  0.2967
  572MOL0     H75495   6.755  10.659   5.081  1.4448 -1.5665  0.0038
  572MOL0     H75496   6.810  10.568   5.369 -1.8116  1.7771 -0.2575
  572MOL0     H75497   6.841  10.465   5.227 -2.8877 -1.6598  3.5072
  572MOL0     H75498   6.986  10.735   5.289 -0.3977 -0.4746  1.4465
  572MOL0     H75499   7.004  10.640   5.143 -1.6673  1.7833 -0.3762
  572MOL0     H75500   7.054  10.528   5.421  0.2887 -1.5985  0.3607
  572MOL0     H75501   7.135  10.472   5.271  0.9730  0.9220 -1.0332
  572MOL0     H75502   7.384  10.773   5.377  0.0537 -1.3453 -0.4983
  572MOL0     H75503   6.546  10.766   5.059  0.1664  0.2281  0.2785
  572MOL0     H75504   6.324  10.831   4.995  1.0175  0.1827  0.8186
  573MOL0     O75505   4.647   0.574  10.251 -0.2850  0.6480 -0.2881
  573MOL0     C75506   4.661   0.665  10.342  0.0568  0.3233 -0.4397
  573MOL0     O75507   4.563   0.731  10.408  0.9879  1.2575 -0.0863
  573MOL0     C75508   4.434   0.689  10.403 -0.2261  0.0937  0.8526
  573MOL0     C75509   4.365   0.693  10.286 -0.4993 -0.1936  0.4237
  573MOL0     C75510   4.230   0.661  10.286 -0.0141  0.2724  0.2539
  573MOL0     C75511   4.156   0.629  10.404 -0.7276 -0.3408 -0.9921
  573MOL0     O75512   4.029   0.591  10.401 -0.8263  0.4596 -0.1824
  573MOL0     C75513   3.926   0.658  10.326 -1.0751 -0.2059 -0.2630
  573MOL0     C75514   3.784   0.601  10.355 -0.1875 -0.1331 -0.7605
  573MOL0     C75515   3.742   0.472  10.291 -0.3042  0.1497 -0.3294
  573MOL0     C75516   3.604   0.418  10.321  0.4375  0.4047  0.6735
  573MOL0     C75517   3.500   0.495  10.240  0.3261  0.1196 -0.3386
  573MOL0     C75518   3.355   0.453  10.271 -0.8065  0.4676  0.0335
  573MOL0     C75519   3.257   0.557  10.207  0.1375  0.2590 -0.6419
  573MOL0     C75520   3.117   0.517  10.263 -0.0062  0.4065  0.4866
  573MOL0     N75521   3.011   0.586  10.193  0.5519 -0.8212  0.1351
  573MOL0     C75522   2.881   0.586  10.228 -0.0724 -0.3031 -1.1763
  573MOL0     C75523   2.813   0.651  10.134  0.5006 -0.2607 -0.3390
  573MOL0     C75524   2.663   0.656  10.137 -0.0261  1.0421  0.9438
  573MOL0     C75525   2.590   0.566  10.033  0.8698 -0.6545 -1.1753
  573MOL0     C75526   2.561   0.619   9.900 -0.1253 -0.2967  0.8902
  573MOL0     C75527   2.521   0.509   9.795 -0.0935 -0.9784 -0.4449
  573MOL0     O75528   2.413   0.437   9.845 -0.1519 -0.3052  0.8848
  573MOL0     C75529   2.291   0.493   9.826  0.9526  0.3035 -0.1495
  573MOL0     C75530   2.238   0.550   9.707  0.5386  0.8100 -0.2991
  573MOL0     C75531   2.103   0.588   9.701 -0.0161  1.0653  0.3717
  573MOL0     C75532   2.024   0.589   9.815  0.1497  0.4267 -0.7798
  573MOL0     C75533   1.884   0.631   9.812 -0.3039  0.0251  0.7840
  573MOL0     O75534   1.839   0.681   9.694  0.0114 -0.2140 -0.1270
  573MOL0     C75535   1.705   0.700   9.687  0.4936  0.5576  0.2382
  573MOL0     C75536   1.648   0.827   9.669  0.4850  0.8001 -0.2522
  573MOL0     C75537   1.518   0.847   9.624  0.3542  1.2791 -0.2838
  573MOL0     C75538   1.435   0.737   9.591 -0.9997  0.3328 -0.3876
  573MOL0     O75539   1.307   0.738   9.558  0.2738  0.3639  0.4147
  573MOL0     C75540   1.241   0.863   9.533 -0.3198  0.7377  0.9185
  573MOL0     C75541   1.150   0.836   9.412 -0.3552  0.4977  0.6941
  573MOL0     C75542   1.221   0.794   9.280  0.4658  1.0030 -0.1346
  573MOL0     C75543   1.124   0.776   9.157 -0.2867  0.9465 -1.1973
  573MOL0     C75544   1.089   0.907   9.089 -0.0890 -0.5510 -0.3154
  573MOL0     C75545   0.974   0.895   8.995 -0.5551 -0.0362 -0.0483
  573MOL0     C75546   1.002   0.798   8.873  0.3242 -0.0769  0.8033
  573MOL0     C75547   0.887   0.773   8.781  0.0733 -0.1272 -0.6034
  573MOL0    Cl75548   0.805   0.918   8.712 -0.0169 -0.1671  0.0516
  573MOL0     C75549   1.496   0.611   9.616  0.5728 -0.6596 -0.0634
  573MOL0     C75550   1.622   0.597   9.660 -0.4883  0.8324  0.1702
  573MOL0     O75551   1.822   0.641   9.915  0.4417  0.2437  0.0342
  573MOL0     C75552   2.085   0.538   9.939 -0.4553 -0.0634 -0.4531
  573MOL0     C75553   2.212   0.479   9.942  0.1390 -0.7324  0.1579
  573MOL0     N75554   2.904   0.676  10.034 -0.4695 -0.0501  0.4663
  573MOL0     N75555   3.024   0.646  10.073 -0.4851 -0.4025  0.3454
  573MOL0     C75556   4.229   0.629  10.524 -0.1430 -0.2672 -0.6795
  573MOL0     C75557   4.372   0.655  10.530  0.4011 -0.4418 -0.3175
  573MOL0     C75558   4.794   0.722  10.343  0.1262  0.7692 -0.1514
  573MOL0     C75559   4.905   0.661  10.280  0.1329 -0.0976  0.7360
  573MOL0     C75560   5.027   0.690  10.313 -0.8335  0.9823 -0.7622
  573MOL0     C75561   5.058   0.793  10.408  0.7940  0.5623 -0.0186
  573MOL0     O75562   5.187   0.840  10.440  0.0050 -0.4020 -0.2464
  573MOL0     C75563   5.308   0.764  10.416  1.0829  0.0329  0.0981
  573MOL0     C75564   5.429   0.839  10.468 -0.3159  0.6696  0.3165
  573MOL0     C75565   5.559   0.756  10.464 -0.1021  0.2901  0.1218
  573MOL0     C75566   5.677   0.846  10.494  0.5149  0.2424 -0.3338
  573MOL0     C75567   5.811   0.790  10.536  0.0940  0.3943 -0.3343
  573MOL0     C75568   5.924   0.739  10.553 -0.1620 -0.0759  0.2769
  573MOL0     C75569   4.951   0.861  10.469 -0.1931 -0.9153  0.4086
  573MOL0     C75570   4.822   0.817  10.435 -0.3105  0.0771  0.7358
  573MOL0     H75571   4.410   0.715  10.190 -1.0301 -0.9897 -0.0168
  573MOL0     H75572   4.176   0.666  10.192  3.9367 -1.5638 -2.4506
  573MOL0     H75573   3.958   0.658  10.221 -0.1347  0.5958  0.0066
  573MOL0     H75574   3.928   0.765  10.351 -1.0882 -0.2547 -0.0544
  573MOL0     H75575   3.714   0.681  10.329 -0.3725 -0.6164 -1.7787
  573MOL0     H75576   3.767   0.588  10.462  1.1069  0.7712 -0.4168
  573MOL0     H75577   3.819   0.398  10.314 -2.2126 -1.2982  1.8487
  573MOL0     H75578   3.742   0.498  10.185 -0.7553  5.5519  0.6842
  573MOL0     H75579   3.598   0.309  10.311  1.1557  0.1038  2.8883
  573MOL0     H75580   3.578   0.425  10.427 -0.9114 -1.9105  0.5739
  573MOL0     H75581   3.521   0.498  10.132 -3.4746 -0.2158 -1.2496
  573MOL0     H75582   3.507   0.601  10.267  1.4654  0.3384 -1.4243
  573MOL0     H75583   3.334   0.443  10.378  0.2455 -3.4105  0.0330
  573MOL0     H75584   3.329   0.353  10.234 -1.9723 -0.1748  2.3676
  573MOL0     H75585   3.298   0.657  10.227  0.5607  0.0787 -0.6060
  573MOL0     H75586   3.252   0.538  10.100 -0.0990 -3.3020 -0.1183
  573MOL0     H75587   3.101   0.528  10.370 -0.1301 -0.9811  0.6255
  573MOL0     H75588   3.112   0.408  10.266 -1.5057  0.4467  0.4212
  573MOL0     H75589   2.842   0.541  10.318  3.1074 -1.4939 -0.2553
  573MOL0     H75590   2.627   0.759  10.129  1.0912  1.3388 -1.0394
  573MOL0     H75591   2.631   0.625  10.237 -0.9725  1.3071  0.7381
  573MOL0     H75592   2.498   0.530  10.081  1.5283  0.9285  1.5179
  573MOL0     H75593   2.658   0.481  10.020  1.2046 -0.7759  0.9274
  573MOL0     H75594   2.479   0.692   9.902  0.5034  0.5081 -0.7302
  573MOL0     H75595   2.648   0.677   9.867  0.2830 -1.0729  0.5909
  573MOL0     H75596   2.608   0.443   9.782  1.0819  0.0160  1.9239
  573MOL0     H75597   2.490   0.565   9.706  1.1924  0.6385  0.0779
  573MOL0     H75598   2.299   0.554   9.617 -0.5191  2.4308 -0.9852
  573MOL0     H75599   2.065   0.626   9.606  1.3891  1.2599 -0.1299
  573MOL0     H75600   1.694   0.920   9.701 -4.1328  2.7540  1.6575
  573MOL0     H75601   1.492   0.952   9.612 -1.0493  1.0214  0.2171
  573MOL0     H75602   1.308   0.947   9.515  0.5973 -0.3959 -1.3198
  573MOL0     H75603   1.171   0.879   9.616  0.8673  3.0199  1.5447
  573MOL0     H75604   1.095   0.926   9.381 -0.0290 -0.2120 -2.3313
  573MOL0     H75605   1.073   0.763   9.437 -0.3913  0.2599 -0.0788
  573MOL0     H75606   1.272   0.700   9.304  0.3829  1.2802  1.2554
  573MOL0     H75607   1.298   0.868   9.259 -1.5759  3.1099 -0.6100
  573MOL0     H75608   1.166   0.706   9.083  0.9709 -2.5621  2.4568
  573MOL0     H75609   1.037   0.716   9.185  1.9961 -2.1799 -0.1688
  573MOL0     H75610   1.170   0.955   9.035  2.6020  0.1877  3.9509
  573MOL0     H75611   1.059   0.979   9.165  1.7267 -0.5485  0.4190
  573MOL0     H75612   0.958   0.995   8.953 -0.4763 -0.5401 -1.3243
  573MOL0     H75613   0.884   0.850   9.037  0.6457 -1.7384  0.8379
  573MOL0     H75614   1.086   0.840   8.817 -0.7583 -0.7416 -1.4102
  573MOL0     H75615   1.025   0.699   8.912 -1.9820 -1.5306 -1.2260
  573MOL0     H75616   0.816   0.728   8.851  1.9061 -0.1127  1.3798
  573MOL0     H75617   0.910   0.700   8.703 -0.0629 -1.2691  0.3759
  573MOL0     H75618   1.438   0.523   9.590 -1.7610  0.4250  1.1364
  573MOL0     H75619   1.662   0.497   9.657 -1.4064  0.4247  1.0063
  573MOL0     H75620   2.028   0.549  10.031  1.3021  3.8163  0.4035
  573MOL0     H75621   2.257   0.441  10.033  0.2382 -0.2478  0.3151
  573MOL0     H75622   4.182   0.602  10.619  1.0299  1.7692  0.5519
  573MOL0     H75623   4.440   0.639  10.613  2.4670  0.6305 -1.7226
  573MOL0     H75624   4.885   0.585  10.206  1.4753 -0.6076  0.8760
  573MOL0     H75625   5.107   0.644  10.256 -2.4986 -0.9753 -1.6531
  573MOL0     H75626   5.329   0.747  10.310  2.0983  0.5576  0.2012
  573MOL0     H75627   5.286   0.662  10.450 -1.5545  0.9102  1.2768
  573MOL0     H75628   5.454   0.929  10.410  1.5315  1.7230  2.5930
  573MOL0     H75629   5.413   0.886  10.565  1.8101  3.7119 -0.6096
  573MOL0     H75630   5.563   0.718  10.361 -0.7745  1.4850 -0.3694
  573MOL0     H75631   5.562   0.670  10.531  0.1015 -2.1398 -2.7961
  573MOL0     H75632   5.698   0.904  10.403 -2.5915  1.3447 -0.4697
  573MOL0     H75633   5.640   0.918  10.567 -1.3575  2.4169 -3.1761
  573MOL0     H75634   6.014   0.682  10.553 -0.3358 -0.3970 -1.5495
  573MOL0     H75635   4.961   0.939  10.545 -3.5099 -1.1119  1.1942
  573MOL0     H75636   4.748   0.875  10.490  0.7733  2.3297 -0.0441
  574MOL0     O75637   7.856   1.804   0.529 -0.2077  0.1399 -0.7118
  574MOL0     C75638   7.952   1.756   0.467 -0.0746 -1.3295  0.4694
  574MOL0     O75639   7.937   1.691   0.347  0.1848  0.6534  0.3573
  574MOL0     C75640   7.824   1.696   0.279  0.9045 -0.2231  1.0559
  574MOL0     C75641   7.821   1.775   0.162  0.6520 -0.1583  0.6276
  574MOL0     C75642   7.692   1.793   0.102  0.3267  0.5057  0.2782
  574MOL0     C75643   7.582   1.727   0.151 -0.2741  0.0204 -0.1511
  574MOL0     O75644   7.457   1.725   0.096  0.1685  1.1541  0.8153
  574MOL0     C75645   7.429   1.830  -0.000  0.0942  0.2075 -0.1244
  574MOL0     C75646   7.276   1.861  -0.016 -0.0783 -0.4937  0.1568
  574MOL0     C75647   7.260   1.981  -0.115  0.2164  0.2833 -0.4406
  574MOL0     C75648   7.203   1.939  -0.248 -0.3583  0.5658  0.4855
  574MOL0     C75649   7.174   2.044  -0.357 -0.1354 -0.0138  0.3606
  574MOL0     C75650   7.063   2.140  -0.317 -0.4802 -0.2576 -0.2988
  574MOL0     C75651   7.033   2.250  -0.422 -1.1306 -1.1372  0.4467
  574MOL0     C75652   7.018   2.185  -0.560  0.8942  0.2603  0.1304
  574MOL0     N75653   6.901   2.090  -0.556 -0.4422  0.2380  0.3428
  574MOL0     C75654   6.776   2.135  -0.527 -0.5031  0.5488  0.2509
  574MOL0     C75655   6.695   2.021  -0.533  0.2238 -0.7772 -0.2861
  574MOL0     C75656   6.543   2.022  -0.509 -0.6204  1.0368 -1.1706
  574MOL0     C75657   6.483   2.018  -0.644  0.4413  0.2476  0.1985
  574MOL0     C75658   6.327   2.034  -0.638 -0.0261  0.2116 -0.4211
  574MOL0     C75659   6.275   2.016  -0.774 -0.0207  0.4993 -0.2978
  574MOL0     O75660   6.297   1.878  -0.822  0.3047 -0.6135  0.3604
  574MOL0     C75661   6.206   1.825  -0.906  0.7366  0.2849  0.2405
  574MOL0     C75662   6.197   1.689  -0.901  0.7201 -0.1271  0.2082
  574MOL0     C75663   6.098   1.612  -0.963  0.2812 -0.1750 -0.1425
  574MOL0     C75664   6.012   1.670  -1.053  0.1760 -0.0274  0.4241
  574MOL0     C75665   5.929   1.575  -1.129 -0.2125  0.2514  0.2534
  574MOL0     O75666   5.845   1.636  -1.219 -0.1698  0.0945 -0.9158
  574MOL0     C75667   5.728   1.586  -1.249  0.1819 -0.5226 -0.2979
  574MOL0     C75668   5.691   1.571  -1.379 -0.6184 -0.0497 -0.3010
  574MOL0     C75669   5.562   1.550  -1.426  0.2978  0.4804 -0.4586
  574MOL0     C75670   5.459   1.528  -1.323 -0.6828 -0.0040 -0.4296
  574MOL0     O75671   5.327   1.512  -1.351  0.3248  0.0258  0.0740
  574MOL0     C75672   5.254   1.634  -1.356 -0.4369  0.1292 -0.0567
  574MOL0     C75673   5.227   1.678  -1.503  0.5293 -0.5828  0.8128
  574MOL0     C75674   5.151   1.572  -1.582  0.2129  0.4270 -0.0966
  574MOL0     C75675   5.011   1.543  -1.525 -0.4408 -0.2473 -0.5783
  574MOL0     C75676   4.944   1.441  -1.618 -0.4221 -0.7737 -1.5783
  574MOL0     C75677   4.830   1.362  -1.549 -0.7350 -0.8617  0.6208
  574MOL0     C75678   4.787   1.245  -1.639  0.0205 -0.1794  0.0260
  574MOL0     C75679   4.641   1.227  -1.626  0.2818 -0.2131  0.3821
  574MOL0    Cl75680   4.580   1.181  -1.460  0.2393  0.3771 -0.0014
  574MOL0     C75681   5.495   1.533  -1.184 -0.3613 -1.8414 -0.6448
  574MOL0     C75682   5.629   1.559  -1.148  0.6214 -0.8063  0.2847
  574MOL0     O75683   5.925   1.457  -1.099 -0.5527 -0.2229 -0.0298
  574MOL0     C75684   6.011   1.815  -1.059 -0.5483 -0.0945 -0.4446
  574MOL0     C75685   6.099   1.887  -0.981 -0.1319  0.3749 -0.5635
  574MOL0     N75686   6.778   1.907  -0.558 -0.0332 -0.0438 -0.1637
  574MOL0     N75687   6.897   1.954  -0.586  0.5176  0.2551 -0.0388
  574MOL0     C75688   7.599   1.637   0.256  0.6022  0.0993  0.3004
  574MOL0     C75689   7.710   1.624   0.322  0.1975  0.9127 -0.0288
  574MOL0     C75690   8.083   1.750   0.527  0.3093 -0.3804 -0.3693
  574MOL0     C75691   8.104   1.786   0.662  0.5057 -0.4123  0.0831
  574MOL0     C75692   8.224   1.754   0.730 -0.3770 -0.1234  0.4690
  574MOL0     C75693   8.327   1.698   0.656 -0.1336  0.2066 -1.0968
  574MOL0     O75694   8.448   1.677   0.716 -0.9475 -0.1226  0.5031
  574MOL0     C75695   8.477   1.542   0.722 -0.4865 -0.8884  0.3245
  574MOL0     C75696   8.620   1.510   0.691  0.8375 -0.8664 -0.2807
  574MOL0     C75697   8.657   1.360   0.698 -0.2381  0.6763  0.6037
  574MOL0     C75698   8.647   1.298   0.842 -1.0852  1.4027  0.4888
  574MOL0     C75699   8.710   1.163   0.831  0.3695 -0.6282  1.4210
  574MOL0     C75700   8.761   1.059   0.830 -0.2274  0.1041  0.5016
  574MOL0     C75701   8.311   1.674   0.525 -0.3770 -0.3213  1.0526
  574MOL0     C75702   8.193   1.693   0.457  0.8787 -0.4507  0.5677
  574MOL0     H75703   7.914   1.820   0.127 -0.1916  0.0952 -1.3857
  574MOL0     H75704   7.686   1.853   0.011 -0.4406 -0.1067 -0.0794
  574MOL0     H75705   7.456   1.797  -0.101 -1.1955 -0.1482 -0.3790
  574MOL0     H75706   7.486   1.923   0.010  2.3948 -1.2113  0.4833
  574MOL0     H75707   7.236   1.896   0.080 -2.9101 -1.6837 -0.4836
  574MOL0     H75708   7.213   1.775  -0.043 -0.6726  0.1511 -0.5469
  574MOL0     H75709   7.353   2.036  -0.132 -0.6127  1.6874 -0.6148
  574MOL0     H75710   7.187   2.052  -0.074 -1.9279 -0.0371 -3.4037
  574MOL0     H75711   7.283   1.879  -0.292 -3.0795 -2.3115 -0.8993
  574MOL0     H75712   7.116   1.874  -0.234  0.9333 -1.4113 -0.2435
  574MOL0     H75713   7.142   1.987  -0.445 -1.0948  1.3082 -0.1806
  574MOL0     H75714   7.261   2.099  -0.393 -1.2031  0.6717 -1.2893
  574MOL0     H75715   7.111   2.196  -0.236  2.2971 -0.5936 -1.5914
  574MOL0     H75716   6.972   2.085  -0.291  1.1056 -2.3697  1.1611
  574MOL0     H75717   6.946   2.305  -0.382  0.4971 -0.1128  2.8627
  574MOL0     H75718   7.114   2.324  -0.429 -2.1842 -0.0118 -0.3109
  574MOL0     H75719   7.113   2.132  -0.574 -0.8680 -2.8931 -0.7724
  574MOL0     H75720   7.013   2.260  -0.640 -0.4814 -1.1497 -1.1571
  574MOL0     H75721   6.744   2.237  -0.505  0.0471  0.4686  1.5351
  574MOL0     H75722   6.508   2.113  -0.458  0.9006  0.7246  0.5159
  574MOL0     H75723   6.512   1.936  -0.449 -1.3030  1.2414 -1.2239
  574MOL0     H75724   6.503   1.918  -0.684 -1.9543  0.3269 -1.3402
  574MOL0     H75725   6.533   2.096  -0.702 -0.2823  0.3946 -0.2380
  574MOL0     H75726   6.293   1.953  -0.573 -0.8504  0.7779 -0.1235
  574MOL0     H75727   6.290   2.127  -0.593 -3.1073 -0.0457 -2.1608
  574MOL0     H75728   6.329   2.074  -0.851  0.8209 -0.7926 -0.7153
  574MOL0     H75729   6.171   2.049  -0.768  0.2448  1.5277 -1.0482
  574MOL0     H75730   6.275   1.628  -0.855  1.6918 -0.7840 -2.1511
  574MOL0     H75731   6.109   1.505  -0.943 -0.5111 -0.1596  0.4096
  574MOL0     H75732   5.769   1.597  -1.450 -1.9696  0.1558 -1.7434
  574MOL0     H75733   5.539   1.544  -1.532  1.5821  0.5843 -0.7610
  574MOL0     H75734   5.312   1.714  -1.309  0.3648 -1.4303  1.7012
  574MOL0     H75735   5.160   1.626  -1.299 -0.6694 -2.7928 -0.6863
  574MOL0     H75736   5.323   1.703  -1.548  0.2935 -0.5380  0.3301
  574MOL0     H75737   5.161   1.765  -1.499 -0.1540 -1.0185 -0.3997
  574MOL0     H75738   5.211   1.480  -1.585  0.6475  0.7139 -3.4681
  574MOL0     H75739   5.141   1.602  -1.686 -1.1092 -0.6161 -0.2894
  574MOL0     H75740   5.017   1.503  -1.423 -2.6084  2.4972  0.7412
  574MOL0     H75741   4.957   1.638  -1.519 -0.9170 -0.5749  3.9378
  574MOL0     H75742   5.026   1.374  -1.644  0.2130 -0.2881 -0.8625
  574MOL0     H75743   4.911   1.490  -1.711 -1.0156  2.2531  0.0962
  574MOL0     H75744   4.745   1.429  -1.535  2.0660  2.4682  3.5798
  574MOL0     H75745   4.867   1.330  -1.452  0.3496  0.2589  0.6114
  574MOL0     H75746   4.813   1.273  -1.742 -0.8575 -1.9227 -0.7171
  574MOL0     H75747   4.842   1.154  -1.614  1.0696  0.1067 -1.1431
  574MOL0     H75748   4.616   1.146  -1.695  1.3036  1.3394 -1.9386
  574MOL0     H75749   4.596   1.319  -1.663  3.2373  1.1450 -0.1935
  574MOL0     H75750   5.414   1.520  -1.113 -3.0239  1.3162 -2.8001
  574MOL0     H75751   5.639   1.557  -1.040  0.5746 -2.4216  0.2930
  574MOL0     H75752   5.932   1.853  -1.123 -3.9794 -0.4910  3.1741
  574MOL0     H75753   6.082   1.994  -0.986 -2.6655  0.2106  1.9537
  574MOL0     H75754   7.515   1.580   0.296  1.7865 -1.1608  1.0835
  574MOL0     H75755   7.726   1.550   0.400 -0.8121  0.6214 -0.0914
  574MOL0     H75756   8.021   1.829   0.718 -0.9069 -1.5144 -1.0567
  574MOL0     H75757   8.233   1.777   0.836 -1.4234 -1.0595  0.7769
  574MOL0     H75758   8.417   1.491   0.646 -0.5263  1.8459 -1.6301
  574MOL0     H75759   8.450   1.503   0.821  1.4064 -2.8780  0.1368
  574MOL0     H75760   8.647   1.547   0.591 -4.5436  0.5306 -1.5446
  574MOL0     H75761   8.675   1.573   0.761 -0.6413 -1.5094  1.5456
  574MOL0     H75762   8.759   1.355   0.659  0.5131  3.1027  2.0565
  574MOL0     H75763   8.591   1.295   0.639 -2.5365 -0.0689  3.7222
  574MOL0     H75764   8.704   1.356   0.916 -2.2340 -0.4142  2.9270
  574MOL0     H75765   8.546   1.289   0.884 -0.0267  2.1526  3.4606
  574MOL0     H75766   8.806   0.966   0.860  1.7695  0.8320 -0.0900
  574MOL0     H75767   8.392   1.630   0.467 -3.3254 -1.6560 -2.4233
  574MOL0     H75768   8.182   1.649   0.358  3.8763 -0.0059 -0.0641
  575MOL0     O75769   2.681   5.398   9.404  0.2408 -0.2191  0.3270
  575MOL0     C75770   2.749   5.376   9.500 -0.3865  0.2178 -0.1410
  575MOL0     O75771   2.707   5.340   9.627  0.1820 -0.1421  0.0784
  575MOL0     C75772   2.574   5.296   9.652 -0.3954 -0.2441 -0.2763
  575MOL0     C75773   2.527   5.290   9.780  0.2501 -0.5753 -0.0891
  575MOL0     C75774   2.396   5.247   9.818 -0.4119  0.2685 -0.0398
  575MOL0     C75775   2.325   5.196   9.715  0.4667  0.4494 -0.4666
  575MOL0     O75776   2.191   5.168   9.746  0.4183 -0.2338  0.5005
  575MOL0     C75777   2.110   5.084   9.658 -0.4601 -0.0964 -0.4508
  575MOL0     C75778   1.983   5.062   9.730 -0.8323 -0.5541 -0.0469
  575MOL0     C75779   1.895   4.993   9.626 -0.2866 -0.1364  0.7066
  575MOL0     C75780   1.756   4.960   9.679  0.4201 -0.2885  0.3482
  575MOL0     C75781   1.648   4.971   9.567 -0.6220 -0.0454 -0.4172
  575MOL0     C75782   1.630   4.832   9.506  0.5892 -0.1949  0.8399
  575MOL0     C75783   1.561   4.837   9.374 -0.8240 -0.0972  0.4250
  575MOL0     C75784   1.427   4.921   9.387 -0.1123  0.4858  0.9372
  575MOL0     N75785   1.326   4.873   9.286  0.3231  0.4853  0.5892
  575MOL0     C75786   1.278   4.749   9.258  0.4167  0.6832  0.6719
  575MOL0     C75787   1.203   4.758   9.145 -0.7569  0.1116 -0.2861
  575MOL0     C75788   1.121   4.656   9.080 -0.1265 -0.5293  0.2719
  575MOL0     C75789   0.973   4.692   9.092 -0.8906 -0.0403  0.1333
  575MOL0     C75790   0.883   4.580   9.025  0.2809 -0.6404  0.1911
  575MOL0     C75791   0.820   4.625   8.895  0.1503  0.2627 -0.2991
  575MOL0     O75792   0.734   4.740   8.898  0.4386  0.2792  0.8265
  575MOL0     C75793   0.601   4.707   8.920 -0.4923 -0.2963  0.8973
  575MOL0     C75794   0.536   4.636   8.821  1.0135  0.5208 -0.1960
  575MOL0     C75795   0.400   4.588   8.837 -1.2682  1.0353 -0.6886
  575MOL0     C75796   0.339   4.605   8.963 -0.0617 -0.3930  0.2935
  575MOL0     C75797   0.201   4.568   8.980 -0.3010  0.6467  0.2974
  575MOL0     O75798   0.158   4.524   9.102 -0.1148  0.3586  0.0220
  575MOL0     C75799   0.032   4.467   9.105  0.9751  0.2773 -0.6401
  575MOL0     C75800  -0.087   4.539   9.073 -0.5563  0.0198 -0.2986
  575MOL0     C75801  -0.203   4.459   9.066 -0.3118 -0.5642  0.4700
  575MOL0     C75802  -0.208   4.322   9.099  0.5906  0.8154  0.0836
  575MOL0     O75803  -0.313   4.242   9.081  0.2358  0.7298 -0.9973
  575MOL0     C75804  -0.408   4.289   8.990 -0.3864 -0.5590 -0.8097
  575MOL0     C75805  -0.524   4.361   9.071 -0.3139  0.6600  0.3233
  575MOL0     C75806  -0.629   4.419   8.983 -0.3077 -0.0600  0.1295
  575MOL0     C75807  -0.729   4.493   9.070 -0.1814  1.1448  0.1966
  575MOL0     C75808  -0.866   4.480   8.996  0.2160 -0.1743 -1.1247
  575MOL0     C75809  -0.980   4.532   9.081 -0.2664  0.3193 -0.2452
  575MOL0     C75810  -1.111   4.582   9.007  0.2022  0.2565 -0.5725
  575MOL0     C75811  -1.224   4.575   9.108  0.0173  0.3730 -0.8192
  575MOL0    Cl75812  -1.253   4.402   9.157  0.0250 -0.2489 -0.3395
  575MOL0     C75813  -0.094   4.258   9.142  0.7750 -0.0223 -0.0237
  575MOL0     C75814   0.026   4.331   9.144 -0.2603 -0.2120  0.6317
  575MOL0     O75815   0.135   4.572   8.880 -0.1128 -0.2962 -0.4523
  575MOL0     C75816   0.413   4.669   9.061  0.9726  0.2465 -0.2370
  575MOL0     C75817   0.537   4.722   9.041 -0.6532 -0.8762 -0.2754
  575MOL0     N75818   1.216   4.891   9.100 -0.6508  0.3875 -0.0642
  575MOL0     N75819   1.285   4.955   9.183 -0.3658 -0.1899  0.1009
  575MOL0     C75820   2.365   5.200   9.579 -0.3794  0.0376  0.2052
  575MOL0     C75821   2.492   5.242   9.549 -0.2990 -1.0663  0.4592
  575MOL0     C75822   2.896   5.393   9.484  0.3503 -0.3484  1.1040
  575MOL0     C75823   2.989   5.365   9.591 -0.4092 -0.0745 -0.9411
  575MOL0     C75824   3.134   5.365   9.581  0.1959  0.4982  0.0520
  575MOL0     C75825   3.194   5.412   9.468  0.4765 -0.0451 -0.4121
  575MOL0     O75826   3.332   5.419   9.441  0.2831 -0.0199 -0.7892
  575MOL0     C75827   3.378   5.554   9.423 -0.8339  0.2068  0.0001
  575MOL0     C75828   3.528   5.563   9.420 -0.2149 -0.5305  1.3034
  575MOL0     C75829   3.581   5.470   9.303  0.0466 -0.3675 -1.0223
  575MOL0     C75830   3.730   5.435   9.349  0.0730 -0.2326 -1.0098
  575MOL0     C75831   3.786   5.338   9.252  0.0386 -0.1731  0.4615
  575MOL0     C75832   3.810   5.260   9.164 -0.2377 -0.2382  1.2378
  575MOL0     C75833   3.101   5.440   9.359  0.2581 -0.0696  0.3977
  575MOL0     C75834   2.961   5.432   9.363  0.9195 -0.1061 -1.1636
  575MOL0     H75835   2.591   5.337   9.854  0.9145 -1.6770  0.0725
  575MOL0     H75836   2.376   5.239   9.924  1.9439  1.9420  0.6323
  575MOL0     H75837   2.161   4.987   9.655  2.2649  1.1877  0.7911
  575MOL0     H75838   2.089   5.132   9.562 -0.9388  4.2512  1.5986
  575MOL0     H75839   1.957   5.164   9.758  0.7257 -0.8428  2.8161
  575MOL0     H75840   1.989   4.995   9.817 -0.7967 -0.4080  0.0622
  575MOL0     H75841   1.951   4.909   9.584  1.3954  1.6217 -0.7374
  575MOL0     H75842   1.892   5.057   9.538  1.5638 -3.7576 -2.2300
  575MOL0     H75843   1.749   4.862   9.729 -0.7337 -0.6805 -0.5503
  575MOL0     H75844   1.734   5.031   9.759  1.1598  0.0425  0.2651
  575MOL0     H75845   1.677   5.042   9.490  2.0564 -0.5262  0.0381
  575MOL0     H75846   1.548   5.000   9.599 -0.6661  0.4559 -0.9971
  575MOL0     H75847   1.567   4.773   9.574  0.5415 -0.7195  0.3471
  575MOL0     H75848   1.729   4.786   9.495 -0.1673 -2.0847  1.4469
  575MOL0     H75849   1.621   4.875   9.291  0.5222 -0.3778  1.2465
  575MOL0     H75850   1.532   4.733   9.353 -2.3670  0.2846  0.5471
  575MOL0     H75851   1.441   5.028   9.372 -3.0609  1.0132  1.2819
  575MOL0     H75852   1.384   4.904   9.486  1.4860 -2.6692  1.1929
  575MOL0     H75853   1.293   4.666   9.327  1.6388 -0.4615 -0.8923
  575MOL0     H75854   1.139   4.558   9.125 -0.8173 -1.0851 -0.6253
  575MOL0     H75855   1.146   4.646   8.974 -3.3627  3.7570 -1.1861
  575MOL0     H75856   0.948   4.796   9.070 -1.9835  0.2929  2.6341
  575MOL0     H75857   0.954   4.691   9.200 -0.6242  0.6772  0.1938
  575MOL0     H75858   0.946   4.490   9.021  0.9210 -0.3124  1.9426
  575MOL0     H75859   0.799   4.566   9.094  0.8848 -1.7089  0.7487
  575MOL0     H75860   0.781   4.541   8.837  0.0074 -0.9025  1.3907
  575MOL0     H75861   0.909   4.655   8.839 -0.7390  1.3012 -1.1956
  575MOL0     H75862   0.587   4.614   8.728 -1.3236 -1.3794 -1.1610
  575MOL0     H75863   0.351   4.535   8.756 -1.2451  1.4480 -0.9748
  575MOL0     H75864  -0.079   4.644   9.045  0.6546  0.2872  0.9345
  575MOL0     H75865  -0.296   4.510   9.041 -1.1493 -2.7556 -1.1263
  575MOL0     H75866  -0.452   4.203   8.938 -0.9987  0.0940 -1.3912
  575MOL0     H75867  -0.371   4.356   8.912 -1.5516  0.6532 -0.3509
  575MOL0     H75868  -0.475   4.447   9.117 -0.6720  0.7403  0.5642
  575MOL0     H75869  -0.563   4.281   9.136  3.3436 -2.0409 -0.4426
  575MOL0     H75870  -0.666   4.330   8.930  3.1831 -1.4364 -0.2873
  575MOL0     H75871  -0.585   4.486   8.908  1.3208 -1.6794 -0.4248
  575MOL0     H75872  -0.730   4.455   9.172  1.5168  2.1541  0.6425
  575MOL0     H75873  -0.690   4.595   9.075  1.7920  0.3938  4.2271
  575MOL0     H75874  -0.896   4.378   8.971  0.1279 -0.0540 -1.5221
  575MOL0     H75875  -0.862   4.534   8.901  0.6914 -0.1510 -1.0965
  575MOL0     H75876  -0.940   4.620   9.132 -3.6723  1.2868  1.0932
  575MOL0     H75877  -1.019   4.465   9.158  0.7764  0.5806  0.5340
  575MOL0     H75878  -1.092   4.681   8.965  1.9449  1.2223  2.2440
  575MOL0     H75879  -1.123   4.516   8.920 -0.4151 -1.4488  0.7479
  575MOL0     H75880  -1.315   4.618   9.064  0.1103  1.3854 -0.0706
  575MOL0     H75881  -1.186   4.627   9.197 -0.4430  0.6069 -0.7547
  575MOL0     H75882  -0.102   4.155   9.176 -0.0095  0.2434  0.6255
  575MOL0     H75883   0.112   4.270   9.170  0.3719 -0.5694 -2.0235
  575MOL0     H75884   0.364   4.672   9.158 -1.3781 -4.1356 -1.0317
  575MOL0     H75885   0.589   4.775   9.120 -0.2033 -2.5379  0.5822
  575MOL0     H75886   2.301   5.166   9.498  1.9848  0.4490 -1.9954
  575MOL0     H75887   2.530   5.234   9.448 -0.1227  1.4296  0.2786
  575MOL0     H75888   2.936   5.353   9.685 -2.2214  4.6759 -1.1168
  575MOL0     H75889   3.182   5.331   9.672 -0.3887 -1.1857 -0.2303
  575MOL0     H75890   3.355   5.625   9.504  0.1449 -0.8411  1.2504
  575MOL0     H75891   3.328   5.602   9.338  0.4270  1.8450  0.1356
  575MOL0     H75892   3.548   5.667   9.393 -1.8529 -0.3825  0.4959
  575MOL0     H75893   3.570   5.536   9.517  0.3868 -0.9735  0.9212
  575MOL0     H75894   3.586   5.521   9.206  0.3973 -0.9913 -1.3425
  575MOL0     H75895   3.527   5.375   9.292 -2.1020  0.9481 -2.4641
  575MOL0     H75896   3.791   5.526   9.354 -1.9919  1.2623 -1.3956
  575MOL0     H75897   3.725   5.399   9.452 -2.4009  0.5063 -0.7966
  575MOL0     H75898   3.833   5.192   9.083  1.0321  0.4929  0.9610
  575MOL0     H75899   3.152   5.459   9.265  0.5011 -1.2800  0.2653
  575MOL0     H75900   2.908   5.469   9.276  1.9540  1.4311 -1.1739
  576MOL0     O75901   9.263   7.517  10.445 -0.8029  0.6779  0.5971
  576MOL0     C75902   9.319   7.613  10.395 -0.1578 -0.8851  0.3797
  576MOL0     O75903   9.274   7.741  10.404 -0.2068 -0.0023 -0.8274
  576MOL0     C75904   9.168   7.785  10.479  0.6440  0.2774  0.1657
  576MOL0     C75905   9.085   7.885  10.419 -0.3450  0.4083  0.2203
  576MOL0     C75906   8.980   7.946  10.492  0.0642 -0.4368  0.0100
  576MOL0     C75907   8.947   7.898  10.619  0.6856 -0.1876 -0.3132
  576MOL0     O75908   8.833   7.952  10.682 -0.1278 -0.5943 -0.7495
  576MOL0     C75909   8.817   7.943  10.825  0.1425  0.8032 -0.6846
  576MOL0     C75910   8.704   7.846  10.846 -0.1907  0.3299 -0.3408
  576MOL0     C75911   8.590   7.864  10.742  0.1391  1.2579 -0.7929
  576MOL0     C75912   8.469   7.767  10.783 -0.2094  0.2539  0.1869
  576MOL0     C75913   8.362   7.754  10.664  0.5591  0.1774  0.1390
  576MOL0     C75914   8.320   7.884  10.590  0.2604  0.1344  1.3601
  576MOL0     C75915   8.187   7.868  10.511  0.2151  0.7368 -0.8463
  576MOL0     C75916   8.135   7.991  10.427  0.0815 -0.2365 -0.1033
  576MOL0     N75917   8.108   8.114  10.495  0.2930 -0.3026  0.2098
  576MOL0     C75918   8.047   8.218  10.424 -0.6814 -0.6802  0.3463
  576MOL0     C75919   7.983   8.284  10.519 -0.5570  0.6001  0.2580
  576MOL0     C75920   7.903   8.409  10.497 -0.1629  0.0823  0.2061
  576MOL0     C75921   7.752   8.391  10.457 -0.1097 -0.1434  0.2341
  576MOL0     C75922   7.664   8.406  10.576 -0.7468 -0.6655 -0.2373
  576MOL0     C75923   7.517   8.436  10.542  0.7385 -0.2370  0.3967
  576MOL0     O75924   7.465   8.318  10.485 -0.0954  0.4756  0.6796
  576MOL0     C75925   7.342   8.273  10.534 -0.1194  0.2560 -1.6117
  576MOL0     C75926   7.233   8.260  10.444  0.0369  0.4195 -0.5497
  576MOL0     C75927   7.104   8.216  10.494  0.4718 -0.1463  0.9308
  576MOL0     C75928   7.087   8.200  10.629 -0.3988  0.2451 -0.7856
  576MOL0     C75929   6.961   8.152  10.691  0.8639 -1.3775  0.5108
  576MOL0     O75930   6.859   8.112  10.599  0.1743 -0.2643  0.5934
  576MOL0     C75931   6.734   8.051  10.632 -0.8449 -0.0244 -0.4284
  576MOL0     C75932   6.639   8.032  10.531  0.4608 -0.1273  0.4461
  576MOL0     C75933   6.512   7.981  10.561  0.9182 -0.5566  0.8262
  576MOL0     C75934   6.476   7.935  10.688  0.3967  0.4840 -0.8307
  576MOL0     O75935   6.347   7.889  10.715  1.0935 -0.0894  0.0767
  576MOL0     C75936   6.275   7.946  10.830 -0.5444  0.0700  0.7504
  576MOL0     C75937   6.130   7.912  10.806  0.1737 -0.1487 -0.3844
  576MOL0     C75938   6.100   7.762  10.823 -0.4919  0.0764 -0.8456
  576MOL0     C75939   5.953   7.754  10.844 -0.3481 -0.3504  0.3361
  576MOL0     C75940   5.901   7.617  10.811 -0.2305  0.1923 -0.6799
  576MOL0     C75941   5.747   7.607  10.821  0.6291 -0.6564  0.7693
  576MOL0     C75942   5.696   7.472  10.785  0.3704 -0.0332  0.3031
  576MOL0     C75943   5.565   7.426  10.850 -1.2791  0.3986 -0.4494
  576MOL0    Cl75944   5.576   7.435  11.030 -0.1774 -0.1650 -0.3792
  576MOL0     C75945   6.580   7.937  10.786  0.1407  0.2589 -0.0965
  576MOL0     C75946   6.702   8.002  10.757  0.1106  0.0688 -0.1596
  576MOL0     O75947   6.948   8.178  10.807 -0.1684  0.2049 -0.0372
  576MOL0     C75948   7.212   8.206  10.713  1.3418 -1.5870 -0.2031
  576MOL0     C75949   7.336   8.239  10.668 -0.1932  0.4388  0.0005
  576MOL0     N75950   7.990   8.225  10.646 -0.7680  0.0871 -0.2285
  576MOL0     N75951   8.074   8.133  10.629 -0.0389  0.2955 -0.2365
  576MOL0     C75952   9.030   7.796  10.672 -0.1159 -0.2361 -0.0355
  576MOL0     C75953   9.138   7.741  10.606  0.2439 -0.6384 -0.0534
  576MOL0     C75954   9.431   7.581  10.310  0.1338 -0.0146 -0.1228
  576MOL0     C75955   9.516   7.687  10.276 -0.0567 -0.3375  1.0989
  576MOL0     C75956   9.634   7.660  10.209 -0.5634 -0.1927  0.0299
  576MOL0     C75957   9.660   7.535  10.167 -0.8388  1.0383  0.4820
  576MOL0     O75958   9.778   7.500  10.090  0.8523 -0.2692 -0.0723
  576MOL0     C75959   9.876   7.597  10.054 -0.6778 -0.9083 -1.0000
  576MOL0     C75960  10.006   7.536  10.005 -0.3498 -0.2003 -0.8543
  576MOL0     C75961  10.096   7.477  10.102  0.2034  0.0973 -0.2097
  576MOL0     C75962  10.224   7.564  10.118  0.7015  0.1555 -0.5612
  576MOL0     C75963  10.303   7.512  10.228 -1.0556 -0.5208 -0.0543
  576MOL0     C75964  10.371   7.456  10.315 -0.4130 -0.1426 -0.1554
  576MOL0     C75965   9.584   7.424  10.204 -0.7126 -0.6627  0.6550
  576MOL0     C75966   9.473   7.449  10.286  0.4170  0.7239 -0.2385
  576MOL0     H75967   9.110   7.919  10.319 -2.3088  2.0198  0.2054
  576MOL0     H75968   8.917   8.025  10.454  0.6755  0.9321  1.7430
  576MOL0     H75969   8.791   8.043  10.863 -2.3863 -0.2103  0.4306
  576MOL0     H75970   8.904   7.906  10.879 -0.1683 -1.4564 -1.6412
  576MOL0     H75971   8.659   7.855  10.946  1.0504  1.4271  0.1606
  576MOL0     H75972   8.736   7.743  10.832 -0.4989 -0.0679  1.5776
  576MOL0     H75973   8.625   7.833  10.643  1.2189 -0.5123  0.0825
  576MOL0     H75974   8.540   7.961  10.734  0.6113  1.9141  2.7294
  576MOL0     H75975   8.510   7.669  10.808 -0.6162  0.6497  2.6602
  576MOL0     H75976   8.429   7.809  10.876 -0.8968 -0.7396  0.3664
  576MOL0     H75977   8.274   7.699  10.699 -0.1955  0.6809 -0.9488
  576MOL0     H75978   8.410   7.693  10.587  0.7774  0.9784 -0.3716
  576MOL0     H75979   8.393   7.918  10.517 -0.8387 -0.0326  0.1499
  576MOL0     H75980   8.306   7.962  10.665  2.9803  0.9659  1.0945
  576MOL0     H75981   8.199   7.788  10.438 -1.0188  0.8623 -1.2242
  576MOL0     H75982   8.103   7.838  10.575 -1.9712 -1.2660 -4.3188
  576MOL0     H75983   8.041   7.957  10.383  0.2898  0.1814 -0.8888
  576MOL0     H75984   8.205   8.003  10.344  0.4476 -0.8720  0.1125
  576MOL0     H75985   8.071   8.241  10.321  0.4273 -3.1707 -0.0188
  576MOL0     H75986   7.948   8.476  10.423 -0.8564 -0.2980 -0.5808
  576MOL0     H75987   7.915   8.468  10.588  1.3524  2.0217 -1.1564
  576MOL0     H75988   7.738   8.295  10.408  2.9379 -0.4561 -0.2278
  576MOL0     H75989   7.722   8.478  10.397 -0.1909  1.4115  2.3962
  576MOL0     H75990   7.667   8.316  10.639 -0.4235 -1.1492 -0.9274
  576MOL0     H75991   7.699   8.488  10.638 -1.0020 -2.7515  2.9368
  576MOL0     H75992   7.511   8.522  10.474 -2.0201  2.0051  3.1484
  576MOL0     H75993   7.469   8.476  10.632  2.0011 -0.4606  1.1835
  576MOL0     H75994   7.259   8.261  10.338 -0.3710 -1.8243 -0.7252
  576MOL0     H75995   7.023   8.201  10.423 -0.2746  3.3834  0.8589
  576MOL0     H75996   6.658   8.060  10.428 -2.6204 -0.5570 -0.3134
  576MOL0     H75997   6.440   7.986  10.480 -1.3701 -1.2463  2.6935
  576MOL0     H75998   6.282   8.055  10.831 -1.6177  0.1502  0.6030
  576MOL0     H75999   6.302   7.903  10.927  0.2490 -0.9070  0.1082
  576MOL0     H76000   6.104   7.962  10.713  2.0045  1.1723 -0.2453
  576MOL0     H76001   6.083   7.961  10.892  0.1110 -0.4217 -0.2614
  576MOL0     H76002   6.138   7.703  10.907 -1.1834 -0.4530 -0.8925
  576MOL0     H76003   6.126   7.706  10.732 -1.3670  0.0458 -1.0881
  576MOL0     H76004   5.922   7.800  10.939  3.1834  3.0138  0.1167
  576MOL0     H76005   5.912   7.816  10.764 -0.0006 -1.1691 -0.4881
  576MOL0     H76006   5.936   7.551  10.891 -1.5866 -2.3141 -2.0349
  576MOL0     H76007   5.940   7.576  10.718 -0.3610 -2.2824  0.2546
  576MOL0     H76008   5.698   7.674  10.750  1.0966 -0.7882  0.3171
  576MOL0     H76009   5.708   7.631  10.920 -2.1701 -0.2219 -0.3348
  576MOL0     H76010   5.694   7.466  10.676  3.7387  3.3595 -0.1638
  576MOL0     H76011   5.773   7.396  10.799 -0.1677 -0.7880 -0.6886
  576MOL0     H76012   5.546   7.326  10.810 -0.9766  0.0694  0.2039
  576MOL0     H76013   5.480   7.489  10.824 -0.7275  0.8546 -1.1897
  576MOL0     H76014   6.571   7.883  10.879 -1.9038  0.0562 -0.3792
  576MOL0     H76015   6.776   8.001  10.837  0.5326 -2.6762 -0.4698
  576MOL0     H76016   7.212   8.182  10.819  0.3940 -0.6952  0.0102
  576MOL0     H76017   7.424   8.247  10.731  0.8581  1.4100 -1.5322
  576MOL0     H76018   9.025   7.755  10.773 -1.1693 -0.9269 -0.3528
  576MOL0     H76019   9.191   7.661  10.656  1.2721  0.5272  0.7784
  576MOL0     H76020   9.488   7.787  10.307 -0.8247 -0.8403  2.0826
  576MOL0     H76021   9.689   7.750  10.182 -2.7925  0.9723 -0.9090
  576MOL0     H76022   9.903   7.654  10.144  1.3364  0.0217 -2.1151
  576MOL0     H76023   9.844   7.678   9.988  0.1583  2.8949  2.7904
  576MOL0     H76024   9.978   7.472   9.921  0.2356 -0.5820 -0.7628
  576MOL0     H76025  10.061   7.618   9.957  0.0853  0.3170  0.4883
  576MOL0     H76026  10.123   7.375  10.070  0.9378  0.0247  0.5837
  576MOL0     H76027  10.044   7.474  10.198  0.3425  1.5020 -0.0734
  576MOL0     H76028  10.282   7.564  10.026 -0.7001  0.8920 -1.4778
  576MOL0     H76029  10.205   7.669  10.143 -0.4061  0.2617 -1.7488
  576MOL0     H76030  10.421   7.389  10.382 -0.4397 -1.5818 -1.5262
  576MOL0     H76031   9.614   7.323  10.177 -1.0415 -0.4726 -0.4394
  576MOL0     H76032   9.403   7.372  10.316  2.2805 -1.2114 -0.6262
  577MOL0     O76033   2.907   1.960   7.548 -0.0002  0.1596 -0.4730
  577MOL0     C76034   2.930   2.071   7.602  1.0731  0.0850  0.4705
  577MOL0     O76035   2.830   2.167   7.632  0.1769 -0.6409 -0.1385
  577MOL0     C76036   2.700   2.152   7.576 -0.4976 -0.4894 -0.2240
  577MOL0     C76037   2.604   2.208   7.659 -0.1697 -0.0586 -0.7051
  577MOL0     C76038   2.464   2.192   7.632 -0.0780  0.3906 -0.6745
  577MOL0     C76039   2.425   2.133   7.516  0.8707  0.6063 -1.3111
  577MOL0     O76040   2.283   2.120   7.495  0.5478  0.4920 -0.0710
  577MOL0     C76041   2.241   2.054   7.375  0.0315 -0.4157 -0.2947
  577MOL0     C76042   2.085   2.032   7.385  0.7749 -0.8145  0.5546
  577MOL0     C76043   1.996   2.161   7.377  0.4604  0.1507  0.2567
  577MOL0     C76044   1.845   2.123   7.384  0.4049  0.0632 -0.3859
  577MOL0     C76045   1.767   2.240   7.449 -0.3654 -0.8337 -0.3183
  577MOL0     C76046   1.616   2.215   7.415 -0.0414 -0.3233 -0.1507
  577MOL0     C76047   1.531   2.321   7.495  0.0680  0.3536  0.2365
  577MOL0     C76048   1.387   2.277   7.472 -0.0936 -0.1739 -0.3140
  577MOL0     N76049   1.298   2.390   7.521 -0.7949  0.0625  0.3036
  577MOL0     C76050   1.214   2.465   7.442 -0.2157  0.0030  0.7277
  577MOL0     C76051   1.163   2.556   7.531 -0.8040 -0.4688  0.4196
  577MOL0     C76052   1.070   2.665   7.494  1.0543  0.1198 -0.1822
  577MOL0     C76053   0.930   2.643   7.543  0.3769 -0.3804 -0.1317
  577MOL0     C76054   0.829   2.730   7.462  0.0198  0.4150 -0.2931
  577MOL0     C76055   0.761   2.656   7.351  0.5188  0.0050  0.5224
  577MOL0     O76056   0.662   2.752   7.290  0.3517  0.0815 -0.0947
  577MOL0     C76057   0.556   2.698   7.225  1.0255 -0.0642 -0.3437
  577MOL0     C76058   0.495   2.578   7.259 -0.4814  0.2661 -0.3316
  577MOL0     C76059   0.383   2.539   7.190  0.1686  0.9635 -0.4082
  577MOL0     C76060   0.337   2.607   7.072  0.2963 -0.3727  0.0009
  577MOL0     C76061   0.215   2.556   7.007 -0.3831  0.1915  1.0893
  577MOL0     O76062   0.129   2.484   7.082 -0.2396 -0.0209  0.7373
  577MOL0     C76063   0.013   2.427   7.030  0.4970 -0.5810 -0.5180
  577MOL0     C76064  -0.087   2.510   6.985  0.2934 -0.2724 -0.3732
  577MOL0     C76065  -0.217   2.454   6.950  0.0803 -0.6613  1.0784
  577MOL0     C76066  -0.223   2.308   6.939 -0.2559 -0.5356  0.4513
  577MOL0     O76067  -0.333   2.250   6.893 -0.1450  0.5538 -0.1387
  577MOL0     C76068  -0.359   2.110   6.856  0.0565 -0.2851  0.0086
  577MOL0     C76069  -0.473   2.096   6.766  0.0596 -0.3705 -0.2970
  577MOL0     C76070  -0.512   1.945   6.740 -0.0242  1.0121 -0.1933
  577MOL0     C76071  -0.618   1.928   6.640  0.6810 -0.5927  0.2760
  577MOL0     C76072  -0.669   1.784   6.631  0.4410  0.5079 -0.0245
  577MOL0     C76073  -0.802   1.781   6.547  0.2780 -0.2037 -0.4371
  577MOL0     C76074  -0.921   1.829   6.628 -0.2873 -0.3780  0.3875
  577MOL0     C76075  -1.056   1.813   6.560 -0.9088 -0.8297  0.6337
  577MOL0    Cl76076  -1.184   1.877   6.666  0.0696  0.9475 -0.1085
  577MOL0     C76077  -0.113   2.233   6.973 -0.0093  0.6577 -0.8895
  577MOL0     C76078  -0.004   2.292   7.036 -0.3049  0.0326  0.4105
  577MOL0     O76079   0.197   2.574   6.885  0.2837 -0.3349  0.5313
  577MOL0     C76080   0.404   2.726   7.040  0.3682 -0.5753 -0.1255
  577MOL0     C76081   0.513   2.772   7.114 -0.1329 -0.2913 -0.5537
  577MOL0     N76082   1.205   2.515   7.654  0.2335  0.0001  0.2115
  577MOL0     N76083   1.278   2.408   7.650 -0.4816 -1.0301 -0.2304
  577MOL0     C76084   2.523   2.102   7.416  0.5643  0.1699  0.0442
  577MOL0     C76085   2.660   2.107   7.454 -0.2138  0.6910 -0.1636
  577MOL0     C76086   3.066   2.096   7.624 -0.0403  0.5317 -0.1177
  577MOL0     C76087   3.172   2.011   7.587  0.3410 -0.2773  0.1384
  577MOL0     C76088   3.303   2.037   7.623 -0.1898 -0.1584 -0.5765
  577MOL0     C76089   3.345   2.147   7.694 -0.2216 -0.8474 -0.6138
  577MOL0     O76090   3.480   2.178   7.722  0.4041 -0.6130  0.3300
  577MOL0     C76091   3.519   2.310   7.771  1.2045  0.5660  0.5883
  577MOL0     C76092   3.667   2.314   7.758 -0.3878  0.3643 -0.7499
  577MOL0     C76093   3.725   2.447   7.826 -0.2727  0.5200  0.6309
  577MOL0     C76094   3.873   2.458   7.844  0.4003 -0.2150 -0.0708
  577MOL0     C76095   3.929   2.491   7.712  0.2927 -0.5520 -0.1051
  577MOL0     C76096   3.976   2.523   7.604 -0.4484  0.4073 -0.3284
  577MOL0     C76097   3.244   2.242   7.726 -0.8585 -0.0036  0.1493
  577MOL0     C76098   3.109   2.216   7.697  0.8977 -0.2340 -0.0676
  577MOL0     H76099   2.644   2.261   7.745 -1.3473  1.0906 -0.8412
  577MOL0     H76100   2.403   2.241   7.707  1.4702  0.1067  0.8308
  577MOL0     H76101   2.302   1.963   7.371  0.7588 -0.0315  1.1725
  577MOL0     H76102   2.265   2.119   7.291  1.8729  3.0839  2.6509
  577MOL0     H76103   2.055   1.978   7.475  2.1746 -1.5437  0.6107
  577MOL0     H76104   2.058   1.971   7.299  1.6589 -0.8927  0.3199
  577MOL0     H76105   2.027   2.211   7.284  1.8651 -2.7946 -0.9811
  577MOL0     H76106   2.018   2.224   7.464 -0.9222  3.4297 -1.5449
  577MOL0     H76107   1.810   2.103   7.282  0.5729 -0.2664 -0.3795
  577MOL0     H76108   1.843   2.034   7.447 -1.8280 -0.1325 -0.6427
  577MOL0     H76109   1.805   2.332   7.404  0.1860 -0.5301  0.7353
  577MOL0     H76110   1.779   2.244   7.558  0.0417  0.0076 -0.3880
  577MOL0     H76111   1.600   2.116   7.459 -2.8256 -0.4051 -1.1646
  577MOL0     H76112   1.590   2.225   7.310  0.4278  0.8372 -0.1717
  577MOL0     H76113   1.551   2.320   7.603  1.7646  1.0040 -0.0402
  577MOL0     H76114   1.547   2.424   7.460 -0.4345  1.0922  2.0759
  577MOL0     H76115   1.358   2.189   7.530  0.6618  1.2728  2.4586
  577MOL0     H76116   1.361   2.267   7.366 -4.1509  0.9159  0.4024
  577MOL0     H76117   1.202   2.454   7.335 -1.6285 -0.6175  0.9279
  577MOL0     H76118   1.062   2.658   7.385  1.6395 -2.1573 -0.1166
  577MOL0     H76119   1.110   2.761   7.526 -0.3929  0.8969 -0.5794
  577MOL0     H76120   0.924   2.684   7.645 -0.3187 -0.1830 -0.2427
  577MOL0     H76121   0.911   2.535   7.545 -0.4275 -0.2706  2.0853
  577MOL0     H76122   0.749   2.748   7.535 -1.5262 -2.0490 -1.2448
  577MOL0     H76123   0.877   2.820   7.423 -0.4111  1.7161  1.9620
  577MOL0     H76124   0.713   2.564   7.386 -0.3779  0.3282  0.1820
  577MOL0     H76125   0.838   2.627   7.280  1.3771  0.7924  1.1085
  577MOL0     H76126   0.507   2.519   7.349 -1.7939  1.0448  0.3921
  577MOL0     H76127   0.326   2.452   7.223  0.3219 -0.2024 -2.9652
  577MOL0     H76128  -0.069   2.616   6.972 -3.9278  0.8889  1.4170
  577MOL0     H76129  -0.302   2.513   6.920  1.1226  0.0705 -0.5559
  577MOL0     H76130  -0.372   2.047   6.944  1.4181 -2.2165 -1.0965
  577MOL0     H76131  -0.276   2.073   6.796  0.7449  2.4285 -0.8636
  577MOL0     H76132  -0.438   2.143   6.674  3.4988 -0.9153  0.6070
  577MOL0     H76133  -0.565   2.140   6.807 -0.5606  0.1310 -2.1287
  577MOL0     H76134  -0.530   1.888   6.832 -0.6053 -0.3294 -1.1085
  577MOL0     H76135  -0.434   1.893   6.685 -0.5890  0.1638 -0.2177
  577MOL0     H76136  -0.705   1.987   6.668 -1.4283 -2.6101 -1.5667
  577MOL0     H76137  -0.568   1.952   6.545 -0.3207 -1.1493 -0.4099
  577MOL0     H76138  -0.674   1.737   6.729  3.2434 -2.1556 -0.9856
  577MOL0     H76139  -0.594   1.720   6.583  0.5628  1.6616 -1.4556
  577MOL0     H76140  -0.825   1.680   6.513 -2.2486 -0.1895  0.9423
  577MOL0     H76141  -0.788   1.841   6.457 -1.6736  2.0220  0.6521
  577MOL0     H76142  -0.924   1.771   6.721  1.9149 -1.2856 -0.0434
  577MOL0     H76143  -0.905   1.934   6.654  1.2382 -0.8537  1.5143
  577MOL0     H76144  -1.079   1.711   6.527  2.3406 -0.8778 -2.0029
  577MOL0     H76145  -1.043   1.867   6.466 -4.8931 -0.7636 -0.0454
  577MOL0     H76146  -0.119   2.125   6.970  0.2392  0.4416  2.6656
  577MOL0     H76147   0.084   2.245   7.079 -1.4875 -0.1238  2.8433
  577MOL0     H76148   0.374   2.769   6.945 -1.5612 -1.5082  0.0120
  577MOL0     H76149   0.565   2.862   7.083 -1.3630  0.5120 -0.3719
  577MOL0     H76150   2.483   2.078   7.318 -2.6030 -4.0034  2.0483
  577MOL0     H76151   2.730   2.069   7.381 -1.8149 -1.1495 -0.8364
  577MOL0     H76152   3.146   1.921   7.532  1.3874 -0.5523  0.0692
  577MOL0     H76153   3.390   1.977   7.596 -0.1423 -1.2853  1.8758
  577MOL0     H76154   3.492   2.314   7.877 -0.2480 -1.2058  0.3440
  577MOL0     H76155   3.459   2.386   7.721 -1.2617 -0.3112  2.0301
  577MOL0     H76156   3.713   2.231   7.812  0.2996  1.8193  1.0223
  577MOL0     H76157   3.695   2.305   7.653 -1.2608 -2.6052 -0.8035
  577MOL0     H76158   3.682   2.444   7.927 -2.0140 -3.6341  0.0058
  577MOL0     H76159   3.684   2.534   7.774  1.2793 -0.0116 -1.6210
  577MOL0     H76160   3.905   2.537   7.913  0.4894  0.4552 -0.8676
  577MOL0     H76161   3.901   2.358   7.879 -3.2003 -0.7746  1.5991
  577MOL0     H76162   4.021   2.578   7.523  3.1715  1.5425  2.1762
  577MOL0     H76163   3.278   2.336   7.766 -0.4148  0.1637 -0.6049
  577MOL0     H76164   3.033   2.291   7.719  1.0701 -0.3794  1.0581
  578MOL0     O76165   7.729   8.953  10.845 -0.0424 -0.3124  0.0951
  578MOL0     C76166   7.809   9.030  10.789  0.0366  0.7761 -0.2775
  578MOL0     O76167   7.842   9.030  10.656  0.4052 -0.2809 -0.1755
  578MOL0     C76168   7.780   8.946  10.571  0.5798 -0.3340 -0.5451
  578MOL0     C76169   7.642   8.940  10.564  0.2359 -0.4204  0.4145
  578MOL0     C76170   7.578   8.860  10.479  0.7434 -1.2746  0.1582
  578MOL0     C76171   7.639   8.784  10.387 -0.5113 -0.5002 -0.8785
  578MOL0     O76172   7.570   8.700  10.311  0.0970  0.4982  0.2937
  578MOL0     C76173   7.596   8.693  10.166 -0.1787  0.8395  0.4827
  578MOL0     C76174   7.526   8.570  10.111 -0.2965 -0.4343  1.3004
  578MOL0     C76175   7.380   8.570  10.148  0.5428  0.9388 -0.6701
  578MOL0     C76176   7.302   8.683  10.086 -0.3655 -1.1426 -0.2709
  578MOL0     C76177   7.157   8.701  10.138 -0.3563 -0.3873  0.2062
  578MOL0     C76178   7.101   8.841  10.089  0.0527  0.1657  0.2002
  578MOL0     C76179   6.952   8.828  10.130  0.3360 -0.4571  0.0664
  578MOL0     C76180   6.883   8.971  10.126  0.1006  0.6028  0.2684
  578MOL0     N76181   6.944   9.048  10.237 -0.9676 -0.6985  0.1305
  578MOL0     C76182   7.042   9.149  10.227  0.3510  0.1366 -0.7752
  578MOL0     C76183   7.059   9.193  10.349 -0.6357 -0.1629  0.2512
  578MOL0     C76184   7.161   9.298  10.394 -0.0246 -0.0859 -0.1920
  578MOL0     C76185   7.307   9.250  10.386  0.4256  0.2051  0.4713
  578MOL0     C76186   7.409   9.358  10.370 -0.6988 -0.3985  0.1795
  578MOL0     C76187   7.552   9.297  10.361  0.1925  0.0413  0.1810
  578MOL0     O76188   7.647   9.406  10.353  0.3152  0.4768  0.5676
  578MOL0     C76189   7.734   9.440  10.458 -0.1336 -0.3033 -0.0344
  578MOL0     C76190   7.823   9.546  10.431  1.1777  0.2219 -0.5106
  578MOL0     C76191   7.925   9.583  10.518  0.0609  0.2857  0.7465
  578MOL0     C76192   7.940   9.518  10.644 -1.0274  0.6898  0.6718
  578MOL0     C76193   8.055   9.576  10.723 -0.4172  1.3737  0.3075
  578MOL0     O76194   8.175   9.619  10.664 -0.8524  0.4332  0.6201
  578MOL0     C76195   8.270   9.676  10.749 -0.5677  1.8314 -0.1644
  578MOL0     C76196   8.325   9.792  10.703 -0.2101  0.2884  0.2311
  578MOL0     C76197   8.439   9.857  10.774 -0.0582  0.8870 -0.3567
  578MOL0     C76198   8.480   9.796  10.896  0.3300 -0.4307 -0.2702
  578MOL0     O76199   8.577   9.850  10.973 -0.3610 -0.5814 -0.3842
  578MOL0     C76200   8.648   9.966  10.924  0.6501  0.8411  0.5710
  578MOL0     C76201   8.765   9.994  11.014 -0.4113 -0.3298 -0.3136
  578MOL0     C76202   8.833  10.122  10.966 -0.3822  0.0198 -0.5001
  578MOL0     C76203   8.958  10.156  11.039  0.2069 -0.0790 -0.8249
  578MOL0     C76204   8.953  10.154  11.189 -0.2858  0.1569 -1.1130
  578MOL0     C76205   8.852  10.248  11.249 -0.6351 -0.2545 -0.0179
  578MOL0     C76206   8.852  10.229  11.405  0.3159 -0.4028  0.1685
  578MOL0     C76207   8.991  10.235  11.465 -0.2865 -0.0181 -0.1666
  578MOL0    Cl76208   9.096  10.358  11.402 -0.7706 -0.3292 -0.2165
  578MOL0     C76209   8.422   9.676  10.936  0.5365  0.0675  0.4179
  578MOL0     C76210   8.326   9.615  10.862  0.5104  0.6787  0.0520
  578MOL0     O76211   8.029   9.587  10.838  0.1567  0.1924  0.5005
  578MOL0     C76212   7.843   9.426  10.677 -1.0893 -0.7726  0.1414
  578MOL0     C76213   7.744   9.387  10.591 -0.1997  1.0643  0.6318
  578MOL0     N76214   6.969   9.133  10.435 -0.1824  0.1326 -0.1502
  578MOL0     N76215   6.905   9.046  10.369 -0.1194  0.5086  0.2693
  578MOL0     C76216   7.776   8.783  10.388 -0.3259  0.4867  0.5849
  578MOL0     C76217   7.847   8.867  10.483  0.1039 -0.3330  1.0138
  578MOL0     C76218   7.894   9.104  10.880 -0.4202 -0.5564 -0.1596
  578MOL0     C76219   7.893   9.102  11.023 -0.5038 -0.1879  0.5935
  578MOL0     C76220   7.988   9.182  11.094  0.2917  0.2933  0.7479
  578MOL0     C76221   8.083   9.260  11.026  0.3792  0.7543  0.0756
  578MOL0     O76222   8.175   9.345  11.078 -0.3204  0.1404  0.3635
  578MOL0     C76223   8.226   9.322  11.207  0.5704 -0.1210  0.5862
  578MOL0     C76224   8.365   9.384  11.214 -0.2903 -0.1739  1.4003
  578MOL0     C76225   8.464   9.299  11.135  0.4231  0.7429  0.0804
  578MOL0     C76226   8.599   9.361  11.107 -0.8178 -1.2455  0.6874
  578MOL0     C76227   8.678   9.293  11.004 -0.0139 -0.5389 -0.2577
  578MOL0     C76228   8.750   9.225  10.935  0.1438 -0.0707 -0.3010
  578MOL0     C76229   8.087   9.248  10.888  0.5397  0.2115  0.0916
  578MOL0     C76230   7.990   9.181  10.817  1.0079 -0.5923 -0.5982
  578MOL0     H76231   7.576   8.997  10.628  0.1496  0.3672 -0.3575
  578MOL0     H76232   7.470   8.860  10.492  0.9627 -1.5572  2.2678
  578MOL0     H76233   7.701   8.691  10.136 -0.7212 -1.2815 -1.6703
  578MOL0     H76234   7.555   8.775  10.107 -0.9174 -1.8757 -3.1797
  578MOL0     H76235   7.566   8.472  10.137 -0.6782 -1.0372 -0.2658
  578MOL0     H76236   7.544   8.575  10.003 -0.4944  1.0800  1.3160
  578MOL0     H76237   7.372   8.580  10.257  0.2397 -1.0671 -0.4586
  578MOL0     H76238   7.336   8.474  10.119 -0.7054  0.6823  1.7972
  578MOL0     H76239   7.358   8.774  10.110 -2.8093  0.4235 -0.1900
  578MOL0     H76240   7.307   8.679   9.977  1.6879  3.4380 -0.5652
  578MOL0     H76241   7.154   8.701  10.247  0.3780 -0.6084  0.2296
  578MOL0     H76242   7.092   8.614  10.120  1.0827 -1.5029  0.1589
  578MOL0     H76243   7.122   8.865   9.984  4.0103 -0.9302  0.5542
  578MOL0     H76244   7.154   8.918  10.146 -0.3036  2.3046 -2.1571
  578MOL0     H76245   6.901   8.769  10.053 -0.0831  0.8671 -0.6986
  578MOL0     H76246   6.943   8.776  10.226 -1.9095 -2.3872 -1.0961
  578MOL0     H76247   6.778   8.949  10.148 -0.0005  1.3217  0.5232
  578MOL0     H76248   6.879   9.019  10.028 -0.5418  1.5341  0.7383
  578MOL0     H76249   7.087   9.182  10.134 -2.8970 -0.1547 -2.6180
  578MOL0     H76250   7.144   9.323  10.499 -0.5849  1.0765 -0.5411
  578MOL0     H76251   7.146   9.389  10.336  1.3205 -0.4698 -1.1851
  578MOL0     H76252   7.305   9.183  10.299 -0.5382  3.0198 -1.8674
  578MOL0     H76253   7.332   9.193  10.476 -2.5766 -1.1171  0.5919
  578MOL0     H76254   7.393   9.417  10.280  4.6345 -0.7740 -1.3645
  578MOL0     H76255   7.414   9.430  10.452  1.1581  1.7645 -1.6929
  578MOL0     H76256   7.558   9.231  10.274 -0.8974 -2.0042  1.5747
  578MOL0     H76257   7.575   9.238  10.450 -2.0785 -0.8595  0.2557
  578MOL0     H76258   7.808   9.610  10.345  2.6794  3.1776  1.2731
  578MOL0     H76259   7.984   9.671  10.496  0.1551  0.0866  0.1895
  578MOL0     H76260   8.288   9.837  10.612 -0.4249 -0.6183 -0.1333
  578MOL0     H76261   8.478   9.950  10.733  0.1152 -0.0797 -2.5550
  578MOL0     H76262   8.575  10.047  10.919  1.7397  1.7783 -3.4004
  578MOL0     H76263   8.677   9.961  10.819 -1.2843 -0.1957  0.0386
  578MOL0     H76264   8.823   9.902  11.003 -1.4692 -0.8794 -1.5806
  578MOL0     H76265   8.736   9.994  11.119 -3.2026 -0.3709 -1.0078
  578MOL0     H76266   8.765  10.203  10.995 -1.1645 -1.0761  0.8820
  578MOL0     H76267   8.859  10.113  10.860  3.6002  0.4875  0.3014
  578MOL0     H76268   9.040  10.095  11.001 -0.1719  0.2349 -2.2285
  578MOL0     H76269   8.988  10.253  10.999  4.4817  0.3843  2.6987
  578MOL0     H76270   9.053  10.187  11.219 -0.0324 -1.2235 -0.3538
  578MOL0     H76271   8.937  10.050  11.217  1.1418  0.1811 -0.0966
  578MOL0     H76272   8.755  10.229  11.202 -1.6875  1.3319  1.3756
  578MOL0     H76273   8.881  10.351  11.227 -1.9924 -0.2020 -1.7732
  578MOL0     H76274   8.789  10.310  11.442  0.4625  0.3984 -1.2896
  578MOL0     H76275   8.815  10.131  11.436 -0.2173 -0.7686 -1.5290
  578MOL0     H76276   9.041  10.138  11.452  1.6980  0.8043  0.8518
  578MOL0     H76277   8.986  10.266  11.570 -0.7592  1.4076 -0.5865
  578MOL0     H76278   8.453   9.621  11.024  0.8069 -0.6017 -0.0904
  578MOL0     H76279   8.303   9.513  10.893 -0.1952  0.3696 -1.4042
  578MOL0     H76280   7.857   9.383  10.776  3.3520 -3.2494 -1.2540
  578MOL0     H76281   7.678   9.306  10.621 -1.1352  1.2814 -0.7367
  578MOL0     H76282   7.832   8.725  10.314 -1.4315  0.9931 -0.6926
  578MOL0     H76283   7.954   8.861  10.465  0.3522  2.2091  1.2148
  578MOL0     H76284   7.809   9.047  11.063 -1.5618 -1.7259 -3.2238
  578MOL0     H76285   7.980   9.173  11.202  0.8374  2.8986  1.0746
  578MOL0     H76286   8.223   9.216  11.233 -0.6599 -0.2565  0.0085
  578MOL0     H76287   8.160   9.373  11.278 -1.1333 -0.2567 -0.8138
  578MOL0     H76288   8.358   9.489  11.182  1.3677 -0.5510 -0.4016
  578MOL0     H76289   8.392   9.369  11.319  1.8315 -1.6350  0.7034
  578MOL0     H76290   8.423   9.262  11.041 -1.7095  1.7691  0.5600
  578MOL0     H76291   8.483   9.211  11.198 -0.1057  0.3756 -0.2674
  578MOL0     H76292   8.590   9.468  11.088  0.9412 -0.8183  1.9850
  578MOL0     H76293   8.658   9.352  11.198 -2.6111  1.4423  2.2572
  578MOL0     H76294   8.809   9.149  10.889 -2.2869 -2.1468 -0.2099
  578MOL0     H76295   8.158   9.304  10.828  1.3249  1.6977  2.2931
  578MOL0     H76296   7.995   9.171  10.709  0.2636 -1.3202 -0.5721
  579MOL0     O76297   3.911   7.194   2.456  0.0552  0.3832 -0.1425
  579MOL0     C76298   3.985   7.173   2.558 -0.0946 -0.5644  0.2646
  579MOL0     O76299   3.948   7.087   2.658 -0.0015 -0.3588  0.2393
  579MOL0     C76300   3.823   7.033   2.656 -0.6310  0.6440  0.2946
  579MOL0     C76301   3.808   6.918   2.574 -0.3905 -0.2081  0.2577
  579MOL0     C76302   3.700   6.831   2.590  0.9674  0.4271  0.3782
  579MOL0     C76303   3.608   6.855   2.693  0.9359 -0.3681 -0.3726
  579MOL0     O76304   3.502   6.777   2.728  0.1356 -0.7301 -0.3736
  579MOL0     C76305   3.488   6.643   2.678 -0.1956 -0.3698 -0.5987
  579MOL0     C76306   3.361   6.572   2.733 -0.5129 -1.0243 -0.1010
  579MOL0     C76307   3.354   6.512   2.877 -0.0800 -0.5052  0.8749
  579MOL0     C76308   3.223   6.527   2.948  0.9267 -0.2752  0.1435
  579MOL0     C76309   3.246   6.487   3.107 -0.1626 -0.1637 -0.0997
  579MOL0     C76310   3.119   6.472   3.188 -0.6675  0.4206  0.3667
  579MOL0     C76311   3.134   6.423   3.340 -0.7521  0.2544 -0.3059
  579MOL0     C76312   3.011   6.455   3.415  0.5440  0.0250  0.4593
  579MOL0     N76313   2.900   6.372   3.368  0.2662  0.4507 -0.4296
  579MOL0     C76314   2.801   6.400   3.278  0.0370 -0.0105  0.2964
  579MOL0     C76315   2.726   6.291   3.263  0.0701  0.0779  0.0988
  579MOL0     C76316   2.613   6.260   3.176 -0.3542  0.5454  0.6543
  579MOL0     C76317   2.496   6.258   3.267 -0.4012  0.5518  0.1326
  579MOL0     C76318   2.375   6.243   3.174  0.4452  0.8448  0.1383
  579MOL0     C76319   2.245   6.238   3.254  0.3612  0.0597  0.3174
  579MOL0     O76320   2.240   6.099   3.295  0.3551  0.4899  0.0152
  579MOL0     C76321   2.121   6.029   3.313 -0.6356 -0.5603 -0.4071
  579MOL0     C76322   2.128   5.911   3.384 -0.1693  0.1576 -0.1095
  579MOL0     C76323   2.005   5.846   3.422 -0.4818 -0.0216 -0.3232
  579MOL0     C76324   1.878   5.888   3.386 -1.3267  0.3895  0.1300
  579MOL0     C76325   1.765   5.815   3.415  0.2957 -0.3915  0.4989
  579MOL0     O76326   1.643   5.878   3.412  0.3857  0.1722 -0.0929
  579MOL0     C76327   1.521   5.801   3.408  0.3201 -0.4539 -0.4122
  579MOL0     C76328   1.480   5.735   3.298  0.5377 -0.2409 -0.5101
  579MOL0     C76329   1.372   5.650   3.299  1.1196 -0.3250  0.0637
  579MOL0     C76330   1.283   5.651   3.409 -0.6449 -0.2149  0.2623
  579MOL0     O76331   1.165   5.586   3.418  0.0915 -0.0759 -0.0400
  579MOL0     C76332   1.108   5.522   3.306  0.1797  0.0633  1.1493
  579MOL0     C76333   0.998   5.432   3.357  0.0209  1.4639 -0.2439
  579MOL0     C76334   0.873   5.510   3.403 -0.6180  1.1547 -0.2340
  579MOL0     C76335   0.811   5.612   3.303 -0.6003  0.2206 -0.8922
  579MOL0     C76336   0.692   5.687   3.370 -0.8039  0.0345  0.4678
  579MOL0     C76337   0.558   5.602   3.385 -0.3642  0.0130 -0.5967
  579MOL0     C76338   0.442   5.684   3.447  0.1845 -0.0963  0.3387
  579MOL0     C76339   0.364   5.757   3.339  0.0809  0.1871  0.5084
  579MOL0    Cl76340   0.286   5.649   3.213  0.0638  0.3675 -0.0040
  579MOL0     C76341   1.317   5.713   3.527 -0.3200 -0.0303 -0.1007
  579MOL0     C76342   1.443   5.785   3.526  0.2560 -0.2431  0.4196
  579MOL0     O76343   1.783   5.694   3.437 -0.2953  0.3727  0.3178
  579MOL0     C76344   1.874   6.007   3.320 -0.0940 -0.2918  0.2409
  579MOL0     C76345   1.991   6.072   3.274  0.2288  0.5633 -0.1916
  579MOL0     N76346   2.772   6.196   3.349 -0.1328  1.3158  0.4983
  579MOL0     N76347   2.878   6.243   3.409 -0.1646  0.0914 -0.7256
  579MOL0     C76348   3.625   6.969   2.776 -0.5486  0.1559  0.5185
  579MOL0     C76349   3.730   7.055   2.755 -0.6720 -0.4450 -0.4580
  579MOL0     C76350   4.115   7.236   2.562 -0.1708 -0.4372  0.2080
  579MOL0     C76351   4.212   7.182   2.649 -0.8573 -0.9456  0.6094
  579MOL0     C76352   4.339   7.239   2.646 -0.0730 -0.1134  0.9044
  579MOL0     C76353   4.369   7.352   2.569  0.0272  0.0565 -0.1837
  579MOL0     O76354   4.492   7.405   2.561 -0.0646 -1.0050 -0.0671
  579MOL0     C76355   4.598   7.362   2.655  0.2804  0.2327  0.7793
  579MOL0     C76356   4.735   7.402   2.597  0.0046  0.5064  0.8761
  579MOL0     C76357   4.768   7.551   2.622  0.0649  0.5718  0.1451
  579MOL0     C76358   4.909   7.601   2.563  0.0951  0.1865  0.5114
  579MOL0     C76359   4.926   7.741   2.593  0.0633 -0.1902  0.0513
  579MOL0     C76360   4.948   7.865   2.616  0.7578  0.6719  0.3216
  579MOL0     C76361   4.264   7.405   2.493 -1.2455 -0.5413  0.0733
  579MOL0     C76362   4.146   7.349   2.489 -0.5995  0.5497 -0.3882
  579MOL0     H76363   3.884   6.898   2.500  0.0203 -0.1842  0.6709
  579MOL0     H76364   3.690   6.746   2.524  1.3843  1.9153 -1.6861
  579MOL0     H76365   3.577   6.583   2.698  1.8322  3.0921  1.9624
  579MOL0     H76366   3.482   6.668   2.572  0.9428  0.5366 -0.4705
  579MOL0     H76367   3.323   6.497   2.663 -2.6981 -1.0998  1.0758
  579MOL0     H76368   3.291   6.656   2.734  1.1545  0.4327  1.1870
  579MOL0     H76369   3.416   6.561   2.952 -0.3300 -2.3895  2.4002
  579MOL0     H76370   3.391   6.409   2.865  1.1464 -0.5830  4.3115
  579MOL0     H76371   3.181   6.625   2.925  0.1147 -0.8570 -0.9743
  579MOL0     H76372   3.159   6.455   2.897  1.0575  0.2234 -0.7532
  579MOL0     H76373   3.305   6.559   3.165  0.7580 -0.7538 -0.2957
  579MOL0     H76374   3.300   6.392   3.106 -1.8588 -1.2197 -2.9644
  579MOL0     H76375   3.057   6.400   3.134  0.9047 -0.5498 -0.1881
  579MOL0     H76376   3.064   6.567   3.186  1.0094  1.4391 -1.6832
  579MOL0     H76377   3.165   6.318   3.350  2.3895  1.0000 -1.1921
  579MOL0     H76378   3.220   6.478   3.380  0.4143 -2.2541  0.8680
  579MOL0     H76379   2.976   6.558   3.418  0.1685 -0.0486 -0.7989
  579MOL0     H76380   3.027   6.434   3.521  0.3676 -0.1701  0.4492
  579MOL0     H76381   2.777   6.480   3.207  1.8904 -0.0310 -0.4115
  579MOL0     H76382   2.638   6.158   3.146  0.4362  1.0179 -0.3295
  579MOL0     H76383   2.597   6.327   3.091 -0.0136 -1.2946 -0.9127
  579MOL0     H76384   2.480   6.353   3.319 -1.1603  0.1891  0.5696
  579MOL0     H76385   2.509   6.188   3.349 -1.7196  0.7129  0.5064
  579MOL0     H76386   2.372   6.325   3.102  1.1872  1.2651  0.5752
  579MOL0     H76387   2.376   6.159   3.103  0.0186  1.1414 -0.2287
  579MOL0     H76388   2.155   6.275   3.204 -0.6391 -0.8545  1.3803
  579MOL0     H76389   2.268   6.298   3.343 -1.1349 -0.0774  0.8158
  579MOL0     H76390   2.231   5.881   3.404  0.4050  0.9409 -1.7453
  579MOL0     H76391   2.027   5.759   3.482 -1.8174  0.0941  0.3696
  579MOL0     H76392   1.551   5.733   3.215  0.1590  3.6960 -1.1027
  579MOL0     H76393   1.357   5.607   3.200 -0.2877  0.5604 -0.1321
  579MOL0     H76394   1.178   5.458   3.252 -0.2876 -0.6898  1.4104
  579MOL0     H76395   1.074   5.593   3.230 -3.8307 -0.9611  1.7403
  579MOL0     H76396   1.030   5.372   3.442 -0.3197 -1.5429 -2.0964
  579MOL0     H76397   0.970   5.359   3.280 -0.0999  0.6115  0.5902
  579MOL0     H76398   0.914   5.560   3.492  2.5331 -1.0921 -0.2529
  579MOL0     H76399   0.799   5.436   3.434 -1.3365  2.7710  2.2151
  579MOL0     H76400   0.883   5.688   3.272  1.4423 -1.8639 -1.5633
  579MOL0     H76401   0.773   5.569   3.210  0.0286 -0.4174 -0.8588
  579MOL0     H76402   0.676   5.773   3.305 -1.5719  1.2671  2.2212
  579MOL0     H76403   0.720   5.725   3.469  2.0384  0.2221 -0.2960
  579MOL0     H76404   0.574   5.510   3.441  2.5349 -0.4527 -1.9877
  579MOL0     H76405   0.532   5.570   3.284 -2.2118 -1.2100  0.2239
  579MOL0     H76406   0.370   5.608   3.480 -0.4550  0.4826  0.3114
  579MOL0     H76407   0.472   5.747   3.532  0.4629  2.7371 -1.7116
  579MOL0     H76408   0.424   5.828   3.282 -3.4926  2.3333 -0.8945
  579MOL0     H76409   0.296   5.828   3.389 -0.3425 -0.1152  0.3680
  579MOL0     H76410   1.265   5.710   3.623  2.7445 -2.9642  1.7081
  579MOL0     H76411   1.482   5.832   3.616  2.1935 -0.6687 -0.1473
  579MOL0     H76412   1.777   6.049   3.298  0.9977  2.9023  0.8699
  579MOL0     H76413   1.988   6.167   3.221 -0.7061  0.5746 -0.1344
  579MOL0     H76414   3.560   6.989   2.861 -1.9678  0.8300 -0.6679
  579MOL0     H76415   3.745   7.139   2.823  1.3228 -1.5499  0.5376
  579MOL0     H76416   4.210   7.093   2.711  1.4759 -0.1967  1.9194
  579MOL0     H76417   4.410   7.192   2.713 -0.1241  2.6021  3.0335
  579MOL0     H76418   4.603   7.254   2.643  1.4670  0.5493 -2.7743
  579MOL0     H76419   4.570   7.399   2.754 -1.0947  3.3104 -0.6082
  579MOL0     H76420   4.805   7.330   2.640 -0.4342  0.1216  0.9477
  579MOL0     H76421   4.752   7.385   2.490 -0.8135  1.6059  0.5538
  579MOL0     H76422   4.758   7.572   2.729 -1.9313 -2.3894  0.6504
  579MOL0     H76423   4.694   7.604   2.561  1.1368 -0.2328 -1.9382
  579MOL0     H76424   4.997   7.557   2.610  1.2271  1.6235 -0.1907
  579MOL0     H76425   4.911   7.592   2.454 -0.4932  1.9837  0.3035
  579MOL0     H76426   4.969   7.969   2.634 -0.3324  0.9815 -0.1201
  579MOL0     H76427   4.286   7.488   2.427  0.0229 -1.2934 -0.4917
  579MOL0     H76428   4.082   7.390   2.411  0.2243  2.1675 -0.2555
  580MOL0     O76429  10.291   5.326   8.800 -0.4229 -0.9707 -0.5878
  580MOL0     C76430  10.330   5.346   8.686  1.0563 -0.3120  0.2583
  580MOL0     O76431  10.254   5.342   8.569 -0.4462  0.7240  0.3244
  580MOL0     C76432  10.122   5.312   8.592 -0.9872  0.6630  0.5274
  580MOL0     C76433  10.028   5.409   8.608  0.5844 -0.0101 -0.4249
  580MOL0     C76434   9.895   5.371   8.637 -0.0863 -0.4611 -0.1986
  580MOL0     C76435   9.850   5.233   8.648 -0.0509 -0.8014 -0.1246
  580MOL0     O76436   9.733   5.176   8.670 -0.1848 -0.1418  0.7094
  580MOL0     C76437   9.617   5.254   8.721  0.2697  0.0039 -0.0954
  580MOL0     C76438   9.513   5.138   8.737 -0.0201 -0.7133 -0.2768
  580MOL0     C76439   9.514   5.082   8.876 -0.1254  0.5406 -0.7195
  580MOL0     C76440   9.422   4.961   8.892  0.5315  0.4397  0.3263
  580MOL0     C76441   9.412   4.903   9.033  0.1476 -0.1234 -0.4989
  580MOL0     C76442   9.361   4.753   9.042 -0.8196 -0.4397 -0.0332
  580MOL0     C76443   9.235   4.711   8.963 -0.2454  0.0915 -0.5041
  580MOL0     C76444   9.109   4.787   9.022 -0.1468 -0.2263 -0.0727
  580MOL0     N76445   9.087   4.739   9.165 -1.0804 -0.2851  0.4171
  580MOL0     C76446   9.127   4.816   9.272 -0.1386  0.3358  0.3221
  580MOL0     C76447   9.160   4.731   9.369 -0.0907  0.0512  0.1730
  580MOL0     C76448   9.213   4.779   9.497  0.5670 -0.8132  0.7283
  580MOL0     C76449   9.240   4.671   9.595 -0.8255  0.5110  0.7839
  580MOL0     C76450   9.269   4.722   9.743 -0.1473  0.7412  0.1078
  580MOL0     C76451   9.159   4.807   9.801 -0.2758  0.1321 -0.3108
  580MOL0     O76452   9.029   4.748   9.768  0.0949  0.1736 -0.0953
  580MOL0     C76453   8.955   4.681   9.868  0.3243  0.3899  0.3221
  580MOL0     C76454   9.022   4.636   9.982 -0.2110  1.2583  0.5942
  580MOL0     C76455   8.956   4.559  10.075  1.0465 -0.2904 -0.4758
  580MOL0     C76456   8.809   4.562  10.071 -0.4148 -0.8819 -0.2688
  580MOL0     C76457   8.730   4.483  10.163  0.2798  0.4533 -0.2701
  580MOL0     O76458   8.801   4.438  10.266 -0.3409  0.5512 -0.3004
  580MOL0     C76459   8.759   4.369  10.380 -0.7103  0.7634  0.3221
  580MOL0     C76460   8.633   4.318  10.402  0.1318 -0.0140  0.2069
  580MOL0     C76461   8.606   4.247  10.519  0.4403  0.1373  0.2309
  580MOL0     C76462   8.711   4.226  10.614  0.3785  0.3532  0.1391
  580MOL0     O76463   8.700   4.154  10.731 -0.2245 -0.4034  0.8957
  580MOL0     C76464   8.605   4.052  10.733  0.6175  0.4845  0.7166
  580MOL0     C76465   8.625   3.998  10.875  0.4457  0.0495 -0.6881
  580MOL0     C76466   8.576   3.853  10.891  0.3503  0.2530  0.0526
  580MOL0     C76467   8.663   3.741  10.822  0.5322 -0.6850 -0.2246
  580MOL0     C76468   8.625   3.600  10.869 -0.6003 -0.0543  0.7825
  580MOL0     C76469   8.667   3.509  10.745  0.0538  0.2529 -0.7560
  580MOL0     C76470   8.811   3.508  10.706 -0.1373  0.4818 -0.0951
  580MOL0     C76471   8.897   3.452  10.821 -0.0583 -0.4987 -0.6967
  580MOL0    Cl76472   8.988   3.588  10.907  0.4317  0.0016  0.6073
  580MOL0     C76473   8.830   4.285  10.586  0.1956  0.1782 -1.1377
  580MOL0     C76474   8.855   4.349  10.477 -0.4056  0.4788  0.1959
  580MOL0     O76475   8.606   4.486  10.153 -0.0505 -0.3661 -0.0790
  580MOL0     C76476   8.747   4.619   9.963  0.0646  0.3338  0.6782
  580MOL0     C76477   8.819   4.676   9.858 -0.5631  0.1616 -0.7951
  580MOL0     N76478   9.134   4.602   9.319  0.3076  0.4300 -0.3386
  580MOL0     N76479   9.096   4.614   9.197 -0.1759 -0.4371  0.4019
  580MOL0     C76480   9.953   5.140   8.629 -0.2402 -0.3537  0.1353
  580MOL0     C76481  10.090   5.171   8.609 -0.6279 -0.3232 -0.6628
  580MOL0     C76482  10.471   5.361   8.672  0.4273 -0.6359 -0.1282
  580MOL0     C76483  10.535   5.372   8.548  0.7164  0.2373 -0.7091
  580MOL0     C76484  10.669   5.377   8.534 -1.0451  0.0999  0.0064
  580MOL0     C76485  10.752   5.370   8.643  0.0928 -0.1534  0.1676
  580MOL0     O76486  10.893   5.374   8.630  0.2870  0.0008 -0.4408
  580MOL0     C76487  10.970   5.350   8.744 -0.6121 -0.6169 -0.5840
  580MOL0     C76488  11.114   5.374   8.701  0.1662 -0.1761 -0.1450
  580MOL0     C76489  11.209   5.408   8.814  0.0024 -0.2823  0.0387
  580MOL0     C76490  11.356   5.411   8.771 -0.3981  0.3423 -0.0397
  580MOL0     C76491  11.439   5.497   8.863 -0.7146 -0.0007 -0.0355
  580MOL0     C76492  11.506   5.561   8.941 -0.6740 -0.2796 -0.2018
  580MOL0     C76493  10.685   5.352   8.764  0.2485 -0.6778 -0.5459
  580MOL0     C76494  10.551   5.347   8.782 -1.0157  1.1245  0.2497
  580MOL0     H76495  10.061   5.513   8.609 -0.8905  0.4998  1.5570
  580MOL0     H76496   9.820   5.444   8.664  1.0342  0.6369  0.0122
  580MOL0     H76497   9.566   5.322   8.652 -2.1765  3.0045  4.2238
  580MOL0     H76498   9.639   5.314   8.809  4.1880 -0.7258 -0.4160
  580MOL0     H76499   9.531   5.058   8.665 -0.5991  0.6288 -1.9638
  580MOL0     H76500   9.416   5.185   8.720  0.6302  0.3095 -1.2485
  580MOL0     H76501   9.491   5.157   8.952  0.1480 -0.9230  0.8661
  580MOL0     H76502   9.615   5.055   8.906 -0.9920 -0.1869  1.7014
  580MOL0     H76503   9.323   4.990   8.855 -0.2212 -1.2145  0.9627
  580MOL0     H76504   9.453   4.879   8.828  2.4871 -0.2625  2.0612
  580MOL0     H76505   9.345   4.967   9.090 -0.6129  0.1333 -1.6403
  580MOL0     H76506   9.512   4.910   9.077 -0.5423  0.7242  1.0181
  580MOL0     H76507   9.374   4.710   9.141 -0.9776 -0.3292  0.0373
  580MOL0     H76508   9.443   4.696   8.997 -0.8446 -1.7249  1.4805
  580MOL0     H76509   9.236   4.748   8.860 -4.2739 -0.7501 -1.0033
  580MOL0     H76510   9.218   4.604   8.974  1.5547 -0.1316  0.5653
  580MOL0     H76511   9.026   4.747   8.962  0.4099  0.4293 -1.3379
  580MOL0     H76512   9.113   4.895   9.005 -0.6316  0.1481  1.9634
  580MOL0     H76513   9.133   4.925   9.272  3.5319  0.3695 -3.6143
  580MOL0     H76514   9.145   4.856   9.535  1.1464  0.7597 -1.2725
  580MOL0     H76515   9.298   4.838   9.463 -3.3182  3.7385 -2.4756
  580MOL0     H76516   9.328   4.609   9.573 -0.3929  0.5312  2.3300
  580MOL0     H76517   9.147   4.613   9.593 -1.0099  0.6302 -3.4629
  580MOL0     H76518   9.288   4.643   9.815 -3.7556 -1.5184 -1.1496
  580MOL0     H76519   9.357   4.787   9.736  0.6848 -0.3888 -0.1578
  580MOL0     H76520   9.162   4.904   9.751  2.0585 -0.6909 -1.9633
  580MOL0     H76521   9.178   4.830   9.906  2.1048 -1.0666 -0.4183
  580MOL0     H76522   9.130   4.648   9.982  0.0249 -0.4307 -0.6207
  580MOL0     H76523   8.998   4.513  10.164 -1.3079 -3.4915 -0.8251
  580MOL0     H76524   8.563   4.305  10.321  0.4710 -2.4416  0.2380
  580MOL0     H76525   8.505   4.207  10.521 -0.4035  2.1521  2.3925
  580MOL0     H76526   8.627   3.982  10.652  2.3260  3.1304 -1.2431
  580MOL0     H76527   8.500   4.081  10.736  0.4224 -0.2525  1.8309
  580MOL0     H76528   8.572   4.068  10.941  1.1412 -1.3205  1.4236
  580MOL0     H76529   8.730   4.002  10.904  0.3379  0.9576 -0.3834
  580MOL0     H76530   8.473   3.848  10.853  1.6265 -0.8524 -3.7899
  580MOL0     H76531   8.567   3.841  10.999 -2.5592  4.6526  0.5685
  580MOL0     H76532   8.631   3.757  10.718 -1.8183 -0.0905  0.5275
  580MOL0     H76533   8.768   3.767  10.836  0.4214  0.2722 -1.0040
  580MOL0     H76534   8.517   3.588  10.881 -0.4021 -0.5699  2.2163
  580MOL0     H76535   8.678   3.582  10.963 -1.0027  0.3284  1.0825
  580MOL0     H76536   8.607   3.541  10.660  1.0281 -1.6121 -2.2211
  580MOL0     H76537   8.639   3.405  10.764 -1.8637  0.5261 -1.8564
  580MOL0     H76538   8.813   3.445  10.617  1.8786  2.1223 -1.3026
  580MOL0     H76539   8.836   3.610  10.674  2.1274  0.0206 -0.0164
  580MOL0     H76540   8.966   3.379  10.778  2.3558  1.9341 -1.2760
  580MOL0     H76541   8.833   3.395  10.888  1.8038 -2.0622 -0.1713
  580MOL0     H76542   8.908   4.278  10.661 -1.7581  1.1818  1.1548
  580MOL0     H76543   8.952   4.393  10.457  0.3239 -0.5596  1.3143
  580MOL0     H76544   8.639   4.626   9.950 -0.3327  0.6661  3.5161
  580MOL0     H76545   8.767   4.714   9.770 -1.9513 -0.3218 -0.2158
  580MOL0     H76546   9.924   5.035   8.625 -1.5428 -0.0504  1.1322
  580MOL0     H76547  10.165   5.093   8.609 -1.5852 -1.3502  1.8774
  580MOL0     H76548  10.471   5.399   8.464 -2.0446 -0.3412  1.0597
  580MOL0     H76549  10.716   5.388   8.437 -0.7045 -0.0912  0.1484
  580MOL0     H76550  10.943   5.252   8.785 -3.6771  0.1449 -0.5068
  580MOL0     H76551  10.939   5.415   8.828 -1.2433 -3.5804  1.6410
  580MOL0     H76552  11.155   5.280   8.661 -1.2044 -0.7593 -0.2159
  580MOL0     H76553  11.107   5.457   8.630  0.4618 -0.4557 -0.5099
  580MOL0     H76554  11.196   5.329   8.888  1.1764  0.5230  1.1541
  580MOL0     H76555  11.180   5.504   8.857 -1.1826 -0.7258  0.2502
  580MOL0     H76556  11.391   5.310   8.790 -2.3396 -0.4091 -0.1931
  580MOL0     H76557  11.356   5.447   8.668 -0.7964 -0.3789 -0.2949
  580MOL0     H76558  11.558   5.609   9.021  3.2999 -1.8754 -1.5416
  580MOL0     H76559  10.739   5.351   8.858  0.2761  2.6270 -0.4124
  580MOL0     H76560  10.507   5.322   8.878 -0.3298  1.1885  0.5840
  581MOL0     O76561   0.265   3.736   0.350  0.0144 -0.3952 -1.0121
  581MOL0     C76562   0.310   3.652   0.277 -0.2230  0.0438 -0.3701
  581MOL0     O76563   0.247   3.536   0.237 -0.0366 -0.0578  0.0706
  581MOL0     C76564   0.115   3.533   0.274 -0.2882 -0.0793  0.1455
  581MOL0     C76565   0.073   3.523   0.412  0.2736 -0.6413  0.6333
  581MOL0     C76566  -0.066   3.528   0.432  0.2547  0.4347 -1.0437
  581MOL0     C76567  -0.162   3.532   0.332  0.6130 -0.6519  0.0113
  581MOL0     O76568  -0.303   3.542   0.349  0.0199  0.4050 -0.1602
  581MOL0     C76569  -0.362   3.521   0.480  0.8083  0.0003  0.2432
  581MOL0     C76570  -0.510   3.546   0.470  0.8638 -0.2187 -1.2559
  581MOL0     C76571  -0.581   3.429   0.414 -0.0608 -0.6675  0.5010
  581MOL0     C76572  -0.734   3.457   0.415  0.5041  0.2562  0.5239
  581MOL0     C76573  -0.801   3.356   0.327  0.4478 -0.4474  0.0232
  581MOL0     C76574  -0.948   3.359   0.339  0.1885 -0.8535 -0.0787
  581MOL0     C76575  -1.010   3.257   0.244  0.3228  0.2141 -0.3635
  581MOL0     C76576  -0.989   3.118   0.299  0.5836 -0.2901  0.3809
  581MOL0     N76577  -1.048   3.009   0.215  0.1526 -0.1523 -0.2297
  581MOL0     C76578  -1.170   3.009   0.149  0.2325 -0.5113  0.6748
  581MOL0     C76579  -1.163   2.912   0.055  0.1235 -0.3569 -0.0562
  581MOL0     C76580  -1.238   2.884  -0.070  0.8258 -0.9606  0.3213
  581MOL0     C76581  -1.390   2.882  -0.059 -0.2890 -0.2294  0.5592
  581MOL0     C76582  -1.461   2.886  -0.189  0.7569 -0.0225 -0.1924
  581MOL0     C76583  -1.613   2.859  -0.178  0.4104 -0.3130 -0.6649
  581MOL0     O76584  -1.663   2.865  -0.314  0.4972 -0.6433  0.2719
  581MOL0     C76585  -1.799   2.856  -0.325 -0.2437  0.0754  0.3927
  581MOL0     C76586  -1.901   2.834  -0.225  0.5921 -0.2699  0.3541
  581MOL0     C76587  -2.045   2.838  -0.254  0.4282  0.0529  0.1942
  581MOL0     C76588  -2.081   2.862  -0.393 -0.4860  0.1887 -0.4429
  581MOL0     C76589  -2.221   2.876  -0.426 -0.1905  0.1661  0.6992
  581MOL0     O76590  -2.247   2.937  -0.547  0.2819  0.3822 -0.3053
  581MOL0     C76591  -2.375   2.987  -0.564  0.2875 -0.4812 -0.5766
  581MOL0     C76592  -2.432   2.971  -0.692  0.6536 -0.4071 -0.4604
  581MOL0     C76593  -2.559   3.026  -0.720 -0.0961 -0.5045  0.1238
  581MOL0     C76594  -2.629   3.091  -0.624  0.4625  0.0607  0.0467
  581MOL0     O76595  -2.752   3.152  -0.638  0.9870  0.1769  0.1927
  581MOL0     C76596  -2.778   3.218  -0.767 -0.6285 -0.3499 -0.7983
  581MOL0     C76597  -2.874   3.342  -0.743 -1.9605  0.4294  0.5768
  581MOL0     C76598  -3.014   3.321  -0.672  0.2869 -0.4756 -0.1587
  581MOL0     C76599  -3.123   3.423  -0.697  0.0462  0.5939 -0.0185
  581MOL0     C76600  -3.267   3.374  -0.689  0.6602 -0.0020  0.1401
  581MOL0     C76601  -3.385   3.480  -0.679  0.3901  0.4624 -0.4847
  581MOL0     C76602  -3.416   3.534  -0.823 -0.1911 -0.1140 -1.5343
  581MOL0     C76603  -3.520   3.638  -0.830  0.6728 -0.4778 -0.5395
  581MOL0    Cl76604  -3.479   3.784  -0.730  0.4259 -0.2763 -0.3088
  581MOL0     C76605  -2.568   3.114  -0.494  0.1148 -0.8879 -0.6784
  581MOL0     C76606  -2.440   3.064  -0.466 -0.8301 -1.0978 -0.2872
  581MOL0     O76607  -2.304   2.850  -0.340 -0.1974 -0.6456  0.0569
  581MOL0     C76608  -1.980   2.872  -0.491 -0.1642  0.3049  0.3138
  581MOL0     C76609  -1.847   2.870  -0.456 -0.5277 -0.3661 -0.4091
  581MOL0     N76610  -1.040   2.844   0.081  0.0415  0.3951 -0.0090
  581MOL0     N76611  -0.977   2.899   0.182 -0.0284 -0.6521 -0.2951
  581MOL0     C76612  -0.114   3.527   0.201 -0.0790  0.2735  0.1187
  581MOL0     C76613   0.016   3.532   0.178 -0.6703  0.2174  0.2868
  581MOL0     C76614   0.461   3.663   0.248  0.9453 -0.9883  0.1723
  581MOL0     C76615   0.526   3.571   0.166  0.4584  0.1811  0.6158
  581MOL0     C76616   0.656   3.590   0.120 -1.2096  0.6291  0.8858
  581MOL0     C76617   0.736   3.694   0.165 -0.0404 -0.4139 -0.6708
  581MOL0     O76618   0.870   3.694   0.118  0.2135  0.6203  0.2221
  581MOL0     C76619   0.956   3.794   0.163  0.7853 -0.7808 -1.1373
  581MOL0     C76620   1.095   3.763   0.106  0.4738 -0.4484 -0.3008
  581MOL0     C76621   1.180   3.885   0.109  0.4747 -0.1258 -0.8802
  581MOL0     C76622   1.312   3.878   0.026 -0.1386  0.3181 -0.4314
  581MOL0     C76623   1.391   3.753   0.034  0.0367  0.1037  0.0806
  581MOL0     C76624   1.457   3.651   0.036  1.1429 -0.0825 -0.4469
  581MOL0     C76625   0.676   3.789   0.263 -0.4640  0.5056  0.7631
  581MOL0     C76626   0.537   3.775   0.287 -0.5407  0.6844 -0.0751
  581MOL0     H76627   0.132   3.508   0.502 -0.6555  1.3236  1.6138
  581MOL0     H76628  -0.091   3.532   0.538  0.9316 -1.0812 -0.8059
  581MOL0     H76629  -0.325   3.599   0.547  1.1590  0.2293 -0.2131
  581MOL0     H76630  -0.342   3.422   0.521  0.5778  0.5370  1.6897
  581MOL0     H76631  -0.530   3.629   0.402  0.0723  0.7019  0.0490
  581MOL0     H76632  -0.559   3.567   0.565 -0.4696  0.5620 -2.0866
  581MOL0     H76633  -0.549   3.342   0.473  2.8776 -0.9903 -1.3911
  581MOL0     H76634  -0.560   3.406   0.309 -1.5968 -1.5821  0.3566
  581MOL0     H76635  -0.789   3.468   0.508 -1.6295  2.2855 -0.8636
  581MOL0     H76636  -0.753   3.554   0.369 -2.2138 -0.4338  0.0378
  581MOL0     H76637  -0.768   3.256   0.355  0.6244 -0.7671 -1.2462
  581MOL0     H76638  -0.763   3.361   0.225 -0.1025 -0.1594 -0.1758
  581MOL0     H76639  -0.987   3.456   0.307  0.9248 -1.1004 -1.8018
  581MOL0     H76640  -0.975   3.344   0.444  4.4030 -1.6481  1.0826
  581MOL0     H76641  -1.119   3.270   0.245  0.1680 -0.9836  0.8861
  581MOL0     H76642  -0.976   3.261   0.140  1.5268 -0.4280 -0.0060
  581MOL0     H76643  -1.030   3.125   0.400 -2.0269 -2.2826 -0.4364
  581MOL0     H76644  -0.883   3.089   0.295  0.5204 -0.6669  1.2624
  581MOL0     H76645  -1.229   3.100   0.160  3.1309  1.3805  1.6924
  581MOL0     H76646  -1.212   2.786  -0.112 -1.4349 -1.7483  0.5833
  581MOL0     H76647  -1.213   2.964  -0.139  0.2346 -1.0517 -0.0111
  581MOL0     H76648  -1.424   2.962   0.006 -0.9614 -0.7574  0.8776
  581MOL0     H76649  -1.410   2.784  -0.015  0.5799 -0.6914 -0.0406
  581MOL0     H76650  -1.460   2.990  -0.224 -0.1434 -0.1769 -0.7160
  581MOL0     H76651  -1.426   2.816  -0.265  0.6507  1.4549 -1.6372
  581MOL0     H76652  -1.674   2.922  -0.113  0.8849 -2.0934  1.6185
  581MOL0     H76653  -1.629   2.757  -0.143 -2.1665 -0.0322 -0.8093
  581MOL0     H76654  -1.891   2.832  -0.117  0.0282  2.6467  0.5669
  581MOL0     H76655  -2.126   2.831  -0.182 -0.5137 -1.3476 -0.9572
  581MOL0     H76656  -2.389   2.900  -0.761  3.6236 -0.8832  1.6857
  581MOL0     H76657  -2.611   3.017  -0.815 -1.5254  1.2065  0.6900
  581MOL0     H76658  -2.832   3.151  -0.834 -1.3183 -0.7103  0.0938
  581MOL0     H76659  -2.686   3.246  -0.819  1.2020 -1.8269  1.4939
  581MOL0     H76660  -2.891   3.385  -0.842 -0.3886  2.4260  1.1033
  581MOL0     H76661  -2.804   3.407  -0.689 -0.5907 -0.2161 -0.3655
  581MOL0     H76662  -2.996   3.307  -0.565  1.1096 -1.8812 -0.4560
  581MOL0     H76663  -3.060   3.229  -0.711 -2.8202  1.1818 -0.7339
  581MOL0     H76664  -3.105   3.505  -0.627  3.0551 -2.3848  3.0867
  581MOL0     H76665  -3.105   3.463  -0.798 -0.4316 -4.5692 -2.4755
  581MOL0     H76666  -3.285   3.312  -0.601 -0.8161 -0.7255 -0.6271
  581MOL0     H76667  -3.281   3.305  -0.773 -1.4891 -1.4671  1.6082
  581MOL0     H76668  -3.362   3.565  -0.615 -1.9373  0.7098  0.0987
  581MOL0     H76669  -3.467   3.420  -0.640  0.6365  2.1145  2.8847
  581MOL0     H76670  -3.323   3.571  -0.867  1.4077 -1.5124  0.4617
  581MOL0     H76671  -3.459   3.459  -0.891 -2.1171  2.6317 -3.5923
  581MOL0     H76672  -3.616   3.597  -0.796  0.4296 -0.0448 -0.6849
  581MOL0     H76673  -3.540   3.670  -0.933  1.2067  2.8715  0.2831
  581MOL0     H76674  -2.621   3.164  -0.413  1.3378 -2.2750  1.0651
  581MOL0     H76675  -2.392   3.076  -0.369  0.1821 -2.0536 -0.6512
  581MOL0     H76676  -2.014   2.875  -0.594 -0.8078  1.0689  0.5336
  581MOL0     H76677  -1.760   2.893  -0.517  0.0892 -3.3776 -0.8157
  581MOL0     H76678  -0.184   3.525   0.118 -0.3811  1.4145  0.3337
  581MOL0     H76679   0.064   3.519   0.081  0.7925  2.0451  0.6908
  581MOL0     H76680   0.474   3.478   0.144 -2.0589  1.6803 -0.1504
  581MOL0     H76681   0.715   3.513   0.072 -0.2230  0.1106  2.8030
  581MOL0     H76682   0.958   3.790   0.272  1.9711 -1.4459 -1.1662
  581MOL0     H76683   0.911   3.887   0.127 -1.3388 -0.6023  1.7282
  581MOL0     H76684   1.141   3.685   0.166  2.0959 -1.8778 -3.1929
  581MOL0     H76685   1.078   3.741  -0.000 -0.5770  0.8411 -0.4284
  581MOL0     H76686   1.208   3.888   0.215 -2.2233  1.2566 -0.0998
  581MOL0     H76687   1.133   3.982   0.089  1.6899  1.5501  3.2215
  581MOL0     H76688   1.302   3.907  -0.079 -0.3377 -1.0184 -0.7974
  581MOL0     H76689   1.378   3.953   0.069 -1.2713  1.1611 -0.1063
  581MOL0     H76690   1.520   3.567   0.056  1.9495  0.7986  0.8332
  581MOL0     H76691   0.735   3.872   0.300  0.1896  0.3475  0.1042
  581MOL0     H76692   0.496   3.861   0.340 -1.2931  0.9685 -1.0779
  582MOL0     O76693   4.535   3.043  10.668 -0.2576  0.1908 -0.4420
  582MOL0     C76694   4.545   3.169  10.672  0.5084  1.0290  0.5864
  582MOL0     O76695   4.442   3.249  10.712 -0.1858 -0.1038 -0.1531
  582MOL0     C76696   4.318   3.197  10.698  0.2575 -0.0615  0.2625
  582MOL0     C76697   4.220   3.253  10.786 -0.5056  0.1863 -0.2734
  582MOL0     C76698   4.088   3.230  10.762 -0.0003  0.3250 -0.1219
  582MOL0     C76699   4.041   3.158  10.645  0.1895 -0.2943 -0.2873
  582MOL0     O76700   3.910   3.150  10.605  0.4823  0.4567 -0.3163
  582MOL0     C76701   3.809   3.151  10.711  0.4225 -0.3232  0.1424
  582MOL0     C76702   3.675   3.107  10.657 -0.9368  0.2875 -0.4672
  582MOL0     C76703   3.563   3.171  10.738 -0.3525  0.5128 -0.4289
  582MOL0     C76704   3.432   3.128  10.692 -0.1157  0.3986 -0.4636
  582MOL0     C76705   3.314   3.163  10.796 -0.1241 -0.8562  0.3130
  582MOL0     C76706   3.164   3.142  10.747 -0.2487 -0.0399 -0.4700
  582MOL0     C76707   3.065   3.166  10.867 -1.0566  0.7084  0.1948
  582MOL0     C76708   3.095   3.076  10.992 -0.0766 -0.1845 -0.2691
  582MOL0     N76709   2.975   3.063  11.074  0.2036 -0.5208  0.9711
  582MOL0     C76710   2.882   2.964  11.060  0.1335  0.3087 -0.1775
  582MOL0     C76711   2.784   2.992  11.142  0.0678  0.3228 -1.2386
  582MOL0     C76712   2.656   2.920  11.163  0.4905  0.2207  0.5439
  582MOL0     C76713   2.614   2.940  11.303  0.4014 -0.0848  0.6679
  582MOL0     C76714   2.529   2.836  11.361  0.5742  0.0360  0.6639
  582MOL0     C76715   2.422   2.783  11.264  0.6567 -0.9449  0.2237
  582MOL0     O76716   2.330   2.886  11.207 -0.2458 -0.2229 -0.1817
  582MOL0     C76717   2.202   2.873  11.257 -0.3436 -0.7627  0.6502
  582MOL0     C76718   2.160   2.820  11.375 -0.8708  0.3285 -0.7267
  582MOL0     C76719   2.026   2.811  11.416 -0.5834 -1.3328  0.1407
  582MOL0     C76720   1.926   2.851  11.326  0.1023  0.4713  0.4875
  582MOL0     C76721   1.790   2.859  11.364 -0.1780  0.1381 -0.5119
  582MOL0     O76722   1.710   2.918  11.274 -0.3503  0.1665  0.3825
  582MOL0     C76723   1.573   2.882  11.280 -0.1515 -0.0257  0.0480
  582MOL0     C76724   1.503   2.940  11.389  0.0824  0.3598 -0.6053
  582MOL0     C76725   1.366   2.925  11.399 -0.4111 -0.1574  0.4999
  582MOL0     C76726   1.296   2.855  11.296 -0.1378  1.5380  0.8660
  582MOL0     O76727   1.160   2.842  11.284  0.1512  1.1413 -0.0843
  582MOL0     C76728   1.097   2.796  11.407 -0.3657 -0.5853  0.6321
  582MOL0     C76729   0.962   2.733  11.363  0.6327 -0.0681 -0.5879
  582MOL0     C76730   0.866   2.840  11.319 -0.9731 -0.0673 -0.6278
  582MOL0     C76731   0.724   2.792  11.308 -0.0265  0.6180 -0.2465
  582MOL0     C76732   0.625   2.914  11.300  0.4998  0.5085 -0.2225
  582MOL0     C76733   0.533   2.894  11.183 -0.9716 -0.2450 -0.0856
  582MOL0     C76734   0.440   2.776  11.203  0.4727  0.5236  0.0201
  582MOL0     C76735   0.290   2.813  11.197  0.1063 -0.0775 -0.4201
  582MOL0    Cl76736   0.228   2.881  11.040 -0.0277  0.4016 -0.1840
  582MOL0     C76737   1.363   2.808  11.180 -0.6216 -0.2296 -0.4578
  582MOL0     C76738   1.502   2.827  11.175  0.7863 -0.7191 -0.1497
  582MOL0     O76739   1.751   2.819  11.474 -0.0803  0.4391  1.1673
  582MOL0     C76740   1.966   2.896  11.198 -0.0983 -0.2804 -0.4631
  582MOL0     C76741   2.100   2.911  11.169  0.1533 -0.0313  0.3783
  582MOL0     N76742   2.821   3.101  11.221 -0.2925  0.8289  0.3174
  582MOL0     N76743   2.942   3.139  11.181 -0.6396 -1.1097 -0.0400
  582MOL0     C76744   4.132   3.090  10.575  0.4774 -0.0732 -0.6455
  582MOL0     C76745   4.270   3.119  10.596  0.4275  0.0190  0.6623
  582MOL0     C76746   4.680   3.232  10.639 -0.1874  0.9289  0.2688
  582MOL0     C76747   4.793   3.150  10.648 -0.9591 -0.8962 -0.1506
  582MOL0     C76748   4.923   3.200  10.619  0.5316  0.1626  0.6325
  582MOL0     C76749   4.941   3.335  10.592 -0.4260 -0.2649 -0.2992
  582MOL0     O76750   5.070   3.381  10.575 -0.1657  0.0421 -0.0782
  582MOL0     C76751   5.083   3.518  10.550 -0.6527 -0.9981  1.0674
  582MOL0     C76752   5.225   3.541  10.499  0.1187 -0.2383  0.6101
  582MOL0     C76753   5.257   3.691  10.479 -0.2236 -0.6446  0.1933
  582MOL0     C76754   5.260   3.776  10.606  0.3955  1.3554  0.2254
  582MOL0     C76755   5.291   3.915  10.591 -0.2509 -0.3216 -0.5309
  582MOL0     C76756   5.323   4.035  10.567 -1.0915 -0.1126 -1.0375
  582MOL0     C76757   4.818   3.418  10.597 -0.1298 -0.3268  0.8262
  582MOL0     C76758   4.692   3.368  10.612 -0.2400 -0.0427 -0.4802
  582MOL0     H76759   4.255   3.323  10.861  0.1429 -0.8255  0.4002
  582MOL0     H76760   4.017   3.282  10.826  0.6529 -0.9535  1.7230
  582MOL0     H76761   3.799   3.254  10.748 -2.8960  0.4420 -2.3852
  582MOL0     H76762   3.842   3.089  10.794 -1.7711  0.0976  1.4163
  582MOL0     H76763   3.680   2.998  10.666  1.4783  0.2495 -1.3622
  582MOL0     H76764   3.660   3.124  10.550  2.2685  3.8222 -0.5806
  582MOL0     H76765   3.565   3.280  10.723 -4.0403  0.3817 -3.0889
  582MOL0     H76766   3.575   3.152  10.845  1.6544  1.8677 -0.3444
  582MOL0     H76767   3.414   3.185  10.601  1.0593  1.9421  0.2429
  582MOL0     H76768   3.426   3.021  10.667 -2.1835  0.2633  0.4136
  582MOL0     H76769   3.318   3.266  10.834  3.7895 -0.7389 -0.0709
  582MOL0     H76770   3.340   3.112  10.889  1.5064 -2.7802 -1.1329
  582MOL0     H76771   3.149   3.045  10.699  0.5340 -0.9304  0.9896
  582MOL0     H76772   3.136   3.220  10.676  2.6826  3.4090  1.7852
  582MOL0     H76773   3.076   3.266  10.909  0.1026 -0.3775  2.6393
  582MOL0     H76774   2.965   3.143  10.829 -0.1223 -1.2181 -1.2922
  582MOL0     H76775   3.167   3.121  11.061  0.3542  1.2145 -1.5728
  582MOL0     H76776   3.132   2.978  10.961  0.5978 -0.3291  0.9184
  582MOL0     H76777   2.871   2.900  10.973  1.9061  2.2340 -1.9125
  582MOL0     H76778   2.658   2.811  11.159 -1.5558  0.1569 -2.7366
  582MOL0     H76779   2.572   2.950  11.099 -0.7580 -1.4501  1.3141
  582MOL0     H76780   2.550   3.029  11.304  0.1610 -0.2581  1.5959
  582MOL0     H76781   2.693   2.943  11.378 -0.4791  2.3482  1.6222
  582MOL0     H76782   2.596   2.756  11.394  0.0279 -0.3664  0.8185
  582MOL0     H76783   2.476   2.881  11.446  2.2551  1.1949  1.1386
  582MOL0     H76784   2.367   2.702  11.312 -1.3368  0.2745  0.0959
  582MOL0     H76785   2.469   2.739  11.175  0.5711 -1.0934  0.2517
  582MOL0     H76786   2.232   2.779  11.445 -0.4357 -2.7940 -2.8269
  582MOL0     H76787   2.007   2.767  11.514 -0.1105 -1.1865  0.3013
  582MOL0     H76788   1.558   3.015  11.444 -1.5662 -0.4062  2.3076
  582MOL0     H76789   1.311   2.963  11.485  1.0412 -0.4847  1.6117
  582MOL0     H76790   1.078   2.878  11.477  1.6861  1.7612 -1.3387
  582MOL0     H76791   1.160   2.724  11.459  1.7508  1.8222  1.6237
  582MOL0     H76792   0.924   2.666  11.441 -1.7028  0.2510 -1.3708
  582MOL0     H76793   0.990   2.673  11.277 -0.6727  0.9177 -1.7459
  582MOL0     H76794   0.894   2.875  11.219 -0.0455  0.1589 -0.2913
  582MOL0     H76795   0.872   2.923  11.390 -2.9312 -0.1302 -0.3210
  582MOL0     H76796   0.709   2.723  11.224  1.3673  0.1203 -0.1042
  582MOL0     H76797   0.703   2.742  11.403  2.4649  0.4872  0.2843
  582MOL0     H76798   0.681   3.007  11.286  2.0858 -0.6004 -1.8358
  582MOL0     H76799   0.579   2.920  11.399  3.0565  2.1776  0.9825
  582MOL0     H76800   0.597   2.878  11.096 -0.7233  0.5751 -0.0558
  582MOL0     H76801   0.475   2.984  11.160 -1.5007 -1.1419 -2.6382
  582MOL0     H76802   0.463   2.697  11.131  1.4080 -0.9268  1.8121
  582MOL0     H76803   0.461   2.734  11.302 -1.9208  0.6252  0.6323
  582MOL0     H76804   0.263   2.878  11.281  1.6236 -0.1892  0.1802
  582MOL0     H76805   0.232   2.720  11.203  0.8442 -0.5633 -0.6272
  582MOL0     H76806   1.312   2.757  11.099  0.0944  0.8902 -1.6367
  582MOL0     H76807   1.557   2.802  11.085 -0.5726 -1.5231 -0.8011
  582MOL0     H76808   1.895   2.922  11.120  1.0919  1.0131 -1.1752
  582MOL0     H76809   2.136   2.943  11.072 -1.4533 -0.0247 -0.2479
  582MOL0     H76810   4.100   3.030  10.491  0.1106  2.1336 -2.1852
  582MOL0     H76811   4.336   3.070  10.524  0.6158  0.3557  0.6012
  582MOL0     H76812   4.783   3.045  10.674  1.0708 -1.0309  0.2155
  582MOL0     H76813   5.015   3.142  10.620  1.4149  1.3477 -1.7118
  582MOL0     H76814   5.065   3.574  10.643  2.8943  2.1536  0.1154
  582MOL0     H76815   5.028   3.563  10.468  1.4005 -3.4981 -1.8950
  582MOL0     H76816   5.295   3.495  10.569 -0.5649 -0.2294  1.3169
  582MOL0     H76817   5.232   3.484  10.406  0.4749 -1.2083  1.2149
  582MOL0     H76818   5.185   3.729  10.406 -0.1654 -1.9566 -0.5816
  582MOL0     H76819   5.353   3.696  10.427 -0.8188  0.6356 -0.8332
  582MOL0     H76820   5.164   3.772  10.658  0.8002 -2.9556  0.9862
  582MOL0     H76821   5.326   3.729  10.679 -0.9207 -1.1926 -0.1166
  582MOL0     H76822   5.349   4.136  10.542 -0.0291 -0.3972 -1.1465
  582MOL0     H76823   4.828   3.526  10.589 -3.4008  0.2213  2.1421
  582MOL0     H76824   4.607   3.436  10.614 -0.3290 -0.1677  0.8469
  583MOL0     O76825   9.981   3.489  10.966  0.4751  0.3820 -0.3890
  583MOL0     C76826  10.017   3.371  10.962  0.2367 -0.4922  0.5063
  583MOL0     O76827   9.935   3.270  10.916  0.2331 -0.3802 -0.9408
  583MOL0     C76828   9.799   3.288  10.881 -0.1059  0.1853 -0.3051
  583MOL0     C76829   9.711   3.389  10.938  0.4740 -1.0251  0.0181
  583MOL0     C76830   9.582   3.408  10.888  1.1472  0.4525 -0.6209
  583MOL0     C76831   9.532   3.323  10.790 -1.0241 -0.1861 -0.3138
  583MOL0     O76832   9.409   3.336  10.758  0.4404 -0.0817  0.7983
  583MOL0     C76833   9.357   3.253  10.656 -0.0221 -0.4825  0.1736
  583MOL0     C76834   9.237   3.315  10.595  0.5111  0.5365  0.3798
  583MOL0     C76835   9.182   3.231  10.482 -0.2038 -0.0794 -0.5378
  583MOL0     C76836   9.038   3.290  10.447 -0.0772 -0.3965 -0.1744
  583MOL0     C76837   9.028   3.434  10.389 -0.8208  0.1088  0.6027
  583MOL0     C76838   8.897   3.475  10.326 -0.0236 -0.1909  0.2104
  583MOL0     C76839   8.897   3.617  10.257  0.6483  0.7510 -1.1401
  583MOL0     C76840   8.829   3.624  10.125 -0.0304 -0.0933 -1.0649
  583MOL0     N76841   8.686   3.588  10.129 -0.9778 -0.1927  0.7227
  583MOL0     C76842   8.589   3.675  10.094 -0.2252 -0.9420  0.6413
  583MOL0     C76843   8.487   3.590  10.082  0.4223 -0.8385 -0.5201
  583MOL0     C76844   8.356   3.644  10.021  0.2596  0.6294 -0.1797
  583MOL0     C76845   8.233   3.540  10.025  0.1861  0.4460 -0.1522
  583MOL0     C76846   8.251   3.449   9.909 -0.4275  0.6637 -0.8797
  583MOL0     C76847   8.144   3.331   9.904  0.1488 -0.7582  0.0999
  583MOL0     O76848   8.169   3.243   9.795  0.5861  0.0540 -0.0538
  583MOL0     C76849   8.063   3.154   9.787  0.1907 -1.0550  0.2245
  583MOL0     C76850   7.963   3.171   9.686  0.4847 -0.6452 -0.3576
  583MOL0     C76851   7.840   3.101   9.684  0.6069  0.2862 -0.2027
  583MOL0     C76852   7.818   2.999   9.781  0.0679  0.1209 -0.7812
  583MOL0     C76853   7.704   2.914   9.793  0.5558  0.2119 -0.0380
  583MOL0     O76854   7.644   2.872   9.665 -0.2194  0.4408 -0.4384
  583MOL0     C76855   7.519   2.804   9.664  0.2413 -0.1383  0.0011
  583MOL0     C76856   7.434   2.832   9.554 -0.5230  0.5544 -0.4731
  583MOL0     C76857   7.314   2.767   9.545 -1.2063 -0.2173  0.0463
  583MOL0     C76858   7.264   2.678   9.638 -0.0398  0.5097  0.3453
  583MOL0     O76859   7.136   2.612   9.613  1.0640  0.2576 -0.6701
  583MOL0     C76860   7.093   2.526   9.728  0.2982  0.5219 -0.3916
  583MOL0     C76861   6.975   2.440   9.683 -1.0940  0.0551  0.2218
  583MOL0     C76862   6.861   2.521   9.627  0.8283 -0.0154 -0.3041
  583MOL0     C76863   6.733   2.432   9.604  0.7422  0.0883 -0.0054
  583MOL0     C76864   6.605   2.510   9.575  0.2176  0.6035  0.0844
  583MOL0     C76865   6.484   2.406   9.574 -0.3610 -0.4938  0.2466
  583MOL0     C76866   6.352   2.453   9.511  0.1100  0.1797 -0.4485
  583MOL0     C76867   6.298   2.567   9.601  1.0395  0.7057  0.2530
  583MOL0    Cl76868   6.123   2.536   9.632  0.5106  0.5099  0.1197
  583MOL0     C76869   7.346   2.652   9.749  0.4640 -0.6895  0.2172
  583MOL0     C76870   7.478   2.716   9.764  0.3715  0.2986 -0.1308
  583MOL0     O76871   7.668   2.883   9.909 -0.6355  0.4306  0.3488
  583MOL0     C76872   7.913   2.982   9.873 -0.5176  0.1766  0.0594
  583MOL0     C76873   8.031   3.061   9.886  0.0171  0.7588  0.2910
  583MOL0     N76874   8.513   3.462  10.119 -1.1277 -0.2003  0.4397
  583MOL0     N76875   8.641   3.457  10.138  0.2026 -0.1038  1.1886
  583MOL0     C76876   9.627   3.223  10.735  0.1414 -0.1679 -0.0424
  583MOL0     C76877   9.747   3.204  10.787 -0.1919  0.1820 -0.7318
  583MOL0     C76878  10.159   3.341  10.998  0.1268 -0.1482 -0.4291
  583MOL0     C76879  10.208   3.206  10.990  0.8830  0.4876  0.0248
  583MOL0     C76880  10.339   3.171  11.021  0.0517 -0.6806 -0.2482
  583MOL0     C76881  10.422   3.270  11.071  0.8728 -0.0741 -1.2877
  583MOL0     O76882  10.555   3.247  11.103 -0.1119 -0.3071  0.0643
  583MOL0     C76883  10.616   3.119  11.065  0.3045 -0.3807 -0.4649
  583MOL0     C76884  10.606   3.018  11.187 -0.3489  0.5277  0.7003
  583MOL0     C76885  10.690   3.069  11.303  0.1540 -0.4023  0.7993
  583MOL0     C76886  10.684   2.972  11.424 -0.9622 -0.4942  0.6059
  583MOL0     C76887  10.727   3.034  11.546 -0.1374 -0.9720  0.2049
  583MOL0     C76888  10.740   3.083  11.655 -0.4715 -0.5485 -0.3971
  583MOL0     C76889  10.373   3.407  11.084  0.2295  0.0152  0.3339
  583MOL0     C76890  10.245   3.439  11.047  0.2990  0.3667 -0.0262
  583MOL0     H76891   9.740   3.458  11.017 -3.6579 -0.9704  1.7543
  583MOL0     H76892   9.513   3.486  10.917 -2.4438 -2.4207 -0.7325
  583MOL0     H76893   9.327   3.156  10.696 -0.6640 -1.3551 -2.2499
  583MOL0     H76894   9.428   3.236  10.574  1.0142 -0.5410  1.0537
  583MOL0     H76895   9.256   3.419  10.565 -2.5199  1.6356  1.8065
  583MOL0     H76896   9.156   3.317  10.669  0.2633 -0.3823  0.1404
  583MOL0     H76897   9.167   3.126  10.510  0.7314 -0.7668 -2.4131
  583MOL0     H76898   9.252   3.225  10.398  2.7062 -1.1252  1.7596
  583MOL0     H76899   8.999   3.218  10.374 -0.0025 -1.4653  0.8140
  583MOL0     H76900   8.969   3.284  10.532 -4.7680 -1.1736 -3.6689
  583MOL0     H76901   9.111   3.452  10.321  0.3983  2.3084  2.5188
  583MOL0     H76902   9.039   3.508  10.469 -1.9386  3.6130 -2.2509
  583MOL0     H76903   8.818   3.468  10.402  0.6514  1.3370  1.1041
  583MOL0     H76904   8.878   3.402  10.247  2.9518 -3.1434  1.9592
  583MOL0     H76905   8.859   3.687  10.332  3.0788  0.4506  0.4623
  583MOL0     H76906   8.998   3.652  10.237  0.0013  2.3666 -1.7472
  583MOL0     H76907   8.883   3.550  10.065 -3.2111 -3.4858 -0.1782
  583MOL0     H76908   8.837   3.722  10.078 -0.8629  0.5737  0.1478
  583MOL0     H76909   8.598   3.781  10.068 -2.2130 -1.0627 -0.7534
  583MOL0     H76910   8.375   3.692   9.925  0.6645  0.1213 -0.3494
  583MOL0     H76911   8.324   3.730  10.082 -1.0942  0.4374 -0.5682
  583MOL0     H76912   8.141   3.597  10.008  0.0419  0.7218  1.4000
  583MOL0     H76913   8.236   3.483  10.118  0.6902 -1.3290 -1.1932
  583MOL0     H76914   8.239   3.511   9.819 -0.2273  3.1259  0.7030
  583MOL0     H76915   8.351   3.407   9.896 -0.3045  1.2886 -2.1309
  583MOL0     H76916   8.045   3.376   9.890 -0.1410 -1.2455  0.5324
  583MOL0     H76917   8.144   3.281  10.001  0.4370 -0.9676 -0.0076
  583MOL0     H76918   7.976   3.241   9.604  4.1230 -2.1886 -1.2815
  583MOL0     H76919   7.771   3.133   9.607  2.7533  0.5291 -2.1534
  583MOL0     H76920   7.465   2.897   9.473  0.9176  0.6789  0.1528
  583MOL0     H76921   7.271   2.790   9.448 -1.4964  2.2975  0.7052
  583MOL0     H76922   7.054   2.586   9.811  0.1723 -0.6980  0.4759
  583MOL0     H76923   7.174   2.458   9.759  0.4608  0.3993 -1.0798
  583MOL0     H76924   6.934   2.388   9.770 -1.3757 -1.2505 -0.6554
  583MOL0     H76925   6.993   2.357   9.614 -1.4626 -2.7112  3.1994
  583MOL0     H76926   6.886   2.556   9.526 -0.6945 -0.1243 -0.7573
  583MOL0     H76927   6.838   2.601   9.698 -1.4918  1.1890 -2.2425
  583MOL0     H76928   6.750   2.364   9.520  1.1067 -0.9817  0.9048
  583MOL0     H76929   6.705   2.367   9.688  3.3960 -2.0951 -0.6792
  583MOL0     H76930   6.614   2.558   9.477 -0.9001 -0.1313 -0.4032
  583MOL0     H76931   6.588   2.588   9.650  2.7466 -1.0327  2.5761
  583MOL0     H76932   6.467   2.365   9.674 -0.4427 -1.0228  0.0225
  583MOL0     H76933   6.520   2.321   9.515 -0.6413 -0.1724 -0.4006
  583MOL0     H76934   6.373   2.485   9.409  1.8538 -1.9755 -0.8325
  583MOL0     H76935   6.288   2.366   9.528 -0.0037  0.5340  1.0610
  583MOL0     H76936   6.311   2.664   9.554 -0.6233  0.5196 -0.6373
  583MOL0     H76937   6.337   2.567   9.704 -1.0782 -1.7048  1.1528
  583MOL0     H76938   7.319   2.597   9.839 -1.8584  1.4726  0.9656
  583MOL0     H76939   7.545   2.680   9.842  0.8162 -0.0598 -0.6709
  583MOL0     H76940   7.919   2.912   9.956 -0.1205  1.2690  0.9956
  583MOL0     H76941   8.111   3.031   9.952 -0.0791 -2.3890 -0.8213
  583MOL0     H76942   9.581   3.146  10.674  1.1117 -0.6684 -0.1600
  583MOL0     H76943   9.803   3.116  10.757 -2.3887 -0.8088 -2.2151
  583MOL0     H76944  10.136   3.129  10.962  0.1251  1.2497 -0.1808
  583MOL0     H76945  10.370   3.067  11.025  4.8042  0.5351  0.5133
  583MOL0     H76946  10.722   3.137  11.042  0.4857  0.1986  0.7783
  583MOL0     H76947  10.584   3.075  10.970  2.3357  1.3424 -2.0541
  583MOL0     H76948  10.501   3.000  11.210 -0.5406  0.5525 -0.1051
  583MOL0     H76949  10.657   2.927  11.153  0.1366  0.6256  1.1540
  583MOL0     H76950  10.667   3.174  11.323 -2.0965 -1.1373  2.5299
  583MOL0     H76951  10.795   3.062  11.271  0.3748  2.6749  0.4778
  583MOL0     H76952  10.582   2.938  11.444 -1.6104  0.6044 -0.7310
  583MOL0     H76953  10.751   2.889  11.398 -2.2899 -1.7018  0.9368
  583MOL0     H76954  10.762   3.136  11.745  0.8808  0.2532 -1.1669
  583MOL0     H76955  10.449   3.479  11.114  0.7099  1.6051 -4.0499
  583MOL0     H76956  10.217   3.542  11.066  1.1026  0.6020 -0.0800
  584MOL0     O76957   6.297   4.570   7.938  0.1530 -0.5062 -0.0596
  584MOL0     C76958   6.347   4.496   7.854 -0.4604  0.5837  0.1520
  584MOL0     O76959   6.277   4.408   7.777  0.0595 -0.3343 -0.7449
  584MOL0     C76960   6.148   4.379   7.801  0.6846 -0.1370 -0.2779
  584MOL0     C76961   6.109   4.243   7.817 -0.2324  0.0931  0.5359
  584MOL0     C76962   5.972   4.210   7.821 -0.4990 -0.6486 -0.0069
  584MOL0     C76963   5.872   4.315   7.804 -0.7180 -0.7054 -0.0368
  584MOL0     O76964   5.740   4.275   7.799 -0.3822 -0.0658  0.7685
  584MOL0     C76965   5.652   4.357   7.729  0.0950 -0.8347 -0.7365
  584MOL0     C76966   5.522   4.285   7.722  0.0858  0.2081 -0.3938
  584MOL0     C76967   5.425   4.326   7.836 -0.5092  0.3813  0.0080
  584MOL0     C76968   5.287   4.274   7.796  0.9204 -0.1091  0.2406
  584MOL0     C76969   5.173   4.341   7.875 -0.8457 -1.2029  0.2080
  584MOL0     C76970   5.047   4.265   7.860  0.9265  0.1300  0.2425
  584MOL0     C76971   4.924   4.340   7.935 -0.5681 -0.0860 -0.2879
  584MOL0     C76972   4.789   4.285   7.905  0.5723 -0.0125 -0.4459
  584MOL0     N76973   4.696   4.368   7.988  0.4972  0.5279  0.1641
  584MOL0     C76974   4.672   4.370   8.123 -0.8022 -0.4317 -0.2739
  584MOL0     C76975   4.583   4.471   8.138 -0.3705  0.4152  0.5308
  584MOL0     C76976   4.516   4.511   8.261  0.3655  0.5454 -0.4340
  584MOL0     C76977   4.382   4.435   8.264  1.1909  0.4508 -0.0513
  584MOL0     C76978   4.296   4.473   8.381  0.9850 -0.0681 -0.2669
  584MOL0     C76979   4.176   4.378   8.396  0.0225 -0.4076 -0.3423
  584MOL0     O76980   4.111   4.406   8.519  0.1427  0.3751  0.3092
  584MOL0     C76981   3.999   4.341   8.554 -0.0521  0.3863  0.6297
  584MOL0     C76982   3.941   4.246   8.472  0.1878 -0.4771  0.3226
  584MOL0     C76983   3.816   4.190   8.495 -0.7408 -0.1597 -0.3326
  584MOL0     C76984   3.739   4.239   8.605  0.1171  0.0120  0.8243
  584MOL0     C76985   3.598   4.196   8.640 -0.4949 -0.4788  0.1343
  584MOL0     O76986   3.529   4.277   8.726 -0.2589 -0.1287 -0.1969
  584MOL0     C76987   3.404   4.248   8.780  0.7688  0.4903 -0.0412
  584MOL0     C76988   3.319   4.351   8.824  0.4743  0.2183  0.2663
  584MOL0     C76989   3.189   4.327   8.882 -0.7250  0.3432  1.0587
  584MOL0     C76990   3.151   4.194   8.898  0.4441  0.0601  0.0104
  584MOL0     O76991   3.021   4.182   8.937  0.1451  0.1880 -0.6459
  584MOL0     C76992   2.929   4.135   8.841  0.3480 -0.1760  0.0836
  584MOL0     C76993   2.889   3.991   8.893 -0.0020 -0.4039 -0.3607
  584MOL0     C76994   2.771   3.921   8.813 -0.3729 -0.2601 -0.9811
  584MOL0     C76995   2.647   3.910   8.903 -0.2540 -0.8789 -0.4797
  584MOL0     C76996   2.527   3.855   8.824  0.3487  1.0917 -0.1532
  584MOL0     C76997   2.444   3.761   8.912 -0.2506  0.1019 -0.2599
  584MOL0     C76998   2.309   3.719   8.862 -0.1758 -0.3615 -0.3954
  584MOL0     C76999   2.316   3.640   8.738  0.2765  0.1197  0.0075
  584MOL0    Cl77000   2.150   3.568   8.701  0.2401 -0.0861 -0.4891
  584MOL0     C77001   3.229   4.089   8.852  0.0240 -0.0753  0.3944
  584MOL0     C77002   3.356   4.123   8.792 -1.0264  0.1800 -0.6473
  584MOL0     O77003   3.554   4.100   8.578  0.5113 -0.0251  0.0876
  584MOL0     C77004   3.807   4.332   8.683 -0.2403  0.3389  0.7431
  584MOL0     C77005   3.935   4.380   8.662 -0.2794 -0.6088 -0.1489
  584MOL0     N77006   4.554   4.530   8.019  0.1728  0.1088 -0.1893
  584MOL0     N77007   4.614   4.465   7.934 -0.2810 -0.1162  0.0977
  584MOL0     C77008   5.916   4.455   7.803 -0.3230 -0.3506  0.3450
  584MOL0     C77009   6.051   4.485   7.796  0.1451  0.4756  0.6898
  584MOL0     C77010   6.493   4.493   7.826 -0.2573  0.7658 -0.6090
  584MOL0     C77011   6.573   4.609   7.851  0.2203 -1.1198 -0.2627
  584MOL0     C77012   6.711   4.610   7.832 -0.0428  0.1022 -0.3929
  584MOL0     C77013   6.774   4.499   7.778 -0.2171  0.5500 -0.2786
  584MOL0     O77014   6.911   4.507   7.772  0.0483 -0.2748 -0.4136
  584MOL0     C77015   6.985   4.397   7.734  0.4767 -0.0175  0.8795
  584MOL0     C77016   7.020   4.425   7.590 -0.2181  0.3556  0.1632
  584MOL0     C77017   7.128   4.532   7.569  0.6901  1.1625 -0.6047
  584MOL0     C77018   7.230   4.510   7.462  0.1053  0.5794 -0.2222
  584MOL0     C77019   7.287   4.634   7.418  0.7583  0.0815 -1.0453
  584MOL0     C77020   7.318   4.740   7.371 -1.3655  0.0137 -0.0939
  584MOL0     C77021   6.700   4.382   7.759  0.2098  0.5085 -0.6286
  584MOL0     C77022   6.557   4.374   7.785  0.1858  0.3160  0.5048
  584MOL0     H77023   6.189   4.170   7.825  0.6060  0.8653 -0.5352
  584MOL0     H77024   5.957   4.102   7.825 -1.5159 -0.4718  1.3300
  584MOL0     H77025   5.691   4.372   7.628  2.8736  0.9569  0.4788
  584MOL0     H77026   5.639   4.451   7.782 -0.9381  0.1086 -2.5591
  584MOL0     H77027   5.543   4.179   7.706 -0.3619  0.5223 -3.9165
  584MOL0     H77028   5.477   4.314   7.626 -0.6996 -0.7907 -0.3418
  584MOL0     H77029   5.422   4.435   7.845 -3.5017  0.3105  0.7502
  584MOL0     H77030   5.460   4.284   7.931 -0.9170  0.4789  0.2044
  584MOL0     H77031   5.269   4.279   7.688 -1.0284 -1.7473  0.4339
  584MOL0     H77032   5.284   4.165   7.807 -0.4337  0.0149  1.3834
  584MOL0     H77033   5.165   4.446   7.849  1.6071  0.3975  4.7515
  584MOL0     H77034   5.204   4.336   7.980 -1.4413 -0.3131  0.4334
  584MOL0     H77035   5.062   4.172   7.915  1.6178  0.7856  1.1920
  584MOL0     H77036   5.033   4.250   7.753 -2.3042  6.1329 -0.6369
  584MOL0     H77037   4.940   4.325   8.042 -0.4876  2.3504  0.0864
  584MOL0     H77038   4.927   4.448   7.921  1.0400 -0.1464 -0.5976
  584MOL0     H77039   4.774   4.179   7.932 -2.6673  0.4918  0.1955
  584MOL0     H77040   4.768   4.292   7.798 -0.3344 -0.5523 -0.3143
  584MOL0     H77041   4.704   4.309   8.206 -0.1637  1.8451  1.2634
  584MOL0     H77042   4.490   4.617   8.258 -1.4339  0.1673  0.5443
  584MOL0     H77043   4.574   4.484   8.350  0.3840  1.8578 -0.0298
  584MOL0     H77044   4.392   4.326   8.255 -0.4080  0.4523 -4.5290
  584MOL0     H77045   4.340   4.468   8.168 -1.1540  0.6644  0.9908
  584MOL0     H77046   4.360   4.462   8.469  1.4993  0.1660 -0.6141
  584MOL0     H77047   4.258   4.575   8.375  0.1342 -0.4285 -1.4123
  584MOL0     H77048   4.214   4.276   8.407  1.9320  0.3927  1.1119
  584MOL0     H77049   4.105   4.370   8.313 -2.1517 -0.2285  1.4196
  584MOL0     H77050   3.992   4.219   8.380 -1.6870 -1.6832 -0.4198
  584MOL0     H77051   3.780   4.101   8.444  1.3381 -1.2580 -0.0391
  584MOL0     H77052   3.342   4.453   8.793  0.7742 -0.0434 -0.3911
  584MOL0     H77053   3.126   4.407   8.920 -0.8911  0.7342 -0.0031
  584MOL0     H77054   2.974   4.136   8.741  1.1305 -2.3493  0.3609
  584MOL0     H77055   2.840   4.197   8.833  0.2418 -0.6022 -3.9728
  584MOL0     H77056   2.858   4.004   8.997 -0.7819 -0.1019 -0.6229
  584MOL0     H77057   2.975   3.924   8.884  0.8306  0.7393 -1.1655
  584MOL0     H77058   2.801   3.822   8.780 -1.2549 -0.1541 -2.1479
  584MOL0     H77059   2.739   3.982   8.728 -0.1625  1.2770  0.0056
  584MOL0     H77060   2.675   3.847   8.988 -0.2711 -2.7613 -1.8156
  584MOL0     H77061   2.611   4.005   8.944 -1.1079 -1.2496 -0.3451
  584MOL0     H77062   2.565   3.800   8.738 -2.3625 -1.1868 -0.0045
  584MOL0     H77063   2.461   3.936   8.791 -0.4806  1.6778  2.6758
  584MOL0     H77064   2.424   3.810   9.007  1.0602  0.6266 -0.2300
  584MOL0     H77065   2.501   3.668   8.918  0.6184  0.5601 -1.0806
  584MOL0     H77066   2.266   3.649   8.935  0.0758 -1.9152 -1.6875
  584MOL0     H77067   2.237   3.799   8.841 -1.5515 -1.4786 -0.1494
  584MOL0     H77068   2.385   3.555   8.749  1.0309  0.8328  1.0168
  584MOL0     H77069   2.349   3.705   8.657  2.4343  0.0924  0.7834
  584MOL0     H77070   3.192   3.988   8.864 -0.4626  0.2580  1.8677
  584MOL0     H77071   3.404   4.032   8.757 -0.5510  0.5187 -0.8888
  584MOL0     H77072   3.760   4.380   8.767 -2.0105 -1.3058  0.7655
  584MOL0     H77073   3.987   4.446   8.731 -1.6926  0.1674  0.2027
  584MOL0     H77074   5.841   4.534   7.807 -0.9975 -0.9132 -0.5548
  584MOL0     H77075   6.073   4.590   7.785 -1.7709  1.0419  1.8306
  584MOL0     H77076   6.532   4.697   7.901  1.4325 -1.0730  0.6877
  584MOL0     H77077   6.753   4.707   7.856 -1.0163  0.2986  0.5688
  584MOL0     H77078   6.939   4.298   7.734  0.1975  0.0297 -1.9419
  584MOL0     H77079   7.073   4.401   7.799  0.8394  1.5562  0.3491
  584MOL0     H77080   7.057   4.329   7.553 -1.7766  0.0572 -0.6978
  584MOL0     H77081   6.925   4.443   7.540 -1.5079 -0.7183  2.1013
  584MOL0     H77082   7.176   4.543   7.666 -1.6786  0.3582  0.7294
  584MOL0     H77083   7.072   4.625   7.557 -1.4367  0.2246  1.2656
  584MOL0     H77084   7.308   4.451   7.510  2.0484  1.4797 -2.1187
  584MOL0     H77085   7.189   4.443   7.386 -0.7616 -0.9997  1.5352
  584MOL0     H77086   7.338   4.837   7.331  0.5142  0.6306  2.0975
  584MOL0     H77087   6.744   4.289   7.726  1.2320  1.6407 -2.6846
  584MOL0     H77088   6.511   4.276   7.779  1.9570 -0.5471  0.5611
  585MOL0     O77089   4.767   8.563  10.639 -0.0675  0.1558 -0.4592
  585MOL0     C77090   4.735   8.668  10.678 -0.0427 -1.3274  0.1815
  585MOL0     O77091   4.816   8.756  10.743 -0.4574 -0.2668  0.6277
  585MOL0     C77092   4.955   8.731  10.752  0.1923  0.0733 -0.7410
  585MOL0     C77093   5.049   8.677  10.661 -0.1320 -0.3770  0.7032
  585MOL0     C77094   5.185   8.679  10.688 -0.2145  0.6268  0.0959
  585MOL0     C77095   5.239   8.732  10.802 -0.1601 -0.0270  0.2432
  585MOL0     O77096   5.373   8.742  10.827 -0.6889  0.2259  0.2287
  585MOL0     C77097   5.453   8.634  10.797 -0.3941 -0.0108  0.1197
  585MOL0     C77098   5.477   8.553  10.918  0.5421  2.1517  1.6460
  585MOL0     C77099   5.542   8.615  11.037 -0.6335  0.2912  0.1207
  585MOL0     C77100   5.684   8.665  11.015  0.0623 -1.0725  0.8230
  585MOL0     C77101   5.759   8.727  11.141 -0.7325  0.5125 -0.1158
  585MOL0     C77102   5.791   8.611  11.241  0.6084 -1.1908  0.6829
  585MOL0     C77103   5.864   8.664  11.367  0.7975  0.5201  0.5008
  585MOL0     C77104   5.758   8.741  11.447 -0.0198 -0.6178 -0.4997
  585MOL0     N77105   5.812   8.785  11.578 -0.1507  0.0235 -0.5944
  585MOL0     C77106   5.750   8.756  11.695  0.1567 -0.7821  0.3995
  585MOL0     C77107   5.846   8.778  11.788  0.6598 -0.6106  0.5611
  585MOL0     C77108   5.822   8.763  11.938  0.2659 -0.0557 -0.4871
  585MOL0     C77109   5.689   8.824  11.979 -0.6046  0.0180  0.5843
  585MOL0     C77110   5.691   8.977  11.976 -0.5882  0.2921  0.6019
  585MOL0     C77111   5.755   9.042  12.103  0.5493  0.2777  0.1041
  585MOL0     O77112   5.762   9.187  12.095  0.0087 -0.5399 -1.1366
  585MOL0     C77113   5.722   9.244  12.212 -0.1598  0.9975  0.1371
  585MOL0     C77114   5.807   9.234  12.320  0.5091 -0.2571 -0.5023
  585MOL0     C77115   5.774   9.298  12.447  0.7514 -0.5643  0.1258
  585MOL0     C77116   5.645   9.354  12.461  0.1633  0.8987 -0.0066
  585MOL0     C77117   5.604   9.429  12.588  0.3710 -0.1281 -0.6530
  585MOL0     O77118   5.493   9.505  12.585 -0.0627  0.5764  0.7143
  585MOL0     C77119   5.417   9.538  12.695 -0.1449  0.9168  0.3163
  585MOL0     C77120   5.418   9.473  12.820  0.8407 -0.6660  0.6294
  585MOL0     C77121   5.330   9.508  12.922 -0.5625  0.2213 -0.0374
  585MOL0     C77122   5.246   9.618  12.900 -0.6141  0.7153  0.0186
  585MOL0     O77123   5.176   9.648  13.009  0.1082 -0.1796 -0.0776
  585MOL0     C77124   5.039   9.691  12.997  0.4716 -0.7845  0.8572
  585MOL0     C77125   4.970   9.671  13.133 -0.0784 -0.5064 -0.5064
  585MOL0     C77126   5.034   9.751  13.246  0.0081  0.6767  0.4969
  585MOL0     C77127   4.952   9.743  13.378  0.1031 -0.6549 -0.4929
  585MOL0     C77128   5.032   9.814  13.489 -0.5648 -0.1763  0.4635
  585MOL0     C77129   4.959   9.850  13.624  0.0415 -0.7531  0.4045
  585MOL0     C77130   4.895   9.735  13.691 -0.2321 -0.3547  0.1158
  585MOL0     C77131   4.944   9.713  13.840 -0.2330 -0.0457  0.5583
  585MOL0    Cl77132   4.906   9.542  13.883  0.0036  0.3407  0.1792
  585MOL0     C77133   5.245   9.690  12.784  0.7625  1.1363 -0.2606
  585MOL0     C77134   5.330   9.651  12.683 -0.0070  0.6774  0.2803
  585MOL0     O77135   5.687   9.426  12.683  0.4167  0.2534 -0.1551
  585MOL0     C77136   5.558   9.361  12.349 -0.6993  0.3164 -0.2297
  585MOL0     C77137   5.597   9.310  12.226  0.3647 -1.1609  0.1449
  585MOL0     N77138   5.963   8.836  11.729  0.5617  0.2937  0.1358
  585MOL0     N77139   5.940   8.832  11.608 -0.3107  0.2059  0.2419
  585MOL0     C77140   5.150   8.785  10.896 -0.8368 -0.0510 -0.1465
  585MOL0     C77141   5.009   8.775  10.877 -0.2554 -0.2424  0.1866
  585MOL0     C77142   4.603   8.723  10.650 -0.0280 -0.0946  0.4079
  585MOL0     C77143   4.491   8.641  10.613 -0.4927  0.5339 -0.4104
  585MOL0     C77144   4.371   8.697  10.572  0.1197  0.3965 -0.0523
  585MOL0     C77145   4.359   8.833  10.558 -0.7011  0.7347  0.4541
  585MOL0     O77146   4.241   8.875  10.520  0.8743 -0.6536  0.6100
  585MOL0     C77147   4.234   9.019  10.484  0.6770 -0.0984  0.7304
  585MOL0     C77148   4.088   9.030  10.433  0.3910  0.2996  0.1024
  585MOL0     C77149   3.985   9.005  10.543 -0.4604  0.4600  0.3340
  585MOL0     C77150   4.010   9.084  10.684  0.3239 -0.1199  0.2114
  585MOL0     C77151   3.898   9.070  10.778 -0.9667 -0.1139  1.0987
  585MOL0     C77152   3.804   9.055  10.847 -0.5474 -0.5624 -0.3997
  585MOL0     C77153   4.463   8.910  10.607  0.2963  0.3775  0.4557
  585MOL0     C77154   4.581   8.861  10.647 -0.3146  0.4623  0.6303
  585MOL0     H77155   5.010   8.629  10.572  3.2855 -2.0258 -0.0644
  585MOL0     H77156   5.254   8.646  10.612 -0.1010 -3.0745  1.6164
  585MOL0     H77157   5.551   8.673  10.769 -0.3984 -0.1907 -0.1499
  585MOL0     H77158   5.416   8.576  10.712  1.1736  1.5074 -1.6779
  585MOL0     H77159   5.544   8.475  10.881  0.0897  1.6316  1.9237
  585MOL0     H77160   5.382   8.504  10.939  0.6435 -0.2188 -2.2742
  585MOL0     H77161   5.553   8.547  11.121  0.4724 -0.8905 -0.9252
  585MOL0     H77162   5.497   8.708  11.070  3.1843  2.1997  0.5224
  585MOL0     H77163   5.736   8.583  10.963 -3.1943 -1.0193 -2.9777
  585MOL0     H77164   5.677   8.745  10.941  1.5670 -1.5562  0.1263
  585MOL0     H77165   5.699   8.806  11.187  1.5991  2.5568 -0.3135
  585MOL0     H77166   5.852   8.776  11.110 -0.3600  1.5147  2.3357
  585MOL0     H77167   5.855   8.538  11.192  0.8923  0.1720 -1.0961
  585MOL0     H77168   5.696   8.568  11.276  0.6021 -1.0676  0.8209
  585MOL0     H77169   5.902   8.585  11.433 -1.6088  0.2930  1.7281
  585MOL0     H77170   5.943   8.731  11.334 -0.7962  1.3657 -1.8329
  585MOL0     H77171   5.682   8.666  11.473  0.9731 -1.4635  0.0299
  585MOL0     H77172   5.724   8.830  11.393 -0.6145 -0.0206  0.7990
  585MOL0     H77173   5.649   8.721  11.713 -0.4428  0.5402 -0.2320
  585MOL0     H77174   5.898   8.807  12.004  3.9585 -2.6736 -2.6158
  585MOL0     H77175   5.830   8.659  11.970  0.5477 -0.1600 -0.8945
  585MOL0     H77176   5.656   8.795  12.079 -2.9213  2.3643  0.6196
  585MOL0     H77177   5.615   8.790  11.906 -0.5669  1.2324 -0.0458
  585MOL0     H77178   5.753   9.009  11.892  0.7721  0.2594  1.5562
  585MOL0     H77179   5.587   9.008  11.965 -0.1859  0.7506 -3.2971
  585MOL0     H77180   5.859   9.007  12.108  0.2238 -0.7642 -0.3442
  585MOL0     H77181   5.698   9.008  12.190 -0.9057 -0.1549 -0.9956
  585MOL0     H77182   5.899   9.179  12.303 -0.6833 -1.6604 -3.0088
  585MOL0     H77183   5.838   9.298  12.535  0.8860  2.4950  0.1328
  585MOL0     H77184   5.477   9.383  12.834 -0.6358 -1.7174  0.2607
  585MOL0     H77185   5.335   9.453  13.015 -1.8128  2.3387  1.3366
  585MOL0     H77186   4.984   9.639  12.918  2.2662 -4.0590  1.5606
  585MOL0     H77187   5.045   9.798  12.977 -0.7744 -1.0272 -1.1001
  585MOL0     H77188   4.968   9.569  13.172  0.4059 -0.0927  0.6489
  585MOL0     H77189   4.863   9.692  13.123 -0.3729  0.2902  2.9680
  585MOL0     H77190   5.033   9.857  13.220 -2.0363  1.0117  1.7515
  585MOL0     H77191   5.137   9.715  13.258  0.3771  1.3021 -0.7032
  585MOL0     H77192   4.862   9.805  13.369  0.7304  0.3300 -0.1479
  585MOL0     H77193   4.927   9.639  13.400 -1.1913 -0.4448 -0.8545
  585MOL0     H77194   5.067   9.906  13.440 -1.0230 -0.8115 -1.1328
  585MOL0     H77195   5.126   9.765  13.516 -1.7928 -2.6970  0.4361
  585MOL0     H77196   4.884   9.926  13.603  0.2097 -1.1323 -1.8815
  585MOL0     H77197   5.034   9.890  13.693  0.3136 -2.1743  0.9717
  585MOL0     H77198   4.786   9.741  13.698 -0.2777 -2.0593  4.5740
  585MOL0     H77199   4.924   9.642  13.642 -0.3918 -1.5423  2.1523
  585MOL0     H77200   4.895   9.788  13.902  0.0685  1.6232 -1.1231
  585MOL0     H77201   5.049   9.726  13.868 -0.0486  1.8935 -0.8383
  585MOL0     H77202   5.165   9.763  12.779 -1.0341 -0.5432  1.6869
  585MOL0     H77203   5.320   9.703  12.588  0.3499  2.1316  1.0143
  585MOL0     H77204   5.460   9.408  12.347 -0.7284  0.2437 -0.5108
  585MOL0     H77205   5.531   9.314  12.139  0.3416  0.5270  0.2011
  585MOL0     H77206   5.182   8.826  10.991 -0.0723 -0.1645 -0.3492
  585MOL0     H77207   4.943   8.811  10.955  0.4503  0.3567  0.5161
  585MOL0     H77208   4.502   8.533  10.618  0.3984  0.6591  0.6416
  585MOL0     H77209   4.289   8.641  10.530  0.1478  0.1754  0.1836
  585MOL0     H77210   4.312   9.027  10.408 -1.3874 -1.0189 -1.5961
  585MOL0     H77211   4.247   9.089  10.567 -2.1540 -1.3414  2.3531
  585MOL0     H77212   4.055   9.112  10.369 -1.0142 -1.9546 -2.2664
  585MOL0     H77213   4.082   8.942  10.369 -0.6349  1.4539 -1.4527
  585MOL0     H77214   3.974   8.904  10.583 -0.9559  1.2171  2.2103
  585MOL0     H77215   3.886   9.041  10.516 -1.4563 -2.9704 -1.1704
  585MOL0     H77216   4.108   9.064  10.730  0.5267  1.1087  0.3488
  585MOL0     H77217   4.018   9.191  10.666  0.9949  0.0278  1.2750
  585MOL0     H77218   3.718   9.019  10.900 -0.0428 -1.8643 -0.4301
  585MOL0     H77219   4.440   9.016  10.604 -0.6321  0.1638 -0.9912
  585MOL0     H77220   4.662   8.932  10.662 -1.1819  1.1521  2.2025
  586MOL0     O77221   2.113   9.000   6.353 -0.3989  0.2676 -1.2262
  586MOL0     C77222   2.146   9.112   6.329  0.1363 -0.4506 -0.4010
  586MOL0     O77223   2.064   9.206   6.287 -0.5079  0.2781  0.3118
  586MOL0     C77224   1.953   9.156   6.220 -0.6067  0.3444  0.6918
  586MOL0     C77225   1.827   9.153   6.282  0.4242  0.9067 -0.6931
  586MOL0     C77226   1.716   9.138   6.200  0.3738  0.0429 -0.2655
  586MOL0     C77227   1.721   9.129   6.068  0.9368  0.3298  0.3491
  586MOL0     O77228   1.606   9.116   5.986 -0.0974 -0.3785 -0.0267
  586MOL0     C77229   1.487   9.162   6.051  0.2928  0.6877 -0.2268
  586MOL0     C77230   1.368   9.155   5.947  0.3938  0.0580 -0.2630
  586MOL0     C77231   1.397   9.239   5.819 -0.5838  0.1429 -0.2330
  586MOL0     C77232   1.459   9.375   5.846  1.0864 -0.8258  0.0439
  586MOL0     C77233   1.474   9.472   5.723  1.1174 -0.6173 -0.3333
  586MOL0     C77234   1.347   9.499   5.642 -1.0622 -0.8642  0.1846
  586MOL0     C77235   1.374   9.593   5.518  0.0418 -0.4271  0.3548
  586MOL0     C77236   1.258   9.593   5.428  0.0108  0.5830  0.9150
  586MOL0     N77237   1.137   9.661   5.487 -0.2179  0.5577  0.7777
  586MOL0     C77238   1.028   9.579   5.515  0.3107 -0.5735  0.1427
  586MOL0     C77239   0.951   9.655   5.596 -1.3171 -0.0337  0.7490
  586MOL0     C77240   0.853   9.608   5.701 -0.6219  0.4881 -0.7243
  586MOL0     C77241   0.729   9.697   5.690 -0.7491  0.2402 -0.2027
  586MOL0     C77242   0.646   9.704   5.823  0.3972 -0.3403 -0.0940
  586MOL0     C77243   0.531   9.803   5.798 -0.0777  0.6216 -0.2426
  586MOL0     O77244   0.455   9.755   5.686 -0.1815 -0.0985  0.3677
  586MOL0     C77245   0.320   9.765   5.704 -0.1824  0.1414  0.8265
  586MOL0     C77246   0.249   9.878   5.729 -0.5588  0.0671 -0.1519
  586MOL0     C77247   0.107   9.875   5.739  1.0670  0.5705 -0.5731
  586MOL0     C77248   0.033   9.754   5.707 -0.2334 -1.2071  0.6063
  586MOL0     C77249  -0.110   9.747   5.691  0.8800  0.2184  0.0407
  586MOL0     O77250  -0.162   9.625   5.700 -0.0531  0.3506  0.0180
  586MOL0     C77251  -0.296   9.621   5.729 -0.7837  0.5357  0.4346
  586MOL0     C77252  -0.385   9.556   5.638 -0.1002  0.0540  0.3070
  586MOL0     C77253  -0.519   9.544   5.678  0.3203 -0.7447  0.1068
  586MOL0     C77254  -0.573   9.593   5.799 -0.3112  0.0823 -0.5859
  586MOL0     O77255  -0.703   9.577   5.845 -0.2411 -0.0311 -0.2387
  586MOL0     C77256  -0.808   9.596   5.749  0.0081 -0.5817 -0.0662
  586MOL0     C77257  -0.935   9.542   5.818 -0.0560  0.0507 -0.1171
  586MOL0     C77258  -1.059   9.542   5.725  0.4998 -0.1512  0.1955
  586MOL0     C77259  -1.182   9.482   5.787 -0.2161 -0.3431  0.5926
  586MOL0     C77260  -1.317   9.502   5.715  0.6064 -0.2240  0.2444
  586MOL0     C77261  -1.431   9.416   5.782 -0.0450  0.1413  0.5843
  586MOL0     C77262  -1.560   9.456   5.700  0.7148  0.2386 -0.6636
  586MOL0     C77263  -1.686   9.402   5.765  0.3586 -0.3814 -0.2088
  586MOL0    Cl77264  -1.821   9.474   5.681 -0.5891 -0.1191 -0.4545
  586MOL0     C77265  -0.485   9.657   5.882  0.8204  1.4051 -0.1998
  586MOL0     C77266  -0.347   9.662   5.854 -0.6612  0.5512  0.4691
  586MOL0     O77267  -0.171   9.855   5.704  0.3338 -0.3429 -0.6080
  586MOL0     C77268   0.117   9.637   5.688 -0.1315  0.6002 -0.2820
  586MOL0     C77269   0.254   9.650   5.677 -0.0702  0.3030 -0.5758
  586MOL0     N77270   1.009   9.785   5.594  0.6756  0.4690 -0.1466
  586MOL0     N77271   1.117   9.787   5.533  0.2386  0.0107  0.7134
  586MOL0     C77272   1.845   9.131   6.014  0.1198 -0.2903  0.1371
  586MOL0     C77273   1.968   9.130   6.079  0.5046  0.5805  0.8941
  586MOL0     C77274   2.300   9.140   6.338  0.0180  0.8096  0.1262
  586MOL0     C77275   2.387   9.037   6.380 -0.5411  0.6870 -1.1574
  586MOL0     C77276   2.526   9.058   6.382 -0.6537 -0.4879  0.4685
  586MOL0     C77277   2.578   9.185   6.353 -0.1455  0.2546 -0.5430
  586MOL0     O77278   2.708   9.219   6.378 -0.5937 -0.2248 -0.0561
  586MOL0     C77279   2.726   9.236   6.521 -0.5690 -0.7575  0.0187
  586MOL0     C77280   2.850   9.326   6.551  0.0248 -0.5112  0.3729
  586MOL0     C77281   2.830   9.475   6.493 -0.5214  0.4796  0.5652
  586MOL0     C77282   2.847   9.484   6.343 -0.2362  0.1789 -0.2795
  586MOL0     C77283   2.980   9.528   6.289  0.1295 -0.4311 -0.2094
  586MOL0     C77284   3.093   9.565   6.260 -0.0572 -0.1586 -0.3510
  586MOL0     C77285   2.480   9.281   6.317  0.8480 -0.1704 -0.0692
  586MOL0     C77286   2.341   9.266   6.314  0.0167  0.3495 -0.4288
  586MOL0     H77287   1.826   9.160   6.390  0.1200  1.0811 -0.7069
  586MOL0     H77288   1.626   9.129   6.261 -0.4118  0.9184 -1.2400
  586MOL0     H77289   1.496   9.266   6.085 -1.8802  0.3237  1.7496
  586MOL0     H77290   1.466   9.082   6.123 -1.3865 -0.4162 -1.8496
  586MOL0     H77291   1.274   9.181   5.996  0.0535 -0.9788 -0.3318
  586MOL0     H77292   1.343   9.056   5.908 -0.3204  0.4532 -0.8249
  586MOL0     H77293   1.295   9.244   5.780 -0.7657 -0.8263  0.0688
  586MOL0     H77294   1.463   9.184   5.751 -0.6702 -0.7715  0.3929
  586MOL0     H77295   1.391   9.422   5.917 -1.3795 -0.6076 -2.3239
  586MOL0     H77296   1.559   9.365   5.891  1.9557  1.3794 -1.2432
  586MOL0     H77297   1.555   9.441   5.656  3.1842  3.2537  0.0904
  586MOL0     H77298   1.498   9.572   5.760 -2.9054  0.4646 -0.1418
  586MOL0     H77299   1.271   9.545   5.705 -0.4430  2.5358 -1.3200
  586MOL0     H77300   1.298   9.407   5.607 -0.0572 -1.7235  0.9930
  586MOL0     H77301   1.410   9.688   5.558  0.3376 -0.9578  1.3933
  586MOL0     H77302   1.458   9.561   5.455  0.6442  0.5737  0.6178
  586MOL0     H77303   1.228   9.492   5.398 -0.2104  1.5092 -2.4217
  586MOL0     H77304   1.276   9.644   5.333 -1.7496 -2.2799 -1.1025
  586MOL0     H77305   1.021   9.471   5.508 -0.7400 -0.6840  2.1656
  586MOL0     H77306   0.900   9.609   5.800 -0.7116  0.4311 -0.6803
  586MOL0     H77307   0.827   9.507   5.668  3.9558 -0.4357 -2.0816
  586MOL0     H77308   0.667   9.663   5.606 -1.1036  0.6007 -0.0864
  586MOL0     H77309   0.759   9.800   5.667  1.1530 -0.1355  0.4179
  586MOL0     H77310   0.603   9.606   5.845  0.0969 -0.1364  0.2388
  586MOL0     H77311   0.695   9.738   5.914 -1.5313  0.6356  0.6289
  586MOL0     H77312   0.574   9.898   5.764 -0.0359  1.6887  2.5692
  586MOL0     H77313   0.469   9.807   5.888  3.2209  0.2597  2.2035
  586MOL0     H77314   0.309   9.968   5.739  1.3457 -1.3723  3.3715
  586MOL0     H77315   0.056   9.965   5.773  1.0702 -0.5705  2.8664
  586MOL0     H77316  -0.360   9.507   5.545 -0.3474 -0.4924  0.5192
  586MOL0     H77317  -0.584   9.494   5.607  0.4232  0.9159 -1.2164
  586MOL0     H77318  -0.789   9.534   5.661  2.9914  0.5402 -0.3413
  586MOL0     H77319  -0.829   9.697   5.713 -0.7735 -0.6957  0.0538
  586MOL0     H77320  -0.963   9.615   5.894  1.1128 -0.4127  0.7936
  586MOL0     H77321  -0.914   9.443   5.860  1.1523  1.6178  3.2926
  586MOL0     H77322  -1.032   9.500   5.628  1.4143 -0.0822  0.4070
  586MOL0     H77323  -1.094   9.643   5.704 -0.1558 -0.7605 -1.8129
  586MOL0     H77324  -1.169   9.374   5.801 -0.9434 -0.4169  0.7324
  586MOL0     H77325  -1.177   9.529   5.885  0.9552 -1.9965  1.3803
  586MOL0     H77326  -1.312   9.494   5.606  0.9410  0.2650  0.2208
  586MOL0     H77327  -1.346   9.607   5.729 -1.1915 -0.8341  1.5032
  586MOL0     H77328  -1.425   9.436   5.890  1.5565  0.9654  0.3694
  586MOL0     H77329  -1.413   9.309   5.767 -0.6092 -0.3611  3.0053
  586MOL0     H77330  -1.577   9.563   5.682 -2.0711 -0.0770 -0.2917
  586MOL0     H77331  -1.549   9.397   5.608 -2.2877 -2.1043  0.3044
  586MOL0     H77332  -1.686   9.426   5.872  0.6354 -2.4099  0.2791
  586MOL0     H77333  -1.681   9.294   5.749  0.4520 -0.6288  1.3899
  586MOL0     H77334  -0.522   9.710   5.969  2.9147  2.3530  0.1674
  586MOL0     H77335  -0.272   9.707   5.918 -1.3269  3.5170 -0.6517
  586MOL0     H77336   0.068   9.542   5.664  0.9818  0.1128 -0.6869
  586MOL0     H77337   0.312   9.566   5.640 -2.1824 -1.9889  0.9489
  586MOL0     H77338   1.847   9.141   5.906 -1.3879  1.6315  0.2344
  586MOL0     H77339   2.060   9.125   6.022  0.9432 -0.9351  1.6666
  586MOL0     H77340   2.349   8.939   6.405 -3.3980  1.9596 -0.0365
  586MOL0     H77341   2.602   8.983   6.400 -1.1107 -1.1914 -0.4263
  586MOL0     H77342   2.748   9.137   6.561 -0.5482 -0.2840  1.2232
  586MOL0     H77343   2.639   9.286   6.566  0.5216  3.5379 -2.0856
  586MOL0     H77344   2.849   9.329   6.660 -1.4575 -0.8885  0.3928
  586MOL0     H77345   2.942   9.274   6.520  0.7030  0.1709  1.1955
  586MOL0     H77346   2.905   9.539   6.540  1.4968 -1.4670  0.1492
  586MOL0     H77347   2.737   9.519   6.531 -0.7637 -0.0872  0.6427
  586MOL0     H77348   2.821   9.386   6.303 -1.5013 -0.3786  1.7624
  586MOL0     H77349   2.775   9.548   6.291 -0.6988 -0.7343 -0.7764
  586MOL0     H77350   3.198   9.582   6.244  0.5325 -2.9243  0.1071
  586MOL0     H77351   2.527   9.375   6.291  2.4878 -1.0536 -0.4579
  586MOL0     H77352   2.278   9.354   6.306  0.0729  0.2298 -2.8444
  587MOL0     O77353   8.287   5.581  10.707 -0.0383 -0.8500 -0.1944
  587MOL0     C77354   8.341   5.496  10.777  0.5382  0.1062  0.2198
  587MOL0     O77355   8.274   5.383  10.825  0.6091  0.3967 -0.1664
  587MOL0     C77356   8.149   5.340  10.775 -0.3202 -0.4703 -0.0864
  587MOL0     C77357   8.156   5.287  10.645 -1.0351 -1.3432  0.0541
  587MOL0     C77358   8.040   5.248  10.584 -0.4474 -0.2013  1.0700
  587MOL0     C77359   7.920   5.276  10.645  0.1518  0.0941 -0.5417
  587MOL0     O77360   7.805   5.229  10.577  0.9474 -0.0348  0.4596
  587MOL0     C77361   7.749   5.109  10.625 -0.8366 -0.5006  0.1819
  587MOL0     C77362   7.600   5.121  10.591  0.3935 -1.2339 -0.2493
  587MOL0     C77363   7.541   4.981  10.583 -0.1875 -0.2279  0.7050
  587MOL0     C77364   7.384   4.989  10.561  0.0949 -0.2195  0.4903
  587MOL0     C77365   7.339   4.845  10.563  0.0972 -0.7858 -0.2137
  587MOL0     C77366   7.192   4.826  10.518  0.2257  0.0880 -0.6501
  587MOL0     C77367   7.129   4.686  10.562  0.6535 -0.7047 -1.2398
  587MOL0     C77368   6.980   4.658  10.518  0.0108  0.0332 -0.3238
  587MOL0     N77369   6.877   4.748  10.563  0.3635 -0.1233  0.1159
  587MOL0     C77370   6.802   4.750  10.678 -0.3172 -0.0090 -0.1693
  587MOL0     C77371   6.706   4.849  10.666  0.3907  0.7730  0.3711
  587MOL0     C77372   6.590   4.885  10.752 -0.6174 -0.8253 -0.2189
  587MOL0     C77373   6.485   4.773  10.736  0.5927  0.0471  0.2552
  587MOL0     C77374   6.363   4.795  10.828 -0.4048  0.4724 -0.4281
  587MOL0     C77375   6.257   4.896  10.771 -0.3118  0.5124  0.1333
  587MOL0     O77376   6.159   4.925  10.871 -0.9388 -0.3980  0.1049
  587MOL0     C77377   6.052   4.839  10.886  0.4770  0.1755 -0.1209
  587MOL0     C77378   6.009   4.726  10.808  0.6835 -0.1084 -0.3010
  587MOL0     C77379   5.887   4.664  10.824 -0.0997  0.3935  0.2438
  587MOL0     C77380   5.797   4.716  10.920 -1.0723 -0.6505  0.4600
  587MOL0     C77381   5.670   4.653  10.948  0.4953  0.8754  0.7910
  587MOL0     O77382   5.588   4.723  11.018  0.1288  0.3170  0.4786
  587MOL0     C77383   5.472   4.675  11.071  0.1738  0.6681 -0.9183
  587MOL0     C77384   5.375   4.766  11.115 -0.0823  0.5514  0.4885
  587MOL0     C77385   5.265   4.729  11.188 -0.1001 -0.1282 -0.1451
  587MOL0     C77386   5.235   4.590  11.214  0.8709  0.6605 -0.1800
  587MOL0     O77387   5.117   4.538  11.272 -0.5961 -0.6223  0.6279
  587MOL0     C77388   5.015   4.644  11.291 -0.4457 -0.6354  0.4595
  587MOL0     C77389   4.885   4.586  11.321  0.2247  0.0312  0.0052
  587MOL0     C77390   4.794   4.695  11.401  0.0249 -0.2654  0.6685
  587MOL0     C77391   4.649   4.663  11.426  0.0060 -0.0473  0.0398
  587MOL0     C77392   4.576   4.775  11.490  0.3364 -0.6235 -0.1249
  587MOL0     C77393   4.430   4.764  11.532  0.7421  0.3651 -0.4960
  587MOL0     C77394   4.394   4.878  11.621  0.0551 -0.5759  0.8608
  587MOL0     C77395   4.248   4.860  11.674 -0.1300  0.6741 -0.5759
  587MOL0    Cl77396   4.127   4.844  11.546  0.1259  0.3664  0.1008
  587MOL0     C77397   5.320   4.493  11.163 -0.5621 -0.0032  0.2881
  587MOL0     C77398   5.444   4.533  11.092  0.3793  0.2447  0.3616
  587MOL0     O77399   5.635   4.549  10.884 -0.1603 -0.0646 -0.2384
  587MOL0     C77400   5.838   4.830  10.996  0.8630 -0.5312  0.6107
  587MOL0     C77401   5.959   4.884  10.985  0.2126  0.6635  0.4817
  587MOL0     N77402   6.729   4.903  10.540 -0.1089 -0.5659  0.6757
  587MOL0     N77403   6.828   4.839  10.476 -0.3329 -0.3171 -0.0055
  587MOL0     C77404   7.912   5.333  10.777  0.0235  0.4544  0.0796
  587MOL0     C77405   8.028   5.371  10.839  0.1932  0.4044 -0.8658
  587MOL0     C77406   8.486   5.510  10.811  0.0622 -0.3848 -0.7246
  587MOL0     C77407   8.557   5.406  10.868  0.1991  0.1816  0.2749
  587MOL0     C77408   8.694   5.431  10.904 -0.3283 -0.1217 -0.3625
  587MOL0     C77409   8.756   5.551  10.882 -0.2881 -0.1030 -0.1410
  587MOL0     O77410   8.889   5.575  10.916  0.4444 -0.4041 -0.2004
  587MOL0     C77411   8.981   5.490  10.850 -0.0316 -0.4263 -0.2586
  587MOL0     C77412   9.091   5.465  10.948 -0.2067 -0.0149 -0.1533
  587MOL0     C77413   9.202   5.562  10.945 -0.1863 -0.1583 -0.5131
  587MOL0     C77414   9.317   5.523  11.039  0.0158  1.1207  0.1632
  587MOL0     C77415   9.415   5.623  11.073 -0.1017 -0.7257 -0.0005
  587MOL0     C77416   9.499   5.712  11.090  0.3757  0.7893 -0.0468
  587MOL0     C77417   8.686   5.649  10.819 -0.5599 -0.0371 -0.0565
  587MOL0     C77418   8.550   5.637  10.792 -0.0879 -0.2284 -0.0004
  587MOL0     H77419   8.251   5.268  10.597 -1.2158  0.2082 -0.9822
  587MOL0     H77420   8.045   5.190  10.493  1.4335 -2.6450  2.6095
  587MOL0     H77421   7.747   5.103  10.735  0.1507 -0.6852  0.1972
  587MOL0     H77422   7.803   5.025  10.580  2.3059  1.0456  0.8541
  587MOL0     H77423   7.582   5.178  10.499  3.4900  0.9339  0.3447
  587MOL0     H77424   7.546   5.171  10.672  0.7297  0.9706 -1.3121
  587MOL0     H77425   7.561   4.937  10.681 -0.9525 -0.9421  0.5460
  587MOL0     H77426   7.580   4.907  10.513 -0.7850 -0.4262  0.5794
  587MOL0     H77427   7.343   5.056  10.637 -1.6584 -1.5358  0.7679
  587MOL0     H77428   7.370   5.035  10.463  0.2050 -0.4376  0.3687
  587MOL0     H77429   7.352   4.805  10.664 -3.1917 -3.1342 -0.5717
  587MOL0     H77430   7.393   4.777  10.497 -0.7533 -2.4725  0.7485
  587MOL0     H77431   7.192   4.842  10.410 -2.0739 -0.6042 -0.7954
  587MOL0     H77432   7.126   4.900  10.565 -2.3504 -0.3593 -3.2815
  587MOL0     H77433   7.194   4.604  10.530  1.5595  0.3529 -2.2069
  587MOL0     H77434   7.139   4.690  10.671  1.2790  1.1814 -1.3302
  587MOL0     H77435   6.962   4.558  10.558  1.7183 -1.3355 -2.7007
  587MOL0     H77436   6.994   4.643  10.410  0.6365 -3.0099  0.1062
  587MOL0     H77437   6.811   4.677  10.758 -0.4761  0.7709  0.5707
  587MOL0     H77438   6.539   4.979  10.726 -1.2736 -1.0184  0.3549
  587MOL0     H77439   6.642   4.897  10.847 -4.2630  1.7391  1.6817
  587MOL0     H77440   6.526   4.675  10.760  0.8980 -0.0551 -0.6349
  587MOL0     H77441   6.459   4.783  10.630  1.9561 -0.8482 -0.1976
  587MOL0     H77442   6.303   4.707  10.854  0.7668  0.4936  2.8006
  587MOL0     H77443   6.411   4.839  10.916  1.1837  0.2745 -1.1675
  587MOL0     H77444   6.211   4.850  10.683 -0.9348  2.9596 -0.9098
  587MOL0     H77445   6.319   4.980  10.738 -1.2386  1.6447  1.1705
  587MOL0     H77446   6.075   4.696  10.727 -2.1113  1.3973 -3.4287
  587MOL0     H77447   5.861   4.579  10.761  0.1553  1.1673 -0.9465
  587MOL0     H77448   5.392   4.873  11.110 -1.8017  0.9847  2.5173
  587MOL0     H77449   5.204   4.811  11.226 -0.5993 -0.6284  0.1526
  587MOL0     H77450   5.000   4.699  11.198 -1.3399 -0.6252  0.6007
  587MOL0     H77451   5.045   4.720  11.364  0.4953 -1.2624  0.7427
  587MOL0     H77452   4.902   4.500  11.387 -0.1747 -0.5729 -0.6563
  587MOL0     H77453   4.826   4.549  11.237 -0.9633  2.0730 -0.1340
  587MOL0     H77454   4.789   4.780  11.332  1.5011 -1.1541 -0.5956
  587MOL0     H77455   4.848   4.725  11.492  2.3002  0.1300 -0.7383
  587MOL0     H77456   4.597   4.638  11.333  2.6737  0.1633 -1.6095
  587MOL0     H77457   4.634   4.583  11.499  0.6636  1.4199  1.8690
  587MOL0     H77458   4.583   4.861  11.423  0.9327 -0.1373  0.5401
  587MOL0     H77459   4.633   4.799  11.580 -0.7464 -0.7333  0.6077
  587MOL0     H77460   4.411   4.680  11.600  1.4141  0.3595 -0.3071
  587MOL0     H77461   4.372   4.754  11.440  2.7357 -1.8528 -1.6414
  587MOL0     H77462   4.451   4.872  11.714 -0.3901 -0.2929  1.1594
  587MOL0     H77463   4.411   4.969  11.563 -2.4882 -0.4178  0.2554
  587MOL0     H77464   4.223   4.948  11.734 -0.2375  1.5341 -1.8340
  587MOL0     H77465   4.244   4.772  11.738  1.9849  0.5552 -0.5236
  587MOL0     H77466   5.310   4.386  11.171  2.9897 -0.6680 -1.9200
  587MOL0     H77467   5.528   4.466  11.079  0.7484  0.2446  2.3928
  587MOL0     H77468   5.773   4.871  11.073  2.0840  0.1531  1.3221
  587MOL0     H77469   5.994   4.971  11.039  0.2120  1.5160 -0.8369
  587MOL0     H77470   7.814   5.348  10.819 -0.3418  0.7630 -0.8493
  587MOL0     H77471   8.033   5.409  10.940 -0.8706 -0.7516 -0.3547
  587MOL0     H77472   8.512   5.312  10.896  2.2333 -0.6012  1.1674
  587MOL0     H77473   8.763   5.371  10.964  0.7958  3.9724  2.8888
  587MOL0     H77474   9.018   5.538  10.759 -0.7002  1.2967  0.3490
  587MOL0     H77475   8.933   5.394  10.828 -1.7967  1.0002 -3.3012
  587MOL0     H77476   9.050   5.462  11.049  1.0763  2.3332  0.5125
  587MOL0     H77477   9.133   5.369  10.917 -0.0512 -0.5750  1.6922
  587MOL0     H77478   9.162   5.661  10.969 -0.6715 -0.6828  0.9651
  587MOL0     H77479   9.236   5.559  10.841 -0.9778 -0.0340 -0.7837
  587MOL0     H77480   9.269   5.499  11.134 -0.4103  1.1612 -0.0392
  587MOL0     H77481   9.370   5.435  11.001 -0.2694  1.4714 -1.0774
  587MOL0     H77482   9.573   5.787  11.110  1.7935 -0.5388 -0.1282
  587MOL0     H77483   8.729   5.743  10.787  0.9604 -0.3177  1.0205
  587MOL0     H77484   8.483   5.711  10.749 -2.6528 -2.9771 -1.1365
  588MOL0     O77485   8.860   4.039   3.566 -0.0375  0.1067  0.2434
  588MOL0     C77486   8.778   4.129   3.543 -0.0357  0.0848  0.1378
  588MOL0     O77487   8.647   4.125   3.584 -0.2634  0.3666 -0.1823
  588MOL0     C77488   8.587   4.017   3.653 -0.7170  0.0456  0.7477
  588MOL0     C77489   8.468   4.047   3.718 -0.3046  0.3441  0.4362
  588MOL0     C77490   8.388   3.959   3.789 -0.9000  0.9888  1.0557
  588MOL0     C77491   8.417   3.822   3.784  0.3986 -0.0990  0.1282
  588MOL0     O77492   8.349   3.725   3.860  0.3888  0.1368 -0.2070
  588MOL0     C77493   8.212   3.756   3.884  0.2398  0.3241 -0.6125
  588MOL0     C77494   8.148   3.617   3.908  1.0825 -0.0870 -0.4131
  588MOL0     C77495   7.994   3.626   3.894  0.5926  0.4554 -0.1035
  588MOL0     C77496   7.929   3.492   3.940  0.1656  0.1895 -0.4356
  588MOL0     C77497   7.777   3.512   3.951  0.1055 -0.1290  0.3633
  588MOL0     C77498   7.706   3.386   3.994  0.9288  0.8197  0.4685
  588MOL0     C77499   7.550   3.411   4.012 -0.1692  0.5108 -0.9253
  588MOL0     C77500   7.486   3.281   4.027  0.9531 -1.1843 -0.3989
  588MOL0     N77501   7.348   3.278   4.080 -0.0974  0.2281 -0.8030
  588MOL0     C77502   7.304   3.190   4.180 -0.5155  0.2116 -0.0526
  588MOL0     C77503   7.170   3.204   4.177 -0.0784 -0.7740  0.0648
  588MOL0     C77504   7.061   3.132   4.260  0.2073 -0.7170  0.3229
  588MOL0     C77505   6.963   3.205   4.348  0.4269  0.0679  0.5089
  588MOL0     C77506   7.029   3.258   4.484  0.1970 -0.3395  0.8019
  588MOL0     C77507   6.930   3.306   4.589 -0.0312 -0.3575 -0.4835
  588MOL0     O77508   6.819   3.387   4.534 -0.0789 -0.3289  0.0345
  588MOL0     C77509   6.700   3.385   4.602  0.7095 -0.1284  0.3796
  588MOL0     C77510   6.706   3.371   4.739 -0.0963 -1.0703 -0.5809
  588MOL0     C77511   6.588   3.388   4.822 -0.4966  0.2744 -0.1596
  588MOL0     C77512   6.465   3.413   4.758 -0.0550  0.6386 -0.0730
  588MOL0     C77513   6.347   3.419   4.851 -0.3032  0.1733 -0.6967
  588MOL0     O77514   6.369   3.435   4.989  0.3559  0.0355 -0.3591
  588MOL0     C77515   6.251   3.398   5.065  0.9020 -0.2462  0.0065
  588MOL0     C77516   6.131   3.463   5.072  0.6633 -0.8127 -0.3306
  588MOL0     C77517   6.021   3.407   5.146  0.2372 -0.2588 -0.1802
  588MOL0     C77518   6.018   3.275   5.187  0.4493 -0.2829  0.4796
  588MOL0     O77519   5.895   3.227   5.227  0.0291 -0.3206 -0.0656
  588MOL0     C77520   5.896   3.101   5.308 -0.7896 -0.2427  0.7854
  588MOL0     C77521   5.762   3.077   5.371 -0.4672  0.5539  0.5041
  588MOL0     C77522   5.741   3.178   5.483 -0.0060  0.5642  0.1594
  588MOL0     C77523   5.605   3.184   5.534  0.1782  0.5062  0.5274
  588MOL0     C77524   5.548   3.060   5.608  0.2461  0.6483 -0.2354
  588MOL0     C77525   5.393   3.083   5.638  0.3659  0.5254 -0.3054
  588MOL0     C77526   5.311   3.129   5.516 -0.1198  0.6459  0.5469
  588MOL0     C77527   5.162   3.119   5.538  0.0127 -0.7951  0.3758
  588MOL0    Cl77528   5.135   2.944   5.548 -0.1837 -0.0702 -0.1505
  588MOL0     C77529   6.141   3.211   5.189  0.3025 -0.0737  0.6230
  588MOL0     C77530   6.259   3.266   5.133  0.0863 -0.0428 -0.7365
  588MOL0     O77531   6.234   3.399   4.798  0.1290 -0.5334 -0.5409
  588MOL0     C77532   6.458   3.405   4.624 -0.6319 -0.2918  0.1180
  588MOL0     C77533   6.571   3.398   4.547 -0.7557 -0.2278  0.6155
  588MOL0     N77534   7.141   3.308   4.090  0.6358  0.4220 -0.6399
  588MOL0     N77535   7.247   3.350   4.037 -0.0987 -1.2445  0.8156
  588MOL0     C77536   8.535   3.790   3.714  0.1281 -0.5564 -0.5204
  588MOL0     C77537   8.618   3.880   3.655  0.5986  0.0597  0.3867
  588MOL0     C77538   8.814   4.254   3.467  0.1585  0.0440  0.0305
  588MOL0     C77539   8.937   4.267   3.400  0.5527  0.4038 -0.6425
  588MOL0     C77540   8.981   4.383   3.340  0.3764 -0.2423 -0.6469
  588MOL0     C77541   8.907   4.499   3.343 -0.4715  0.5638 -0.0757
  588MOL0     O77542   8.959   4.614   3.285 -0.2793  0.5381 -0.5840
  588MOL0     C77543   8.884   4.739   3.293 -0.4031  0.1483  0.8022
  588MOL0     C77544   8.980   4.844   3.244 -0.5593  0.4434 -0.4949
  588MOL0     C77545   8.963   4.900   3.098  0.8930  0.0008 -0.6334
  588MOL0     C77546   9.015   4.797   2.997 -0.1181  0.1725 -0.1986
  588MOL0     C77547   9.166   4.793   2.992  0.5516 -0.3867 -0.0072
  588MOL0     C77548   9.290   4.787   2.980 -0.4023  0.2845 -0.8789
  588MOL0     C77549   8.777   4.486   3.393 -0.1269 -0.2321  0.3033
  588MOL0     C77550   8.724   4.372   3.453  0.1897  0.0610  0.6006
  588MOL0     H77551   8.431   4.149   3.716 -0.3350  0.4296 -3.7107
  588MOL0     H77552   8.307   3.997   3.850 -2.4157  0.2113 -0.3744
  588MOL0     H77553   8.169   3.803   3.795 -0.3789  3.2745  1.1056
  588MOL0     H77554   8.196   3.819   3.972  3.8895  0.2030  0.2747
  588MOL0     H77555   8.171   3.561   3.999 -3.3552 -3.2760 -0.8996
  588MOL0     H77556   8.180   3.546   3.830 -1.0819 -2.6710  0.8703
  588MOL0     H77557   7.967   3.653   3.792  0.5679 -0.1206 -0.2541
  588MOL0     H77558   7.946   3.699   3.960  0.0494  1.4145 -1.5196
  588MOL0     H77559   7.959   3.410   3.874  1.4419  1.3807 -1.3809
  588MOL0     H77560   7.958   3.462   4.042  0.1537 -2.8571 -1.2232
  588MOL0     H77561   7.746   3.541   3.850  0.0177  2.0483  0.9647
  588MOL0     H77562   7.747   3.598   4.011  1.9928 -0.4977  1.9390
  588MOL0     H77563   7.757   3.345   4.081  3.2016  2.7489  0.1597
  588MOL0     H77564   7.710   3.303   3.923 -3.3837  0.7817  0.0059
  588MOL0     H77565   7.546   3.468   4.105  0.9405 -2.4172  1.0642
  588MOL0     H77566   7.510   3.473   3.931  0.4579  0.9952 -0.8698
  588MOL0     H77567   7.543   3.229   4.105 -0.1646 -0.7205  0.7729
  588MOL0     H77568   7.500   3.221   3.937  3.0185 -0.3533 -0.6997
  588MOL0     H77569   7.353   3.117   4.243  1.7166 -0.6679 -2.5871
  588MOL0     H77570   7.109   3.060   4.327 -1.1913 -1.3351  0.7042
  588MOL0     H77571   7.001   3.073   4.189 -1.3721  1.3223 -0.1060
  588MOL0     H77572   6.879   3.137   4.364  0.1042  0.5138  0.7246
  588MOL0     H77573   6.922   3.293   4.298 -3.8043 -1.5451  0.7255
  588MOL0     H77574   7.087   3.180   4.534  1.6093  0.3135  0.2399
  588MOL0     H77575   7.102   3.333   4.451  0.2283 -1.2905 -1.5193
  588MOL0     H77576   6.988   3.366   4.660  0.7283  1.5780 -2.6031
  588MOL0     H77577   6.885   3.216   4.633 -3.1595  0.5480 -1.6002
  588MOL0     H77578   6.798   3.362   4.796  1.6698 -1.0298 -3.2569
  588MOL0     H77579   6.610   3.402   4.927  3.3343 -1.5149 -0.5286
  588MOL0     H77580   6.136   3.559   5.023  2.9880 -0.0776  1.1554
  588MOL0     H77581   5.929   3.461   5.168  0.6991  1.1946 -1.5949
  588MOL0     H77582   5.960   3.103   5.397 -1.1493 -4.4418  1.3856
  588MOL0     H77583   5.931   3.014   5.251 -1.6778  0.8020 -1.4348
  588MOL0     H77584   5.747   2.977   5.412 -0.6507  1.1074  1.8434
  588MOL0     H77585   5.673   3.101   5.313 -1.9060  0.5894  2.6296
  588MOL0     H77586   5.769   3.273   5.437  1.0050  0.2232  0.0520
  588MOL0     H77587   5.818   3.147   5.555  0.1193 -1.8687 -0.9260
  588MOL0     H77588   5.596   3.260   5.612  2.2210  1.3024  0.0690
  588MOL0     H77589   5.549   3.201   5.442  1.5550 -1.0802 -0.6697
  588MOL0     H77590   5.603   3.053   5.702 -1.9329  0.3487  1.0794
  588MOL0     H77591   5.565   2.967   5.553  1.6748  0.7183  0.0464
  588MOL0     H77592   5.385   3.147   5.726 -1.3691 -0.9094  0.6468
  588MOL0     H77593   5.348   2.994   5.684 -2.0736  3.0597  2.7322
  588MOL0     H77594   5.343   3.231   5.490  1.0250 -0.2983 -2.0904
  588MOL0     H77595   5.345   3.076   5.427 -2.2839  2.7578 -1.7129
  588MOL0     H77596   5.115   3.166   5.450 -1.4783 -1.2283  0.9162
  588MOL0     H77597   5.124   3.183   5.618 -1.4569  0.1850 -1.0267
  588MOL0     H77598   6.149   3.106   5.217 -2.8984 -0.6176 -0.0422
  588MOL0     H77599   6.346   3.202   5.135  0.4570  0.4194  1.7652
  588MOL0     H77600   6.360   3.401   4.577 -0.8118  3.4640 -0.1674
  588MOL0     H77601   6.555   3.389   4.440  1.1161  2.2382  0.0230
  588MOL0     H77602   8.561   3.685   3.725 -0.1732 -0.6502 -0.6917
  588MOL0     H77603   8.704   3.843   3.599  0.0834  1.2886 -1.3186
  588MOL0     H77604   9.004   4.181   3.406  0.2781  0.2656  3.6769
  588MOL0     H77605   9.082   4.379   3.298  1.1183  1.3380  0.8863
  588MOL0     H77606   8.849   4.742   3.396 -1.5384 -0.1597  0.4317
  588MOL0     H77607   8.796   4.737   3.229  0.2927  0.4765 -0.2021
  588MOL0     H77608   8.963   4.920   3.321  3.0788  0.9507  0.0159
  588MOL0     H77609   9.084   4.814   3.261 -0.1176  1.6079 -0.9614
  588MOL0     H77610   9.009   4.999   3.105  0.9399 -0.1260  1.2774
  588MOL0     H77611   8.859   4.928   3.076  1.2397  0.1443 -2.2609
  588MOL0     H77612   8.982   4.700   3.035  1.6263  0.4531  2.2635
  588MOL0     H77613   8.987   4.820   2.893  0.8524  0.4696 -0.4143
  588MOL0     H77614   9.396   4.773   2.968 -0.7212 -3.2303 -0.6698
  588MOL0     H77615   8.723   4.581   3.391  0.6845  0.2931  1.9216
  588MOL0     H77616   8.622   4.373   3.489  0.3120 -0.1119  0.9681
  589MOL0     O77617   0.594   4.471   0.610 -0.3089 -0.3618  0.1981
  589MOL0     C77618   0.658   4.380   0.657 -0.0034  0.0314 -0.0122
  589MOL0     O77619   0.608   4.284   0.741  0.3517 -1.1515 -0.1580
  589MOL0     C77620   0.488   4.303   0.795 -0.0489 -0.2260 -0.6705
  589MOL0     C77621   0.474   4.346   0.929  0.2529  0.4941 -0.5553
  589MOL0     C77622   0.348   4.353   0.987  0.2528 -0.1966 -0.1611
  589MOL0     C77623   0.233   4.317   0.919  0.0453 -0.4822  0.0318
  589MOL0     O77624   0.112   4.333   0.984 -1.0894  0.1270  0.5534
  589MOL0     C77625   0.051   4.213   1.027  0.9212 -0.8595  0.1841
  589MOL0     C77626  -0.080   4.185   0.947  0.3847  0.1511  0.6197
  589MOL0     C77627  -0.199   4.149   1.035 -0.3755  0.8415 -0.6624
  589MOL0     C77628  -0.332   4.127   0.961 -0.1609 -0.7094  0.1099
  589MOL0     C77629  -0.445   4.108   1.061 -0.1211 -0.7760  0.6097
  589MOL0     C77630  -0.577   4.149   0.987 -0.9720 -0.2274 -0.2273
  589MOL0     C77631  -0.698   4.086   1.045  0.7429 -0.0859  0.6349
  589MOL0     C77632  -0.709   3.939   0.986 -0.2703 -0.5780  0.3717
  589MOL0     N77633  -0.828   3.863   1.029  0.5820  0.4253  0.0654
  589MOL0     C77634  -0.949   3.920   1.043  0.5486 -0.3376 -0.1118
  589MOL0     C77635  -1.040   3.822   1.067  0.1141  0.4351 -0.9846
  589MOL0     C77636  -1.183   3.838   1.095  0.4741 -1.0179 -0.1699
  589MOL0     C77637  -1.208   3.874   1.239 -0.0595 -0.5398 -0.5796
  589MOL0     C77638  -1.356   3.860   1.267 -0.1422 -0.3023 -0.1036
  589MOL0     C77639  -1.437   3.969   1.200 -0.8167 -1.1173  0.1658
  589MOL0     O77640  -1.413   4.095   1.255  0.2152 -0.5509  0.1205
  589MOL0     C77641  -1.525   4.150   1.308 -0.0782  1.2961  0.0079
  589MOL0     C77642  -1.571   4.120   1.432  0.2021  0.0231  0.6053
  589MOL0     C77643  -1.681   4.203   1.473 -0.6683  0.4815 -0.3603
  589MOL0     C77644  -1.739   4.306   1.390  0.4355  0.0426 -0.6794
  589MOL0     C77645  -1.849   4.391   1.440  0.3862 -0.0286 -0.2505
  589MOL0     O77646  -1.908   4.333   1.556  0.1739 -0.6451 -0.4620
  589MOL0     C77647  -2.013   4.403   1.611 -0.1790  0.7064 -0.2687
  589MOL0     C77648  -2.143   4.342   1.623  0.0952 -0.2415  0.1122
  589MOL0     C77649  -2.241   4.405   1.699 -0.0920  0.3297 -0.2953
  589MOL0     C77650  -2.200   4.511   1.780  0.1447 -0.1849 -0.2192
  589MOL0     O77651  -2.281   4.558   1.884  0.1841 -0.1935  0.1994
  589MOL0     C77652  -2.417   4.552   1.876  0.1144  0.5226 -0.3031
  589MOL0     C77653  -2.482   4.658   1.790 -0.8254  0.4421  0.6331
  589MOL0     C77654  -2.469   4.797   1.847 -0.4212  0.0583  0.3084
  589MOL0     C77655  -2.547   4.894   1.762 -0.6336 -0.1982 -0.2405
  589MOL0     C77656  -2.530   5.044   1.813  0.1606 -0.5507  0.4313
  589MOL0     C77657  -2.563   5.072   1.961 -0.3670  0.6257  0.7220
  589MOL0     C77658  -2.715   5.047   1.990  0.0253 -0.0621 -0.0608
  589MOL0     C77659  -2.761   5.139   2.104  0.0553  0.7156  0.0739
  589MOL0    Cl77660  -2.943   5.124   2.143 -0.0763  0.3579 -0.5302
  589MOL0     C77661  -2.073   4.568   1.773  0.9326  0.5996  0.2439
  589MOL0     C77662  -1.977   4.512   1.686 -0.0054  0.2448  0.2113
  589MOL0     O77663  -1.882   4.489   1.382  0.8119  0.5925 -0.3915
  589MOL0     C77664  -1.681   4.330   1.263  0.1046 -0.3159  0.3425
  589MOL0     C77665  -1.577   4.256   1.225 -0.1171 -0.3898 -0.7158
  589MOL0     N77666  -0.966   3.703   1.061 -0.0079  0.0549 -0.3911
  589MOL0     N77667  -0.840   3.730   1.036 -0.4446 -0.6506 -0.2684
  589MOL0     C77668   0.243   4.274   0.782 -0.6232 -0.2628 -0.3585
  589MOL0     C77669   0.375   4.260   0.728 -0.3158 -0.7296  0.5669
  589MOL0     C77670   0.801   4.373   0.625 -0.0068 -0.1560 -0.9556
  589MOL0     C77671   0.883   4.274   0.692  0.6530 -0.4003  0.6683
  589MOL0     C77672   1.018   4.280   0.669 -0.0459  0.3475  0.2581
  589MOL0     C77673   1.080   4.389   0.590  0.3575 -0.2644 -0.4362
  589MOL0     O77674   1.217   4.420   0.593  0.1121 -0.9834 -0.2775
  589MOL0     C77675   1.309   4.320   0.633  0.6658 -0.2224  0.0574
  589MOL0     C77676   1.445   4.385   0.656  0.7457  0.6321  0.1095
  589MOL0     C77677   1.507   4.457   0.530  0.6307 -0.4585  0.7183
  589MOL0     C77678   1.632   4.546   0.567  0.6229 -0.0806  0.2487
  589MOL0     C77679   1.758   4.484   0.586  0.8279  0.5161  0.0979
  589MOL0     C77680   1.858   4.423   0.628  0.4926  0.1866  0.1881
  589MOL0     C77681   0.995   4.479   0.527  0.2458 -0.0338  0.6209
  589MOL0     C77682   0.855   4.468   0.549 -0.1506 -0.0678 -0.2668
  589MOL0     H77683   0.567   4.366   0.982 -0.1556  2.9865 -0.6703
  589MOL0     H77684   0.343   4.388   1.089  0.7116 -1.7618  0.4205
  589MOL0     H77685   0.017   4.225   1.130  0.4113 -2.7811  0.2801
  589MOL0     H77686   0.123   4.131   1.025  2.0920  0.1483 -0.8776
  589MOL0     H77687  -0.067   4.097   0.884  0.7153  0.4267  0.3027
  589MOL0     H77688  -0.117   4.271   0.891 -0.6018  0.3346  1.5062
  589MOL0     H77689  -0.216   4.231   1.106 -1.8729 -0.8924  1.0982
  589MOL0     H77690  -0.169   4.055   1.081 -1.1852 -0.3628 -2.4629
  589MOL0     H77691  -0.344   4.214   0.897  0.2826  0.6189  1.7594
  589MOL0     H77692  -0.323   4.040   0.896 -1.8720 -0.7892 -0.0668
  589MOL0     H77693  -0.438   4.181   1.141 -1.9435  0.5684 -0.3706
  589MOL0     H77694  -0.445   4.004   1.094  0.5457 -1.5209 -1.5332
  589MOL0     H77695  -0.566   4.132   0.879  3.2226 -0.4394  0.0650
  589MOL0     H77696  -0.597   4.256   0.995 -4.1831 -0.6888 -0.7034
  589MOL0     H77697  -0.698   4.098   1.154 -3.5550  1.9469  0.6104
  589MOL0     H77698  -0.788   4.139   1.012  0.0390 -0.3997  1.9807
  589MOL0     H77699  -0.622   3.881   1.017 -1.9496 -2.7885  1.2017
  589MOL0     H77700  -0.705   3.939   0.876  0.2449 -1.9098  0.3690
  589MOL0     H77701  -0.981   4.024   1.044 -1.5518 -0.9375 -0.3148
  589MOL0     H77702  -1.235   3.744   1.074 -0.5105 -0.7898  1.0552
  589MOL0     H77703  -1.216   3.920   1.031  2.6039 -0.1213 -0.2142
  589MOL0     H77704  -1.161   3.968   1.270  1.3924 -1.3221 -0.2926
  589MOL0     H77705  -1.148   3.805   1.298 -0.8589 -0.2768  0.5675
  589MOL0     H77706  -1.394   3.762   1.237  1.1241 -1.6392  2.3947
  589MOL0     H77707  -1.362   3.880   1.374  0.4615  3.3211 -0.5978
  589MOL0     H77708  -1.545   3.951   1.194 -1.3238  1.8087 -2.2188
  589MOL0     H77709  -1.410   3.989   1.096 -0.2345 -1.1248  0.3118
  589MOL0     H77710  -1.514   4.052   1.495  0.4523  0.0578  0.4202
  589MOL0     H77711  -1.716   4.191   1.575 -0.4393 -0.0088 -0.3391
  589MOL0     H77712  -2.153   4.239   1.588 -0.3424 -0.7770  1.7274
  589MOL0     H77713  -2.334   4.348   1.703 -0.9148  1.5897 -0.8669
  589MOL0     H77714  -2.451   4.559   1.980  2.8218 -2.5269  0.9483
  589MOL0     H77715  -2.442   4.451   1.844 -4.5318  0.9301  1.2905
  589MOL0     H77716  -2.587   4.631   1.775 -0.4373  0.1924 -2.3747
  589MOL0     H77717  -2.454   4.651   1.684 -3.3677 -1.0642 -0.0304
  589MOL0     H77718  -2.365   4.833   1.849 -1.0042  1.9476 -0.8460
  589MOL0     H77719  -2.515   4.787   1.946  0.1331 -2.4404  0.3833
  589MOL0     H77720  -2.503   4.890   1.662 -6.3506  1.2683 -3.2778
  589MOL0     H77721  -2.652   4.867   1.743  0.0419 -2.1211 -1.5737
  589MOL0     H77722  -2.582   5.118   1.751  0.9694 -1.5946 -1.5694
  589MOL0     H77723  -2.424   5.070   1.804 -0.3850  2.6198  1.9140
  589MOL0     H77724  -2.525   5.171   1.985  0.2660  0.0055  2.4757
  589MOL0     H77725  -2.513   5.005   2.032 -3.0119  0.1447  2.2973
  589MOL0     H77726  -2.769   5.063   1.896 -0.2208  0.2578  0.1351
  589MOL0     H77727  -2.710   4.945   2.029  3.6987 -0.4116 -1.0708
  589MOL0     H77728  -2.750   5.247   2.089  0.1521  1.0446  2.2121
  589MOL0     H77729  -2.705   5.110   2.193 -0.4887 -0.7122 -0.0253
  589MOL0     H77730  -2.039   4.634   1.852 -0.4559  0.6311  0.8442
  589MOL0     H77731  -1.876   4.550   1.701 -0.8303  1.8132  2.3018
  589MOL0     H77732  -1.734   4.393   1.192 -0.2544  0.2429  1.0946
  589MOL0     H77733  -1.527   4.273   1.130 -1.5914 -1.3063 -1.6957
  589MOL0     H77734   0.155   4.248   0.724 -1.1805 -0.2383  0.4660
  589MOL0     H77735   0.378   4.228   0.624  0.6586  1.3261 -0.0874
  589MOL0     H77736   0.835   4.201   0.756 -1.8737  2.0151  1.7423
  589MOL0     H77737   1.070   4.196   0.715  1.0439  1.1645  0.5524
  589MOL0     H77738   1.315   4.240   0.559  2.5443 -2.1307  2.1129
  589MOL0     H77739   1.273   4.281   0.729 -1.7318  1.9940  0.1834
  589MOL0     H77740   1.430   4.457   0.738  0.8809 -0.5517  1.1965
  589MOL0     H77741   1.509   4.299   0.676 -1.6903 -1.6476 -1.2747
  589MOL0     H77742   1.431   4.522   0.485 -0.0159 -1.2957  0.5689
  589MOL0     H77743   1.543   4.383   0.458  3.8731  1.9848 -0.4145
  589MOL0     H77744   1.648   4.630   0.500  2.2019  0.0082  0.6892
  589MOL0     H77745   1.601   4.601   0.657 -2.4686 -0.1283 -0.6662
  589MOL0     H77746   1.943   4.379   0.675 -0.3187  0.1900  1.7086
  589MOL0     H77747   1.044   4.571   0.496  1.3831 -1.4670 -2.1483
  589MOL0     H77748   0.797   4.546   0.501 -1.2957 -1.9767 -2.1958
  590MOL0     O77749   8.321   5.149   6.692  0.2375  0.1879  0.6564
  590MOL0     C77750   8.352   5.048   6.763 -0.5027 -1.0916 -0.2974
  590MOL0     O77751   8.260   4.957   6.811 -0.1487  0.8456 -0.8143
  590MOL0     C77752   8.132   4.985   6.826  0.8590 -0.8265 -0.6834
  590MOL0     C77753   8.055   4.876   6.848  0.4331 -0.0172  0.4186
  590MOL0     C77754   7.918   4.891   6.863  0.4104 -0.1722 -0.0704
  590MOL0     C77755   7.855   5.014   6.844  0.0250 -0.3121  0.7620
  590MOL0     O77756   7.718   5.014   6.846 -0.3794  0.8812  0.3998
  590MOL0     C77757   7.650   5.144   6.828  0.1939 -0.7074  0.0704
  590MOL0     C77758   7.494   5.120   6.841  0.4498 -0.4291 -0.2460
  590MOL0     C77759   7.438   5.008   6.755 -0.1944 -0.3444 -0.7137
  590MOL0     C77760   7.492   5.010   6.607  0.8403  0.0651 -0.7528
  590MOL0     C77761   7.419   4.893   6.534  0.6398  0.8179  0.0494
  590MOL0     C77762   7.278   4.926   6.472 -0.1102  0.6208 -0.3218
  590MOL0     C77763   7.202   4.804   6.417  0.0766  0.6741 -0.6451
  590MOL0     C77764   7.084   4.830   6.319  0.3734  0.6169 -0.4928
  590MOL0     N77765   6.972   4.901   6.396  0.0151  0.9871  0.3310
  590MOL0     C77766   6.842   4.883   6.360 -0.1996 -0.2432  0.3175
  590MOL0     C77767   6.768   4.995   6.395 -0.5455 -0.7984 -0.2738
  590MOL0     C77768   6.623   5.003   6.371  0.3278  0.4314 -0.3863
  590MOL0     C77769   6.537   4.948   6.484  0.1102  0.7377  0.0367
  590MOL0     C77770   6.385   4.939   6.435 -0.3278  0.6870 -0.1395
  590MOL0     C77771   6.302   4.876   6.553  0.2291 -0.4046 -0.3587
  590MOL0     O77772   6.159   4.882   6.533 -0.4163  0.6431  0.6326
  590MOL0     C77773   6.095   4.773   6.480  0.3512 -1.0118  0.2019
  590MOL0     C77774   6.144   4.642   6.464 -0.0761  0.1222 -0.8784
  590MOL0     C77775   6.057   4.548   6.409 -0.2686  0.9846  0.4102
  590MOL0     C77776   5.935   4.576   6.361  0.3350  0.0948  0.0741
  590MOL0     C77777   5.852   4.474   6.292  0.8526 -0.1644 -0.0031
  590MOL0     O77778   5.744   4.522   6.216 -0.6420 -0.4698 -0.4136
  590MOL0     C77779   5.671   4.431   6.139  0.3008 -0.3700  1.0838
  590MOL0     C77780   5.545   4.464   6.100  0.2180 -0.1350 -0.3032
  590MOL0     C77781   5.460   4.379   6.032  0.2228  0.6656 -0.2574
  590MOL0     C77782   5.504   4.257   5.981 -0.1320 -0.2898  0.4214
  590MOL0     O77783   5.412   4.189   5.915 -0.1386  0.6193  1.2972
  590MOL0     C77784   5.437   4.064   5.843  0.0611 -1.6063  0.8354
  590MOL0     C77785   5.324   4.049   5.745  0.1214  0.4332  0.3930
  590MOL0     C77786   5.321   4.177   5.647 -0.5348 -0.0880 -0.4851
  590MOL0     C77787   5.201   4.175   5.558  1.1044  0.3810  0.1789
  590MOL0     C77788   5.181   4.288   5.464  0.0696 -0.2013  0.8397
  590MOL0     C77789   5.181   4.429   5.527  0.2438  0.6582  0.7192
  590MOL0     C77790   5.075   4.441   5.637  0.1706 -0.0576  0.0611
  590MOL0     C77791   5.031   4.586   5.654 -1.0737 -0.5308  0.2196
  590MOL0    Cl77792   4.913   4.640   5.533 -0.3713  0.1351  0.2366
  590MOL0     C77793   5.636   4.227   6.012  0.8048  0.1591 -0.1692
  590MOL0     C77794   5.712   4.309   6.088 -0.0861  0.1569 -0.2730
  590MOL0     O77795   5.889   4.351   6.305  0.2879 -0.5967 -0.6085
  590MOL0     C77796   5.880   4.700   6.389  0.0908 -0.3223  0.1496
  590MOL0     C77797   5.963   4.794   6.448  0.3027 -0.1624 -0.0045
  590MOL0     N77798   6.861   5.084   6.451 -0.1508 -0.0131  0.4659
  590MOL0     N77799   6.976   5.020   6.452 -0.6244 -0.5740 -0.7120
  590MOL0     C77800   7.935   5.130   6.837 -0.0328  0.7105 -0.8072
  590MOL0     C77801   8.075   5.114   6.828 -0.8922  0.4408  0.1154
  590MOL0     C77802   8.495   5.024   6.782 -0.1712 -0.3571  0.5521
  590MOL0     C77803   8.591   5.109   6.722 -0.2255  0.8024  0.1914
  590MOL0     C77804   8.729   5.078   6.727 -0.0892 -0.6997  0.5638
  590MOL0     C77805   8.770   4.962   6.784  0.6800  1.6727 -0.0398
  590MOL0     O77806   8.905   4.917   6.784  0.4947 -0.4051  0.2730
  590MOL0     C77807   9.005   5.003   6.729 -1.2308 -0.2268 -0.5905
  590MOL0     C77808   9.057   5.095   6.840 -0.5357 -0.4303 -0.0844
  590MOL0     C77809   9.186   5.160   6.790 -1.2538  0.1975 -0.2527
  590MOL0     C77810   9.289   5.213   6.892 -0.1204 -0.6777  0.7956
  590MOL0     C77811   9.249   5.336   6.959  0.4116 -0.6441 -0.6896
  590MOL0     C77812   9.219   5.430   7.024  0.4240  0.5612  0.2395
  590MOL0     C77813   8.677   4.871   6.841 -0.0144  0.0594 -0.2764
  590MOL0     C77814   8.544   4.910   6.836  0.4916 -0.0797 -0.0767
  590MOL0     H77815   8.098   4.776   6.846  2.3125  0.7630 -0.8432
  590MOL0     H77816   7.860   4.804   6.891  3.4073 -2.2079  0.3318
  590MOL0     H77817   7.665   5.180   6.726  1.8546  1.1442  0.9011
  590MOL0     H77818   7.678   5.223   6.898 -1.1439 -1.5103  1.5823
  590MOL0     H77819   7.445   5.217   6.829  1.9294  0.2945 -0.6382
  590MOL0     H77820   7.476   5.097   6.946 -1.6958 -0.6295 -0.5999
  590MOL0     H77821   7.329   5.012   6.763 -0.0340  0.9622  1.9896
  590MOL0     H77822   7.459   4.914   6.807 -1.0507 -0.4821 -0.6104
  590MOL0     H77823   7.483   5.110   6.564 -1.1889  0.6729  0.9351
  590MOL0     H77824   7.600   4.993   6.601  1.0071  0.2278  1.2973
  590MOL0     H77825   7.412   4.813   6.607  3.7486  1.1052  0.8131
  590MOL0     H77826   7.486   4.858   6.455  2.5860 -0.2181  2.0476
  590MOL0     H77827   7.291   4.986   6.381  1.2440 -0.2067 -0.6918
  590MOL0     H77828   7.212   4.977   6.543 -1.2823 -0.4825 -0.5774
  590MOL0     H77829   7.272   4.742   6.360 -0.1909  1.1706 -1.5412
  590MOL0     H77830   7.171   4.757   6.510  0.8522  3.0831  0.9268
  590MOL0     H77831   7.045   4.743   6.264  2.4355 -0.5404 -0.2275
  590MOL0     H77832   7.119   4.885   6.231 -0.4504 -1.6729 -2.3588
  590MOL0     H77833   6.795   4.796   6.315 -0.9092 -0.1822  0.9236
  590MOL0     H77834   6.595   4.974   6.269  0.1296  1.3412 -0.5935
  590MOL0     H77835   6.598   5.109   6.365 -0.2329  0.3799  0.8241
  590MOL0     H77836   6.537   5.002   6.579 -0.1786  1.6030 -0.4385
  590MOL0     H77837   6.571   4.845   6.500  1.1135  1.3191  1.9816
  590MOL0     H77838   6.351   5.041   6.416  1.4325  1.8439  2.3369
  590MOL0     H77839   6.380   4.875   6.347 -2.7326 -0.3525  0.6730
  590MOL0     H77840   6.323   4.937   6.641  0.1259 -0.5554 -0.2263
  590MOL0     H77841   6.331   4.775   6.586  2.2714  0.3467  0.2321
  590MOL0     H77842   6.243   4.615   6.499 -1.3446 -3.3868  0.4379
  590MOL0     H77843   6.110   4.454   6.392  0.5445  1.6258 -0.7544
  590MOL0     H77844   5.502   4.558   6.135 -0.3355  0.1944 -1.7612
  590MOL0     H77845   5.357   4.410   6.014  0.6958  2.3016 -0.3088
  590MOL0     H77846   5.442   3.977   5.909 -2.5197 -1.9585  0.6833
  590MOL0     H77847   5.525   4.075   5.779 -1.5776  0.6835 -1.2194
  590MOL0     H77848   5.235   4.039   5.809  0.1242 -0.3618  0.2896
  590MOL0     H77849   5.329   3.952   5.694 -2.8466  0.2201  0.3382
  590MOL0     H77850   5.405   4.184   5.577 -0.5650  0.8642 -0.4419
  590MOL0     H77851   5.320   4.266   5.712  1.3298  1.1558 -2.0422
  590MOL0     H77852   5.194   4.081   5.503  0.4239 -0.2034  1.2357
  590MOL0     H77853   5.114   4.161   5.623  1.0682  2.1138  0.5435
  590MOL0     H77854   5.084   4.272   5.415  1.5764 -3.2212 -1.5227
  590MOL0     H77855   5.265   4.287   5.394 -0.7557 -2.0619 -0.2105
  590MOL0     H77856   5.167   4.498   5.443 -0.6161 -1.4961 -1.0164
  590MOL0     H77857   5.275   4.457   5.576  1.9216  1.1162 -2.4385
  590MOL0     H77858   4.984   4.385   5.614  0.9707 -0.5962 -2.0257
  590MOL0     H77859   5.112   4.402   5.732 -1.2567 -0.0846  0.6252
  590MOL0     H77860   5.118   4.653   5.658 -0.6284 -1.1828  2.3750
  590MOL0     H77861   4.976   4.589   5.748 -1.0413  0.9150  0.2251
  590MOL0     H77862   5.680   4.137   5.971 -0.6905 -1.5109  1.6766
  590MOL0     H77863   5.816   4.277   6.098 -0.0100  0.8064  1.2990
  590MOL0     H77864   5.782   4.722   6.347 -0.0386  0.4994  0.8479
  590MOL0     H77865   5.915   4.892   6.449  0.7284  0.0535 -0.4527
  590MOL0     H77866   7.886   5.227   6.826 -1.0589 -0.0413 -3.7701
  590MOL0     H77867   8.132   5.206   6.817  0.6259  0.1436  4.0392
  590MOL0     H77868   8.550   5.198   6.675 -1.7599  0.7655  1.3636
  590MOL0     H77869   8.804   5.145   6.685 -1.3585  0.4290  0.0252
  590MOL0     H77870   8.989   5.061   6.638  1.9512  0.3039 -0.9394
  590MOL0     H77871   9.089   4.937   6.705 -1.4876 -1.1999  1.0133
  590MOL0     H77872   8.986   5.169   6.879  2.4130  1.8012  1.4459
  590MOL0     H77873   9.076   5.031   6.927  2.6363  3.0736  2.1061
  590MOL0     H77874   9.158   5.248   6.731 -0.3718  0.1437 -0.7645
  590MOL0     H77875   9.246   5.102   6.719 -1.3094  2.1082 -1.9716
  590MOL0     H77876   9.297   5.139   6.972 -0.4576 -2.6535 -0.9119
  590MOL0     H77877   9.385   5.231   6.843 -0.3043  4.6592  1.7377
  590MOL0     H77878   9.198   5.522   7.073 -0.6696 -0.2152  1.2700
  590MOL0     H77879   8.720   4.786   6.892 -0.8000  1.8359  3.7218
  590MOL0     H77880   8.473   4.832   6.860  1.1761 -1.0176 -1.0040
  591MOL0     O77881   3.569  11.165   2.218  0.4505  0.3948  0.3306
  591MOL0     C77882   3.641  11.071   2.254 -0.3519  1.2204  0.2501
  591MOL0     O77883   3.605  10.936   2.267 -0.7543 -0.0910 -0.1380
  591MOL0     C77884   3.478  10.904   2.243 -0.6823 -0.5447  0.3424
  591MOL0     C77885   3.397  10.951   2.131 -0.9768  0.1295  0.5949
  591MOL0     C77886   3.268  10.907   2.126 -0.3032 -0.5830 -0.4209
  591MOL0     C77887   3.216  10.817   2.218  1.1192 -0.0945  0.0232
  591MOL0     O77888   3.079  10.780   2.215 -0.1089  0.0854  0.4354
  591MOL0     C77889   3.020  10.747   2.088 -0.0082  0.3208  0.3202
  591MOL0     C77890   2.909  10.643   2.107  0.3104 -0.1839  0.4973
  591MOL0     C77891   2.816  10.631   1.978  0.0608 -0.1740  0.1610
  591MOL0     C77892   2.716  10.516   1.993  0.2517  1.4026  0.8413
  591MOL0     C77893   2.671  10.487   1.848 -0.3814 -0.2033 -0.0220
  591MOL0     C77894   2.567  10.377   1.832 -0.5045  0.0351  0.1726
  591MOL0     C77895   2.581  10.316   1.693 -0.3490  0.3295  0.2337
  591MOL0     C77896   2.488  10.200   1.671  0.6801  1.2425  0.4901
  591MOL0     N77897   2.537  10.116   1.557  0.3018 -0.4314 -0.4105
  591MOL0     C77898   2.657  10.049   1.559  0.1569  0.3672 -0.1526
  591MOL0     C77899   2.686   9.996   1.442  0.0711  0.0937 -0.0447
  591MOL0     C77900   2.800   9.925   1.390  0.4303  0.7336  0.6344
  591MOL0     C77901   2.932   9.999   1.410  0.2309  0.5319  0.3974
  591MOL0     C77902   2.990   9.987   1.553 -0.5397  0.1758  0.2401
  591MOL0     C77903   3.133  10.031   1.552 -0.5026 -0.8940 -0.1044
  591MOL0     O77904   3.203   9.952   1.459  0.6938  0.1227 -0.0192
  591MOL0     C77905   3.330   9.981   1.421 -0.4345  0.2883 -0.5812
  591MOL0     C77906   3.373   9.905   1.313 -0.7299  0.0385 -0.3067
  591MOL0     C77907   3.511   9.906   1.273  0.1049  0.1765  0.4158
  591MOL0     C77908   3.604   9.985   1.339  0.3484  0.1447  0.3252
  591MOL0     C77909   3.746   9.991   1.293  0.3128 -0.0344  0.6264
  591MOL0     O77910   3.777   9.903   1.185  0.4689  0.2335 -0.2362
  591MOL0     C77911   3.907   9.920   1.137 -0.0964  0.4855  0.1552
  591MOL0     C77912   4.011   9.842   1.185 -0.2014 -0.5866  0.0029
  591MOL0     C77913   4.146   9.863   1.141 -0.3546  0.9838  0.1841
  591MOL0     C77914   4.171   9.969   1.047 -0.7050  0.6329 -0.2918
  591MOL0     O77915   4.284  10.003   0.982 -0.3092  0.7678  0.1387
  591MOL0     C77916   4.406   9.929   1.003 -0.7606 -0.2760 -0.2363
  591MOL0     C77917   4.516   9.962   0.895  0.2710  0.5787 -0.4653
  591MOL0     C77918   4.637   9.884   0.931 -0.7359  0.1678 -1.0020
  591MOL0     C77919   4.751   9.897   0.823  0.2293  0.1008  0.8212
  591MOL0     C77920   4.719   9.812   0.696 -0.8572  0.3090  0.3916
  591MOL0     C77921   4.803   9.859   0.576  0.6365  0.5384 -0.0602
  591MOL0     C77922   4.954   9.824   0.579 -0.1618 -0.5692 -0.2237
  591MOL0     C77923   5.000   9.683   0.580 -0.2151  0.4142  0.2461
  591MOL0    Cl77924   5.173   9.670   0.604 -0.0575  0.4466  0.0042
  591MOL0     C77925   4.062  10.056   1.019 -0.1983  0.1286  0.4258
  591MOL0     C77926   3.935  10.025   1.056  0.0993  0.4933 -0.3366
  591MOL0     O77927   3.825  10.073   1.336 -0.4702 -0.4453 -0.2567
  591MOL0     C77928   3.551  10.074   1.431  0.7268  0.1355 -0.1084
  591MOL0     C77929   3.422  10.066   1.486  0.0688 -0.4090  1.1873
  591MOL0     N77930   2.581  10.041   1.361 -0.2056 -0.2944  0.6550
  591MOL0     N77931   2.498  10.118   1.424 -0.7951  0.4919 -0.7361
  591MOL0     C77932   3.296  10.767   2.326 -0.9076 -0.4045 -0.0573
  591MOL0     C77933   3.427  10.809   2.333  0.3795 -0.7737  0.5053
  591MOL0     C77934   3.778  11.097   2.282 -0.8457 -0.2974  0.1598
  591MOL0     C77935   3.818  11.228   2.305 -0.1809 -0.3490  0.1901
  591MOL0     C77936   3.945  11.251   2.354  0.4015 -0.0797  0.5316
  591MOL0     C77937   4.043  11.152   2.359  0.6912 -0.8320  0.1856
  591MOL0     O77938   4.172  11.184   2.376  0.4243  0.0197  0.3745
  591MOL0     C77939   4.218  11.314   2.408 -0.1519 -0.4018  0.1842
  591MOL0     C77940   4.347  11.298   2.488 -0.9514 -0.7359  0.1168
  591MOL0     C77941   4.456  11.262   2.384 -0.0395 -0.2565  0.9207
  591MOL0     C77942   4.590  11.315   2.442  0.0801 -0.2794 -0.1604
  591MOL0     C77943   4.706  11.310   2.350 -0.3116 -0.4739  0.4020
  591MOL0     C77944   4.803  11.322   2.280 -1.3654  0.9645  0.0048
  591MOL0     C77945   4.009  11.028   2.322 -0.2238  0.2301  1.3762
  591MOL0     C77946   3.876  10.992   2.294 -0.7575 -0.0951 -0.1833
  591MOL0     H77947   3.447  11.005   2.051 -0.6617  1.0556  1.3959
  591MOL0     H77948   3.210  10.944   2.043 -1.3251  1.6640  1.1971
  591MOL0     H77949   3.096  10.701   2.025 -0.2439  0.8704 -0.3784
  591MOL0     H77950   2.976  10.833   2.036 -0.8541 -1.6243 -2.3725
  591MOL0     H77951   2.850  10.674   2.194 -2.2620 -1.3831 -0.7186
  591MOL0     H77952   2.946  10.544   2.137 -1.3771 -0.5478  1.5073
  591MOL0     H77953   2.877  10.625   1.888  0.9196  1.8334  0.5432
  591MOL0     H77954   2.762  10.727   1.977 -3.1471 -1.8492 -0.6071
  591MOL0     H77955   2.770  10.430   2.030 -1.7380  0.1777  1.0652
  591MOL0     H77956   2.636  10.537   2.065  0.7088  0.4293  1.6432
  591MOL0     H77957   2.764  10.453   1.802 -1.3075 -0.0981 -2.0905
  591MOL0     H77958   2.625  10.576   1.805 -2.9868 -0.2684  2.3416
  591MOL0     H77959   2.466  10.403   1.864 -1.1686 -5.3070  3.7646
  591MOL0     H77960   2.582  10.297   1.905  1.5439  0.0412 -0.1697
  591MOL0     H77961   2.549  10.389   1.619 -1.6884 -0.9649 -0.5206
  591MOL0     H77962   2.685  10.290   1.670 -1.2828  0.3091 -5.1201
  591MOL0     H77963   2.389  10.238   1.645  1.3061  3.0691  0.6368
  591MOL0     H77964   2.473  10.141   1.762  0.9964  1.9092  0.9768
  591MOL0     H77965   2.721  10.044   1.647  1.3957 -1.3166 -1.0888
  591MOL0     H77966   2.779   9.895   1.286 -1.5182  0.0366  1.1886
  591MOL0     H77967   2.798   9.832   1.447 -1.5198  0.7849  0.7214
  591MOL0     H77968   2.917  10.104   1.383 -1.2431  0.5781  1.2715
  591MOL0     H77969   3.002   9.947   1.344  2.9551  1.2269  2.5213
  591MOL0     H77970   2.941  10.057   1.621  0.1798 -0.0025  0.9555
  591MOL0     H77971   2.978   9.883   1.584 -0.9077  0.3758  0.7732
  591MOL0     H77972   3.184  10.029   1.649  0.3527  1.2894 -0.4404
  591MOL0     H77973   3.131  10.133   1.511 -0.7265 -1.1979 -0.8616
  591MOL0     H77974   3.297   9.833   1.287  0.3303 -1.7164  1.2457
  591MOL0     H77975   3.543   9.830   1.203  1.2350  1.0572 -0.0399
  591MOL0     H77976   4.004   9.757   1.252 -2.1410  0.1522  0.8126
  591MOL0     H77977   4.220   9.790   1.171 -3.7082 -2.5543  0.7502
  591MOL0     H77978   4.379   9.823   1.000  1.3639 -0.8689 -0.3616
  591MOL0     H77979   4.448   9.960   1.099  0.1081 -1.0574 -0.3523
  591MOL0     H77980   4.535  10.070   0.898  1.2689  0.4343 -1.0417
  591MOL0     H77981   4.479   9.939   0.795 -4.0266  0.9557  0.8375
  591MOL0     H77982   4.608   9.779   0.941 -0.9536 -0.1132 -3.8169
  591MOL0     H77983   4.683   9.922   1.023 -2.2451  0.6197 -0.4148
  591MOL0     H77984   4.764  10.002   0.795 -0.4585  0.6464  2.4299
  591MOL0     H77985   4.847   9.869   0.866  0.0051  0.1028  1.3272
  591MOL0     H77986   4.612   9.807   0.671 -0.9300 -1.3503  0.8824
  591MOL0     H77987   4.746   9.710   0.724  2.5094  0.6307 -1.2670
  591MOL0     H77988   4.801   9.967   0.557  1.3519  0.4201 -0.8706
  591MOL0     H77989   4.775   9.815   0.480 -0.6469  2.1036 -0.4483
  591MOL0     H77990   5.004   9.881   0.500  0.3751  0.5581  0.8875
  591MOL0     H77991   4.995   9.878   0.665 -2.1677  2.6071 -1.0708
  591MOL0     H77992   4.971   9.643   0.482 -2.2310  2.3059  0.0049
  591MOL0     H77993   4.946   9.640   0.664 -1.4634 -0.1637 -0.8115
  591MOL0     H77994   4.081  10.140   0.953 -0.3721 -0.5417 -0.4889
  591MOL0     H77995   3.853  10.087   1.021 -1.3187  0.3932  2.4856
  591MOL0     H77996   3.619  10.148   1.472  0.7391 -0.2051  0.4933
  591MOL0     H77997   3.408  10.131   1.572 -2.3024 -0.7276  1.1201
  591MOL0     H77998   3.243  10.706   2.398 -2.3850  0.8104 -0.0639
  591MOL0     H77999   3.496  10.779   2.412  2.7191  0.2900 -1.0008
  591MOL0     H78000   3.742  11.304   2.292  0.3111  0.4370  1.6837
  591MOL0     H78001   3.965  11.351   2.393  1.1623 -0.4406  1.0895
  591MOL0     H78002   4.155  11.356   2.487 -0.9819 -2.3111  0.6078
  591MOL0     H78003   4.242  11.385   2.329 -0.4613  1.6403  1.8464
  591MOL0     H78004   4.362  11.395   2.536  1.4150 -0.9835 -0.0038
  591MOL0     H78005   4.337  11.226   2.570  2.4788  0.5267  1.8489
  591MOL0     H78006   4.433  11.318   2.292  1.0634 -2.3176 -0.7116
  591MOL0     H78007   4.468  11.159   2.351 -2.1837  0.0052 -0.9371
  591MOL0     H78008   4.564  11.412   2.486 -2.4825 -1.3948  0.9602
  591MOL0     H78009   4.619  11.244   2.519  0.8533  0.6582  0.4427
  591MOL0     H78010   4.883  11.318   2.209  0.0666 -0.6374  1.5848
  591MOL0     H78011   4.086  10.953   2.309  1.0839  1.6732  0.4187
  591MOL0     H78012   3.848  10.889   2.269  0.8453 -0.4511 -0.6083
  592MOL0     O78013   0.316   3.084   8.313  0.6051 -0.0017 -0.0479
  592MOL0     C78014   0.335   3.176   8.391 -0.1635  0.2592  0.6728
  592MOL0     O78015   0.236   3.251   8.454 -0.5887  0.2183  0.2025
  592MOL0     C78016   0.117   3.267   8.397 -0.3021  0.0943  0.0504
  592MOL0     C78017   0.082   3.271   8.257 -1.1168 -1.0206 -0.1573
  592MOL0     C78018  -0.045   3.296   8.221 -0.0857 -0.8888 -0.8903
  592MOL0     C78019  -0.147   3.332   8.309 -0.0746  1.4985 -0.0296
  592MOL0     O78020  -0.268   3.353   8.252 -0.1337 -0.1354  0.2396
  592MOL0     C78021  -0.377   3.386   8.345 -0.6938  0.9240 -0.0927
  592MOL0     C78022  -0.488   3.462   8.271 -0.0522 -0.4849 -0.7191
  592MOL0     C78023  -0.448   3.612   8.264  0.4146  0.2527 -0.1370
  592MOL0     C78024  -0.557   3.676   8.177  0.1270 -0.0084  0.5690
  592MOL0     C78025  -0.573   3.827   8.211 -1.1323  0.4511  0.2022
  592MOL0     C78026  -0.693   3.889   8.143 -1.0640  0.0393 -0.2059
  592MOL0     C78027  -0.728   4.031   8.193  0.0305 -1.1483 -0.3761
  592MOL0     C78028  -0.837   4.096   8.097 -0.0716 -0.1957  0.1639
  592MOL0     N78029  -0.974   4.054   8.131 -0.1247 -0.2126  0.6199
  592MOL0     C78030  -1.043   4.111   8.234  0.6607 -0.5181 -0.0714
  592MOL0     C78031  -1.174   4.094   8.197  0.7740 -0.1192  0.7752
  592MOL0     C78032  -1.292   4.138   8.281 -0.5313 -0.1709  0.0709
  592MOL0     C78033  -1.372   4.256   8.224 -0.2471 -0.1807  0.0692
  592MOL0     C78034  -1.487   4.298   8.313  0.4967 -0.6617 -0.4025
  592MOL0     C78035  -1.613   4.218   8.298  1.1442 -0.1390 -0.3800
  592MOL0     O78036  -1.722   4.322   8.304 -0.0409  0.2599 -0.3764
  592MOL0     C78037  -1.853   4.278   8.329 -0.0265 -0.2811  0.7995
  592MOL0     C78038  -1.950   4.378   8.324 -0.6900  0.1113 -0.1537
  592MOL0     C78039  -2.086   4.351   8.343  0.0391  0.3417  0.1714
  592MOL0     C78040  -2.121   4.219   8.361 -0.4636  0.4569 -0.5980
  592MOL0     C78041  -2.263   4.203   8.391  0.3407  0.1535  0.0101
  592MOL0     O78042  -2.346   4.295   8.333 -0.5390 -0.2438  0.0531
  592MOL0     C78043  -2.471   4.320   8.380  0.0409  0.1100  0.2961
  592MOL0     C78044  -2.501   4.339   8.513  0.0329 -0.6389  0.5964
  592MOL0     C78045  -2.637   4.362   8.552  0.2875  0.1770  0.6392
  592MOL0     C78046  -2.736   4.384   8.455  0.0970  1.0382 -0.2082
  592MOL0     O78047  -2.864   4.432   8.499 -0.0664  0.0498 -0.3711
  592MOL0     C78048  -2.940   4.506   8.401  0.6275 -0.1374  0.0645
  592MOL0     C78049  -3.067   4.548   8.469 -0.0128 -0.2747  0.0423
  592MOL0     C78050  -3.152   4.634   8.377  0.5498  0.0675  0.0313
  592MOL0     C78051  -3.272   4.685   8.453 -0.6540  0.4176 -0.1757
  592MOL0     C78052  -3.383   4.747   8.367 -0.0135 -0.1813  0.2713
  592MOL0     C78053  -3.517   4.729   8.429 -0.0447  0.5564  0.4616
  592MOL0     C78054  -3.611   4.836   8.386 -0.8867 -0.5579 -0.1829
  592MOL0     C78055  -3.717   4.836   8.502 -0.0076  1.0307  0.3950
  592MOL0    Cl78056  -3.833   4.976   8.478  0.2277  0.3765  0.4775
  592MOL0     C78057  -2.704   4.368   8.324  0.6354  0.2336  0.1721
  592MOL0     C78058  -2.576   4.337   8.282 -0.8749 -0.0493  0.3309
  592MOL0     O78059  -2.292   4.122   8.479 -0.5743  0.0563  0.0679
  592MOL0     C78060  -2.032   4.114   8.367 -0.9542  0.5347  0.0446
  592MOL0     C78061  -1.895   4.150   8.347  0.0396 -0.2782  0.0582
  592MOL0     N78062  -1.177   4.004   8.092 -0.5293  0.0816  0.0684
  592MOL0     N78063  -1.060   3.988   8.048 -0.0426  0.0807 -0.5352
  592MOL0     C78064  -0.114   3.337   8.452 -0.5613  0.2309  0.4623
  592MOL0     C78065   0.018   3.299   8.491 -0.5245 -0.3774  0.5015
  592MOL0     C78066   0.472   3.202   8.435  0.5352 -0.2367  2.1246
  592MOL0     C78067   0.503   3.317   8.501 -0.5609  0.1367 -0.1247
  592MOL0     C78068   0.636   3.338   8.540  0.3128 -0.8955 -0.4592
  592MOL0     C78069   0.739   3.249   8.526 -0.3818 -0.3410 -0.2004
  592MOL0     O78070   0.864   3.273   8.578  0.3198 -0.3816 -0.0194
  592MOL0     C78071   0.968   3.269   8.484 -0.4609 -0.6290  0.2282
  592MOL0     C78072   1.095   3.279   8.569 -0.9391  0.0825  0.7671
  592MOL0     C78073   1.222   3.249   8.496  0.1644  0.1850 -0.4696
  592MOL0     C78074   1.342   3.258   8.576 -0.6552  0.4323  0.3376
  592MOL0     C78075   1.455   3.250   8.473  0.1305 -0.2184  0.7835
  592MOL0     C78076   1.541   3.240   8.388 -0.5347  0.1509 -0.0550
  592MOL0     C78077   0.701   3.134   8.468  0.2290 -0.2434 -0.1891
  592MOL0     C78078   0.578   3.110   8.409  1.1046  0.4627  0.0751
  592MOL0     H78079   0.164   3.259   8.187  2.1391 -0.6929  3.2696
  592MOL0     H78080  -0.069   3.294   8.115 -0.4675 -0.1463 -0.8176
  592MOL0     H78081  -0.350   3.428   8.442 -1.3448  0.8045  0.1478
  592MOL0     H78082  -0.417   3.284   8.357  0.4744  0.3860 -0.6318
  592MOL0     H78083  -0.574   3.454   8.338  1.7769  2.1100  2.1806
  592MOL0     H78084  -0.520   3.411   8.180 -0.4278  0.8989 -1.3817
  592MOL0     H78085  -0.357   3.627   8.204  0.1300  1.1873 -0.3477
  592MOL0     H78086  -0.436   3.666   8.358  1.4702  0.3634 -0.3211
  592MOL0     H78087  -0.542   3.651   8.072  1.9406  1.1486  0.5086
  592MOL0     H78088  -0.656   3.636   8.202 -0.2213 -0.1685 -1.0054
  592MOL0     H78089  -0.483   3.877   8.173 -1.9751  1.0407 -1.0811
  592MOL0     H78090  -0.577   3.828   8.320 -0.4391 -1.4622  0.2888
  592MOL0     H78091  -0.781   3.828   8.168 -1.6200  0.2560 -1.5666
  592MOL0     H78092  -0.672   3.890   8.036 -1.0163  2.2881 -0.2209
  592MOL0     H78093  -0.754   4.038   8.299  2.4744  2.7139  0.1627
  592MOL0     H78094  -0.643   4.099   8.196  2.0930 -3.5689 -1.0090
  592MOL0     H78095  -0.810   4.066   7.995  1.2310  2.4066 -0.3429
  592MOL0     H78096  -0.829   4.205   8.098  0.3513 -0.2129 -0.4632
  592MOL0     H78097  -1.002   4.156   8.324  1.2645  1.1805 -1.1483
  592MOL0     H78098  -1.257   4.155   8.383  0.3960 -0.4548 -0.1915
  592MOL0     H78099  -1.354   4.047   8.277  1.5147 -1.7711 -5.8344
  592MOL0     H78100  -1.415   4.229   8.127  0.9012  2.6316 -1.3780
  592MOL0     H78101  -1.314   4.346   8.197 -1.5832  0.8205  0.4358
  592MOL0     H78102  -1.460   4.291   8.419  3.6158  0.6704 -1.0207
  592MOL0     H78103  -1.510   4.398   8.276  2.6844 -0.5743 -1.6789
  592MOL0     H78104  -1.628   4.149   8.381 -1.0080  0.1066 -0.5246
  592MOL0     H78105  -1.623   4.167   8.201 -0.7147  0.4023 -0.5073
  592MOL0     H78106  -1.914   4.478   8.302 -1.2292  0.6268  1.1840
  592MOL0     H78107  -2.160   4.429   8.334  0.5612  0.7280 -0.9893
  592MOL0     H78108  -2.418   4.338   8.583  0.2819 -2.0490  0.3135
  592MOL0     H78109  -2.669   4.398   8.649 -1.1568  1.1149 -0.1430
  592MOL0     H78110  -2.976   4.448   8.316  1.3620 -1.0852  0.3869
  592MOL0     H78111  -2.882   4.594   8.372  1.1918  0.1195  1.8549
  592MOL0     H78112  -3.034   4.597   8.561  2.8601 -2.1772  0.1415
  592MOL0     H78113  -3.121   4.457   8.497 -0.6197 -0.0087 -0.2546
  592MOL0     H78114  -3.190   4.573   8.295  0.6259  2.0664 -1.5741
  592MOL0     H78115  -3.101   4.723   8.338 -0.2442  0.0588 -1.0545
  592MOL0     H78116  -3.316   4.604   8.512 -2.6177  1.9532  0.5976
  592MOL0     H78117  -3.242   4.765   8.522 -0.5511  1.5548 -1.4915
  592MOL0     H78118  -3.371   4.705   8.267  1.5678 -0.0115  0.3672
  592MOL0     H78119  -3.363   4.854   8.357 -1.5982  0.0473 -0.8830
  592MOL0     H78120  -3.497   4.726   8.536  2.1468  0.1527  0.0928
  592MOL0     H78121  -3.563   4.634   8.400  0.8230 -0.1356  1.3087
  592MOL0     H78122  -3.566   4.936   8.381 -3.2945  0.5868 -0.2832
  592MOL0     H78123  -3.666   4.810   8.295 -2.6673 -1.3152  1.0622
  592MOL0     H78124  -3.666   4.860   8.595 -2.6529  1.6286  1.7856
  592MOL0     H78125  -3.774   4.744   8.517 -0.6819  1.5413  1.0179
  592MOL0     H78126  -2.787   4.352   8.255  0.0706 -2.9482  1.3922
  592MOL0     H78127  -2.556   4.307   8.180 -2.5406  0.7645 -0.2770
  592MOL0     H78128  -2.057   4.009   8.377 -0.3876  0.2012 -1.6810
  592MOL0     H78129  -1.826   4.068   8.328  1.4511  1.0764 -0.9277
  592MOL0     H78130  -0.186   3.361   8.529 -0.8489 -1.1682  0.6570
  592MOL0     H78131   0.054   3.303   8.593  1.7429 -0.9389 -0.2180
  592MOL0     H78132   0.431   3.395   8.524  1.6938  2.1693  0.5751
  592MOL0     H78133   0.662   3.434   8.584  1.5125 -1.6866  0.5828
  592MOL0     H78134   0.963   3.350   8.411  2.3968 -1.2275 -0.7751
  592MOL0     H78135   0.964   3.180   8.420 -4.4935 -0.4614 -0.0060
  592MOL0     H78136   1.108   3.376   8.618  0.7566 -0.8824  2.3868
  592MOL0     H78137   1.082   3.205   8.649  2.3559  0.8640  2.1850
  592MOL0     H78138   1.232   3.312   8.407  0.8961 -0.1054 -0.6025
  592MOL0     H78139   1.227   3.152   8.444  1.5288 -0.2841  0.4714
  592MOL0     H78140   1.356   3.352   8.631  2.0223  1.8050 -2.3994
  592MOL0     H78141   1.352   3.166   8.634 -1.8901 -0.3732 -0.6862
  592MOL0     H78142   1.626   3.225   8.324 -1.1697 -1.3046 -0.5839
  592MOL0     H78143   0.765   3.047   8.454 -1.4895 -1.6023  0.1617
  592MOL0     H78144   0.556   3.015   8.362  2.1611  0.6171 -0.7541
  593MOL0     O78145   1.465   1.553   1.639  0.1046 -0.4083  0.2293
  593MOL0     C78146   1.417   1.654   1.693  0.3540  0.1501 -0.1967
  593MOL0     O78147   1.283   1.686   1.716  0.0559 -0.1912 -1.3547
  593MOL0     C78148   1.186   1.607   1.671 -0.2968  0.5496  0.5901
  593MOL0     C78149   1.191   1.476   1.623 -0.9876  0.0828  0.3123
  593MOL0     C78150   1.069   1.410   1.589  0.7123  0.2782 -0.4266
  593MOL0     C78151   0.941   1.476   1.609 -0.1483  0.1572 -1.3125
  593MOL0     O78152   0.829   1.405   1.581 -0.5753 -0.2830 -0.1419
  593MOL0     C78153   0.790   1.411   1.447  0.2490 -0.3818 -0.0700
  593MOL0     C78154   0.853   1.314   1.343 -0.4667  0.0274  0.2836
  593MOL0     C78155   0.836   1.161   1.402  0.1967 -0.1218  0.6755
  593MOL0     C78156   0.687   1.119   1.416  0.2777  0.0092 -0.1260
  593MOL0     C78157   0.642   1.004   1.329 -0.2054 -0.0285 -0.3620
  593MOL0     C78158   0.510   0.963   1.374  0.5612  0.8057 -0.1331
  593MOL0     C78159   0.444   0.870   1.274  0.3837 -0.5288  1.2125
  593MOL0     C78160   0.311   0.825   1.337 -0.0791  0.1648  0.2695
  593MOL0     N78161   0.205   0.922   1.345  0.0752 -0.3512  0.9307
  593MOL0     C78162   0.171   1.010   1.240 -0.2631  0.2447  0.2471
  593MOL0     C78163   0.095   1.109   1.299  0.6451  0.1980  0.4223
  593MOL0     C78164   0.067   1.248   1.232 -1.3014 -0.4671  0.3649
  593MOL0     C78165   0.183   1.314   1.142 -0.4799  1.0019 -0.5809
  593MOL0     C78166   0.325   1.308   1.200  0.2112 -0.1420  0.2162
  593MOL0     C78167   0.423   1.312   1.088 -0.5752 -0.8074 -0.6703
  593MOL0     O78168   0.416   1.186   1.024 -0.8542  0.2574  0.1280
  593MOL0     C78169   0.515   1.133   0.939  0.0832 -0.7998 -1.0166
  593MOL0     C78170   0.524   0.995   0.912  0.4281  0.2178  0.6457
  593MOL0     C78171   0.619   0.946   0.824  0.0572  0.1704  0.5363
  593MOL0     C78172   0.695   1.032   0.748  0.9642 -0.3041 -0.1698
  593MOL0     C78173   0.780   0.970   0.643  0.4541 -0.1197 -0.9532
  593MOL0     O78174   0.831   1.049   0.537 -0.3421 -0.1004  0.1764
  593MOL0     C78175   0.900   0.996   0.434  0.4218  0.5262 -0.3348
  593MOL0     C78176   0.834   0.962   0.308  0.0173 -0.2301  0.2345
  593MOL0     C78177   0.911   0.935   0.202 -0.2590 -0.5015  0.0854
  593MOL0     C78178   1.055   0.958   0.204 -0.2353  0.6890  0.0589
  593MOL0     O78179   1.142   0.939   0.098  0.0819  0.2134  0.2762
  593MOL0     C78180   1.103   0.822   0.016  0.7720  0.0986 -0.2963
  593MOL0     C78181   1.212   0.807  -0.090 -0.1719 -0.2038  0.1385
  593MOL0     C78182   1.353   0.792  -0.019 -0.7454  0.1132 -0.0826
  593MOL0     C78183   1.442   0.694  -0.088  0.3565 -0.1256 -0.2269
  593MOL0     C78184   1.583   0.682  -0.021 -0.0233  0.7247 -0.1405
  593MOL0     C78185   1.595   0.653   0.131 -0.6044 -0.0794  0.1465
  593MOL0     C78186   1.742   0.626   0.179 -0.2438 -0.0288  0.2617
  593MOL0     C78187   1.748   0.583   0.319  0.7062  0.5362 -0.4142
  593MOL0    Cl78188   1.648   0.433   0.363  0.2647 -0.4360 -0.1812
  593MOL0     C78189   1.113   0.973   0.328 -0.1532  0.2280  0.9685
  593MOL0     C78190   1.036   0.996   0.439  0.0548  0.6026  0.6884
  593MOL0     O78191   0.794   0.845   0.652 -0.1426  0.6630  0.4121
  593MOL0     C78192   0.693   1.169   0.772 -0.6445  0.6622  1.2342
  593MOL0     C78193   0.613   1.216   0.877 -0.0262  0.2719  0.2332
  593MOL0     N78194   0.071   1.076   1.436 -0.4187 -0.2552 -0.9582
  593MOL0     N78195   0.139   0.962   1.457 -0.6461 -0.4431  0.2818
  593MOL0     C78196   0.939   1.605   1.644  0.2808 -0.8060  0.0972
  593MOL0     C78197   1.059   1.668   1.672 -0.1260 -0.3774  0.2332
  593MOL0     C78198   1.518   1.765   1.727  0.8829 -0.0151  0.0013
  593MOL0     C78199   1.483   1.903   1.738 -0.6333  0.0472  0.8381
  593MOL0     C78200   1.588   1.991   1.758  0.3451  0.1967 -1.4705
  593MOL0     C78201   1.721   1.957   1.781 -1.1669  0.3435 -1.0586
  593MOL0     O78202   1.821   2.043   1.832 -0.4042 -0.3790  0.7493
  593MOL0     C78203   1.786   2.180   1.830  0.6159 -0.3889  0.1710
  593MOL0     C78204   1.900   2.270   1.885  0.0215  0.0827 -0.2055
  593MOL0     C78205   2.021   2.294   1.791  0.1037 -0.3112 -0.9924
  593MOL0     C78206   2.128   2.378   1.861 -0.8726 -0.1893  0.1816
  593MOL0     C78207   2.087   2.506   1.921 -0.2899  1.0944 -0.1058
  593MOL0     C78208   2.056   2.602   1.992 -0.4424  0.1336  0.8479
  593MOL0     C78209   1.749   1.823   1.782  0.1227  0.7544 -0.4154
  593MOL0     C78210   1.651   1.730   1.756  0.9698 -0.0265 -0.1064
  593MOL0     H78211   1.280   1.416   1.607  0.3071  2.3564 -1.7430
  593MOL0     H78212   1.093   1.314   1.546 -0.4829  0.7142 -2.1469
  593MOL0     H78213   0.800   1.515   1.415  4.7085 -0.7877 -0.6391
  593MOL0     H78214   0.683   1.391   1.448  0.0386  0.6947 -0.1899
  593MOL0     H78215   0.959   1.340   1.332 -0.5559  0.2825  0.0150
  593MOL0     H78216   0.799   1.323   1.249 -0.9631  0.0801  0.5698
  593MOL0     H78217   0.899   1.154   1.491  0.5351  0.8600  0.5283
  593MOL0     H78218   0.885   1.101   1.325  2.8384  2.8444 -0.1688
  593MOL0     H78219   0.669   1.086   1.519  0.1887 -4.8340 -1.4693
  593MOL0     H78220   0.615   1.195   1.384 -0.1233  0.4631  1.7284
  593MOL0     H78221   0.710   0.919   1.325  0.1191  0.1363  0.9244
  593MOL0     H78222   0.634   1.043   1.227 -1.3582 -0.3447 -0.4098
  593MOL0     H78223   0.447   1.049   1.398 -0.8105 -0.0882 -0.3716
  593MOL0     H78224   0.519   0.916   1.472  0.4490 -1.3636 -1.1047
  593MOL0     H78225   0.429   0.932   1.184 -0.9603 -1.1782  0.9705
  593MOL0     H78226   0.506   0.781   1.262  1.6240  0.2627  1.5414
  593MOL0     H78227   0.321   0.785   1.438  0.6314  1.1762  0.6141
  593MOL0     H78228   0.271   0.741   1.279  2.4326 -2.0255  1.4933
  593MOL0     H78229   0.209   1.016   1.138  1.7924 -1.3163  0.8758
  593MOL0     H78230   0.051   1.316   1.317 -0.2161  0.9462 -0.5228
  593MOL0     H78231  -0.027   1.240   1.178 -1.3322 -1.3234  0.5369
  593MOL0     H78232   0.141   1.415   1.132 -2.0310  0.4876  0.3928
  593MOL0     H78233   0.186   1.259   1.048 -0.9704  0.0420 -0.0496
  593MOL0     H78234   0.350   1.394   1.263  0.1963 -2.4302  3.6028
  593MOL0     H78235   0.347   1.218   1.258 -2.3393 -1.8498 -1.2954
  593MOL0     H78236   0.525   1.328   1.125 -0.6559 -0.1834 -0.7121
  593MOL0     H78237   0.404   1.399   1.024  0.7438 -0.5954 -0.8084
  593MOL0     H78238   0.447   0.930   0.953  1.1662 -1.5420 -0.6451
  593MOL0     H78239   0.630   0.840   0.802  0.4164  0.2766  0.2061
  593MOL0     H78240   0.728   0.983   0.296  0.4635  4.0702  1.9211
  593MOL0     H78241   0.855   0.923   0.110  0.7860  0.9765 -0.7888
  593MOL0     H78242   1.007   0.841  -0.033  0.7752  2.4983  0.4868
  593MOL0     H78243   1.103   0.730   0.074  0.7210 -1.5124 -2.7215
  593MOL0     H78244   1.206   0.904  -0.139 -3.7926 -0.0046  0.6382
  593MOL0     H78245   1.189   0.728  -0.162  1.0550 -0.4351 -0.0223
  593MOL0     H78246   1.338   0.753   0.082  0.7606 -0.2611  0.0224
  593MOL0     H78247   1.407   0.885  -0.001 -0.0799  0.4271 -3.1328
  593MOL0     H78248   1.397   0.595  -0.100  2.9638 -1.3630 -0.6794
  593MOL0     H78249   1.454   0.723  -0.193 -0.7875  0.6242 -0.1701
  593MOL0     H78250   1.640   0.773  -0.042  0.5790  0.1861 -0.9125
  593MOL0     H78251   1.632   0.602  -0.078 -3.5418 -0.7549 -1.3795
  593MOL0     H78252   1.528   0.569   0.152  1.0363 -0.7697  3.2195
  593MOL0     H78253   1.564   0.743   0.186 -1.1279  0.2015 -0.5999
  593MOL0     H78254   1.776   0.543   0.116 -0.1172 -1.6984  2.4226
  593MOL0     H78255   1.802   0.714   0.156  0.4369  0.3047  2.9879
  593MOL0     H78256   1.699   0.670   0.364 -0.7741  0.0198 -0.9618
  593MOL0     H78257   1.853   0.567   0.346 -0.0930  1.0369  3.6887
  593MOL0     H78258   1.220   0.991   0.327 -0.2849  1.3431 -2.0019
  593MOL0     H78259   1.095   1.019   0.528  1.7156 -3.0329  0.7084
  593MOL0     H78260   0.757   1.249   0.735 -2.0353  0.8116 -1.0023
  593MOL0     H78261   0.611   1.322   0.900  1.7983  0.4902 -0.5024
  593MOL0     H78262   0.848   1.664   1.646 -0.9308 -2.5579 -0.9758
  593MOL0     H78263   1.059   1.771   1.707 -2.0839 -0.4906  0.6824
  593MOL0     H78264   1.389   1.939   1.698 -0.0895  0.2955 -0.2605
  593MOL0     H78265   1.559   2.096   1.756 -1.9211 -0.3614 -0.7708
  593MOL0     H78266   1.712   2.202   1.908  1.2177  0.1870  0.5939
  593MOL0     H78267   1.758   2.205   1.728  2.4580 -2.6119 -0.9629
  593MOL0     H78268   1.856   2.370   1.887  0.1047  0.1463  2.2349
  593MOL0     H78269   1.931   2.236   1.984  0.3312 -0.7147 -0.5659
  593MOL0     H78270   1.993   2.343   1.697 -0.7956  0.3220 -0.4081
  593MOL0     H78271   2.064   2.197   1.766 -1.8677 -1.3118 -0.6234
  593MOL0     H78272   2.182   2.322   1.938  1.1572  1.9274  0.4147
  593MOL0     H78273   2.199   2.403   1.781 -1.8941 -2.3232 -1.4889
  593MOL0     H78274   2.034   2.685   2.056 -3.1537 -0.9040  1.3712
  593MOL0     H78275   1.845   1.780   1.808  0.6196  3.1777  2.2175
  593MOL0     H78276   1.682   1.627   1.749  1.3254  0.1207 -0.8338
  594MOL0     O78277  10.648   7.220   9.646  0.6545 -0.4747 -0.0006
  594MOL0     C78278  10.700   7.136   9.712  0.9793  0.1662 -0.1870
  594MOL0     O78279  10.634   7.050   9.796 -0.2543 -0.4349 -0.1842
  594MOL0     C78280  10.501   7.070   9.810  0.3573  0.6555  0.0433
  594MOL0     C78281  10.409   6.983   9.751 -1.1313  0.7112 -0.2262
  594MOL0     C78282  10.276   7.002   9.763 -0.0093  0.5656 -0.6388
  594MOL0     C78283  10.221   7.108   9.829 -0.7679  0.1308 -0.2271
  594MOL0     O78284  10.089   7.137   9.832  0.5059  1.1566  0.5419
  594MOL0     C78285  10.016   7.014   9.834  0.4876 -0.0110 -0.4561
  594MOL0     C78286   9.889   7.036   9.913  0.2472 -0.3094  0.0575
  594MOL0     C78287   9.779   7.123   9.853  0.0213 -0.5859  0.4506
  594MOL0     C78288   9.663   7.147   9.951  0.1096 -0.1493  0.0448
  594MOL0     C78289   9.543   7.218   9.896  0.3546 -0.2430 -0.3459
  594MOL0     C78290   9.420   7.212   9.983 -0.1083 -0.3757  0.4440
  594MOL0     C78291   9.293   7.247   9.916 -0.6160 -0.2718  0.6547
  594MOL0     C78292   9.192   7.281  10.031 -0.0487 -0.0200  0.6365
  594MOL0     N78293   9.054   7.278   9.984  0.4320 -0.3061 -0.6414
  594MOL0     C78294   8.944   7.223  10.042  0.0837 -0.3743 -0.1441
  594MOL0     C78295   8.843   7.263   9.958  0.2230 -0.0570  0.6347
  594MOL0     C78296   8.700   7.212   9.967 -0.2011 -0.8473  0.4359
  594MOL0     C78297   8.590   7.318   9.972  0.3947  0.0360 -0.3999
  594MOL0     C78298   8.448   7.268   9.939 -0.2874 -0.4331 -0.3309
  594MOL0     C78299   8.397   7.174  10.061 -0.7052 -0.1657 -0.1017
  594MOL0     O78300   8.281   7.099  10.032 -0.1293  0.5816  0.8403
  594MOL0     C78301   8.157   7.153   9.990 -0.0704 -0.5663  0.3323
  594MOL0     C78302   8.051   7.071   9.938 -0.8116  0.3660  0.6896
  594MOL0     C78303   7.928   7.119   9.898 -0.7466 -0.2118  0.6191
  594MOL0     C78304   7.906   7.259   9.894  0.1861  0.5540 -0.4375
  594MOL0     C78305   7.774   7.319   9.848  0.9518  0.7742 -0.1516
  594MOL0     O78306   7.677   7.233   9.803 -0.0183 -0.1908  0.3606
  594MOL0     C78307   7.561   7.267   9.746  0.1267  0.2174  0.1986
  594MOL0     C78308   7.476   7.375   9.781 -0.8525 -0.0186 -0.2663
  594MOL0     C78309   7.358   7.403   9.712  0.2158 -0.2888  0.5154
  594MOL0     C78310   7.314   7.322   9.611  0.9815 -0.6693  0.7567
  594MOL0     O78311   7.212   7.364   9.523 -0.2714 -0.5324  0.1818
  594MOL0     C78312   7.125   7.253   9.483  0.5125 -0.1321  0.2808
  594MOL0     C78313   6.999   7.308   9.395 -0.3653  0.2059 -0.3587
  594MOL0     C78314   7.040   7.333   9.254 -0.1769 -0.4476  0.1302
  594MOL0     C78315   6.917   7.374   9.166 -0.2392 -0.5851  0.0455
  594MOL0     C78316   6.967   7.460   9.046  0.0123  0.4349  1.0091
  594MOL0     C78317   7.053   7.378   8.938 -0.7755 -0.9122  0.1147
  594MOL0     C78318   6.972   7.267   8.862 -0.1254 -0.1466  0.2217
  594MOL0     C78319   7.065   7.218   8.754 -0.4130  0.3444 -0.5420
  594MOL0    Cl78320   6.997   7.050   8.718 -0.2022  0.0337  0.0695
  594MOL0     C78321   7.385   7.205   9.579 -0.4098  0.6773 -1.0691
  594MOL0     C78322   7.511   7.183   9.642  0.2359  0.9951  0.0595
  594MOL0     O78323   7.771   7.443   9.840 -0.1287  0.1826  0.2747
  594MOL0     C78324   7.998   7.342   9.960 -0.6693 -0.3307  0.4153
  594MOL0     C78325   8.124   7.291  10.003  0.8287  0.5505  0.5674
  594MOL0     N78326   8.887   7.354   9.869 -0.1924 -1.2663  0.3166
  594MOL0     N78327   9.014   7.347   9.872  0.0564 -0.3405  0.6201
  594MOL0     C78328  10.311   7.203   9.888  0.1611 -0.4924 -0.4364
  594MOL0     C78329  10.451   7.180   9.888 -0.8626  0.4510  0.8361
  594MOL0     C78330  10.850   7.121   9.711 -0.3854  0.1202  0.7706
  594MOL0     C78331  10.920   7.045   9.811 -0.5271 -0.0841 -0.4509
  594MOL0     C78332  11.060   7.028   9.792  1.0767  0.4029 -0.4280
  594MOL0     C78333  11.123   7.070   9.682  0.7483  0.1213 -0.5157
  594MOL0     O78334  11.257   7.039   9.676 -0.0281 -0.9287  0.3287
  594MOL0     C78335  11.341   7.061   9.564 -0.7164  0.0012  0.3432
  594MOL0     C78336  11.483   7.027   9.619  0.0203  0.8115 -0.1541
  594MOL0     C78337  11.596   7.079   9.531 -0.4464  0.2754 -0.3887
  594MOL0     C78338  11.587   7.023   9.382 -0.1226  0.4242 -0.3671
  594MOL0     C78339  11.688   7.098   9.316 -0.4627  0.4490 -0.3094
  594MOL0     C78340  11.762   7.166   9.245  0.0732  0.2934  0.1742
  594MOL0     C78341  11.053   7.149   9.592 -0.3490  0.3635  0.5944
  594MOL0     C78342  10.923   7.176   9.606  0.1058 -0.4671  0.4813
  594MOL0     H78343  10.449   6.895   9.702 -0.1837  0.7665  0.4210
  594MOL0     H78344  10.221   6.923   9.713 -0.1164  0.9816 -1.1888
  594MOL0     H78345  10.061   6.930   9.887  0.3503  0.9398  1.2453
  594MOL0     H78346   9.993   6.979   9.734  0.2755 -1.4546  0.0815
  594MOL0     H78347   9.920   7.081  10.007  0.1261  3.9491 -1.6903
  594MOL0     H78348   9.846   6.939   9.939 -2.3678  0.7408 -0.0472
  594MOL0     H78349   9.744   7.073   9.763  2.3105 -2.3921  0.4655
  594MOL0     H78350   9.813   7.222   9.821 -1.2007 -0.5135 -0.6800
  594MOL0     H78351   9.636   7.053  10.000  2.1185 -0.0076  1.5155
  594MOL0     H78352   9.702   7.195  10.041  0.3007  0.3395 -0.2903
  594MOL0     H78353   9.523   7.171   9.799 -1.0422 -3.3362  1.2900
  594MOL0     H78354   9.560   7.323   9.869  0.8363 -0.8217 -2.5520
  594MOL0     H78355   9.427   7.278  10.070 -4.0007  0.4212  0.3390
  594MOL0     H78356   9.412   7.116  10.035 -1.4824 -0.1711  0.6557
  594MOL0     H78357   9.303   7.333   9.848 -0.4404  0.1758  1.2408
  594MOL0     H78358   9.256   7.164   9.855 -1.3722 -1.9420  3.2482
  594MOL0     H78359   9.196   7.380  10.079 -0.8782  0.3254  0.0230
  594MOL0     H78360   9.209   7.209  10.111 -1.0409 -2.4359 -1.2099
  594MOL0     H78361   8.941   7.159  10.129 -1.8447  2.3219  1.9521
  594MOL0     H78362   8.700   7.145  10.054 -0.0302 -1.2249  0.1498
  594MOL0     H78363   8.684   7.157   9.874  0.4598  1.5394 -1.1822
  594MOL0     H78364   8.620   7.394   9.900  2.2544 -0.0491  0.2171
  594MOL0     H78365   8.583   7.367  10.070  1.8813  0.7411 -0.6228
  594MOL0     H78366   8.374   7.347   9.925 -0.2325 -0.4292 -0.6065
  594MOL0     H78367   8.460   7.217   9.842  0.4057  3.0032 -2.1935
  594MOL0     H78368   8.397   7.232  10.154  0.7705  2.2153 -1.4776
  594MOL0     H78369   8.479   7.102  10.075 -0.5603 -0.0836 -0.5168
  594MOL0     H78370   8.073   6.967   9.917 -4.5703 -0.8029  1.6524
  594MOL0     H78371   7.864   7.052   9.843  2.3497 -3.3952  0.5366
  594MOL0     H78372   7.499   7.447   9.859  1.1437 -1.9709  1.0994
  594MOL0     H78373   7.293   7.489   9.731  0.0711  0.4094 -2.5577
  594MOL0     H78374   7.085   7.208   9.575 -0.6752  0.6352  0.1497
  594MOL0     H78375   7.171   7.176   9.419 -0.4644  0.9618 -1.8203
  594MOL0     H78376   6.956   7.400   9.435 -1.4571  0.9879 -3.0584
  594MOL0     H78377   6.924   7.228   9.388 -0.1644 -0.2333  1.8641
  594MOL0     H78378   7.101   7.249   9.219 -1.1313 -0.8513 -0.5979
  594MOL0     H78379   7.103   7.423   9.247 -0.1139 -0.0343  3.9533
  594MOL0     H78380   6.871   7.281   9.132 -0.2274 -0.7446  0.4555
  594MOL0     H78381   6.851   7.437   9.226  1.9973 -1.2597  3.5332
  594MOL0     H78382   7.020   7.548   9.085  1.1885  0.3403 -0.2778
  594MOL0     H78383   6.875   7.499   9.001  0.3795  0.7212  0.4894
  594MOL0     H78384   7.145   7.340   8.985 -1.6523 -1.9130  1.0809
  594MOL0     H78385   7.082   7.456   8.867  0.0068 -2.1462 -0.9840
  594MOL0     H78386   6.945   7.184   8.928 -0.8051 -0.6411 -0.6604
  594MOL0     H78387   6.877   7.308   8.826  0.8378  0.6238 -1.5606
  594MOL0     H78388   7.169   7.212   8.787 -0.4004  1.1098 -0.4354
  594MOL0     H78389   7.065   7.276   8.661  2.7415  0.7608 -0.4040
  594MOL0     H78390   7.366   7.138   9.496 -1.2014 -0.4434 -0.0274
  594MOL0     H78391   7.572   7.098   9.616 -0.1541  1.0246 -1.0219
  594MOL0     H78392   7.990   7.450   9.965  2.4598 -0.0259  0.4429
  594MOL0     H78393   8.200   7.352  10.051  0.6230  0.4827  0.9823
  594MOL0     H78394  10.271   7.298   9.921  0.3221 -0.6015  0.0810
  594MOL0     H78395  10.521   7.251   9.930  0.2009  1.0224 -1.7071
  594MOL0     H78396  10.866   6.994   9.889  0.9893  1.2099  1.5478
  594MOL0     H78397  11.114   6.981   9.874 -0.5079 -1.8347 -0.5757
  594MOL0     H78398  11.331   7.168   9.541 -0.8623 -0.0147  0.3318
  594MOL0     H78399  11.309   6.998   9.481 -2.6212 -3.3920  3.3758
  594MOL0     H78400  11.491   7.071   9.719 -1.5613  1.7577 -0.4133
  594MOL0     H78401  11.488   6.919   9.634 -1.4886  0.8739  0.9861
  594MOL0     H78402  11.695   7.046   9.565 -0.9211  1.1805  2.0919
  594MOL0     H78403  11.583   7.187   9.518 -0.0161 -0.0410 -5.9628
  594MOL0     H78404  11.605   6.915   9.371  2.0031  0.7194 -0.1259
  594MOL0     H78405  11.491   7.038   9.333 -0.8680  1.0605  1.2178
  594MOL0     H78406  11.830   7.236   9.201  3.0136  0.1926  4.0376
  594MOL0     H78407  11.100   7.203   9.510 -1.9525  0.6471 -0.1806
  594MOL0     H78408  10.871   7.241   9.536  2.7393 -0.3520 -1.5889
  595MOL0     O78409   2.953   5.119  10.923  0.6063 -0.2575 -0.6970
  595MOL0     C78410   2.949   4.996  10.915  0.6716  0.5783  0.1875
  595MOL0     O78411   2.850   4.910  10.967 -0.8185 -0.2694 -0.2691
  595MOL0     C78412   2.720   4.956  10.961  0.5481  0.3628 -0.8076
  595MOL0     C78413   2.664   5.057  10.877  0.2635  0.9205  0.5051
  595MOL0     C78414   2.535   5.095  10.897 -0.0287  0.0371  0.1624
  595MOL0     C78415   2.449   5.035  10.988 -0.0519  0.9812  0.1292
  595MOL0     O78416   2.319   5.072  11.012  0.0458  0.0270  0.0027
  595MOL0     C78417   2.235   5.065  10.897 -0.5737  0.2231 -1.3522
  595MOL0     C78418   2.088   5.096  10.946 -0.3289 -0.3933 -0.7265
  595MOL0     C78419   1.980   5.052  10.852 -0.4104  0.0096 -0.3777
  595MOL0     C78420   1.835   5.090  10.891 -0.5395 -0.4343 -0.8032
  595MOL0     C78421   1.745   5.001  10.809 -0.1797  0.6061 -0.5089
  595MOL0     C78422   1.604   4.989  10.867  0.1897 -0.0633 -0.3959
  595MOL0     C78423   1.510   4.886  10.800 -0.2539  0.6956 -0.4338
  595MOL0     C78424   1.369   4.889  10.857 -0.0767 -0.1814 -0.2381
  595MOL0     N78425   1.298   4.801  10.758 -0.6138  0.2313 -0.2454
  595MOL0     C78426   1.266   4.672  10.776 -0.8590 -0.2016  0.7573
  595MOL0     C78427   1.197   4.626  10.661  0.4304 -0.2719 -0.5956
  595MOL0     C78428   1.120   4.487  10.649  0.3666  0.6578  0.8310
  595MOL0     C78429   0.981   4.497  10.574 -0.3479  0.3759 -0.0517
  595MOL0     C78430   0.923   4.354  10.571  0.2489 -0.6241 -0.0516
  595MOL0     C78431   0.811   4.348  10.472 -0.3695  0.0318 -0.4423
  595MOL0     O78432   0.738   4.225  10.504  0.2627  0.0000 -0.6907
  595MOL0     C78433   0.604   4.231  10.538  0.5453  0.0025 -0.0295
  595MOL0     C78434   0.505   4.205  10.444  0.6463 -0.6844  0.5771
  595MOL0     C78435   0.371   4.193  10.485 -0.8165  1.0244  0.1773
  595MOL0     C78436   0.336   4.205  10.618 -0.4334 -0.4912 -0.0022
  595MOL0     C78437   0.193   4.186  10.663  0.1355  0.5075 -0.7163
  595MOL0     O78438   0.114   4.117  10.577 -0.2268  0.2948  0.0198
  595MOL0     C78439  -0.011   4.077  10.593 -0.1138 -0.5497  0.0101
  595MOL0     C78440  -0.061   3.991  10.486  0.1319 -0.5598 -0.5960
  595MOL0     C78441  -0.191   3.947  10.475 -0.0403  0.0146 -0.3002
  595MOL0     C78442  -0.284   3.972  10.584 -0.0468  0.3064 -0.0652
  595MOL0     O78443  -0.415   3.926  10.582 -0.5637  0.1382 -0.2362
  595MOL0     C78444  -0.472   3.878  10.466  0.1158  0.6359 -0.9452
  595MOL0     C78445  -0.613   3.847  10.495 -1.2137  0.5396  0.4520
  595MOL0     C78446  -0.689   3.806  10.368  0.2598 -0.7490 -0.0240
  595MOL0     C78447  -0.840   3.804  10.406  0.3202  0.0814  0.6023
  595MOL0     C78448  -0.905   3.702  10.317  0.7426  0.9402  0.2082
  595MOL0     C78449  -1.056   3.703  10.312 -0.4569 -0.2764 -0.2646
  595MOL0     C78450  -1.108   3.587  10.234  0.2916 -0.3125  0.2637
  595MOL0     C78451  -1.268   3.590  10.205 -0.0512  0.2084  0.3842
  595MOL0    Cl78452  -1.316   3.695  10.070  0.0383  0.2202 -0.2521
  595MOL0     C78453  -0.232   4.055  10.688  0.5716 -0.5894 -0.2406
  595MOL0     C78454  -0.103   4.112  10.693 -0.3463  0.2815 -0.3345
  595MOL0     O78455   0.178   4.202  10.787  0.0300 -0.5603 -0.0358
  595MOL0     C78456   0.441   4.228  10.720 -0.7790 -0.1334  0.9313
  595MOL0     C78457   0.576   4.242  10.671 -0.4839  0.0901 -0.2847
  595MOL0     N78458   1.185   4.736  10.587  0.6813 -0.7678  0.5740
  595MOL0     N78459   1.238   4.840  10.641 -0.0925  0.0419 -0.2381
  595MOL0     C78460   2.495   4.918  11.058 -0.0070 -0.5722 -0.4878
  595MOL0     C78461   2.631   4.884  11.053 -0.0391  0.2413  0.2125
  595MOL0     C78462   3.059   4.917  10.871 -0.5272 -0.1065  0.0311
  595MOL0     C78463   3.123   4.945  10.750  0.6452 -0.4362 -0.2712
  595MOL0     C78464   3.243   4.889  10.702  0.7101 -2.1888  0.3229
  595MOL0     C78465   3.303   4.796  10.790 -0.0944 -0.3323 -0.1434
  595MOL0     O78466   3.415   4.717  10.757 -0.4203 -0.3943  0.0294
  595MOL0     C78467   3.484   4.744  10.629  1.0575 -0.4994 -0.3620
  595MOL0     C78468   3.623   4.679  10.611 -0.2219  0.1657 -0.3534
  595MOL0     C78469   3.721   4.734  10.715  0.2828 -0.1137  0.1180
  595MOL0     C78470   3.855   4.658  10.693  0.2691  1.4240  0.2261
  595MOL0     C78471   3.861   4.513  10.723  0.4885 -0.5011  0.4882
  595MOL0     C78472   3.888   4.399  10.749 -0.0354 -1.1436  0.4299
  595MOL0     C78473   3.243   4.766  10.912  0.1521  0.0617 -0.2053
  595MOL0     C78474   3.127   4.831  10.954 -0.0397 -0.1802 -0.4543
  595MOL0     H78475   2.720   5.109  10.800 -3.5673  2.2059 -1.6889
  595MOL0     H78476   2.499   5.180  10.839 -0.1388  0.9137  1.4577
  595MOL0     H78477   2.240   4.967  10.849  5.1362  0.0302 -1.0799
  595MOL0     H78478   2.270   5.131  10.817 -1.0261  2.8583  0.5096
  595MOL0     H78479   2.088   5.204  10.960  1.1945 -0.3426 -0.8732
  595MOL0     H78480   2.078   5.049  11.044  1.8731 -2.6216 -1.4450
  595MOL0     H78481   2.006   4.945  10.848 -2.7508 -0.5758 -3.0444
  595MOL0     H78482   2.006   5.087  10.752  0.6466  0.0869 -0.0846
  595MOL0     H78483   1.824   5.079  10.999  0.7089 -1.9698 -0.8001
  595MOL0     H78484   1.806   5.191  10.862  0.9654  0.7165  1.4090
  595MOL0     H78485   1.790   4.902  10.819 -0.6317  0.4483  0.0400
  595MOL0     H78486   1.745   5.041  10.707  0.0667  0.1257 -0.7004
  595MOL0     H78487   1.562   5.089  10.879  0.4867 -0.1735  2.1810
  595MOL0     H78488   1.612   4.961  10.973 -0.5137  0.3154 -0.2443
  595MOL0     H78489   1.497   4.921  10.697  3.2843 -0.0451 -1.2764
  595MOL0     H78490   1.561   4.789  10.802  0.0238  0.8496  0.1434
  595MOL0     H78491   1.325   4.989  10.845  1.4656  0.6322  0.5520
  595MOL0     H78492   1.371   4.860  10.963 -0.0948 -2.1584 -0.7435
  595MOL0     H78493   1.296   4.604  10.854  2.4440 -0.4460 -0.5589
  595MOL0     H78494   1.093   4.442  10.745  2.2477 -0.4929  0.8830
  595MOL0     H78495   1.189   4.415  10.603  0.2718 -0.3338  2.1880
  595MOL0     H78496   0.977   4.536  10.472 -0.7492  2.6515  0.7613
  595MOL0     H78497   0.917   4.560  10.637 -0.3057 -2.2786  2.8529
  595MOL0     H78498   0.994   4.274  10.546 -1.8811 -2.9554  0.8723
  595MOL0     H78499   0.884   4.333  10.672 -1.6315 -0.9207 -0.7918
  595MOL0     H78500   0.839   4.351  10.366  3.3731 -1.1083  0.3513
  595MOL0     H78501   0.751   4.438  10.489  2.5316  2.4985 -2.1503
  595MOL0     H78502   0.520   4.199  10.337 -1.2966  0.4413  0.1937
  595MOL0     H78503   0.294   4.177  10.411 -1.4531  0.4242  0.9543
  595MOL0     H78504   0.017   3.960  10.418  1.1495  1.7705 -0.5931
  595MOL0     H78505  -0.226   3.900  10.384 -0.7956  1.0075 -0.5275
  595MOL0     H78506  -0.414   3.790  10.437 -0.0184  0.6158 -1.1521
  595MOL0     H78507  -0.456   3.948  10.383  2.0647  2.2188  0.6472
  595MOL0     H78508  -0.660   3.934  10.541  1.5175  2.0862  0.5584
  595MOL0     H78509  -0.621   3.773  10.575 -1.7855 -1.5472 -1.4380
  595MOL0     H78510  -0.646   3.710  10.336  3.5552  0.5916 -0.0338
  595MOL0     H78511  -0.672   3.883  10.292  2.4271  0.0149  1.1141
  595MOL0     H78512  -0.866   3.780  10.510  1.8078  1.6152  1.3672
  595MOL0     H78513  -0.880   3.902  10.379  2.3895  0.8473  0.1451
  595MOL0     H78514  -0.865   3.605  10.348  1.6764  1.1548 -0.2709
  595MOL0     H78515  -0.861   3.712  10.217  0.2229 -3.2595 -0.6095
  595MOL0     H78516  -1.086   3.794  10.259  2.7309  1.2784  0.3746
  595MOL0     H78517  -1.086   3.693  10.417  1.7172 -1.4208  0.2960
  595MOL0     H78518  -1.064   3.591  10.134  1.7676  0.5241  0.9224
  595MOL0     H78519  -1.075   3.492  10.278  2.2938  1.6814  3.4507
  595MOL0     H78520  -1.314   3.621  10.300 -0.2769 -0.9031  0.6465
  595MOL0     H78521  -1.303   3.488  10.192  0.8688  0.0857 -1.3650
  595MOL0     H78522  -0.306   4.074  10.765 -0.2470 -1.7836 -0.7078
  595MOL0     H78523  -0.079   4.182  10.773 -1.3112  0.8695 -0.5447
  595MOL0     H78524   0.427   4.253  10.825  0.3146  2.4728  0.5220
  595MOL0     H78525   0.661   4.275  10.729 -1.3353 -0.4310  1.3317
  595MOL0     H78526   2.431   4.882  11.138  0.7425 -1.8653 -0.4417
  595MOL0     H78527   2.683   4.813  11.115  2.3483 -0.1816 -2.0919
  595MOL0     H78528   3.075   5.018  10.687  2.7089 -0.2541 -1.7132
  595MOL0     H78529   3.289   4.912  10.606  0.9891 -1.2314  0.6693
  595MOL0     H78530   3.497   4.852  10.613 -1.9622  0.1208  0.6369
  595MOL0     H78531   3.418   4.720  10.546  0.8340  0.7193 -0.5642
  595MOL0     H78532   3.612   4.570  10.612 -0.2527  0.1189 -2.1098
  595MOL0     H78533   3.658   4.707  10.511  0.3610  0.2521 -0.1292
  595MOL0     H78534   3.675   4.720  10.813  0.8813 -0.2320  0.3863
  595MOL0     H78535   3.727   4.841  10.696 -0.3891 -0.5008 -2.7183
  595MOL0     H78536   3.884   4.668  10.588  2.3728  4.5313  0.9388
  595MOL0     H78537   3.930   4.719  10.745  0.2789  1.0805  0.6235
  595MOL0     H78538   3.914   4.298  10.775 -0.4189 -1.3210  0.1421
  595MOL0     H78539   3.292   4.696  10.978 -0.0570 -0.0103 -0.1244
  595MOL0     H78540   3.091   4.812  11.055  1.9598 -1.1491  0.1345
  596MOL0     O78541  11.196  11.181   5.837  0.2033  0.8534 -0.2933
  596MOL0     C78542  11.222  11.144   5.729 -0.0712  0.5203 -0.8713
  596MOL0     O78543  11.133  11.107   5.631 -0.6888 -1.1206 -0.0276
  596MOL0     C78544  11.000  11.090   5.649  1.4445 -0.1303 -0.1724
  596MOL0     C78545  10.938  11.070   5.775 -0.1881  0.4103 -0.2438
  596MOL0     C78546  10.799  11.054   5.800 -0.3597 -0.2988  0.5235
  596MOL0     C78547  10.714  11.060   5.685  0.6386  0.3132  0.1501
  596MOL0     O78548  10.579  11.024   5.689 -0.3699 -0.0218 -0.5252
  596MOL0     C78549  10.514  11.016   5.819  0.4203  0.0166  0.5006
  596MOL0     C78550  10.352  11.025   5.796 -0.3509 -0.1195  1.1620
  596MOL0     C78551  10.319  11.157   5.728 -0.5763 -0.2639  0.8924
  596MOL0     C78552  10.172  11.183   5.746 -0.0558  0.0250 -0.0989
  596MOL0     C78553  10.127  11.310   5.672  0.0346 -0.1591  0.6298
  596MOL0     C78554   9.978  11.326   5.701 -0.3269 -0.2850 -0.5908
  596MOL0     C78555   9.919  11.450   5.629 -0.2131  1.2170 -0.7813
  596MOL0     C78556   9.770  11.475   5.679 -0.3186 -0.0243 -0.6459
  596MOL0     N78557   9.669  11.374   5.641 -0.1122  0.1381  0.0731
  596MOL0     C78558   9.587  11.303   5.724 -0.2822  0.2269 -1.3168
  596MOL0     C78559   9.496  11.251   5.642 -0.1752 -0.1314 -0.0029
  596MOL0     C78560   9.378  11.163   5.675 -0.9760  0.8509  0.1642
  596MOL0     C78561   9.239  11.224   5.637 -0.5572  0.2581  0.6526
  596MOL0     C78562   9.130  11.260   5.750  0.3622  0.2731 -0.3653
  596MOL0     C78563   8.986  11.267   5.689 -0.3102  0.9131  0.1984
  596MOL0     O78564   8.935  11.146   5.635  0.3960 -0.2236 -0.4285
  596MOL0     C78565   8.802  11.115   5.614  0.4139  0.4162 -0.1932
  596MOL0     C78566   8.772  10.984   5.610  0.0790 -0.7447  0.7856
  596MOL0     C78567   8.635  10.956   5.609 -0.3397 -0.0830 -0.7042
  596MOL0     C78568   8.533  11.050   5.604 -0.4122 -0.3970  1.0720
  596MOL0     C78569   8.385  11.014   5.587  0.0616 -0.1222 -0.5420
  596MOL0     O78570   8.344  10.898   5.644 -0.6253 -0.5923  0.1877
  596MOL0     C78571   8.213  10.871   5.660  0.1223  0.8874 -0.3773
  596MOL0     C78572   8.138  10.952   5.748  0.0122 -0.2385  0.3194
  596MOL0     C78573   8.002  10.947   5.755 -1.0926  0.3121 -0.0681
  596MOL0     C78574   7.945  10.843   5.686  0.6093  1.1804 -0.3433
  596MOL0     O78575   7.818  10.807   5.703  0.3301  0.7600  0.5378
  596MOL0     C78576   7.711  10.896   5.703 -0.3817  0.4501 -0.2508
  596MOL0     C78577   7.578  10.821   5.697  1.0461 -0.1634  0.1540
  596MOL0     C78578   7.452  10.907   5.719 -0.0845 -0.2263  0.1013
  596MOL0     C78579   7.328  10.811   5.731  1.3524  0.1211  0.0910
  596MOL0     C78580   7.194  10.892   5.728  0.1150 -0.3722  0.1982
  596MOL0     C78581   7.183  10.984   5.603  0.6484  0.8979  0.1769
  596MOL0     C78582   7.040  11.022   5.543  0.1204  0.1777 -0.7538
  596MOL0     C78583   6.953  10.901   5.532 -0.1240 -0.3589 -0.2975
  596MOL0    Cl78584   6.845  10.928   5.396  0.5493  0.4277  0.1905
  596MOL0     C78585   8.020  10.749   5.611 -0.2248 -0.6563  0.9542
  596MOL0     C78586   8.162  10.763   5.594  0.9158  0.9256  0.4185
  596MOL0     O78587   8.312  11.088   5.517  0.2671  0.4228  0.1665
  596MOL0     C78588   8.572  11.183   5.614  0.6606 -0.1411  0.2785
  596MOL0     C78589   8.709  11.211   5.616 -0.2150  0.3446  0.2147
  596MOL0     N78590   9.525  11.282   5.513 -0.0791 -0.2776  0.0131
  596MOL0     N78591   9.635  11.355   5.506  0.7589 -0.3636 -0.9190
  596MOL0     C78592  10.767  11.081   5.555 -0.4276  0.2566  0.2474
  596MOL0     C78593  10.909  11.091   5.542 -0.6795  0.5672  0.6508
  596MOL0     C78594  11.364  11.133   5.686 -0.9501 -0.4467 -0.0351
  596MOL0     C78595  11.403  11.057   5.575 -0.0671 -0.2039 -0.4367
  596MOL0     C78596  11.544  11.063   5.536  0.6569 -0.1795  0.2481
  596MOL0     C78597  11.634  11.149   5.596  0.7964 -0.9322  0.3416
  596MOL0     O78598  11.766  11.165   5.553 -0.1505  0.2933 -0.2456
  596MOL0     C78599  11.842  11.043   5.539 -1.1603  0.6198  0.3761
  596MOL0     C78600  11.997  11.062   5.533  0.6904 -0.1182  0.3616
  596MOL0     C78601  12.058  11.133   5.416  0.6494  0.6796 -0.5903
  596MOL0     C78602  12.211  11.094   5.398  0.4778  0.2686 -0.0472
  596MOL0     C78603  12.288  11.117   5.522  0.0457 -0.0573  0.5990
  596MOL0     C78604  12.364  11.150   5.605 -0.2869 -0.0388 -0.3695
  596MOL0     C78605  11.586  11.243   5.685  0.3789 -0.2914 -0.1525
  596MOL0     C78606  11.455  11.226   5.736 -0.7356 -0.5535 -0.0170
  596MOL0     H78607  11.007  11.055   5.857  1.1808  3.0885 -0.7919
  596MOL0     H78608  10.760  11.044   5.901 -0.0713  2.9091  1.0575
  596MOL0     H78609  10.548  11.101   5.879 -1.1394  0.3487  0.9759
  596MOL0     H78610  10.538  10.917   5.858 -0.2624 -0.0554  0.7519
  596MOL0     H78611  10.299  11.012   5.891 -0.6721  0.7740  1.1198
  596MOL0     H78612  10.320  10.942   5.734  1.9125  1.1465 -1.9782
  596MOL0     H78613  10.345  11.157   5.622 -2.5042  0.4008  0.3731
  596MOL0     H78614  10.372  11.243   5.769 -0.9255  0.4463 -0.0964
  596MOL0     H78615  10.115  11.094   5.718 -0.1067 -0.7930  2.3912
  596MOL0     H78616  10.164  11.197   5.854 -0.8145 -3.1865  0.3504
  596MOL0     H78617  10.135  11.303   5.563  1.2120  0.9160  0.6301
  596MOL0     H78618  10.170  11.401   5.713  2.4158 -1.9595  2.4125
  596MOL0     H78619   9.957  11.346   5.807 -3.5973  0.6085 -1.2970
  596MOL0     H78620   9.918  11.243   5.663 -2.7331  1.9326 -1.9403
  596MOL0     H78621   9.971  11.544   5.650  0.1388  0.8007  0.3208
  596MOL0     H78622   9.922  11.425   5.523  0.2317 -2.7202  0.0211
  596MOL0     H78623   9.733  11.570   5.639  1.6908  1.6282  1.1823
  596MOL0     H78624   9.783  11.506   5.784 -0.2322 -2.6349  0.1961
  596MOL0     H78625   9.603  11.291   5.831 -1.3017 -0.8664 -1.2676
  596MOL0     H78626   9.378  11.138   5.782  3.0876  1.1774  0.3966
  596MOL0     H78627   9.394  11.076   5.611  0.8895  1.2843 -0.0121
  596MOL0     H78628   9.181  11.150   5.582  2.1374 -2.2177  0.8791
  596MOL0     H78629   9.274  11.312   5.583 -0.1011  0.7762  1.7482
  596MOL0     H78630   9.127  11.179   5.824  0.9730  2.7220  2.5399
  596MOL0     H78631   9.153  11.358   5.793 -0.0936  1.3890 -2.5280
  596MOL0     H78632   8.976  11.346   5.613  1.8457 -0.6174 -1.8412
  596MOL0     H78633   8.920  11.280   5.775  1.7666 -4.3437  3.0131
  596MOL0     H78634   8.848  10.906   5.612  2.0387  1.0687  1.8859
  596MOL0     H78635   8.595  10.855   5.618 -0.4413  0.0831  1.1895
  596MOL0     H78636   8.184  11.035   5.802  0.1525  1.3757 -2.1200
  596MOL0     H78637   7.932  11.001   5.818 -0.0312  0.1551  1.2950
  596MOL0     H78638   7.716  10.985   5.639  1.6594  1.7261  1.5400
  596MOL0     H78639   7.717  10.949   5.798 -0.5606  0.1673 -0.0820
  596MOL0     H78640   7.577  10.745   5.775  0.0063 -1.0218 -0.6522
  596MOL0     H78641   7.555  10.771   5.602  1.1269  1.9739 -1.0735
  596MOL0     H78642   7.437  10.976   5.635  0.9666  0.2343  0.2722
  596MOL0     H78643   7.464  10.983   5.798  1.7847  0.0541 -0.4191
  596MOL0     H78644   7.330  10.731   5.657 -2.7402  2.0827 -2.5530
  596MOL0     H78645   7.311  10.766   5.829 -2.4072 -0.1812 -0.5552
  596MOL0     H78646   7.193  10.957   5.815  0.8375 -0.4182  0.2474
  596MOL0     H78647   7.115  10.817   5.738  3.3188 -3.8899  1.0453
  596MOL0     H78648   7.241  10.936   5.523  1.4496  0.3724  1.0534
  596MOL0     H78649   7.228  11.081   5.626  0.5608  0.3989  2.7409
  596MOL0     H78650   6.987  11.089   5.611  1.0269  2.2041 -1.9564
  596MOL0     H78651   7.049  11.080   5.451  0.8853  0.5112 -0.4788
  596MOL0     H78652   6.901  10.897   5.628  1.6167  0.8659  0.7587
  596MOL0     H78653   7.010  10.811   5.508 -4.2228 -2.6472 -2.3628
  596MOL0     H78654   7.971  10.674   5.549  0.4506  0.0969 -0.5341
  596MOL0     H78655   8.219  10.703   5.524  0.8745 -2.2187  2.8452
  596MOL0     H78656   8.491  11.255   5.611  0.0289 -0.6251  3.1072
  596MOL0     H78657   8.734  11.317   5.606 -4.7742  1.4570 -2.1529
  596MOL0     H78658  10.691  11.077   5.478 -1.1220  0.0965  0.9229
  596MOL0     H78659  10.952  11.094   5.443  1.6336 -2.4340  1.4148
  596MOL0     H78660  11.332  10.991   5.526 -0.9841  0.8555 -0.5848
  596MOL0     H78661  11.573  11.004   5.449 -1.2941 -0.9692  0.0702
  596MOL0     H78662  11.818  11.001   5.440 -0.5351  1.5741 -0.1942
  596MOL0     H78663  11.811  10.970   5.615  2.2342 -1.7147 -0.2351
  596MOL0     H78664  12.024  11.118   5.623 -0.4673  1.8466 -0.4466
  596MOL0     H78665  12.038  10.961   5.528 -0.2927 -0.4857 -1.0842
  596MOL0     H78666  12.055  11.242   5.428 -2.8146  0.5575  0.9565
  596MOL0     H78667  12.002  11.107   5.326  0.0242  1.3043 -0.3900
  596MOL0     H78668  12.208  10.993   5.355  0.4681  0.6280 -0.9038
  596MOL0     H78669  12.243  11.155   5.313 -0.3561  1.4642  0.4825
  596MOL0     H78670  12.434  11.167   5.684  1.1648 -1.4036 -1.2904
  596MOL0     H78671  11.640  11.332   5.717  1.0943 -0.8550  0.2503
  596MOL0     H78672  11.413  11.297   5.807  1.8269  2.8894 -1.6252
  597MOL0     O78673   6.508   4.619   0.214 -0.1532  0.0146 -0.4503
  597MOL0     C78674   6.536   4.686   0.319  0.7745 -0.4818 -0.0134
  597MOL0     O78675   6.477   4.681   0.437 -0.2798  0.0992  0.0317
  597MOL0     C78676   6.396   4.573   0.462  0.3225 -0.9083 -0.7652
  597MOL0     C78677   6.441   4.442   0.447 -0.1997  1.2106 -0.5572
  597MOL0     C78678   6.359   4.333   0.481 -0.2852 -0.4141  0.0765
  597MOL0     C78679   6.227   4.350   0.527 -0.4420 -0.9386  0.0087
  597MOL0     O78680   6.145   4.239   0.540 -0.1241  0.4141 -0.2100
  597MOL0     C78681   6.009   4.259   0.574  0.6379  0.4005  0.0394
  597MOL0     C78682   5.927   4.120   0.559  0.3702  0.5674 -0.2012
  597MOL0     C78683   5.780   4.152   0.593  0.7912  0.7546  0.0514
  597MOL0     C78684   5.691   4.024   0.609  0.4697 -0.1564 -0.2119
  597MOL0     C78685   5.547   4.077   0.646  0.5381  0.1968  0.1882
  597MOL0     C78686   5.466   3.948   0.668 -0.1090  0.9595 -0.0084
  597MOL0     C78687   5.321   3.981   0.712 -0.2825  0.1376  0.2565
  597MOL0     C78688   5.237   3.848   0.765  0.0602  0.4771  0.0488
  597MOL0     N78689   5.093   3.884   0.771  0.2263 -0.3404  0.3639
  597MOL0     C78690   5.002   3.882   0.668  0.3051  0.3302  0.0380
  597MOL0     C78691   4.881   3.894   0.732  0.5186  1.3669 -0.1502
  597MOL0     C78692   4.739   3.866   0.687  0.5922  1.2565  0.4865
  597MOL0     C78693   4.732   3.810   0.540  0.2352 -0.7694  0.2623
  597MOL0     C78694   4.595   3.754   0.523 -0.0084  0.6383  0.3690
  597MOL0     C78695   4.470   3.839   0.528 -0.3347 -0.3405  0.7416
  597MOL0     O78696   4.477   3.945   0.429 -0.1018 -0.3124  0.2004
  597MOL0     C78697   4.369   4.026   0.416  0.9485 -0.6666  0.3294
  597MOL0     C78698   4.252   4.028   0.493  0.9361 -0.5996  0.3905
  597MOL0     C78699   4.157   4.133   0.476  0.7738 -0.4860 -0.5486
  597MOL0     C78700   4.191   4.241   0.383 -0.1769 -0.6108  0.3517
  597MOL0     C78701   4.089   4.346   0.364  0.2376 -0.3191 -0.0550
  597MOL0     O78702   3.965   4.341   0.428  0.1828  1.2354 -0.7527
  597MOL0     C78703   3.882   4.452   0.434  0.0593 -0.0533  0.0353
  597MOL0     C78704   3.929   4.582   0.461  0.0949 -0.6932  0.4827
  597MOL0     C78705   3.851   4.692   0.459  0.5403 -0.0595  0.2941
  597MOL0     C78706   3.717   4.676   0.433  0.2233 -0.3056 -0.3520
  597MOL0     O78707   3.638   4.787   0.430  0.3958 -0.5120  0.7054
  597MOL0     C78708   3.572   4.799   0.303 -0.6557  0.1213  0.5794
  597MOL0     C78709   3.422   4.848   0.321  0.4370 -0.1850  0.7966
  597MOL0     C78710   3.355   4.864   0.181  0.2897 -0.1404 -0.8037
  597MOL0     C78711   3.204   4.911   0.196  0.7260 -0.6884  0.5631
  597MOL0     C78712   3.171   4.963   0.065 -0.2397 -0.9528  0.6822
  597MOL0     C78713   3.049   5.052   0.058  0.7861 -0.4619  0.2599
  597MOL0     C78714   2.920   4.979   0.059  0.8593  0.0131 -0.8373
  597MOL0     C78715   2.795   5.076   0.044  0.1262  0.8411 -0.2825
  597MOL0    Cl78716   2.793   5.195   0.186 -0.3133  0.4571 -0.6419
  597MOL0     C78717   3.671   4.548   0.411 -0.3590 -0.7703  0.1693
  597MOL0     C78718   3.752   4.438   0.420 -0.4948  0.3966  0.2353
  597MOL0     O78719   4.132   4.442   0.300 -0.3722  0.4138 -0.5196
  597MOL0     C78720   4.302   4.239   0.310 -0.3911 -0.2145  0.5937
  597MOL0     C78721   4.390   4.130   0.325  0.3641 -0.0825 -0.0607
  597MOL0     N78722   4.909   3.899   0.869 -0.2005 -0.1200 -0.0721
  597MOL0     N78723   5.039   3.892   0.889  0.2563 -0.2670 -0.3462
  597MOL0     C78724   6.187   4.489   0.558 -0.0034  0.7971 -0.1073
  597MOL0     C78725   6.270   4.592   0.525  0.6427 -0.0031  0.5107
  597MOL0     C78726   6.643   4.789   0.305 -0.2571  0.2003  0.2481
  597MOL0     C78727   6.729   4.779   0.191 -0.9429  0.3362  0.5814
  597MOL0     C78728   6.841   4.863   0.176  1.1369 -0.3992 -0.0374
  597MOL0     C78729   6.862   4.967   0.267  1.0914 -0.9126 -0.5752
  597MOL0     O78730   6.959   5.056   0.241 -0.3465 -0.4387  0.0038
  597MOL0     C78731   7.018   5.067   0.107  0.5025  0.7313 -0.0638
  597MOL0     C78732   7.146   5.160   0.116 -0.1057  0.5625  0.2650
  597MOL0     C78733   7.217   5.179  -0.023  0.8899 -0.2794 -0.7433
  597MOL0     C78734   7.340   5.277  -0.030 -0.0620 -0.0021  0.0741
  597MOL0     C78735   7.459   5.248   0.049  0.5554  1.3484  0.0774
  597MOL0     C78736   7.540   5.214   0.128 -0.9992  0.7855 -0.0719
  597MOL0     C78737   6.773   4.977   0.378 -1.0610 -0.0735  0.2816
  597MOL0     C78738   6.670   4.894   0.398  0.2279  0.2556 -0.4612
  597MOL0     H78739   6.544   4.415   0.422 -0.3068 -2.0674  1.8817
  597MOL0     H78740   6.398   4.233   0.464 -0.1005 -0.2088 -0.7937
  597MOL0     H78741   5.956   4.332   0.512 -1.2640 -0.8872  0.0687
  597MOL0     H78742   5.999   4.276   0.681  1.4434 -0.3602  0.2536
  597MOL0     H78743   5.973   4.050   0.630  0.6917 -1.5179 -2.3174
  597MOL0     H78744   5.934   4.078   0.458  0.3322 -1.8034  0.7262
  597MOL0     H78745   5.732   4.210   0.514  0.3036 -1.0996 -1.0632
  597MOL0     H78746   5.778   4.220   0.679 -1.8722 -1.3218  1.7718
  597MOL0     H78747   5.684   3.969   0.514 -0.8975  2.4532 -1.7355
  597MOL0     H78748   5.726   3.968   0.697 -0.8924 -1.5297 -0.4965
  597MOL0     H78749   5.498   4.143   0.574 -1.9265  1.2793  2.6622
  597MOL0     H78750   5.545   4.135   0.739 -0.6794 -0.0181  0.3224
  597MOL0     H78751   5.517   3.888   0.744 -0.1199  0.2581 -0.5439
  597MOL0     H78752   5.464   3.884   0.579  1.7303 -0.7351  1.0995
  597MOL0     H78753   5.326   4.051   0.796 -1.3690  0.6095 -0.0583
  597MOL0     H78754   5.270   4.027   0.627 -2.6899  0.3919  1.7335
  597MOL0     H78755   5.279   3.830   0.864  1.8585  0.3227 -0.6960
  597MOL0     H78756   5.242   3.759   0.702 -1.2448  1.0661 -0.9646
  597MOL0     H78757   5.039   3.865   0.568 -2.0052  0.6338 -0.9138
  597MOL0     H78758   4.674   3.954   0.696 -1.5470  0.1270 -2.2368
  597MOL0     H78759   4.695   3.792   0.753 -0.2396  1.6249  0.3696
  597MOL0     H78760   4.810   3.735   0.520 -0.8420 -1.5143 -1.3391
  597MOL0     H78761   4.737   3.900   0.479 -1.3201 -1.8670 -1.6077
  597MOL0     H78762   4.593   3.696   0.430  4.9200 -3.1117  2.1552
  597MOL0     H78763   4.590   3.673   0.596 -0.1054 -0.2932 -0.6488
  597MOL0     H78764   4.434   3.870   0.626 -2.5708 -1.6418  0.4090
  597MOL0     H78765   4.396   3.764   0.498  0.9873 -0.4840 -2.5395
  597MOL0     H78766   4.231   3.944   0.559  0.7637 -2.3285 -1.7353
  597MOL0     H78767   4.059   4.136   0.523  0.5547 -1.2421 -0.9398
  597MOL0     H78768   4.037   4.590   0.474  0.0542 -2.3708  2.3820
  597MOL0     H78769   3.888   4.793   0.472  2.3862 -0.8076  1.3069
  597MOL0     H78770   3.556   4.705   0.250 -1.4639 -0.0074  1.0297
  597MOL0     H78771   3.627   4.865   0.235  1.4051 -2.6842 -0.6859
  597MOL0     H78772   3.429   4.947   0.368 -0.0644 -0.3135  1.1561
  597MOL0     H78773   3.361   4.784   0.386  0.2402  2.4860  3.4701
  597MOL0     H78774   3.353   4.768   0.129 -0.5665 -1.7765  2.0068
  597MOL0     H78775   3.414   4.939   0.127 -0.8633  1.8613  0.5464
  597MOL0     H78776   3.138   4.828   0.225  0.3176 -0.2999  0.7435
  597MOL0     H78777   3.197   4.992   0.269 -0.1500  0.2960 -0.5926
  597MOL0     H78778   3.168   4.877  -0.003 -0.1173  1.0109 -1.9790
  597MOL0     H78779   3.253   5.032   0.043  0.6701 -2.1623  0.1823
  597MOL0     H78780   3.048   5.112  -0.034  0.4015 -1.7176 -0.5699
  597MOL0     H78781   3.047   5.120   0.144 -0.3724 -1.0070  0.6718
  597MOL0     H78782   2.917   4.902  -0.018  2.6197 -0.1981 -0.7477
  597MOL0     H78783   2.903   4.926   0.153  3.0886 -0.9382 -0.8974
  597MOL0     H78784   2.700   5.022   0.039 -0.7764  2.4139 -1.0012
  597MOL0     H78785   2.791   5.138  -0.046 -0.3703 -0.1254 -0.9344
  597MOL0     H78786   3.565   4.524   0.413 -0.4607 -0.6701 -1.8402
  597MOL0     H78787   3.705   4.340   0.425 -2.3033  1.1942 -0.2552
  597MOL0     H78788   4.326   4.305   0.227 -0.2800 -1.8027 -0.6984
  597MOL0     H78789   4.482   4.134   0.268  0.0852 -1.1763 -0.6124
  597MOL0     H78790   6.090   4.507   0.602  0.5894  0.5596  1.3284
  597MOL0     H78791   6.234   4.690   0.553  0.9035  0.4668 -0.7628
  597MOL0     H78792   6.715   4.708   0.110 -1.2550 -2.1054  2.6235
  597MOL0     H78793   6.900   4.842   0.087  1.5672 -1.3034  0.4436
  597MOL0     H78794   6.951   5.123   0.041 -0.1993  0.8048  0.6989
  597MOL0     H78795   7.046   4.969   0.068  0.3788  0.9375 -0.6849
  597MOL0     H78796   7.121   5.253   0.168  0.1089  0.8217 -0.0918
  597MOL0     H78797   7.219   5.120   0.187 -1.7654 -1.8680  0.7136
  597MOL0     H78798   7.137   5.213  -0.088 -1.5544 -0.6442  1.8560
  597MOL0     H78799   7.243   5.079  -0.060 -0.3666 -1.5203  1.4486
  597MOL0     H78800   7.376   5.280  -0.133  0.0676 -1.4431  0.0515
  597MOL0     H78801   7.312   5.379  -0.004 -0.9116  0.0387 -0.8953
  597MOL0     H78802   7.602   5.160   0.197 -0.0431 -1.5105 -2.5709
  597MOL0     H78803   6.794   5.053   0.453  0.7137 -1.3890  1.1933
  597MOL0     H78804   6.604   4.912   0.482 -0.0919  1.6437 -0.9848
  598MOL0     O78805  10.035   4.710   7.400  0.5438  0.3288 -0.0453
  598MOL0     C78806  10.151   4.679   7.364  0.8833  1.3630 -0.6007
  598MOL0     O78807  10.267   4.727   7.407 -0.1158  0.4248 -0.4785
  598MOL0     C78808  10.293   4.797   7.526  0.3811 -0.2843 -0.1155
  598MOL0     C78809  10.411   4.869   7.530  0.2316 -0.2791 -0.6989
  598MOL0     C78810  10.440   4.960   7.635  0.4172  0.2412 -0.4883
  598MOL0     C78811  10.347   4.984   7.735 -0.4914 -0.2008 -0.8891
  598MOL0     O78812  10.360   5.068   7.847  0.0296 -0.0569  0.0047
  598MOL0     C78813  10.482   5.142   7.853  0.0062 -0.2257  0.6108
  598MOL0     C78814  10.499   5.234   7.984 -0.3410 -0.2163  0.0873
  598MOL0     C78815  10.409   5.356   7.975 -0.4427 -0.5107 -0.4028
  598MOL0     C78816  10.432   5.433   8.111 -0.0055 -0.1730  0.5908
  598MOL0     C78817  10.400   5.583   8.083 -0.0379  0.1214 -0.3891
  598MOL0     C78818  10.487   5.669   8.179 -0.4159 -0.2258  0.2600
  598MOL0     C78819  10.459   5.821   8.142 -0.1764  0.3818 -0.3768
  598MOL0     C78820  10.538   5.923   8.231  0.6727 -0.5502  0.3952
  598MOL0     N78821  10.481   6.063   8.255 -0.1868  0.4452 -0.2416
  598MOL0     C78822  10.359   6.110   8.220 -0.2990 -0.3615 -1.1919
  598MOL0     C78823  10.351   6.229   8.268 -0.5243  0.5336 -0.2236
  598MOL0     C78824  10.235   6.327   8.255  0.1229 -0.6502  1.0394
  598MOL0     C78825  10.213   6.383   8.392  0.4095  0.1729  0.2532
  598MOL0     C78826  10.118   6.501   8.398 -0.5849  0.6573  0.1683
  598MOL0     C78827   9.970   6.470   8.373 -0.0331  0.1878 -0.5500
  598MOL0     O78828   9.920   6.402   8.492 -0.8382 -0.5309 -0.0367
  598MOL0     C78829   9.783   6.395   8.514  0.1328 -0.2946  0.0974
  598MOL0     C78830   9.733   6.383   8.640 -0.9056  0.7029  0.1857
  598MOL0     C78831   9.598   6.383   8.663  0.3558  0.0609  0.7839
  598MOL0     C78832   9.509   6.381   8.553 -0.3051 -0.1859 -1.1528
  598MOL0     C78833   9.364   6.367   8.581 -0.3862 -1.2134 -0.0436
  598MOL0     O78834   9.273   6.421   8.486  0.1862  0.0430  0.1865
  598MOL0     C78835   9.137   6.426   8.511  0.4026  0.2255  0.4276
  598MOL0     C78836   9.078   6.452   8.637  0.6477 -0.4325 -0.8538
  598MOL0     C78837   8.935   6.445   8.648  0.2911 -0.1758 -0.7005
  598MOL0     C78838   8.850   6.439   8.536  0.7713  0.4292  0.4121
  598MOL0     O78839   8.714   6.453   8.550 -0.0082 -0.1992  0.4887
  598MOL0     C78840   8.646   6.456   8.683 -0.1706 -0.3914  0.0725
  598MOL0     C78841   8.507   6.478   8.641  0.1751 -0.4603  0.6460
  598MOL0     C78842   8.425   6.548   8.746  0.6430  0.1928  0.2902
  598MOL0     C78843   8.277   6.564   8.707 -0.1562  0.5923 -0.7018
  598MOL0     C78844   8.219   6.675   8.799 -0.5098 -0.3959  0.8037
  598MOL0     C78845   8.066   6.687   8.779  0.5417 -0.5092 -0.6962
  598MOL0     C78846   7.998   6.790   8.875  0.0251  0.7923 -0.4943
  598MOL0     C78847   7.848   6.823   8.851 -0.1577  0.4647  0.0209
  598MOL0    Cl78848   7.744   6.736   8.733 -0.0817 -0.1043  0.3646
  598MOL0     C78849   8.914   6.432   8.413 -0.2557 -0.0703  0.1370
  598MOL0     C78850   9.053   6.427   8.400 -0.0562  1.0587  0.0200
  598MOL0     O78851   9.332   6.309   8.690 -0.0183 -0.9031  0.7485
  598MOL0     C78852   9.557   6.378   8.422  0.7990 -0.1023  0.3693
  598MOL0     C78853   9.694   6.378   8.403 -0.2145 -0.3131 -0.5258
  598MOL0     N78854  10.474   6.258   8.329 -0.1275  0.2769  0.6268
  598MOL0     N78855  10.551   6.157   8.322  1.2915 -0.8139 -0.2917
  598MOL0     C78856  10.227   4.911   7.731 -0.1497 -0.2628  0.2965
  598MOL0     C78857  10.201   4.815   7.633 -0.5340 -0.7034  0.8229
  598MOL0     C78858  10.156   4.548   7.295 -0.2378 -0.7430 -0.5118
  598MOL0     C78859  10.040   4.465   7.303  1.2970  0.0474  0.9593
  598MOL0     C78860  10.050   4.336   7.248 -0.5539  0.4892  0.4187
  598MOL0     C78861  10.177   4.285   7.201 -1.3126 -0.2353  0.7024
  598MOL0     O78862  10.190   4.152   7.176  0.3524  0.4210 -0.3340
  598MOL0     C78863  10.326   4.099   7.137  1.1122  0.1656 -0.0625
  598MOL0     C78864  10.304   3.960   7.086 -0.8408  0.5279 -0.0433
  598MOL0     C78865  10.261   3.857   7.186  0.0253  0.1274 -0.1632
  598MOL0     C78866  10.111   3.833   7.203 -0.0315  0.0458 -0.4174
  598MOL0     C78867  10.083   3.742   7.315  0.8345 -0.4603 -0.5439
  598MOL0     C78868  10.055   3.661   7.394 -1.0317  0.3439  0.3492
  598MOL0     C78869  10.283   4.382   7.183 -0.0282 -0.0854  0.1857
  598MOL0     C78870  10.272   4.512   7.226 -0.0561  0.6720 -0.4651
  598MOL0     H78871  10.473   4.839   7.447  0.9985 -0.4613 -0.0776
  598MOL0     H78872  10.538   5.008   7.629  2.2763 -2.9795  1.0549
  598MOL0     H78873  10.493   5.218   7.776  1.4575  0.7160  1.6935
  598MOL0     H78874  10.570   5.077   7.849 -0.1527 -0.3743 -1.0300
  598MOL0     H78875  10.606   5.257   7.996 -0.3997 -0.1223  0.4376
  598MOL0     H78876  10.472   5.173   8.070 -0.0110 -0.1699  0.2253
  598MOL0     H78877  10.305   5.341   7.946 -1.1432  2.5490  0.1966
  598MOL0     H78878  10.446   5.428   7.900 -0.1365 -0.1483  0.0894
  598MOL0     H78879  10.382   5.377   8.190  1.1542  0.1133  1.5544
  598MOL0     H78880  10.539   5.432   8.133  0.8975 -0.8804 -3.0721
  598MOL0     H78881  10.292   5.600   8.082 -0.5038 -2.4461 -0.4580
  598MOL0     H78882  10.431   5.614   7.982 -2.7067  0.2808 -1.2298
  598MOL0     H78883  10.590   5.644   8.151 -0.5662  0.3966 -0.9043
  598MOL0     H78884  10.463   5.654   8.285 -0.4754 -1.2429  0.1154
  598MOL0     H78885  10.491   5.842   8.039  0.5231 -0.5241 -0.3595
  598MOL0     H78886  10.350   5.834   8.147 -0.2786 -0.7801  0.8145
  598MOL0     H78887  10.637   5.940   8.189 -0.6375  1.9688 -1.9840
  598MOL0     H78888  10.552   5.886   8.333  1.0779  0.8537  0.8697
  598MOL0     H78889  10.280   6.069   8.158 -0.6618  0.5546 -1.3592
  598MOL0     H78890  10.144   6.292   8.207 -0.0630  1.4651 -0.3002
  598MOL0     H78891  10.276   6.404   8.189 -0.1155 -1.6596 -0.3272
  598MOL0     H78892  10.310   6.415   8.433 -0.0269  3.1451 -0.7713
  598MOL0     H78893  10.171   6.311   8.462  0.8865 -2.0182 -1.5999
  598MOL0     H78894  10.120   6.561   8.490 -0.7898  3.6153 -1.6068
  598MOL0     H78895  10.159   6.579   8.333  0.3241  0.7415  0.8233
  598MOL0     H78896   9.946   6.404   8.289 -0.4409  0.9123 -1.0196
  598MOL0     H78897   9.919   6.566   8.358 -0.0038  0.5593  1.4714
  598MOL0     H78898   9.809   6.389   8.717 -0.1350 -2.7762 -0.1307
  598MOL0     H78899   9.552   6.379   8.761 -0.7600  2.7502  0.4417
  598MOL0     H78900   9.131   6.454   8.732 -3.0040 -0.7837  1.3735
  598MOL0     H78901   8.909   6.453   8.753  1.3914  1.9701 -0.5514
  598MOL0     H78902   8.684   6.534   8.749 -2.7387  1.0036 -0.0002
  598MOL0     H78903   8.669   6.367   8.743 -0.7273  0.4986  1.6560
  598MOL0     H78904   8.457   6.386   8.609 -1.7048 -0.1133  2.3795
  598MOL0     H78905   8.512   6.536   8.549 -0.2223  0.0734  0.9554
  598MOL0     H78906   8.467   6.647   8.766  2.0454 -0.1303 -0.9332
  598MOL0     H78907   8.429   6.492   8.840 -1.1877 -0.3977  0.0534
  598MOL0     H78908   8.264   6.586   8.601  1.2266  0.4691 -0.9239
  598MOL0     H78909   8.230   6.467   8.725  0.8077 -0.0129 -1.3381
  598MOL0     H78910   8.279   6.765   8.781 -1.1989  0.1250  1.0850
  598MOL0     H78911   8.233   6.644   8.903  1.2466  0.0729  0.7372
  598MOL0     H78912   8.013   6.594   8.801 -0.6049  0.1460 -0.6432
  598MOL0     H78913   8.037   6.713   8.677 -1.3396 -1.3771 -0.4191
  598MOL0     H78914   8.010   6.751   8.977 -1.1313 -1.9319 -1.2985
  598MOL0     H78915   8.058   6.881   8.869 -0.7357  1.2685 -1.0407
  598MOL0     H78916   7.848   6.927   8.815  2.9686  0.0660 -1.4726
  598MOL0     H78917   7.797   6.815   8.947 -1.2559  2.5840 -0.3317
  598MOL0     H78918   8.846   6.406   8.333 -0.2029 -0.0336  0.0807
  598MOL0     H78919   9.093   6.419   8.300 -1.3462 -0.1454 -0.4273
  598MOL0     H78920   9.487   6.364   8.341  1.1389  0.7433 -0.0726
  598MOL0     H78921   9.732   6.360   8.302 -3.1276 -1.1016 -1.5659
  598MOL0     H78922  10.156   4.902   7.812 -0.9798  0.1937 -0.3619
  598MOL0     H78923  10.107   4.761   7.631 -1.6164  1.0833  0.8197
  598MOL0     H78924   9.943   4.507   7.326  0.9398 -1.3108  2.1282
  598MOL0     H78925   9.969   4.265   7.237  0.7811 -0.7800 -2.0581
  598MOL0     H78926  10.389   4.107   7.226  0.9689 -0.7950  0.1383
  598MOL0     H78927  10.373   4.163   7.062  0.5491 -1.1219 -1.5728
  598MOL0     H78928  10.224   3.971   7.012 -2.5260 -1.0206  1.4661
  598MOL0     H78929  10.393   3.926   7.033  0.0111 -0.8960  2.1920
  598MOL0     H78930  10.319   3.861   7.279 -0.8249 -2.4013  0.5563
  598MOL0     H78931  10.304   3.764   7.146 -0.1314 -1.0144  2.1216
  598MOL0     H78932  10.044   3.920   7.204 -0.0417  0.0389 -0.4802
  598MOL0     H78933  10.077   3.777   7.115 -5.0375 -0.6082  1.6124
  598MOL0     H78934  10.021   3.588   7.465 -1.4259 -2.2054 -2.2821
  598MOL0     H78935  10.376   4.361   7.130 -1.5415 -0.1302 -2.6370
  598MOL0     H78936  10.364   4.570   7.227  1.2936 -1.3051  2.3987
  599MOL0     O78937   0.293   0.030   4.544  0.2323  0.3880 -0.1197
  599MOL0     C78938   0.326   0.029   4.430  0.3763 -0.2373  0.0457
  599MOL0     O78939   0.238   0.036   4.327  0.0590  0.2080 -0.6226
  599MOL0     C78940   0.114   0.093   4.344  0.0636 -0.0918 -0.2881
  599MOL0     C78941   0.098   0.220   4.402 -0.3573 -0.4742  0.1093
  599MOL0     C78942  -0.033   0.272   4.426  0.0555  0.2206 -0.5414
  599MOL0     C78943  -0.148   0.210   4.383 -0.1566  0.7395  0.1339
  599MOL0     O78944  -0.266   0.278   4.414 -0.1042 -0.5885  0.9207
  599MOL0     C78945  -0.371   0.252   4.317 -0.0034 -0.0217 -0.8838
  599MOL0     C78946  -0.457   0.373   4.339  0.1890  0.3020  0.1439
  599MOL0     C78947  -0.544   0.389   4.211 -0.6369 -0.6170  1.1980
  599MOL0     C78948  -0.625   0.259   4.179  0.2496  0.0723 -0.2904
  599MOL0     C78949  -0.730   0.284   4.072 -1.6976  1.0247  0.0582
  599MOL0     C78950  -0.853   0.349   4.134 -0.1614 -0.2089  0.1043
  599MOL0     C78951  -0.951   0.428   4.044 -0.0284  1.0372 -0.2983
  599MOL0     C78952  -1.031   0.334   3.951  0.0473  0.0156  0.1210
  599MOL0     N78953  -1.159   0.294   4.005 -0.4567  0.2199 -0.5307
  599MOL0     C78954  -1.199   0.163   4.022 -0.7776  0.2347  0.5645
  599MOL0     C78955  -1.338   0.164   4.007 -0.4684 -0.1465  0.4598
  599MOL0     C78956  -1.434   0.052   3.992 -0.6144 -0.9620 -0.1077
  599MOL0     C78957  -1.502   0.029   3.858  0.1665  0.7665  0.6377
  599MOL0     C78958  -1.589  -0.095   3.872  0.2222  0.3184 -0.0579
  599MOL0     C78959  -1.736  -0.092   3.926 -0.1652 -0.1962 -0.1064
  599MOL0     O78960  -1.811  -0.034   3.820  0.1117  0.6000  0.5423
  599MOL0     C78961  -1.943  -0.042   3.824 -0.8670 -0.4060  0.0381
  599MOL0     C78962  -2.012  -0.002   3.706  0.2333  0.1124 -0.4752
  599MOL0     C78963  -2.148  -0.017   3.697 -0.7981  0.4232 -0.4074
  599MOL0     C78964  -2.217  -0.075   3.805  0.0712  0.4747  0.4467
  599MOL0     C78965  -2.362  -0.094   3.787  0.6584  0.0164  0.3426
  599MOL0     O78966  -2.431  -0.041   3.678 -0.0575  0.3690  0.7302
  599MOL0     C78967  -2.569  -0.040   3.700 -0.7577 -1.1627  1.1846
  599MOL0     C78968  -2.656  -0.064   3.593  0.6214 -0.5871 -0.6189
  599MOL0     C78969  -2.794  -0.055   3.608  0.3639  0.1139  0.2708
  599MOL0     C78970  -2.854  -0.018   3.727 -0.6553 -0.4755 -0.3399
  599MOL0     O78971  -2.995  -0.003   3.741  0.1327  0.3783 -0.8947
  599MOL0     C78972  -3.055   0.011   3.870  0.0098  0.9997 -0.6150
  599MOL0     C78973  -3.202  -0.018   3.843 -0.3482 -0.0049 -0.6986
  599MOL0     C78974  -3.281   0.029   3.963  0.3037 -0.1525 -0.0762
  599MOL0     C78975  -3.430   0.001   3.934  0.7331  0.5263 -1.0599
  599MOL0     C78976  -3.517   0.074   4.032  0.1416  0.1177 -0.5051
  599MOL0     C78977  -3.656   0.049   4.005  0.7501  0.4638 -0.0017
  599MOL0     C78978  -3.745   0.126   4.106 -0.1928  0.0501 -0.1212
  599MOL0     C78979  -3.884   0.064   4.130  0.4786  0.2331  0.1325
  599MOL0    Cl78980  -3.986   0.099   3.983 -0.0509  0.1352  0.5498
  599MOL0     C78981  -2.759   0.004   3.839 -0.3242  0.3119  1.0088
  599MOL0     C78982  -2.623   0.001   3.820 -0.0569 -0.2268  0.0741
  599MOL0     O78983  -2.409  -0.186   3.860 -0.4595  0.3841 -0.3273
  599MOL0     C78984  -2.149  -0.125   3.920 -0.0837  0.2901 -0.1391
  599MOL0     C78985  -2.016  -0.104   3.928 -0.1320 -0.1305 -0.1491
  599MOL0     N78986  -1.379   0.294   3.994 -0.0801 -0.4660 -0.0644
  599MOL0     N78987  -1.276   0.365   3.979  0.2880 -0.5686  0.0710
  599MOL0     C78988  -0.133   0.085   4.315  0.0997 -0.6279 -0.3013
  599MOL0     C78989  -0.001   0.034   4.302  1.3018  0.2017  0.2622
  599MOL0     C78990   0.464  -0.001   4.397 -1.7878  0.3841  0.2092
  599MOL0     C78991   0.509  -0.046   4.264 -0.4949 -0.5441 -0.1209
  599MOL0     C78992   0.647  -0.081   4.242  0.2061 -0.0773 -0.4099
  599MOL0     C78993   0.745  -0.047   4.344 -0.0637 -0.0202  0.3206
  599MOL0     O78994   0.879  -0.067   4.315 -0.7106 -0.0566  0.2931
  599MOL0     C78995   0.967   0.014   4.389 -0.4812  0.9171 -0.9261
  599MOL0     C78996   1.118   0.015   4.344 -0.3009  1.0046 -0.1578
  599MOL0     C78997   1.177  -0.130   4.360 -0.5180 -0.1522  0.6521
  599MOL0     C78998   1.325  -0.135   4.309  0.1420  0.3813  0.0926
  599MOL0     C78999   1.413  -0.098   4.422  0.5944  0.0981 -0.6517
  599MOL0     C79000   1.471  -0.063   4.522 -1.1138  0.1549 -0.5851
  599MOL0     C79001   0.693  -0.003   4.472 -0.0084 -0.3513  0.6448
  599MOL0     C79002   0.553   0.020   4.500 -0.1389 -0.2348 -0.0873
  599MOL0     H79003   0.186   0.279   4.427 -1.6143  0.5156  2.4573
  599MOL0     H79004  -0.026   0.374   4.460 -2.3256  0.4711 -0.6193
  599MOL0     H79005  -0.434   0.167   4.346 -2.4718  1.9851  0.0361
  599MOL0     H79006  -0.332   0.259   4.215 -1.3093  0.9836 -1.3417
  599MOL0     H79007  -0.387   0.458   4.337  1.1759 -0.4681  0.9019
  599MOL0     H79008  -0.510   0.371   4.434  3.8497 -2.2917  2.4119
  599MOL0     H79009  -0.490   0.417   4.121 -1.9079 -0.9390  0.3134
  599MOL0     H79010  -0.615   0.470   4.230  0.5792  0.7515  0.1473
  599MOL0     H79011  -0.547   0.190   4.146  0.5392 -0.0408  0.6149
  599MOL0     H79012  -0.670   0.212   4.267 -1.2624  0.7029 -0.6877
  599MOL0     H79013  -0.754   0.191   4.020  2.4703 -0.6195  0.7209
  599MOL0     H79014  -0.698   0.351   3.992 -0.5640  1.7413  1.0737
  599MOL0     H79015  -0.817   0.430   4.198  2.3567  0.4866 -2.0396
  599MOL0     H79016  -0.906   0.274   4.193  0.5858 -2.5563 -2.0501
  599MOL0     H79017  -1.025   0.480   4.106  1.9429 -0.0215  3.1834
  599MOL0     H79018  -0.890   0.501   3.990  0.5077  1.9494  1.4711
  599MOL0     H79019  -0.966   0.254   3.913 -0.1283  0.3680 -0.9481
  599MOL0     H79020  -1.046   0.380   3.853 -0.5863 -2.1460 -0.8634
  599MOL0     H79021  -1.129   0.081   4.019 -0.9752  0.0684  0.4404
  599MOL0     H79022  -1.511   0.064   4.069  0.0362  1.9851  0.1922
  599MOL0     H79023  -1.378  -0.039   4.017  1.9814  0.6462  0.2416
  599MOL0     H79024  -1.418   0.021   3.788  3.5392  2.3203  4.1755
  599MOL0     H79025  -1.561   0.119   3.839 -0.6415  0.8619  3.2356
  599MOL0     H79026  -1.599  -0.131   3.769 -1.5059  0.4459  0.0380
  599MOL0     H79027  -1.535  -0.172   3.927  1.6583  1.5328  0.2755
  599MOL0     H79028  -1.752  -0.033   4.017 -2.4990  1.2085 -1.3370
  599MOL0     H79029  -1.772  -0.194   3.946  0.9532 -0.9192 -1.5765
  599MOL0     H79030  -1.950   0.039   3.627 -1.2782  0.9124 -1.2900
  599MOL0     H79031  -2.201  -0.006   3.603  0.5880  0.7182 -1.1893
  599MOL0     H79032  -2.617  -0.100   3.499  0.0147 -2.8052 -0.0788
  599MOL0     H79033  -2.863  -0.080   3.528 -0.5602  0.7189  0.8579
  599MOL0     H79034  -3.046   0.119   3.890 -0.8243  0.9334  0.2091
  599MOL0     H79035  -3.019  -0.055   3.949 -0.0861  1.3838 -0.2440
  599MOL0     H79036  -3.204  -0.127   3.834  1.7990 -0.4246  2.4463
  599MOL0     H79037  -3.238   0.027   3.750  1.4338 -0.6645 -1.7674
  599MOL0     H79038  -3.266   0.135   3.983  0.1150 -0.5609  2.6568
  599MOL0     H79039  -3.248  -0.025   4.053 -0.7379 -0.9648 -0.1670
  599MOL0     H79040  -3.458   0.047   3.839 -0.1493 -0.7717 -1.4604
  599MOL0     H79041  -3.458  -0.103   3.951 -2.2117  1.4672  0.8957
  599MOL0     H79042  -3.495   0.181   4.025 -1.5666  0.5722  0.4668
  599MOL0     H79043  -3.478   0.055   4.133  0.2522 -0.4547 -0.6543
  599MOL0     H79044  -3.686  -0.055   3.997 -0.1944  0.4011  3.1082
  599MOL0     H79045  -3.672   0.092   3.906 -2.3516  1.6378  0.8749
  599MOL0     H79046  -3.691   0.154   4.197  0.2306  0.4524 -0.4924
  599MOL0     H79047  -3.759   0.229   4.071  2.8913  0.0237 -1.7142
  599MOL0     H79048  -3.933   0.110   4.217 -0.3891 -0.3023 -0.0582
  599MOL0     H79049  -3.867  -0.040   4.158  1.7541  0.7571  1.4000
  599MOL0     H79050  -2.787   0.018   3.943  1.5240 -0.4692  1.6462
  599MOL0     H79051  -2.557   0.023   3.904  1.3271  0.1356 -1.0679
  599MOL0     H79052  -2.207  -0.159   4.005 -1.8885  2.1602 -0.5347
  599MOL0     H79053  -1.967  -0.142   4.017 -1.3984  0.3983  0.8045
  599MOL0     H79054  -0.228   0.039   4.290 -1.4140  1.7029  0.7853
  599MOL0     H79055   0.015  -0.062   4.253  0.1798  0.0659  0.1432
  599MOL0     H79056   0.433  -0.068   4.189 -0.8273  5.4581 -2.0998
  599MOL0     H79057   0.664  -0.127   4.145 -1.0950 -1.2005 -0.1424
  599MOL0     H79058   0.974  -0.018   4.493 -0.0654 -1.6783 -1.6701
  599MOL0     H79059   0.921   0.113   4.380 -2.2787  0.2468  0.2942
  599MOL0     H79060   1.104   0.046   4.240 -1.7870  4.0746  0.8653
  599MOL0     H79061   1.179   0.083   4.403  2.4330 -2.6323  1.5763
  599MOL0     H79062   1.110  -0.194   4.303  0.8671 -0.4919 -0.6664
  599MOL0     H79063   1.172  -0.161   4.464  1.1769  1.3152  1.2307
  599MOL0     H79064   1.370  -0.233   4.288  4.1008  2.4006 -1.8473
  599MOL0     H79065   1.334  -0.085   4.212 -0.4317  0.0019 -0.1608
  599MOL0     H79066   1.524  -0.022   4.606  1.2591  1.1135 -2.4338
  599MOL0     H79067   0.754   0.020   4.559  1.3016  1.4926 -0.6726
  599MOL0     H79068   0.522   0.063   4.595 -0.1677  0.0641 -0.2311
  600MOL0     O79069   8.582   1.911   9.032  0.4054  0.2045  1.1519
  600MOL0     C79070   8.612   1.963   8.924  1.2481  0.0651 -1.0897
  600MOL0     O79071   8.522   2.024   8.843  0.2820 -1.0550  0.1898
  600MOL0     C79072   8.388   2.034   8.874  0.5147  0.0980 -0.0890
  600MOL0     C79073   8.307   1.973   8.775 -0.3783 -0.4186 -0.6262
  600MOL0     C79074   8.168   1.960   8.787 -0.3088  0.0183  0.7649
  600MOL0     C79075   8.109   2.019   8.903 -0.7983  0.1808 -0.3675
  600MOL0     O79076   7.978   2.045   8.915  0.1724  0.2274  0.3141
  600MOL0     C79077   7.905   2.101   8.806 -0.0619  0.5894  0.5022
  600MOL0     C79078   7.767   2.142   8.855 -0.7004 -0.1748  0.4111
  600MOL0     C79079   7.684   2.033   8.915 -0.7666 -0.1165  0.4238
  600MOL0     C79080   7.540   2.080   8.918 -0.9725  1.2514  0.3553
  600MOL0     C79081   7.464   1.977   8.995  1.3925 -0.1958 -0.1738
  600MOL0     C79082   7.321   2.007   9.004  0.2543 -0.8241 -0.0875
  600MOL0     C79083   7.297   2.119   9.108  0.1589  0.8729 -0.1479
  600MOL0     C79084   7.143   2.135   9.143 -0.1383  0.0167  0.4080
  600MOL0     N79085   7.069   2.193   9.026  0.3457 -0.2135  0.5722
  600MOL0     C79086   7.002   2.120   8.930 -0.2924  0.1252 -0.3939
  600MOL0     C79087   6.936   2.217   8.856  0.3252  0.6801 -0.6708
  600MOL0     C79088   6.864   2.196   8.731 -0.3520 -0.0440  0.2900
  600MOL0     C79089   6.721   2.246   8.746  0.0619  0.2738  0.5537
  600MOL0     C79090   6.709   2.400   8.732  0.3891  0.2614  0.4783
  600MOL0     C79091   6.560   2.444   8.742  0.4325  1.2605 -0.2964
  600MOL0     O79092   6.483   2.378   8.637 -0.1943  0.4128  0.3738
  600MOL0     C79093   6.350   2.402   8.632  1.1602  0.4083  0.0317
  600MOL0     C79094   6.293   2.359   8.514 -0.5189  0.0734  0.2330
  600MOL0     C79095   6.160   2.392   8.497  0.1782 -0.5305  0.8076
  600MOL0     C79096   6.080   2.465   8.595 -0.4736 -0.7501  0.6548
  600MOL0     C79097   5.942   2.502   8.564 -0.3650  1.0100  0.4211
  600MOL0     O79098   5.875   2.406   8.490  0.5258 -0.0010 -0.0888
  600MOL0     C79099   5.746   2.434   8.448 -0.2642  0.6162 -0.7431
  600MOL0     C79100   5.725   2.492   8.322  0.1494  0.7007  0.5407
  600MOL0     C79101   5.597   2.488   8.264 -0.2386 -1.0721  0.5660
  600MOL0     C79102   5.487   2.456   8.340 -0.7954  0.0639 -0.3050
  600MOL0     O79103   5.359   2.477   8.303  0.0903 -0.5001  0.3885
  600MOL0     C79104   5.324   2.478   8.159  0.3824  0.5876 -0.4731
  600MOL0     C79105   5.304   2.618   8.115  0.8885  0.5137 -0.6752
  600MOL0     C79106   5.170   2.675   8.159  0.2725  0.1463 -0.5647
  600MOL0     C79107   5.060   2.638   8.052  0.6030 -0.0240  0.7417
  600MOL0     C79108   4.913   2.661   8.116 -0.5168  0.0476 -0.3199
  600MOL0     C79109   4.818   2.702   8.006 -0.9566  0.0158 -0.4035
  600MOL0     C79110   4.671   2.719   8.037  0.0844  0.2717  0.1707
  600MOL0     C79111   4.611   2.605   8.122 -0.3011 -0.5817  0.4622
  600MOL0    Cl79112   4.598   2.437   8.037 -0.1996 -0.1711  0.1320
  600MOL0     C79113   5.503   2.416   8.470  0.1870 -0.0126  0.3911
  600MOL0     C79114   5.633   2.403   8.522 -0.3154 -0.2255 -0.1563
  600MOL0     O79115   5.903   2.613   8.605 -0.1965 -0.1887  0.2503
  600MOL0     C79116   6.137   2.487   8.721 -0.5974 -1.0400 -0.5242
  600MOL0     C79117   6.279   2.468   8.737 -0.0301  0.2387  0.6131
  600MOL0     N79118   6.953   2.335   8.919  0.2996  0.8091 -0.6154
  600MOL0     N79119   7.024   2.326   9.026 -0.8870 -0.2592 -0.4331
  600MOL0     C79120   8.198   2.085   8.997 -0.5046 -0.3102 -0.7022
  600MOL0     C79121   8.329   2.094   8.986 -0.2782  0.6297  0.3243
  600MOL0     C79122   8.746   1.953   8.886 -0.1561  0.6452  0.3925
  600MOL0     C79123   8.847   1.911   8.974 -0.6019  0.4327  0.4436
  600MOL0     C79124   8.980   1.888   8.931 -0.5862  0.5690  0.8812
  600MOL0     C79125   9.016   1.905   8.795 -0.4701  0.9702 -0.0041
  600MOL0     O79126   9.150   1.890   8.772 -0.2954  0.3880  0.0243
  600MOL0     C79127   9.196   1.909   8.638  0.9556  0.5554 -0.1056
  600MOL0     C79128   9.334   1.837   8.642  0.2447  0.0086 -0.0395
  600MOL0     C79129   9.389   1.827   8.505 -0.3089 -0.0835 -0.1016
  600MOL0     C79130   9.532   1.778   8.508  0.0373 -0.6379  0.3044
  600MOL0     C79131   9.625   1.880   8.553 -0.6509  0.6773  0.9011
  600MOL0     C79132   9.711   1.940   8.606  1.4287 -1.2763  0.1802
  600MOL0     C79133   8.913   1.942   8.704 -0.0722  0.0739 -0.6459
  600MOL0     C79134   8.781   1.975   8.753 -0.7861  0.2223  0.6221
  600MOL0     H79135   8.353   1.950   8.679 -0.9010 -0.5785 -0.8415
  600MOL0     H79136   8.103   1.916   8.712  1.0114  2.2085 -1.8358
  600MOL0     H79137   7.888   2.032   8.723 -0.4559 -1.9799  2.5585
  600MOL0     H79138   7.954   2.192   8.773 -0.4636  1.4264  2.1227
  600MOL0     H79139   7.710   2.189   8.774  2.7408  1.2101 -1.4460
  600MOL0     H79140   7.786   2.217   8.932 -1.8780  0.7100 -0.1275
  600MOL0     H79141   7.724   1.997   9.011  3.0138 -3.2792 -2.0465
  600MOL0     H79142   7.700   1.944   8.853  0.5953 -0.1284  0.7454
  600MOL0     H79143   7.538   2.178   8.968 -3.8748  0.2065  2.4830
  600MOL0     H79144   7.499   2.089   8.817  1.0177  2.8255 -0.3884
  600MOL0     H79145   7.506   1.971   9.096 -0.4912 -0.9975  0.6143
  600MOL0     H79146   7.468   1.883   8.940  1.9811 -0.0561 -0.3752
  600MOL0     H79147   7.266   1.916   9.030 -1.0936 -1.2424 -3.8115
  600MOL0     H79148   7.286   2.042   8.906  3.5301 -4.4681 -2.8763
  600MOL0     H79149   7.342   2.098   9.205 -1.6826 -0.4670  0.4856
  600MOL0     H79150   7.333   2.214   9.068  2.2266  0.0477 -0.3805
  600MOL0     H79151   7.133   2.199   9.231 -1.9184  0.2504  0.0725
  600MOL0     H79152   7.098   2.040   9.174  0.5427 -0.0958  1.0767
  600MOL0     H79153   7.023   2.017   8.904  0.8787  0.5102 -1.0871
  600MOL0     H79154   6.861   2.090   8.705  1.3617 -0.2459  0.7860
  600MOL0     H79155   6.916   2.257   8.656 -0.2775  1.1463  1.2689
  600MOL0     H79156   6.696   2.220   8.850 -1.1377 -3.7871 -0.5873
  600MOL0     H79157   6.656   2.188   8.681 -0.5262 -0.5687  1.8531
  600MOL0     H79158   6.763   2.453   8.811 -0.2805 -1.7730  2.4187
  600MOL0     H79159   6.740   2.425   8.630  2.7874 -0.9622  0.8285
  600MOL0     H79160   6.556   2.553   8.734  0.3871  1.3295  0.6138
  600MOL0     H79161   6.523   2.415   8.841 -1.3286 -0.7375 -1.4438
  600MOL0     H79162   6.337   2.299   8.435 -0.1396 -2.3329  2.1492
  600MOL0     H79163   6.114   2.364   8.403 -0.2470  0.0217  0.8451
  600MOL0     H79164   5.815   2.512   8.265 -0.4935 -1.8286 -1.5436
  600MOL0     H79165   5.583   2.537   8.168 -2.3092  1.6326  2.0657
  600MOL0     H79166   5.233   2.422   8.135  0.2402  1.3213 -1.7726
  600MOL0     H79167   5.403   2.433   8.098  1.4210 -1.6906  2.3006
  600MOL0     H79168   5.293   2.609   8.006 -0.5062  1.3414 -0.6343
  600MOL0     H79169   5.391   2.677   8.145  2.3345 -2.0512  0.5339
  600MOL0     H79170   5.185   2.782   8.170  2.4628 -0.2266  0.5833
  600MOL0     H79171   5.147   2.634   8.258  3.5106  1.8250  1.0323
  600MOL0     H79172   5.062   2.706   7.967 -1.1048  0.9434  1.4321
  600MOL0     H79173   5.058   2.531   8.026  0.3668  0.0984  0.2481
  600MOL0     H79174   4.913   2.727   8.203 -0.2086  0.8023 -0.8858
  600MOL0     H79175   4.879   2.564   8.155  3.5222 -0.5299  2.4221
  600MOL0     H79176   4.819   2.621   7.932 -1.2246 -1.4472  1.1045
  600MOL0     H79177   4.848   2.799   7.967 -0.0194 -0.3621 -0.6578
  600MOL0     H79178   4.676   2.811   8.097 -1.3362  2.2204 -2.4917
  600MOL0     H79179   4.619   2.749   7.945  2.6241 -0.9300 -1.7902
  600MOL0     H79180   4.510   2.638   8.147 -0.7370 -1.6245  0.1215
  600MOL0     H79181   4.658   2.600   8.220 -2.9897  0.0248  1.8732
  600MOL0     H79182   5.417   2.396   8.533  1.6575  0.0924  2.5213
  600MOL0     H79183   5.646   2.365   8.622  0.9551  2.3427  0.7349
  600MOL0     H79184   6.075   2.546   8.788 -0.3850 -1.6593  0.2248
  600MOL0     H79185   6.327   2.504   8.827 -0.5406 -1.6041  1.6993
  600MOL0     H79186   8.166   2.153   9.075  2.3044  0.4208 -0.0837
  600MOL0     H79187   8.379   2.151   9.063  0.2285 -0.4135  0.7911
  600MOL0     H79188   8.820   1.882   9.074  1.5733 -0.7124  0.7627
  600MOL0     H79189   9.061   1.849   8.992  0.1843 -0.4241 -0.7348
  600MOL0     H79190   9.225   2.013   8.618  2.2445  0.3204  0.4345
  600MOL0     H79191   9.123   1.869   8.567 -3.1882  0.8267  3.5123
  600MOL0     H79192   9.415   1.892   8.690  1.1617 -0.4650 -1.0003
  600MOL0     H79193   9.334   1.738   8.689  0.5871  0.0065 -0.0443
  600MOL0     H79194   9.383   1.928   8.463  0.4163 -0.9474 -2.4651
  600MOL0     H79195   9.330   1.754   8.449  1.4124 -2.4119  0.9855
  600MOL0     H79196   9.531   1.698   8.584 -2.2263 -2.0031 -1.0453
  600MOL0     H79197   9.564   1.736   8.412 -1.8052 -1.1413 -0.1293
  600MOL0     H79198   9.791   1.998   8.648 -1.6137  1.6497  2.4886
  600MOL0     H79199   8.943   1.950   8.600  1.0529 -1.5015 -0.4818
  600MOL0     H79200   8.714   2.002   8.672 -2.1909 -3.7708  0.1975
  601MOL0     O79201   0.833  10.450   0.336 -1.0720  0.0042  0.0812
  601MOL0     C79202   0.884  10.422   0.448 -1.3285  1.2017  0.5633
  601MOL0     O79203   0.825  10.414   0.571  0.1136 -0.4091  0.3915
  601MOL0     C79204   0.688  10.437   0.582 -0.1945  0.4024  1.1151
  601MOL0     C79205   0.650  10.567   0.602 -0.2413  0.0410  0.2341
  601MOL0     C79206   0.518  10.596   0.606  0.7144 -0.8159  0.1372
  601MOL0     C79207   0.421  10.499   0.593 -0.9819  2.0517 -0.7328
  601MOL0     O79208   0.292  10.540   0.595 -0.2252 -0.2435 -0.3229
  601MOL0     C79209   0.185  10.453   0.558  0.5713  0.7408 -0.0233
  601MOL0     C79210   0.056  10.535   0.602 -0.3583 -0.7165  0.0197
  601MOL0     C79211  -0.062  10.440   0.586 -0.0245 -0.0349 -0.8223
  601MOL0     C79212  -0.191  10.507   0.649  0.2853 -0.5757  0.6981
  601MOL0     C79213  -0.254  10.618   0.559  0.1101  0.2128  0.1626
  601MOL0     C79214  -0.347  10.558   0.451  0.0722  0.0587  0.2677
  601MOL0     C79215  -0.397  10.659   0.356 -0.1199 -0.1323  0.5017
  601MOL0     C79216  -0.515  10.619   0.270  1.1249  0.3812  0.6940
  601MOL0     N79217  -0.503  10.483   0.218  0.0840  0.3065 -0.0164
  601MOL0     C79218  -0.421  10.454   0.112  0.1559 -0.6205 -1.1963
  601MOL0     C79219  -0.472  10.335   0.078  0.3630  0.8818  0.0361
  601MOL0     C79220  -0.420  10.255  -0.038 -0.2853  0.0332 -0.3869
  601MOL0     C79221  -0.486  10.297  -0.162  0.9432 -0.1200  0.2979
  601MOL0     C79222  -0.627  10.247  -0.176  0.2616  0.4528  0.5822
  601MOL0     C79223  -0.696  10.307  -0.299 -1.0988  0.3498 -0.2441
  601MOL0     O79224  -0.796  10.225  -0.348  0.4617  0.5666  0.6694
  601MOL0     C79225  -0.862  10.253  -0.464  0.0277 -1.0380  0.5575
  601MOL0     C79226  -0.977  10.192  -0.480  0.5653  0.9428  0.8635
  601MOL0     C79227  -1.062  10.220  -0.589  0.3316 -0.6673  0.1587
  601MOL0     C79228  -1.022  10.310  -0.687  0.1303 -0.1347 -0.7691
  601MOL0     C79229  -1.117  10.348  -0.788  0.0561  0.0516 -0.2367
  601MOL0     O79230  -1.225  10.270  -0.807  0.4494 -0.7462  0.6334
  601MOL0     C79231  -1.317  10.297  -0.910  0.8102 -0.4215 -0.0864
  601MOL0     C79232  -1.448  10.319  -0.867 -1.1555  1.0168 -0.9537
  601MOL0     C79233  -1.545  10.348  -0.955 -0.0354 -1.0405 -0.0453
  601MOL0     C79234  -1.517  10.387  -1.089 -0.6480  0.9588  0.5231
  601MOL0     O79235  -1.623  10.423  -1.165  0.0456 -0.5099 -0.1521
  601MOL0     C79236  -1.602  10.542  -1.243  0.7385 -0.3011 -0.3399
  601MOL0     C79237  -1.714  10.566  -1.339  0.7193 -1.0076  0.4705
  601MOL0     C79238  -1.861  10.550  -1.291 -0.5800 -0.1041 -0.1879
  601MOL0     C79239  -1.956  10.579  -1.410  1.1339 -0.5115  0.7004
  601MOL0     C79240  -2.102  10.556  -1.385 -0.8147 -0.2117 -0.4549
  601MOL0     C79241  -2.173  10.574  -1.519  1.3196 -0.0004 -0.0311
  601MOL0     C79242  -2.318  10.561  -1.491  0.4609  0.0936  1.0716
  601MOL0     C79243  -2.394  10.557  -1.625  0.4424  0.6134  0.0161
  601MOL0    Cl79244  -2.563  10.571  -1.580 -0.4339  0.8806  0.6954
  601MOL0     C79245  -1.381  10.367  -1.130  1.4171 -0.5336 -0.7968
  601MOL0     C79246  -1.278  10.324  -1.042  0.2576  0.3919 -0.0910
  601MOL0     O79247  -1.090  10.455  -0.845  0.1867 -0.0105  0.1606
  601MOL0     C79248  -0.899  10.373  -0.672  0.1558 -0.6480  0.7970
  601MOL0     C79249  -0.823  10.351  -0.563 -0.7608  0.5819 -0.1936
  601MOL0     N79250  -0.556  10.283   0.169 -0.2798 -0.8166 -0.2818
  601MOL0     N79251  -0.578  10.379   0.249  0.2603  0.6479  0.8635
  601MOL0     C79252   0.455  10.356   0.587  0.2551  0.7371  0.5170
  601MOL0     C79253   0.590  10.328   0.572 -0.5143 -0.7539  0.1870
  601MOL0     C79254   1.039  10.410   0.450  0.4051  0.2661  1.1054
  601MOL0     C79255   1.108  10.382   0.324 -0.3488  0.7752  0.3004
  601MOL0     C79256   1.246  10.369   0.324 -0.4026  1.1919 -0.1328
  601MOL0     C79257   1.314  10.365   0.451 -0.4778 -0.4566  0.4436
  601MOL0     O79258   1.445  10.328   0.437 -0.0607  0.2627 -0.5885
  601MOL0     C79259   1.539  10.405   0.512 -0.4220 -0.2917 -0.1158
  601MOL0     C79260   1.677  10.390   0.455  0.9792 -0.7383 -0.4007
  601MOL0     C79261   1.780  10.434   0.560  0.2165 -0.0692 -0.1431
  601MOL0     C79262   1.906  10.479   0.493 -0.2283  0.2031  0.3963
  601MOL0     C79263   1.891  10.624   0.458 -0.0570 -0.2340 -0.7023
  601MOL0     C79264   1.880  10.737   0.424  0.5916 -0.5161 -0.1679
  601MOL0     C79265   1.248  10.397   0.570 -0.1804  0.5303  0.4757
  601MOL0     C79266   1.107  10.424   0.570 -0.2255 -0.5929  0.1235
  601MOL0     H79267   0.726  10.644   0.609  2.4581 -2.4718  0.7770
  601MOL0     H79268   0.471  10.692   0.625 -0.9372 -1.2420 -1.5405
  601MOL0     H79269   0.194  10.367   0.625  2.1542  0.8965  0.0032
  601MOL0     H79270   0.198  10.422   0.454  2.7031  0.7031  0.2027
  601MOL0     H79271   0.044  10.630   0.548 -2.3866  0.0643  1.7285
  601MOL0     H79272   0.071  10.547   0.709  2.2478 -1.0414 -0.2443
  601MOL0     H79273  -0.047  10.345   0.638 -1.1885 -1.1481 -2.4041
  601MOL0     H79274  -0.063  10.414   0.479  1.9178 -2.3199 -0.3840
  601MOL0     H79275  -0.267  10.439   0.687 -1.5139  0.7631 -0.3131
  601MOL0     H79276  -0.148  10.554   0.737  2.1356 -0.8469 -0.0225
  601MOL0     H79277  -0.174  10.680   0.517 -0.2781 -0.5558 -1.8100
  601MOL0     H79278  -0.315  10.688   0.617  0.5868 -1.1226  2.3945
  601MOL0     H79279  -0.433  10.506   0.494  0.6250  0.7194  2.3137
  601MOL0     H79280  -0.292  10.492   0.384  1.4042  1.0326  0.3436
  601MOL0     H79281  -0.428  10.746   0.415  1.0482  1.1967 -0.7575
  601MOL0     H79282  -0.315  10.691   0.292 -0.5394  1.0135  0.5107
  601MOL0     H79283  -0.539  10.685   0.187 -0.2169 -0.7417  0.1637
  601MOL0     H79284  -0.604  10.620   0.334 -1.2370  3.3040 -2.3053
  601MOL0     H79285  -0.348  10.518   0.063 -2.2863  3.3075 -0.2497
  601MOL0     H79286  -0.417  10.148  -0.017 -0.6223  0.5160  2.5560
  601MOL0     H79287  -0.314  10.281  -0.038 -0.4428  0.7766  0.8878
  601MOL0     H79288  -0.437  10.262  -0.253 -0.2234  2.0692 -1.2635
  601MOL0     H79289  -0.485  10.406  -0.166  1.6800 -0.0698  1.3441
  601MOL0     H79290  -0.615  10.139  -0.190 -0.5050 -0.2988  4.5758
  601MOL0     H79291  -0.691  10.263  -0.089  0.4697 -0.5446  0.9397
  601MOL0     H79292  -0.617  10.305  -0.374  0.6052  0.3261  1.4687
  601MOL0     H79293  -0.736  10.403  -0.266  1.3661  1.2266  0.3469
  601MOL0     H79294  -1.005  10.122  -0.402  0.3829  0.8918  0.7540
  601MOL0     H79295  -1.162  10.182  -0.607 -0.5247  1.4156  0.2564
  601MOL0     H79296  -1.465  10.291  -0.764  1.2543  0.9848 -0.5040
  601MOL0     H79297  -1.648  10.341  -0.920  0.0849 -1.6616  0.1917
  601MOL0     H79298  -1.506  10.520  -1.291  2.7152 -0.0903  3.1359
  601MOL0     H79299  -1.587  10.626  -1.174 -0.5316 -2.1560  2.3701
  601MOL0     H79300  -1.691  10.491  -1.415 -0.4606 -2.9617  1.9374
  601MOL0     H79301  -1.709  10.668  -1.376  2.0686 -1.8131 -1.7876
  601MOL0     H79302  -1.877  10.614  -1.204 -1.8737 -2.1345  1.1437
  601MOL0     H79303  -1.867  10.443  -1.270 -0.9594 -0.9097 -3.7515
  601MOL0     H79304  -1.938  10.685  -1.433 -2.7479  0.3060  0.6661
  601MOL0     H79305  -1.919  10.514  -1.490  2.1615  0.7410  0.1204
  601MOL0     H79306  -2.126  10.628  -1.307  1.5186 -0.4191  0.5524
  601MOL0     H79307  -2.096  10.453  -1.349 -0.0730 -0.3042 -0.8167
  601MOL0     H79308  -2.136  10.489  -1.577  3.3340  2.1223 -2.0467
  601MOL0     H79309  -2.155  10.666  -1.575 -0.7690  1.4326  1.5006
  601MOL0     H79310  -2.345  10.468  -1.441 -0.4056 -0.2961 -0.0861
  601MOL0     H79311  -2.358  10.644  -1.432  0.7716  0.4176  0.8348
  601MOL0     H79312  -2.367  10.472  -1.688  0.1426  1.6656 -1.5613
  601MOL0     H79313  -2.370  10.640  -1.691  0.2033 -1.9474 -3.5967
  601MOL0     H79314  -1.352  10.377  -1.234  1.5438 -2.5684 -0.9928
  601MOL0     H79315  -1.177  10.323  -1.080 -0.1425 -0.2283 -1.1674
  601MOL0     H79316  -0.870  10.450  -0.743 -3.7763  2.3515  2.1151
  601MOL0     H79317  -0.724  10.395  -0.551 -0.6079  0.5336 -1.2136
  601MOL0     H79318   0.384  10.274   0.585  0.9130  0.1327 -1.7829
  601MOL0     H79319   0.620  10.224   0.563 -2.1248 -1.1064 -2.0552
  601MOL0     H79320   1.056  10.367   0.230 -0.4537 -1.2452  0.6325
  601MOL0     H79321   1.312  10.343   0.241  1.1865  2.1730  0.7723
  601MOL0     H79322   1.532  10.361   0.612 -1.1110 -0.4286 -0.2206
  601MOL0     H79323   1.512  10.509   0.533 -0.1011 -0.4828  1.3325
  601MOL0     H79324   1.693  10.284   0.430 -0.8084 -1.0224 -0.4838
  601MOL0     H79325   1.681  10.442   0.359  1.7588 -3.0190 -1.6837
  601MOL0     H79326   1.812  10.358   0.632  5.5057  1.2104 -0.7081
  601MOL0     H79327   1.739  10.522   0.612  0.9991  0.9900 -1.2632
  601MOL0     H79328   1.992  10.471   0.561  1.0768 -0.5741 -1.2701
  601MOL0     H79329   1.916  10.418   0.402  2.1025 -0.4930  1.0379
  601MOL0     H79330   1.871  10.841   0.399  0.1598 -0.0509  1.8293
  601MOL0     H79331   1.297  10.405   0.667 -1.4007 -2.6195  1.4585
  601MOL0     H79332   1.056  10.443   0.663 -0.5688 -3.1733  0.5260
  602MOL0     O79333  10.484   0.137   0.368  0.2934 -0.3842 -0.3232
  602MOL0     C79334  10.546   0.141   0.266 -0.5468 -0.6083  1.4906
  602MOL0     O79335  10.539   0.239   0.173  0.5292 -0.2346  0.1093
  602MOL0     C79336  10.460   0.353   0.186 -0.6215 -0.1582  0.1476
  602MOL0     C79337  10.332   0.351   0.244  0.3484  0.3723  0.0141
  602MOL0     C79338  10.259   0.470   0.242  0.3795 -0.2578  0.0575
  602MOL0     C79339  10.295   0.580   0.173 -0.4284 -0.9828  0.5861
  602MOL0     O79340  10.208   0.682   0.160 -0.2648  0.3747  0.2964
  602MOL0     C79341  10.210   0.770   0.051 -0.6382  0.2306 -0.0596
  602MOL0     C79342  10.091   0.870   0.050 -0.6683  0.4765  1.2754
  602MOL0     C79343   9.954   0.805   0.022 -1.1113 -0.9172 -0.7448
  602MOL0     C79344   9.846   0.924   0.003  0.6247 -0.6958 -0.6876
  602MOL0     C79345   9.786   0.982   0.137 -0.7427  0.1193  0.4618
  602MOL0     C79346   9.636   1.021   0.129 -0.8401 -0.5114 -0.2457
  602MOL0     C79347   9.587   1.125   0.229 -0.5567  0.1224  0.4610
  602MOL0     C79348   9.439   1.142   0.223  0.2489 -0.0883  0.4856
  602MOL0     N79349   9.403   1.230   0.107 -0.0501 -0.3901  1.4015
  602MOL0     C79350   9.367   1.360   0.123 -0.0974 -1.0220  0.0239
  602MOL0     C79351   9.302   1.391   0.003  0.4547  0.8663 -0.4762
  602MOL0     C79352   9.248   1.517  -0.029  0.4818  0.6445  1.2059
  602MOL0     C79353   9.234   1.562  -0.170  0.3995  0.3296  0.1895
  602MOL0     C79354   9.371   1.588  -0.234 -0.5653  0.1929  0.2533
  602MOL0     C79355   9.463   1.473  -0.233  0.1094 -0.2919 -0.1181
  602MOL0     O79356   9.568   1.519  -0.322  0.4107 -0.0972  0.3080
  602MOL0     C79357   9.696   1.456  -0.318  1.4560  0.7262  0.1270
  602MOL0     C79358   9.798   1.524  -0.355 -0.6887 -1.3067  0.1885
  602MOL0     C79359   9.934   1.479  -0.352  0.2841  0.0380 -0.4343
  602MOL0     C79360   9.961   1.354  -0.297 -0.0498 -0.1565 -0.0567
  602MOL0     C79361  10.106   1.312  -0.285 -0.0231 -0.3864  0.0553
  602MOL0     O79362  10.131   1.181  -0.279  0.8497 -0.0014 -0.6932
  602MOL0     C79363  10.254   1.130  -0.236 -0.3314 -0.6765 -0.0724
  602MOL0     C79364  10.298   1.138  -0.103  0.7076 -0.4341  0.0721
  602MOL0     C79365  10.422   1.072  -0.069  0.7443  0.0861 -0.4775
  602MOL0     C79366  10.500   0.998  -0.165  0.8463 -0.4308 -1.1656
  602MOL0     O79367  10.612   0.934  -0.106 -0.6122  0.2561  0.1153
  602MOL0     C79368  10.734   0.914  -0.181 -0.5220  0.4229 -0.8153
  602MOL0     C79369  10.833   0.837  -0.095 -0.3501 -0.7773  0.3056
  602MOL0     C79370  10.799   0.696  -0.076  0.0781  0.3808 -0.5308
  602MOL0     C79371  10.910   0.598  -0.038 -0.1917  0.0200 -0.8734
  602MOL0     C79372  11.040   0.595  -0.127 -0.5079  1.0065 -0.3409
  602MOL0     C79373  11.023   0.541  -0.265 -0.3561  0.0216  0.5275
  602MOL0     C79374  11.170   0.516  -0.319 -0.0363 -0.4143  0.7170
  602MOL0     C79375  11.153   0.467  -0.461 -0.3714 -0.5279  0.0295
  602MOL0    Cl79376  11.046   0.335  -0.485 -0.3660  0.1246 -0.0954
  602MOL0     C79377  10.458   0.992  -0.292 -0.6803 -0.2338  0.6960
  602MOL0     C79378  10.333   1.058  -0.326 -1.3705  0.4192  0.9478
  602MOL0     O79379  10.201   1.404  -0.273  0.0435  0.5482 -0.2957
  602MOL0     C79380   9.849   1.276  -0.262  0.5810  0.0172  1.2104
  602MOL0     C79381   9.717   1.323  -0.269 -0.8921 -0.0002 -0.3873
  602MOL0     N79382   9.289   1.271  -0.068 -0.4532  0.5680 -1.0554
  602MOL0     N79383   9.360   1.181  -0.015  0.4826  0.1347 -0.5160
  602MOL0     C79384  10.422   0.582   0.107 -0.8716  0.3567  0.1678
  602MOL0     C79385  10.506   0.468   0.117  0.2044  0.1157 -0.0075
  602MOL0     C79386  10.644   0.040   0.241  0.3421  0.9878 -0.4888
  602MOL0     C79387  10.750   0.061   0.142  0.8900  0.0274  0.1943
  602MOL0     C79388  10.831  -0.041   0.094  1.1618 -0.2759 -0.2614
  602MOL0     C79389  10.811  -0.167   0.156 -0.1182 -0.6683 -0.1016
  602MOL0     O79390  10.893  -0.259   0.123 -0.7841  0.9871 -0.2660
  602MOL0     C79391  11.018  -0.246   0.201  0.6369  0.6789  1.1201
  602MOL0     C79392  11.120  -0.340   0.127  0.0716 -0.5737  0.2740
  602MOL0     C79393  11.138  -0.292  -0.016 -0.0746 -0.3299  0.7394
  602MOL0     C79394  11.241  -0.355  -0.100 -0.4232 -0.1225  0.3279
  602MOL0     C79395  11.201  -0.490  -0.139  0.0209  0.1115 -0.0724
  602MOL0     C79396  11.161  -0.596  -0.175 -0.6290  0.0462  0.4980
  602MOL0     C79397  10.718  -0.192   0.253  0.5139 -0.2034 -0.6569
  602MOL0     C79398  10.624  -0.093   0.279  0.0405 -1.1509 -0.0420
  602MOL0     H79399  10.293   0.264   0.297  1.4248 -1.1028 -1.5220
  602MOL0     H79400  10.158   0.471   0.281  1.0282 -0.3941  1.8248
  602MOL0     H79401  10.216   0.706  -0.037  4.7539 -1.8503  1.3562
  602MOL0     H79402  10.307   0.821   0.048 -0.2103 -0.3201  1.9579
  602MOL0     H79403  10.117   0.946  -0.024 -0.0941 -1.3360 -0.4690
  602MOL0     H79404  10.082   0.922   0.146  0.6185  4.1611 -0.4470
  602MOL0     H79405   9.934   0.739   0.107 -1.9212 -0.3700 -0.5077
  602MOL0     H79406   9.975   0.754  -0.072 -0.3017  1.4071 -1.8895
  602MOL0     H79407   9.891   1.005  -0.055 -0.5878  0.8660  0.4533
  602MOL0     H79408   9.761   0.887  -0.055  0.0341  1.8629 -1.5428
  602MOL0     H79409   9.846   1.061   0.183 -1.8038  0.3206  1.5682
  602MOL0     H79410   9.791   0.902   0.211 -0.5284  0.6066  0.9761
  602MOL0     H79411   9.582   0.926   0.128  0.5685 -1.3696  0.7393
  602MOL0     H79412   9.623   1.065   0.029 -1.8520  0.4698  0.3038
  602MOL0     H79413   9.610   1.087   0.329 -0.8213  0.6217  0.7154
  602MOL0     H79414   9.640   1.217   0.202  0.5815 -0.9392 -1.0737
  602MOL0     H79415   9.398   1.187   0.314  1.4843  0.2713  0.8850
  602MOL0     H79416   9.393   1.046   0.200  1.2855 -0.4174 -0.2664
  602MOL0     H79417   9.387   1.418   0.212  0.6921 -1.6381  0.2585
  602MOL0     H79418   9.313   1.594   0.015 -0.3019  1.3033  1.2266
  602MOL0     H79419   9.150   1.536   0.014  0.0898 -0.6627  0.9259
  602MOL0     H79420   9.182   1.659  -0.170 -1.0847 -0.3997 -2.1696
  602MOL0     H79421   9.166   1.491  -0.217  0.5034 -0.3795  1.0902
  602MOL0     H79422   9.351   1.617  -0.337 -1.7765 -1.2344  0.0520
  602MOL0     H79423   9.412   1.677  -0.186  0.1583 -1.3288  2.6567
  602MOL0     H79424   9.413   1.386  -0.276  3.5171 -1.0724 -3.0184
  602MOL0     H79425   9.500   1.442  -0.135 -0.0594  0.0474  0.0560
  602MOL0     H79426   9.772   1.625  -0.385 -0.2813 -1.0574  0.6535
  602MOL0     H79427  10.004   1.561  -0.364  0.6121 -0.2574 -0.5352
  602MOL0     H79428  10.254   1.206  -0.031 -0.5710 -0.9130 -0.2200
  602MOL0     H79429  10.466   1.077   0.030  0.5351  1.7420 -0.4437
  602MOL0     H79430  10.779   1.011  -0.201  0.8267 -0.2493 -1.1667
  602MOL0     H79431  10.707   0.869  -0.278 -1.0455 -0.0484 -0.4585
  602MOL0     H79432  10.831   0.883   0.004  0.2167 -1.2198  0.5293
  602MOL0     H79433  10.936   0.841  -0.134  0.7824 -1.1499  3.0592
  602MOL0     H79434  10.770   0.656  -0.174  3.8135 -2.4713 -0.6748
  602MOL0     H79435  10.715   0.688  -0.006 -0.6758 -2.2766 -1.6260
  602MOL0     H79436  10.933   0.628   0.065 -0.1258  3.2825 -1.7315
  602MOL0     H79437  10.877   0.495  -0.029  0.7277 -0.1950  0.3504
  602MOL0     H79438  11.115   0.553  -0.058 -2.8985 -0.9779  1.2607
  602MOL0     H79439  11.077   0.697  -0.141 -0.1708  0.9803  0.2842
  602MOL0     H79440  10.961   0.612  -0.319  1.1122  1.2992  0.4648
  602MOL0     H79441  10.978   0.441  -0.255  1.1400 -0.7808 -0.3498
  602MOL0     H79442  11.214   0.617  -0.317 -3.5607  1.2711  1.6379
  602MOL0     H79443  11.227   0.450  -0.254  1.3529  1.7598  1.8302
  602MOL0     H79444  11.247   0.436  -0.507 -1.1284 -3.5908  0.3173
  602MOL0     H79445  11.114   0.552  -0.517 -0.3321 -0.9233 -0.6068
  602MOL0     H79446  10.511   0.943  -0.373 -2.1104  1.9679 -1.7518
  602MOL0     H79447  10.298   1.058  -0.429  0.8063 -1.7727  0.1073
  602MOL0     H79448   9.861   1.182  -0.210 -1.4819 -0.8069  0.3383
  602MOL0     H79449   9.644   1.245  -0.250  1.7212 -1.8120  3.3431
  602MOL0     H79450  10.458   0.655   0.036  3.2682  0.6820  2.2917
  602MOL0     H79451  10.599   0.468   0.061  0.9684  4.3764  0.9100
  602MOL0     H79452  10.771   0.157   0.098 -1.3841  0.7246  0.5095
  602MOL0     H79453  10.911  -0.023   0.024 -0.7031  1.7353 -2.0266
  602MOL0     H79454  11.005  -0.285   0.302 -0.0670 -0.8515  0.4594
  602MOL0     H79455  11.051  -0.142   0.185  0.1506  0.4095 -2.6696
  602MOL0     H79456  11.216  -0.326   0.177 -0.5098 -0.8873  1.5241
  602MOL0     H79457  11.088  -0.445   0.132  1.5359 -1.0551  0.0202
  602MOL0     H79458  11.159  -0.184  -0.018 -0.8513 -0.1652  1.3743
  602MOL0     H79459  11.040  -0.315  -0.059 -0.5485 -1.5949  2.4109
  602MOL0     H79460  11.248  -0.295  -0.191  0.3267 -2.0422 -0.9253
  602MOL0     H79461  11.337  -0.363  -0.047  1.1472  1.6513 -2.0194
  602MOL0     H79462  11.140  -0.699  -0.192  2.5551 -0.2661 -2.9742
  602MOL0     H79463  10.706  -0.293   0.289  3.1617 -0.1758  0.5034
  602MOL0     H79464  10.529  -0.115   0.327  0.0585 -2.7619 -0.6694
  603MOL0     O79465   9.846   5.531   2.026  0.8050  0.1925  0.7576
  603MOL0     C79466   9.863   5.444   1.932  0.3417  1.0781 -0.3738
  603MOL0     O79467   9.770   5.407   1.840  0.6432 -0.1475  0.1511
  603MOL0     C79468   9.636   5.439   1.862 -0.4115 -0.6692 -0.1785
  603MOL0     C79469   9.559   5.471   1.751 -0.1008  0.4325  0.0460
  603MOL0     C79470   9.425   5.513   1.759 -0.9684 -0.1761 -0.6904
  603MOL0     C79471   9.366   5.503   1.886 -0.1423 -0.3150 -0.1485
  603MOL0     O79472   9.235   5.535   1.914 -0.2186 -0.1763  0.0018
  603MOL0     C79473   9.140   5.544   1.813 -0.5094 -0.1739 -0.3342
  603MOL0     C79474   9.006   5.518   1.873 -0.9187  0.4417  0.7256
  603MOL0     C79475   8.884   5.546   1.777  0.7951 -0.4402  0.0636
  603MOL0     C79476   8.756   5.492   1.852 -0.4659  0.7994 -0.2772
  603MOL0     C79477   8.618   5.527   1.774 -0.1969 -0.0624  0.9365
  603MOL0     C79478   8.500   5.443   1.821 -0.4408 -1.1208 -0.2159
  603MOL0     C79479   8.359   5.467   1.749 -0.5960 -0.1916 -0.2825
  603MOL0     C79480   8.257   5.375   1.798  0.2813  0.7223  0.3329
  603MOL0     N79481   8.133   5.405   1.723 -0.0978  0.0487  0.3497
  603MOL0     C79482   8.046   5.320   1.655  0.1868 -0.1667  0.0355
  603MOL0     C79483   7.934   5.392   1.629 -0.3122  1.8664  0.0133
  603MOL0     C79484   7.825   5.343   1.538  0.2946  0.3220  0.4867
  603MOL0     C79485   7.683   5.395   1.567  0.0130  0.1808  0.0676
  603MOL0     C79486   7.585   5.279   1.552 -0.0931  0.1933  0.1256
  603MOL0     C79487   7.441   5.331   1.547 -0.8528  0.0304  0.6442
  603MOL0     O79488   7.386   5.337   1.678 -0.1004  0.3814  0.8533
  603MOL0     C79489   7.249   5.338   1.693 -0.9449 -0.1318  0.0185
  603MOL0     C79490   7.162   5.371   1.584 -0.8328  1.0957  0.5305
  603MOL0     C79491   7.019   5.368   1.607 -0.4363 -0.2991 -1.3369
  603MOL0     C79492   6.959   5.352   1.738 -0.4973  0.2708 -0.8642
  603MOL0     C79493   6.813   5.374   1.753  1.0323  0.5231 -0.7360
  603MOL0     O79494   6.768   5.411   1.881 -0.3897  0.5336  0.7962
  603MOL0     C79495   6.634   5.410   1.906 -0.1071 -0.6816  0.2410
  603MOL0     C79496   6.575   5.529   1.894 -1.0589 -0.0857  0.6006
  603MOL0     C79497   6.437   5.531   1.908  0.5417  0.6544  0.1939
  603MOL0     C79498   6.359   5.408   1.938 -0.3651  0.1055  0.0345
  603MOL0     O79499   6.221   5.396   1.958  1.0289  0.3074 -0.3517
  603MOL0     C79500   6.146   5.519   1.962 -0.2226 -0.3877  0.5509
  603MOL0     C79501   5.997   5.485   2.005  0.3552  0.3844  0.1541
  603MOL0     C79502   5.999   5.420   2.143 -0.5494 -0.3032 -0.9170
  603MOL0     C79503   5.855   5.410   2.193  0.0148 -0.1233 -0.6028
  603MOL0     C79504   5.857   5.281   2.285  0.2797  0.0758 -0.2642
  603MOL0     C79505   5.724   5.259   2.356  0.1160 -0.3780  0.2672
  603MOL0     C79506   5.716   5.366   2.472 -0.0926 -0.2826 -0.2234
  603MOL0     C79507   5.578   5.385   2.502  0.5767  0.5639 -0.6580
  603MOL0    Cl79508   5.563   5.458   2.677 -0.1096  0.3230  0.2576
  603MOL0     C79509   6.434   5.293   1.951  0.0774  0.6379 -0.5578
  603MOL0     C79510   6.571   5.298   1.940  0.1718 -0.0164 -0.4060
  603MOL0     O79511   6.736   5.343   1.658  0.1078 -0.2444 -0.4103
  603MOL0     C79512   7.059   5.321   1.845  0.6757  0.1434  0.1408
  603MOL0     C79513   7.196   5.317   1.823  0.3593 -1.1540 -0.3706
  603MOL0     N79514   7.949   5.509   1.678 -0.0705  0.1076  0.3424
  603MOL0     N79515   8.065   5.521   1.733  0.3964 -0.1510 -0.8492
  603MOL0     C79516   9.446   5.478   1.997  0.4882  0.1263 -0.2329
  603MOL0     C79517   9.576   5.445   1.986  0.4383  0.3289 -0.1532
  603MOL0     C79518  10.001   5.392   1.916  0.7887  0.1925  0.5369
  603MOL0     C79519  10.094   5.404   2.015 -0.0017  0.0556 -0.4411
  603MOL0     C79520  10.224   5.345   1.996 -0.5822 -0.7401 -0.7035
  603MOL0     C79521  10.254   5.266   1.891  0.1894  0.3841  1.0491
  603MOL0     O79522  10.377   5.205   1.864 -0.3781  0.4052  0.1352
  603MOL0     C79523  10.473   5.204   1.969  0.1219  0.3232  0.7387
  603MOL0     C79524  10.607   5.127   1.935  0.4642 -0.0799 -0.7982
  603MOL0     C79525  10.582   4.981   1.905 -0.2414 -0.0160  0.1004
  603MOL0     C79526  10.705   4.901   1.857 -0.0821 -0.3249  0.3184
  603MOL0     C79527  10.792   4.875   1.969 -0.1593  0.3807 -0.5466
  603MOL0     C79528  10.859   4.835   2.069 -0.6031  0.3386  0.5179
  603MOL0     C79529  10.156   5.249   1.794 -1.5217  0.3741 -0.5566
  603MOL0     C79530  10.032   5.311   1.802 -0.0766 -0.2521  0.1957
  603MOL0     H79531   9.597   5.481   1.649  1.6902  0.7906  0.7164
  603MOL0     H79532   9.363   5.536   1.673 -3.8838  0.2828  1.3852
  603MOL0     H79533   9.150   5.465   1.738 -3.7567 -0.7539 -0.3101
  603MOL0     H79534   9.151   5.647   1.776 -0.1899 -0.5564 -1.3303
  603MOL0     H79535   8.987   5.575   1.964 -2.5675 -1.3802  1.5916
  603MOL0     H79536   8.991   5.416   1.910  1.0513  0.3922  1.5187
  603MOL0     H79537   8.900   5.506   1.676  4.4954  1.5473 -0.3199
  603MOL0     H79538   8.858   5.651   1.759 -2.5931 -1.4618 -1.7381
  603MOL0     H79539   8.768   5.383   1.841 -1.9819  0.4982  0.6999
  603MOL0     H79540   8.733   5.525   1.953  1.2628 -0.8410  0.7049
  603MOL0     H79541   8.631   5.513   1.666  2.3159  1.0894  1.0214
  603MOL0     H79542   8.595   5.633   1.781 -2.2941 -0.4424  0.4208
  603MOL0     H79543   8.488   5.456   1.929  0.5873  1.1523 -0.3124
  603MOL0     H79544   8.534   5.340   1.809  1.5131 -0.7221  1.2964
  603MOL0     H79545   8.325   5.570   1.766  0.0521  0.2492 -1.5431
  603MOL0     H79546   8.372   5.455   1.641 -0.9651 -4.0855 -0.0170
  603MOL0     H79547   8.245   5.373   1.906 -1.5060  1.0986  0.1736
  603MOL0     H79548   8.298   5.277   1.773 -0.9662  0.2878 -0.0896
  603MOL0     H79549   8.058   5.218   1.622 -0.0635 -0.5754  1.1614
  603MOL0     H79550   7.826   5.234   1.527  0.5556  0.2535  1.1732
  603MOL0     H79551   7.850   5.375   1.436 -3.8529 -0.4116 -0.9615
  603MOL0     H79552   7.656   5.472   1.495 -0.2978 -0.2195 -0.2449
  603MOL0     H79553   7.674   5.445   1.664  1.7415  0.2164  0.2522
  603MOL0     H79554   7.603   5.217   1.464 -1.9412 -0.7200  0.3299
  603MOL0     H79555   7.592   5.211   1.638 -3.6584 -1.7015 -0.8723
  603MOL0     H79556   7.383   5.271   1.476 -1.6240  2.1799 -0.6356
  603MOL0     H79557   7.441   5.434   1.513  1.7028 -0.1582 -0.0913
  603MOL0     H79558   7.204   5.387   1.485  1.8545 -0.3913  1.3533
  603MOL0     H79559   6.940   5.382   1.534 -0.6273 -4.0344 -2.0297
  603MOL0     H79560   6.643   5.612   1.875  1.6691 -2.6006 -1.5761
  603MOL0     H79561   6.385   5.625   1.895 -0.2729  0.2248  0.2543
  603MOL0     H79562   6.145   5.568   1.864  0.4352  0.5731  1.0094
  603MOL0     H79563   6.185   5.589   2.037 -1.3336  0.2162  0.5790
  603MOL0     H79564   5.951   5.413   1.936  1.1729 -1.7622  1.7147
  603MOL0     H79565   5.929   5.570   2.015 -5.8493 -3.5377 -2.5231
  603MOL0     H79566   6.050   5.483   2.217 -0.3063  1.9734 -2.8893
  603MOL0     H79567   6.043   5.320   2.148 -1.2292 -0.5303  1.3010
  603MOL0     H79568   5.830   5.501   2.249  1.7494  1.8553 -2.8259
  603MOL0     H79569   5.788   5.401   2.106  0.2091  0.1135 -0.7773
  603MOL0     H79570   5.932   5.286   2.363 -0.4926 -2.6093  0.7753
  603MOL0     H79571   5.880   5.198   2.217  0.3037 -1.2720  1.3414
  603MOL0     H79572   5.705   5.163   2.404  1.4563 -0.4494  0.7092
  603MOL0     H79573   5.642   5.270   2.284  1.5161 -1.2353 -1.5614
  603MOL0     H79574   5.770   5.332   2.560 -3.9260 -3.5446  1.1740
  603MOL0     H79575   5.760   5.460   2.438 -0.4700 -0.6990 -1.9541
  603MOL0     H79576   5.524   5.291   2.495  2.1210 -0.2219 -3.0754
  603MOL0     H79577   5.526   5.454   2.435 -2.5137  0.5152  1.4880
  603MOL0     H79578   6.388   5.202   1.988  0.1458  0.2724 -1.3533
  603MOL0     H79579   6.619   5.201   1.943 -2.7939 -1.5795  0.7994
  603MOL0     H79580   7.012   5.305   1.942 -1.7371  1.3274 -0.7346
  603MOL0     H79581   7.264   5.283   1.900  0.0507 -0.5977  0.1586
  603MOL0     H79582   9.401   5.489   2.095 -1.2165 -2.1124 -0.6732
  603MOL0     H79583   9.621   5.429   2.083 -2.3126  1.9546  1.5098
  603MOL0     H79584  10.071   5.456   2.108 -0.9812 -1.4559  0.1988
  603MOL0     H79585  10.304   5.361   2.068 -0.5892  1.7318 -1.1391
  603MOL0     H79586  10.425   5.168   2.060 -1.9163  2.2239  0.4830
  603MOL0     H79587  10.504   5.307   1.989 -1.6921  0.2476  5.1714
  603MOL0     H79588  10.652   5.171   1.844  2.0800  1.2841  0.5836
  603MOL0     H79589  10.688   5.131   2.009  1.9685  1.1905 -2.4084
  603MOL0     H79590  10.503   4.974   1.829 -0.5361 -2.2235  0.5466
  603MOL0     H79591  10.553   4.926   1.995  3.1605 -2.3877 -0.0653
  603MOL0     H79592  10.666   4.811   1.809  1.3189  0.2498 -2.1095
  603MOL0     H79593  10.765   4.963   1.789 -0.3347 -2.1335 -1.6457
  603MOL0     H79594  10.926   4.799   2.144 -2.6855  0.3168  2.4823
  603MOL0     H79595  10.184   5.182   1.713  4.2880  1.2402  0.2963
  603MOL0     H79596   9.955   5.291   1.727  0.4555 -1.4866 -0.0386
  604MOL0     O79597   6.799   3.290  10.286  0.8267  0.2025  0.1674
  604MOL0     C79598   6.864   3.385  10.338 -0.2549 -0.1260  0.3607
  604MOL0     O79599   6.832   3.453  10.449  0.1485  0.0545  0.4794
  604MOL0     C79600   6.734   3.411  10.541  0.8591 -0.0802  0.3938
  604MOL0     C79601   6.712   3.271  10.571  0.0562  0.8573  0.0237
  604MOL0     C79602   6.628   3.246  10.683 -1.0024  0.0472  0.3087
  604MOL0     C79603   6.551   3.354  10.737 -0.6958  0.6462  0.3357
  604MOL0     O79604   6.465   3.324  10.840  1.1056 -0.3618 -0.6207
  604MOL0     C79605   6.325   3.353  10.794  0.5218  0.2236 -0.3308
  604MOL0     C79606   6.239   3.273  10.876  0.4723  1.2685 -0.0697
  604MOL0     C79607   6.090   3.285  10.844  0.4296 -0.1435 -0.3633
  604MOL0     C79608   5.982   3.207  10.929 -0.0061 -0.1421  0.7032
  604MOL0     C79609   5.996   3.059  10.920 -0.0987 -0.3175 -0.4183
  604MOL0     C79610   5.871   2.978  10.964 -0.1765 -0.4520  0.6774
  604MOL0     C79611   5.794   3.023  11.089  0.3436  0.4260  0.1292
  604MOL0     C79612   5.750   2.897  11.168  0.2729 -0.2585 -0.0895
  604MOL0     N79613   5.633   2.830  11.127 -0.3210 -0.7912 -0.5044
  604MOL0     C79614   5.631   2.701  11.108 -0.7212  0.1962  0.4583
  604MOL0     C79615   5.510   2.675  11.059  0.9305  0.6957  0.9460
  604MOL0     C79616   5.473   2.540  11.005  0.3498  1.0246  0.0759
  604MOL0     C79617   5.320   2.525  10.985 -0.6600 -0.5113  0.0056
  604MOL0     C79618   5.247   2.498  11.111 -0.2256  0.7266 -0.8391
  604MOL0     C79619   5.097   2.483  11.087  0.5341 -0.0213  0.0410
  604MOL0     O79620   5.030   2.409  11.197 -0.1693 -0.3677 -1.2538
  604MOL0     C79621   4.899   2.425  11.213 -0.0233 -0.7454  0.1520
  604MOL0     C79622   4.809   2.509  11.143  1.0930  1.2192 -0.4539
  604MOL0     C79623   4.676   2.498  11.181 -0.3350 -0.5652 -1.2741
  604MOL0     C79624   4.629   2.420  11.292 -0.0873 -0.3991  0.3317
  604MOL0     C79625   4.491   2.418  11.341 -0.1102  0.6878  0.3839
  604MOL0     O79626   4.454   2.312  11.417  0.4689  0.0857 -0.2823
  604MOL0     C79627   4.328   2.290  11.450 -0.1461 -0.4324 -0.2979
  604MOL0     C79628   4.215   2.320  11.373 -0.2049 -0.4897 -0.6266
  604MOL0     C79629   4.087   2.276  11.424 -0.1556  0.5106 -0.0875
  604MOL0     C79630   4.073   2.206  11.544  0.0503 -0.2607 -0.3530
  604MOL0     O79631   3.960   2.164  11.604  0.1558  0.4602 -0.5198
  604MOL0     C79632   3.848   2.129  11.522 -0.6910 -0.2243 -0.4303
  604MOL0     C79633   3.744   2.057  11.605  0.0209 -0.5950  0.4387
  604MOL0     C79634   3.617   2.057  11.519 -0.2279  0.6793 -0.5873
  604MOL0     C79635   3.512   1.981  11.594  0.2964  0.6956 -0.3704
  604MOL0     C79636   3.371   1.987  11.521 -0.3573  0.0551 -0.3148
  604MOL0     C79637   3.296   1.873  11.574  0.4427  1.1595  0.5557
  604MOL0     C79638   3.150   1.893  11.515  0.2725  0.6685  0.2188
  604MOL0     C79639   3.063   1.781  11.566  0.0086 -0.8655 -0.9182
  604MOL0    Cl79640   2.908   1.798  11.486 -0.3327  0.3085  0.1030
  604MOL0     C79641   4.182   2.186  11.617  0.3008  0.0625  0.5776
  604MOL0     C79642   4.312   2.217  11.564 -0.7675  0.1938 -0.5123
  604MOL0     O79643   4.420   2.508  11.316 -0.2134 -0.0377  0.5614
  604MOL0     C79644   4.726   2.345  11.363  0.1253  0.4240 -1.3289
  604MOL0     C79645   4.864   2.359  11.329 -0.4422  0.2578  0.7330
  604MOL0     N79646   5.430   2.791  11.077 -0.5046  0.2890 -0.0853
  604MOL0     N79647   5.505   2.887  11.117 -0.0584  0.7191  0.2396
  604MOL0     C79648   6.566   3.484  10.688  1.2049 -0.1534  0.1020
  604MOL0     C79649   6.658   3.516  10.593 -0.1855 -0.3306  0.0390
  604MOL0     C79650   7.002   3.411  10.287 -0.0313  0.0013 -0.3151
  604MOL0     C79651   7.055   3.322  10.191 -0.2779 -0.6245 -1.2087
  604MOL0     C79652   7.194   3.325  10.170  0.6413 -0.1339 -0.4141
  604MOL0     C79653   7.278   3.419  10.232 -0.2097 -0.2398 -0.2658
  604MOL0     O79654   7.414   3.421  10.216 -0.0367  0.6224  0.3451
  604MOL0     C79655   7.455   3.400  10.082  0.0072  0.5685  0.2676
  604MOL0     C79656   7.605   3.415  10.072  0.1131  0.1420  0.0449
  604MOL0     C79657   7.695   3.312  10.128 -0.3648 -0.3683  0.1962
  604MOL0     C79658   7.838   3.337  10.087 -0.1647  0.0001 -0.2176
  604MOL0     C79659   7.921   3.238  10.163 -0.3658  0.4926  0.0593
  604MOL0     C79660   7.997   3.176  10.231 -0.0181 -0.2993 -0.4274
  604MOL0     C79661   7.224   3.508  10.326 -0.5394 -0.6322 -0.3844
  604MOL0     C79662   7.088   3.505  10.351 -0.0971  0.1274  0.0653
  604MOL0     H79663   6.762   3.186  10.526 -0.1944 -1.4005  3.6576
  604MOL0     H79664   6.617   3.142  10.709 -3.8909 -0.5166 -2.5756
  604MOL0     H79665   6.306   3.327  10.690 -0.3018 -3.2254  0.5577
  604MOL0     H79666   6.298   3.459  10.800  0.6698  0.2588 -0.2812
  604MOL0     H79667   6.267   3.282  10.981 -0.8175 -1.0622  0.5347
  604MOL0     H79668   6.263   3.171  10.844  1.1074  0.7266  1.9500
  604MOL0     H79669   6.066   3.270  10.739  0.8134  1.4819 -0.7050
  604MOL0     H79670   6.066   3.391  10.853 -1.1044 -0.5825  1.5094
  604MOL0     H79671   5.972   3.244  11.031  0.2853  1.7722  0.0879
  604MOL0     H79672   5.887   3.225  10.877 -1.0783 -0.0536  2.6104
  604MOL0     H79673   6.084   3.027  10.977  0.0719 -0.0250 -0.5158
  604MOL0     H79674   6.008   3.047  10.812 -0.9142  2.7711 -0.9520
  604MOL0     H79675   5.902   2.874  10.978  1.3885  0.0047  0.7701
  604MOL0     H79676   5.804   2.972  10.878  1.8318 -0.5349 -0.9655
  604MOL0     H79677   5.849   3.099  11.146 -0.2932  0.8422  0.2091
  604MOL0     H79678   5.702   3.073  11.057  0.7542  0.8168 -0.4623
  604MOL0     H79679   5.729   2.918  11.273 -1.8346 -4.4174  0.5253
  604MOL0     H79680   5.836   2.830  11.177 -0.1273 -0.9512 -1.2509
  604MOL0     H79681   5.717   2.635  11.115 -0.5271  0.3310 -0.5638
  604MOL0     H79682   5.503   2.454  11.065 -1.8634 -1.1830 -1.7478
  604MOL0     H79683   5.533   2.523  10.915  0.3292  1.7878 -0.0909
  604MOL0     H79684   5.308   2.444  10.912  0.4176 -0.1161 -0.6311
  604MOL0     H79685   5.276   2.613  10.938 -2.1420 -1.4475 -0.4525
  604MOL0     H79686   5.276   2.404  11.159  1.6042  0.9459 -1.4236
  604MOL0     H79687   5.275   2.574  11.185 -2.5412  0.3016  0.5618
  604MOL0     H79688   5.084   2.423  10.996  0.9587  1.3446 -0.9429
  604MOL0     H79689   5.055   2.584  11.081 -0.2542 -0.1988  1.9491
  604MOL0     H79690   4.836   2.578  11.063 -1.3084  0.1243 -2.3415
  604MOL0     H79691   4.610   2.567  11.129 -2.0224 -0.2347  1.1608
  604MOL0     H79692   4.218   2.384  11.286 -1.7467  3.2065  1.7747
  604MOL0     H79693   3.995   2.304  11.375 -0.5528  2.9762  1.8705
  604MOL0     H79694   3.878   2.062  11.440  1.2608 -1.8181  1.4355
  604MOL0     H79695   3.796   2.218  11.487 -3.4950 -1.5615  0.0524
  604MOL0     H79696   3.730   2.104  11.702 -0.7622  2.0687 -0.8614
  604MOL0     H79697   3.771   1.953  11.625  0.8599 -0.0939  2.0476
  604MOL0     H79698   3.630   2.001  11.426 -1.3835 -0.7163  0.0433
  604MOL0     H79699   3.589   2.161  11.506 -0.3821  0.8364  0.8134
  604MOL0     H79700   3.536   1.874  11.597  1.6123  0.8711 -2.5003
  604MOL0     H79701   3.501   2.020  11.696 -2.9833 -1.6392  0.3253
  604MOL0     H79702   3.376   1.978  11.412 -1.5837  1.6480 -0.5315
  604MOL0     H79703   3.320   2.079  11.552  1.7312  1.8416 -1.8604
  604MOL0     H79704   3.291   1.868  11.684  1.4521  0.0856  0.5714
  604MOL0     H79705   3.332   1.783  11.525  0.8084  2.2034 -1.1921
  604MOL0     H79706   3.111   1.983  11.563  1.0494 -0.5113  3.3504
  604MOL0     H79707   3.162   1.893  11.406  1.7881 -6.1675 -0.0555
  604MOL0     H79708   3.039   1.804  11.670 -4.0744  2.0538 -2.2763
  604MOL0     H79709   3.116   1.685  11.557  3.0788  0.5920  0.0819
  604MOL0     H79710   4.161   2.138  11.712 -0.1178 -0.2065  0.3529
  604MOL0     H79711   4.392   2.178  11.627 -0.7026  1.0909 -0.0199
  604MOL0     H79712   4.706   2.280  11.447  1.9540  1.4133 -0.0620
  604MOL0     H79713   4.940   2.293  11.368  0.9509  2.4253  1.9332
  604MOL0     H79714   6.511   3.561  10.741  2.1048  0.7791 -0.2791
  604MOL0     H79715   6.668   3.607  10.534  0.2148 -1.3225 -1.4765
  604MOL0     H79716   6.988   3.243  10.159  0.3440 -1.8617  0.3670
  604MOL0     H79717   7.240   3.246  10.111  1.2996  0.7644 -1.1287
  604MOL0     H79718   7.405   3.470  10.014 -0.5543 -0.5395 -0.4797
  604MOL0     H79719   7.431   3.299  10.049 -1.0154  0.9135 -0.1123
  604MOL0     H79720   7.624   3.411   9.965  1.3113 -1.0174  0.2790
  604MOL0     H79721   7.646   3.508  10.113 -0.2350  0.2787  0.0872
  604MOL0     H79722   7.659   3.218  10.085  0.8252  0.7470 -3.6191
  604MOL0     H79723   7.697   3.315  10.237  0.8250  1.3493  0.1808
  604MOL0     H79724   7.847   3.315   9.980  1.0457 -1.1560  0.0896
  604MOL0     H79725   7.877   3.439  10.096 -3.1807  1.5993 -2.9950
  604MOL0     H79726   8.065   3.121  10.294 -2.4896 -2.2865  0.7204
  604MOL0     H79727   7.279   3.580  10.387  0.7173 -0.2471 -1.9045
  604MOL0     H79728   7.045   3.577  10.419 -1.5785  0.7341 -1.4351
  605MOL0     O79729   0.561   5.612   5.480  0.1522 -0.8075 -0.2711
  605MOL0     C79730   0.592   5.539   5.387 -0.0397  0.5869 -0.7614
  605MOL0     O79731   0.515   5.446   5.329 -0.2253  0.4246  0.1765
  605MOL0     C79732   0.397   5.408   5.386 -0.7162 -0.5253  0.0633
  605MOL0     C79733   0.281   5.434   5.324  0.2489  0.5459 -0.6413
  605MOL0     C79734   0.158   5.404   5.375  0.3645 -0.0607 -0.5268
  605MOL0     C79735   0.157   5.344   5.508 -0.4180 -0.3220  0.4010
  605MOL0     O79736   0.049   5.332   5.590 -1.2444  0.1203  1.1040
  605MOL0     C79737  -0.071   5.272   5.538  0.2762  0.8490 -0.2597
  605MOL0     C79738  -0.176   5.378   5.517 -0.7215 -0.3796 -0.2634
  605MOL0     C79739  -0.299   5.310   5.452  0.7633 -0.1580  0.8498
  605MOL0     C79740  -0.405   5.244   5.542 -0.4859  0.3867 -0.4615
  605MOL0     C79741  -0.517   5.170   5.469 -1.7463 -0.2715 -0.3217
  605MOL0     C79742  -0.630   5.266   5.442  0.0400 -0.2412  0.0230
  605MOL0     C79743  -0.760   5.195   5.391 -0.5360  0.2619 -0.4835
  605MOL0     C79744  -0.850   5.285   5.322 -0.9788  0.2011 -0.2888
  605MOL0     N79745  -0.985   5.238   5.328 -0.0049 -0.3890  0.2881
  605MOL0     C79746  -1.093   5.325   5.328 -1.4464 -0.1423 -0.3260
  605MOL0     C79747  -1.191   5.249   5.364 -0.1379  0.3145 -0.5237
  605MOL0     C79748  -1.332   5.301   5.387  0.3064 -0.2963 -0.2474
  605MOL0     C79749  -1.427   5.240   5.274 -0.7011  0.3246 -0.1741
  605MOL0     C79750  -1.567   5.234   5.323  0.8321  0.1300 -0.1792
  605MOL0     C79751  -1.677   5.224   5.208  0.2166  0.3995 -0.6425
  605MOL0     O79752  -1.633   5.119   5.123 -0.9802  0.8327  0.7123
  605MOL0     C79753  -1.716   5.053   5.039  0.3226  0.9187  0.0263
  605MOL0     C79754  -1.656   4.961   4.949 -0.6584  0.4182 -0.6447
  605MOL0     C79755  -1.731   4.895   4.857 -1.3117  0.6868 -0.0184
  605MOL0     C79756  -1.861   4.925   4.839  0.0309  0.4621  0.8692
  605MOL0     C79757  -1.941   4.854   4.728 -0.1135 -0.0200 -0.5461
  605MOL0     O79758  -2.071   4.898   4.714  0.1778  0.0392 -0.3126
  605MOL0     C79759  -2.140   4.859   4.602  0.2116 -0.2910  0.3189
  605MOL0     C79760  -2.100   4.890   4.468  0.2093 -0.8195 -0.8621
  605MOL0     C79761  -2.177   4.846   4.356 -0.2960  0.4405 -0.8513
  605MOL0     C79762  -2.298   4.777   4.375  0.3603  0.0635 -0.2472
  605MOL0     O79763  -2.386   4.771   4.269  0.3917  0.3590 -0.4333
  605MOL0     C79764  -2.501   4.685   4.285 -0.0861 -0.1610  0.8114
  605MOL0     C79765  -2.469   4.539   4.298 -0.4677  0.2780 -1.3653
  605MOL0     C79766  -2.579   4.442   4.259  0.3425  0.8031 -0.7590
  605MOL0     C79767  -2.718   4.474   4.311 -0.5499 -0.0220 -0.1138
  605MOL0     C79768  -2.726   4.471   4.464  0.8597  0.4139  0.6591
  605MOL0     C79769  -2.679   4.344   4.541  0.1325 -0.8215  0.3402
  605MOL0     C79770  -2.684   4.357   4.693 -0.0828 -0.1866 -0.1748
  605MOL0     C79771  -2.566   4.446   4.744  0.0926  0.4054  0.2287
  605MOL0    Cl79772  -2.564   4.467   4.926  0.5486 -0.4059 -0.6124
  605MOL0     C79773  -2.330   4.735   4.510 -0.0812 -0.5997 -0.5012
  605MOL0     C79774  -2.253   4.775   4.621  0.6880  0.1121  0.1925
  605MOL0     O79775  -1.872   4.783   4.657 -0.3433 -1.1682  0.0038
  605MOL0     C79776  -1.926   5.011   4.926 -0.2225 -0.2168  0.3689
  605MOL0     C79777  -1.853   5.079   5.026  0.4971  0.1359 -0.5062
  605MOL0     N79778  -1.151   5.120   5.401 -0.7548  0.1975  0.1384
  605MOL0     N79779  -1.024   5.121   5.390 -0.2325 -0.1981  0.2986
  605MOL0     C79780   0.275   5.315   5.579  0.8596  0.6380 -0.1824
  605MOL0     C79781   0.395   5.339   5.514 -0.6272 -0.2470  0.5187
  605MOL0     C79782   0.733   5.530   5.353 -0.5399 -0.6686 -0.3490
  605MOL0     C79783   0.783   5.485   5.227 -0.1540 -0.2725 -0.2178
  605MOL0     C79784   0.918   5.504   5.198 -0.4494 -0.0129  0.5870
  605MOL0     C79785   1.008   5.537   5.303 -0.3236 -0.7176  0.0640
  605MOL0     O79786   1.143   5.556   5.280 -0.4365  0.3147 -0.2977
  605MOL0     C79787   1.200   5.455   5.186 -0.0741  0.3606 -1.1284
  605MOL0     C79788   1.344   5.419   5.230 -0.4961 -0.4834 -1.1451
  605MOL0     C79789   1.429   5.547   5.210 -0.2892  0.3043 -0.2122
  605MOL0     C79790   1.582   5.524   5.242  0.3017 -0.6044  0.4093
  605MOL0     C79791   1.612   5.491   5.382 -0.0130 -0.5187  0.4957
  605MOL0     C79792   1.651   5.472   5.495 -0.3328  0.1063  0.3013
  605MOL0     C79793   0.958   5.568   5.426  0.2426 -0.6860  0.0043
  605MOL0     C79794   0.824   5.555   5.453  0.0792 -1.0245 -0.0134
  605MOL0     H79795   0.286   5.505   5.241  2.4665  0.3663 -0.6935
  605MOL0     H79796   0.067   5.430   5.321 -0.4103 -1.7850 -0.1305
  605MOL0     H79797  -0.104   5.195   5.609  3.8369  1.7549  2.6932
  605MOL0     H79798  -0.051   5.220   5.444 -2.6463 -1.0179  0.0093
  605MOL0     H79799  -0.137   5.442   5.438 -0.5648 -2.7182 -2.1786
  605MOL0     H79800  -0.210   5.424   5.611 -1.1225  1.0963 -1.1055
  605MOL0     H79801  -0.281   5.236   5.374  0.5318 -1.9861  2.4674
  605MOL0     H79802  -0.352   5.394   5.406 -0.2651 -0.9531  0.5368
  605MOL0     H79803  -0.354   5.175   5.608 -2.4074 -0.4849  0.1997
  605MOL0     H79804  -0.447   5.320   5.609  1.5952 -0.4165  1.9140
  605MOL0     H79805  -0.555   5.089   5.533 -1.5569  1.3984  2.0133
  605MOL0     H79806  -0.479   5.127   5.376 -0.9637 -0.1393 -0.0713
  605MOL0     H79807  -0.597   5.340   5.368 -0.3586 -0.2079 -0.1199
  605MOL0     H79808  -0.659   5.321   5.532  1.2334  3.5861 -1.7365
  605MOL0     H79809  -0.739   5.113   5.321  1.1669 -0.4761  0.8333
  605MOL0     H79810  -0.806   5.146   5.477 -0.1181  0.8119  0.0604
  605MOL0     H79811  -0.817   5.291   5.218  1.2420  0.5616  0.3913
  605MOL0     H79812  -0.845   5.378   5.379  1.3499 -0.7467  1.1824
  605MOL0     H79813  -1.094   5.433   5.315  1.9314 -0.0605 -1.0446
  605MOL0     H79814  -1.342   5.410   5.388  1.8056 -0.1329  1.8171
  605MOL0     H79815  -1.361   5.260   5.484 -2.7318 -1.4605 -1.5053
  605MOL0     H79816  -1.398   5.136   5.257  1.7146  1.0440 -0.9237
  605MOL0     H79817  -1.416   5.293   5.178 -1.7975  0.0996 -0.4371
  605MOL0     H79818  -1.585   5.147   5.386  0.5311  0.9935  0.9721
  605MOL0     H79819  -1.585   5.327   5.378 -1.1234 -0.6222  0.5487
  605MOL0     H79820  -1.672   5.320   5.156  2.1847  2.1046  2.3555
  605MOL0     H79821  -1.779   5.223   5.248  0.6362  3.4704  0.8449
  605MOL0     H79822  -1.551   4.939   4.962 -1.0602  0.2424  3.7511
  605MOL0     H79823  -1.680   4.837   4.781 -0.9151  1.5122 -0.4012
  605MOL0     H79824  -2.017   4.956   4.444 -2.3869  1.8034 -3.4097
  605MOL0     H79825  -2.148   4.879   4.257 -0.1529  1.3934 -0.5035
  605MOL0     H79826  -2.556   4.702   4.192 -0.6599 -0.1057  1.1509
  605MOL0     H79827  -2.574   4.717   4.360 -0.4279 -0.2217  0.5078
  605MOL0     H79828  -2.437   4.524   4.402 -0.9338  1.7589 -0.9796
  605MOL0     H79829  -2.384   4.511   4.235 -1.2376 -3.4672 -0.9762
  605MOL0     H79830  -2.546   4.340   4.281 -2.6770 -0.1835 -0.3206
  605MOL0     H79831  -2.583   4.441   4.150  4.7857  0.0115 -1.0994
  605MOL0     H79832  -2.757   4.567   4.269  2.8565  1.2526 -0.7225
  605MOL0     H79833  -2.776   4.387   4.277  0.9062 -1.4724  0.9983
  605MOL0     H79834  -2.826   4.483   4.507  0.2771 -3.4939  0.7771
  605MOL0     H79835  -2.664   4.555   4.498  1.9223 -0.4258  0.8509
  605MOL0     H79836  -2.585   4.309   4.499  0.9851  2.3274 -0.6882
  605MOL0     H79837  -2.751   4.263   4.530  0.4829 -1.1861  0.7340
  605MOL0     H79838  -2.783   4.398   4.715 -0.0463  0.0500 -0.4479
  605MOL0     H79839  -2.685   4.260   4.744  3.1603  0.9704  2.4063
  605MOL0     H79840  -2.569   4.546   4.701  0.6237 -0.2603 -1.4135
  605MOL0     H79841  -2.468   4.407   4.715  1.2179  0.4663  3.4690
  605MOL0     H79842  -2.432   4.700   4.524  0.0258 -0.6193  0.2711
  605MOL0     H79843  -2.295   4.742   4.716 -0.2974 -0.7375 -0.5258
  605MOL0     H79844  -2.033   5.031   4.923 -0.3319 -0.8441 -0.0876
  605MOL0     H79845  -1.905   5.144   5.096 -1.2502 -1.3345 -0.3469
  605MOL0     H79846   0.269   5.270   5.677  2.2877  2.0603  0.6126
  605MOL0     H79847   0.485   5.312   5.568 -0.8700 -1.9327  0.1306
  605MOL0     H79848   0.725   5.455   5.140  0.9557 -3.4071  0.0103
  605MOL0     H79849   0.953   5.465   5.102 -1.7648 -1.4844  0.6556
  605MOL0     H79850   1.211   5.496   5.085  3.3731 -0.1817 -1.1082
  605MOL0     H79851   1.139   5.365   5.173 -1.5983  0.9441  1.3493
  605MOL0     H79852   1.339   5.404   5.338 -0.1114  2.3928 -0.6365
  605MOL0     H79853   1.375   5.334   5.170 -0.1804 -1.6076  0.5295
  605MOL0     H79854   1.391   5.621   5.281 -0.3124 -2.2368  2.6549
  605MOL0     H79855   1.425   5.590   5.110 -0.8643  0.3269 -0.1838
  605MOL0     H79856   1.625   5.450   5.174  0.6523 -1.5961  1.6706
  605MOL0     H79857   1.628   5.620   5.217 -0.2671 -0.6192 -0.7471
  605MOL0     H79858   1.705   5.442   5.582  2.3795  0.3328 -1.1799
  605MOL0     H79859   1.027   5.573   5.510 -0.0998 -1.3268  0.3360
  605MOL0     H79860   0.797   5.581   5.554  0.0226 -0.1756 -0.2391
  606MOL0     O79861   5.917   2.247   2.039  0.2846  0.8324  0.2706
  606MOL0     C79862   5.975   2.325   1.968 -1.2835  0.0244 -0.0127
  606MOL0     O79863   5.919   2.438   1.921 -0.0288  0.2634  0.2073
  606MOL0     C79864   5.798   2.494   1.962 -0.0446 -0.3402  0.0360
  606MOL0     C79865   5.705   2.447   2.061 -0.1179 -0.5217  0.3009
  606MOL0     C79866   5.581   2.491   2.067 -0.3354 -0.1586  0.7583
  606MOL0     C79867   5.535   2.607   2.001  0.0481 -0.5399 -0.1287
  606MOL0     O79868   5.413   2.658   2.034  0.5404  0.6321  0.2094
  606MOL0     C79869   5.321   2.648   1.921 -0.1256  0.0884 -0.0456
  606MOL0     C79870   5.185   2.704   1.966 -0.0677 -0.8136  0.2827
  606MOL0     C79871   5.095   2.597   2.025 -0.4959  0.7755 -0.5199
  606MOL0     C79872   4.961   2.646   2.060 -0.2236 -0.1792 -0.0565
  606MOL0     C79873   4.868   2.528   2.090  0.4805  0.2281  0.2832
  606MOL0     C79874   4.814   2.476   1.955 -0.1653  0.6697 -0.9211
  606MOL0     C79875   4.701   2.374   1.983  0.7189  0.2670 -0.4918
  606MOL0     C79876   4.651   2.341   1.848 -0.0689  0.6035  0.2696
  606MOL0     N79877   4.570   2.223   1.860 -0.9715 -0.0070  0.5201
  606MOL0     C79878   4.452   2.218   1.919 -0.5238  0.3232  0.8428
  606MOL0     C79879   4.424   2.085   1.932 -0.4092 -0.0515 -0.4101
  606MOL0     C79880   4.304   2.016   1.998  0.7847 -0.1612 -0.4326
  606MOL0     C79881   4.190   1.996   1.895 -0.3998  0.5971  0.5535
  606MOL0     C79882   4.062   1.967   1.976  0.0437  0.0835 -0.3158
  606MOL0     C79883   4.064   1.834   2.056  0.3456  0.8761 -0.6112
  606MOL0     O79884   4.057   1.707   1.975 -0.0882  0.2063  0.1495
  606MOL0     C79885   3.922   1.690   1.940  0.3300  0.2051  0.5913
  606MOL0     C79886   3.829   1.617   2.016 -0.6110 -0.3627  0.4028
  606MOL0     C79887   3.711   1.581   1.956  0.1739 -0.0572  0.0067
  606MOL0     C79888   3.665   1.625   1.829 -0.6882 -0.0679 -0.2201
  606MOL0     C79889   3.536   1.582   1.773 -0.8748 -0.9928 -0.2267
  606MOL0     O79890   3.498   1.655   1.670 -0.2981 -1.0604  0.1780
  606MOL0     C79891   3.360   1.655   1.638  0.3347  0.7623 -0.1931
  606MOL0     C79892   3.266   1.698   1.726  0.0367  0.1962 -0.6176
  606MOL0     C79893   3.128   1.680   1.702  0.9468  0.2588  0.6630
  606MOL0     C79894   3.089   1.614   1.578  0.2801  0.4018 -0.1520
  606MOL0     O79895   2.953   1.589   1.568 -0.4183  0.2693 -0.1310
  606MOL0     C79896   2.906   1.470   1.503 -0.3817  1.6514 -0.2204
  606MOL0     C79897   2.759   1.482   1.481  1.1463  0.4748  0.2829
  606MOL0     C79898   2.686   1.404   1.594  1.3311  0.4297  0.3069
  606MOL0     C79899   2.542   1.387   1.552  0.0212 -0.1266  0.3266
  606MOL0     C79900   2.457   1.315   1.653 -1.1560 -0.3218 -0.6089
  606MOL0     C79901   2.326   1.280   1.593  0.8050  1.1060  0.0306
  606MOL0     C79902   2.239   1.205   1.692  0.4536  0.5257  0.3817
  606MOL0     C79903   2.104   1.171   1.639 -0.4355 -0.1826  0.3254
  606MOL0    Cl79904   1.999   1.121   1.786 -0.1106  0.1169  0.2976
  606MOL0     C79905   3.192   1.562   1.493  0.0738  0.2280 -0.2829
  606MOL0     C79906   3.322   1.592   1.516 -0.3015  0.0093  0.0099
  606MOL0     O79907   3.476   1.488   1.819  0.2422 -0.7429 -0.3254
  606MOL0     C79908   3.758   1.706   1.763 -0.2857  0.5771 -0.1155
  606MOL0     C79909   3.886   1.738   1.817  0.0645  0.3329  0.8760
  606MOL0     N79910   4.533   2.019   1.882  0.2379 -0.0873  0.9417
  606MOL0     N79911   4.622   2.102   1.843  0.6804 -0.3768 -0.7111
  606MOL0     C79912   5.621   2.662   1.903  0.2401  0.2267  0.0191
  606MOL0     C79913   5.747   2.599   1.877 -0.0795 -0.1380 -1.1736
  606MOL0     C79914   6.100   2.291   1.903 -0.1675 -0.7150 -0.9109
  606MOL0     C79915   6.143   2.154   1.893  0.1456  0.0927 -0.2146
  606MOL0     C79916   6.259   2.118   1.833 -0.9301 -0.0843  0.0091
  606MOL0     C79917   6.341   2.218   1.779 -0.2355 -0.2615  0.2671
  606MOL0     O79918   6.446   2.195   1.698 -0.0996 -0.3788 -0.0053
  606MOL0     C79919   6.532   2.086   1.745 -0.4412  0.6489  0.1102
  606MOL0     C79920   6.676   2.090   1.695 -0.0727  0.3160  1.1118
  606MOL0     C79921   6.777   2.011   1.781  0.6618  0.2798  0.4306
  606MOL0     C79922   6.921   2.030   1.714 -0.1765  0.4707 -0.0088
  606MOL0     C79923   6.926   1.953   1.590 -0.2884 -0.9105  0.7392
  606MOL0     C79924   6.929   1.902   1.479 -0.4025 -0.3621 -1.3206
  606MOL0     C79925   6.306   2.351   1.788  0.2021 -0.3538 -0.2136
  606MOL0     C79926   6.186   2.388   1.862  1.5616  0.3078  0.5141
  606MOL0     H79927   5.730   2.355   2.114 -1.7969 -0.2117  1.7468
  606MOL0     H79928   5.508   2.435   2.125  2.0534 -0.9762  3.1459
  606MOL0     H79929   5.308   2.542   1.897 -0.0617  0.9399 -4.7995
  606MOL0     H79930   5.353   2.710   1.837  1.5720  1.8020  1.7727
  606MOL0     H79931   5.128   2.725   1.875 -0.0889  0.9223  0.6620
  606MOL0     H79932   5.198   2.793   2.028  0.4534  0.1399 -1.1627
  606MOL0     H79933   5.145   2.565   2.117  1.7166 -0.9124 -2.1763
  606MOL0     H79934   5.083   2.508   1.961 -0.6543  2.5711 -3.1354
  606MOL0     H79935   4.973   2.698   2.156  1.3039 -1.2809  0.3955
  606MOL0     H79936   4.910   2.703   1.983 -2.3453 -0.0930  1.3349
  606MOL0     H79937   4.784   2.555   2.155 -0.0618 -1.2628  0.2454
  606MOL0     H79938   4.914   2.448   2.148 -0.2943  1.2886  2.4794
  606MOL0     H79939   4.895   2.421   1.907 -0.4140  0.4594 -1.1014
  606MOL0     H79940   4.776   2.555   1.889 -0.1326 -0.6914 -2.6131
  606MOL0     H79941   4.747   2.288   2.032  2.8667  1.6484  0.0473
  606MOL0     H79942   4.627   2.426   2.044  0.5914  0.0708 -0.4785
  606MOL0     H79943   4.734   2.316   1.782  0.4675 -3.1925  2.1167
  606MOL0     H79944   4.591   2.421   1.803 -3.2328 -2.8290 -2.1813
  606MOL0     H79945   4.391   2.296   1.963  1.6663 -0.0443  5.0760
  606MOL0     H79946   4.266   2.085   2.074 -0.4634 -1.9904  0.6860
  606MOL0     H79947   4.321   1.924   2.054 -3.5509 -1.1338 -0.3319
  606MOL0     H79948   4.214   1.913   1.827 -0.4852  0.6250  0.4890
  606MOL0     H79949   4.174   2.084   1.832 -0.3530  0.2361  0.0314
  606MOL0     H79950   4.044   2.048   2.047  0.9019 -0.8886  1.0645
  606MOL0     H79951   3.977   1.966   1.908 -0.0382  0.0926 -0.2133
  606MOL0     H79952   3.977   1.838   2.122 -0.7855 -0.6910 -1.9149
  606MOL0     H79953   4.147   1.830   2.127 -0.3395  0.8092  0.1925
  606MOL0     H79954   3.863   1.575   2.110 -0.2267  0.6550  0.7368
  606MOL0     H79955   3.660   1.505   2.014 -1.2907 -0.3438 -1.5896
  606MOL0     H79956   3.310   1.747   1.812  3.1834 -1.5241 -1.0965
  606MOL0     H79957   3.053   1.725   1.767 -0.0486 -0.4586  0.0354
  606MOL0     H79958   2.931   1.379   1.558 -0.8678  2.2723  1.0652
  606MOL0     H79959   2.952   1.448   1.406 -3.5934 -2.2874 -1.1069
  606MOL0     H79960   2.729   1.446   1.382 -0.8456  1.4573  0.4903
  606MOL0     H79961   2.733   1.588   1.487 -2.0942 -0.2016 -0.2342
  606MOL0     H79962   2.694   1.457   1.689  2.9160 -1.2417  1.1575
  606MOL0     H79963   2.728   1.306   1.615 -4.5173 -3.0220 -1.5969
  606MOL0     H79964   2.489   1.482   1.549 -2.8664 -1.6601 -0.8504
  606MOL0     H79965   2.539   1.339   1.454  2.1763  2.7147 -1.2686
  606MOL0     H79966   2.450   1.384   1.738  0.5252 -0.8577  0.0152
  606MOL0     H79967   2.498   1.221   1.692 -0.2585  0.4979  0.4640
  606MOL0     H79968   2.345   1.219   1.504 -0.2205  0.4834  0.2278
  606MOL0     H79969   2.279   1.373   1.561  0.3842  0.9381  0.1549
  606MOL0     H79970   2.288   1.109   1.710 -0.2735  0.5470  2.8373
  606MOL0     H79971   2.220   1.259   1.785  0.4805  1.7027 -0.2690
  606MOL0     H79972   2.119   1.083   1.575  1.6379 -0.9805  1.8209
  606MOL0     H79973   2.044   1.252   1.595 -0.9787  0.3964  2.0593
  606MOL0     H79974   3.159   1.499   1.410 -0.5889 -0.5918  0.5832
  606MOL0     H79975   3.394   1.554   1.444  2.0161  1.2717  1.4998
  606MOL0     H79976   3.730   1.752   1.669  0.9900 -1.1058 -1.3735
  606MOL0     H79977   3.947   1.808   1.762  0.1370 -1.9316 -2.1590
  606MOL0     H79978   5.591   2.747   1.842  2.0450  2.0865  1.5800
  606MOL0     H79979   5.812   2.632   1.796 -0.5350  3.5554 -0.2362
  606MOL0     H79980   6.078   2.079   1.939 -0.2005  1.8904  2.4114
  606MOL0     H79981   6.294   2.015   1.825 -0.2578  0.2929 -3.1345
  606MOL0     H79982   6.490   1.990   1.714  0.1357  0.9599 -1.7391
  606MOL0     H79983   6.538   2.087   1.855  0.9133  0.5689  0.0555
  606MOL0     H79984   6.668   2.038   1.599 -1.0233  1.5637  0.4979
  606MOL0     H79985   6.722   2.182   1.659  0.7908 -1.0411 -1.5026
  606MOL0     H79986   6.738   1.911   1.800  0.2830  0.0891 -1.1849
  606MOL0     H79987   6.779   2.052   1.882 -2.8219  2.9691 -0.3961
  606MOL0     H79988   6.932   2.138   1.697 -1.4569  0.7207  0.5528
  606MOL0     H79989   7.000   1.995   1.780 -0.6387 -0.9151 -0.1728
  606MOL0     H79990   6.938   1.871   1.377 -1.9243  1.8727 -2.2097
  606MOL0     H79991   6.374   2.424   1.746 -0.7542 -0.7549 -2.6509
  606MOL0     H79992   6.149   2.488   1.879  1.0553 -0.1385  2.1810
  607MOL0     O79993   0.894   8.711   2.461  0.4259 -0.8430 -0.3289
  607MOL0     C79994   0.822   8.803   2.426  0.8436 -0.7421  0.2631
  607MOL0     O79995   0.708   8.830   2.486  0.9331 -0.0649  0.6397
  607MOL0     C79996   0.658   8.753   2.588  0.2878  0.3603 -0.2407
  607MOL0     C79997   0.737   8.711   2.691  0.7766 -0.1828 -1.0329
  607MOL0     C79998   0.686   8.641   2.795  0.0494 -0.0639  0.2072
  607MOL0     C79999   0.549   8.615   2.808  0.2766  0.2611  0.2676
  607MOL0     O80000   0.503   8.558   2.927  0.1326  0.1673  0.4377
  607MOL0     C80001   0.361   8.550   2.973  0.1455 -0.6041 -0.7572
  607MOL0     C80002   0.318   8.674   3.063  0.1617  0.3215 -0.1908
  607MOL0     C80003   0.167   8.693   3.072 -0.2255  0.3082 -0.8085
  607MOL0     C80004   0.106   8.746   2.940  0.3989 -0.0964 -0.1661
  607MOL0     C80005  -0.035   8.790   2.961  0.6271  0.0604 -0.0067
  607MOL0     C80006  -0.081   8.874   2.842 -0.6510  0.3368 -0.8739
  607MOL0     C80007  -0.240   8.894   2.852 -0.4755  0.5531 -0.2303
  607MOL0     C80008  -0.288   8.991   2.742 -0.0304  0.7146 -0.8862
  607MOL0     N80009  -0.434   9.005   2.746 -0.2353  0.2125  0.2440
  607MOL0     C80010  -0.533   8.919   2.689  0.1063 -0.1382 -0.5407
  607MOL0     C80011  -0.642   9.000   2.671  0.0536 -0.3816  0.6626
  607MOL0     C80012  -0.769   8.957   2.607 -0.0528 -0.2889  0.1783
  607MOL0     C80013  -0.882   8.973   2.715 -0.3075 -0.7612 -0.7079
  607MOL0     C80014  -1.008   8.902   2.670  0.5312 -0.0144  0.2287
  607MOL0     C80015  -1.128   8.983   2.700 -0.1471 -0.9510 -0.0571
  607MOL0     O80016  -1.152   9.030   2.838 -0.1650  1.1979 -0.6637
  607MOL0     C80017  -1.291   9.045   2.869  0.6919 -0.8757  0.3602
  607MOL0     C80018  -1.389   9.114   2.793  0.1531 -0.1945 -0.3541
  607MOL0     C80019  -1.524   9.115   2.820  0.3369  0.1700 -1.0376
  607MOL0     C80020  -1.571   9.057   2.939  0.1282 -0.2483 -0.0396
  607MOL0     C80021  -1.717   9.074   2.983  0.1921 -0.3972  0.8608
  607MOL0     O80022  -1.779   8.971   3.059 -0.4354  0.0266  0.4450
  607MOL0     C80023  -1.917   8.954   3.082 -0.3629 -0.0512  0.0308
  607MOL0     C80024  -1.957   8.826   3.122 -0.2238 -0.7734  0.7788
  607MOL0     C80025  -2.093   8.800   3.142 -0.2205 -0.6392 -0.6297
  607MOL0     C80026  -2.184   8.904   3.137  0.8819  0.8600 -0.6481
  607MOL0     O80027  -2.318   8.901   3.175  0.0889 -0.3796 -0.0108
  607MOL0     C80028  -2.379   8.777   3.201  0.3367 -0.2822 -1.2121
  607MOL0     C80029  -2.534   8.794   3.213 -0.2388 -0.0492 -0.0810
  607MOL0     C80030  -2.609   8.658   3.218 -0.1727 -0.2665 -0.0987
  607MOL0     C80031  -2.765   8.682   3.217 -0.9268 -0.1452  0.2714
  607MOL0     C80032  -2.806   8.696   3.070  1.2593 -0.1115  0.8153
  607MOL0     C80033  -2.953   8.729   3.066 -0.0461  0.3060  0.4872
  607MOL0     C80034  -3.016   8.723   2.923 -0.5362  0.4263  0.2785
  607MOL0     C80035  -3.132   8.819   2.902  0.2399  0.9397 -0.7852
  607MOL0    Cl80036  -3.250   8.796   3.026  0.2007  0.4730 -0.5144
  607MOL0     C80037  -2.144   9.034   3.111 -0.4641  0.0829  1.6847
  607MOL0     C80038  -2.012   9.064   3.076 -0.0706 -0.0454 -0.5482
  607MOL0     O80039  -1.775   9.177   2.940  0.4599  0.6320  0.3299
  607MOL0     C80040  -1.475   9.001   3.028 -0.8670  0.5974 -0.0450
  607MOL0     C80041  -1.339   8.995   2.993 -0.0721 -0.6201 -0.4883
  607MOL0     N80042  -0.608   9.121   2.724 -0.0118 -0.4467  0.1176
  607MOL0     N80043  -0.488   9.126   2.767  0.3688 -0.4417 -0.7546
  607MOL0     C80044   0.465   8.673   2.716 -1.0298 -0.0182 -0.7649
  607MOL0     C80045   0.521   8.744   2.604  0.7826  0.2160  1.1254
  607MOL0     C80046   0.871   8.888   2.319  0.1993 -0.3007 -0.0832
  607MOL0     C80047   0.837   9.020   2.313 -0.0241 -0.3809  0.3202
  607MOL0     C80048   0.889   9.105   2.207  0.8088  0.0561  0.0003
  607MOL0     C80049   0.992   9.059   2.119 -0.0655  0.6095  0.0440
  607MOL0     O80050   1.047   9.134   2.019 -0.5590  0.1369 -0.4515
  607MOL0     C80051   1.164   9.211   2.064  0.3724  1.2842 -0.6033
  607MOL0     C80052   1.205   9.315   1.966  0.2134 -0.7751  0.9251
  607MOL0     C80053   1.324   9.394   2.009 -0.1096  0.2587  0.1042
  607MOL0     C80054   1.372   9.503   1.915  0.6016 -0.0969  0.7373
  607MOL0     C80055   1.423   9.430   1.798  0.4486 -0.8367  0.9963
  607MOL0     C80056   1.471   9.364   1.708  0.5073  1.2443 -1.1307
  607MOL0     C80057   1.030   8.926   2.133  0.2579  0.2392 -0.2223
  607MOL0     C80058   0.970   8.848   2.229  0.4567  0.0352  0.0924
  607MOL0     H80059   0.840   8.744   2.695  1.4453 -2.1728 -0.8619
  607MOL0     H80060   0.761   8.600   2.862 -1.4910 -2.6955  0.4704
  607MOL0     H80061   0.349   8.461   3.036  0.6672  0.2630  0.6106
  607MOL0     H80062   0.288   8.537   2.893  1.0553  0.1808 -1.7301
  607MOL0     H80063   0.350   8.768   3.017 -2.4827  0.2125 -2.5460
  607MOL0     H80064   0.362   8.660   3.162 -1.1366  0.5895  0.4423
  607MOL0     H80065   0.151   8.766   3.152 -2.3924  0.1033 -0.9938
  607MOL0     H80066   0.120   8.601   3.107  0.1774 -0.6037 -2.5488
  607MOL0     H80067   0.166   8.823   2.891 -1.9023  1.9623  0.1022
  607MOL0     H80068   0.106   8.662   2.870 -0.0517  1.0520 -1.5908
  607MOL0     H80069  -0.046   8.861   3.044 -0.4648  0.3928 -0.4181
  607MOL0     H80070  -0.093   8.701   2.985  2.3011 -0.6248  1.7499
  607MOL0     H80071  -0.052   8.824   2.750  2.3149 -3.0048  1.5999
  607MOL0     H80072  -0.016   8.961   2.853  0.5401 -0.7375  1.3548
  607MOL0     H80073  -0.284   8.795   2.834 -1.7547  1.3640 -1.7380
  607MOL0     H80074  -0.265   8.926   2.954  2.7536 -0.7582  1.1403
  607MOL0     H80075  -0.248   8.960   2.645  4.1467 -0.6553  1.0449
  607MOL0     H80076  -0.250   9.093   2.753  2.1967  0.0095 -1.5547
  607MOL0     H80077  -0.511   8.818   2.656  3.4081 -0.2405  1.4336
  607MOL0     H80078  -0.768   8.849   2.592 -0.7040 -0.2751 -0.0022
  607MOL0     H80079  -0.781   9.012   2.513 -1.4281 -0.2576  0.3596
  607MOL0     H80080  -0.894   9.081   2.713 -0.5588 -0.7338 -4.1343
  607MOL0     H80081  -0.845   8.944   2.814 -0.7683 -1.8687 -0.8349
  607MOL0     H80082  -0.997   8.890   2.562  1.3983 -1.8550  0.4792
  607MOL0     H80083  -1.015   8.800   2.710  2.5361 -0.8742 -1.4343
  607MOL0     H80084  -1.206   8.914   2.669 -0.5208 -1.0478  1.0482
  607MOL0     H80085  -1.139   9.071   2.636 -1.9834 -0.2018  1.2221
  607MOL0     H80086  -1.347   9.175   2.713  1.3943  0.2736  0.6169
  607MOL0     H80087  -1.601   9.165   2.762 -2.5259 -4.1330 -1.4715
  607MOL0     H80088  -1.876   8.755   3.135  1.5167  0.6697 -1.4493
  607MOL0     H80089  -2.116   8.696   3.164  2.1100 -0.9568  0.6514
  607MOL0     H80090  -2.339   8.738   3.295  0.7859  0.7147 -0.9773
  607MOL0     H80091  -2.357   8.700   3.126  3.2409 -0.7276 -0.0642
  607MOL0     H80092  -2.554   8.844   3.118  0.3789 -1.8019 -1.1950
  607MOL0     H80093  -2.556   8.866   3.292  0.2969  1.2839 -1.1141
  607MOL0     H80094  -2.582   8.605   3.310  2.8816  2.6184  0.8401
  607MOL0     H80095  -2.581   8.589   3.137 -1.5303 -1.1365  0.1402
  607MOL0     H80096  -2.815   8.595   3.260 -0.6854  0.0388  0.9285
  607MOL0     H80097  -2.782   8.777   3.268  0.8164 -0.3543  1.3265
  607MOL0     H80098  -2.774   8.601   3.025 -0.8507 -2.1258  3.2419
  607MOL0     H80099  -2.744   8.773   3.023  2.2251 -1.5332 -0.3420
  607MOL0     H80100  -2.976   8.824   3.116  0.1012  0.4313  0.3191
  607MOL0     H80101  -3.002   8.652   3.126  1.3359 -1.0498 -0.0691
  607MOL0     H80102  -2.945   8.733   2.840 -0.1072 -2.7210  0.1187
  607MOL0     H80103  -3.057   8.622   2.909 -2.7222  1.2641  0.2708
  607MOL0     H80104  -3.183   8.794   2.808  5.8367 -1.8904 -3.5050
  607MOL0     H80105  -3.103   8.925   2.893 -2.6820  1.7883 -1.5058
  607MOL0     H80106  -2.211   9.120   3.109  0.8597  1.1298  1.2761
  607MOL0     H80107  -1.983   9.166   3.054  1.4605  0.8091  4.1471
  607MOL0     H80108  -1.513   8.972   3.126  2.6986  0.0536  1.3241
  607MOL0     H80109  -1.271   8.958   3.069 -0.2126  2.1898  1.1759
  607MOL0     H80110   0.358   8.678   2.731 -1.4353 -1.0994 -2.8366
  607MOL0     H80111   0.450   8.791   2.536  0.9193 -0.4485  0.5135
  607MOL0     H80112   0.761   9.048   2.386 -0.3182 -1.2043  0.3439
  607MOL0     H80113   0.859   9.209   2.201 -0.8768 -0.4257 -0.5008
  607MOL0     H80114   1.250   9.143   2.070  1.0076  2.1737  0.8935
  607MOL0     H80115   1.144   9.259   2.160  0.1463 -1.6424  0.9319
  607MOL0     H80116   1.222   9.265   1.871 -0.6867 -1.2376  0.9964
  607MOL0     H80117   1.125   9.387   1.948  1.5634  0.6458  0.4704
  607MOL0     H80118   1.404   9.321   2.024 -0.4892 -0.0620  0.5927
  607MOL0     H80119   1.297   9.438   2.106 -1.3299  1.2116 -0.6369
  607MOL0     H80120   1.297   9.581   1.897  2.4680  2.1342  1.9570
  607MOL0     H80121   1.457   9.556   1.960  2.4825 -2.3162  0.0140
  607MOL0     H80122   1.519   9.305   1.633  1.1217 -0.2613  0.3740
  607MOL0     H80123   1.100   8.882   2.063 -0.0490 -1.8973  0.7563
  607MOL0     H80124   1.010   8.747   2.224  0.6500  0.1528 -1.4157
  608MOL0     O80125   0.436   3.112   7.124  0.1119 -0.2302 -0.6731
  608MOL0     C80126   0.374   3.085   7.234  0.0233  0.4118  1.3736
  608MOL0     O80127   0.431   3.095   7.359  0.5271 -0.1786  0.2561
  608MOL0     C80128   0.554   3.147   7.392  0.7989 -0.7559  0.2339
  608MOL0     C80129   0.634   3.236   7.313 -0.6786 -0.9639 -0.9398
  608MOL0     C80130   0.756   3.279   7.362  0.1239 -0.3912 -0.3172
  608MOL0     C80131   0.805   3.226   7.475 -0.1669  0.0999  0.7351
  608MOL0     O80132   0.936   3.251   7.505  0.1645  0.1499 -0.3658
  608MOL0     C80133   0.998   3.160   7.593 -0.1641 -0.3140 -0.0154
  608MOL0     C80134   1.150   3.176   7.590 -0.1093  0.3633 -0.5931
  608MOL0     C80135   1.212   3.051   7.638  0.4270 -0.1112 -0.5726
  608MOL0     C80136   1.364   3.061   7.627  0.0462  0.2759  0.5269
  608MOL0     C80137   1.429   2.931   7.580 -0.8178  0.3731 -0.0075
  608MOL0     C80138   1.404   2.885   7.427  0.2122 -1.0229 -0.0516
  608MOL0     C80139   1.466   2.753   7.393  0.6214 -0.6411 -0.4501
  608MOL0     C80140   1.443   2.727   7.241  0.0553  0.4109  0.0710
  608MOL0     N80141   1.481   2.587   7.212 -0.4927  0.0609  0.0006
  608MOL0     C80142   1.614   2.550   7.194 -0.4787 -0.6422  0.5134
  608MOL0     C80143   1.602   2.434   7.125 -0.3001 -0.2008 -0.0851
  608MOL0     C80144   1.722   2.385   7.056 -0.8913  0.7656 -0.0068
  608MOL0     C80145   1.763   2.475   6.944 -0.2259  0.1855  0.4059
  608MOL0     C80146   1.904   2.442   6.889 -0.3152  0.4030  0.3766
  608MOL0     C80147   1.957   2.567   6.824 -0.2780 -0.0933  0.3292
  608MOL0     O80148   2.063   2.526   6.733 -0.2381 -0.0507  0.6827
  608MOL0     C80149   2.182   2.589   6.727 -0.0500  0.1463 -0.7174
  608MOL0     C80150   2.262   2.561   6.622  0.0546  0.1584  0.7783
  608MOL0     C80151   2.388   2.619   6.611  0.5065  0.8307 -0.6279
  608MOL0     C80152   2.449   2.679   6.723  0.5023 -0.1410  0.3177
  608MOL0     C80153   2.596   2.724   6.704  0.3338  0.8770  0.8079
  608MOL0     O80154   2.656   2.708   6.575 -0.2068 -0.1200  0.3922
  608MOL0     C80155   2.778   2.765   6.544  0.7080  0.0261 -1.1534
  608MOL0     C80156   2.806   2.781   6.408 -0.0472 -0.1071  0.1282
  608MOL0     C80157   2.944   2.817   6.375 -0.7272  0.7646  0.1161
  608MOL0     C80158   3.046   2.839   6.467  0.4599  0.0427  0.5364
  608MOL0     O80159   3.167   2.898   6.435  0.4255 -0.4457 -0.3105
  608MOL0     C80160   3.211   2.924   6.302  0.1927 -0.1401  0.2877
  608MOL0     C80161   3.352   2.981   6.314 -0.3242  0.6029 -0.3131
  608MOL0     C80162   3.455   2.882   6.380  0.0769  0.1773  0.6133
  608MOL0     C80163   3.462   2.746   6.309  0.6244 -0.4114 -0.1034
  608MOL0     C80164   3.566   2.663   6.393 -0.8016 -0.0142  0.3734
  608MOL0     C80165   3.606   2.533   6.323  0.9896 -0.0195  1.0060
  608MOL0     C80166   3.661   2.438   6.421 -0.2112  0.6343  0.2109
  608MOL0     C80167   3.725   2.310   6.357 -0.4512  0.2660 -0.6329
  608MOL0    Cl80168   3.640   2.246   6.217  0.6887 -0.2523 -0.2967
  608MOL0     C80169   3.015   2.824   6.601 -0.6536  0.3746 -0.2946
  608MOL0     C80170   2.878   2.792   6.643  0.2483  0.7506  0.1537
  608MOL0     O80171   2.650   2.771   6.800  0.1364  0.1059 -0.1596
  608MOL0     C80172   2.371   2.701   6.831 -0.2803 -0.0872 -0.5898
  608MOL0     C80173   2.239   2.653   6.844  0.0590 -0.0591  0.2524
  608MOL0     N80174   1.469   2.408   7.105  0.1166 -0.5721 -0.0538
  608MOL0     N80175   1.397   2.496   7.162 -0.1880 -0.0666  0.3672
  608MOL0     C80176   0.719   3.158   7.561  0.0136 -0.2395 -1.1761
  608MOL0     C80177   0.594   3.119   7.524 -0.3576  0.3373  0.1818
  608MOL0     C80178   0.234   3.037   7.221 -0.4641 -0.2953  0.2264
  608MOL0     C80179   0.172   2.978   7.102 -0.2416 -0.5401 -0.2119
  608MOL0     C80180   0.050   2.913   7.101 -0.3048 -0.9757  0.5116
  608MOL0     C80181  -0.021   2.881   7.217 -0.0978  0.4008 -0.2922
  608MOL0     O80182  -0.134   2.814   7.184  0.6249  1.0671  0.0813
  608MOL0     C80183  -0.201   2.760   7.301 -0.0154  0.0302  0.5945
  608MOL0     C80184  -0.310   2.666   7.266  0.4052 -0.7728  0.0227
  608MOL0     C80185  -0.441   2.742   7.231 -1.3751  0.6438 -0.1309
  608MOL0     C80186  -0.543   2.638   7.179  0.3082  0.4041 -0.1711
  608MOL0     C80187  -0.537   2.624   7.031  0.3332  0.1131  0.2708
  608MOL0     C80188  -0.532   2.641   6.918  0.4161 -0.2776  0.6139
  608MOL0     C80189   0.033   2.924   7.339 -0.5241 -0.1611  0.9587
  608MOL0     C80190   0.158   2.997   7.339  0.2529  0.2651 -0.3229
  608MOL0     H80191   0.605   3.251   7.209 -2.2699 -1.0554 -0.5258
  608MOL0     H80192   0.813   3.357   7.312 -1.1038  0.7959  0.0884
  608MOL0     H80193   0.970   3.063   7.549  1.2802 -0.9030  0.3196
  608MOL0     H80194   0.960   3.163   7.695  2.0230 -1.5618  0.8979
  608MOL0     H80195   1.178   3.262   7.651  0.0539 -1.2262  1.6716
  608MOL0     H80196   1.197   3.187   7.491  5.4313 -0.6954  1.5648
  608MOL0     H80197   1.186   2.965   7.576  1.4862 -0.8888  0.0392
  608MOL0     H80198   1.184   3.023   7.740 -0.0151  1.0016 -0.3692
  608MOL0     H80199   1.406   3.141   7.566  2.2701 -1.2651 -0.0847
  608MOL0     H80200   1.402   3.082   7.728  0.2807  1.2669  0.2406
  608MOL0     H80201   1.399   2.853   7.651 -0.1802 -0.5317 -0.7076
  608MOL0     H80202   1.537   2.943   7.596 -1.1721  0.8648  2.4543
  608MOL0     H80203   1.433   2.967   7.361 -0.5771  0.5382  1.4320
  608MOL0     H80204   1.296   2.872   7.411 -0.4792  4.7596 -2.7690
  608MOL0     H80205   1.574   2.747   7.410  0.5819 -2.8270 -0.7566
  608MOL0     H80206   1.418   2.677   7.456 -3.1254  0.6634 -1.4575
  608MOL0     H80207   1.511   2.786   7.180 -0.1389 -0.0107 -0.5575
  608MOL0     H80208   1.339   2.744   7.213 -0.8251  1.5123  3.4684
  608MOL0     H80209   1.700   2.613   7.217  0.2927 -1.5164  0.0614
  608MOL0     H80210   1.698   2.286   7.017  0.9192  1.1548 -2.3583
  608MOL0     H80211   1.811   2.367   7.117 -0.0428 -4.2692 -2.2004
  608MOL0     H80212   1.773   2.579   6.974 -0.1142  0.1446  0.5083
  608MOL0     H80213   1.686   2.467   6.866 -1.7171  3.0862  1.4163
  608MOL0     H80214   1.978   2.405   6.961 -1.4996 -0.6525  1.1012
  608MOL0     H80215   1.882   2.376   6.804 -0.6954  1.4171 -0.3273
  608MOL0     H80216   1.994   2.630   6.905 -1.6097 -1.8354  2.4101
  608MOL0     H80217   1.874   2.600   6.761 -1.4958 -2.0454  0.8087
  608MOL0     H80218   2.241   2.493   6.540  3.4983 -1.3562  0.9783
  608MOL0     H80219   2.453   2.605   6.526  1.7921  4.6265 -0.4774
  608MOL0     H80220   2.741   2.772   6.321  1.4561 -3.7183 -0.8313
  608MOL0     H80221   2.974   2.835   6.272 -0.0714 -2.1923 -0.3131
  608MOL0     H80222   3.152   3.002   6.254  0.4211 -0.9912 -1.4579
  608MOL0     H80223   3.208   2.834   6.239 -0.6545  0.0372  0.0556
  608MOL0     H80224   3.335   3.076   6.365  1.3405  0.1857  1.0876
  608MOL0     H80225   3.396   3.003   6.216  2.6605 -3.8828 -0.2408
  608MOL0     H80226   3.415   2.871   6.481 -0.7693  1.3129  0.4225
  608MOL0     H80227   3.555   2.926   6.382 -0.6465  1.9965  3.2193
  608MOL0     H80228   3.366   2.693   6.311 -0.7282  1.9143  1.3043
  608MOL0     H80229   3.492   2.754   6.204 -1.7664 -1.7234 -0.9648
  608MOL0     H80230   3.521   2.647   6.491  0.8133 -0.9787  0.9928
  608MOL0     H80231   3.658   2.723   6.403  0.5565 -2.3387  3.9149
  608MOL0     H80232   3.673   2.564   6.241  0.0275 -2.0717 -0.6405
  608MOL0     H80233   3.516   2.489   6.279  2.5254 -1.3129 -1.0443
  608MOL0     H80234   3.732   2.498   6.478  0.6669  2.2743 -2.4417
  608MOL0     H80235   3.578   2.407   6.485 -0.0867  2.9774  1.6485
  608MOL0     H80236   3.745   2.233   6.432 -1.2177  1.7888  1.1797
  608MOL0     H80237   3.815   2.358   6.317 -0.2664  1.4309  1.1207
  608MOL0     H80238   3.090   2.838   6.678  1.6527  0.5486 -2.4665
  608MOL0     H80239   2.859   2.772   6.748 -3.4728 -1.4352 -0.7598
  608MOL0     H80240   2.411   2.769   6.906 -1.0163 -0.1926 -0.0939
  608MOL0     H80241   2.192   2.675   6.939  0.2773  4.2637 -0.4498
  608MOL0     H80242   0.746   3.114   7.656 -0.5566 -1.7819 -1.6977
  608MOL0     H80243   0.531   3.070   7.598 -0.3226  2.8911  2.0462
  608MOL0     H80244   0.231   2.973   7.011 -0.3129 -1.6875 -0.2069
  608MOL0     H80245   0.012   2.871   7.008  3.1187  0.9372 -1.9482
  608MOL0     H80246  -0.241   2.840   7.364 -4.2385 -2.0373  0.9267
  608MOL0     H80247  -0.134   2.697   7.361 -0.0783 -1.6739 -1.0153
  608MOL0     H80248  -0.280   2.588   7.195  0.5667 -1.8406  1.2110
  608MOL0     H80249  -0.338   2.612   7.357 -2.6697  2.5515  1.3144
  608MOL0     H80250  -0.428   2.819   7.154  2.2784 -0.1278 -0.4945
  608MOL0     H80251  -0.479   2.785   7.324  1.7838  4.4742 -0.3524
  608MOL0     H80252  -0.530   2.543   7.233  1.0297  1.9383  2.5339
  608MOL0     H80253  -0.646   2.662   7.204  0.4214 -1.3505  2.3590
  608MOL0     H80254  -0.511   2.659   6.814  1.5579  1.5898  1.1027
  608MOL0     H80255  -0.018   2.917   7.434 -0.9487  2.0108  0.9383
  608MOL0     H80256   0.188   3.028   7.438 -1.2451 -0.3532  0.3619
  609MOL0     O80257   0.628   8.676   8.356  0.6080 -0.5772 -0.7957
  609MOL0     C80258   0.660   8.653   8.475  0.2190  0.3345  0.7109
  609MOL0     O80259   0.714   8.743   8.557 -0.4440  0.6975  0.0803
  609MOL0     C80260   0.757   8.857   8.497 -0.7843  0.3701 -0.0760
  609MOL0     C80261   0.849   8.866   8.392  0.1299  0.2941 -0.0917
  609MOL0     C80262   0.900   8.990   8.348  0.0429 -0.5707  0.9560
  609MOL0     C80263   0.852   9.109   8.406  0.1393 -0.1702 -0.4386
  609MOL0     O80264   0.881   9.233   8.351  0.7213  0.2325 -0.3405
  609MOL0     C80265   0.898   9.248   8.210  1.0830  0.6665 -0.1255
  609MOL0     C80266   0.906   9.397   8.187 -0.3371 -0.1341  0.5370
  609MOL0     C80267   0.877   9.431   8.035  0.1428  1.0098 -1.5407
  609MOL0     C80268   0.884   9.582   8.031 -0.8644 -0.5909  0.1212
  609MOL0     C80269   0.841   9.644   7.898 -0.1049  0.5539  0.2697
  609MOL0     C80270   0.695   9.615   7.855  0.8920 -0.2936  0.1215
  609MOL0     C80271   0.671   9.493   7.756 -0.1582 -0.1454 -0.4878
  609MOL0     C80272   0.524   9.443   7.772  0.1352 -0.6982 -0.5086
  609MOL0     N80273   0.416   9.542   7.733 -0.3459  0.1436 -0.8094
  609MOL0     C80274   0.361   9.623   7.831 -0.1439  0.5526  0.2644
  609MOL0     C80275   0.332   9.740   7.772 -0.2369 -0.5227 -0.0095
  609MOL0     C80276   0.263   9.853   7.844 -0.0861  0.3604  0.1867
  609MOL0     C80277   0.118   9.831   7.845 -0.0264  0.9850 -0.7493
  609MOL0     C80278   0.046   9.951   7.910 -0.6534  0.6306 -0.3263
  609MOL0     C80279  -0.105   9.947   7.909 -0.6133  0.3169  0.2243
  609MOL0     O80280  -0.154   9.830   7.986 -0.2642  0.0493 -0.1478
  609MOL0     C80281  -0.282   9.825   8.038  0.1134  0.0696  0.0024
  609MOL0     C80282  -0.334   9.699   8.068  0.3474  0.1949  0.1897
  609MOL0     C80283  -0.463   9.680   8.123 -1.1394  0.4844 -0.2597
  609MOL0     C80284  -0.549   9.787   8.144 -1.0128  0.7859 -1.2486
  609MOL0     C80285  -0.679   9.760   8.215 -0.1602 -0.5858 -0.2243
  609MOL0     O80286  -0.733   9.635   8.196  0.4973 -0.5891  0.1192
  609MOL0     C80287  -0.873   9.619   8.222 -0.5614 -0.2768  0.6181
  609MOL0     C80288  -0.965   9.711   8.173 -0.1604 -0.5002  0.3839
  609MOL0     C80289  -1.104   9.692   8.208 -0.5041 -0.7210  0.3668
  609MOL0     C80290  -1.140   9.586   8.289 -0.8992  0.8083 -0.3489
  609MOL0     O80291  -1.271   9.585   8.330 -0.2115 -0.0835  0.0206
  609MOL0     C80292  -1.351   9.467   8.344 -0.1426  0.1794 -0.5466
  609MOL0     C80293  -1.497   9.508   8.371  0.0961 -0.5348  0.5166
  609MOL0     C80294  -1.588   9.403   8.427 -0.0631  0.3109  0.1756
  609MOL0     C80295  -1.622   9.283   8.327 -0.0400 -0.7174  0.1853
  609MOL0     C80296  -1.752   9.209   8.372 -0.2445 -0.0293 -0.6336
  609MOL0     C80297  -1.785   9.109   8.264  0.4643  0.0404 -0.2661
  609MOL0     C80298  -1.925   9.037   8.295  0.2507 -0.1197  0.3861
  609MOL0     C80299  -1.903   8.927   8.407  0.3302  0.2561  0.7864
  609MOL0    Cl80300  -1.801   8.787   8.355 -0.3975 -0.0560 -0.7575
  609MOL0     C80301  -1.050   9.485   8.316  1.0387  0.6271 -0.7411
  609MOL0     C80302  -0.912   9.503   8.288  0.0653 -0.3315 -0.1320
  609MOL0     O80303  -0.731   9.849   8.285 -0.3790  0.3145 -0.2698
  609MOL0     C80304  -0.501   9.915   8.110  0.6223 -1.1516 -0.9454
  609MOL0     C80305  -0.372   9.931   8.059 -0.1906  1.2358 -0.0705
  609MOL0     N80306   0.371   9.733   7.637 -0.4090 -0.5049 -0.4131
  609MOL0     N80307   0.427   9.612   7.621 -0.0112 -0.4900  0.2807
  609MOL0     C80308   0.764   9.095   8.514 -0.2806 -1.2022 -0.2008
  609MOL0     C80309   0.728   8.973   8.564  0.4558 -0.1861 -0.0563
  609MOL0     C80310   0.603   8.529   8.528 -0.6120  0.3569 -0.4223
  609MOL0     C80311   0.524   8.440   8.454 -0.0184 -0.2014  0.2889
  609MOL0     C80312   0.474   8.326   8.505  0.4512  0.3651  0.2911
  609MOL0     C80313   0.494   8.304   8.644  0.6845  0.0680 -0.7333
  609MOL0     O80314   0.428   8.189   8.698  0.3602 -0.3383  0.0897
  609MOL0     C80315   0.517   8.094   8.760 -0.5037 -0.7784 -0.9593
  609MOL0     C80316   0.449   8.031   8.883 -0.2845 -0.1859 -0.1689
  609MOL0     C80317   0.481   8.093   9.015 -0.5923 -0.2628 -0.1966
  609MOL0     C80318   0.443   7.992   9.129  0.0514 -0.3274  1.0773
  609MOL0     C80319   0.534   7.877   9.142 -0.4876  0.2170  0.4275
  609MOL0     C80320   0.612   7.780   9.132 -0.2536  0.5518  0.7161
  609MOL0     C80321   0.565   8.392   8.721 -0.3506  0.6513  0.4872
  609MOL0     C80322   0.623   8.505   8.668  0.0856  0.6726  0.3943
  609MOL0     H80323   0.886   8.772   8.353  0.8248  0.3322  0.4647
  609MOL0     H80324   0.974   8.978   8.269  0.4800  0.0614  1.2643
  609MOL0     H80325   0.806   9.214   8.162  0.4389 -0.6442  1.8947
  609MOL0     H80326   0.983   9.189   8.172  2.2759  0.3413  2.7536
  609MOL0     H80327   1.001   9.441   8.219  0.6326  0.7362 -3.0957
  609MOL0     H80328   0.830   9.450   8.245 -1.1396 -0.0531 -0.5400
  609MOL0     H80329   0.771   9.409   8.021 -0.2077  2.1239 -0.7722
  609MOL0     H80330   0.947   9.376   7.971  2.3274  1.0577  0.6392
  609MOL0     H80331   0.805   9.621   8.096  0.8829  2.8833  0.3761
  609MOL0     H80332   0.972   9.628   8.076 -1.9791  0.4702  1.2603
  609MOL0     H80333   0.900   9.604   7.814 -2.3073 -0.2768 -0.9591
  609MOL0     H80334   0.860   9.752   7.902 -0.2802  0.7044 -1.8291
  609MOL0     H80335   0.645   9.705   7.820  0.3236 -1.0824 -1.1867
  609MOL0     H80336   0.632   9.596   7.942 -0.2229  0.5748 -0.4788
  609MOL0     H80337   0.693   9.522   7.653  0.9701  3.2980  0.5755
  609MOL0     H80338   0.731   9.406   7.785  2.6049  1.8472  0.1545
  609MOL0     H80339   0.523   9.416   7.879  0.6414 -0.8789 -0.5493
  609MOL0     H80340   0.487   9.357   7.715 -2.1861  0.1985 -0.4696
  609MOL0     H80341   0.337   9.602   7.934 -0.1204 -1.5490 -0.1278
  609MOL0     H80342   0.287   9.949   7.796  1.1888  0.1536  0.3653
  609MOL0     H80343   0.304   9.858   7.945  0.1835 -1.1859  0.1770
  609MOL0     H80344   0.104   9.736   7.899  1.4061  2.5340  2.6668
  609MOL0     H80345   0.073   9.821   7.746  0.0793 -0.0787 -0.7038
  609MOL0     H80346   0.077   9.954   8.015 -1.6167  1.7329 -0.0440
  609MOL0     H80347   0.074  10.049   7.870 -1.1980  1.0192  0.2107
  609MOL0     H80348  -0.141   9.933   7.807  0.5109  2.2819 -0.5041
  609MOL0     H80349  -0.142  10.035   7.962 -3.2491 -0.6736  0.1727
  609MOL0     H80350  -0.272   9.619   8.029 -2.2572 -1.5672 -0.5736
  609MOL0     H80351  -0.497   9.580   8.147 -1.8431  0.6764 -0.4426
  609MOL0     H80352  -0.934   9.797   8.115 -2.7745  1.3079  1.5104
  609MOL0     H80353  -1.175   9.769   8.180  0.8431  0.5336  0.2972
  609MOL0     H80354  -1.312   9.413   8.431  0.2053  1.8533  0.3729
  609MOL0     H80355  -1.342   9.402   8.257 -0.1777 -0.5005 -0.0540
  609MOL0     H80356  -1.537   9.542   8.274  0.6319  0.1029  0.5086
  609MOL0     H80357  -1.485   9.592   8.440  2.8043  0.0922 -0.5824
  609MOL0     H80358  -1.684   9.443   8.461 -1.6334 -2.3889 -0.8503
  609MOL0     H80359  -1.543   9.363   8.518 -1.2395  3.1106  2.1301
  609MOL0     H80360  -1.632   9.313   8.222 -1.8356 -3.3159 -0.5022
  609MOL0     H80361  -1.538   9.213   8.326  0.0555 -0.6168 -1.0968
  609MOL0     H80362  -1.840   9.272   8.390 -1.2466 -0.5712 -3.1959
  609MOL0     H80363  -1.714   9.157   8.461  3.6021  0.1058 -2.0388
  609MOL0     H80364  -1.704   9.035   8.266  0.8292  0.4247  1.9983
  609MOL0     H80365  -1.791   9.160   8.168 -1.0874  0.8964  0.2563
  609MOL0     H80366  -2.000   9.109   8.330 -0.9396 -0.8276 -0.6227
  609MOL0     H80367  -1.957   8.994   8.200 -1.5612  2.1106 -0.1101
  609MOL0     H80368  -2.002   8.893   8.440  0.6693 -0.3260  1.2062
  609MOL0     H80369  -1.867   8.978   8.497 -1.8183  1.5864  0.9710
  609MOL0     H80370  -1.074   9.394   8.371  0.7120  1.4063  0.4261
  609MOL0     H80371  -0.841   9.430   8.325  1.1425 -0.3817 -2.1418
  609MOL0     H80372  -0.559  10.007   8.112  3.5749  0.8069  0.5789
  609MOL0     H80373  -0.336  10.026   8.019  1.6886 -0.3580 -2.4291
  609MOL0     H80374   0.720   9.187   8.551 -2.0794 -1.5950 -1.2714
  609MOL0     H80375   0.678   8.967   8.660 -0.6364 -2.6581 -0.7004
  609MOL0     H80376   0.507   8.458   8.348 -1.3855  1.2620  0.7143
  609MOL0     H80377   0.421   8.252   8.446  0.4375  1.3993 -1.0538
  609MOL0     H80378   0.618   8.132   8.782 -0.8163 -1.7973  3.0829
  609MOL0     H80379   0.538   8.024   8.679  0.4664 -0.5128 -0.9524
  609MOL0     H80380   0.340   8.032   8.871 -0.5281 -3.0591  0.9266
  609MOL0     H80381   0.493   7.931   8.886  1.2735  0.4735 -0.0459
  609MOL0     H80382   0.425   8.186   9.034 -1.0063 -0.7862  1.2743
  609MOL0     H80383   0.588   8.112   9.015 -0.4727 -0.1052 -3.8507
  609MOL0     H80384   0.448   8.062   9.212 -0.9627  3.7142 -1.9708
  609MOL0     H80385   0.338   7.962   9.118  0.8958 -2.7520 -1.9348
  609MOL0     H80386   0.680   7.697   9.130  2.1681  2.3771 -2.6199
  609MOL0     H80387   0.563   8.369   8.827  2.5004 -0.8579  0.2925
  609MOL0     H80388   0.670   8.577   8.734  0.8237 -0.1807  0.8239
  610MOL0     O80389   5.874   0.277   5.392  0.1735  0.2842 -0.1160
  610MOL0     C80390   5.909   0.164   5.370 -0.2528  0.1176 -0.3055
  610MOL0     O80391   5.821   0.064   5.333 -0.6607  0.1296 -0.9725
  610MOL0     C80392   5.688   0.091   5.327  0.4427 -0.3811 -0.2700
  610MOL0     C80393   5.597   0.031   5.413  0.4220  0.0022 -0.5434
  610MOL0     C80394   5.461   0.052   5.400 -1.4445 -0.3605 -0.3357
  610MOL0     C80395   5.413   0.130   5.295 -0.9219  0.2088  0.4543
  610MOL0     O80396   5.279   0.149   5.278 -0.6112 -0.0383  0.4553
  610MOL0     C80397   5.225   0.113   5.148 -0.3134 -0.1181 -0.0371
  610MOL0     C80398   5.075   0.123   5.153  0.0634  0.1144  0.2864
  610MOL0     C80399   5.009   0.039   5.264 -0.3771 -0.4311 -0.6291
  610MOL0     C80400   4.852   0.046   5.269  0.1828 -0.1974 -0.6754
  610MOL0     C80401   4.795  -0.046   5.383 -0.2294  0.5313 -0.3249
  610MOL0     C80402   4.650  -0.065   5.363  0.7960 -0.2122 -0.1188
  610MOL0     C80403   4.610  -0.125   5.223 -0.4333 -0.2208 -0.4385
  610MOL0     C80404   4.479  -0.203   5.224  0.2260  0.8382 -0.4019
  610MOL0     N80405   4.369  -0.126   5.284  0.6380  0.3778 -0.3874
  610MOL0     C80406   4.311  -0.013   5.239  0.5357 -0.2143 -0.2000
  610MOL0     C80407   4.204   0.002   5.322 -0.2831 -0.3679 -1.1390
  610MOL0     C80408   4.128   0.132   5.305 -0.8582  0.4196  1.1306
  610MOL0     C80409   3.991   0.125   5.366  0.0378 -0.0551 -0.1982
  610MOL0     C80410   3.894   0.018   5.306 -0.0076 -0.0033 -0.3652
  610MOL0     C80411   3.743   0.041   5.343 -0.8229 -0.0005 -0.1377
  610MOL0     O80412   3.733   0.081   5.477 -0.0110  0.3290 -0.1383
  610MOL0     C80413   3.610   0.079   5.541 -0.4659  0.3109 -0.7905
  610MOL0     C80414   3.487   0.021   5.488 -0.7064  1.2003 -0.1873
  610MOL0     C80415   3.370   0.031   5.562  0.2033  0.0882  0.1787
  610MOL0     C80416   3.375   0.077   5.698  0.4898  0.6818  0.1347
  610MOL0     C80417   3.252   0.088   5.779 -0.3358  0.3652  0.4620
  610MOL0     O80418   3.258   0.101   5.912  0.5128 -0.9121  0.5346
  610MOL0     C80419   3.140   0.092   5.985  0.8653  0.7265  0.4824
  610MOL0     C80420   3.044  -0.007   5.952  0.1573 -0.4436 -0.3479
  610MOL0     C80421   2.926  -0.021   6.033  0.2305  0.3516 -0.1527
  610MOL0     C80422   2.896   0.064   6.142 -0.5782  0.2253 -0.4461
  610MOL0     O80423   2.784   0.052   6.221  0.0624 -0.3436 -0.4684
  610MOL0     C80424   2.728   0.174   6.285 -0.7182 -0.2201 -0.3533
  610MOL0     C80425   2.577   0.156   6.302 -1.2095 -0.0437  0.4286
  610MOL0     C80426   2.539   0.041   6.396  0.2576 -0.1493  0.2855
  610MOL0     C80427   2.387   0.050   6.431  0.0467 -0.5448  0.4820
  610MOL0     C80428   2.344  -0.044   6.540 -0.5089  0.2221  0.1330
  610MOL0     C80429   2.189  -0.043   6.544  1.0413 -0.3831 -0.8420
  610MOL0     C80430   2.139  -0.112   6.673 -0.4366 -0.3813 -1.4100
  610MOL0     C80431   1.999  -0.178   6.655 -0.7295  0.5506 -0.2363
  610MOL0    Cl80432   1.877  -0.053   6.634  0.0979 -0.3822  0.0434
  610MOL0     C80433   2.995   0.159   6.175  0.6940 -0.2737 -0.4007
  610MOL0     C80434   3.112   0.169   6.096 -0.5547 -0.2179  0.2892
  610MOL0     O80435   3.143   0.084   5.711 -0.6297  0.0626 -0.2342
  610MOL0     C80436   3.503   0.113   5.749 -0.4363  0.1022  1.4287
  610MOL0     C80437   3.616   0.116   5.673  0.4646 -0.5570 -0.1106
  610MOL0     N80438   4.197  -0.109   5.414  0.4695 -0.8978 -0.5751
  610MOL0     N80439   4.294  -0.192   5.380  0.0349  0.7468 -0.0467
  610MOL0     C80440   5.508   0.178   5.200  0.3454 -0.6100  0.0317
  610MOL0     C80441   5.638   0.160   5.220 -0.3771 -0.1758  0.1223
  610MOL0     C80442   6.055   0.130   5.391  0.9184  0.6930 -0.5074
  610MOL0     C80443   6.092  -0.004   5.389 -0.4534 -0.6742 -0.7539
  610MOL0     C80444   6.233  -0.036   5.384 -0.3607 -0.0663 -0.5678
  610MOL0     C80445   6.333   0.063   5.379 -0.5934  0.7536 -1.0235
  610MOL0     O80446   6.467   0.020   5.386 -0.3100  1.0666  0.2046
  610MOL0     C80447   6.572   0.118   5.396 -0.5853 -0.1586 -0.1143
  610MOL0     C80448   6.706   0.043   5.400 -0.6397 -0.6081 -0.2923
  610MOL0     C80449   6.814   0.139   5.445 -0.7797  0.3388 -0.6404
  610MOL0     C80450   6.864   0.238   5.333  0.2678  0.1213 -0.1785
  610MOL0     C80451   6.867   0.183   5.192 -0.6371  0.1739  0.0302
  610MOL0     C80452   6.845   0.137   5.086  0.5024 -0.3353  0.8189
  610MOL0     C80453   6.294   0.191   5.385  0.6396 -0.8494 -0.8579
  610MOL0     C80454   6.154   0.231   5.394 -0.9554  0.5425  0.3455
  610MOL0     H80455   5.618  -0.039   5.493 -0.8248  0.1902 -0.0173
  610MOL0     H80456   5.391  -0.004   5.461  0.4962 -0.3107  2.0920
  610MOL0     H80457   5.250   0.009   5.126 -0.5227 -0.0223 -0.7530
  610MOL0     H80458   5.277   0.169   5.070  1.0305 -2.7786 -1.1720
  610MOL0     H80459   5.031   0.078   5.063 -0.0233 -1.0158  0.8698
  610MOL0     H80460   5.034   0.224   5.149 -2.7973 -0.9706 -0.2735
  610MOL0     H80461   5.052   0.069   5.360  1.0157 -1.5086 -0.8819
  610MOL0     H80462   5.040  -0.065   5.249  0.1589 -0.4469  0.5225
  610MOL0     H80463   4.805   0.144   5.286  1.9048  0.3531  1.2861
  610MOL0     H80464   4.825   0.009   5.169  2.1144  1.1226 -1.7493
  610MOL0     H80465   4.826   0.000   5.477  1.9537 -0.4934 -0.4769
  610MOL0     H80466   4.850  -0.140   5.394 -2.0709 -0.7563 -1.6630
  610MOL0     H80467   4.597   0.029   5.380 -0.7373 -0.7391 -1.6240
  610MOL0     H80468   4.614  -0.129   5.445  1.3859  2.5720  2.4720
  610MOL0     H80469   4.608  -0.055   5.138  0.2180 -2.1948 -2.1592
  610MOL0     H80470   4.689  -0.195   5.195 -0.0154  0.1105 -0.0905
  610MOL0     H80471   4.491  -0.302   5.269 -2.4664  1.1392  1.1471
  610MOL0     H80472   4.454  -0.223   5.119  2.0991  0.3958 -0.8073
  610MOL0     H80473   4.347   0.052   5.159 -0.8080 -2.0061 -2.3770
  610MOL0     H80474   4.124   0.157   5.199  1.2717  3.4693  1.6536
  610MOL0     H80475   4.176   0.219   5.351 -0.0149  1.5570 -1.6958
  610MOL0     H80476   3.945   0.224   5.353  1.8442  0.8787  0.2873
  610MOL0     H80477   4.004   0.108   5.473  2.9566 -1.0975 -0.6376
  610MOL0     H80478   3.894   0.025   5.197 -1.5580  1.3179 -0.3053
  610MOL0     H80479   3.926  -0.084   5.333 -1.0993  0.1548  1.7363
  610MOL0     H80480   3.692  -0.054   5.324 -3.6221  1.2902  0.5395
  610MOL0     H80481   3.710   0.120   5.275  1.4445  2.5201  1.4583
  610MOL0     H80482   3.488  -0.019   5.387 -1.6679 -2.9061  1.2711
  610MOL0     H80483   3.275   0.001   5.519  2.0701 -2.4449 -2.5492
  610MOL0     H80484   3.059  -0.076   5.870  2.0271  2.0775 -2.3108
  610MOL0     H80485   2.843  -0.087   6.007  1.0120 -0.4126 -0.7659
  610MOL0     H80486   2.748   0.262   6.224  0.0758  0.4514  0.8249
  610MOL0     H80487   2.767   0.195   6.385 -0.7427  0.6204 -0.5146
  610MOL0     H80488   2.534   0.150   6.201  1.1741  1.5617 -0.7610
  610MOL0     H80489   2.533   0.246   6.344 -0.1572  0.2184  0.9953
  610MOL0     H80490   2.594   0.059   6.489 -0.6194 -1.4527  1.0814
  610MOL0     H80491   2.580  -0.053   6.359  0.5762 -0.2316  0.8237
  610MOL0     H80492   2.354   0.146   6.471 -3.3044 -1.2264 -0.3750
  610MOL0     H80493   2.330   0.042   6.338  0.9362  2.0441 -0.4046
  610MOL0     H80494   2.380   0.005   6.631  3.6192 -2.2406  0.0654
  610MOL0     H80495   2.378  -0.148   6.542  0.6376  0.5876  2.0317
  610MOL0     H80496   2.145  -0.082   6.452 -0.9915  1.6502 -0.8186
  610MOL0     H80497   2.158   0.062   6.549  1.3729 -0.3277  1.9096
  610MOL0     H80498   2.211  -0.189   6.702  1.8076  1.9821 -0.3505
  610MOL0     H80499   2.142  -0.035   6.750  0.2109 -0.3402 -1.4728
  610MOL0     H80500   1.984  -0.235   6.748 -0.2602  1.1565  0.2180
  610MOL0     H80501   1.987  -0.239   6.565 -0.0381  1.3681 -0.8967
  610MOL0     H80502   2.972   0.229   6.255  0.2420 -1.2842  0.3764
  610MOL0     H80503   3.179   0.252   6.110 -1.3239  0.9166 -2.1301
  610MOL0     H80504   3.504   0.133   5.855  3.1884 -1.9200  1.9157
  610MOL0     H80505   3.712   0.144   5.716  0.5798  1.2075 -1.3882
  610MOL0     H80506   5.473   0.242   5.120  0.0329 -1.9221 -0.9117
  610MOL0     H80507   5.716   0.201   5.157  2.6209 -2.6094  2.0114
  610MOL0     H80508   6.030  -0.091   5.374 -1.3057  0.1635 -2.2793
  610MOL0     H80509   6.270  -0.138   5.375  5.3343  1.4173  1.6994
  610MOL0     H80510   6.553   0.184   5.481 -0.1698 -1.3739  0.9558
  610MOL0     H80511   6.568   0.174   5.303 -0.5881 -3.8502 -2.5783
  610MOL0     H80512   6.711  -0.026   5.485  0.9839  0.2103  0.3087
  610MOL0     H80513   6.723  -0.018   5.311  0.9941 -0.0306 -0.3912
  610MOL0     H80514   6.904   0.085   5.474  0.8736  3.5705  0.7027
  610MOL0     H80515   6.784   0.200   5.530 -1.0680 -1.0807  0.3157
  610MOL0     H80516   6.802   0.328   5.337  1.3595  0.8489  1.2839
  610MOL0     H80517   6.966   0.269   5.358  0.3276 -0.8335  0.8884
  610MOL0     H80518   6.833   0.091   4.990  1.9533 -0.2956  0.6021
  610MOL0     H80519   6.362   0.275   5.395  0.8805 -1.1315 -0.0299
  610MOL0     H80520   6.128   0.335   5.378 -0.4943  0.2519 -3.0428
  611MOL0     O80521   9.050   3.419   7.549  0.0858 -0.2491 -0.0513
  611MOL0     C80522   9.086   3.341   7.462  0.7363 -0.3255 -0.2593
  611MOL0     O80523   9.008   3.278   7.360  0.6087 -0.1156 -0.4288
  611MOL0     C80524   8.876   3.258   7.347 -0.4452 -0.3043 -0.1233
  611MOL0     C80525   8.782   3.287   7.444  0.5906  0.3492 -0.4108
  611MOL0     C80526   8.645   3.262   7.413  0.0546 -0.2247 -0.2450
  611MOL0     C80527   8.600   3.186   7.304 -0.3291  0.6218  0.0731
  611MOL0     O80528   8.465   3.165   7.294  0.0200  0.1168  0.3759
  611MOL0     C80529   8.422   3.035   7.246 -0.4409 -0.0265 -0.1155
  611MOL0     C80530   8.266   3.046   7.266  0.5005  0.3758 -0.5196
  611MOL0     C80531   8.193   3.074   7.138  0.0274  0.9019 -0.3328
  611MOL0     C80532   8.044   3.060   7.173  0.0821  0.6339  0.4128
  611MOL0     C80533   7.966   3.083   7.044  0.7166  0.0910  0.2449
  611MOL0     C80534   7.810   3.080   7.069 -0.0361 -0.5648 -0.3373
  611MOL0     C80535   7.732   3.094   6.938 -0.5883  0.0214 -0.3421
  611MOL0     C80536   7.584   3.094   6.964  0.4726 -0.1167  0.6004
  611MOL0     N80537   7.543   3.215   7.029  0.2382  0.4726 -0.3329
  611MOL0     C80538   7.548   3.340   6.987  1.4772 -0.3100  0.2948
  611MOL0     C80539   7.516   3.412   7.095 -0.7785  0.7673 -0.7878
  611MOL0     C80540   7.473   3.552   7.101  1.0558  0.4897 -0.4111
  611MOL0     C80541   7.322   3.565   7.093 -0.8252 -0.5822 -0.1442
  611MOL0     C80542   7.277   3.709   7.132  0.6605 -0.9199 -0.5330
  611MOL0     C80543   7.154   3.756   7.077 -0.0957  0.3186 -0.2229
  611MOL0     O80544   7.052   3.665   7.110 -0.1570  0.4422 -0.0265
  611MOL0     C80545   6.921   3.662   7.080  0.0237  0.4105 -0.1184
  611MOL0     C80546   6.861   3.765   7.005  0.3081 -0.2129 -0.1755
  611MOL0     C80547   6.733   3.740   6.964 -0.8562 -0.6839  0.1877
  611MOL0     C80548   6.656   3.633   7.003 -0.6236 -0.4667  0.2347
  611MOL0     C80549   6.524   3.610   6.948  0.0932  0.0316  0.7287
  611MOL0     O80550   6.485   3.677   6.836 -0.0379  0.2355  0.5013
  611MOL0     C80551   6.355   3.689   6.796  0.6214  0.2186 -0.2621
  611MOL0     C80552   6.239   3.672   6.873  0.2714  0.1889 -0.2501
  611MOL0     C80553   6.107   3.679   6.817  0.0018 -0.0408  0.2068
  611MOL0     C80554   6.097   3.700   6.684 -1.2594 -0.1487  0.5823
  611MOL0     O80555   5.976   3.716   6.621 -0.4801 -0.0507  0.1476
  611MOL0     C80556   5.850   3.681   6.695 -0.6336 -0.6273  0.0728
  611MOL0     C80557   5.747   3.647   6.584 -0.0852  0.1721 -0.2402
  611MOL0     C80558   5.682   3.767   6.517  0.4252  0.3783  1.1738
  611MOL0     C80559   5.555   3.727   6.422 -1.5110  0.3133 -0.6394
  611MOL0     C80560   5.606   3.696   6.289 -0.4201 -0.0494 -1.0556
  611MOL0     C80561   5.496   3.640   6.200  0.7804  0.7052  0.1955
  611MOL0     C80562   5.409   3.755   6.147  1.3101  0.7296 -0.1260
  611MOL0     C80563   5.315   3.702   6.033 -0.0765 -0.7173  0.4891
  611MOL0    Cl80564   5.407   3.707   5.882 -0.0365 -0.5570  0.5326
  611MOL0     C80565   6.210   3.724   6.611 -0.6078  0.0726 -0.2120
  611MOL0     C80566   6.337   3.716   6.665  0.3241 -0.2271  0.2328
  611MOL0     O80567   6.458   3.523   7.003 -0.1254 -0.5917 -0.8265
  611MOL0     C80568   6.725   3.534   7.079 -0.1242  0.6472  0.3084
  611MOL0     C80569   6.858   3.543   7.120  0.5881  0.9157 -0.4761
  611MOL0     N80570   7.483   3.328   7.200  0.2483  0.2608 -0.1957
  611MOL0     N80571   7.515   3.209   7.162  0.9753  0.0549  0.2873
  611MOL0     C80572   8.698   3.148   7.208 -1.1063  0.0679 -0.7645
  611MOL0     C80573   8.831   3.189   7.230 -0.0412  0.3135  1.2147
  611MOL0     C80574   9.220   3.293   7.475  0.4527  0.1181 -0.5934
  611MOL0     C80575   9.273   3.204   7.374  0.4555 -0.9323 -0.0395
  611MOL0     C80576   9.399   3.138   7.382  0.0613  0.4691 -0.2287
  611MOL0     C80577   9.477   3.166   7.493  0.1937  0.1453  1.2621
  611MOL0     O80578   9.592   3.088   7.498  0.1509  0.1868  0.6500
  611MOL0     C80579   9.692   3.122   7.600  0.2710  0.5965  0.2654
  611MOL0     C80580   9.813   3.039   7.571 -0.6346 -0.1890  0.5797
  611MOL0     C80581   9.877   3.089   7.444 -0.3153 -0.3493  0.4044
  611MOL0     C80582  10.021   3.041   7.435 -0.2245  0.4755  0.1013
  611MOL0     C80583  10.086   3.079   7.306 -0.1529  0.1133 -0.4015
  611MOL0     C80584  10.135   3.117   7.205 -1.1826  0.2544 -0.5355
  611MOL0     C80585   9.425   3.252   7.596  0.5597  0.1023  0.0511
  611MOL0     C80586   9.299   3.311   7.585 -0.0694 -0.7802 -0.3917
  611MOL0     H80587   8.815   3.324   7.541  1.8264  0.1312 -0.7433
  611MOL0     H80588   8.567   3.298   7.479  0.9953  1.8944 -0.2009
  611MOL0     H80589   8.466   2.954   7.304 -0.2224  0.6797  0.7393
  611MOL0     H80590   8.450   3.027   7.141 -1.4464 -1.2012 -0.3132
  611MOL0     H80591   8.240   3.133   7.327 -1.4432  0.1625 -0.9727
  611MOL0     H80592   8.238   2.953   7.317  6.0891 -0.6989  1.2012
  611MOL0     H80593   8.236   3.011   7.060 -0.4880  0.7829 -0.5271
  611MOL0     H80594   8.205   3.177   7.103 -1.0675 -0.1195 -4.2416
  611MOL0     H80595   8.018   2.960   7.209 -0.4364 -0.5855 -2.9633
  611MOL0     H80596   8.019   3.128   7.255 -0.5779  1.1950 -0.2419
  611MOL0     H80597   7.987   3.000   6.976  0.0111  1.2173 -1.4291
  611MOL0     H80598   7.991   3.177   6.994  0.0347 -0.4208 -1.0933
  611MOL0     H80599   7.775   3.160   7.135 -3.3729 -1.0542 -1.3278
  611MOL0     H80600   7.768   2.989   7.114 -0.0015 -1.0331 -1.2372
  611MOL0     H80601   7.754   3.186   6.883  1.0047 -1.1996 -1.8897
  611MOL0     H80602   7.753   3.022   6.858 -1.9685  1.7578 -2.3690
  611MOL0     H80603   7.551   3.009   7.024 -0.5715  0.3921  0.7719
  611MOL0     H80604   7.539   3.080   6.865  2.4489  0.4693 -0.4305
  611MOL0     H80605   7.564   3.385   6.890  1.0899 -0.4178  0.1773
  611MOL0     H80606   7.519   3.625   7.034 -2.1218  4.3074  1.1464
  611MOL0     H80607   7.490   3.595   7.200 -1.5728 -0.3579  0.5176
  611MOL0     H80608   7.270   3.491   7.155 -0.0998  1.5471  3.2393
  611MOL0     H80609   7.293   3.556   6.987  1.7175 -0.6678 -0.8923
  611MOL0     H80610   7.256   3.712   7.240  1.1666 -0.9286 -0.4316
  611MOL0     H80611   7.358   3.781   7.115  1.8941 -0.5739  4.8016
  611MOL0     H80612   7.157   3.763   6.968 -1.0742 -1.2337 -0.3702
  611MOL0     H80613   7.133   3.858   7.110 -0.0134 -0.4018  2.3110
  611MOL0     H80614   6.899   3.863   6.978 -1.9806  0.8341  0.2276
  611MOL0     H80615   6.692   3.807   6.889 -0.8885  2.6207  2.9246
  611MOL0     H80616   6.247   3.651   6.979 -2.3589 -1.7578 -0.3296
  611MOL0     H80617   6.028   3.664   6.889  0.9353  2.5957  1.9255
  611MOL0     H80618   5.821   3.769   6.754 -1.3306 -0.0108 -1.1397
  611MOL0     H80619   5.863   3.595   6.761 -1.2749 -1.9861 -1.5026
  611MOL0     H80620   5.676   3.576   6.628  2.8758 -2.4934  0.6232
  611MOL0     H80621   5.803   3.593   6.507 -1.7541 -1.2153 -0.5556
  611MOL0     H80622   5.758   3.835   6.477 -0.6002  0.7744 -0.1620
  611MOL0     H80623   5.634   3.820   6.600 -2.5586 -2.6645  1.5923
  611MOL0     H80624   5.504   3.639   6.463 -1.7614  0.8789  0.3004
  611MOL0     H80625   5.491   3.816   6.421 -3.1861 -0.7852  1.0284
  611MOL0     H80626   5.679   3.616   6.305 -0.6464  0.0465  0.6333
  611MOL0     H80627   5.649   3.788   6.251 -1.6550  0.7339 -0.6369
  611MOL0     H80628   5.430   3.571   6.253  0.0263  0.7202 -0.6931
  611MOL0     H80629   5.537   3.580   6.118  0.5157  1.0038 -0.1595
  611MOL0     H80630   5.350   3.793   6.231 -0.7547  2.1086 -2.0834
  611MOL0     H80631   5.457   3.847   6.111 -1.5361  1.9102 -1.1961
  611MOL0     H80632   5.229   3.769   6.026  0.1960 -0.4389 -0.3545
  611MOL0     H80633   5.281   3.603   6.064 -0.8821 -0.2586  1.1320
  611MOL0     H80634   6.198   3.749   6.506 -2.4487 -2.5964 -0.7617
  611MOL0     H80635   6.419   3.723   6.595 -0.3120 -2.3074 -0.8247
  611MOL0     H80636   6.668   3.449   7.113  0.7995 -0.1591 -0.0934
  611MOL0     H80637   6.909   3.473   7.186  1.2170  2.6066  0.9318
  611MOL0     H80638   8.662   3.095   7.120 -1.8709 -0.4047 -0.1841
  611MOL0     H80639   8.910   3.175   7.156 -1.0525  0.6814  0.0315
  611MOL0     H80640   9.216   3.161   7.292  1.5871 -0.3308 -1.1875
  611MOL0     H80641   9.438   3.068   7.309 -0.3944  0.1051 -0.1267
  611MOL0     H80642   9.648   3.096   7.697 -0.4870 -2.8849 -0.8649
  611MOL0     H80643   9.703   3.231   7.602 -1.8117  0.8538  0.1090
  611MOL0     H80644   9.878   3.037   7.659  1.4571  0.5665 -0.8638
  611MOL0     H80645   9.791   2.932   7.570  0.7739 -0.5330 -1.4110
  611MOL0     H80646   9.890   3.197   7.442  0.6125 -0.4615 -0.3124
  611MOL0     H80647   9.807   3.048   7.370 -1.8898  2.4840  0.2103
  611MOL0     H80648  10.081   3.093   7.510 -0.7756  0.4089  0.5952
  611MOL0     H80649  10.024   2.933   7.450 -3.5112  0.2201 -0.2138
  611MOL0     H80650  10.192   3.156   7.124  0.7801  2.5314  1.7719
  611MOL0     H80651   9.489   3.270   7.682  2.6182  1.4466 -1.6295
  611MOL0     H80652   9.273   3.381   7.663  0.8528 -0.8754  0.0157
  612MOL0     O80653   9.277   7.581   5.187 -0.8104 -0.4023 -0.3194
  612MOL0     C80654   9.323   7.690   5.207  0.0433 -0.2286  0.1684
  612MOL0     O80655   9.251   7.798   5.259  0.3073  0.0267 -0.0535
  612MOL0     C80656   9.122   7.770   5.298  0.5482  0.5585  0.7067
  612MOL0     C80657   9.026   7.829   5.215  0.0851  0.0914 -0.3131
  612MOL0     C80658   8.892   7.807   5.257  0.2570  0.5219 -0.5715
  612MOL0     C80659   8.859   7.730   5.376  0.0149 -1.2940 -0.1696
  612MOL0     O80660   8.723   7.714   5.406 -0.1653  0.3050  0.2247
  612MOL0     C80661   8.691   7.657   5.531  0.7156 -0.4406  0.2595
  612MOL0     C80662   8.551   7.706   5.573 -0.3496 -0.0089 -0.8848
  612MOL0     C80663   8.434   7.620   5.501 -1.1646 -0.6242  0.0007
  612MOL0     C80664   8.302   7.653   5.556  0.3560  0.0513  0.2960
  612MOL0     C80665   8.178   7.586   5.499 -0.5069 -0.1538  0.2154
  612MOL0     C80666   8.139   7.663   5.366 -0.6734 -0.1572 -0.6364
  612MOL0     C80667   8.011   7.589   5.335 -0.2402  0.2423  0.2920
  612MOL0     C80668   7.959   7.641   5.198  0.3070 -0.1467 -0.8580
  612MOL0     N80669   7.821   7.599   5.175 -0.1663 -0.2143  0.7494
  612MOL0     C80670   7.733   7.606   5.275  0.7071  0.8368 -0.2897
  612MOL0     C80671   7.634   7.528   5.221  0.6848  0.2484  0.9471
  612MOL0     C80672   7.502   7.516   5.301  0.2920  0.0555  0.2980
  612MOL0     C80673   7.373   7.489   5.209  0.6404  0.1523  0.1489
  612MOL0     C80674   7.252   7.522   5.300  0.1302 -0.1945  0.5865
  612MOL0     C80675   7.128   7.477   5.221 -0.2249  0.5428 -0.2844
  612MOL0     O80676   7.017   7.486   5.307 -0.7815  0.4065  0.1202
  612MOL0     C80677   6.902   7.427   5.255  0.0014  0.6168  0.1880
  612MOL0     C80678   6.885   7.378   5.129  0.2750  1.0203  0.4497
  612MOL0     C80679   6.761   7.306   5.110 -1.6589  0.1112 -0.1485
  612MOL0     C80680   6.655   7.304   5.202 -0.8247  0.5030 -0.0053
  612MOL0     C80681   6.525   7.248   5.164 -0.2445 -0.0623  0.4899
  612MOL0     O80682   6.417   7.283   5.236 -0.0237 -0.3452  0.5852
  612MOL0     C80683   6.295   7.231   5.211  0.8047 -0.3817 -0.2094
  612MOL0     C80684   6.253   7.097   5.244 -0.3102 -0.4891 -0.3696
  612MOL0     C80685   6.126   7.053   5.217  1.0283 -0.4914  0.0867
  612MOL0     C80686   6.037   7.136   5.158  0.4039  0.2065  0.2823
  612MOL0     O80687   5.908   7.092   5.110  0.7779  0.2100  0.5501
  612MOL0     C80688   5.800   7.187   5.107  1.0844 -0.0708  0.5455
  612MOL0     C80689   5.670   7.117   5.105 -1.0526 -0.0625 -0.6477
  612MOL0     C80690   5.572   7.202   5.040  0.3238 -0.3372  0.6968
  612MOL0     C80691   5.431   7.157   5.077  0.0351  0.3452  0.3204
  612MOL0     C80692   5.380   7.160   5.222 -0.1886  0.3794 -0.0381
  612MOL0     C80693   5.422   7.278   5.314 -0.1855 -0.2517  0.5454
  612MOL0     C80694   5.343   7.401   5.275  0.1988  0.1120  0.1783
  612MOL0     C80695   5.190   7.407   5.288  0.0629  0.8221  0.4718
  612MOL0    Cl80696   5.125   7.403   5.456  0.4358 -0.1056  0.2750
  612MOL0     C80697   6.067   7.274   5.137  0.6008 -0.5484 -0.1838
  612MOL0     C80698   6.199   7.315   5.165  0.7573  0.1296  0.2341
  612MOL0     O80699   6.525   7.163   5.077  0.2522 -0.0820  0.1787
  612MOL0     C80700   6.665   7.380   5.321 -0.1478 -0.6064 -0.6598
  612MOL0     C80701   6.797   7.431   5.349 -0.1993 -0.1710  0.4966
  612MOL0     N80702   7.670   7.455   5.113  0.0165 -0.0466  0.0842
  612MOL0     N80703   7.787   7.502   5.081  0.0583  0.1674  0.3337
  612MOL0     C80704   8.964   7.668   5.452 -0.1954  0.4425  0.2397
  612MOL0     C80705   9.096   7.690   5.410  0.0433  1.0094 -0.1916
  612MOL0     C80706   9.468   7.713   5.173 -0.5076 -0.5516 -0.1757
  612MOL0     C80707   9.529   7.836   5.209 -0.1532  0.3794 -0.3214
  612MOL0     C80708   9.667   7.862   5.190 -0.5592  0.0806 -1.1975
  612MOL0     C80709   9.740   7.755   5.141  0.1636  1.3663 -0.0461
  612MOL0     O80710   9.873   7.766   5.117 -0.5870  0.1913 -0.4171
  612MOL0     C80711   9.952   7.713   5.226  0.1139  0.0701  0.2765
  612MOL0     C80712  10.096   7.696   5.181 -0.2516 -0.4759 -0.3575
  612MOL0     C80713  10.193   7.616   5.274 -0.5270 -0.0269 -0.3274
  612MOL0     C80714  10.233   7.682   5.405  0.1512 -0.4879 -0.5052
  612MOL0     C80715  10.127   7.660   5.507 -0.2837 -0.8229  0.1070
  612MOL0     C80716  10.038   7.639   5.579 -0.7829 -0.3894 -0.1678
  612MOL0     C80717   9.686   7.631   5.111 -0.3786 -0.3891 -0.0110
  612MOL0     C80718   9.549   7.607   5.127 -0.0896 -0.3015  0.0255
  612MOL0     H80719   9.051   7.880   5.122  2.6945  1.0658  0.8085
  612MOL0     H80720   8.806   7.850   5.208 -0.5849  0.8710  1.1292
  612MOL0     H80721   8.756   7.696   5.610  0.2736  1.9772 -0.4903
  612MOL0     H80722   8.691   7.548   5.529  0.1028 -0.4427 -0.0650
  612MOL0     H80723   8.550   7.811   5.544  0.4658 -0.2089 -1.6768
  612MOL0     H80724   8.543   7.706   5.682 -1.6198 -0.4315 -0.9612
  612MOL0     H80725   8.445   7.515   5.530  1.5021 -0.3659  0.1101
  612MOL0     H80726   8.440   7.622   5.392  2.9532  1.5116  0.0839
  612MOL0     H80727   8.304   7.606   5.655 -0.7998 -3.4876 -1.2013
  612MOL0     H80728   8.289   7.761   5.561 -0.8595 -0.1286  3.2242
  612MOL0     H80729   8.100   7.594   5.575 -0.5365 -0.0828  0.1781
  612MOL0     H80730   8.199   7.480   5.483  0.6083 -0.2771  2.2773
  612MOL0     H80731   8.222   7.656   5.296  3.7453 -1.2110  4.1311
  612MOL0     H80732   8.109   7.768   5.377  0.4330  0.3259 -1.9963
  612MOL0     H80733   8.025   7.480   5.338  0.7839  0.1964 -2.6756
  612MOL0     H80734   7.928   7.610   5.403 -1.6831 -0.8829 -1.0212
  612MOL0     H80735   8.027   7.598   5.124 -0.8614  1.5510 -3.0387
  612MOL0     H80736   7.961   7.749   5.184  0.0907 -0.4227 -3.5916
  612MOL0     H80737   7.734   7.658   5.370  0.2123 -1.7769  1.2285
  612MOL0     H80738   7.497   7.610   5.357  2.6559  0.2992  0.1956
  612MOL0     H80739   7.510   7.426   5.363 -0.8979 -0.2015  0.0932
  612MOL0     H80740   7.365   7.386   5.173  2.2966 -0.3926  1.2093
  612MOL0     H80741   7.366   7.556   5.123 -0.5761  0.5138  0.5136
  612MOL0     H80742   7.251   7.466   5.394  2.3047 -1.3247 -0.0156
  612MOL0     H80743   7.236   7.629   5.320 -1.3822 -0.8559  3.5163
  612MOL0     H80744   7.138   7.376   5.180 -2.6752 -0.5172  1.4989
  612MOL0     H80745   7.113   7.536   5.130 -2.7214  1.1361  0.4602
  612MOL0     H80746   6.957   7.368   5.049 -0.4611 -2.0800  0.0328
  612MOL0     H80747   6.760   7.259   5.012  2.5728  0.4651 -0.5709
  612MOL0     H80748   6.323   7.032   5.294 -0.9229 -0.9089 -0.0365
  612MOL0     H80749   6.105   6.948   5.237  0.5206 -0.3713  0.1922
  612MOL0     H80750   5.810   7.233   5.008 -0.6338  0.2694  0.5099
  612MOL0     H80751   5.792   7.267   5.180 -4.6530  1.3220 -1.0793
  612MOL0     H80752   5.645   7.099   5.210  2.3463  0.3406  0.3332
  612MOL0     H80753   5.687   7.020   5.056  3.0488 -0.6724  1.5001
  612MOL0     H80754   5.591   7.185   4.933  2.1910 -0.2399  0.9820
  612MOL0     H80755   5.591   7.307   5.064 -0.3332 -0.4334  1.6929
  612MOL0     H80756   5.358   7.216   5.021  1.7645  1.4525 -0.8373
  612MOL0     H80757   5.417   7.055   5.040  3.1632 -0.5278  1.1771
  612MOL0     H80758   5.418   7.070   5.271  2.7103  1.5109  0.0035
  612MOL0     H80759   5.271   7.159   5.215 -0.2298  0.3801  0.5173
  612MOL0     H80760   5.527   7.307   5.306 -0.1742 -0.2775  0.6005
  612MOL0     H80761   5.404   7.258   5.420 -3.6983  0.2700  0.1572
  612MOL0     H80762   5.372   7.480   5.345 -1.1403 -0.3719  1.2995
  612MOL0     H80763   5.368   7.419   5.169  1.3160 -1.7085  0.0929
  612MOL0     H80764   5.146   7.329   5.226 -1.0730 -0.1126  2.3637
  612MOL0     H80765   5.176   7.510   5.252 -2.2256  1.3032  2.5026
  612MOL0     H80766   5.999   7.346   5.092  1.1619  0.5876  0.7515
  612MOL0     H80767   6.237   7.417   5.156 -2.9476  1.5412 -1.1543
  612MOL0     H80768   6.590   7.378   5.399 -1.0151  0.8101 -1.4118
  612MOL0     H80769   6.816   7.459   5.452  0.5223 -0.2294  0.3893
  612MOL0     H80770   8.941   7.604   5.537  3.7960 -0.1950  1.0331
  612MOL0     H80771   9.183   7.651   5.461  0.5302 -0.3228 -1.9314
  612MOL0     H80772   9.478   7.919   5.257 -1.2496 -0.7009  0.4138
  612MOL0     H80773   9.705   7.962   5.208 -2.7471  0.3791  2.9764
  612MOL0     H80774   9.921   7.620   5.275  2.1651 -0.5234  0.5680
  612MOL0     H80775   9.946   7.797   5.295  0.8339 -0.9077  1.5764
  612MOL0     H80776  10.086   7.651   5.083  0.1445 -2.1349  0.3307
  612MOL0     H80777  10.134   7.797   5.162 -0.8159 -0.1381  0.2503
  612MOL0     H80778  10.279   7.600   5.207  1.6074 -1.2884  2.5063
  612MOL0     H80779  10.156   7.517   5.301  1.8834 -0.7779  0.4561
  612MOL0     H80780  10.326   7.645   5.450  0.3724  1.3284  0.6416
  612MOL0     H80781  10.254   7.789   5.395 -1.5390 -0.1834 -0.9900
  612MOL0     H80782   9.950   7.619   5.636 -0.0775  0.6708  1.3706
  612MOL0     H80783   9.746   7.548   5.076 -0.7592 -0.0974 -1.4303
  612MOL0     H80784   9.509   7.508   5.109  0.0959 -0.0016 -2.5507
  613MOL0     O80785   6.028  11.064   7.951 -1.0519 -0.3455  0.2941
  613MOL0     C80786   6.065  11.172   7.921 -0.6762  0.5169 -0.7987
  613MOL0     O80787   5.989  11.265   7.855  0.2982  0.1772  0.7353
  613MOL0     C80788   5.850  11.266   7.857 -0.1693 -0.1109 -0.9813
  613MOL0     C80789   5.782  11.390   7.837 -0.6432 -0.6512  0.6892
  613MOL0     C80790   5.644  11.416   7.850 -0.7034 -0.1062  0.3341
  613MOL0     C80791   5.566  11.296   7.865 -0.3479  0.0832 -0.3981
  613MOL0     O80792   5.430  11.313   7.865 -0.2725  0.0409 -0.3277
  613MOL0     C80793   5.333  11.209   7.895 -0.1163 -0.8411 -0.0842
  613MOL0     C80794   5.201  11.277   7.933 -0.2476  0.2712 -0.3146
  613MOL0     C80795   5.078  11.181   7.903 -0.0064 -0.6156  0.3163
  613MOL0     C80796   4.955  11.261   7.966  0.5110  0.6988 -0.4170
  613MOL0     C80797   4.824  11.189   7.940  0.0308  0.2327  0.1028
  613MOL0     C80798   4.699  11.267   7.989 -0.0200 -0.3774 -0.7417
  613MOL0     C80799   4.568  11.202   7.939 -0.0933  0.4071  0.3678
  613MOL0     C80800   4.440  11.271   7.996  0.0437 -0.1713  0.7978
  613MOL0     N80801   4.321  11.201   7.953  0.0259  0.0656  0.8969
  613MOL0     C80802   4.243  11.220   7.839  0.2713 -0.0875  0.7134
  613MOL0     C80803   4.135  11.136   7.853 -0.2212  0.1469  0.3111
  613MOL0     C80804   4.028  11.125   7.746  0.1435 -0.0063  0.1767
  613MOL0     C80805   4.076  11.021   7.644  0.6375 -0.3720 -0.0688
  613MOL0     C80806   3.953  10.939   7.588 -0.5335 -0.5106 -0.2555
  613MOL0     C80807   3.925  10.813   7.678 -0.0951  0.1433 -0.2891
  613MOL0     O80808   3.793  10.763   7.675 -0.1582  0.5611  0.7399
  613MOL0     C80809   3.702  10.817   7.762  0.0780  0.0392  0.3505
  613MOL0     C80810   3.600  10.898   7.720 -0.3146  0.3890  0.0111
  613MOL0     C80811   3.521  10.962   7.813 -0.2456 -0.2413 -0.5063
  613MOL0     C80812   3.544  10.944   7.951 -0.1143 -0.0748 -0.1517
  613MOL0     C80813   3.474  11.018   8.058 -0.2383 -0.3251 -0.7995
  613MOL0     O80814   3.394  11.124   8.012  0.3960  0.0890 -0.1603
  613MOL0     C80815   3.341  11.215   8.098 -0.0002 -0.9398  0.1793
  613MOL0     C80816   3.435  11.298   8.153 -0.5993 -1.2137  0.0333
  613MOL0     C80817   3.393  11.382   8.263  0.1705 -0.3795 -1.1257
  613MOL0     C80818   3.256  11.402   8.303  0.4596  0.5888  0.2990
  613MOL0     O80819   3.232  11.497   8.397 -0.1041 -0.9362  0.2788
  613MOL0     C80820   3.096  11.512   8.449 -0.6414 -0.2782 -0.3617
  613MOL0     C80821   2.996  11.592   8.365 -0.4029  0.2805 -0.0798
  613MOL0     C80822   2.861  11.595   8.444  0.2472 -0.0377  0.7173
  613MOL0     C80823   2.826  11.717   8.526  0.6476 -0.2641 -0.1101
  613MOL0     C80824   2.683  11.711   8.594 -0.2865  0.4472 -0.4106
  613MOL0     C80825   2.631  11.856   8.642 -0.5062  0.3531 -0.6302
  613MOL0     C80826   2.482  11.858   8.667 -0.3416 -0.1592  0.3693
  613MOL0     C80827   2.432  12.004   8.684  0.3479  0.7496  0.0968
  613MOL0    Cl80828   2.453  12.121   8.546 -0.1590 -0.4501  0.1068
  613MOL0     C80829   3.165  11.311   8.241 -0.5142 -0.0866 -0.2226
  613MOL0     C80830   3.209  11.227   8.133  0.6826  0.3189 -0.1127
  613MOL0     O80831   3.481  10.975   8.174  0.4377  0.6563  0.4443
  613MOL0     C80832   3.653  10.868   7.994 -0.0468 -0.1653 -0.3117
  613MOL0     C80833   3.726  10.799   7.897  0.1461  0.2777 -0.4646
  613MOL0     N80834   4.150  11.065   7.965  0.6432 -0.1537 -1.0226
  613MOL0     N80835   4.253  11.111   8.034  0.0529 -0.1654 -0.0019
  613MOL0     C80836   5.634  11.172   7.880  0.2751 -0.4916  0.0508
  613MOL0     C80837   5.769  11.162   7.885  1.9087  0.2635  0.5830
  613MOL0     C80838   6.193  11.222   7.972  0.7226 -0.1484  0.1782
  613MOL0     C80839   6.289  11.129   8.008 -0.0280  0.1784 -0.0448
  613MOL0     C80840   6.420  11.170   8.036 -0.0992  0.2966 -0.1971
  613MOL0     C80841   6.455  11.308   8.037  0.4820 -0.1066  0.2174
  613MOL0     O80842   6.583  11.343   8.059 -0.1355  0.1061  0.0686
  613MOL0     C80843   6.637  11.473   8.042  0.7403 -1.0899 -0.0767
  613MOL0     C80844   6.786  11.456   7.998  0.1813 -0.5581 -0.1895
  613MOL0     C80845   6.873  11.394   8.109 -0.0545 -0.0577  0.1532
  613MOL0     C80846   7.019  11.400   8.080 -0.1769  0.1346  0.3141
  613MOL0     C80847   7.057  11.286   7.984 -1.6132  0.4220  0.3775
  613MOL0     C80848   7.101  11.196   7.908 -0.1190  0.2830 -0.0461
  613MOL0     C80849   6.352  11.402   8.019  0.4041 -0.4715  0.1333
  613MOL0     C80850   6.226  11.356   7.978  0.0527 -0.1378  0.2654
  613MOL0     H80851   5.850  11.471   7.814  0.9038 -2.5351 -1.8144
  613MOL0     H80852   5.591  11.508   7.828 -3.1124 -0.9490  2.1610
  613MOL0     H80853   5.377  11.153   7.978 -1.3207 -0.6546  0.7030
  613MOL0     H80854   5.319  11.140   7.811 -2.5846 -0.5004 -0.0366
  613MOL0     H80855   5.181  11.370   7.879 -2.4485 -0.6840 -1.2754
  613MOL0     H80856   5.200  11.306   8.038 -0.4749  1.1535 -0.5604
  613MOL0     H80857   5.094  11.081   7.945  2.5732 -0.5527 -0.3806
  613MOL0     H80858   5.063  11.162   7.797  0.1536 -1.6725  0.4683
  613MOL0     H80859   4.963  11.271   8.074  0.2476 -1.4406 -0.1621
  613MOL0     H80860   4.953  11.364   7.929  4.5175  2.3787  3.2705
  613MOL0     H80861   4.834  11.099   8.000  0.5761  0.0059 -0.3221
  613MOL0     H80862   4.826  11.159   7.835  0.0162 -1.0199  0.4442
  613MOL0     H80863   4.709  11.371   7.958 -2.1503  1.0260  2.7232
  613MOL0     H80864   4.696  11.265   8.098 -2.3842 -0.8587 -0.7521
  613MOL0     H80865   4.577  11.200   7.830  0.6087 -2.0970  0.4056
  613MOL0     H80866   4.570  11.099   7.975  2.8669 -0.0248 -0.7130
  613MOL0     H80867   4.450  11.376   7.969  4.3716 -0.3800  0.9045
  613MOL0     H80868   4.440  11.265   8.105  1.4747 -2.1960  0.7551
  613MOL0     H80869   4.277  11.281   7.756  1.6505 -1.7338  0.0162
  613MOL0     H80870   4.008  11.224   7.704 -2.4302 -0.2831  0.5806
  613MOL0     H80871   3.933  11.095   7.792  1.0469  1.5948  3.3260
  613MOL0     H80872   4.168  10.968   7.671  0.4748  0.3580  2.0464
  613MOL0     H80873   4.108  11.081   7.558  1.2709  1.0604  1.1320
  613MOL0     H80874   3.869  11.009   7.592  0.9201  1.2442  2.7196
  613MOL0     H80875   3.976  10.913   7.484 -4.4858  0.1449 -1.4798
  613MOL0     H80876   3.949  10.835   7.783 -0.0089  0.5084 -0.3827
  613MOL0     H80877   3.989  10.730   7.647  0.0519  0.8034 -1.8463
  613MOL0     H80878   3.577  10.901   7.614 -0.4111 -1.6157 -0.0702
  613MOL0     H80879   3.445  11.035   7.788 -2.5943 -1.2699  2.8949
  613MOL0     H80880   3.537  11.299   8.116 -0.7249  2.8119 -0.6888
  613MOL0     H80881   3.468  11.439   8.318  0.3073 -1.1424 -0.5100
  613MOL0     H80882   3.116  11.557   8.546  1.6210 -1.4140 -0.2314
  613MOL0     H80883   3.051  11.415   8.470 -1.8794 -0.2739 -2.6455
  613MOL0     H80884   2.972  11.543   8.270 -4.7960 -0.3722  1.1554
  613MOL0     H80885   3.040  11.691   8.347  0.5166  0.1637  1.3550
  613MOL0     H80886   2.859  11.507   8.510 -1.6453 -1.4933 -1.1181
  613MOL0     H80887   2.787  11.598   8.364  0.2077  0.5608  0.7779
  613MOL0     H80888   2.897  11.734   8.607  2.8537 -0.6989 -1.8392
  613MOL0     H80889   2.835  11.797   8.453  1.0615  0.4433  0.7014
  613MOL0     H80890   2.694  11.642   8.678 -1.4041 -1.1453 -1.5184
  613MOL0     H80891   2.622  11.658   8.521  0.5914 -1.4273  0.1647
  613MOL0     H80892   2.647  11.932   8.565 -1.3237  0.6620 -0.5074
  613MOL0     H80893   2.679  11.887   8.735 -3.2631 -2.6089  2.0614
  613MOL0     H80894   2.420  11.819   8.585 -1.6846  1.9681  0.3021
  613MOL0     H80895   2.454  11.798   8.754  0.7848  1.8358  2.1937
  613MOL0     H80896   2.493  12.046   8.765  0.1588  0.5723  0.3310
  613MOL0     H80897   2.328  12.001   8.718  0.5885  0.5776  0.8571
  613MOL0     H80898   3.064  11.306   8.280 -1.0165 -0.3392 -1.5009
  613MOL0     H80899   3.141  11.158   8.085  1.2619  0.7299 -1.5775
  613MOL0     H80900   3.680  10.866   8.099  0.0484 -2.6702 -0.3131
  613MOL0     H80901   3.814  10.741   7.921  0.7674  1.1828 -0.5135
  613MOL0     H80902   5.583  11.082   7.910 -0.0725  0.2092  1.6555
  613MOL0     H80903   5.807  11.062   7.901  1.0430 -0.2917 -0.6795
  613MOL0     H80904   6.263  11.024   7.999 -0.2586  0.2936 -0.8176
  613MOL0     H80905   6.493  11.089   8.040  0.5301  0.8837  0.3135
  613MOL0     H80906   6.625  11.530   8.135 -1.0010 -1.1366 -0.2359
  613MOL0     H80907   6.590  11.525   7.958  1.2681 -0.5391 -0.0396
  613MOL0     H80908   6.780  11.394   7.908 -0.3033 -1.4529  0.4351
  613MOL0     H80909   6.831  11.550   7.965  1.6657 -1.8564 -2.0905
  613MOL0     H80910   6.859  11.286   8.116  0.4026 -0.2722 -1.7863
  613MOL0     H80911   6.842  11.440   8.203 -1.2297  0.6381 -0.5382
  613MOL0     H80912   7.046  11.499   8.042 -0.6436 -0.1630 -0.8779
  613MOL0     H80913   7.079  11.381   8.169  1.7346 -0.0814 -0.9590
  613MOL0     H80914   7.133  11.119   7.841 -2.5788 -1.8235  1.0117
  613MOL0     H80915   6.368  11.509   8.012  0.7781 -0.6128 -2.3092
  613MOL0     H80916   6.144  11.425   7.959  0.2036  0.7441  2.5345
  614MOL0     O80917   2.294   8.293   7.083 -0.3456  1.3279  0.3677
  614MOL0     C80918   2.240   8.389   7.144 -0.8496  0.9472 -0.2620
  614MOL0     O80919   2.291   8.467   7.244 -0.3470  0.4047  0.3782
  614MOL0     C80920   2.432   8.457   7.259  0.9026 -0.6812 -0.3450
  614MOL0     C80921   2.474   8.449   7.398 -0.3036  0.0717  0.9084
  614MOL0     C80922   2.611   8.440   7.427 -0.1762 -0.2950 -0.7737
  614MOL0     C80923   2.711   8.442   7.326 -0.0887  0.1691 -0.3640
  614MOL0     O80924   2.845   8.431   7.352 -0.8084  0.2161  0.2380
  614MOL0     C80925   2.892   8.453   7.490 -0.3320  0.0578 -0.2428
  614MOL0     C80926   3.044   8.466   7.484  0.5296 -0.1461  0.5079
  614MOL0     C80927   3.084   8.521   7.624 -0.2039  0.6026 -0.0418
  614MOL0     C80928   3.231   8.562   7.612 -0.0488  0.0219 -0.4936
  614MOL0     C80929   3.308   8.577   7.745  0.5985 -0.4818  0.4508
  614MOL0     C80930   3.454   8.636   7.734 -0.3615  0.5046 -0.4835
  614MOL0     C80931   3.530   8.606   7.863  0.1390 -0.5498 -0.8137
  614MOL0     C80932   3.554   8.451   7.878 -0.8073  0.0985 -0.5269
  614MOL0     N80933   3.544   8.417   8.021 -0.7530 -0.0577 -1.5777
  614MOL0     C80934   3.430   8.410   8.098 -0.0907 -0.0361 -0.0173
  614MOL0     C80935   3.476   8.368   8.222 -0.1340 -0.1292  0.3069
  614MOL0     C80936   3.389   8.331   8.338 -0.2612  0.5714 -0.5882
  614MOL0     C80937   3.398   8.178   8.384  0.5713  0.0443  0.1339
  614MOL0     C80938   3.331   8.073   8.292  0.0516 -0.7780  0.5247
  614MOL0     C80939   3.185   8.088   8.249  0.3353 -0.0869  0.3916
  614MOL0     O80940   3.192   8.186   8.145 -0.4914  0.6772  0.0920
  614MOL0     C80941   3.071   8.213   8.088 -0.4371 -0.5543 -0.3696
  614MOL0     C80942   2.984   8.115   8.050 -0.3869  0.2434  0.2670
  614MOL0     C80943   2.868   8.147   7.982  0.4925 -0.5086 -0.2131
  614MOL0     C80944   2.830   8.273   7.942 -0.5631 -1.3218 -0.4688
  614MOL0     C80945   2.711   8.304   7.865  0.5208  0.7624 -0.1578
  614MOL0     O80946   2.597   8.231   7.886 -0.1775 -0.5144  0.0861
  614MOL0     C80947   2.504   8.232   7.783  0.1032  0.5801 -0.0380
  614MOL0     C80948   2.385   8.298   7.810  0.2279 -0.7279  0.0662
  614MOL0     C80949   2.273   8.304   7.718  0.8350 -0.6811  0.3267
  614MOL0     C80950   2.286   8.230   7.594 -0.4947 -0.4281  0.1232
  614MOL0     O80951   2.187   8.206   7.506 -0.3066  0.5397  0.1830
  614MOL0     C80952   2.063   8.282   7.501 -0.3068 -0.9501 -0.2734
  614MOL0     C80953   1.960   8.206   7.422  0.0741  0.9782 -0.1836
  614MOL0     C80954   1.822   8.267   7.464 -0.0850  0.6610 -0.5909
  614MOL0     C80955   1.717   8.159   7.440 -0.1024  0.6536 -0.2196
  614MOL0     C80956   1.570   8.219   7.463 -0.3276 -0.1818 -0.2092
  614MOL0     C80957   1.459   8.110   7.449  0.0689 -0.5242 -0.4099
  614MOL0     C80958   1.316   8.178   7.478  0.0678  1.0167  0.4948
  614MOL0     C80959   1.209   8.080   7.474 -0.2422  0.5835 -0.5087
  614MOL0    Cl80960   1.231   7.973   7.610  0.0761 -0.1733  0.2305
  614MOL0     C80961   2.410   8.174   7.568  0.0244  1.2213 -1.0601
  614MOL0     C80962   2.513   8.167   7.656 -0.5100 -1.0250  0.1183
  614MOL0     O80963   2.721   8.385   7.771 -0.8293  0.9584 -0.1339
  614MOL0     C80964   2.916   8.378   7.991  0.1837  1.2828 -0.7383
  614MOL0     C80965   3.033   8.346   8.068  0.7826 -0.5132  0.9505
  614MOL0     N80966   3.609   8.345   8.218  0.2389 -0.5206  0.5002
  614MOL0     N80967   3.649   8.371   8.101  0.4099  0.4922 -0.1284
  614MOL0     C80968   2.665   8.448   7.194 -0.4359 -0.6060 -0.3820
  614MOL0     C80969   2.528   8.459   7.161 -1.3235 -0.2759 -0.6255
  614MOL0     C80970   2.091   8.401   7.113  0.0423 -0.8619 -0.3391
  614MOL0     C80971   2.044   8.341   6.996  0.0023 -0.1884  0.1978
  614MOL0     C80972   1.911   8.329   6.966  0.7027 -0.3256  0.1038
  614MOL0     C80973   1.816   8.393   7.053 -0.3200 -0.2173  0.5189
  614MOL0     O80974   1.688   8.359   7.016 -0.6638 -0.1981  0.9369
  614MOL0     C80975   1.568   8.409   7.077  0.4014 -0.5683  0.4817
  614MOL0     C80976   1.445   8.312   7.066  0.0883 -0.0625 -0.4154
  614MOL0     C80977   1.313   8.363   7.122  0.2411 -0.0884  0.0940
  614MOL0     C80978   1.197   8.271   7.067  0.1794  0.1695  0.2490
  614MOL0     C80979   1.224   8.128   7.098  0.4580 -0.1493  0.0618
  614MOL0     C80980   1.249   8.012   7.122  0.1312 -0.8137  0.6415
  614MOL0     C80981   1.858   8.464   7.161 -0.6877  0.4303 -0.3199
  614MOL0     C80982   2.000   8.471   7.186 -0.7848 -0.9900 -0.5538
  614MOL0     H80983   2.400   8.450   7.478 -0.6310 -0.1426  0.6093
  614MOL0     H80984   2.642   8.435   7.531 -2.5622  1.8899  0.1739
  614MOL0     H80985   2.873   8.364   7.552 -0.3145 -0.7009 -1.3010
  614MOL0     H80986   2.835   8.536   7.531 -1.7734  0.4941 -2.9003
  614MOL0     H80987   3.076   8.536   7.406  0.8483 -0.5609  0.2623
  614MOL0     H80988   3.074   8.365   7.453 -3.5903 -1.8101  1.1656
  614MOL0     H80989   3.063   8.439   7.693 -1.1988 -0.8379 -1.9563
  614MOL0     H80990   3.019   8.605   7.650 -2.2516 -0.4020 -1.6740
  614MOL0     H80991   3.292   8.490   7.558 -0.3588  0.7894 -1.9212
  614MOL0     H80992   3.253   8.651   7.553 -0.5112  0.4210 -0.0740
  614MOL0     H80993   3.290   8.479   7.791 -2.2385  0.4254  1.5163
  614MOL0     H80994   3.239   8.648   7.791  0.0411  1.1579 -2.6348
  614MOL0     H80995   3.450   8.740   7.703 -2.5271 -0.3241 -3.3245
  614MOL0     H80996   3.508   8.577   7.659  1.6966  2.0542 -0.3186
  614MOL0     H80997   3.621   8.665   7.874 -0.6452  0.7585 -1.1297
  614MOL0     H80998   3.466   8.633   7.948 -0.5256 -1.9437 -0.8520
  614MOL0     H80999   3.655   8.440   7.836  0.2890  3.1584  1.0009
  614MOL0     H81000   3.479   8.386   7.832 -0.3142 -0.3016 -0.7807
  614MOL0     H81001   3.325   8.429   8.075 -0.4724 -1.6791  0.2026
  614MOL0     H81002   3.282   8.342   8.323 -0.7103  0.5750  2.0684
  614MOL0     H81003   3.412   8.401   8.419  0.1451  0.3556 -0.5121
  614MOL0     H81004   3.358   8.159   8.484  0.1082 -3.9492 -0.6354
  614MOL0     H81005   3.504   8.155   8.396  0.4278 -0.0695  1.3481
  614MOL0     H81006   3.377   8.072   8.193 -2.1130  1.3094 -0.5882
  614MOL0     H81007   3.345   7.973   8.335  2.3081 -1.5990 -1.8570
  614MOL0     H81008   3.115   8.104   8.331 -0.8253  0.5704 -0.6941
  614MOL0     H81009   3.159   7.988   8.213  1.2191  0.1106 -0.8469
  614MOL0     H81010   3.001   8.009   8.068  1.1297  0.1722 -1.3646
  614MOL0     H81011   2.794   8.071   7.957  0.9497 -2.0653  2.7231
  614MOL0     H81012   2.370   8.352   7.903 -1.9049  2.8591 -2.1319
  614MOL0     H81013   2.178   8.351   7.742  0.5423 -0.9253 -0.3494
  614MOL0     H81014   2.072   8.387   7.470  0.7841 -1.2388 -1.0038
  614MOL0     H81015   2.028   8.286   7.604 -0.3336  0.5471 -0.3176
  614MOL0     H81016   1.976   8.108   7.467  0.6989  2.2074  2.5357
  614MOL0     H81017   1.973   8.202   7.314 -3.2131  1.6644 -0.7035
  614MOL0     H81018   1.810   8.357   7.403 -2.2908 -0.3313 -1.7464
  614MOL0     H81019   1.820   8.283   7.573  3.4817 -2.0039  0.0534
  614MOL0     H81020   1.735   8.134   7.335  0.8480 -2.6672  0.6021
  614MOL0     H81021   1.729   8.072   7.507 -1.3680  0.3746 -0.3294
  614MOL0     H81022   1.552   8.294   7.386 -3.1648 -0.2953  0.2291
  614MOL0     H81023   1.558   8.261   7.563 -1.0596  0.0332 -0.3812
  614MOL0     H81024   1.482   8.033   7.523 -1.0688 -0.5468 -0.0628
  614MOL0     H81025   1.464   8.060   7.352  0.6429  1.5732 -1.5321
  614MOL0     H81026   1.322   8.217   7.580  2.4771 -1.6703  1.5436
  614MOL0     H81027   1.288   8.252   7.403 -2.0950 -1.4058 -1.2435
  614MOL0     H81028   1.218   8.033   7.376  0.6158  2.3912 -1.3500
  614MOL0     H81029   1.106   8.117   7.475 -1.0478 -1.5092 -0.8224
  614MOL0     H81030   2.414   8.118   7.476 -0.4238 -1.5145  0.4817
  614MOL0     H81031   2.604   8.115   7.628 -0.9469 -1.0275 -1.3653
  614MOL0     H81032   2.899   8.482   7.965 -1.7700  1.0467 -0.5627
  614MOL0     H81033   3.105   8.421   8.098  0.4111  1.1602 -1.9488
  614MOL0     H81034   2.735   8.475   7.116 -0.4202 -1.0864 -0.5385
  614MOL0     H81035   2.505   8.475   7.056  1.1644 -1.9057 -1.5247
  614MOL0     H81036   2.108   8.277   6.936 -0.8595 -0.3113 -0.6234
  614MOL0     H81037   1.879   8.255   6.893 -0.7968 -2.2125  2.5230
  614MOL0     H81038   1.542   8.500   7.023 -2.1081 -1.2972  0.3679
  614MOL0     H81039   1.590   8.430   7.182 -1.7096  0.8430  0.6835
  614MOL0     H81040   1.436   8.284   6.961  0.7037  3.0208 -1.3949
  614MOL0     H81041   1.474   8.226   7.126 -1.6695 -1.0757 -0.9292
  614MOL0     H81042   1.272   8.461   7.094 -2.2509 -1.2755 -0.7505
  614MOL0     H81043   1.318   8.360   7.231 -1.1233 -1.5203  0.1474
  614MOL0     H81044   1.110   8.306   7.123 -0.0597 -0.2872  0.1686
  614MOL0     H81045   1.187   8.285   6.959  0.0640  0.0284  0.2411
  614MOL0     H81046   1.282   7.913   7.146  0.1597 -0.4767  2.0614
  614MOL0     H81047   1.791   8.527   7.219  0.8250  1.1818  0.6722
  614MOL0     H81048   2.034   8.537   7.264 -2.5070  1.7904 -1.9813
  615MOL0     O81049   6.839   3.004   9.264 -0.3642 -0.4675 -0.6941
  615MOL0     C81050   6.865   3.029   9.379  0.8077  1.5104  0.3116
  615MOL0     O81051   6.764   3.040   9.479 -0.5887  0.1133  0.2040
  615MOL0     C81052   6.638   3.000   9.447 -0.0203  0.2673  0.3570
  615MOL0     C81053   6.532   3.082   9.472  0.1234 -0.9408  0.5585
  615MOL0     C81054   6.398   3.042   9.441 -0.4982 -0.1680 -0.7240
  615MOL0     C81055   6.380   2.908   9.406  0.0081 -1.1912 -0.3871
  615MOL0     O81056   6.259   2.856   9.374  0.4085  0.1329  1.7162
  615MOL0     C81057   6.151   2.956   9.367  0.0052  0.2189  0.3910
  615MOL0     C81058   6.013   2.901   9.336  0.9183  1.5031 -0.0001
  615MOL0     C81059   5.902   2.997   9.313 -0.2623  0.1392  0.5108
  615MOL0     C81060   5.853   3.050   9.442 -0.0686  0.6961 -0.5784
  615MOL0     C81061   5.725   3.138   9.454  0.2733 -0.2662  0.4214
  615MOL0     C81062   5.707   3.207   9.591  0.5363  0.2089 -0.7025
  615MOL0     C81063   5.572   3.269   9.593  0.3018 -0.5708 -0.2653
  615MOL0     C81064   5.545   3.343   9.727 -0.1109 -0.6777 -0.0378
  615MOL0     N81065   5.513   3.252   9.840  0.9027 -0.5002 -0.2784
  615MOL0     C81066   5.601   3.227   9.948 -0.3315 -0.1617 -0.8726
  615MOL0     C81067   5.524   3.175  10.044 -0.4010  0.9076 -0.3613
  615MOL0     C81068   5.570   3.143  10.188  0.2482 -0.1615 -0.7325
  615MOL0     C81069   5.538   2.996  10.223 -0.1175 -0.4563 -0.8114
  615MOL0     C81070   5.505   2.976  10.374 -0.7484 -0.2551  0.4042
  615MOL0     C81071   5.388   2.885  10.407 -0.6269 -0.3789  0.9873
  615MOL0     O81072   5.382   2.867  10.544 -0.5322 -0.6518 -0.4658
  615MOL0     C81073   5.265   2.869  10.621 -0.1981 -0.6438  0.0053
  615MOL0     C81074   5.138   2.831  10.575 -0.3331  0.6623 -0.0991
  615MOL0     C81075   5.034   2.809  10.664 -1.2003  0.3232 -0.3681
  615MOL0     C81076   5.049   2.860  10.797  1.1826  0.5493  0.4017
  615MOL0     C81077   4.929   2.847  10.893 -0.0392 -0.2287 -0.2176
  615MOL0     O81078   4.797   2.845  10.842  0.2349 -0.0310 -0.9620
  615MOL0     C81079   4.678   2.827  10.911 -0.7641 -0.1799 -0.2191
  615MOL0     C81080   4.564   2.787  10.839  0.0896 -0.0705 -0.0708
  615MOL0     C81081   4.443   2.746  10.888 -0.6609 -0.0614 -0.1925
  615MOL0     C81082   4.416   2.766  11.026 -0.2145  0.7280  0.2803
  615MOL0     O81083   4.292   2.727  11.066  0.1806 -0.0761 -0.6473
  615MOL0     C81084   4.249   2.743  11.199  0.1652 -0.6329 -0.2584
  615MOL0     C81085   4.136   2.844  11.205 -0.3500 -0.6124 -0.5308
  615MOL0     C81086   4.016   2.818  11.115 -0.1706  0.0433  0.2976
  615MOL0     C81087   3.888   2.910  11.152 -0.0371  0.1889  0.9578
  615MOL0     C81088   3.925   3.053  11.146 -0.4438  0.0357 -0.0064
  615MOL0     C81089   3.803   3.147  11.149 -0.1481  0.1167 -0.2604
  615MOL0     C81090   3.843   3.289  11.096 -0.2228 -0.8862  0.1950
  615MOL0     C81091   3.883   3.373  11.219 -0.4666 -0.1266 -0.1811
  615MOL0    Cl81092   3.736   3.400  11.329  0.5608 -0.0193 -0.6168
  615MOL0     C81093   4.528   2.802  11.103  0.4106  0.0764 -1.2034
  615MOL0     C81094   4.652   2.835  11.049  0.8197  0.1866  0.1130
  615MOL0     O81095   4.963   2.842  11.012  0.4652  0.0231  0.2587
  615MOL0     C81096   5.174   2.908  10.844  0.4440  0.2920  0.1007
  615MOL0     C81097   5.280   2.909  10.757 -0.4879 -0.1443  0.3736
  615MOL0     N81098   5.394   3.172   9.995 -0.6964  0.2274  0.1388
  615MOL0     N81099   5.384   3.229   9.881  0.1379 -0.5066  0.0573
  615MOL0     C81100   6.491   2.823   9.388  0.0857 -0.3063  0.5431
  615MOL0     C81101   6.622   2.870   9.413  0.5248 -0.3987 -0.3506
  615MOL0     C81102   6.997   3.060   9.420  0.2684 -0.7599 -0.8095
  615MOL0     C81103   7.028   3.076   9.562  0.4475  0.7978 -0.1902
  615MOL0     C81104   7.165   3.101   9.589  0.2267 -0.7240  0.5753
  615MOL0     C81105   7.255   3.135   9.490  0.8073  0.2083  0.1765
  615MOL0     O81106   7.383   3.155   9.521 -0.8496 -0.0065 -0.1813
  615MOL0     C81107   7.451   3.289   9.509  0.5318  0.3876 -0.4680
  615MOL0     C81108   7.547   3.307   9.629  0.1050  0.2942 -0.1251
  615MOL0     C81109   7.662   3.409   9.589  0.0100 -0.1972 -0.4354
  615MOL0     C81110   7.720   3.470   9.711  0.4367 -0.6992  0.0184
  615MOL0     C81111   7.850   3.543   9.679 -0.0187  0.2783  0.1736
  615MOL0     C81112   7.962   3.595   9.670  0.4751 -0.5757 -0.6000
  615MOL0     C81113   7.218   3.127   9.356 -0.9581 -0.2819  0.6434
  615MOL0     C81114   7.093   3.089   9.320 -0.6092  1.1874 -0.2086
  615MOL0     H81115   6.554   3.183   9.506 -2.6798 -0.8664  2.5485
  615MOL0     H81116   6.322   3.113   9.472 -1.1107 -1.1392  0.0666
  615MOL0     H81117   6.173   3.031   9.291 -0.0838  1.0710  1.1995
  615MOL0     H81118   6.146   3.006   9.464  1.7265 -0.2528  0.7460
  615MOL0     H81119   5.990   2.822   9.409  0.3118  1.4750 -0.2172
  615MOL0     H81120   6.009   2.843   9.243 -2.2245 -1.7592  1.8752
  615MOL0     H81121   5.820   2.952   9.256  1.5349  0.9722 -3.0308
  615MOL0     H81122   5.941   3.075   9.248  0.8880 -0.6070  0.2832
  615MOL0     H81123   5.830   2.952   9.486  1.9471 -1.4272 -3.7340
  615MOL0     H81124   5.934   3.105   9.490  1.2271  2.4421 -4.3317
  615MOL0     H81125   5.635   3.083   9.424 -1.9638  3.2473  0.1203
  615MOL0     H81126   5.725   3.221   9.383  2.4909  0.5771  1.3105
  615MOL0     H81127   5.786   3.281   9.606  3.0144 -1.9900 -2.1248
  615MOL0     H81128   5.711   3.131   9.669 -1.8210 -0.2267 -0.9328
  615MOL0     H81129   5.566   3.341   9.511  0.1970 -0.5795 -0.2637
  615MOL0     H81130   5.497   3.193   9.571 -0.9715  0.5667  0.0737
  615MOL0     H81131   5.461   3.408   9.700 -0.4406 -1.1934 -0.2708
  615MOL0     H81132   5.625   3.411   9.758 -1.4082 -0.5596  3.4059
  615MOL0     H81133   5.707   3.249   9.955 -0.6608  0.9769  2.3556
  615MOL0     H81134   5.516   3.218  10.248  1.0662  1.1692 -1.5979
  615MOL0     H81135   5.677   3.152  10.209 -0.5470  1.1011  3.7146
  615MOL0     H81136   5.621   2.928  10.199 -0.8261 -1.3060 -0.9049
  615MOL0     H81137   5.458   2.970  10.153 -1.2212  0.8434 -0.0788
  615MOL0     H81138   5.592   2.926  10.417  0.5692 -0.3220 -2.1689
  615MOL0     H81139   5.487   3.065  10.435 -1.5724  0.1910 -0.4640
  615MOL0     H81140   5.405   2.784  10.368  1.0347 -0.6131  2.2214
  615MOL0     H81141   5.301   2.926  10.355 -0.1707 -0.2723  0.2818
  615MOL0     H81142   5.133   2.787  10.475  0.5848 -0.2349  0.2346
  615MOL0     H81143   4.946   2.762  10.621  0.5676 -1.3709 -2.4309
  615MOL0     H81144   4.585   2.774  10.733 -1.4342  1.0702 -0.5459
  615MOL0     H81145   4.360   2.722  10.823 -0.1177  0.8100 -1.2439
  615MOL0     H81146   4.328   2.770  11.270 -0.8551  2.0555 -0.0196
  615MOL0     H81147   4.214   2.649  11.243 -0.9597  0.0399  0.3422
  615MOL0     H81148   4.182   2.939  11.175 -0.2978 -0.3873  0.2567
  615MOL0     H81149   4.104   2.850  11.309  0.8223  1.8632 -0.2347
  615MOL0     H81150   3.989   2.713  11.114 -1.9804  0.4815  0.0158
  615MOL0     H81151   4.039   2.858  11.016 -0.8924  2.5578  1.0488
  615MOL0     H81152   3.811   2.892  11.076 -0.8373 -0.6672  1.9435
  615MOL0     H81153   3.848   2.886  11.251 -1.2350 -1.5554  0.1063
  615MOL0     H81154   3.993   3.072  11.063  0.1662  1.3723  0.7757
  615MOL0     H81155   3.976   3.074  11.241  0.8516 -2.4488 -0.0559
  615MOL0     H81156   3.747   3.163  11.241  0.1205  1.5490 -0.3147
  615MOL0     H81157   3.732   3.095  11.083  1.5973 -1.3439 -1.0910
  615MOL0     H81158   3.932   3.279  11.034  0.6369 -2.1900  1.5474
  615MOL0     H81159   3.761   3.342  11.046  1.4323  2.7734  0.9956
  615MOL0     H81160   3.924   3.468  11.184  0.7485 -1.0017 -1.2231
  615MOL0     H81161   3.952   3.311  11.276 -0.4099 -1.1400 -1.3026
  615MOL0     H81162   4.520   2.813  11.210 -2.7555  0.4656 -1.4061
  615MOL0     H81163   4.730   2.878  11.110  1.5313 -1.1457  0.1709
  615MOL0     H81164   5.180   2.930  10.950  1.0318 -2.7328  0.7957
  615MOL0     H81165   5.378   2.944  10.788 -0.3031  0.3901 -0.7676
  615MOL0     H81166   6.473   2.719   9.364 -0.4492  0.0101 -0.4421
  615MOL0     H81167   6.698   2.797   9.388  0.7087 -0.5742  0.6993
  615MOL0     H81168   6.950   3.058   9.635 -0.5456  3.2040 -0.5558
  615MOL0     H81169   7.192   3.111   9.694 -3.2332  1.0661  1.4612
  615MOL0     H81170   7.368   3.360   9.518  0.0238 -0.3302  0.8741
  615MOL0     H81171   7.501   3.299   9.413 -1.6703 -1.5901 -1.9326
  615MOL0     H81172   7.488   3.345   9.713  1.1682 -0.2863  0.9047
  615MOL0     H81173   7.581   3.205   9.648 -1.2415 -0.7066 -2.5279
  615MOL0     H81174   7.612   3.484   9.527  0.2950 -0.6543 -1.2338
  615MOL0     H81175   7.742   3.363   9.530 -0.1697  1.2314 -1.8827
  615MOL0     H81176   7.655   3.534   9.771  1.0971 -0.0425  0.0458
  615MOL0     H81177   7.745   3.393   9.783  1.3025  2.5397  3.5025
  615MOL0     H81178   8.051   3.651   9.653  0.4321  0.2917  1.6855
  615MOL0     H81179   7.275   3.152   9.267  0.2596 -0.3688  1.3718
  615MOL0     H81180   7.068   3.070   9.217 -0.2998  0.4206 -0.1455
  616MOL0     O81181   8.343   9.113   1.476  0.8989 -0.6242  0.1947
  616MOL0     C81182   8.325   9.146   1.593 -0.0978 -0.0150  0.4240
  616MOL0     O81183   8.324   9.271   1.644 -0.9417 -0.7244  0.3577
  616MOL0     C81184   8.369   9.369   1.562  0.1984  0.3584 -1.2964
  616MOL0     C81185   8.506   9.370   1.529  0.1844 -0.1922 -0.4139
  616MOL0     C81186   8.557   9.460   1.436 -0.0314  0.4850 -0.2758
  616MOL0     C81187   8.472   9.560   1.397 -0.5914 -0.0116  0.4490
  616MOL0     O81188   8.529   9.651   1.313 -0.6169 -0.3424  0.3048
  616MOL0     C81189   8.462   9.727   1.216  0.3985  0.4029 -0.2175
  616MOL0     C81190   8.422   9.628   1.109 -0.2780 -0.3356  0.1058
  616MOL0     C81191   8.336   9.701   0.992 -0.0906 -0.7190  0.2391
  616MOL0     C81192   8.279   9.592   0.892  0.4343 -0.1892 -0.1123
  616MOL0     C81193   8.385   9.563   0.783 -0.1796  0.5997  0.5676
  616MOL0     C81194   8.317   9.472   0.679  0.6714 -0.0364  0.1090
  616MOL0     C81195   8.412   9.409   0.576  0.0368 -0.3852 -0.5893
  616MOL0     C81196   8.329   9.302   0.500 -0.3168 -0.4082  0.2912
  616MOL0     N81197   8.238   9.375   0.411 -0.5966  0.2914  0.1064
  616MOL0     C81198   8.103   9.371   0.434  0.4208 -0.0288  0.2077
  616MOL0     C81199   8.046   9.447   0.335 -0.4443 -0.2949 -0.4795
  616MOL0     C81200   7.911   9.496   0.325  0.3961  0.0229 -0.3021
  616MOL0     C81201   7.831   9.472   0.204  0.6594 -1.0356 -0.7244
  616MOL0     C81202   7.813   9.323   0.172 -0.2622  0.4894 -0.6700
  616MOL0     C81203   7.710   9.285   0.071 -0.0765  0.3686 -0.0077
  616MOL0     O81204   7.723   9.144   0.039  0.0243 -0.1791 -0.5683
  616MOL0     C81205   7.636   9.048   0.083 -0.2790 -0.5662 -1.1284
  616MOL0     C81206   7.640   8.921   0.024  0.5579 -0.1339  0.3934
  616MOL0     C81207   7.558   8.816   0.048  0.4396 -0.4615  0.3486
  616MOL0     C81208   7.470   8.827   0.152  0.0123 -0.5023  0.1812
  616MOL0     C81209   7.388   8.713   0.183  0.9026 -0.4551 -1.0225
  616MOL0     O81210   7.272   8.747   0.253 -0.2610 -0.0632  0.2761
  616MOL0     C81211   7.191   8.651   0.313 -0.0066 -0.1696  0.0020
  616MOL0     C81212   7.242   8.534   0.381 -0.2841  0.1679 -0.0916
  616MOL0     C81213   7.155   8.447   0.442 -0.7467  1.5451 -0.4526
  616MOL0     C81214   7.015   8.459   0.421  0.6481  0.1669 -1.1719
  616MOL0     O81215   6.928   8.358   0.449  0.3172 -0.4601 -0.5767
  616MOL0     C81216   6.969   8.236   0.511 -0.0268 -0.1694 -1.2725
  616MOL0     C81217   6.862   8.132   0.503  0.2896  0.3413  0.2415
  616MOL0     C81218   6.727   8.179   0.564 -0.0010  1.2466 -0.3849
  616MOL0     C81219   6.726   8.255   0.701  0.7418 -0.5830 -1.2524
  616MOL0     C81220   6.571   8.287   0.735  0.2949 -0.2309 -0.5943
  616MOL0     C81221   6.492   8.159   0.760  0.3220 -0.4844 -0.7653
  616MOL0     C81222   6.394   8.164   0.883 -0.0767  1.2211  0.1274
  616MOL0     C81223   6.289   8.066   0.851 -0.1843 -0.0245  0.3849
  616MOL0    Cl81224   6.171   8.034   0.984  0.4643 -0.4789  0.0394
  616MOL0     C81225   6.966   8.565   0.353  0.8724 -0.2517  0.1883
  616MOL0     C81226   7.050   8.665   0.307  0.1470 -0.0735  0.2605
  616MOL0     O81227   7.422   8.602   0.157 -0.0590 -0.4793  0.0951
  616MOL0     C81228   7.444   8.957   0.203 -0.2799  0.1495 -0.0495
  616MOL0     C81229   7.537   9.063   0.183 -0.4497 -0.4425  0.1474
  616MOL0     N81230   8.150   9.486   0.254 -0.0931 -0.4294  0.6641
  616MOL0     N81231   8.261   9.443   0.302 -0.2078 -0.0788  0.1400
  616MOL0     C81232   8.340   9.571   1.434  1.2277  0.2518 -0.8582
  616MOL0     C81233   8.287   9.468   1.513  0.2423  0.3382 -0.4627
  616MOL0     C81234   8.312   9.036   1.692 -0.4781 -0.9328  0.5554
  616MOL0     C81235   8.249   9.058   1.814 -0.4530  0.1917  0.4953
  616MOL0     C81236   8.250   8.961   1.909 -0.6989 -1.6512 -0.5845
  616MOL0     C81237   8.304   8.836   1.890  0.1717  0.1782 -0.1316
  616MOL0     O81238   8.316   8.758   2.005  0.9897 -0.0248  0.1970
  616MOL0     C81239   8.415   8.656   2.006 -0.4696 -0.6904  0.6076
  616MOL0     C81240   8.506   8.703   2.121 -0.0468 -0.0215  0.0034
  616MOL0     C81241   8.640   8.634   2.125  0.9282  0.0465 -0.6052
  616MOL0     C81242   8.688   8.636   2.272 -0.5063 -0.2383  0.4081
  616MOL0     C81243   8.800   8.546   2.304  0.2206 -0.2005 -0.4027
  616MOL0     C81244   8.891   8.475   2.329 -0.5351  0.4378  0.3760
  616MOL0     C81245   8.351   8.802   1.763 -0.6816 -1.0907 -0.1510
  616MOL0     C81246   8.361   8.907   1.664 -0.6902  0.2267 -0.5842
  616MOL0     H81247   8.581   9.302   1.568 -1.5140 -0.3232  3.0410
  616MOL0     H81248   8.659   9.450   1.399  0.3279 -3.0367  1.2306
  616MOL0     H81249   8.524   9.803   1.167 -0.5921  0.3776 -1.5704
  616MOL0     H81250   8.372   9.776   1.253  1.0839  1.8299 -0.3494
  616MOL0     H81251   8.355   9.549   1.143 -0.1287 -0.6493 -0.3221
  616MOL0     H81252   8.510   9.583   1.062  1.3940  3.3253 -0.6621
  616MOL0     H81253   8.399   9.770   0.934  1.3837 -1.3712  1.0331
  616MOL0     H81254   8.257   9.753   1.047  2.0941  2.6199  0.5134
  616MOL0     H81255   8.265   9.500   0.949  2.0962  0.2312  1.0348
  616MOL0     H81256   8.185   9.626   0.847  1.0514  1.6660 -0.0941
  616MOL0     H81257   8.477   9.525   0.829 -0.7326 -2.1082 -0.3968
  616MOL0     H81258   8.412   9.655   0.730  0.1521  0.7056  0.9157
  616MOL0     H81259   8.236   9.528   0.633 -0.7341 -1.6450  0.5176
  616MOL0     H81260   8.279   9.389   0.739 -0.6963  0.4688 -0.0267
  616MOL0     H81261   8.452   9.494   0.520 -0.3047 -0.8611 -1.5658
  616MOL0     H81262   8.492   9.360   0.632  0.2719  0.7531  0.1189
  616MOL0     H81263   8.280   9.231   0.566  0.6401 -1.8922 -0.5430
  616MOL0     H81264   8.403   9.241   0.447 -2.2911 -3.0276  0.3605
  616MOL0     H81265   8.051   9.318   0.514 -0.4012 -0.1069 -0.3667
  616MOL0     H81266   7.930   9.603   0.325 -4.4206  1.1465 -3.1852
  616MOL0     H81267   7.847   9.471   0.411 -0.9231  1.1690 -0.9153
  616MOL0     H81268   7.882   9.517   0.118  0.6102  0.1483 -0.1577
  616MOL0     H81269   7.735   9.522   0.219  1.6064  0.7037 -0.1503
  616MOL0     H81270   7.908   9.278   0.142  0.8052  1.6604  0.8082
  616MOL0     H81271   7.789   9.267   0.263 -0.0923  1.9377  0.2995
  616MOL0     H81272   7.723   9.344  -0.020 -0.3426  0.9546  0.3252
  616MOL0     H81273   7.609   9.308   0.107 -1.0653 -2.9753 -0.3111
  616MOL0     H81274   7.711   8.906  -0.056 -1.9863 -1.3898 -1.7667
  616MOL0     H81275   7.579   8.718   0.006 -0.0774 -0.6166  0.4490
  616MOL0     H81276   7.349   8.526   0.395 -0.3412  0.6933  0.7051
  616MOL0     H81277   7.199   8.364   0.497 -1.4979  1.1484 -0.4390
  616MOL0     H81278   7.012   8.260   0.609 -0.4002 -1.3788 -0.8057
  616MOL0     H81279   7.053   8.198   0.451 -0.6627 -0.6244 -1.8893
  616MOL0     H81280   6.902   8.048   0.560  0.6639  0.7182  0.5419
  616MOL0     H81281   6.844   8.089   0.404 -2.7879  3.0935 -0.5590
  616MOL0     H81282   6.665   8.089   0.572  0.3159  0.9990 -0.6987
  616MOL0     H81283   6.674   8.237   0.489 -1.6379 -0.9133 -1.0023
  616MOL0     H81284   6.770   8.203   0.786 -1.8202 -0.3696  0.2893
  616MOL0     H81285   6.782   8.344   0.670  1.1127 -1.0228 -1.8870
  616MOL0     H81286   6.524   8.346   0.656  1.5284  3.3495  1.1183
  616MOL0     H81287   6.575   8.351   0.823 -2.9550 -0.1999 -0.3531
  616MOL0     H81288   6.557   8.075   0.785 -0.7906 -0.2474  3.9011
  616MOL0     H81289   6.433   8.139   0.671 -3.7460  0.4062  1.5011
  616MOL0     H81290   6.434   8.138   0.982 -4.2916 -1.9978  1.2838
  616MOL0     H81291   6.334   8.255   0.891  0.3191  1.5058 -0.1121
  616MOL0     H81292   6.337   7.974   0.817  1.1101  0.7795 -0.0595
  616MOL0     H81293   6.233   8.099   0.763  1.4608  1.3584 -0.2159
  616MOL0     H81294   6.858   8.577   0.339  0.8754  0.0038  0.3797
  616MOL0     H81295   7.011   8.756   0.261 -2.1005 -0.0892  1.9218
  616MOL0     H81296   7.356   8.956   0.267  0.6205 -1.9024  1.2462
  616MOL0     H81297   7.525   9.159   0.233 -0.7515 -0.1296 -0.5063
  616MOL0     H81298   8.271   9.647   1.397 -0.4094 -1.0633 -0.6498
  616MOL0     H81299   8.180   9.471   1.531  0.2884  0.8704 -0.2275
  616MOL0     H81300   8.212   9.156   1.841  2.3134  1.8843 -1.3545
  616MOL0     H81301   8.210   8.976   2.008  0.3262 -0.2524 -0.3576
  616MOL0     H81302   8.476   8.656   1.916 -1.0285  0.6063  0.2138
  616MOL0     H81303   8.380   8.552   2.016  0.1317 -1.3328 -2.8018
  616MOL0     H81304   8.524   8.810   2.102  0.8332  0.4413  2.9832
  616MOL0     H81305   8.454   8.683   2.215 -0.0436  2.2323  0.5469
  616MOL0     H81306   8.704   8.682   2.050  0.0456 -1.1417 -2.1843
  616MOL0     H81307   8.633   8.528   2.097 -1.8851 -1.0382  3.3792
  616MOL0     H81308   8.722   8.735   2.302  0.3692  0.5454 -2.7095
  616MOL0     H81309   8.606   8.607   2.338  0.2339 -0.6804  1.1459
  616MOL0     H81310   8.962   8.401   2.359  0.4223 -0.2432 -3.0714
  616MOL0     H81311   8.404   8.712   1.735  0.3614 -0.0125 -1.7838
  616MOL0     H81312   8.402   8.883   1.567 -0.7079  0.6942 -0.7104
  617MOL0     O81313   0.768   3.450   1.001 -0.4500  0.7206  0.1809
  617MOL0     C81314   0.772   3.567   1.021 -0.1780 -0.7700 -0.8676
  617MOL0     O81315   0.664   3.643   1.055 -0.0187 -0.2832  0.1589
  617MOL0     C81316   0.546   3.573   1.071  0.0099 -0.0711  0.4410
  617MOL0     C81317   0.438   3.614   0.993 -0.1462  0.2637 -0.0915
  617MOL0     C81318   0.309   3.570   1.025  0.6472  0.1223  0.3683
  617MOL0     C81319   0.286   3.479   1.125 -0.3120  0.8082  0.1754
  617MOL0     O81320   0.160   3.431   1.142 -0.7452  0.2137  0.3878
  617MOL0     C81321   0.154   3.290   1.151  0.7502 -0.1480 -1.1706
  617MOL0     C81322   0.005   3.253   1.181  0.4743  0.3290 -0.5361
  617MOL0     C81323  -0.029   3.303   1.322 -0.4604  0.1938  0.3907
  617MOL0     C81324  -0.156   3.257   1.376  0.0064 -0.0771 -0.5300
  617MOL0     C81325  -0.275   3.304   1.296 -0.8246 -0.4205  1.0152
  617MOL0     C81326  -0.289   3.449   1.281  0.8293  0.6285 -0.4642
  617MOL0     C81327  -0.431   3.509   1.248 -0.2533  1.1589 -0.0139
  617MOL0     C81328  -0.519   3.519   1.374 -0.3023  0.2211  0.5275
  617MOL0     N81329  -0.650   3.451   1.354  0.4720  0.4985 -0.6248
  617MOL0     C81330  -0.770   3.507   1.322 -0.1124  1.3375 -0.7547
  617MOL0     C81331  -0.863   3.408   1.334  0.6780  0.5595  0.6135
  617MOL0     C81332  -1.002   3.424   1.301 -0.9335 -0.8127  0.9358
  617MOL0     C81333  -1.086   3.485   1.409 -0.2011 -0.8884 -0.2796
  617MOL0     C81334  -1.238   3.505   1.364 -0.8374 -0.3125  0.8172
  617MOL0     C81335  -1.318   3.566   1.479  0.2432  0.2972 -0.3411
  617MOL0     O81336  -1.445   3.610   1.443  1.2204 -0.5319 -0.5477
  617MOL0     C81337  -1.518   3.684   1.538 -0.4823 -0.2544 -0.2155
  617MOL0     C81338  -1.639   3.743   1.501  0.4041  0.7270 -0.2807
  617MOL0     C81339  -1.725   3.813   1.587 -0.7380  0.1310 -0.6536
  617MOL0     C81340  -1.692   3.830   1.723 -0.2238  0.0176  0.1747
  617MOL0     C81341  -1.771   3.906   1.823 -0.9114  0.0700 -0.6253
  617MOL0     O81342  -1.908   3.923   1.799 -1.3716 -0.6119 -0.0784
  617MOL0     C81343  -1.991   3.997   1.891  0.5171  0.9875  0.6618
  617MOL0     C81344  -2.006   4.139   1.896  0.6279  0.4344  0.5092
  617MOL0     C81345  -2.102   4.196   1.981 -0.8904  0.3235 -0.4688
  617MOL0     C81346  -2.183   4.113   2.064 -0.5932  0.2862  0.6909
  617MOL0     O81347  -2.263   4.167   2.153 -0.1515  0.3322 -0.0020
  617MOL0     C81348  -2.223   4.298   2.218 -0.2672 -0.6155 -0.3013
  617MOL0     C81349  -2.318   4.317   2.334  0.4764 -0.6931 -0.1040
  617MOL0     C81350  -2.462   4.318   2.280 -0.0244  0.1121 -0.3842
  617MOL0     C81351  -2.554   4.371   2.390  0.3957  0.2463 -0.2472
  617MOL0     C81352  -2.677   4.288   2.406  0.5729  0.4958 -0.0508
  617MOL0     C81353  -2.759   4.355   2.511  0.2541  0.3964 -0.0809
  617MOL0     C81354  -2.884   4.273   2.537 -0.1683 -0.1921 -0.9941
  617MOL0     C81355  -2.875   4.144   2.609 -0.2338  0.3478  1.0917
  617MOL0    Cl81356  -2.784   4.152   2.761 -0.1801 -0.1894  0.0408
  617MOL0     C81357  -2.178   3.975   2.057  0.0442 -0.9157 -0.0811
  617MOL0     C81358  -2.086   3.915   1.962  0.3333  0.1650  0.2593
  617MOL0     O81359  -1.707   3.959   1.915  0.6708 -0.0357  0.8537
  617MOL0     C81360  -1.576   3.765   1.763 -0.0166  1.4262 -0.3596
  617MOL0     C81361  -1.487   3.693   1.675  0.1230 -0.2755 -0.9830
  617MOL0     N81362  -0.795   3.292   1.369  0.2354  0.3129 -0.9343
  617MOL0     N81363  -0.675   3.320   1.384  0.0950 -0.6214  0.0541
  617MOL0     C81364   0.390   3.438   1.209  0.1504  0.4446 -0.5393
  617MOL0     C81365   0.520   3.484   1.177 -0.3238 -0.5042 -0.6952
  617MOL0     C81366   0.893   3.632   0.977 -0.1853 -0.3019  0.2801
  617MOL0     C81367   0.924   3.767   1.015  0.4057 -0.3555  0.0937
  617MOL0     C81368   1.047   3.826   0.976 -0.4182  0.0001 -0.4639
  617MOL0     C81369   1.140   3.760   0.894 -0.5347 -0.0044 -0.3246
  617MOL0     O81370   1.254   3.826   0.860 -0.3025 -0.2131  0.2359
  617MOL0     C81371   1.377   3.754   0.874  0.0301  0.9545  0.1961
  617MOL0     C81372   1.443   3.743   0.737 -0.5255  0.2611  0.0645
  617MOL0     C81373   1.471   3.881   0.678 -1.3452 -0.8200  0.3351
  617MOL0     C81374   1.509   3.872   0.521 -0.6936  0.2855  0.4804
  617MOL0     C81375   1.428   3.778   0.435 -0.3541 -0.7055 -0.1868
  617MOL0     C81376   1.356   3.713   0.368 -0.1431  1.0072  0.3885
  617MOL0     C81377   1.104   3.635   0.854  0.0173  0.5700  0.1629
  617MOL0     C81378   0.989   3.569   0.888  0.5151 -0.2484 -0.6812
  617MOL0     H81379   0.455   3.671   0.902  1.2167 -0.1377 -0.1077
  617MOL0     H81380   0.229   3.607   0.961  0.2485  0.3433  0.9772
  617MOL0     H81381   0.206   3.237   1.231  0.1520 -0.2369 -0.8365
  617MOL0     H81382   0.178   3.246   1.054  0.8614  1.3666 -1.8561
  617MOL0     H81383  -0.010   3.145   1.165 -2.9092  0.2961  1.8156
  617MOL0     H81384  -0.061   3.299   1.107  1.4920  1.2444 -0.8883
  617MOL0     H81385  -0.015   3.411   1.325 -1.5223  0.3282  2.1037
  617MOL0     H81386   0.049   3.256   1.383  1.2882 -0.1368 -1.9697
  617MOL0     H81387  -0.158   3.148   1.373 -2.2908 -0.0768 -0.4549
  617MOL0     H81388  -0.160   3.293   1.480 -0.3249  0.7714 -0.8265
  617MOL0     H81389  -0.364   3.267   1.349 -0.2750 -2.1592  0.7931
  617MOL0     H81390  -0.269   3.260   1.196  3.7004  1.4006  0.2549
  617MOL0     H81391  -0.221   3.499   1.211  0.2992  1.7950 -0.1608
  617MOL0     H81392  -0.263   3.475   1.384 -2.0617 -0.8221  0.7414
  617MOL0     H81393  -0.425   3.611   1.208  1.4037  0.5899 -1.2820
  617MOL0     H81394  -0.482   3.448   1.174  1.9427  1.4413 -1.8494
  617MOL0     H81395  -0.529   3.628   1.379  4.0344  0.8912 -1.0816
  617MOL0     H81396  -0.469   3.477   1.462  1.4789  3.0470  0.9998
  617MOL0     H81397  -0.786   3.611   1.295  1.8931  2.3283  1.4399
  617MOL0     H81398  -1.032   3.323   1.272 -0.5109 -0.5565 -0.4963
  617MOL0     H81399  -1.016   3.472   1.203  4.5482 -0.4563  0.0425
  617MOL0     H81400  -1.042   3.579   1.444  0.3306 -0.9021 -0.8836
  617MOL0     H81401  -1.098   3.416   1.493 -3.2809  0.3459  0.4277
  617MOL0     H81402  -1.246   3.574   1.280 -0.8551 -2.4966 -1.0620
  617MOL0     H81403  -1.283   3.412   1.329  0.6920 -0.2632 -1.4573
  617MOL0     H81404  -1.262   3.652   1.517 -2.6281  0.1766  5.0959
  617MOL0     H81405  -1.329   3.483   1.550  0.8033 -1.4649 -2.2289
  617MOL0     H81406  -1.671   3.739   1.398  1.5731  2.0426 -0.7095
  617MOL0     H81407  -1.821   3.843   1.546 -0.6533 -1.5333 -2.2243
  617MOL0     H81408  -1.944   4.204   1.834  2.7310 -1.4869  0.4930
  617MOL0     H81409  -2.124   4.302   1.971 -0.2621  0.3689 -1.5473
  617MOL0     H81410  -2.240   4.386   2.156 -2.6223  1.3278  2.7704
  617MOL0     H81411  -2.125   4.291   2.268 -2.2373 -2.0976  3.8787
  617MOL0     H81412  -2.293   4.417   2.372  1.3909 -0.8903 -0.1672
  617MOL0     H81413  -2.309   4.240   2.411 -2.7428 -0.4019  0.7031
  617MOL0     H81414  -2.486   4.216   2.248  0.7806 -0.7504  1.6456
  617MOL0     H81415  -2.473   4.388   2.197 -0.6898  1.1536  0.5560
  617MOL0     H81416  -2.493   4.379   2.481  0.1365 -4.7966  0.6324
  617MOL0     H81417  -2.585   4.470   2.356 -0.1781  0.0483 -0.3069
  617MOL0     H81418  -2.652   4.188   2.443  0.0136  1.1892  2.4330
  617MOL0     H81419  -2.732   4.273   2.313 -3.1903 -0.3046  2.0728
  617MOL0     H81420  -2.798   4.454   2.485 -2.7234 -0.5282  0.4879
  617MOL0     H81421  -2.704   4.368   2.606  1.3695 -1.1770 -0.4693
  617MOL0     H81422  -2.954   4.341   2.587 -1.6947 -0.9620 -2.0004
  617MOL0     H81423  -2.937   4.260   2.442 -3.1681  0.7378  0.4297
  617MOL0     H81424  -2.831   4.071   2.541 -1.1041  1.0051 -0.1946
  617MOL0     H81425  -2.969   4.095   2.636  1.6056 -3.6651  1.0704
  617MOL0     H81426  -2.247   3.922   2.122 -1.1252  2.1918  1.4390
  617MOL0     H81427  -2.084   3.807   1.954  1.9567 -0.3967  4.9924
  617MOL0     H81428  -1.552   3.770   1.869 -1.9841  1.0003  0.1437
  617MOL0     H81429  -1.401   3.650   1.725  0.3131 -0.1413 -1.1937
  617MOL0     H81430   0.380   3.374   1.296 -0.4391  0.4580 -0.5889
  617MOL0     H81431   0.597   3.458   1.249 -1.1764 -0.4431  0.2581
  617MOL0     H81432   0.846   3.823   1.066 -1.0780 -1.1599 -1.2173
  617MOL0     H81433   1.075   3.924   1.012 -0.1221  0.8455 -2.8461
  617MOL0     H81434   1.368   3.652   0.911 -1.7864 -0.1921 -2.9555
  617MOL0     H81435   1.442   3.803   0.947  0.9223  0.7938 -0.4717
  617MOL0     H81436   1.538   3.691   0.751  0.8275  2.4022 -0.7507
  617MOL0     H81437   1.376   3.683   0.674  2.3411 -0.7372 -2.2628
  617MOL0     H81438   1.566   3.925   0.709  1.0725 -4.0242 -1.8641
  617MOL0     H81439   1.392   3.957   0.689 -0.8260 -0.3800  1.1394
  617MOL0     H81440   1.496   3.972   0.478  0.2954  1.3050  2.4196
  617MOL0     H81441   1.614   3.845   0.510  0.1324  3.9987 -2.5990
  617MOL0     H81442   1.288   3.655   0.310 -0.9670  0.5112  1.8002
  617MOL0     H81443   1.161   3.597   0.770  1.0564 -1.6021  1.7386
  617MOL0     H81444   0.967   3.471   0.849 -0.0638 -0.8372  1.0080
  618MOL0     O81445   4.930   0.160   6.900 -1.6001  0.5239  0.3749
  618MOL0     C81446   4.944   0.038   6.884  0.4155  0.8817 -0.5143
  618MOL0     O81447   4.845  -0.059   6.885 -0.3185 -0.6776 -1.0231
  618MOL0     C81448   4.716  -0.022   6.891  1.3964 -0.4196  0.1206
  618MOL0     C81449   4.664   0.083   6.976  0.4068  0.7773 -0.9406
  618MOL0     C81450   4.539   0.138   6.959 -0.5373 -0.2856  0.1088
  618MOL0     C81451   4.455   0.078   6.867  0.0846  0.5661 -0.9360
  618MOL0     O81452   4.323   0.128   6.853 -0.3104  0.5160 -0.6437
  618MOL0     C81453   4.248   0.144   6.974 -0.8655 -0.3521  0.8208
  618MOL0     C81454   4.098   0.146   6.944  0.9235  0.0333 -0.1203
  618MOL0     C81455   4.047   0.273   6.871  0.0509 -0.5589  0.5399
  618MOL0     C81456   3.895   0.271   6.871  0.2204 -0.1962 -0.7239
  618MOL0     C81457   3.833   0.389   6.788  0.0473 -0.3565 -0.4255
  618MOL0     C81458   3.674   0.391   6.777 -0.4351  0.5825  0.2965
  618MOL0     C81459   3.604   0.430   6.908 -0.2778 -0.7318 -0.2473
  618MOL0     C81460   3.478   0.349   6.946  1.1096 -0.3240  0.2127
  618MOL0     N81461   3.357   0.414   6.890 -0.1836  0.1245  0.6266
  618MOL0     C81462   3.308   0.391   6.765 -0.3177  0.3308  1.3916
  618MOL0     C81463   3.203   0.475   6.744 -0.7971  0.8340  0.3053
  618MOL0     C81464   3.114   0.494   6.626  0.3144 -0.2066 -0.2837
  618MOL0     C81465   2.970   0.445   6.653 -0.6814 -0.6297 -1.1142
  618MOL0     C81466   2.874   0.472   6.538 -0.3383 -0.4073 -0.2904
  618MOL0     C81467   2.729   0.432   6.563  1.0859 -0.0220  0.3331
  618MOL0     O81468   2.682   0.495   6.678  0.2641 -0.4785 -0.0180
  618MOL0     C81469   2.551   0.480   6.718  0.8018 -0.2840 -0.6227
  618MOL0     C81470   2.454   0.450   6.628  0.1238 -0.2893  0.4570
  618MOL0     C81471   2.321   0.423   6.668 -0.1502 -0.0118  0.3848
  618MOL0     C81472   2.284   0.423   6.805 -0.6768  0.3493 -0.1229
  618MOL0     C81473   2.146   0.385   6.842 -0.9463  0.8805 -0.3698
  618MOL0     O81474   2.079   0.324   6.743 -0.5164 -0.0165 -1.0525
  618MOL0     C81475   1.955   0.273   6.770  0.3792 -0.3560  0.6970
  618MOL0     C81476   1.923   0.192   6.878 -0.8067  0.5392 -0.8817
  618MOL0     C81477   1.794   0.150   6.903  0.1281 -0.8526  0.1599
  618MOL0     C81478   1.696   0.171   6.809 -0.7067  0.3542  0.0336
  618MOL0     O81479   1.574   0.129   6.848  0.3002  0.6324 -0.2450
  618MOL0     C81480   1.477   0.106   6.742 -0.1914  0.5792 -0.4714
  618MOL0     C81481   1.343   0.037   6.787  0.4267  0.2849  0.3130
  618MOL0     C81482   1.364  -0.073   6.886  0.1666 -0.1606  0.0878
  618MOL0     C81483   1.231  -0.110   6.952  0.0274 -0.0565  0.0217
  618MOL0     C81484   1.131  -0.177   6.849 -0.4623 -0.4705  0.2368
  618MOL0     C81485   1.007  -0.218   6.921 -0.0607 -0.7347 -0.4728
  618MOL0     C81486   0.907  -0.251   6.809 -0.2889  0.2996 -0.0080
  618MOL0     C81487   0.795  -0.325   6.878 -0.6164  0.2036 -0.5749
  618MOL0    Cl81488   0.832  -0.487   6.944  0.0823 -0.1626 -0.4401
  618MOL0     C81489   1.730   0.226   6.685 -0.6707  0.3081  0.0195
  618MOL0     C81490   1.856   0.293   6.671 -0.0688  0.7302  0.6380
  618MOL0     O81491   2.112   0.399   6.961 -0.2033 -0.3087 -0.3354
  618MOL0     C81492   2.384   0.458   6.901 -0.3608 -0.3164  0.0424
  618MOL0     C81493   2.513   0.483   6.851 -0.7318 -0.8494  0.4665
  618MOL0     N81494   3.189   0.540   6.866 -0.7181  0.2471 -0.3520
  618MOL0     N81495   3.278   0.509   6.952 -0.4269  0.1058 -0.1277
  618MOL0     C81496   4.497  -0.035   6.790 -0.4648  0.7120 -0.0365
  618MOL0     C81497   4.629  -0.084   6.795 -0.0558  0.2748 -0.0357
  618MOL0     C81498   5.080  -0.019   6.861 -0.0324 -0.3209  0.1257
  618MOL0     C81499   5.196   0.058   6.886 -0.2213  0.1661 -1.0258
  618MOL0     C81500   5.316  -0.001   6.864  0.0581  0.3722  0.6454
  618MOL0     C81501   5.332  -0.138   6.835  0.7971  0.0933 -0.7205
  618MOL0     O81502   5.447  -0.214   6.833 -0.2607  0.7410 -0.1189
  618MOL0     C81503   5.577  -0.161   6.853  0.2449 -0.2800 -0.5337
  618MOL0     C81504   5.645  -0.129   6.713  0.5721  0.1421  0.8468
  618MOL0     C81505   5.794  -0.097   6.733 -0.0499 -0.0185  0.3322
  618MOL0     C81506   5.841   0.007   6.619 -0.3015 -0.0802  0.1474
  618MOL0     C81507   5.803   0.141   6.639  0.9762 -0.5676  0.0964
  618MOL0     C81508   5.768   0.254   6.663 -0.3099 -0.4728  0.1162
  618MOL0     C81509   5.217  -0.213   6.799 -0.1838 -0.7870  0.5203
  618MOL0     C81510   5.092  -0.151   6.820  0.6555  0.3664 -0.7643
  618MOL0     H81511   4.731   0.118   7.054 -1.1236 -1.6533  1.6554
  618MOL0     H81512   4.502   0.206   7.035 -1.4186 -1.4543  0.7611
  618MOL0     H81513   4.265   0.240   7.023  0.5719 -1.7732  3.3426
  618MOL0     H81514   4.271   0.061   7.041 -0.3556 -1.0628 -0.1972
  618MOL0     H81515   4.044   0.152   7.039 -0.5534  1.5213 -0.9893
  618MOL0     H81516   4.073   0.053   6.891  2.8829 -0.7879  0.3145
  618MOL0     H81517   4.088   0.277   6.770  1.7143 -2.9817  1.0613
  618MOL0     H81518   4.079   0.364   6.924 -1.1608  0.2622 -0.0798
  618MOL0     H81519   3.868   0.177   6.820  2.9553 -2.5240  1.7953
  618MOL0     H81520   3.854   0.258   6.971  2.1959 -0.2629  0.1146
  618MOL0     H81521   3.881   0.378   6.690  1.5985 -0.8953  0.3589
  618MOL0     H81522   3.858   0.487   6.829  0.9875  0.4927 -2.8285
  618MOL0     H81523   3.637   0.296   6.737 -2.0130  1.5649 -0.6728
  618MOL0     H81524   3.652   0.460   6.695  1.5826  1.4833  0.4425
  618MOL0     H81525   3.682   0.427   6.985  0.1919  1.2978 -0.5889
  618MOL0     H81526   3.579   0.536   6.901  1.5279 -0.2560 -0.0887
  618MOL0     H81527   3.477   0.340   7.055  0.3293  2.3278  0.4823
  618MOL0     H81528   3.482   0.246   6.910  1.0989 -0.0922 -0.4668
  618MOL0     H81529   3.351   0.312   6.704  1.2313  0.5806  2.1217
  618MOL0     H81530   3.157   0.442   6.541  1.4325  0.0358  0.1126
  618MOL0     H81531   3.101   0.602   6.614 -0.3799 -0.5187 -2.9937
  618MOL0     H81532   2.933   0.503   6.738  2.2283 -0.1277 -0.0799
  618MOL0     H81533   2.962   0.339   6.678 -0.7042 -0.8329 -1.9517
  618MOL0     H81534   2.878   0.577   6.508 -0.7167 -0.6459 -1.2201
  618MOL0     H81535   2.923   0.428   6.451  0.3676  0.9852 -0.6258
  618MOL0     H81536   2.702   0.325   6.560 -3.9585  0.9622  0.7161
  618MOL0     H81537   2.672   0.484   6.485  0.7144 -1.7659 -0.6237
  618MOL0     H81538   2.483   0.437   6.525  0.0216 -2.8163  0.6958
  618MOL0     H81539   2.249   0.377   6.601  1.4931 -0.6405 -1.0252
  618MOL0     H81540   2.003   0.165   6.947 -1.2048  2.5784  0.4732
  618MOL0     H81541   1.773   0.087   6.988 -1.0094 -2.3255 -1.1488
  618MOL0     H81542   1.528   0.039   6.672 -0.0174 -1.3828  1.4108
  618MOL0     H81543   1.448   0.200   6.694 -0.7876 -0.3312 -1.9785
  618MOL0     H81544   1.292  -0.005   6.700 -0.7790 -0.6464  1.4386
  618MOL0     H81545   1.290   0.122   6.832  0.1842  2.2634 -3.3145
  618MOL0     H81546   1.432  -0.045   6.968 -1.3313  0.2109  1.2504
  618MOL0     H81547   1.416  -0.149   6.827 -0.3703  0.8661 -1.7645
  618MOL0     H81548   1.259  -0.181   7.031  0.9308 -1.7104 -1.7095
  618MOL0     H81549   1.186  -0.023   7.002  0.4625 -0.7129  1.6248
  618MOL0     H81550   1.193  -0.262   6.820  0.2375  0.8491 -2.5370
  618MOL0     H81551   1.112  -0.110   6.764  0.3473 -0.0956  0.3401
  618MOL0     H81552   0.975  -0.131   6.979  0.3972 -0.7987 -0.1248
  618MOL0     H81553   1.041  -0.299   6.986  1.5874  1.0924  1.0713
  618MOL0     H81554   0.868  -0.161   6.762 -0.4499 -0.1622 -0.7831
  618MOL0     H81555   0.950  -0.320   6.736  0.4052  2.0880 -1.3565
  618MOL0     H81556   0.711  -0.321   6.807 -0.6558  2.0011 -0.4793
  618MOL0     H81557   0.765  -0.268   6.966 -0.0163  0.0587 -0.2749
  618MOL0     H81558   1.656   0.227   6.606  0.1823 -0.4441 -0.8249
  618MOL0     H81559   1.884   0.336   6.576  1.5584  0.2754  0.8924
  618MOL0     H81560   2.356   0.461   7.005 -0.3583 -0.6141  0.0525
  618MOL0     H81561   2.595   0.501   6.919  1.1993 -2.2206 -1.3771
  618MOL0     H81562   4.422  -0.067   6.718 -0.7107 -0.0842  0.5551
  618MOL0     H81563   4.670  -0.139   6.711  2.3801 -0.6415  1.6281
  618MOL0     H81564   5.192   0.162   6.914  0.8421  0.2511 -1.1568
  618MOL0     H81565   5.405   0.061   6.864 -0.3363  0.9859 -0.9951
  618MOL0     H81566   5.640  -0.239   6.896  0.8483 -3.2911 -5.9567
  618MOL0     H81567   5.575  -0.069   6.912  0.2622 -0.0452 -0.8986
  618MOL0     H81568   5.638  -0.217   6.648 -1.3752  1.3228 -0.6637
  618MOL0     H81569   5.596  -0.041   6.671 -0.6767 -0.8242  0.2078
  618MOL0     H81570   5.853  -0.188   6.716 -1.0481 -0.8005  0.8826
  618MOL0     H81571   5.818  -0.044   6.826  1.1445  3.1422 -1.6432
  618MOL0     H81572   5.949   0.004   6.633 -0.5052  1.1132  2.6493
  618MOL0     H81573   5.808  -0.044   6.528  1.3213 -1.2417  0.1626
  618MOL0     H81574   5.740   0.350   6.699 -0.2413 -0.0678 -0.8782
  618MOL0     H81575   5.225  -0.313   6.759  1.2683 -0.3624 -0.3287
  618MOL0     H81576   4.998  -0.202   6.803  0.7283  0.5385 -1.7733
  619MOL0     O81577   2.921   4.679   2.434 -0.2845  0.1723  0.2515
  619MOL0     C81578   3.017   4.618   2.479 -0.5853 -0.2698 -0.3103
  619MOL0     O81579   3.021   4.505   2.567  0.3937  0.0479 -0.4955
  619MOL0     C81580   2.912   4.455   2.636 -0.6925  0.0204 -0.4705
  619MOL0     C81581   2.948   4.370   2.741 -0.4468 -0.3717 -0.6388
  619MOL0     C81582   2.850   4.307   2.818 -0.2472  0.0386 -0.3564
  619MOL0     C81583   2.715   4.344   2.807  1.1521 -0.4057 -0.1799
  619MOL0     O81584   2.623   4.294   2.893 -0.1630 -0.0739 -0.0304
  619MOL0     C81585   2.635   4.347   3.029 -0.6734 -0.2747  0.5434
  619MOL0     C81586   2.610   4.229   3.119 -0.2091  0.2193  0.5938
  619MOL0     C81587   2.460   4.195   3.125 -1.2840  0.1380 -0.0094
  619MOL0     C81588   2.429   4.089   3.236  0.3420 -0.6032  0.4158
  619MOL0     C81589   2.272   4.072   3.241 -0.1631  0.7567  0.4253
  619MOL0     C81590   2.235   3.967   3.354 -0.1562 -0.1819 -0.1437
  619MOL0     C81591   2.081   3.933   3.335  0.0996 -0.3150  0.3963
  619MOL0     C81592   2.039   3.833   3.428 -0.2675 -0.1397  1.0062
  619MOL0     N81593   1.910   3.776   3.399  0.3394 -0.2665 -0.3454
  619MOL0     C81594   1.790   3.834   3.452 -0.3543 -0.1445  0.4666
  619MOL0     C81595   1.687   3.753   3.411 -0.9213 -0.3218  0.5427
  619MOL0     C81596   1.552   3.777   3.453  0.2079 -0.1049 -0.4412
  619MOL0     C81597   1.526   3.698   3.583  0.0108 -0.3374 -0.3016
  619MOL0     C81598   1.378   3.693   3.616  0.3428  0.5937 -0.3887
  619MOL0     C81599   1.360   3.630   3.753 -0.2481 -0.7164 -0.0501
  619MOL0     O81600   1.329   3.732   3.856 -0.5693  0.1525  0.4288
  619MOL0     C81601   1.205   3.783   3.866 -0.4127 -0.1034 -0.1290
  619MOL0     C81602   1.163   3.866   3.972 -0.3057 -0.5966 -0.2964
  619MOL0     C81603   1.038   3.917   3.983  0.0242 -0.1069 -0.9703
  619MOL0     C81604   0.947   3.907   3.877  0.7985  0.3047  0.5960
  619MOL0     C81605   0.801   3.946   3.889 -0.9369 -0.3542 -0.5119
  619MOL0     O81606   0.699   3.905   3.810  0.1218 -0.2641 -0.1901
  619MOL0     C81607   0.564   3.935   3.839  0.0521  0.7545 -0.5029
  619MOL0     C81608   0.502   3.879   3.958  0.3235 -0.5242  0.0391
  619MOL0     C81609   0.362   3.900   3.975 -0.7652  0.3941  0.8117
  619MOL0     C81610   0.281   3.938   3.863 -0.0238  0.4524 -0.1655
  619MOL0     O81611   0.144   3.936   3.895  0.0830 -0.4999  0.1702
  619MOL0     C81612   0.046   3.965   3.786 -0.2700 -0.0073  0.9484
  619MOL0     C81613  -0.094   3.905   3.819 -0.2215  0.6481  0.3893
  619MOL0     C81614  -0.173   3.994   3.913  0.5457 -0.1239  0.5070
  619MOL0     C81615  -0.304   3.925   3.937 -0.4415  0.1221  0.2565
  619MOL0     C81616  -0.410   3.938   3.828  0.3575 -0.2320  0.4178
  619MOL0     C81617  -0.448   4.086   3.792 -0.3473  0.0699 -0.2196
  619MOL0     C81618  -0.565   4.077   3.683 -0.7933  0.2532  0.0291
  619MOL0     C81619  -0.607   4.215   3.644  0.4870 -0.6213 -0.9574
  619MOL0    Cl81620  -0.492   4.283   3.535  0.0672 -0.0776  0.2367
  619MOL0     C81621   0.341   3.979   3.744  0.4893  0.0241 -0.8882
  619MOL0     C81622   0.483   3.980   3.737  0.7432  0.4400  0.0403
  619MOL0     O81623   0.790   4.034   3.975  0.3666 -0.0068  0.3321
  619MOL0     C81624   0.983   3.823   3.768  0.2890  0.2217  0.6192
  619MOL0     C81625   1.104   3.761   3.768  1.2394  0.1530  0.5797
  619MOL0     N81626   1.756   3.642   3.357  0.3909  0.6901 -0.5596
  619MOL0     N81627   1.875   3.654   3.353  0.1349 -0.8627  0.3031
  619MOL0     C81628   2.682   4.431   2.710  0.1305 -0.1362  0.5645
  619MOL0     C81629   2.778   4.481   2.622 -0.3247 -0.7466  0.1355
  619MOL0     C81630   3.143   4.674   2.430 -0.7394  0.3835  0.4253
  619MOL0     C81631   3.143   4.750   2.308  0.1379  0.6925 -1.0526
  619MOL0     C81632   3.266   4.814   2.268 -0.1914 -0.6776 -0.3304
  619MOL0     C81633   3.385   4.814   2.354 -0.2552  0.2534  0.4939
  619MOL0     O81634   3.505   4.884   2.333  0.5072  0.1040  0.5934
  619MOL0     C81635   3.482   5.004   2.251  1.0372 -0.1048  0.1376
  619MOL0     C81636   3.591   5.101   2.267 -0.4132 -0.6317 -0.8234
  619MOL0     C81637   3.734   5.042   2.231  0.8570 -1.0180 -0.1483
  619MOL0     C81638   3.831   5.170   2.231 -0.3095  0.7636 -0.3705
  619MOL0     C81639   3.971   5.119   2.204  0.1309  0.8087  0.6102
  619MOL0     C81640   4.078   5.073   2.180 -0.1291  1.2060 -0.4312
  619MOL0     C81641   3.383   4.725   2.454  0.2639 -0.5788 -0.0074
  619MOL0     C81642   3.263   4.671   2.504 -0.5651  0.4529  0.4503
  619MOL0     H81643   3.048   4.367   2.782 -0.1895  0.9671 -1.1235
  619MOL0     H81644   2.887   4.254   2.906  1.4773 -0.9036 -1.5860
  619MOL0     H81645   2.565   4.429   3.046 -0.0129  0.2801  0.6384
  619MOL0     H81646   2.727   4.397   3.058 -0.3533 -0.1951 -0.5536
  619MOL0     H81647   2.646   4.250   3.221  0.1815 -0.4816  0.6098
  619MOL0     H81648   2.676   4.144   3.097  0.5107  0.2898  2.2698
  619MOL0     H81649   2.435   4.143   3.032 -0.4531  0.7598 -0.5888
  619MOL0     H81650   2.404   4.289   3.133 -0.0817  0.9959 -1.1942
  619MOL0     H81651   2.469   3.990   3.211  0.7010 -0.2622 -0.3935
  619MOL0     H81652   2.471   4.115   3.333  3.1023  1.2948 -1.1711
  619MOL0     H81653   2.237   4.035   3.144  0.0758  1.0789  0.2121
  619MOL0     H81654   2.228   4.171   3.252  0.0031  0.5523  4.0245
  619MOL0     H81655   2.253   4.003   3.456 -0.9792  1.5157 -0.5722
  619MOL0     H81656   2.295   3.876   3.345  3.0038  1.4876  1.9648
  619MOL0     H81657   2.016   4.020   3.348  0.4665 -0.1485  1.2337
  619MOL0     H81658   2.074   3.891   3.234 -2.1372 -2.2269  1.2623
  619MOL0     H81659   2.044   3.881   3.526  1.3806  0.7477  0.5330
  619MOL0     H81660   2.116   3.756   3.420 -0.7505 -0.6127  0.8294
  619MOL0     H81661   1.775   3.929   3.502 -0.8491 -0.1208  0.2732
  619MOL0     H81662   1.479   3.753   3.374 -2.1339  1.0620  1.2600
  619MOL0     H81663   1.536   3.884   3.470 -0.4054 -0.2189 -0.2826
  619MOL0     H81664   1.589   3.747   3.658  0.2143 -2.5224  1.0245
  619MOL0     H81665   1.560   3.595   3.572 -2.3060 -0.8956 -3.4661
  619MOL0     H81666   1.324   3.788   3.614 -2.5915 -0.9105 -3.3335
  619MOL0     H81667   1.329   3.629   3.542  0.5471  1.7140 -1.5311
  619MOL0     H81668   1.450   3.577   3.786  0.5636  0.8666  0.3939
  619MOL0     H81669   1.286   3.551   3.741  0.3753 -1.1555 -1.0908
  619MOL0     H81670   1.228   3.886   4.057  2.1917 -1.3677 -1.9297
  619MOL0     H81671   1.017   3.982   4.068  1.6280  0.7733 -1.2141
  619MOL0     H81672   0.566   3.838   4.035 -1.0215 -0.5854  1.1613
  619MOL0     H81673   0.312   3.883   4.070 -1.1634  0.6345  0.6512
  619MOL0     H81674   0.081   3.915   3.695 -4.4164  0.2910 -1.0604
  619MOL0     H81675   0.045   4.074   3.779  1.3760  0.0574  1.2998
  619MOL0     H81676  -0.090   3.803   3.858 -1.5112  0.0274 -1.0243
  619MOL0     H81677  -0.141   3.894   3.721 -1.5943  0.0396  1.0870
  619MOL0     H81678  -0.187   4.094   3.869  0.0914  1.0447  3.0900
  619MOL0     H81679  -0.120   4.009   4.007  0.0431 -2.0146  1.1388
  619MOL0     H81680  -0.273   3.824   3.965  1.7019  0.0701 -1.9392
  619MOL0     H81681  -0.345   3.980   4.022 -1.1939  2.5875 -1.5871
  619MOL0     H81682  -0.494   3.883   3.870 -0.2603  0.3463 -0.0386
  619MOL0     H81683  -0.374   3.881   3.742  0.1984 -0.7288  0.6794
  619MOL0     H81684  -0.361   4.122   3.736  0.4951 -0.6805  0.5702
  619MOL0     H81685  -0.471   4.149   3.878 -2.4831 -0.9513  0.0148
  619MOL0     H81686  -0.546   4.015   3.595  0.2501 -1.7603  1.5998
  619MOL0     H81687  -0.647   4.016   3.723  1.9492 -2.1159  2.5424
  619MOL0     H81688  -0.622   4.285   3.727 -0.1649  1.0973 -2.4641
  619MOL0     H81689  -0.706   4.207   3.599 -0.5603 -2.7552  1.4333
  619MOL0     H81690   0.276   4.001   3.660  0.2813  3.9750  0.1243
  619MOL0     H81691   0.538   4.003   3.645 -0.4574 -0.6848 -0.9986
  619MOL0     H81692   0.901   3.800   3.701 -1.4899  0.9200  2.4679
  619MOL0     H81693   1.111   3.700   3.678 -3.0694  1.2753 -0.7787
  619MOL0     H81694   2.578   4.458   2.693 -0.1680 -2.3147 -1.5966
  619MOL0     H81695   2.733   4.542   2.544 -1.7513 -0.3568  1.2179
  619MOL0     H81696   3.060   4.760   2.238 -0.1218 -0.5512 -0.9419
  619MOL0     H81697   3.266   4.874   2.177  2.3977  0.3002  0.2171
  619MOL0     H81698   3.391   5.059   2.277 -0.4946 -2.0839 -0.7117
  619MOL0     H81699   3.458   4.968   2.150 -0.2271 -3.2210  1.4111
  619MOL0     H81700   3.575   5.186   2.200 -1.5588  0.1956  0.4451
  619MOL0     H81701   3.591   5.129   2.372 -0.3417  2.2542 -1.5085
  619MOL0     H81702   3.747   4.983   2.140  0.9982 -1.0044 -0.1366
  619MOL0     H81703   3.770   4.979   2.313 -0.2545 -1.2741  0.1642
  619MOL0     H81704   3.814   5.244   2.152  2.0887 -1.2164 -2.9666
  619MOL0     H81705   3.843   5.212   2.331  0.4049 -2.9785  1.2908
  619MOL0     H81706   4.177   5.044   2.152 -0.9531 -0.5809 -1.6603
  619MOL0     H81707   3.479   4.718   2.504  0.1034  1.3417  0.6607
  619MOL0     H81708   3.279   4.607   2.590  2.2974 -1.6457 -1.4201
  620MOL0     O81709   0.260   2.982   3.589  0.0357 -1.4515 -0.5660
  620MOL0     C81710   0.182   2.932   3.662  0.7061  0.4475 -1.0691
  620MOL0     O81711   0.216   2.825   3.739  0.3613 -0.4031  0.5873
  620MOL0     C81712   0.327   2.755   3.719 -0.8546 -0.1222 -0.2035
  620MOL0     C81713   0.424   2.736   3.814 -1.0198  0.0529 -0.3130
  620MOL0     C81714   0.528   2.642   3.796  0.6875  0.0516 -0.4103
  620MOL0     C81715   0.552   2.572   3.675 -0.3216 -0.0564  0.8104
  620MOL0     O81716   0.657   2.487   3.648  0.6914  0.0295 -0.6310
  620MOL0     C81717   0.777   2.469   3.733 -0.7528  0.2374  0.6945
  620MOL0     C81718   0.867   2.591   3.751  0.1045 -0.3456 -0.0471
  620MOL0     C81719   0.966   2.608   3.635 -0.3762  0.1837 -0.1664
  620MOL0     C81720   1.074   2.708   3.673  0.0159  0.3633  0.1791
  620MOL0     C81721   1.127   2.785   3.549  0.0270 -0.2072 -0.1353
  620MOL0     C81722   1.266   2.845   3.582 -0.3963  0.4448  0.1353
  620MOL0     C81723   1.328   2.917   3.458  0.2818 -0.8574 -1.3501
  620MOL0     C81724   1.395   2.827   3.358 -0.1177  0.6624 -0.2927
  620MOL0     N81725   1.305   2.747   3.276 -0.2933  0.3082  0.6989
  620MOL0     C81726   1.248   2.783   3.159  0.5167  0.4034 -0.8519
  620MOL0     C81727   1.196   2.665   3.114  0.3059 -0.4193 -0.4143
  620MOL0     C81728   1.137   2.640   2.982 -0.6874 -0.1259 -0.3515
  620MOL0     C81729   1.055   2.756   2.916 -0.1265 -0.1910  0.3704
  620MOL0     C81730   0.954   2.811   3.010 -0.0923  0.1121  1.0963
  620MOL0     C81731   0.863   2.908   2.948 -0.1925 -1.0564 -0.1240
  620MOL0     O81732   0.770   2.844   2.853  0.4064  0.1422  0.0536
  620MOL0     C81733   0.656   2.907   2.822  0.4349 -0.6548 -0.0589
  620MOL0     C81734   0.611   3.030   2.868 -0.6545  0.2505  0.1484
  620MOL0     C81735   0.489   3.086   2.833 -0.1140 -0.4098 -0.1480
  620MOL0     C81736   0.399   3.010   2.758 -1.0010 -0.2112 -0.0571
  620MOL0     C81737   0.257   3.055   2.742 -0.0910 -0.2106 -0.0982
  620MOL0     O81738   0.238   3.194   2.755 -0.1835 -0.0646 -0.3421
  620MOL0     C81739   0.122   3.242   2.681 -0.5397 -0.4148 -0.1630
  620MOL0     C81740  -0.012   3.212   2.709 -0.8741  0.0064 -0.4008
  620MOL0     C81741  -0.115   3.275   2.642  0.6221 -0.0362 -0.1600
  620MOL0     C81742  -0.092   3.366   2.541 -0.4748 -0.0231  0.3016
  620MOL0     O81743  -0.193   3.418   2.468 -0.0921  1.1156  0.6930
  620MOL0     C81744  -0.285   3.489   2.546  0.4268  0.7664  0.3141
  620MOL0     C81745  -0.369   3.571   2.458 -1.0465 -0.0583 -0.7296
  620MOL0     C81746  -0.443   3.677   2.541 -0.1470  0.3893 -0.1931
  620MOL0     C81747  -0.562   3.740   2.466  0.3846 -0.3017  0.3020
  620MOL0     C81748  -0.506   3.834   2.356  0.1357  0.0885 -0.7010
  620MOL0     C81749  -0.616   3.912   2.298  0.4748 -0.4799 -0.5387
  620MOL0     C81750  -0.665   4.024   2.382 -0.9332  0.5678 -0.5626
  620MOL0     C81751  -0.790   4.088   2.322 -0.3020  0.3481  0.3515
  620MOL0    Cl81752  -0.759   4.131   2.146 -0.5532  0.0780 -0.1503
  620MOL0     C81753   0.044   3.390   2.504  0.0762  0.2203 -0.7895
  620MOL0     C81754   0.150   3.338   2.585 -0.7115 -0.1559 -0.0759
  620MOL0     O81755   0.175   2.972   2.705  0.3256  0.1983 -0.6867
  620MOL0     C81756   0.442   2.886   2.711  0.7092  0.1693  0.8902
  620MOL0     C81757   0.573   2.839   2.734  0.6062 -0.5809  0.1131
  620MOL0     N81758   1.230   2.565   3.206 -0.2141  0.2794  0.3714
  620MOL0     N81759   1.290   2.613   3.308 -0.0208 -0.5248  0.5595
  620MOL0     C81760   0.463   2.601   3.574 -0.3752 -0.0886  0.5654
  620MOL0     C81761   0.350   2.686   3.592  0.2446 -0.1075  0.4810
  620MOL0     C81762   0.046   2.980   3.680 -0.6586 -0.7403 -0.3785
  620MOL0     C81763   0.001   3.085   3.603  0.7823 -0.0958  0.3244
  620MOL0     C81764  -0.137   3.129   3.627 -0.6250 -0.6046  0.1534
  620MOL0     C81765  -0.209   3.086   3.746 -0.0381  0.2914  0.0014
  620MOL0     O81766  -0.338   3.120   3.788  0.0444 -0.2061 -0.1078
  620MOL0     C81767  -0.412   3.167   3.673 -0.4927 -0.3088 -0.7747
  620MOL0     C81768  -0.561   3.168   3.687 -0.2391  0.1724 -0.9182
  620MOL0     C81769  -0.649   3.190   3.557 -1.4001 -0.0055  0.4335
  620MOL0     C81770  -0.794   3.235   3.589 -0.0624 -1.1497  0.3326
  620MOL0     C81771  -0.853   3.164   3.706 -0.0137  0.1955  0.4400
  620MOL0     C81772  -0.910   3.120   3.802 -0.1917 -0.2793 -0.2794
  620MOL0     C81773  -0.153   2.992   3.823  0.2164  0.3768 -0.7658
  620MOL0     C81774  -0.034   2.932   3.786 -0.0117 -0.6130  0.0852
  620MOL0     H81775   0.421   2.787   3.910  0.3461  0.2473 -0.3648
  620MOL0     H81776   0.592   2.616   3.879 -0.5731  0.3201  0.6752
  620MOL0     H81777   0.836   2.391   3.685  0.5781  0.9915  1.0466
  620MOL0     H81778   0.737   2.416   3.820 -0.3441 -0.6579  0.3515
  620MOL0     H81779   0.927   2.577   3.842 -0.3644  1.8668  0.6669
  620MOL0     H81780   0.804   2.678   3.769 -2.9212 -2.2736 -0.5500
  620MOL0     H81781   0.911   2.646   3.548 -1.7409 -0.4579  0.3801
  620MOL0     H81782   1.014   2.514   3.607  1.1219  0.5240  1.1207
  620MOL0     H81783   1.046   2.789   3.741  1.3828  2.2456 -1.3862
  620MOL0     H81784   1.149   2.645   3.720  0.1421  0.6372  0.3483
  620MOL0     H81785   1.056   2.864   3.522 -0.8241 -1.8135 -3.0222
  620MOL0     H81786   1.125   2.718   3.463 -2.0828  0.1241 -0.4000
  620MOL0     H81787   1.336   2.764   3.607 -0.4215  0.5690  0.6140
  620MOL0     H81788   1.258   2.914   3.666  0.1664  0.3198  0.2990
  620MOL0     H81789   1.250   2.981   3.416  0.3185  0.6045  0.6576
  620MOL0     H81790   1.404   2.983   3.503  2.9328 -3.8849 -1.0211
  620MOL0     H81791   1.466   2.767   3.415  1.7024  2.8928 -0.0423
  620MOL0     H81792   1.460   2.888   3.293 -1.6282  2.3561 -0.2955
  620MOL0     H81793   1.252   2.874   3.100 -1.1837  0.6464 -0.6554
  620MOL0     H81794   1.075   2.552   2.996 -0.4028 -0.3205 -0.3002
  620MOL0     H81795   1.215   2.602   2.915 -0.7629 -5.0878  1.9740
  620MOL0     H81796   1.004   2.717   2.828  0.2420 -0.4273  0.2570
  620MOL0     H81797   1.121   2.834   2.876 -0.8861  0.5186  0.4743
  620MOL0     H81798   0.887   2.733   3.047 -1.0597  0.1570 -0.4715
  620MOL0     H81799   0.995   2.856   3.102 -1.6859  1.0802  1.3832
  620MOL0     H81800   0.915   2.982   2.888 -2.4809 -1.6614 -3.1329
  620MOL0     H81801   0.801   2.945   3.030  1.2241 -0.0567  0.5206
  620MOL0     H81802   0.672   3.097   2.927 -2.1975  1.1797  0.7576
  620MOL0     H81803   0.458   3.186   2.864 -0.7090  0.0866 -2.2138
  620MOL0     H81804  -0.027   3.145   2.793  0.8241 -1.0956 -0.9151
  620MOL0     H81805  -0.214   3.254   2.680  0.1726 -0.6032 -1.5877
  620MOL0     H81806  -0.241   3.557   2.620 -0.7523  0.9603  0.8503
  620MOL0     H81807  -0.344   3.424   2.610 -0.6504 -1.1197 -2.4441
  620MOL0     H81808  -0.440   3.505   2.408  0.0295 -0.5404 -1.6382
  620MOL0     H81809  -0.314   3.607   2.371 -0.4069 -0.9570 -0.7132
  620MOL0     H81810  -0.374   3.748   2.588  1.1887 -0.5277 -0.7053
  620MOL0     H81811  -0.488   3.619   2.622 -1.0935  0.6975 -0.4869
  620MOL0     H81812  -0.618   3.670   2.402 -1.2551  4.1440 -3.7933
  620MOL0     H81813  -0.635   3.784   2.534 -0.2058  0.2090 -0.6282
  620MOL0     H81814  -0.453   3.779   2.277 -0.2212  1.6295 -2.0742
  620MOL0     H81815  -0.430   3.896   2.405  1.7158 -2.1596 -0.1447
  620MOL0     H81816  -0.693   3.854   2.245 -0.4416 -0.5095  0.7842
  620MOL0     H81817  -0.558   3.961   2.219  2.3483 -0.7203  0.6294
  620MOL0     H81818  -0.680   4.007   2.489  1.2712 -0.5375 -0.3687
  620MOL0     H81819  -0.585   4.099   2.382  0.7491 -1.1282 -0.8910
  620MOL0     H81820  -0.796   4.177   2.385  1.6231 -0.5071  1.8333
  620MOL0     H81821  -0.879   4.026   2.339 -1.4651  1.6315 -0.8364
  620MOL0     H81822   0.067   3.450   2.416  0.8819 -0.8692 -1.3397
  620MOL0     H81823   0.253   3.361   2.561 -0.4759 -0.0325  1.0367
  620MOL0     H81824   0.377   2.833   2.643  0.8615 -1.5276  2.0047
  620MOL0     H81825   0.603   2.747   2.683  1.2532 -0.5758  0.4659
  620MOL0     H81826   0.473   2.556   3.476  1.1626 -0.0329  0.6691
  620MOL0     H81827   0.285   2.715   3.510  0.6855  1.7824  0.7534
  620MOL0     H81828   0.063   3.134   3.529 -1.2499  3.4126  0.7076
  620MOL0     H81829  -0.188   3.193   3.556  1.1611  0.8808  0.1482
  620MOL0     H81830  -0.388   3.108   3.584 -2.4960 -1.9780 -0.2826
  620MOL0     H81831  -0.378   3.266   3.641  1.3324 -1.1104 -1.4563
  620MOL0     H81832  -0.570   3.070   3.734  0.6109  1.9864  3.4686
  620MOL0     H81833  -0.596   3.241   3.761 -1.8803 -0.8866 -0.6135
  620MOL0     H81834  -0.642   3.092   3.510 -1.4905 -0.7883  2.0036
  620MOL0     H81835  -0.601   3.263   3.490 -0.8030 -1.7416 -1.1255
  620MOL0     H81836  -0.814   3.342   3.601  0.8786 -0.5505 -2.6922
  620MOL0     H81837  -0.855   3.221   3.499 -0.9476 -2.0584  1.0480
  620MOL0     H81838  -0.958   3.087   3.892  0.5678  0.5091  0.4385
  620MOL0     H81839  -0.218   2.960   3.904 -0.0401  0.2086 -1.0385
  620MOL0     H81840  -0.002   2.844   3.841 -1.5846 -0.7545  0.8261
  621MOL0     O81841   9.962   1.090  10.290  0.3287 -0.0479 -0.8394
  621MOL0     C81842   9.963   0.990  10.361 -0.3486 -0.1987 -0.7839
  621MOL0     O81843   9.854   0.907  10.393  0.3966 -0.6232 -0.1841
  621MOL0     C81844   9.724   0.937  10.340  0.4875  0.0912 -0.3793
  621MOL0     C81845   9.674   1.074  10.328 -0.2718  0.2421  0.5096
  621MOL0     C81846   9.550   1.095  10.280  0.6598 -0.3921 -0.7543
  621MOL0     C81847   9.470   0.992  10.230 -0.3326  0.5274 -0.9823
  621MOL0     O81848   9.345   1.039  10.190  0.0580  0.2710  0.1607
  621MOL0     C81849   9.261   0.936  10.136 -0.2863  0.0041  0.8273
  621MOL0     C81850   9.140   0.996  10.070 -0.3607 -0.8204  0.5730
  621MOL0     C81851   9.049   0.889  10.002  0.6607 -0.1785  0.0568
  621MOL0     C81852   8.928   0.957   9.932 -1.0244 -0.2411 -0.4205
  621MOL0     C81853   8.800   0.869   9.939  0.3073 -0.2108  0.2180
  621MOL0     C81854   8.692   0.966   9.889 -0.2652  1.0366  0.1642
  621MOL0     C81855   8.699   1.023   9.736  0.3893  0.0076  0.2961
  621MOL0     C81856   8.708   0.918   9.628  0.8420  0.1680  1.0400
  621MOL0     N81857   8.602   0.819   9.642 -0.0774  0.8742  0.1746
  621MOL0     C81858   8.472   0.837   9.609  1.0589  0.1555 -0.4033
  621MOL0     C81859   8.408   0.742   9.673 -0.1598  0.3415 -0.3650
  621MOL0     C81860   8.264   0.709   9.661  0.8498 -0.1071 -0.2029
  621MOL0     C81861   8.242   0.557   9.672  0.7092  0.1410 -0.0077
  621MOL0     C81862   8.097   0.507   9.653 -0.3893  0.0448  0.4042
  621MOL0     C81863   8.004   0.504   9.772 -0.4037 -0.2554 -0.7158
  621MOL0     O81864   7.987   0.638   9.811  0.6639 -0.2198  1.0704
  621MOL0     C81865   7.878   0.669   9.896  0.0817  0.6767  0.3449
  621MOL0     C81866   7.812   0.579   9.986 -0.2317 -0.4999  0.9562
  621MOL0     C81867   7.710   0.631  10.074 -0.3227  0.5461 -0.2732
  621MOL0     C81868   7.681   0.769  10.086 -0.1234  0.0537  0.1259
  621MOL0     C81869   7.582   0.831  10.173  0.0935 -0.7816  0.2414
  621MOL0     O81870   7.542   0.960  10.154  0.1905  0.0596 -0.4554
  621MOL0     C81871   7.438   1.002  10.231  0.2447  0.1311  0.5676
  621MOL0     C81872   7.447   1.086  10.338  0.3908 -0.2178 -0.6262
  621MOL0     C81873   7.333   1.131  10.405  0.7987 -0.1091 -1.0305
  621MOL0     C81874   7.203   1.090  10.360 -0.9577 -0.1447 -0.3182
  621MOL0     O81875   7.090   1.151  10.410 -0.6280 -0.5335  0.3331
  621MOL0     C81876   7.079   1.177  10.550 -0.1679 -0.2991 -0.3348
  621MOL0     C81877   6.933   1.185  10.595 -0.1880  0.9512  0.2333
  621MOL0     C81878   6.853   1.054  10.563  0.5736 -0.4051  1.0044
  621MOL0     C81879   6.793   1.040  10.423 -0.7377 -0.4821  0.3466
  621MOL0     C81880   6.669   0.953  10.417  0.0339  0.7595 -0.4303
  621MOL0     C81881   6.698   0.800  10.391  0.5968  0.0126  0.0977
  621MOL0     C81882   6.784   0.723  10.489 -0.7168 -0.5238 -0.2294
  621MOL0     C81883   6.786   0.562  10.488  0.3773 -0.1780  0.4729
  621MOL0    Cl81884   6.622   0.501  10.480 -0.2201 -0.0477  0.1866
  621MOL0     C81885   7.200   1.006  10.247  0.2527 -0.1059  0.0913
  621MOL0     C81886   7.315   0.968  10.184 -0.3157  0.1326 -0.0668
  621MOL0     O81887   7.536   0.750  10.250  0.2885  1.0204 -0.0336
  621MOL0     C81888   7.750   0.851   9.997  0.0048  0.1219 -0.4327
  621MOL0     C81889   7.843   0.803   9.896 -0.1680 -0.4388 -1.0274
  621MOL0     N81890   8.504   0.662   9.742 -0.3997  0.0328 -0.5152
  621MOL0     N81891   8.623   0.697   9.705 -0.3712 -0.0242 -0.2316
  621MOL0     C81892   9.513   0.857  10.249 -0.2315  0.4248  0.2940
  621MOL0     C81893   9.642   0.833  10.306  0.3650  0.2058  1.1834
  621MOL0     C81894  10.093   0.957  10.429 -0.4055 -0.8174 -0.3464
  621MOL0     C81895  10.216   1.029  10.410  0.5157  1.1667  0.6151
  621MOL0     C81896  10.335   0.988  10.455 -0.6912  0.7573 -0.2546
  621MOL0     C81897  10.344   0.872  10.538 -0.7335 -0.1174  0.1025
  621MOL0     O81898  10.462   0.827  10.604  0.7865  1.1438  0.2913
  621MOL0     C81899  10.588   0.896  10.594 -0.2839 -0.4746 -0.1997
  621MOL0     C81900  10.695   0.806  10.655 -0.0778  0.5592 -0.3497
  621MOL0     C81901  10.727   0.690  10.561  0.3119 -0.0404  0.1285
  621MOL0     C81902  10.859   0.617  10.604 -0.3961  0.2808 -0.1627
  621MOL0     C81903  10.977   0.671  10.538  0.1792 -0.1452  1.0565
  621MOL0     C81904  11.058   0.721  10.467  0.4597  0.6330  0.6611
  621MOL0     C81905  10.231   0.801  10.561  0.3707  1.3090  0.2590
  621MOL0     C81906  10.112   0.844  10.507 -0.4175 -0.4348 -0.1872
  621MOL0     H81907   9.736   1.158  10.357  2.8974 -1.1997 -1.5137
  621MOL0     H81908   9.527   1.196  10.249  1.8596 -0.7791 -3.1418
  621MOL0     H81909   9.245   0.866  10.218  3.3568 -1.7663  0.2550
  621MOL0     H81910   9.308   0.871  10.061 -0.2526 -2.2709  2.7115
  621MOL0     H81911   9.182   1.063   9.994 -1.7772 -0.0569  0.4312
  621MOL0     H81912   9.091   1.056  10.147  0.5294  2.0439 -0.9374
  621MOL0     H81913   9.011   0.815  10.074  0.0929 -2.2295 -2.2099
  621MOL0     H81914   9.098   0.838   9.919 -1.0086 -1.4455 -0.2120
  621MOL0     H81915   8.909   1.057   9.970  1.9067  1.0028 -1.9317
  621MOL0     H81916   8.961   0.981   9.830 -0.7312  2.6178  0.2711
  621MOL0     H81917   8.762   0.836  10.036 -2.1869 -0.4181 -0.7631
  621MOL0     H81918   8.811   0.782   9.874  0.6302  1.1679 -1.6390
  621MOL0     H81919   8.685   1.057   9.950 -4.1217  0.9421  0.1000
  621MOL0     H81920   8.598   0.914   9.906  1.8772 -2.8674  1.2972
  621MOL0     H81921   8.611   1.083   9.710  0.0332 -1.1215 -1.2560
  621MOL0     H81922   8.785   1.090   9.730  2.5493 -2.4562  1.8740
  621MOL0     H81923   8.805   0.867   9.630  1.9622  2.0546 -0.7934
  621MOL0     H81924   8.690   0.956   9.528  3.3618 -2.0523 -0.4001
  621MOL0     H81925   8.414   0.907   9.549  1.5482 -0.6857 -1.9069
  621MOL0     H81926   8.221   0.759   9.574 -1.7964 -1.0452  0.4969
  621MOL0     H81927   8.209   0.748   9.747  0.8407  1.5120 -0.9064
  621MOL0     H81928   8.280   0.528   9.771  1.9994 -0.8496 -0.7572
  621MOL0     H81929   8.315   0.516   9.602  0.6129  2.0567 -1.3065
  621MOL0     H81930   8.050   0.555   9.567 -2.0615  0.3748  1.4634
  621MOL0     H81931   8.108   0.401   9.627  1.0193  0.6185 -1.6080
  621MOL0     H81932   8.049   0.442   9.850 -0.2165  1.9584  1.0350
  621MOL0     H81933   7.910   0.464   9.732 -0.3721 -0.5585 -0.4884
  621MOL0     H81934   7.833   0.474  10.005 -0.7802 -0.6736  0.6204
  621MOL0     H81935   7.658   0.570  10.147 -0.9039  2.9925  1.5077
  621MOL0     H81936   7.539   1.094  10.395 -0.6132 -2.1841  1.3876
  621MOL0     H81937   7.354   1.189  10.494 -0.0311 -1.9065  0.3994
  621MOL0     H81938   7.127   1.274  10.565 -0.6610  0.9297 -5.0139
  621MOL0     H81939   7.131   1.103  10.611 -2.3709 -0.4029  1.5476
  621MOL0     H81940   6.868   1.261  10.551 -1.1083  0.0929  0.0510
  621MOL0     H81941   6.933   1.194  10.704  1.0202 -1.3177  0.4793
  621MOL0     H81942   6.765   1.057  10.628 -0.4406  0.6923 -0.3439
  621MOL0     H81943   6.913   0.964  10.576  0.7630 -0.8869 -2.3528
  621MOL0     H81944   6.752   1.137  10.393  0.2156 -0.4832 -1.0259
  621MOL0     H81945   6.871   1.013  10.352  1.1376  0.3202  1.9946
  621MOL0     H81946   6.602   0.993  10.342 -0.6944  2.0442  0.8590
  621MOL0     H81947   6.622   0.958  10.515 -0.5311 -1.7553 -0.5079
  621MOL0     H81948   6.742   0.810  10.292  0.4211  0.0295  0.0208
  621MOL0     H81949   6.606   0.742  10.379 -0.0566  1.4324 -2.3086
  621MOL0     H81950   6.887   0.758  10.480 -0.2155 -0.8587  3.0082
  621MOL0     H81951   6.746   0.756  10.586  1.2312 -0.6356  0.6183
  621MOL0     H81952   6.838   0.524  10.576  0.8192 -0.7501 -0.0300
  621MOL0     H81953   6.845   0.526  10.403  0.7523  0.4385  0.4620
  621MOL0     H81954   7.105   0.983  10.200  1.4252 -0.8881 -2.0496
  621MOL0     H81955   7.305   0.901  10.099 -1.3772  0.6205 -0.3371
  621MOL0     H81956   7.718   0.955   9.986  0.6655  0.5589  1.3648
  621MOL0     H81957   7.889   0.869   9.823 -1.0551  1.7692  0.3078
  621MOL0     H81958   9.452   0.770  10.227  2.9516 -1.3078 -2.7355
  621MOL0     H81959   9.677   0.731  10.317  1.6213  0.5777  0.7795
  621MOL0     H81960  10.202   1.117  10.347 -3.6297 -0.1491 -0.6692
  621MOL0     H81961  10.424   1.048  10.439 -1.0592  2.0477  2.1934
  621MOL0     H81962  10.572   0.987  10.653 -0.6956 -1.3318  1.0570
  621MOL0     H81963  10.611   0.923  10.491 -1.6338 -1.3284 -0.7532
  621MOL0     H81964  10.780   0.869  10.681 -1.3579  1.9878  0.5190
  621MOL0     H81965  10.647   0.770  10.746  1.3706  1.7889  0.9474
  621MOL0     H81966  10.729   0.707  10.453  1.7416 -0.6258  0.0410
  621MOL0     H81967  10.643   0.623  10.582  1.5614 -2.0456 -1.0841
  621MOL0     H81968  10.875   0.619  10.712  2.1635 -3.5114 -0.2972
  621MOL0     H81969  10.848   0.508  10.600  1.8553 -0.2337  3.2199
  621MOL0     H81970  11.144   0.764  10.418 -0.3464 -0.0228 -1.4373
  621MOL0     H81971  10.228   0.701  10.602  2.1838  1.5217  0.9857
  621MOL0     H81972  10.031   0.774  10.520  2.5961 -4.0094  1.1979
  622MOL0     O81973   5.867   0.157   4.720  0.2866  0.1838  0.4474
  622MOL0     C81974   5.875   0.207   4.833  0.2898 -0.0397  0.2877
  622MOL0     O81975   5.772   0.257   4.908 -0.0637 -0.2715  0.2105
  622MOL0     C81976   5.649   0.275   4.869  0.0834 -0.2076 -0.1693
  622MOL0     C81977   5.567   0.166   4.830  0.1460  0.2282  0.4807
  622MOL0     C81978   5.426   0.186   4.816 -0.3388  0.0928  0.5593
  622MOL0     C81979   5.373   0.314   4.823  0.2374  0.1601 -0.0797
  622MOL0     O81980   5.235   0.327   4.797  0.7416 -0.2437 -0.1582
  622MOL0     C81981   5.166   0.426   4.871  0.5913  0.2529 -0.6482
  622MOL0     C81982   5.016   0.425   4.852  0.1507  0.3294  0.0770
  622MOL0     C81983   4.983   0.437   4.699  0.3949  0.1512  0.0232
  622MOL0     C81984   4.857   0.356   4.678  0.1148 -0.3582  0.3410
  622MOL0     C81985   4.792   0.383   4.540  0.0040  0.3787  0.4434
  622MOL0     C81986   4.651   0.329   4.543 -0.7646  0.5204 -0.4917
  622MOL0     C81987   4.643   0.178   4.519  0.6250  0.1532  0.0690
  622MOL0     C81988   4.518   0.113   4.575 -0.2562  0.2722  0.9546
  622MOL0     N81989   4.391   0.160   4.516 -0.1078  0.1690 -0.4142
  622MOL0     C81990   4.298   0.259   4.561 -0.0588  0.4369 -0.6185
  622MOL0     C81991   4.195   0.257   4.471  0.2092  0.4085  0.2369
  622MOL0     C81992   4.067   0.334   4.477 -0.6427  0.3098  0.2025
  622MOL0     C81993   3.956   0.265   4.390 -0.0276 -0.3551  0.4088
  622MOL0     C81994   3.821   0.344   4.390 -0.8938 -0.1397 -0.7094
  622MOL0     C81995   3.726   0.316   4.504  0.6972  0.2770  0.0025
  622MOL0     O81996   3.696   0.175   4.526  0.8302  0.2722  0.4073
  622MOL0     C81997   3.567   0.145   4.564  0.0564 -0.2288  0.3742
  622MOL0     C81998   3.497   0.046   4.503  0.1897 -0.9953  0.7348
  622MOL0     C81999   3.360   0.010   4.536 -0.3934 -0.0250  0.4093
  622MOL0     C82000   3.294   0.078   4.638 -0.3838 -0.2142 -0.9453
  622MOL0     C82001   3.157   0.026   4.687 -0.3854 -0.3897 -0.3984
  622MOL0     O82002   3.146   0.036   4.821  0.3079  0.7763  0.3547
  622MOL0     C82003   3.025   0.007   4.882 -0.4769  0.1546  0.4337
  622MOL0     C82004   2.901   0.048   4.825  0.2016 -0.1736  0.3060
  622MOL0     C82005   2.783   0.017   4.897 -0.2293  0.3952  0.8457
  622MOL0     C82006   2.783  -0.044   5.022  0.1087 -0.1470 -0.2911
  622MOL0     O82007   2.664  -0.081   5.088  0.4594 -0.7595  0.0267
  622MOL0     C82008   2.536  -0.028   5.052 -0.5212  0.4627 -0.3117
  622MOL0     C82009   2.442  -0.094   5.153  0.2004  0.9915 -0.4615
  622MOL0     C82010   2.448  -0.028   5.289 -0.2650  0.3184  0.6983
  622MOL0     C82011   2.337  -0.087   5.381  0.6578 -0.4206  0.3781
  622MOL0     C82012   2.351  -0.050   5.529  0.2130  0.3500  0.7772
  622MOL0     C82013   2.232  -0.113   5.615 -0.2736  0.2645 -0.1687
  622MOL0     C82014   2.090  -0.075   5.554 -0.7238  0.2027  0.4730
  622MOL0     C82015   1.982  -0.088   5.660 -0.4143 -0.0154 -0.4051
  622MOL0    Cl82016   1.812  -0.051   5.599 -0.0877  0.3180 -0.4736
  622MOL0     C82017   2.902  -0.102   5.057  0.7487  0.1418  0.6626
  622MOL0     C82018   3.020  -0.078   4.985 -0.4119  1.0731 -0.8763
  622MOL0     O82019   3.084  -0.038   4.608  0.4866 -0.1724  0.0786
  622MOL0     C82020   3.374   0.178   4.701  0.7925 -0.3496  0.1765
  622MOL0     C82021   3.506   0.210   4.670  0.5738 -0.2857 -0.2187
  622MOL0     N82022   4.230   0.161   4.375  0.9517 -0.8152  1.2215
  622MOL0     N82023   4.345   0.103   4.400 -0.1952  0.0469 -0.0500
  622MOL0     C82024   5.455   0.421   4.859 -0.4211  0.0318 -0.1271
  622MOL0     C82025   5.592   0.398   4.889  0.2228  0.1166  0.9838
  622MOL0     C82026   6.009   0.239   4.890 -0.9744  0.8511  0.0811
  622MOL0     C82027   6.021   0.333   4.998 -0.0382  0.3971 -0.1534
  622MOL0     C82028   6.150   0.358   5.050  0.6649  0.2078 -0.4210
  622MOL0     C82029   6.270   0.293   5.010  0.3821  0.0366 -1.0660
  622MOL0     O82030   6.378   0.326   5.081 -0.3441 -0.0164  0.4852
  622MOL0     C82031   6.492   0.380   5.005  0.2136  0.8051  0.3526
  622MOL0     C82032   6.597   0.427   5.107 -0.2072 -0.3858 -0.4004
  622MOL0     C82033   6.717   0.487   5.047 -0.2988 -1.2033  0.1984
  622MOL0     C82034   6.696   0.631   4.992  0.0679  0.2495 -0.1601
  622MOL0     C82035   6.664   0.624   4.848  0.0663  0.9316 -0.4244
  622MOL0     C82036   6.623   0.634   4.737 -0.2233 -0.9153 -0.2598
  622MOL0     C82037   6.263   0.219   4.887 -0.0809 -0.6047 -0.4964
  622MOL0     C82038   6.132   0.188   4.830 -1.0148  0.0968  0.2432
  622MOL0     H82039   5.615   0.068   4.834  3.7628  1.6759 -2.2168
  622MOL0     H82040   5.365   0.101   4.788  0.2859  0.6553 -2.9563
  622MOL0     H82041   5.198   0.523   4.831 -2.5284  0.8097 -2.0950
  622MOL0     H82042   5.185   0.419   4.979 -0.3611 -2.5297 -0.5747
  622MOL0     H82043   4.987   0.519   4.900  2.4134  1.0510  0.1721
  622MOL0     H82044   4.967   0.341   4.903 -1.8956  0.6234 -1.3027
  622MOL0     H82045   5.051   0.379   4.635  0.9776 -0.4946  1.2016
  622MOL0     H82046   4.966   0.539   4.664 -0.3114 -0.7263 -2.4090
  622MOL0     H82047   4.877   0.248   4.686  1.8956 -0.3658 -2.6975
  622MOL0     H82048   4.798   0.398   4.759 -1.7060 -3.2176  0.6575
  622MOL0     H82049   4.853   0.337   4.462  2.1646  1.3331  1.4872
  622MOL0     H82050   4.794   0.489   4.513 -1.7225 -0.4296 -3.4743
  622MOL0     H82051   4.604   0.371   4.454  0.3099 -0.7491 -1.7071
  622MOL0     H82052   4.600   0.350   4.638 -0.1424  3.4602 -0.6995
  622MOL0     H82053   4.652   0.169   4.410 -1.1387  0.7566 -0.1490
  622MOL0     H82054   4.726   0.117   4.554 -0.5327 -1.9036 -0.6290
  622MOL0     H82055   4.522   0.128   4.683  1.7840  2.5069  0.6552
  622MOL0     H82056   4.523   0.009   4.542  1.8861  1.2312 -2.2419
  622MOL0     H82057   4.314   0.316   4.652  4.7208  0.6156 -1.2988
  622MOL0     H82058   4.091   0.431   4.432 -1.3846 -0.2733 -1.5308
  622MOL0     H82059   4.026   0.344   4.578  1.4206 -0.0090  1.1154
  622MOL0     H82060   3.945   0.158   4.409 -0.4005 -0.8969 -2.4477
  622MOL0     H82061   3.984   0.245   4.287  0.8175  2.4255  0.0140
  622MOL0     H82062   3.841   0.451   4.389 -1.5177 -0.0185 -0.5786
  622MOL0     H82063   3.774   0.321   4.293 -1.5018  3.0271 -1.2745
  622MOL0     H82064   3.630   0.359   4.473 -0.5778 -0.8210  2.1836
  622MOL0     H82065   3.753   0.359   4.600 -0.3618  0.6981  0.1330
  622MOL0     H82066   3.550  -0.014   4.431 -0.0854  0.4836 -0.7546
  622MOL0     H82067   3.339  -0.085   4.487  2.1653  0.6590 -2.3021
  622MOL0     H82068   2.895   0.107   4.734  0.1632 -0.1502  0.3236
  622MOL0     H82069   2.693   0.059   4.854 -1.2776 -0.8600  1.7727
  622MOL0     H82070   2.520  -0.053   4.947  1.6324  2.0267 -1.0734
  622MOL0     H82071   2.526   0.080   5.059  3.9129  1.1279 -1.5940
  622MOL0     H82072   2.469  -0.200   5.151 -3.7810 -0.1841 -1.8197
  622MOL0     H82073   2.340  -0.100   5.114  0.9301 -0.1047 -2.2880
  622MOL0     H82074   2.421   0.078   5.282 -0.8255  0.2735  1.9195
  622MOL0     H82075   2.545  -0.042   5.337 -1.8500  0.9983  4.4124
  622MOL0     H82076   2.241  -0.048   5.346  0.3337  0.6235  2.2523
  622MOL0     H82077   2.326  -0.195   5.379 -3.0892 -0.1495 -0.6472
  622MOL0     H82078   2.360   0.057   5.548 -1.2885  0.9439 -1.4765
  622MOL0     H82079   2.446  -0.092   5.561 -0.1158  1.2710  3.1620
  622MOL0     H82080   2.231  -0.069   5.715 -1.4607  0.6204 -0.3215
  622MOL0     H82081   2.237  -0.222   5.614  0.4200  0.2888 -0.3064
  622MOL0     H82082   2.100   0.028   5.519  2.1155 -0.6027 -1.3874
  622MOL0     H82083   2.061  -0.137   5.469 -2.8966  2.6864 -0.7166
  622MOL0     H82084   2.014  -0.037   5.751  0.8827  2.5015 -2.1377
  622MOL0     H82085   2.000  -0.196   5.674  1.7704  0.0061 -2.3129
  622MOL0     H82086   2.917  -0.155   5.150 -1.1508 -0.6925  0.5341
  622MOL0     H82087   3.112  -0.127   5.015 -1.9012 -2.0130 -0.9735
  622MOL0     H82088   3.314   0.234   4.772  3.3080  1.4873  1.0069
  622MOL0     H82089   3.561   0.288   4.722 -3.0397 -0.3091  4.2693
  622MOL0     H82090   5.419   0.522   4.870 -1.1924  0.0086 -2.0180
  622MOL0     H82091   5.663   0.472   4.921  2.0082  0.0015 -2.2999
  622MOL0     H82092   5.931   0.382   5.033 -1.2991 -1.8676 -0.0061
  622MOL0     H82093   6.157   0.425   5.135  1.8984  1.1544 -1.2511
  622MOL0     H82094   6.459   0.454   4.931 -3.2790  1.0242  1.9288
  622MOL0     H82095   6.539   0.295   4.955  0.0872 -1.0339  3.1369
  622MOL0     H82096   6.542   0.501   5.166  0.2264 -0.1013 -0.3501
  622MOL0     H82097   6.637   0.349   5.173  0.9240 -0.1234 -0.7610
  622MOL0     H82098   6.752   0.413   4.975 -0.0521  0.1844 -1.1485
  622MOL0     H82099   6.785   0.500   5.132 -0.2136 -0.1588 -0.0146
  622MOL0     H82100   6.624   0.697   5.041  0.0530  0.2143 -0.1340
  622MOL0     H82101   6.796   0.673   5.005  0.7150 -2.0269  4.6202
  622MOL0     H82102   6.606   0.655   4.633  2.6092  0.4416 -0.5463
  622MOL0     H82103   6.353   0.186   4.837 -0.1731 -2.4856  0.5187
  622MOL0     H82104   6.130   0.113   4.752  0.5595 -1.1831  1.3547
  623MOL0     O82105   9.440   1.357   0.981 -0.1945 -1.0865 -0.3049
  623MOL0     C82106   9.448   1.330   1.102  0.4115 -0.0961 -0.9086
  623MOL0     O82107   9.347   1.350   1.194 -0.0523  0.1203  0.5694
  623MOL0     C82108   9.224   1.398   1.155 -0.3627 -0.0866  0.8379
  623MOL0     C82109   9.177   1.511   1.219  0.4708 -1.1701  0.6778
  623MOL0     C82110   9.056   1.581   1.188  0.0551  0.3761  0.6575
  623MOL0     C82111   8.983   1.519   1.079  0.2377  0.0457 -0.3542
  623MOL0     O82112   8.858   1.562   1.027  0.1855  0.1528 -0.4411
  623MOL0     C82113   8.765   1.628   1.112 -0.8526  0.4011  0.7827
  623MOL0     C82114   8.621   1.615   1.059 -0.2534  0.2323 -0.2100
  623MOL0     C82115   8.525   1.688   1.155 -0.6029 -0.3709 -0.1654
  623MOL0     C82116   8.388   1.666   1.103  0.0649 -0.7569  0.3569
  623MOL0     C82117   8.287   1.733   1.202  0.6643  0.4001  0.3281
  623MOL0     C82118   8.166   1.789   1.127  0.2316  1.0010  0.3044
  623MOL0     C82119   8.062   1.822   1.234 -0.2347 -0.1998 -0.4471
  623MOL0     C82120   7.994   1.956   1.191 -0.4074 -0.3539 -0.2151
  623MOL0     N82121   7.869   1.961   1.272 -0.1256 -1.1711  0.6355
  623MOL0     C82122   7.754   2.010   1.225  0.5511 -0.8018 -0.1338
  623MOL0     C82123   7.670   2.017   1.329 -0.0431 -0.2002 -1.0081
  623MOL0     C82124   7.526   2.060   1.328 -0.7798  0.5046  0.4930
  623MOL0     C82125   7.517   2.204   1.383  0.3343  0.5626 -0.8647
  623MOL0     C82126   7.379   2.274   1.386  0.1900  0.2416  1.3202
  623MOL0     C82127   7.280   2.186   1.449 -0.1870 -0.1391 -1.1843
  623MOL0     O82128   7.305   2.190   1.597  0.2782  0.1300 -0.0157
  623MOL0     C82129   7.217   2.250   1.688  1.2074 -0.4975 -0.2270
  623MOL0     C82130   7.197   2.191   1.815  0.7304  0.7485  0.3059
  623MOL0     C82131   7.101   2.243   1.900 -0.3248  0.5069 -0.1745
  623MOL0     C82132   7.023   2.361   1.870  0.3595 -0.4185  0.2749
  623MOL0     C82133   6.906   2.406   1.960 -0.0814  0.3868  0.4477
  623MOL0     O82134   6.835   2.522   1.931  0.6377  0.3643  0.4395
  623MOL0     C82135   6.719   2.540   1.998 -0.0928 -0.5248  0.8226
  623MOL0     C82136   6.696   2.655   2.074  0.0549 -0.6797 -0.9194
  623MOL0     C82137   6.582   2.675   2.149  0.2265  0.5159  0.7295
  623MOL0     C82138   6.472   2.591   2.123 -0.7220  1.2692  0.3567
  623MOL0     O82139   6.352   2.614   2.183 -0.4363  0.4380 -0.0520
  623MOL0     C82140   6.273   2.506   2.238  0.5863  0.4676 -0.3457
  623MOL0     C82141   6.131   2.545   2.268  0.6346 -0.3662 -0.1502
  623MOL0     C82142   6.051   2.427   2.317  0.6672  0.2217  0.4857
  623MOL0     C82143   5.904   2.477   2.361  0.9136 -0.0222  0.1676
  623MOL0     C82144   5.829   2.368   2.445 -0.6207  0.3111 -0.3191
  623MOL0     C82145   5.684   2.412   2.456  0.1610  0.0220 -0.2897
  623MOL0     C82146   5.602   2.307   2.538  0.2911 -0.8169 -0.3942
  623MOL0     C82147   5.572   2.190   2.450 -0.9383  0.3559 -0.0207
  623MOL0    Cl82148   5.432   2.099   2.505  0.3954  0.1556  0.1591
  623MOL0     C82149   6.492   2.482   2.037 -0.0269  0.2080  0.1460
  623MOL0     C82150   6.620   2.454   1.984 -0.1951  0.0504 -0.2246
  623MOL0     O82151   6.871   2.322   2.038  0.4592  0.2991 -0.3465
  623MOL0     C82152   7.044   2.413   1.740 -0.1223  0.2840 -0.3486
  623MOL0     C82153   7.138   2.354   1.651  0.3622  0.2893  0.1682
  623MOL0     N82154   7.740   1.978   1.440 -0.8528 -0.0938  0.2064
  623MOL0     N82155   7.860   1.940   1.405  0.2509 -0.1694 -0.0818
  623MOL0     C82156   9.037   1.410   1.013 -0.0980 -0.2364 -0.0154
  623MOL0     C82157   9.155   1.349   1.046  0.1800 -0.3477 -0.3752
  623MOL0     C82158   9.576   1.277   1.151  0.1846  0.5950  0.5429
  623MOL0     C82159   9.679   1.224   1.063  0.3188 -0.4412 -1.1704
  623MOL0     C82160   9.799   1.173   1.113 -0.5873 -0.1450  0.3643
  623MOL0     C82161   9.826   1.179   1.252 -0.4869  0.3331 -0.6220
  623MOL0     O82162   9.936   1.137   1.311 -0.1117  0.1949 -0.4628
  623MOL0     C82163  10.006   1.025   1.257  0.5147 -1.0338  1.3235
  623MOL0     C82164  10.114   0.967   1.353  1.3356 -0.0899 -0.2417
  623MOL0     C82165  10.250   1.036   1.339  1.3200 -1.1404  1.5580
  623MOL0     C82166  10.339   0.986   1.452  0.6824 -0.1055  0.1324
  623MOL0     C82167  10.359   0.838   1.440  0.1499  0.7770 -0.5100
  623MOL0     C82168  10.395   0.719   1.445  1.1118 -0.3765 -0.6359
  623MOL0     C82169   9.720   1.236   1.334 -0.3712 -0.5178 -0.9809
  623MOL0     C82170   9.599   1.279   1.283  0.1778 -0.2107 -0.9839
  623MOL0     H82171   9.247   1.532   1.300  1.4503  0.5747 -0.5311
  623MOL0     H82172   9.036   1.665   1.254  2.3558  1.7246 -0.2513
  623MOL0     H82173   8.790   1.734   1.115 -3.3044  1.3455 -3.6223
  623MOL0     H82174   8.780   1.585   1.212 -0.8842 -2.4517 -0.3460
  623MOL0     H82175   8.598   1.510   1.077  1.9494 -0.4030 -0.8999
  623MOL0     H82176   8.614   1.640   0.953  1.1093 -2.8542 -1.1137
  623MOL0     H82177   8.541   1.796   1.155  1.3161 -0.6180  0.6977
  623MOL0     H82178   8.536   1.647   1.256 -0.3355 -0.3187 -0.1707
  623MOL0     H82179   8.380   1.715   1.006 -0.9753 -1.6754 -0.0383
  623MOL0     H82180   8.367   1.559   1.098  0.7130 -0.9459  1.2693
  623MOL0     H82181   8.330   1.814   1.261 -0.7637  1.6265 -0.2664
  623MOL0     H82182   8.253   1.653   1.269 -2.4127  2.1390  0.9765
  623MOL0     H82183   8.124   1.707   1.068  0.0768  0.6557  0.8926
  623MOL0     H82184   8.197   1.872   1.063 -0.1299  0.4026 -0.6804
  623MOL0     H82185   7.994   1.736   1.245  2.0265 -2.2585 -1.6689
  623MOL0     H82186   8.110   1.841   1.330 -0.0112  2.6756 -1.0373
  623MOL0     H82187   7.972   1.947   1.084  0.2645 -0.2902 -0.3692
  623MOL0     H82188   8.062   2.042   1.194  0.0955 -0.7356 -0.4671
  623MOL0     H82189   7.732   2.022   1.120  0.0608 -2.2483 -0.2127
  623MOL0     H82190   7.465   1.986   1.380 -2.0700 -1.4559 -3.4290
  623MOL0     H82191   7.491   2.047   1.225 -0.9721  0.5394  0.5530
  623MOL0     H82192   7.584   2.264   1.321 -0.4851  0.4323 -1.9114
  623MOL0     H82193   7.556   2.198   1.485 -1.6527  0.2677 -0.0700
  623MOL0     H82194   7.374   2.374   1.430  0.9129  1.9654 -2.1545
  623MOL0     H82195   7.358   2.273   1.279 -2.5500 -1.9721  1.7510
  623MOL0     H82196   7.280   2.085   1.408 -0.4030 -0.4497 -0.4409
  623MOL0     H82197   7.189   2.239   1.421 -0.7352  0.9723  2.2046
  623MOL0     H82198   7.242   2.096   1.838 -1.9412 -1.4329 -2.5564
  623MOL0     H82199   7.089   2.186   1.992 -0.6992  1.4459  0.3781
  623MOL0     H82200   6.781   2.721   2.090 -0.1927 -0.1960 -1.6144
  623MOL0     H82201   6.579   2.758   2.219 -0.9244  1.2387 -0.1530
  623MOL0     H82202   6.313   2.451   2.324 -2.4758 -1.0846  0.2327
  623MOL0     H82203   6.264   2.424   2.166  1.4798  0.7226 -0.7730
  623MOL0     H82204   6.091   2.602   2.184  2.3806 -0.8789 -1.3906
  623MOL0     H82205   6.137   2.622   2.345  1.3492  0.1206 -0.6781
  623MOL0     H82206   6.093   2.380   2.406  0.3131  0.5496  0.8297
  623MOL0     H82207   6.032   2.348   2.243 -2.7257 -0.5169  1.9527
  623MOL0     H82208   5.912   2.568   2.422  0.2687  0.8815 -1.0626
  623MOL0     H82209   5.847   2.499   2.271 -2.0045 -1.6891  1.4801
  623MOL0     H82210   5.871   2.359   2.545  2.1809 -1.7412 -1.5370
  623MOL0     H82211   5.833   2.269   2.398 -1.6506  0.0938  0.0275
  623MOL0     H82212   5.654   2.417   2.351  2.7977 -3.2047 -1.3707
  623MOL0     H82213   5.675   2.514   2.492 -3.1361 -0.4198  0.4554
  623MOL0     H82214   5.658   2.274   2.626 -1.2166 -0.6816  0.6548
  623MOL0     H82215   5.511   2.357   2.573  2.4555  3.4469 -0.0709
  623MOL0     H82216   5.664   2.132   2.445 -1.1888  0.0712 -1.8116
  623MOL0     H82217   5.544   2.226   2.351 -1.3150  0.5196  0.1416
  623MOL0     H82218   6.405   2.420   2.018  1.3820 -1.6169 -0.6606
  623MOL0     H82219   6.625   2.362   1.926 -1.8325 -0.6034  0.6091
  623MOL0     H82220   6.992   2.494   1.691 -2.2485 -2.4982 -3.0280
  623MOL0     H82221   7.151   2.389   1.549  1.9187 -2.2266 -0.5840
  623MOL0     H82222   8.981   1.366   0.931 -1.2790 -1.6292  1.4750
  623MOL0     H82223   9.190   1.269   0.983 -0.3842 -3.5538  2.9926
  623MOL0     H82224   9.656   1.211   0.958  0.5415 -0.4811 -1.2149
  623MOL0     H82225   9.856   1.128   1.033 -1.1249  0.1130 -0.1655
  623MOL0     H82226  10.055   1.047   1.162 -1.4270  2.8003  1.0025
  623MOL0     H82227   9.929   0.953   1.228  2.1342 -1.7806 -1.5077
  623MOL0     H82228  10.082   0.963   1.457 -2.4630 -0.2158 -1.2883
  623MOL0     H82229  10.129   0.862   1.328  2.3010 -0.2017  0.7249
  623MOL0     H82230  10.234   1.144   1.350  1.6662 -1.0233  0.9797
  623MOL0     H82231  10.288   1.024   1.237 -0.3044  3.2514  0.2137
  623MOL0     H82232  10.434   1.041   1.448 -0.3049  1.6979  0.3932
  623MOL0     H82233  10.294   1.008   1.549 -1.8635 -0.4286 -0.9118
  623MOL0     H82234  10.431   0.618   1.446  1.3820 -0.3128  1.3418
  623MOL0     H82235   9.725   1.256   1.441  0.6198 -2.5907 -0.5810
  623MOL0     H82236   9.531   1.305   1.363  0.6010 -1.9154 -0.0251
  624MOL0     O82237   0.719   1.867   9.314  0.4104  0.5888  1.1446
  624MOL0     C82238   0.711   1.977   9.373 -0.4871 -0.4596 -0.1952
  624MOL0     O82239   0.601   2.043   9.394 -0.5380 -0.4801 -0.1105
  624MOL0     C82240   0.481   1.992   9.357  0.0698  0.4657 -0.5995
  624MOL0     C82241   0.413   2.049   9.251  0.0912 -0.5022 -0.1467
  624MOL0     C82242   0.280   2.024   9.234  0.7723  0.5741 -0.3298
  624MOL0     C82243   0.219   1.923   9.312  1.1045  0.2363  0.3260
  624MOL0     O82244   0.092   1.882   9.293 -1.1670 -0.1096 -0.5471
  624MOL0     C82245   0.064   1.806   9.177 -0.7028  0.3485  0.2130
  624MOL0     C82246  -0.087   1.778   9.183 -0.0525 -0.1074 -0.5179
  624MOL0     C82247  -0.139   1.732   9.320 -0.4404  0.6608  0.2810
  624MOL0     C82248  -0.261   1.628   9.311  0.8442  0.2806  1.0516
  624MOL0     C82249  -0.381   1.687   9.246  0.8094 -0.6178  0.2366
  624MOL0     C82250  -0.480   1.576   9.201  0.6216 -0.8142 -0.2591
  624MOL0     C82251  -0.622   1.626   9.172  0.7020 -0.0603  0.7574
  624MOL0     C82252  -0.712   1.513   9.148 -0.2382  0.0428  0.0329
  624MOL0     N82253  -0.850   1.575   9.135 -0.2999 -0.2605  0.8066
  624MOL0     C82254  -0.912   1.646   9.033 -1.0042 -0.6120 -0.1685
  624MOL0     C82255  -1.027   1.692   9.089  0.2345  0.3284 -0.1006
  624MOL0     C82256  -1.137   1.777   9.040 -0.6204 -0.3847  0.3163
  624MOL0     C82257  -1.271   1.716   9.020  1.1442 -0.5108 -0.0491
  624MOL0     C82258  -1.372   1.828   8.990 -0.0793  0.4110  0.1641
  624MOL0     C82259  -1.518   1.768   8.970  0.4832  0.1741  0.1253
  624MOL0     O82260  -1.585   1.766   9.096  0.0915 -0.2209  0.7390
  624MOL0     C82261  -1.723   1.731   9.094 -0.8155 -0.3217  0.3811
  624MOL0     C82262  -1.778   1.699   9.216  0.4323 -0.4015 -0.9515
  624MOL0     C82263  -1.908   1.659   9.235 -0.4454 -0.1779  0.8647
  624MOL0     C82264  -1.998   1.655   9.126  0.0366 -0.7722 -0.5257
  624MOL0     C82265  -2.125   1.599   9.137  1.5064 -0.0732  0.4286
  624MOL0     O82266  -2.159   1.541   9.261 -0.3575 -0.6763  0.1210
  624MOL0     C82267  -2.278   1.484   9.270  0.4044 -0.5357  0.4980
  624MOL0     C82268  -2.405   1.548   9.242 -0.1793  0.4368 -0.8628
  624MOL0     C82269  -2.515   1.465   9.248 -0.5007 -0.1593  0.0513
  624MOL0     C82270  -2.506   1.331   9.284  0.1267  0.3630 -0.3388
  624MOL0     O82271  -2.616   1.248   9.298 -0.0294  0.3000  0.0414
  624MOL0     C82272  -2.693   1.246   9.172 -0.1984  0.3267 -1.0940
  624MOL0     C82273  -2.833   1.189   9.210 -0.9543  0.2284 -0.3271
  624MOL0     C82274  -2.824   1.050   9.281  0.4027 -0.1282 -0.1763
  624MOL0     C82275  -2.953   0.972   9.274 -0.3186  0.6023 -0.3804
  624MOL0     C82276  -3.058   1.033   9.358  0.2203  0.6277  0.5038
  624MOL0     C82277  -3.196   0.969   9.324 -0.3718  0.6510  1.1154
  624MOL0     C82278  -3.304   1.036   9.400 -0.1149 -0.4994 -0.2098
  624MOL0     C82279  -3.328   1.180   9.358  0.9599  0.7908 -0.2766
  624MOL0    Cl82280  -3.372   1.191   9.182 -0.2672 -0.0324 -0.3261
  624MOL0     C82281  -2.381   1.274   9.311 -0.1953 -0.8524  0.4476
  624MOL0     C82282  -2.266   1.355   9.305  0.8571 -0.2804  1.1580
  624MOL0     O82283  -2.201   1.602   9.036  0.0471 -0.4577  0.4852
  624MOL0     C82284  -1.946   1.687   9.001  0.0677 -0.0431 -0.3917
  624MOL0     C82285  -1.811   1.719   8.980 -0.3337  0.2470  0.1026
  624MOL0     N82286  -1.020   1.661   9.221 -0.0315 -0.8666  0.5087
  624MOL0     N82287  -0.926   1.588   9.237 -0.3852 -0.3626  0.4967
  624MOL0     C82288   0.292   1.861   9.417  0.5196  0.0529  0.9974
  624MOL0     C82289   0.426   1.893   9.435 -0.0797 -0.2545 -0.4162
  624MOL0     C82290   0.824   2.055   9.422 -0.5433  0.1922  0.5301
  624MOL0     C82291   0.948   2.013   9.385  0.9169 -0.0211 -0.1058
  624MOL0     C82292   1.062   2.092   9.392  0.4909 -0.7324 -0.4791
  624MOL0     C82293   1.063   2.208   9.478 -0.3298  0.3444  0.3916
  624MOL0     O82294   1.173   2.280   9.520  0.1278 -0.3324 -0.1442
  624MOL0     C82295   1.308   2.236   9.497  0.3764  0.6392 -0.5382
  624MOL0     C82296   1.356   2.291   9.365  0.8232  0.3063 -1.0548
  624MOL0     C82297   1.456   2.196   9.312  0.1293 -0.8383  0.0755
  624MOL0     C82298   1.591   2.190   9.373 -0.0409  0.7978 -0.3372
  624MOL0     C82299   1.666   2.313   9.358 -0.2318  0.2982  0.5788
  624MOL0     C82300   1.723   2.417   9.339 -0.3154  0.7466  0.0799
  624MOL0     C82301   0.937   2.249   9.521 -0.3447  0.6970  0.5080
  624MOL0     C82302   0.817   2.178   9.495 -0.6601  0.3667 -0.5588
  624MOL0     H82303   0.466   2.118   9.185  1.4611  0.9310  2.2864
  624MOL0     H82304   0.216   2.085   9.170  1.5347  1.5505 -0.1757
  624MOL0     H82305   0.130   1.718   9.174 -0.4068  0.5727 -2.3526
  624MOL0     H82306   0.078   1.859   9.082 -1.9493 -0.0470 -0.2072
  624MOL0     H82307  -0.110   1.703   9.107 -0.7776 -1.4004  0.9100
  624MOL0     H82308  -0.132   1.874   9.155 -0.2560 -0.0846 -0.1269
  624MOL0     H82309  -0.174   1.822   9.374 -1.1097  0.2979  0.4682
  624MOL0     H82310  -0.062   1.683   9.380  1.0853  1.2020 -1.1636
  624MOL0     H82311  -0.218   1.543   9.257 -0.9038 -0.8149  1.3006
  624MOL0     H82312  -0.288   1.593   9.410 -0.8311  0.2059  0.5942
  624MOL0     H82313  -0.358   1.750   9.160 -3.6753 -0.5776 -1.1655
  624MOL0     H82314  -0.439   1.744   9.320  0.8273 -1.6822  1.0987
  624MOL0     H82315  -0.493   1.514   9.291  1.1467 -1.4140 -0.5905
  624MOL0     H82316  -0.443   1.519   9.116  0.1454 -3.4086  1.1659
  624MOL0     H82317  -0.657   1.689   9.254  1.5813  0.1709  0.9683
  624MOL0     H82318  -0.632   1.681   9.077 -0.3886 -0.3416  0.6935
  624MOL0     H82319  -0.713   1.443   9.232 -0.5737 -0.3463 -0.2863
  624MOL0     H82320  -0.690   1.470   9.049  2.8115  3.3407 -0.9595
  624MOL0     H82321  -0.880   1.654   8.930  2.4131 -1.7856  0.6544
  624MOL0     H82322  -1.103   1.834   8.954  1.1106 -2.5793 -0.5572
  624MOL0     H82323  -1.160   1.847   9.121  3.4021 -2.5726  3.7547
  624MOL0     H82324  -1.303   1.664   9.110 -0.1771 -2.5944 -1.6248
  624MOL0     H82325  -1.273   1.639   8.943 -3.2266  2.1706 -3.1106
  624MOL0     H82326  -1.382   1.894   9.077 -2.2452  0.3680  0.0031
  624MOL0     H82327  -1.334   1.874   8.899 -0.3926  2.4770  1.0326
  624MOL0     H82328  -1.521   1.665   8.935  0.0018  0.1505  0.2259
  624MOL0     H82329  -1.574   1.830   8.899  0.1986  0.7692  0.8505
  624MOL0     H82330  -1.721   1.718   9.306 -1.5501 -0.2691  0.3374
  624MOL0     H82331  -1.945   1.646   9.336  0.1119  3.8660  1.7505
  624MOL0     H82332  -2.426   1.647   9.203 -1.8196  0.0493 -1.0353
  624MOL0     H82333  -2.613   1.509   9.232 -0.7995 -1.3040 -1.6554
  624MOL0     H82334  -2.638   1.193   9.094  1.8474  2.2939 -1.0806
  624MOL0     H82335  -2.694   1.343   9.122 -0.3965  0.1990 -1.3427
  624MOL0     H82336  -2.896   1.181   9.120 -0.4588  0.2446 -0.6805
  624MOL0     H82337  -2.888   1.268   9.260 -1.9071 -0.7868  0.2855
  624MOL0     H82338  -2.797   1.054   9.387 -0.1784 -1.3119  0.0377
  624MOL0     H82339  -2.750   0.992   9.225 -1.5227 -1.8217 -1.0955
  624MOL0     H82340  -2.982   0.963   9.169  1.1128 -1.3369 -0.6615
  624MOL0     H82341  -2.943   0.872   9.316 -2.5672  1.0686  1.4571
  624MOL0     H82342  -3.069   1.141   9.348 -3.9394  0.5581  2.5725
  624MOL0     H82343  -3.024   1.019   9.461 -0.8433 -0.3172  0.7481
  624MOL0     H82344  -3.198   0.861   9.342  2.3759 -0.0394 -1.8162
  624MOL0     H82345  -3.217   0.969   9.217  0.6939 -0.8470  0.8824
  624MOL0     H82346  -3.396   0.978   9.386  0.4100 -0.8295 -2.5824
  624MOL0     H82347  -3.282   1.030   9.507 -3.4520  0.1031  0.6395
  624MOL0     H82348  -3.244   1.247   9.378 -0.3167  2.1172  0.7808
  624MOL0     H82349  -3.412   1.215   9.419 -1.2881 -2.1656 -1.4201
  624MOL0     H82350  -2.378   1.173   9.351  0.0055 -1.3914 -0.8731
  624MOL0     H82351  -2.163   1.325   9.324  1.4134  1.0811  0.4628
  624MOL0     H82352  -2.021   1.680   8.922 -1.9117  1.2505  1.2565
  624MOL0     H82353  -1.786   1.746   8.878 -0.7052 -1.1955 -0.3960
  624MOL0     H82354   0.239   1.780   9.467 -0.5574 -1.2418 -1.9934
  624MOL0     H82355   0.485   1.846   9.513 -0.3418  0.6138  0.3335
  624MOL0     H82356   0.958   1.919   9.332  0.1380 -1.0792  1.5435
  624MOL0     H82357   1.165   2.065   9.371  1.4029  0.4716  1.9460
  624MOL0     H82358   1.328   2.129   9.506 -0.7860  0.3494 -1.1753
  624MOL0     H82359   1.378   2.283   9.566  1.3284 -0.1763 -0.9345
  624MOL0     H82360   1.271   2.294   9.296 -0.9186  0.3824  0.9963
  624MOL0     H82361   1.400   2.391   9.373 -1.7602  1.4500  0.3229
  624MOL0     H82362   1.466   2.203   9.203  0.4581 -4.0876 -0.1972
  624MOL0     H82363   1.410   2.097   9.319  0.8234 -1.0380  2.6739
  624MOL0     H82364   1.574   2.167   9.479 -0.4554  1.6266 -0.2182
  624MOL0     H82365   1.652   2.110   9.330  1.3432  1.4649  0.3279
  624MOL0     H82366   1.781   2.505   9.358  0.1753 -0.0231  2.5464
  624MOL0     H82367   0.932   2.347   9.568 -3.1068 -0.0469  1.9063
  624MOL0     H82368   0.722   2.226   9.516 -0.1728  0.7215  0.9651
  625MOL0     O82369   9.746   7.621   8.183 -0.2537 -0.3123 -0.0732
  625MOL0     C82370   9.755   7.723   8.119 -0.6603 -0.4887  0.3349
  625MOL0     O82371   9.656   7.790   8.054  0.2990  0.0694 -0.3326
  625MOL0     C82372   9.515   7.753   8.058 -1.1297 -0.4519  0.9778
  625MOL0     C82373   9.428   7.839   7.988  0.1485 -0.1693 -0.0837
  625MOL0     C82374   9.292   7.811   7.977  0.2810  0.2537  0.0831
  625MOL0     C82375   9.230   7.701   8.036 -0.9385 -1.4335  0.4852
  625MOL0     O82376   9.096   7.695   8.030 -0.4653 -0.1584 -0.3941
  625MOL0     C82377   9.037   7.575   8.055 -0.3769  0.0644 -0.6526
  625MOL0     C82378   8.894   7.562   8.004  0.2675 -0.4580 -0.0202
  625MOL0     C82379   8.899   7.559   7.844 -0.7298 -0.2661 -0.2071
  625MOL0     C82380   8.754   7.558   7.791 -0.1475  0.5035  0.3844
  625MOL0     C82381   8.667   7.436   7.835 -0.0986  0.1041  0.1161
  625MOL0     C82382   8.561   7.401   7.734  0.3381 -1.1752  0.4789
  625MOL0     C82383   8.458   7.517   7.702  0.7055 -0.5943  0.0762
  625MOL0     C82384   8.375   7.558   7.822 -0.2114  0.7233  0.7227
  625MOL0     N82385   8.295   7.675   7.795  0.4833  0.4259 -0.0483
  625MOL0     C82386   8.348   7.803   7.818 -0.1275 -0.0623  0.5629
  625MOL0     C82387   8.245   7.888   7.792  0.6754  0.9070 -0.5003
  625MOL0     C82388   8.266   8.040   7.811  0.1458  0.7692  0.7577
  625MOL0     C82389   8.382   8.076   7.723 -1.0883 -0.6703 -0.0803
  625MOL0     C82390   8.417   8.224   7.729  0.7008  0.5351 -0.0598
  625MOL0     C82391   8.302   8.319   7.695 -0.0608  0.0190  0.5486
  625MOL0     O82392   8.259   8.286   7.559  0.0185  0.3942 -0.3427
  625MOL0     C82393   8.125   8.312   7.532  0.5616 -0.7314  0.4956
  625MOL0     C82394   8.074   8.443   7.550  0.3675 -0.1809 -0.2821
  625MOL0     C82395   7.942   8.481   7.527  0.1776  0.7270  0.4876
  625MOL0     C82396   7.854   8.376   7.484  0.6600  1.5215 -0.3639
  625MOL0     C82397   7.705   8.396   7.472 -0.7150 -0.3878 -0.1614
  625MOL0     O82398   7.628   8.285   7.476 -0.3847 -0.1541  0.4250
  625MOL0     C82399   7.493   8.286   7.441 -0.0538  0.2830  0.1218
  625MOL0     C82400   7.398   8.290   7.544  0.4396 -0.0397 -0.9153
  625MOL0     C82401   7.262   8.278   7.518 -0.2787  0.0239 -0.1859
  625MOL0     C82402   7.214   8.252   7.386 -0.3901 -0.5264 -0.2440
  625MOL0     O82403   7.079   8.254   7.360 -0.1183  0.0094 -0.3678
  625MOL0     C82404   6.989   8.352   7.417 -0.4527  0.2140  0.7972
  625MOL0     C82405   6.856   8.352   7.354  0.2651 -1.0583  0.1772
  625MOL0     C82406   6.783   8.218   7.349  0.1235  0.4053 -0.3701
  625MOL0     C82407   6.638   8.228   7.306  0.7774  0.0258  0.2287
  625MOL0     C82408   6.586   8.095   7.275  1.1963  0.7108  0.2716
  625MOL0     C82409   6.446   8.102   7.219  0.6489 -0.3989  0.3053
  625MOL0     C82410   6.391   7.955   7.226  0.7394  0.2118  0.1615
  625MOL0     C82411   6.251   7.936   7.162 -0.0872  0.3233 -0.1484
  625MOL0    Cl82412   6.138   7.960   7.292  0.0111 -0.3713 -0.0030
  625MOL0     C82413   7.309   8.234   7.284  0.4230 -0.8403 -0.6670
  625MOL0     C82414   7.446   8.252   7.315 -0.5142 -0.8195  0.3676
  625MOL0     O82415   7.666   8.514   7.463 -0.2673  0.2913  0.2445
  625MOL0     C82416   7.906   8.247   7.451 -0.0293  0.4346  0.2725
  625MOL0     C82417   8.037   8.210   7.486 -0.5363 -0.6028  0.6164
  625MOL0     N82418   8.144   7.816   7.738  0.7466  1.0111 -0.8475
  625MOL0     N82419   8.174   7.688   7.740  0.3129  0.7438 -0.1210
  625MOL0     C82420   9.315   7.615   8.099 -0.0945  0.1131 -0.8052
  625MOL0     C82421   9.456   7.642   8.110  1.1185 -0.3573 -0.5534
  625MOL0     C82422   9.894   7.776   8.115 -0.3788  0.5608  0.2295
  625MOL0     C82423   9.918   7.898   8.035  0.1346 -0.2815  0.5469
  625MOL0     C82424  10.042   7.960   8.035 -0.2268  0.6374 -0.1182
  625MOL0     C82425  10.150   7.903   8.110 -0.1207 -0.3204 -0.1994
  625MOL0     O82426  10.277   7.948   8.100 -0.8074 -0.0584  0.9639
  625MOL0     C82427  10.309   8.005   7.967  0.2012 -0.3985  0.3174
  625MOL0     C82428  10.462   7.997   7.938 -0.0815 -0.5790  0.0032
  625MOL0     C82429  10.515   7.856   7.923  0.9453 -0.3837  0.2412
  625MOL0     C82430  10.670   7.852   7.909 -0.0465  0.1150 -0.0665
  625MOL0     C82431  10.727   7.953   7.822  0.9905  0.1760 -0.3033
  625MOL0     C82432  10.788   8.040   7.762  0.2872 -0.4949 -0.0043
  625MOL0     C82433  10.116   7.800   8.208  0.2948  0.7898 -0.1086
  625MOL0     C82434   9.997   7.733   8.206 -0.7426  0.3738 -0.9254
  625MOL0     H82435   9.460   7.931   7.941  2.2081  1.6437  4.3663
  625MOL0     H82436   9.236   7.891   7.931 -1.1146 -0.2769  0.8201
  625MOL0     H82437   9.045   7.545   8.160 -0.0868 -1.4519 -1.0717
  625MOL0     H82438   9.087   7.493   8.003 -1.7262 -2.0603  1.2103
  625MOL0     H82439   8.835   7.650   8.032 -0.5219 -1.2815  0.9793
  625MOL0     H82440   8.849   7.475   8.052 -1.4310  1.1485  1.4363
  625MOL0     H82441   8.950   7.473   7.799  0.7899  0.7248 -0.4480
  625MOL0     H82442   8.954   7.643   7.802  2.3519 -2.5714 -1.1673
  625MOL0     H82443   8.707   7.653   7.817  0.3603  0.9633 -0.3617
  625MOL0     H82444   8.755   7.556   7.682  1.1623  0.2927  0.3853
  625MOL0     H82445   8.633   7.455   7.937 -0.0020  2.2332 -0.1981
  625MOL0     H82446   8.739   7.356   7.848 -0.7411 -0.1677  2.3093
  625MOL0     H82447   8.514   7.307   7.763  2.7283 -2.1650  1.4321
  625MOL0     H82448   8.620   7.378   7.645 -0.0355  0.5458 -0.2617
  625MOL0     H82449   8.512   7.605   7.665 -0.2834  0.1090  0.2643
  625MOL0     H82450   8.398   7.481   7.618  1.2187  0.9647 -1.0115
  625MOL0     H82451   8.446   7.571   7.904 -0.8576 -3.1585  2.0922
  625MOL0     H82452   8.319   7.468   7.851  2.6138 -1.7337 -0.9326
  625MOL0     H82453   8.449   7.825   7.850  0.4251 -1.6834  0.0498
  625MOL0     H82454   8.281   8.083   7.910 -0.7838 -0.5509  1.5015
  625MOL0     H82455   8.183   8.094   7.766  0.8899  1.2476 -0.0853
  625MOL0     H82456   8.358   8.060   7.618 -1.8859  1.1897 -0.2237
  625MOL0     H82457   8.472   8.016   7.739  1.0363  2.7440  2.1402
  625MOL0     H82458   8.461   8.242   7.827  3.6382  1.4453 -1.4179
  625MOL0     H82459   8.502   8.237   7.661  0.7141 -2.1636 -0.6960
  625MOL0     H82460   8.343   8.419   7.709  1.8280 -0.5634 -0.4497
  625MOL0     H82461   8.217   8.298   7.762 -1.4879  1.5461 -0.6938
  625MOL0     H82462   8.152   8.515   7.569 -0.1438  0.1336  0.7082
  625MOL0     H82463   7.918   8.586   7.539  0.4346  0.6540  1.7942
  625MOL0     H82464   7.434   8.308   7.645 -1.7444 -1.7146  0.2503
  625MOL0     H82465   7.187   8.287   7.597 -1.8728 -1.2624 -1.4772
  625MOL0     H82466   7.037   8.450   7.414 -1.9213  0.9875 -2.4536
  625MOL0     H82467   6.959   8.332   7.520 -1.1806  0.3725  0.6244
  625MOL0     H82468   6.859   8.387   7.251  0.6552 -1.8515 -0.0863
  625MOL0     H82469   6.793   8.420   7.412  2.1673  0.3802  0.6546
  625MOL0     H82470   6.799   8.166   7.444 -0.7479  4.9640  2.6377
  625MOL0     H82471   6.836   8.150   7.283  1.1385  1.7650 -1.0014
  625MOL0     H82472   6.584   8.271   7.391 -1.1511 -0.5328 -0.6733
  625MOL0     H82473   6.640   8.280   7.210 -1.7864 -3.0918 -1.6843
  625MOL0     H82474   6.574   8.027   7.359  0.6224 -0.2761 -0.5872
  625MOL0     H82475   6.648   8.045   7.200 -0.0785 -0.8181  0.2029
  625MOL0     H82476   6.423   8.150   7.123 -0.5844  1.4824  1.4887
  625MOL0     H82477   6.376   8.166   7.272 -0.6149 -1.6234  0.1723
  625MOL0     H82478   6.462   7.900   7.164  1.9152  2.1576 -0.3273
  625MOL0     H82479   6.400   7.908   7.324 -1.6581  0.2541  0.4480
  625MOL0     H82480   6.247   7.836   7.119 -1.9843  0.6022 -0.7274
  625MOL0     H82481   6.224   8.008   7.083 -0.8599 -2.2734 -2.3919
  625MOL0     H82482   7.268   8.199   7.190 -0.2717 -0.5936 -0.4666
  625MOL0     H82483   7.516   8.254   7.231 -2.1754 -0.2545 -1.0612
  625MOL0     H82484   7.830   8.174   7.421  0.1828 -0.6793  2.2258
  625MOL0     H82485   8.070   8.109   7.463  2.1600  0.4503 -0.5836
  625MOL0     H82486   9.284   7.525   8.150  1.2001 -0.1204 -0.4026
  625MOL0     H82487   9.519   7.572   8.165  0.6517 -0.0216  0.4214
  625MOL0     H82488   9.839   7.951   7.983  0.1987  0.8835  1.6064
  625MOL0     H82489  10.057   8.050   7.976 -0.2119  1.2117  0.7343
  625MOL0     H82490  10.282   8.111   7.961  0.1459 -0.5052 -2.7620
  625MOL0     H82491  10.256   7.956   7.885 -0.0564  0.0128  0.2357
  625MOL0     H82492  10.464   8.051   7.843 -1.3397  3.3441  2.0229
  625MOL0     H82493  10.519   8.055   8.011 -0.8965 -1.2708  1.2281
  625MOL0     H82494  10.458   7.811   7.841  0.8569 -1.2669  0.7732
  625MOL0     H82495  10.490   7.792   8.008  1.6306 -1.0868 -0.0768
  625MOL0     H82496  10.713   7.872   8.008  2.0670  3.8231 -1.5256
  625MOL0     H82497  10.690   7.753   7.868 -1.9109  0.2158 -1.3278
  625MOL0     H82498  10.846   8.111   7.707  0.0205  3.4035  4.1327
  625MOL0     H82499  10.191   7.763   8.276 -1.2680 -2.2241  0.1189
  625MOL0     H82500   9.986   7.647   8.270 -0.2910  2.0580  1.5287
  626MOL0     O82501   8.030   5.391   0.256  0.2991 -0.5826 -0.0868
  626MOL0     C82502   8.147   5.347   0.242 -0.1512  0.3990  0.2314
  626MOL0     O82503   8.165   5.232   0.171  0.6215  0.0135  0.6086
  626MOL0     C82504   8.050   5.190   0.106  0.3955  0.4369 -0.1912
  626MOL0     C82505   8.025   5.219  -0.032 -0.1375  0.1826 -0.0042
  626MOL0     C82506   7.909   5.159  -0.096 -0.3353  0.6935 -0.0478
  626MOL0     C82507   7.820   5.080  -0.020  0.3967  0.1156 -0.1204
  626MOL0     O82508   7.702   5.026  -0.071  1.2435 -0.2344 -0.5642
  626MOL0     C82509   7.674   5.031  -0.210  0.1908  0.4646  0.1879
  626MOL0     C82510   7.542   4.947  -0.228 -0.7259  0.2014 -0.7755
  626MOL0     C82511   7.550   4.795  -0.230  0.3943  0.1914 -0.4822
  626MOL0     C82512   7.423   4.723  -0.256  0.9638 -0.2518 -0.2759
  626MOL0     C82513   7.428   4.571  -0.250 -0.0488  0.5723  0.5116
  626MOL0     C82514   7.286   4.501  -0.260 -0.6082  0.3002  1.1115
  626MOL0     C82515   7.290   4.350  -0.260 -0.2366  0.0909  0.6664
  626MOL0     C82516   7.146   4.288  -0.243 -0.4937 -1.2063  0.3137
  626MOL0     N82517   7.042   4.339  -0.329  0.0974 -0.8874  0.4305
  626MOL0     C82518   6.950   4.259  -0.393 -0.6552  1.2790  1.0873
  626MOL0     C82519   6.859   4.338  -0.454 -1.0594 -0.6500 -0.3751
  626MOL0     C82520   6.733   4.302  -0.533 -0.3987  0.3526 -0.8223
  626MOL0     C82521   6.604   4.348  -0.455  0.0410 -0.0510 -0.6017
  626MOL0     C82522   6.483   4.315  -0.542 -0.0392 -0.3595  0.0144
  626MOL0     C82523   6.358   4.281  -0.456 -0.1802 -0.0253 -0.3395
  626MOL0     O82524   6.246   4.241  -0.537 -0.3997  0.7279  0.5932
  626MOL0     C82525   6.126   4.238  -0.471 -0.0882 -0.0420 -0.3479
  626MOL0     C82526   6.014   4.205  -0.548  0.1828 -0.4344  1.1258
  626MOL0     C82527   5.888   4.186  -0.486  0.1717 -0.4437 -0.3027
  626MOL0     C82528   5.867   4.202  -0.349 -1.3979  0.0560 -0.0704
  626MOL0     C82529   5.740   4.180  -0.292 -0.5276 -0.0735 -0.5899
  626MOL0     O82530   5.641   4.156  -0.378  0.8404 -0.0224 -0.0093
  626MOL0     C82531   5.512   4.169  -0.334 -0.1054  0.5534 -0.3260
  626MOL0     C82532   5.452   4.067  -0.269  0.1206 -0.1542 -0.2161
  626MOL0     C82533   5.318   4.076  -0.237  0.1901  0.3042  0.1820
  626MOL0     C82534   5.235   4.182  -0.269 -0.2889 -0.4281 -0.0823
  626MOL0     O82535   5.112   4.200  -0.219  0.4102 -0.2163  0.2187
  626MOL0     C82536   5.024   4.303  -0.267 -0.3458 -0.2433 -0.8692
  626MOL0     C82537   4.881   4.298  -0.199 -0.1971  0.7055 -0.1470
  626MOL0     C82538   4.819   4.156  -0.213 -0.3028 -0.0089 -0.0277
  626MOL0     C82539   4.721   4.133  -0.097  0.1030 -0.6122  0.3183
  626MOL0     C82540   4.660   3.992  -0.079 -0.4567 -0.1013 -0.2584
  626MOL0     C82541   4.509   3.992  -0.101 -0.0949  0.7601 -0.8945
  626MOL0     C82542   4.445   3.844  -0.114  0.3028  0.2542 -0.6153
  626MOL0     C82543   4.310   3.840  -0.192 -0.5315  1.2125  0.1892
  626MOL0    Cl82544   4.187   3.952  -0.124  0.1648 -0.0002 -0.4931
  626MOL0     C82545   5.300   4.278  -0.342  0.2668  0.5821 -0.1446
  626MOL0     C82546   5.436   4.278  -0.378  0.0635  0.1209 -0.6705
  626MOL0     O82547   5.717   4.211  -0.169 -0.6558 -0.1232  0.3734
  626MOL0     C82548   5.978   4.247  -0.268 -0.2731 -0.3248  0.5537
  626MOL0     C82549   6.103   4.250  -0.330 -0.3959 -0.0904  0.1230
  626MOL0     N82550   6.899   4.470  -0.429 -0.5770 -0.2004 -0.0106
  626MOL0     N82551   7.002   4.467  -0.351  0.0288  0.0747  0.0123
  626MOL0     C82552   7.845   5.060   0.113  0.5758  0.4093 -0.1999
  626MOL0     C82553   7.959   5.104   0.174  1.0021 -0.9686 -0.1133
  626MOL0     C82554   8.265   5.410   0.318  0.6340  0.4289  0.3912
  626MOL0     C82555   8.246   5.530   0.394  0.1653  0.0984 -1.1515
  626MOL0     C82556   8.353   5.586   0.464 -0.0729  0.0661 -1.2511
  626MOL0     C82557   8.490   5.545   0.445  1.2593  0.4192 -0.5066
  626MOL0     O82558   8.592   5.615   0.496 -0.2696  0.1403 -0.0631
  626MOL0     C82559   8.708   5.554   0.549 -0.0149 -1.0194 -0.1942
  626MOL0     C82560   8.829   5.646   0.540 -0.4896  0.5091  0.0586
  626MOL0     C82561   8.956   5.560   0.576  0.0549  0.3571  0.2040
  626MOL0     C82562   9.078   5.650   0.615  0.1021  0.1648 -0.2850
  626MOL0     C82563   9.132   5.731   0.501 -0.3940  0.4639  0.2460
  626MOL0     C82564   9.169   5.789   0.398 -0.2894 -0.4965 -0.0985
  626MOL0     C82565   8.507   5.443   0.348 -0.0461  0.7949  0.0465
  626MOL0     C82566   8.397   5.373   0.286 -0.1969 -0.7801  0.0776
  626MOL0     H82567   8.093   5.291  -0.075 -1.5079  2.6091  1.6444
  626MOL0     H82568   7.890   5.182  -0.200  1.1081  0.7455 -0.3133
  626MOL0     H82569   7.750   4.979  -0.270 -0.7752 -1.5359  0.6103
  626MOL0     H82570   7.655   5.134  -0.243 -4.2245  0.4988  2.1741
  626MOL0     H82571   7.493   4.969  -0.324 -1.4783  1.3564 -0.1541
  626MOL0     H82572   7.480   4.990  -0.149 -1.6514 -0.9592 -0.8458
  626MOL0     H82573   7.614   4.769  -0.146  2.2534  0.0102 -1.8955
  626MOL0     H82574   7.602   4.775  -0.324  0.1608 -0.5954 -0.4565
  626MOL0     H82575   7.345   4.757  -0.187  0.3716 -1.9475 -0.0476
  626MOL0     H82576   7.392   4.758  -0.355 -1.2876 -0.9671  0.0980
  626MOL0     H82577   7.480   4.543  -0.157  2.2268  2.0300 -0.2403
  626MOL0     H82578   7.484   4.524  -0.331  0.6137  0.3599  1.0779
  626MOL0     H82579   7.253   4.523  -0.362 -1.5686 -2.1232  0.8339
  626MOL0     H82580   7.214   4.543  -0.190  0.7429  1.6639  1.7305
  626MOL0     H82581   7.336   4.315  -0.353  3.0374  1.4737  1.6126
  626MOL0     H82582   7.351   4.315  -0.176 -1.6075  1.7242  2.4418
  626MOL0     H82583   7.129   4.295  -0.135  0.9619 -0.9238  0.5400
  626MOL0     H82584   7.146   4.181  -0.262 -1.4983 -1.1643 -0.0080
  626MOL0     H82585   6.961   4.152  -0.397  0.0687  1.3999 -1.0767
  626MOL0     H82586   6.727   4.197  -0.561 -3.6678 -0.3158  1.7732
  626MOL0     H82587   6.734   4.361  -0.625  2.8232  1.2450 -0.3587
  626MOL0     H82588   6.614   4.456  -0.442  1.1210 -0.3954  1.9481
  626MOL0     H82589   6.595   4.309  -0.354 -2.7133  0.6884 -0.4867
  626MOL0     H82590   6.459   4.409  -0.593 -1.4384 -0.0095  1.2436
  626MOL0     H82591   6.507   4.233  -0.610  3.0670 -0.2545  0.8212
  626MOL0     H82592   6.335   4.364  -0.388 -2.2552 -1.9703  1.4833
  626MOL0     H82593   6.378   4.198  -0.388  0.3692 -0.8000 -1.4230
  626MOL0     H82594   6.031   4.192  -0.654  0.6714  1.4970  0.9229
  626MOL0     H82595   5.803   4.153  -0.545  0.6344 -2.3184  0.0329
  626MOL0     H82596   5.515   3.982  -0.243  1.2873 -0.4597 -3.5846
  626MOL0     H82597   5.275   3.991  -0.185 -1.2346  1.7227  1.4087
  626MOL0     H82598   5.012   4.299  -0.375 -0.1523 -0.9301 -0.8754
  626MOL0     H82599   5.073   4.400  -0.256 -0.6188 -0.0802 -1.0772
  626MOL0     H82600   4.813   4.379  -0.227  1.2283  1.6966 -0.8297
  626MOL0     H82601   4.888   4.309  -0.090 -2.9764  1.3685  0.0347
  626MOL0     H82602   4.890   4.074  -0.221 -1.1993 -0.7334 -0.8020
  626MOL0     H82603   4.766   4.144  -0.308  0.7284  2.0472 -0.9289
  626MOL0     H82604   4.766   4.163  -0.001  0.8609 -0.8466  0.0462
  626MOL0     H82605   4.641   4.205  -0.116 -0.5441 -1.8511 -2.0386
  626MOL0     H82606   4.688   3.965   0.023  2.5742  4.3460  0.3779
  626MOL0     H82607   4.708   3.924  -0.149  1.6831 -0.2557  1.2679
  626MOL0     H82608   4.481   4.050  -0.189 -0.8980  3.0755  0.7889
  626MOL0     H82609   4.470   4.044  -0.013  0.2397 -3.5745  2.2013
  626MOL0     H82610   4.511   3.778  -0.171 -1.0800 -1.6799 -0.0676
  626MOL0     H82611   4.436   3.800  -0.013 -2.7317  1.5114 -0.2421
  626MOL0     H82612   4.268   3.739  -0.191  0.2064  0.8658 -1.1404
  626MOL0     H82613   4.335   3.855  -0.298 -0.4307 -0.6813 -0.0771
  626MOL0     H82614   5.247   4.369  -0.365  1.5779  1.1863 -0.8473
  626MOL0     H82615   5.481   4.358  -0.436  1.9701 -0.5003 -0.1306
  626MOL0     H82616   5.974   4.254  -0.160  0.5678 -0.2569  0.5896
  626MOL0     H82617   6.192   4.256  -0.268 -0.9853  0.9760  0.8931
  626MOL0     H82618   7.778   4.997   0.171 -0.4177  1.0451 -0.6286
  626MOL0     H82619   7.988   5.064   0.270  1.5023  2.8201  1.5137
  626MOL0     H82620   8.144   5.567   0.407  0.6644  0.9869  0.5446
  626MOL0     H82621   8.336   5.679   0.518 -0.1294  0.0634 -1.2637
  626MOL0     H82622   8.724   5.455   0.506  2.4993 -0.1584 -1.4337
  626MOL0     H82623   8.687   5.548   0.657 -1.4579  3.4830 -0.0336
  626MOL0     H82624   8.841   5.695   0.443 -1.8473 -1.5412 -1.2116
  626MOL0     H82625   8.818   5.723   0.617  0.0694  0.1189  0.5396
  626MOL0     H82626   8.978   5.492   0.493  0.4687 -0.9784  1.3803
  626MOL0     H82627   8.936   5.489   0.656 -0.1108 -0.8162 -0.8573
  626MOL0     H82628   9.042   5.717   0.693 -1.5613  0.7378 -1.4719
  626MOL0     H82629   9.156   5.584   0.655 -0.1617 -2.4854 -3.6458
  626MOL0     H82630   9.205   5.835   0.309 -0.2455 -0.1390  0.0993
  626MOL0     H82631   8.606   5.402   0.337 -0.9741 -1.6947  0.4273
  626MOL0     H82632   8.426   5.284   0.232  2.6425 -0.4166  0.8538
  627MOL0     O82633   9.967  10.953   4.183 -0.0679 -0.1503 -0.3766
  627MOL0     C82634   9.981  10.920   4.068 -0.5345 -0.2933  0.0640
  627MOL0     O82635   9.905  10.827   4.007 -0.9264  0.4554  0.1781
  627MOL0     C82636   9.807  10.767   4.090 -0.1558  1.0161  0.8141
  627MOL0     C82637   9.804  10.630   4.108  0.3941  0.1305  0.1344
  627MOL0     C82638   9.686  10.570   4.150 -0.1496 -0.1354 -0.0721
  627MOL0     C82639   9.579  10.652   4.184 -0.7225 -0.0817  0.0879
  627MOL0     O82640   9.456  10.597   4.222 -0.4599 -0.3346  0.3305
  627MOL0     C82641   9.458  10.458   4.257  0.1494  0.1666  0.2494
  627MOL0     C82642   9.325  10.429   4.324  1.0551  0.6766 -0.3989
  627MOL0     C82643   9.214  10.395   4.224  0.5648 -0.0468 -0.5062
  627MOL0     C82644   9.091  10.327   4.289  0.2550  0.1425  0.7371
  627MOL0     C82645   8.998  10.428   4.361 -0.3915 -0.6932  0.6928
  627MOL0     C82646   8.876  10.456   4.278  0.1222 -0.5881  0.6097
  627MOL0     C82647   8.782  10.332   4.279  0.4104 -0.0507 -0.0162
  627MOL0     C82648   8.644  10.364   4.254  0.1695 -0.3394  0.4858
  627MOL0     N82649   8.563  10.243   4.267  0.3820 -0.1649 -0.1057
  627MOL0     C82650   8.615  10.117   4.299 -0.1674  0.2456  0.3052
  627MOL0     C82651   8.510  10.048   4.348 -0.7647 -0.1819  0.3020
  627MOL0     C82652   8.512   9.904   4.384  0.4523 -0.6540  0.5541
  627MOL0     C82653   8.557   9.879   4.520  0.5102 -0.5472  0.2668
  627MOL0     C82654   8.560   9.722   4.548  0.3793 -0.2233 -0.7793
  627MOL0     C82655   8.602   9.692   4.691  0.7772  0.1441  0.5312
  627MOL0     O82656   8.737   9.740   4.719 -0.6101 -0.6580 -0.3117
  627MOL0     C82657   8.820   9.670   4.798 -0.4362  0.4692  0.2643
  627MOL0     C82658   8.791   9.603   4.913  0.3694  0.4949 -0.3415
  627MOL0     C82659   8.882   9.553   4.999  0.2082  0.3242  0.2840
  627MOL0     C82660   9.016   9.556   4.971 -0.6825 -0.8729 -0.2314
  627MOL0     C82661   9.126   9.504   5.055  0.1492  0.2523  0.2211
  627MOL0     O82662   9.245   9.545   5.025 -0.7321 -0.6163  0.1294
  627MOL0     C82663   9.350   9.501   5.108  0.4017  0.7980 -0.6409
  627MOL0     C82664   9.422   9.384   5.061  0.0277  0.6136  0.1389
  627MOL0     C82665   9.526   9.330   5.143  0.7372  0.3717 -0.4839
  627MOL0     C82666   9.562   9.396   5.266  0.4680  0.1405 -0.2382
  627MOL0     O82667   9.664   9.357   5.350  0.1036  0.6190 -0.9302
  627MOL0     C82668   9.776   9.300   5.284 -0.3179 -0.6303 -0.5978
  627MOL0     C82669   9.878   9.299   5.383 -0.5509 -0.7552  0.3346
  627MOL0     C82670  10.006   9.221   5.335  0.1874  0.3891 -0.0016
  627MOL0     C82671  10.132   9.229   5.414  0.4844 -0.0945  0.3828
  627MOL0     C82672  10.249   9.145   5.349  0.3119  0.7220  0.2280
  627MOL0     C82673  10.375   9.145   5.437  0.8696  0.6458 -0.0697
  627MOL0     C82674  10.487   9.054   5.382  0.2149  0.1969  0.6399
  627MOL0     C82675  10.599   9.023   5.482 -0.3037 -0.1002  0.3249
  627MOL0    Cl82676  10.679   9.167   5.523 -0.2412  0.0881 -0.3949
  627MOL0     C82677   9.483   9.505   5.303 -0.7567 -0.0613 -0.2468
  627MOL0     C82678   9.377   9.557   5.230 -0.6787  0.4465  0.7069
  627MOL0     O82679   9.093   9.439   5.149  0.4162  0.2772 -0.3960
  627MOL0     C82680   9.050   9.614   4.849  0.1804 -0.4736 -0.1483
  627MOL0     C82681   8.956   9.668   4.762 -0.2989  1.1537 -0.0384
  627MOL0     N82682   8.393  10.126   4.351 -0.7681  0.2546  0.5832
  627MOL0     N82683   8.431  10.240   4.302  0.3585 -0.1853 -0.0547
  627MOL0     C82684   9.586  10.792   4.185  0.0395  0.1111 -0.1143
  627MOL0     C82685   9.702  10.849   4.137 -0.1773  0.1171  0.2028
  627MOL0     C82686  10.098  10.963   3.988  0.1854 -0.0634 -0.2431
  627MOL0     C82687  10.170  11.066   4.041 -1.1758  0.6169  0.0678
  627MOL0     C82688  10.286  11.115   3.967 -0.5928  0.6397  0.9333
  627MOL0     C82689  10.320  11.060   3.837 -0.5047 -0.0293 -0.4292
  627MOL0     O82690  10.446  11.091   3.795 -0.5045  0.5034  0.4744
  627MOL0     C82691  10.455  11.112   3.648  0.2682  0.4334  0.1459
  627MOL0     C82692  10.601  11.118   3.625  1.4265  1.0277 -0.2728
  627MOL0     C82693  10.635  11.162   3.487 -0.7599  0.1449  0.6371
  627MOL0     C82694  10.777  11.219   3.470  0.8846  0.4602  0.4603
  627MOL0     C82695  10.890  11.126   3.454  1.2990 -0.8296 -1.0186
  627MOL0     C82696  10.970  11.039   3.447 -0.4283 -0.4840 -0.6723
  627MOL0     C82697  10.231  10.959   3.784 -0.1218 -0.2091  1.5471
  627MOL0     C82698  10.124  10.915   3.856 -0.3086  0.0084  0.9222
  627MOL0     H82699   9.888  10.566   4.082 -0.4176 -2.9888  4.1583
  627MOL0     H82700   9.691  10.462   4.156 -1.7390 -0.2874 -0.9524
  627MOL0     H82701   9.541  10.440   4.326  1.4063 -0.7763 -1.4424
  627MOL0     H82702   9.462  10.402   4.164  1.6305 -0.5973  0.7406
  627MOL0     H82703   9.307  10.510   4.395 -0.2853  0.5013 -0.5124
  627MOL0     H82704   9.342  10.345   4.392  2.5368  3.1006  2.4767
  627MOL0     H82705   9.254  10.321   4.154  0.6263  1.7206 -2.4325
  627MOL0     H82706   9.195  10.488   4.171  1.4437 -1.2152 -3.0510
  627MOL0     H82707   9.039  10.276   4.207  1.1362  1.0033 -0.3894
  627MOL0     H82708   9.123  10.248   4.357  3.0213  0.2757 -0.2922
  627MOL0     H82709   9.054  10.521   4.372 -0.9352 -0.2414 -0.2769
  627MOL0     H82710   8.966  10.387   4.457 -3.5556  0.2302  0.1234
  627MOL0     H82711   8.907  10.478   4.176  1.7993 -2.6521  0.6135
  627MOL0     H82712   8.832  10.550   4.312 -0.2294 -0.5973  0.1931
  627MOL0     H82713   8.817  10.270   4.196 -0.1526  2.2514 -2.0866
  627MOL0     H82714   8.792  10.277   4.373 -4.6627 -1.9220 -0.2890
  627MOL0     H82715   8.627  10.414   4.159  0.5231 -0.0389  0.5758
  627MOL0     H82716   8.606  10.430   4.333 -0.0537 -1.7871  1.6375
  627MOL0     H82717   8.718  10.086   4.288  1.3953  4.7296  0.3160
  627MOL0     H82718   8.583   9.853   4.318 -1.2847 -0.6046 -1.4668
  627MOL0     H82719   8.418   9.854   4.360 -0.0332  1.4883 -2.5834
  627MOL0     H82720   8.479   9.927   4.579 -0.4215 -3.2837  1.4004
  627MOL0     H82721   8.654   9.927   4.536  1.4482 -2.1303 -0.4428
  627MOL0     H82722   8.459   9.682   4.537 -0.0231 -0.0224  1.6997
  627MOL0     H82723   8.629   9.667   4.483  1.4528 -3.2150  2.5872
  627MOL0     H82724   8.599   9.585   4.710  3.0760  0.1877  1.5216
  627MOL0     H82725   8.531   9.742   4.757 -1.6368 -1.0195 -1.0446
  627MOL0     H82726   8.685   9.601   4.939 -0.0948  2.7069 -1.7854
  627MOL0     H82727   8.841   9.499   5.083  1.3213 -0.7756  0.1446
  627MOL0     H82728   9.398   9.345   4.962  0.2649  0.6190  0.0769
  627MOL0     H82729   9.591   9.248   5.115  0.8167  0.6362 -1.0836
  627MOL0     H82730   9.797   9.351   5.190  2.0247  0.0047  0.2152
  627MOL0     H82731   9.744   9.199   5.254 -2.6002 -0.9205  2.3071
  627MOL0     H82732   9.839   9.262   5.479  0.3811 -1.2191  0.5501
  627MOL0     H82733   9.912   9.401   5.403 -0.4771 -0.7250  0.0647
  627MOL0     H82734  10.023   9.252   5.232  0.3212 -2.1179 -0.8202
  627MOL0     H82735   9.984   9.114   5.320  1.4968 -0.0712  1.1428
  627MOL0     H82736  10.161   9.333   5.435 -1.2008  0.4939  0.0183
  627MOL0     H82737  10.117   9.184   5.513 -1.8004 -3.3264 -1.2771
  627MOL0     H82738  10.270   9.179   5.247 -0.6122  0.5628 -0.0179
  627MOL0     H82739  10.218   9.042   5.330 -0.3027  0.6972  1.3267
  627MOL0     H82740  10.353   9.108   5.537  2.8206 -0.2208  0.0786
  627MOL0     H82741  10.411   9.249   5.445  1.7042  0.2729  1.3190
  627MOL0     H82742  10.442   8.959   5.350 -1.1353  1.3235 -1.0066
  627MOL0     H82743  10.526   9.098   5.289 -0.9825  1.9430  0.9012
  627MOL0     H82744  10.673   8.961   5.431  0.8430  1.2297  0.3206
  627MOL0     H82745  10.562   8.961   5.564  2.5880  0.6503  2.3425
  627MOL0     H82746   9.503   9.554   5.398 -0.3909  1.3442 -1.0142
  627MOL0     H82747   9.314   9.635   5.271 -0.5544 -0.9300  3.8120
  627MOL0     H82748   9.150   9.622   4.808  0.5354  0.3954  0.8394
  627MOL0     H82749   8.991   9.716   4.671 -0.8168  1.6126 -0.0039
  627MOL0     H82750   9.497  10.847   4.214 -1.3492 -2.1388  0.1450
  627MOL0     H82751   9.721  10.955   4.139  2.7567 -0.3144  1.4831
  627MOL0     H82752  10.167  11.118   4.136  0.9679 -1.4826  1.4186
  627MOL0     H82753  10.342  11.202   4.002  0.5865  1.5250 -2.6486
  627MOL0     H82754  10.411  11.209   3.624  0.0550  0.3174  0.0639
  627MOL0     H82755  10.416  11.030   3.586 -0.9729 -0.6214  2.2017
  627MOL0     H82756  10.645  11.193   3.692  0.9366 -0.0966  1.3582
  627MOL0     H82757  10.638  11.019   3.653 -1.9729 -0.3323 -0.0618
  627MOL0     H82758  10.556  11.228   3.451 -3.3810 -2.2665  1.5497
  627MOL0     H82759  10.641  11.082   3.412  2.5536 -0.9913  1.9261
  627MOL0     H82760  10.774  11.279   3.378  2.5064 -0.2479 -0.0834
  627MOL0     H82761  10.799  11.287   3.553  0.3905  1.8422 -0.4970
  627MOL0     H82762  11.037  10.957   3.434  0.8868  0.7022 -1.6785
  627MOL0     H82763  10.251  10.912   3.688  0.7400  1.6826  0.7388
  627MOL0     H82764  10.060  10.839   3.812 -0.3380  0.2322  0.5743
  628MOL0     O82765   7.216   9.733   5.322 -0.5225  0.7994 -0.6885
  628MOL0     C82766   7.296   9.706   5.233 -0.9476 -0.0033 -0.6379
  628MOL0     O82767   7.290   9.591   5.150  0.7127  0.0411 -0.1560
  628MOL0     C82768   7.206   9.481   5.172  0.7866 -0.3339  0.1513
  628MOL0     C82769   7.140   9.459   5.290 -0.1286  0.4189 -0.2741
  628MOL0     C82770   7.062   9.349   5.312  0.8109  0.1663 -0.0660
  628MOL0     C82771   7.032   9.261   5.197 -0.1330  1.5779 -0.6749
  628MOL0     O82772   6.957   9.143   5.208 -0.0578 -0.6470  0.0972
  628MOL0     C82773   6.844   9.146   5.296 -0.4288 -0.8262 -0.1753
  628MOL0     C82774   6.747   9.021   5.251 -0.7192 -0.1437  0.2493
  628MOL0     C82775   6.607   9.039   5.305 -0.4259  0.3526 -0.0735
  628MOL0     C82776   6.519   8.926   5.257 -0.1572  0.6988 -0.4808
  628MOL0     C82777   6.386   8.911   5.346 -0.0250  0.0699  0.1787
  628MOL0     C82778   6.416   8.842   5.485 -0.2677 -0.3613 -0.2868
  628MOL0     C82779   6.283   8.835   5.571  0.1252  0.1387 -0.7574
  628MOL0     C82780   6.167   8.763   5.501 -0.4149  0.0105  0.2997
  628MOL0     N82781   6.055   8.730   5.591 -0.6553 -0.4584 -0.0248
  628MOL0     C82782   5.986   8.607   5.596  0.0552 -1.1886  0.7787
  628MOL0     C82783   5.864   8.628   5.659 -0.2907 -0.0559 -1.3584
  628MOL0     C82784   5.760   8.520   5.665  0.2814  0.7452  0.5600
  628MOL0     C82785   5.622   8.560   5.725 -0.2708  0.8370 -0.1805
  628MOL0     C82786   5.502   8.488   5.668 -0.7358  0.2986 -0.3580
  628MOL0     C82787   5.372   8.546   5.727  0.4063 -0.1621  0.0518
  628MOL0     O82788   5.354   8.691   5.690 -0.1220  0.1746 -0.1278
  628MOL0     C82789   5.239   8.763   5.733 -0.5861 -0.7282 -0.1645
  628MOL0     C82790   5.247   8.905   5.723  0.4722 -0.3118 -0.4833
  628MOL0     C82791   5.139   8.986   5.773  0.7150 -0.0925  0.9096
  628MOL0     C82792   5.020   8.920   5.805 -0.0190  0.2217  0.0849
  628MOL0     C82793   4.885   8.991   5.833 -0.1364 -0.3107  0.4101
  628MOL0     O82794   4.772   8.910   5.851 -0.2673  0.0228  0.1474
  628MOL0     C82795   4.652   8.982   5.875 -0.7844 -0.2221 -0.6234
  628MOL0     C82796   4.575   8.956   5.992 -0.1662  0.1975  0.6576
  628MOL0     C82797   4.462   9.033   6.018  0.3101 -1.0581  0.0166
  628MOL0     C82798   4.419   9.134   5.934  0.3834 -1.2273  0.5926
  628MOL0     O82799   4.323   9.229   5.975  0.3169 -0.5328 -0.2622
  628MOL0     C82800   4.292   9.332   5.871  0.1494 -0.6638 -0.7980
  628MOL0     C82801   4.206   9.456   5.925 -1.0296  0.9249 -1.4888
  628MOL0     C82802   4.069   9.396   5.967  0.4027  0.0872 -0.1564
  628MOL0     C82803   3.986   9.495   6.049  0.0081 -0.8317  0.2708
  628MOL0     C82804   3.855   9.434   6.077 -0.2700  0.2405 -0.8774
  628MOL0     C82805   3.761   9.513   6.167  0.0312  0.1794 -0.3441
  628MOL0     C82806   3.636   9.431   6.206 -0.1115  0.6031 -0.3094
  628MOL0     C82807   3.514   9.510   6.251 -0.5126 -0.2780 -0.3786
  628MOL0    Cl82808   3.422   9.555   6.103  0.2834  0.4860 -0.0516
  628MOL0     C82809   4.493   9.158   5.820 -0.2172  0.1101  0.3398
  628MOL0     C82810   4.605   9.082   5.791 -0.2484 -0.8169 -0.8656
  628MOL0     O82811   4.891   9.114   5.829  0.0726  0.6386  0.0001
  628MOL0     C82812   5.018   8.780   5.804 -0.1553  0.0085 -0.1945
  628MOL0     C82813   5.123   8.700   5.776 -0.6277 -0.5328 -0.0483
  628MOL0     N82814   5.868   8.760   5.699  0.4937 -0.6869 -0.9799
  628MOL0     N82815   5.981   8.814   5.668  0.5882 -0.0544 -0.5030
  628MOL0     C82816   7.102   9.278   5.078  0.0041  0.2488 -0.5011
  628MOL0     C82817   7.189   9.386   5.067 -0.7385 -0.1977 -0.3705
  628MOL0     C82818   7.413   9.798   5.208 -0.1240 -0.0325  0.2364
  628MOL0     C82819   7.450   9.905   5.282  0.1941 -0.2327  0.3218
  628MOL0     C82820   7.541  10.006   5.238  0.3985 -0.2882 -0.0648
  628MOL0     C82821   7.601   9.996   5.118  0.4973  0.5671 -0.7710
  628MOL0     O82822   7.698  10.083   5.072 -0.2342  0.3890 -0.2993
  628MOL0     C82823   7.760  10.193   5.147  0.2579 -0.0748  0.2087
  628MOL0     C82824   7.865  10.266   5.069  0.1602  0.8005 -0.7279
  628MOL0     C82825   7.790  10.343   4.956 -0.0756 -0.0967  0.3889
  628MOL0     C82826   7.877  10.445   4.885 -0.7692 -0.3164 -0.0208
  628MOL0     C82827   7.844  10.493   4.749  0.6978  0.1789 -0.8579
  628MOL0     C82828   7.828  10.530   4.636 -0.2673  0.1417  0.1962
  628MOL0     C82829   7.576   9.887   5.036 -0.2887 -0.3706  0.4626
  628MOL0     C82830   7.479   9.798   5.081 -0.5201 -0.2043  0.2429
  628MOL0     H82831   7.155   9.530   5.371 -0.3993 -0.0965  0.2346
  628MOL0     H82832   7.012   9.339   5.408 -0.5589  1.4920 -0.5877
  628MOL0     H82833   6.776   9.230   5.279 -2.3349 -2.3117 -0.3111
  628MOL0     H82834   6.866   9.138   5.403  1.1160 -0.4868 -0.4399
  628MOL0     H82835   6.786   8.924   5.283 -0.7998 -1.5803 -3.4965
  628MOL0     H82836   6.745   9.015   5.142  1.9167  1.5913  0.0005
  628MOL0     H82837   6.569   9.138   5.276  1.4884  1.1808  0.1405
  628MOL0     H82838   6.608   9.039   5.415 -0.0426  0.6456 -0.0760
  628MOL0     H82839   6.478   8.944   5.157  0.1179  0.9888 -0.5392
  628MOL0     H82840   6.575   8.832   5.260  1.6466  1.6674 -2.2141
  628MOL0     H82841   6.307   8.863   5.288  0.3986  0.0740 -0.4099
  628MOL0     H82842   6.338   9.007   5.368 -0.1046  0.2472 -0.7119
  628MOL0     H82843   6.492   8.909   5.527  0.2381 -0.9228 -0.2900
  628MOL0     H82844   6.463   8.747   5.457 -2.9121 -1.5653 -0.9189
  628MOL0     H82845   6.301   8.773   5.660  2.3007  0.3345 -1.0102
  628MOL0     H82846   6.255   8.938   5.596  1.6639  0.3261  0.3823
  628MOL0     H82847   6.207   8.676   5.447  2.1610  1.9195 -1.0730
  628MOL0     H82848   6.144   8.839   5.426 -1.7915 -0.2657  0.3992
  628MOL0     H82849   6.024   8.523   5.539 -1.1750 -1.1926 -0.0968
  628MOL0     H82850   5.793   8.441   5.734 -1.0927 -1.6673 -1.3701
  628MOL0     H82851   5.747   8.472   5.568 -2.7874 -0.3923  1.3893
  628MOL0     H82852   5.614   8.665   5.692  3.1789  0.3497 -3.1417
  628MOL0     H82853   5.619   8.576   5.833 -0.5690  1.5908 -0.2903
  628MOL0     H82854   5.507   8.501   5.560  1.2354  1.2639 -0.1953
  628MOL0     H82855   5.498   8.379   5.679  0.1122  0.2943 -0.0735
  628MOL0     H82856   5.369   8.538   5.836 -0.5282  3.8988  0.4753
  628MOL0     H82857   5.287   8.489   5.687  2.0566  0.5361 -5.3162
  628MOL0     H82858   5.339   8.957   5.698  0.4226  0.4843  0.8914
  628MOL0     H82859   5.158   9.092   5.774  2.1508 -0.3263  0.8091
  628MOL0     H82860   4.613   8.880   6.060 -2.0690  0.8307  2.5462
  628MOL0     H82861   4.407   9.012   6.109 -0.0696 -2.2991 -0.4757
  628MOL0     H82862   4.237   9.292   5.785 -0.8408  1.2174 -1.1158
  628MOL0     H82863   4.382   9.378   5.831  0.3551 -1.0307 -0.7604
  628MOL0     H82864   4.192   9.526   5.842  0.9813  2.4462 -0.6208
  628MOL0     H82865   4.261   9.497   6.011 -3.1484  0.9095 -0.0642
  628MOL0     H82866   4.081   9.306   6.028 -0.9681 -0.7749 -1.1114
  628MOL0     H82867   4.008   9.362   5.883 -1.6436 -3.4830  2.4683
  628MOL0     H82868   4.033   9.537   6.138  0.5401 -0.7148 -0.0547
  628MOL0     H82869   3.965   9.576   5.978 -0.5236 -0.3109  1.0092
  628MOL0     H82870   3.874   9.337   6.125 -1.0558  1.6974  2.6913
  628MOL0     H82871   3.811   9.418   5.978  3.0606  0.6233 -2.5602
  628MOL0     H82872   3.739   9.612   6.126  1.3287 -0.5477 -3.0188
  628MOL0     H82873   3.819   9.539   6.256  1.8688 -1.4443 -1.0062
  628MOL0     H82874   3.611   9.364   6.123 -0.8924 -0.8551  1.0530
  628MOL0     H82875   3.661   9.364   6.288  2.0214  1.9779  0.2448
  628MOL0     H82876   3.542   9.597   6.311  4.0537 -1.0244 -1.0441
  628MOL0     H82877   3.448   9.450   6.314  1.8678 -1.6197  0.9884
  628MOL0     H82878   4.469   9.237   5.750 -0.5840 -0.3622 -0.0752
  628MOL0     H82879   4.673   9.105   5.710  0.1943 -2.2642 -0.9263
  628MOL0     H82880   4.927   8.722   5.820 -1.0777  1.5326  0.2643
  628MOL0     H82881   5.120   8.591   5.769  2.9483 -0.6316 -3.2225
  628MOL0     H82882   7.080   9.209   4.997 -0.8779 -0.1514  0.0648
  628MOL0     H82883   7.240   9.410   4.974 -0.6920 -0.8344 -0.5119
  628MOL0     H82884   7.406   9.912   5.381 -0.0338  0.2330  0.1876
  628MOL0     H82885   7.556  10.090   5.305  0.0648  2.5725 -3.2610
  628MOL0     H82886   7.806  10.151   5.237 -0.1857 -0.5209  0.2339
  628MOL0     H82887   7.676  10.257   5.175 -2.4124 -0.7864 -4.9509
  628MOL0     H82888   7.909  10.340   5.137 -0.6280  2.5236 -2.0099
  628MOL0     H82889   7.936  10.195   5.027 -0.8804 -0.5195 -0.3158
  628MOL0     H82890   7.700  10.393   4.994  0.0165  1.5079 -1.3596
  628MOL0     H82891   7.764  10.257   4.894  2.0709 -0.7698  0.3485
  628MOL0     H82892   7.884  10.537   4.943  1.2959  0.3594 -1.2451
  628MOL0     H82893   7.973  10.395   4.868 -0.6814 -0.1450 -0.0311
  628MOL0     H82894   7.816  10.577   4.541  2.3298  1.6439  0.5261
  628MOL0     H82895   7.637   9.875   4.948  1.2798  0.2968  1.4238
  628MOL0     H82896   7.471   9.707   5.022 -1.9124  1.1237 -1.7113
  629MOL0     O82897   8.391   0.832  10.723 -0.2555  0.0502 -0.1878
  629MOL0     C82898   8.329   0.913  10.661 -0.3279  0.2179  0.3888
  629MOL0     O82899   8.199   0.945  10.678 -0.5033  0.0278  0.1010
  629MOL0     C82900   8.126   0.899  10.785 -0.3073  0.4469 -0.2504
  629MOL0     C82901   8.146   0.779  10.855 -0.1185 -0.1100 -0.1979
  629MOL0     C82902   8.060   0.738  10.961  0.2502  0.4458  0.2206
  629MOL0     C82903   7.958   0.823  11.007  0.6959 -0.7717  0.1804
  629MOL0     O82904   7.875   0.790  11.119  0.0954 -0.0765 -0.3078
  629MOL0     C82905   7.756   0.867  11.148 -0.3055 -0.3079 -0.2709
  629MOL0     C82906   7.648   0.774  11.206 -0.0278  0.3051  0.3098
  629MOL0     C82907   7.603   0.670  11.108 -0.7346  0.5039  0.1724
  629MOL0     C82908   7.489   0.599  11.172  1.0433  0.9813  0.4273
  629MOL0     C82909   7.425   0.508  11.067 -0.9992 -0.5908  1.3294
  629MOL0     C82910   7.280   0.448  11.089 -0.4145 -0.4105  0.3277
  629MOL0     C82911   7.176   0.556  11.112  0.7743 -0.1742 -0.8873
  629MOL0     C82912   7.048   0.481  11.145  0.1666  0.0264  0.4906
  629MOL0     N82913   6.986   0.426  11.021  0.1226  0.6878  0.6808
  629MOL0     C82914   6.864   0.365  11.012 -0.2358 -0.5832 -0.4818
  629MOL0     C82915   6.832   0.369  10.878 -0.6576  0.0214  0.9221
  629MOL0     C82916   6.711   0.307  10.829  0.7117  0.5350 -0.6521
  629MOL0     C82917   6.737   0.162  10.782 -0.0174 -0.3534  0.9846
  629MOL0     C82918   6.607   0.090  10.731  0.3742  0.3350 -0.1669
  629MOL0     C82919   6.583   0.132  10.582  0.3526 -0.1726  0.1316
  629MOL0     O82920   6.456   0.086  10.528 -0.3032 -0.0921 -0.1869
  629MOL0     C82921   6.330   0.110  10.584 -0.2030  0.5628  1.1060
  629MOL0     C82922   6.301   0.216  10.658 -0.1290 -0.3064  0.2381
  629MOL0     C82923   6.176   0.256  10.689  1.1370  0.2973 -0.3447
  629MOL0     C82924   6.068   0.182  10.640  0.0289  0.6726  0.2251
  629MOL0     C82925   5.928   0.221  10.673 -1.1810 -0.0957  0.2698
  629MOL0     O82926   5.905   0.322  10.762  0.3730  0.6457 -0.2332
  629MOL0     C82927   5.776   0.321  10.809  0.4413 -1.0181 -0.2707
  629MOL0     C82928   5.688   0.434  10.787  0.9912  0.5843 -0.2991
  629MOL0     C82929   5.559   0.435  10.839  0.3664  0.6871  0.3559
  629MOL0     C82930   5.509   0.324  10.910 -0.6299  0.9270 -1.0778
  629MOL0     O82931   5.377   0.333  10.957 -0.6782 -0.8233  0.2964
  629MOL0     C82932   5.329   0.228  11.031  0.6245 -0.1098 -0.3485
  629MOL0     C82933   5.182   0.258  11.080 -0.2492 -0.1390  0.5300
  629MOL0     C82934   5.080   0.193  10.980  0.7930 -0.2003 -0.0457
  629MOL0     C82935   4.938   0.226  11.020  0.6706  0.8948  0.6146
  629MOL0     C82936   4.829   0.169  10.924 -0.2227  0.0770 -0.0622
  629MOL0     C82937   4.684   0.168  10.980 -0.3564 -0.0943 -0.5742
  629MOL0     C82938   4.630   0.310  11.005 -0.0104  0.3597 -0.2438
  629MOL0     C82939   4.478   0.321  11.046 -0.2190  0.4898 -0.4374
  629MOL0    Cl82940   4.455   0.211  11.195 -0.2489 -0.1577 -0.1775
  629MOL0     C82941   5.603   0.216  10.933  0.4282  0.8575  0.3186
  629MOL0     C82942   5.736   0.218  10.888  0.3175  0.5681  0.1642
  629MOL0     O82943   5.845   0.154  10.617  0.4000  0.7422  0.1071
  629MOL0     C82944   6.097   0.064  10.570  0.5853 -0.9209 -0.2313
  629MOL0     C82945   6.227   0.035  10.539  1.0985  0.5163  0.0443
  629MOL0     N82946   6.917   0.448  10.810 -0.3242 -0.0232  0.2700
  629MOL0     N82947   7.011   0.483  10.895  0.5475 -0.2405 -0.1561
  629MOL0     C82948   7.935   0.942  10.929 -1.1619  0.1028  0.3076
  629MOL0     C82949   8.015   0.977  10.819 -0.1704  0.0070  0.0470
  629MOL0     C82950   8.386   0.975  10.548 -0.0765  0.2713 -0.1165
  629MOL0     C82951   8.380   1.110  10.518 -0.4780 -1.0436  0.2824
  629MOL0     C82952   8.421   1.159  10.395  0.7179  0.1697 -0.2547
  629MOL0     C82953   8.487   1.081  10.300 -0.0587  0.5765 -0.1776
  629MOL0     O82954   8.547   1.107  10.190  0.2014 -0.6264  0.4826
  629MOL0     C82955   8.545   1.239  10.136 -0.5971 -0.4259 -0.1241
  629MOL0     C82956   8.404   1.278  10.093  0.2083  0.3256  0.3345
  629MOL0     C82957   8.345   1.169  10.000  0.1939 -1.0077  0.2084
  629MOL0     C82958   8.207   1.212   9.942 -0.5153  0.0023 -0.0386
  629MOL0     C82959   8.188   1.125   9.825 -0.0087 -0.0016  0.3473
  629MOL0     C82960   8.177   1.040   9.739  0.0829 -0.3445  0.6931
  629MOL0     C82961   8.496   0.948  10.328 -0.7240 -1.3508 -0.4041
  629MOL0     C82962   8.449   0.895  10.447 -0.0320  0.1035 -0.0382
  629MOL0     H82963   8.227   0.710  10.834 -0.9562 -1.0859 -0.2951
  629MOL0     H82964   8.096   0.652  11.016  0.1517 -0.1244 -0.5812
  629MOL0     H82965   7.714   0.914  11.058  0.9033 -1.3453 -1.4327
  629MOL0     H82966   7.779   0.946  11.220  0.6676 -2.3023  1.7294
  629MOL0     H82967   7.558   0.828  11.235  0.6714  0.3413  2.5613
  629MOL0     H82968   7.690   0.725  11.294  1.0891 -0.4876 -0.6301
  629MOL0     H82969   7.683   0.602  11.077 -1.2876  0.6444 -1.6666
  629MOL0     H82970   7.574   0.725  11.018  1.8507  1.5292 -0.1108
  629MOL0     H82971   7.522   0.527  11.248 -1.9915 -1.8819 -0.7056
  629MOL0     H82972   7.407   0.658  11.215 -2.2160 -2.7697 -0.0145
  629MOL0     H82973   7.494   0.426  11.047 -0.4126 -0.3099  2.0989
  629MOL0     H82974   7.436   0.570  10.977  0.4540 -0.6389  1.4435
  629MOL0     H82975   7.290   0.380  11.174 -0.6603 -1.2308 -0.2820
  629MOL0     H82976   7.266   0.388  10.999  2.5639 -1.8469  0.7268
  629MOL0     H82977   7.192   0.623  11.196  0.6194  0.2224 -1.1699
  629MOL0     H82978   7.172   0.622  11.024 -1.8027  0.6344 -0.2613
  629MOL0     H82979   6.972   0.548  11.186 -0.7138 -0.4865 -0.2690
  629MOL0     H82980   7.061   0.401  11.218 -0.6010  0.3989  1.0474
  629MOL0     H82981   6.795   0.321  11.084  0.4118 -2.0733 -0.7246
  629MOL0     H82982   6.664   0.373  10.755 -1.3518  0.2356  0.3162
  629MOL0     H82983   6.633   0.306  10.906  1.7764  2.7096  0.5370
  629MOL0     H82984   6.779   0.106  10.866 -1.2746 -1.7255  0.7372
  629MOL0     H82985   6.811   0.169  10.702 -0.7532 -1.6690  0.1502
  629MOL0     H82986   6.624  -0.017  10.746 -0.2031  0.4513  1.6306
  629MOL0     H82987   6.529   0.114  10.804  1.5915  1.1177  0.9502
  629MOL0     H82988   6.666   0.093  10.522 -0.6700 -1.6217 -0.3881
  629MOL0     H82989   6.587   0.241  10.581  0.3072 -0.0820 -3.2412
  629MOL0     H82990   6.385   0.281  10.681  0.1237 -0.5120 -0.0845
  629MOL0     H82991   6.159   0.346  10.748  0.0858  0.8252 -1.4175
  629MOL0     H82992   5.710   0.521  10.727  0.4278  1.0051  0.0997
  629MOL0     H82993   5.490   0.518  10.830 -0.3946  0.3262  2.3276
  629MOL0     H82994   5.395   0.214  11.117 -1.4059 -1.4040  1.0954
  629MOL0     H82995   5.329   0.127  10.988  2.5177 -0.2062 -0.2259
  629MOL0     H82996   5.157   0.365  11.078 -2.3304 -0.5832  0.6366
  629MOL0     H82997   5.168   0.213  11.179 -0.2448  0.0202  0.6044
  629MOL0     H82998   5.083   0.084  10.982  0.5009 -0.2123  1.8081
  629MOL0     H82999   5.093   0.226  10.877  2.8354 -0.8640 -0.0375
  629MOL0     H83000   4.907   0.187  11.118 -1.4393 -1.8373 -0.9865
  629MOL0     H83001   4.932   0.335  11.019  1.4091  0.9425  0.9281
  629MOL0     H83002   4.864   0.068  10.900 -0.2813  0.2275 -0.8008
  629MOL0     H83003   4.847   0.227  10.833 -1.7325  2.0295  0.8207
  629MOL0     H83004   4.690   0.119  11.078 -1.2002 -1.2579 -1.0939
  629MOL0     H83005   4.614   0.122  10.911  0.4389  0.5132 -1.8266
  629MOL0     H83006   4.681   0.356  11.091 -0.0998  1.0339 -0.5421
  629MOL0     H83007   4.649   0.374  10.918  0.2821  0.3150 -0.2153
  629MOL0     H83008   4.417   0.282  10.964 -1.3125  0.9392  0.1417
  629MOL0     H83009   4.458   0.425  11.071  2.2392  0.4691  2.1404
  629MOL0     H83010   5.573   0.125  10.984  0.3380 -0.8064 -2.5122
  629MOL0     H83011   5.800   0.132  10.906 -0.6428 -0.3919 -0.8042
  629MOL0     H83012   6.026  -0.011  10.536  1.1394 -0.4261 -2.6743
  629MOL0     H83013   6.236  -0.057  10.481  0.4062 -0.1289  0.9275
  629MOL0     H83014   7.859   1.018  10.945 -1.1594 -0.4417  3.3185
  629MOL0     H83015   7.998   1.071  10.768 -0.1280 -0.4077 -0.7441
  629MOL0     H83016   8.318   1.180  10.573  0.2813 -0.2341  0.1154
  629MOL0     H83017   8.412   1.267  10.392 -2.0499  0.1499  2.2188
  629MOL0     H83018   8.618   1.247  10.054  1.5524  1.3041  1.8278
  629MOL0     H83019   8.579   1.313  10.209  1.2312 -3.8855  2.8789
  629MOL0     H83020   8.335   1.285  10.177 -1.2589 -1.7141 -0.6210
  629MOL0     H83021   8.393   1.372  10.037 -2.2161 -1.2810 -2.1822
  629MOL0     H83022   8.329   1.075  10.053 -1.8767 -1.4477 -1.0563
  629MOL0     H83023   8.406   1.153   9.911 -0.6176 -0.6994 -0.4210
  629MOL0     H83024   8.126   1.188  10.013  1.0199 -0.6262  1.5832
  629MOL0     H83025   8.215   1.317   9.914  1.3746 -0.3395 -0.9263
  629MOL0     H83026   8.150   0.962   9.671 -0.2329 -1.1363  1.6950
  629MOL0     H83027   8.550   0.883  10.260  3.8139  0.7214  0.8065
  629MOL0     H83028   8.442   0.787  10.453 -0.7458 -0.0908 -2.9458
  630MOL0     O83029  11.177   8.099   1.387  0.1301  0.0204  0.3512
  630MOL0     C83030  11.169   7.980   1.363 -0.2485 -0.1754  0.2404
  630MOL0     O83031  11.061   7.899   1.387 -0.3707 -0.0841  0.3959
  630MOL0     C83032  10.937   7.953   1.426  0.0828  0.7207  0.2108
  630MOL0     C83033  10.878   8.072   1.379 -1.2265 -0.2629 -0.1933
  630MOL0     C83034  10.755   8.115   1.427 -0.5911 -0.3155  0.8561
  630MOL0     C83035  10.685   8.038   1.525 -0.0294 -0.4549  0.3436
  630MOL0     O83036  10.558   8.087   1.562 -0.3470 -0.0042  1.2336
  630MOL0     C83037  10.452   7.994   1.558  0.3188 -0.3361  0.5114
  630MOL0     C83038  10.328   8.080   1.595 -0.3425 -0.0225 -0.9154
  630MOL0     C83039  10.248   8.138   1.485 -0.2891  0.7130  0.1068
  630MOL0     C83040  10.116   8.197   1.531 -0.1017 -0.3368 -0.1113
  630MOL0     C83041  10.015   8.252   1.424 -0.3630  0.2587 -0.7165
  630MOL0     C83042   9.929   8.139   1.369  0.1303 -0.1907  0.5552
  630MOL0     C83043   9.796   8.169   1.287 -0.3949 -0.0985 -0.0145
  630MOL0     C83044   9.729   8.293   1.351 -0.2244  0.4233 -0.2730
  630MOL0     N83045   9.604   8.321   1.287 -0.8525  0.1072 -0.3762
  630MOL0     C83046   9.566   8.301   1.158  0.1288 -0.1436  0.6758
  630MOL0     C83047   9.442   8.349   1.143  0.2594 -0.0099  0.1338
  630MOL0     C83048   9.365   8.338   1.019 -0.4193 -0.7220  0.1167
  630MOL0     C83049   9.345   8.195   0.977  0.2432 -0.4325 -0.3250
  630MOL0     C83050   9.252   8.114   1.065 -0.1898 -0.6899 -0.7062
  630MOL0     C83051   9.112   8.168   1.071 -0.3924 -0.0446 -0.1305
  630MOL0     O83052   9.027   8.060   1.122  0.5007  0.3421 -0.2849
  630MOL0     C83053   8.893   8.086   1.147  0.2877 -0.9273  0.5961
  630MOL0     C83054   8.794   7.988   1.122  0.3470  0.2952 -0.5923
  630MOL0     C83055   8.657   8.018   1.139 -0.6392  0.0261 -0.4256
  630MOL0     C83056   8.618   8.145   1.190  0.3639  0.0539  0.0916
  630MOL0     C83057   8.471   8.167   1.219 -0.3316 -0.1470 -0.1186
  630MOL0     O83058   8.382   8.068   1.184  0.4520  0.3099 -0.4970
  630MOL0     C83059   8.247   8.068   1.220  0.0049 -0.5553  0.3536
  630MOL0     C83060   8.187   8.131   1.323 -0.6234  0.3420  0.3027
  630MOL0     C83061   8.055   8.097   1.372 -0.0234  0.0985  0.0616
  630MOL0     C83062   7.979   7.998   1.306 -0.1145  0.1900  0.4675
  630MOL0     O83063   7.860   7.959   1.359 -0.0792 -0.2088 -0.5808
  630MOL0     C83064   7.863   7.931   1.500 -0.4176 -0.0212 -0.0132
  630MOL0     C83065   7.734   7.862   1.548  1.1858 -0.1519 -0.1188
  630MOL0     C83066   7.744   7.710   1.520  0.0718  0.0974  0.4155
  630MOL0     C83067   7.622   7.635   1.565  0.0221  0.5260 -0.0714
  630MOL0     C83068   7.618   7.495   1.543  0.0614  0.9958  0.4807
  630MOL0     C83069   7.474   7.434   1.573  0.1040 -0.0390 -0.7249
  630MOL0     C83070   7.485   7.285   1.540  0.1073  0.5655 -0.3092
  630MOL0     C83071   7.363   7.198   1.594  0.0609 -0.2814  0.6325
  630MOL0    Cl83072   7.207   7.261   1.520 -0.4815 -0.4286  0.5660
  630MOL0     C83073   8.035   7.933   1.199 -0.3564 -0.7144 -0.1806
  630MOL0     C83074   8.164   7.972   1.159 -0.8414 -0.4120 -0.0033
  630MOL0     O83075   8.446   8.271   1.271  0.4835 -0.5644  0.4608
  630MOL0     C83076   8.721   8.237   1.218  0.0087 -0.0643 -0.0289
  630MOL0     C83077   8.855   8.204   1.210 -0.4094  0.2535 -0.0719
  630MOL0     N83078   9.401   8.395   1.267  0.3062 -0.2684  0.5275
  630MOL0     N83079   9.502   8.389   1.347  0.2139 -0.4681  0.4241
  630MOL0     C83080  10.740   7.917   1.565 -0.7616  0.4065 -0.1124
  630MOL0     C83081  10.864   7.872   1.517 -1.0239  0.7005 -0.4927
  630MOL0     C83082  11.295   7.926   1.316  0.1528  0.0691  0.2660
  630MOL0     C83083  11.292   7.798   1.252 -0.2107  0.5055 -0.5061
  630MOL0     C83084  11.419   7.736   1.236  0.3161 -0.7324  0.2050
  630MOL0     C83085  11.540   7.801   1.264  0.1170 -0.0857  0.3700
  630MOL0     O83086  11.656   7.728   1.230  0.2682  0.5017  0.1881
  630MOL0     C83087  11.780   7.793   1.262 -0.3367 -0.7357  0.3412
  630MOL0     C83088  11.897   7.688   1.244 -0.5100  0.8074 -0.6513
  630MOL0     C83089  11.887   7.594   1.364 -0.5818 -0.0704  0.4523
  630MOL0     C83090  12.015   7.506   1.383  0.6347 -0.3118 -0.3814
  630MOL0     C83091  12.140   7.586   1.395 -0.3260  0.8179 -0.8815
  630MOL0     C83092  12.235   7.660   1.386 -1.0738  0.0744  0.2456
  630MOL0     C83093  11.532   7.924   1.325  0.5211 -0.1611 -0.3523
  630MOL0     C83094  11.414   7.985   1.352  0.2887 -0.5105  0.6747
  630MOL0     H83095  10.929   8.131   1.304 -2.4085  2.5951  1.0764
  630MOL0     H83096  10.709   8.205   1.387  1.7395  1.3544  1.6971
  630MOL0     H83097  10.463   7.910   1.627  1.8244 -2.5401 -2.2196
  630MOL0     H83098  10.438   7.953   1.457  0.4829  3.4859 -1.2461
  630MOL0     H83099  10.355   8.163   1.660 -0.9949  0.4580 -1.2431
  630MOL0     H83100  10.248   8.019   1.638 -1.6587  0.7606 -2.1443
  630MOL0     H83101  10.221   8.068   1.405 -0.3299  1.1232 -0.2452
  630MOL0     H83102  10.303   8.221   1.439 -1.6487  1.1438 -0.8300
  630MOL0     H83103  10.070   8.129   1.603 -0.3679  0.5043  0.5277
  630MOL0     H83104  10.134   8.285   1.593  0.3189  0.6604 -1.5845
  630MOL0     H83105  10.068   8.303   1.343 -0.8296  0.6879 -0.7539
  630MOL0     H83106   9.958   8.322   1.486  2.8059  0.3062  2.4578
  630MOL0     H83107   9.898   8.099   1.466  0.6318  4.1422  2.7507
  630MOL0     H83108   9.996   8.072   1.314  0.8568  1.3573 -0.5243
  630MOL0     H83109   9.821   8.191   1.183  1.3252  1.8739  0.7420
  630MOL0     H83110   9.738   8.076   1.295  0.0453 -0.9744 -4.4734
  630MOL0     H83111   9.793   8.382   1.350  1.1386 -0.4802  1.2071
  630MOL0     H83112   9.706   8.274   1.456  1.2192 -0.1331 -0.0298
  630MOL0     H83113   9.629   8.272   1.075  0.6959  0.8785  0.7301
  630MOL0     H83114   9.429   8.392   0.948  0.2502  0.5872  1.6700
  630MOL0     H83115   9.269   8.390   1.024 -0.2189 -0.4659  1.4932
  630MOL0     H83116   9.443   8.145   0.975 -0.5159 -1.9832 -0.9058
  630MOL0     H83117   9.296   8.212   0.881 -0.7678  3.7235  0.7439
  630MOL0     H83118   9.247   8.013   1.025  4.3518 -3.7237  4.8715
  630MOL0     H83119   9.297   8.095   1.163  1.7394 -2.0040 -1.7692
  630MOL0     H83120   9.083   8.203   0.971 -1.5774 -1.8445 -0.4611
  630MOL0     H83121   9.122   8.247   1.146  1.2312 -1.2938  1.0190
  630MOL0     H83122   8.838   7.898   1.081 -0.9291  0.5604 -2.7321
  630MOL0     H83123   8.573   7.955   1.111  0.2307 -0.4676 -2.0742
  630MOL0     H83124   8.234   8.215   1.373 -0.7841  0.0453  0.9632
  630MOL0     H83125   8.024   8.146   1.463 -1.6210 -0.5989 -0.0817
  630MOL0     H83126   7.870   8.025   1.557  0.1761 -0.2622  0.3207
  630MOL0     H83127   7.951   7.869   1.520  2.1057  2.9859 -0.9183
  630MOL0     H83128   7.650   7.909   1.495  1.6028  0.1785 -0.4969
  630MOL0     H83129   7.713   7.894   1.650 -3.4313  0.5569 -1.0935
  630MOL0     H83130   7.831   7.669   1.573  0.1884  0.7058  0.7011
  630MOL0     H83131   7.757   7.713   1.411  0.7181  2.1151  0.5097
  630MOL0     H83132   7.601   7.675   1.665  3.0859  1.2986  0.3846
  630MOL0     H83133   7.544   7.674   1.499 -1.7127  0.8800  2.0573
  630MOL0     H83134   7.694   7.445   1.603 -0.9657 -0.8352  0.3452
  630MOL0     H83135   7.648   7.466   1.442 -0.1613  0.7361  0.4867
  630MOL0     H83136   7.404   7.485   1.506 -1.4087 -0.4439  0.4942
  630MOL0     H83137   7.449   7.449   1.678 -1.3924  1.9671 -1.3056
  630MOL0     H83138   7.493   7.276   1.431  1.2358  4.6324 -0.7345
  630MOL0     H83139   7.574   7.253   1.595  0.1970  1.4362  0.0669
  630MOL0     H83140   7.346   7.218   1.700 -0.3574  0.7183  0.3856
  630MOL0     H83141   7.373   7.091   1.571 -0.6456  0.0221 -1.2851
  630MOL0     H83142   7.978   7.855   1.151 -2.8502 -0.0085  1.4166
  630MOL0     H83143   8.224   7.912   1.091  0.4531 -1.2585  1.8087
  630MOL0     H83144   8.693   8.329   1.269  2.0672  0.3986  0.3702
  630MOL0     H83145   8.931   8.268   1.254  0.1192 -0.8971  0.7297
  630MOL0     H83146  10.696   7.841   1.629  0.2368 -0.3704 -0.3239
  630MOL0     H83147  10.906   7.783   1.561  2.8048  1.2254 -2.6194
  630MOL0     H83148  11.202   7.747   1.220 -0.6735  0.1546  1.2537
  630MOL0     H83149  11.405   7.640   1.187 -2.1302 -0.8075  0.9335
  630MOL0     H83150  11.772   7.824   1.367 -2.3740 -3.1593  1.0109
  630MOL0     H83151  11.805   7.878   1.198 -0.3802 -1.4095 -0.5899
  630MOL0     H83152  11.878   7.629   1.154  2.1922 -3.1510  1.0583
  630MOL0     H83153  11.997   7.731   1.234  1.9574 -3.9407  0.4782
  630MOL0     H83154  11.798   7.531   1.353 -2.3817  2.3332  0.4636
  630MOL0     H83155  11.882   7.649   1.458  3.1466 -0.2779  0.9264
  630MOL0     H83156  12.000   7.448   1.474  1.0524 -0.9816 -0.7336
  630MOL0     H83157  12.022   7.431   1.304 -1.0826  1.1925 -2.0561
  630MOL0     H83158  12.319   7.727   1.380 -0.6343 -0.6104 -2.1486
  630MOL0     H83159  11.624   7.971   1.359  0.8443  0.1074 -1.5520
  630MOL0     H83160  11.423   8.079   1.406  1.3413 -1.1481  1.6715
  631MOL0     O83161   4.293   2.146   8.865  0.7227  0.7654  0.0045
  631MOL0     C83162   4.315   2.023   8.855  0.2778 -0.1276  0.0198
  631MOL0     O83163   4.219   1.921   8.867  0.1891  0.1601  0.2526
  631MOL0     C83164   4.093   1.959   8.913 -0.3881 -0.7617  0.8981
  631MOL0     C83165   3.989   1.941   8.831 -0.1054 -1.0747 -0.1215
  631MOL0     C83166   3.858   1.946   8.883  0.1488 -0.4628 -0.4140
  631MOL0     C83167   3.833   1.995   9.009 -0.3052 -0.7536 -0.2256
  631MOL0     O83168   3.706   2.014   9.039  0.3417 -0.1006  0.3457
  631MOL0     C83169   3.669   1.999   9.173 -0.4057  0.0375  0.3712
  631MOL0     C83170   3.549   1.906   9.184  0.1936 -0.5645 -0.0177
  631MOL0     C83171   3.520   1.878   9.328  0.0857 -0.7493  0.3487
  631MOL0     C83172   3.408   1.772   9.336 -0.8177 -0.0620 -0.8810
  631MOL0     C83173   3.371   1.758   9.489 -0.3180 -0.7900  0.4658
  631MOL0     C83174   3.294   1.618   9.502 -0.4768 -0.2739 -0.1372
  631MOL0     C83175   3.166   1.597   9.416 -0.0270  0.2316  1.2677
  631MOL0     C83176   3.085   1.467   9.444  0.0010 -0.6515  0.3122
  631MOL0     N83177   3.001   1.488   9.558 -0.9543  0.6213 -0.4008
  631MOL0     C83178   2.868   1.506   9.564 -0.0582 -0.7911 -0.3088
  631MOL0     C83179   2.838   1.510   9.700  1.5170  0.1838 -0.4634
  631MOL0     C83180   2.706   1.512   9.776 -0.5107 -0.6806 -1.1664
  631MOL0     C83181   2.658   1.655   9.769  0.7525 -0.5613  0.1625
  631MOL0     C83182   2.508   1.659   9.819 -0.3480  0.7308  0.7967
  631MOL0     C83183   2.459   1.804   9.828 -0.2040 -0.6613  0.3203
  631MOL0     O83184   2.320   1.807   9.817  0.0455 -0.0423 -0.3194
  631MOL0     C83185   2.227   1.766   9.903  0.2087  0.2332 -0.1981
  631MOL0     C83186   2.241   1.716  10.030 -0.0089  0.3431 -0.2425
  631MOL0     C83187   2.132   1.688  10.113 -0.3189 -0.5001 -0.3883
  631MOL0     C83188   2.001   1.714  10.067  0.2135  0.7222 -0.1448
  631MOL0     C83189   1.880   1.695  10.163 -0.8424 -0.8065 -0.6230
  631MOL0     O83190   1.900   1.632  10.276 -0.1753  0.7587 -0.4566
  631MOL0     C83191   1.784   1.600  10.344  0.4541 -0.3310  0.3852
  631MOL0     C83192   1.691   1.503  10.308  0.1388  0.5870  0.6265
  631MOL0     C83193   1.571   1.482  10.388  0.2209 -0.2993  0.3542
  631MOL0     C83194   1.553   1.538  10.510 -0.0790 -0.5180 -0.9958
  631MOL0     O83195   1.451   1.486  10.586  0.1439  0.1984 -0.2485
  631MOL0     C83196   1.466   1.511  10.728  0.4078  1.0828  0.6622
  631MOL0     C83197   1.358   1.426  10.800  0.1899 -0.0546  0.0625
  631MOL0     C83198   1.341   1.472  10.949 -0.5669  0.0704  0.3659
  631MOL0     C83199   1.265   1.371  11.030 -0.2532 -0.7636 -0.1271
  631MOL0     C83200   1.120   1.353  10.976 -0.4775 -0.1828  0.4970
  631MOL0     C83201   1.040   1.245  11.049  0.0343 -0.8639 -0.7649
  631MOL0     C83202   0.884   1.259  11.018  0.1173  0.3943 -0.5309
  631MOL0     C83203   0.860   1.253  10.870  1.4688 -0.4932 -0.0720
  631MOL0    Cl83204   0.682   1.271  10.838 -0.8159  0.1154 -0.0251
  631MOL0     C83205   1.653   1.635  10.547 -0.1176 -0.3342  0.1757
  631MOL0     C83206   1.757   1.668  10.459 -0.2181 -0.1133 -0.2896
  631MOL0     O83207   1.772   1.741  10.129  0.5593  0.0489 -0.5655
  631MOL0     C83208   1.982   1.763   9.935 -0.8234 -0.6613 -0.9924
  631MOL0     C83209   2.097   1.781   9.854 -0.7244  0.7756 -0.0831
  631MOL0     N83210   2.955   1.511   9.769  0.2338  0.7623 -0.0744
  631MOL0     N83211   3.054   1.479   9.682  0.1694 -0.1659 -0.3069
  631MOL0     C83212   3.943   2.033   9.089 -0.4290 -0.3556  0.6857
  631MOL0     C83213   4.072   2.019   9.037  0.3493  0.0722  0.1183
  631MOL0     C83214   4.459   1.977   8.829  0.4930 -0.3153  0.3423
  631MOL0     C83215   4.476   1.839   8.846 -0.5645 -0.4020  1.1347
  631MOL0     C83216   4.623   1.803   8.852  0.7438  0.5185  0.0877
  631MOL0     C83217   4.725   1.891   8.831 -0.2783 -0.1583 -0.2415
  631MOL0     O83218   4.860   1.862   8.841 -0.9301 -0.0643  0.1894
  631MOL0     C83219   4.911   1.729   8.815 -0.7034 -0.0933 -0.0513
  631MOL0     C83220   5.069   1.726   8.840 -0.0540  0.4229 -0.2574
  631MOL0     C83221   5.140   1.839   8.780 -0.1169  0.0338  0.0748
  631MOL0     C83222   5.289   1.820   8.762 -0.4721  0.0132 -0.5312
  631MOL0     C83223   5.357   1.844   8.891 -0.1152 -0.2763  0.3674
  631MOL0     C83224   5.422   1.854   8.995  0.0347  0.2216 -0.1806
  631MOL0     C83225   4.699   2.026   8.797  0.5701  0.7017 -0.3234
  631MOL0     C83226   4.564   2.065   8.797 -0.4803 -0.5232 -0.2912
  631MOL0     H83227   4.005   1.914   8.727  0.2492  0.6119 -0.5405
  631MOL0     H83228   3.775   1.926   8.816 -0.5153  1.0487 -0.1014
  631MOL0     H83229   3.646   2.091   9.228 -0.8709  0.6378 -0.7918
  631MOL0     H83230   3.752   1.950   9.225  0.3507 -0.0899 -0.9228
  631MOL0     H83231   3.567   1.811   9.131 -0.1903 -2.1287  2.4765
  631MOL0     H83232   3.467   1.959   9.136  1.3722  0.0815 -1.4011
  631MOL0     H83233   3.491   1.972   9.376 -0.9324  0.1177 -1.8434
  631MOL0     H83234   3.613   1.835   9.367 -1.2058 -4.1213  0.0530
  631MOL0     H83235   3.323   1.790   9.270 -2.3392 -2.4149  0.2919
  631MOL0     H83236   3.463   1.682   9.305  0.3592 -0.7113  2.5984
  631MOL0     H83237   3.297   1.828   9.528  0.6213 -0.7993  2.3814
  631MOL0     H83238   3.466   1.750   9.544  0.0232 -0.8740 -0.1316
  631MOL0     H83239   3.262   1.612   9.607 -0.5023  1.2821 -0.0327
  631MOL0     H83240   3.372   1.543   9.489  0.6173  0.4622  1.7735
  631MOL0     H83241   3.110   1.691   9.416 -1.0922 -0.3767 -0.0085
  631MOL0     H83242   3.196   1.591   9.311  0.3107  3.3070  1.0858
  631MOL0     H83243   3.145   1.377   9.460  0.0745 -0.5761  0.4577
  631MOL0     H83244   3.016   1.439   9.363  0.3307 -0.8414  0.0961
  631MOL0     H83245   2.810   1.512   9.472 -0.6631 -1.6563  0.0033
  631MOL0     H83246   2.720   1.489   9.882  1.1982  1.0440 -0.9708
  631MOL0     H83247   2.640   1.441   9.723  1.1179 -2.1106 -1.3684
  631MOL0     H83248   2.657   1.678   9.662  1.7087 -0.8779  0.0731
  631MOL0     H83249   2.710   1.730   9.829 -3.3971 -1.0841  5.0997
  631MOL0     H83250   2.436   1.604   9.758 -1.6172  1.5652  1.4840
  631MOL0     H83251   2.508   1.613   9.919  3.0529 -0.5376  0.3289
  631MOL0     H83252   2.504   1.865   9.749 -1.9064 -0.0370 -0.2037
  631MOL0     H83253   2.494   1.848   9.922  0.7191  0.2978 -0.4501
  631MOL0     H83254   2.339   1.695  10.072 -0.4889 -1.0219  0.2566
  631MOL0     H83255   2.147   1.645  10.212 -0.2168  0.9365  0.2481
  631MOL0     H83256   1.704   1.433  10.226 -1.7789 -2.7016  2.8745
  631MOL0     H83257   1.498   1.414  10.345  0.9540 -0.8432 -0.0498
  631MOL0     H83258   1.452   1.616  10.756  0.6293  0.5521  3.0317
  631MOL0     H83259   1.566   1.483  10.762  1.2023  1.3452 -1.3414
  631MOL0     H83260   1.378   1.319  10.785 -2.4113 -0.8077  1.4171
  631MOL0     H83261   1.263   1.441  10.748 -0.5982  1.1857  1.7753
  631MOL0     H83262   1.279   1.562  10.957 -2.0480 -0.8322 -0.3999
  631MOL0     H83263   1.443   1.488  10.985 -1.1215 -0.9124  2.5474
  631MOL0     H83264   1.326   1.281  11.027  0.5166 -0.2522 -0.0975
  631MOL0     H83265   1.247   1.401  11.133 -1.7790 -2.9090  0.2947
  631MOL0     H83266   1.119   1.331  10.869 -0.7118  0.2651  0.4058
  631MOL0     H83267   1.063   1.446  10.982  1.7822  1.2157  2.3398
  631MOL0     H83268   1.059   1.272  11.153 -2.6843  3.9691 -1.1810
  631MOL0     H83269   1.071   1.142  11.029  0.4947 -0.6542 -1.1475
  631MOL0     H83270   0.839   1.172  11.065 -0.4656  0.8208 -0.2881
  631MOL0     H83271   0.839   1.349  11.062  0.8161  1.1526 -1.3250
  631MOL0     H83272   0.902   1.158  10.836  1.2436 -0.7650  0.3918
  631MOL0     H83273   0.914   1.333  10.819  0.8749  1.2432  1.9012
  631MOL0     H83274   1.643   1.702  10.631  1.7751  1.0684 -0.6503
  631MOL0     H83275   1.822   1.749  10.490 -2.1238  0.4145  2.7569
  631MOL0     H83276   1.888   1.795   9.891 -1.9258 -1.6049  0.5732
  631MOL0     H83277   2.080   1.822   9.755 -1.5959 -0.7929 -0.6109
  631MOL0     H83278   3.919   2.083   9.182  0.2483  1.3476 -0.0114
  631MOL0     H83279   4.155   2.053   9.098  1.3521 -0.0939 -1.1220
  631MOL0     H83280   4.398   1.766   8.862 -1.7809  0.6288  0.1641
  631MOL0     H83281   4.649   1.700   8.872  1.3681  0.7607  0.5903
  631MOL0     H83282   4.889   1.719   8.709  2.1098  0.9470 -0.8102
  631MOL0     H83283   4.855   1.650   8.866 -0.5875 -0.5917 -0.6846
  631MOL0     H83284   5.084   1.725   8.949 -0.3444 -1.1850 -0.2036
  631MOL0     H83285   5.103   1.627   8.807  1.9206  0.4404  1.4966
  631MOL0     H83286   5.117   1.921   8.848  0.6470 -0.8515  1.4397
  631MOL0     H83287   5.105   1.862   8.679 -0.1110  1.2565  0.3412
  631MOL0     H83288   5.321   1.720   8.731  1.2480  0.5007 -0.4070
  631MOL0     H83289   5.328   1.883   8.681 -1.0711  1.1424  0.0421
  631MOL0     H83290   5.472   1.842   9.089 -0.1446 -1.0458 -0.2296
  631MOL0     H83291   4.772   2.101   8.771 -0.9368  1.8365 -1.5101
  631MOL0     H83292   4.540   2.169   8.773 -0.6215 -0.8732 -1.7680
  632MOL0     O83293   8.093   8.602   2.374  0.0966  0.4306 -0.3930
  632MOL0     C83294   8.093   8.545   2.489 -0.0546  0.3331 -0.0353
  632MOL0     O83295   7.988   8.503   2.561 -0.2733  0.1334 -0.5496
  632MOL0     C83296   7.869   8.528   2.496  0.9704 -0.3143  0.2709
  632MOL0     C83297   7.796   8.645   2.508  0.6542 -0.9963  1.2134
  632MOL0     C83298   7.676   8.663   2.427 -0.3263  0.6895 -0.1024
  632MOL0     C83299   7.628   8.559   2.337  0.2542 -0.0577  0.7643
  632MOL0     O83300   7.515   8.555   2.261  0.8451  0.1434  0.3575
  632MOL0     C83301   7.397   8.595   2.335 -0.7860 -0.0211 -0.2834
  632MOL0     C83302   7.298   8.677   2.247 -0.3062  0.0345 -0.3917
  632MOL0     C83303   7.250   8.590   2.126  0.0379 -0.1175 -0.0544
  632MOL0     C83304   7.135   8.665   2.055  0.4297  0.7995 -0.1416
  632MOL0     C83305   7.091   8.565   1.946  0.2431 -0.4627 -0.2201
  632MOL0     C83306   6.993   8.620   1.843 -0.3358 -0.2875  0.0182
  632MOL0     C83307   6.869   8.664   1.916 -0.2096  0.0406  0.0276
  632MOL0     C83308   6.764   8.708   1.808 -0.2946  0.1185 -0.4583
  632MOL0     N83309   6.619   8.737   1.841 -0.3071 -0.0139  0.4347
  632MOL0     C83310   6.533   8.654   1.906 -0.4795 -0.6944  0.6550
  632MOL0     C83311   6.418   8.710   1.900  1.0152  0.7154  0.0829
  632MOL0     C83312   6.293   8.642   1.960  0.5873  0.6631 -0.7008
  632MOL0     C83313   6.171   8.657   1.863  0.5819  0.3260 -0.6964
  632MOL0     C83314   6.050   8.577   1.905 -0.4819  0.5735 -0.0195
  632MOL0     C83315   6.010   8.591   2.058  0.5614  0.1367 -0.6997
  632MOL0     O83316   5.937   8.710   2.078 -0.5956  0.4690  0.1689
  632MOL0     C83317   5.802   8.716   2.063 -0.3391  0.5795  0.7722
  632MOL0     C83318   5.748   8.814   2.139  0.0759  0.4292  0.1287
  632MOL0     C83319   5.613   8.837   2.142 -0.1418  0.0652  0.0377
  632MOL0     C83320   5.527   8.767   2.050 -0.4485  0.3952 -0.3311
  632MOL0     C83321   5.380   8.788   2.053 -0.3766 -0.8314  0.0128
  632MOL0     O83322   5.304   8.710   1.972  0.7290 -0.0258 -0.7410
  632MOL0     C83323   5.173   8.699   2.008 -0.2338  0.2588 -0.5632
  632MOL0     C83324   5.105   8.577   1.996 -0.0306  0.8753  0.6774
  632MOL0     C83325   4.969   8.564   2.018  0.0772  0.7144 -0.3917
  632MOL0     C83326   4.886   8.674   2.047 -0.0978 -0.3322  0.0213
  632MOL0     O83327   4.754   8.653   2.045  0.3408  0.5618  0.1718
  632MOL0     C83328   4.674   8.775   2.065  0.5220  0.4586  0.3284
  632MOL0     C83329   4.532   8.723   2.078 -0.5726 -0.0532  0.5488
  632MOL0     C83330   4.510   8.641   2.203 -0.4593 -0.5936 -0.5846
  632MOL0     C83331   4.371   8.591   2.215 -0.2102  0.9704 -0.3817
  632MOL0     C83332   4.355   8.467   2.306  0.5115  1.1631 -0.6783
  632MOL0     C83333   4.220   8.399   2.293  0.3143  0.3401 -0.1395
  632MOL0     C83334   4.207   8.291   2.394 -0.0826 -0.3051  0.1454
  632MOL0     C83335   4.127   8.173   2.347 -0.0088 -0.1483 -0.3394
  632MOL0    Cl83336   4.105   8.045   2.481  0.3473  0.5803  0.4004
  632MOL0     C83337   4.953   8.792   2.059  0.0219  0.5047 -0.6453
  632MOL0     C83338   5.090   8.807   2.044  0.0925 -0.0320  0.2074
  632MOL0     O83339   5.340   8.869   2.136  0.1892 -0.0825  0.0326
  632MOL0     C83340   5.585   8.668   1.973 -0.2198  0.4958  0.1358
  632MOL0     C83341   5.719   8.641   1.980 -0.1703  0.2716  0.4444
  632MOL0     N83342   6.414   8.820   1.815  0.0008 -0.3819  0.8926
  632MOL0     N83343   6.543   8.831   1.787 -0.4650 -0.3224 -0.2296
  632MOL0     C83344   7.709   8.445   2.328 -0.4758  0.7655 -1.0823
  632MOL0     C83345   7.824   8.435   2.407 -0.3304 -0.0107  0.0460
  632MOL0     C83346   8.221   8.499   2.544 -0.0488  0.2082  0.3590
  632MOL0     C83347   8.339   8.496   2.467 -0.8677  0.5694 -0.1599
  632MOL0     C83348   8.459   8.437   2.522 -0.1076  1.1128 -0.3114
  632MOL0     C83349   8.467   8.384   2.654  0.0392  0.3273  0.5268
  632MOL0     O83350   8.580   8.313   2.689 -0.2870 -0.3782  0.0240
  632MOL0     C83351   8.644   8.381   2.795 -0.1564 -0.7421  0.1751
  632MOL0     C83352   8.779   8.413   2.743  0.4205 -0.8555  0.2006
  632MOL0     C83353   8.855   8.520   2.819  0.1756  0.3677 -0.5205
  632MOL0     C83354   8.992   8.548   2.758 -0.0648 -0.9485 -0.4189
  632MOL0     C83355   9.032   8.688   2.805 -1.1664  0.9891  0.5470
  632MOL0     C83356   9.091   8.788   2.836 -0.3564  0.3618  0.1959
  632MOL0     C83357   8.354   8.396   2.735 -0.5353  0.3274 -0.2367
  632MOL0     C83358   8.232   8.447   2.675  0.3366 -0.1509 -0.0603
  632MOL0     H83359   7.832   8.721   2.577 -1.6878  1.4481 -0.0459
  632MOL0     H83360   7.623   8.757   2.429 -0.7370  0.5312 -1.7670
  632MOL0     H83361   7.411   8.642   2.433  3.6327  0.7442 -1.0701
  632MOL0     H83362   7.345   8.499   2.350  0.5370 -0.8098 -0.6429
  632MOL0     H83363   7.345   8.773   2.222  2.8806 -0.9878  1.1665
  632MOL0     H83364   7.206   8.702   2.301  0.0211 -0.9448  0.6618
  632MOL0     H83365   7.220   8.493   2.167 -0.9680 -0.0625 -0.6290
  632MOL0     H83366   7.336   8.567   2.062 -0.8223 -1.3330 -0.8242
  632MOL0     H83367   7.057   8.686   2.129  0.0233 -0.9424 -0.0400
  632MOL0     H83368   7.168   8.762   2.018  0.2293  0.3873 -1.4307
  632MOL0     H83369   7.032   8.486   1.992 -4.9849  0.5911 -4.0145
  632MOL0     H83370   7.180   8.521   1.902  1.8138  0.4801  1.8536
  632MOL0     H83371   6.974   8.540   1.771 -0.2092  1.4477 -2.0283
  632MOL0     H83372   7.014   8.712   1.787 -3.1846  0.7214  0.4640
  632MOL0     H83373   6.828   8.588   1.983  1.4352 -0.8631  0.0701
  632MOL0     H83374   6.897   8.752   1.974 -0.0956  0.1775 -0.2316
  632MOL0     H83375   6.763   8.625   1.736  0.4304 -0.0093 -0.3251
  632MOL0     H83376   6.811   8.792   1.756  3.8955 -0.1002  2.4682
  632MOL0     H83377   6.567   8.554   1.934  0.8070 -0.6851 -0.7127
  632MOL0     H83378   6.263   8.690   2.053 -1.2263 -2.8356  0.7000
  632MOL0     H83379   6.300   8.536   1.985  0.7332  1.0680  1.0502
  632MOL0     H83380   6.204   8.616   1.767  0.2817 -0.7650 -0.3557
  632MOL0     H83381   6.139   8.760   1.847 -0.9223 -0.3128 -2.1231
  632MOL0     H83382   5.963   8.604   1.845 -1.9809  2.1559  2.6657
  632MOL0     H83383   6.074   8.473   1.882 -2.4693 -1.3086  4.9966
  632MOL0     H83384   6.092   8.568   2.126 -0.3097  1.2087  0.7476
  632MOL0     H83385   5.932   8.519   2.085  1.1917  0.6857  3.0095
  632MOL0     H83386   5.806   8.881   2.201  1.6240  1.2132 -2.0620
  632MOL0     H83387   5.575   8.909   2.213 -0.1219 -0.1471  0.2644
  632MOL0     H83388   5.168   8.497   1.958  0.8653  2.2310 -0.8533
  632MOL0     H83389   4.931   8.463   2.007  2.2288 -0.0032 -1.6999
  632MOL0     H83390   4.676   8.823   1.967 -1.2639 -0.1896 -0.0860
  632MOL0     H83391   4.705   8.838   2.149  1.7965 -1.1173  1.1040
  632MOL0     H83392   4.507   8.664   1.989  3.3028 -0.0589 -0.7215
  632MOL0     H83393   4.462   8.808   2.085 -3.0349 -2.0154  1.2394
  632MOL0     H83394   4.537   8.703   2.289 -0.0384  1.3220 -2.0345
  632MOL0     H83395   4.581   8.558   2.203 -1.9207 -1.9456  1.5546
  632MOL0     H83396   4.306   8.670   2.253  0.4401  0.0347  3.0329
  632MOL0     H83397   4.339   8.551   2.118  1.7616 -2.4176  0.2032
  632MOL0     H83398   4.363   8.497   2.411 -0.8289 -1.7739  0.3771
  632MOL0     H83399   4.433   8.396   2.275 -1.4521 -1.0336 -0.8861
  632MOL0     H83400   4.221   8.358   2.192  1.8611 -1.8725  0.6736
  632MOL0     H83401   4.134   8.465   2.305  0.0562 -0.2605  1.6562
  632MOL0     H83402   4.310   8.258   2.411 -0.2518 -1.2101 -0.5117
  632MOL0     H83403   4.155   8.328   2.483 -1.5578 -1.5775 -0.1435
  632MOL0     H83404   4.175   8.132   2.258 -0.5055  1.8724 -1.5949
  632MOL0     H83405   4.031   8.213   2.314  1.8328  3.8139 -1.4770
  632MOL0     H83406   4.904   8.884   2.093 -2.1167 -0.5254 -0.7578
  632MOL0     H83407   5.114   8.913   2.049 -1.3492  0.4554 -1.9797
  632MOL0     H83408   5.517   8.627   1.899 -0.5463  0.6348  0.3591
  632MOL0     H83409   5.759   8.563   1.917 -4.5056 -3.2718  1.5417
  632MOL0     H83410   7.693   8.360   2.262  2.6335  1.8559 -3.5431
  632MOL0     H83411   7.871   8.337   2.407  0.2849  0.0463 -4.4644
  632MOL0     H83412   8.343   8.546   2.371 -3.4111  1.3174  0.0486
  632MOL0     H83413   8.556   8.422   2.475 -0.6272 -1.9835 -0.6045
  632MOL0     H83414   8.655   8.317   2.884 -2.5817 -3.0396 -1.0114
  632MOL0     H83415   8.597   8.473   2.831 -1.5230 -2.0974  2.0655
  632MOL0     H83416   8.840   8.324   2.761  3.2312  1.0973  0.9750
  632MOL0     H83417   8.782   8.445   2.638 -1.8218  2.6383  1.0004
  632MOL0     H83418   8.861   8.489   2.924 -0.6516 -0.5831 -0.7384
  632MOL0     H83419   8.794   8.611   2.819 -1.7289 -0.6919  3.2999
  632MOL0     H83420   9.072   8.480   2.790  1.1221  0.9647  0.9970
  632MOL0     H83421   8.987   8.542   2.649  0.3368  0.2890 -0.5260
  632MOL0     H83422   9.156   8.866   2.869  0.8041 -0.7758  0.6871
  632MOL0     H83423   8.353   8.356   2.836  0.7940  1.8798  0.4388
  632MOL0     H83424   8.138   8.438   2.729  0.2244 -1.6193 -0.4329
  633MOL0     O83425   4.244   7.012   6.599  0.1634  0.7149 -0.6083
  633MOL0     C83426   4.280   6.918   6.521  0.6364  0.1984 -0.9807
  633MOL0     O83427   4.195   6.837   6.453 -1.0136 -0.6215  0.4599
  633MOL0     C83428   4.064   6.873   6.443  0.4185  0.4290  0.6283
  633MOL0     C83429   3.970   6.766   6.444  0.5818 -0.4236 -0.1507
  633MOL0     C83430   3.825   6.792   6.429 -0.1122  0.1430 -0.0970
  633MOL0     C83431   3.780   6.917   6.413  0.0358 -0.2911  0.0725
  633MOL0     O83432   3.651   6.961   6.397  0.7209  0.2448  0.1174
  633MOL0     C83433   3.542   6.868   6.368 -0.3159  1.0264  0.1779
  633MOL0     C83434   3.396   6.931   6.380 -0.9835  0.2893  0.8749
  633MOL0     C83435   3.299   6.818   6.355  0.4668  0.9763  0.2871
  633MOL0     C83436   3.157   6.864   6.323  0.5382  0.3438  0.6388
  633MOL0     C83437   3.053   6.764   6.381  0.3781 -0.4840  0.2032
  633MOL0     C83438   2.912   6.809   6.363  0.3947 -1.1420 -0.6320
  633MOL0     C83439   2.823   6.691   6.390  0.0203 -0.2987 -1.2172
  633MOL0     C83440   2.685   6.735   6.428  0.2240 -0.1288 -0.0197
  633MOL0     N83441   2.602   6.615   6.413  0.1302  0.6487 -0.8596
  633MOL0     C83442   2.570   6.572   6.292 -0.2398  0.2505 -0.1760
  633MOL0     C83443   2.486   6.472   6.294 -0.0735 -0.0268 -0.6769
  633MOL0     C83444   2.423   6.399   6.180 -0.0360 -0.7096 -0.9757
  633MOL0     C83445   2.262   6.402   6.181 -1.3869 -0.6006  0.3450
  633MOL0     C83446   2.212   6.457   6.052  0.6434  0.3449  0.1426
  633MOL0     C83447   2.057   6.444   6.043 -1.1712  0.3767 -0.0234
  633MOL0     O83448   2.035   6.537   5.947  0.1190  0.0246 -0.3659
  633MOL0     C83449   1.912   6.538   5.888  0.7014 -0.1062 -0.3013
  633MOL0     C83450   1.905   6.602   5.769  0.0101 -0.2080  0.3858
  633MOL0     C83451   1.788   6.598   5.689  0.2364 -0.3451  1.4012
  633MOL0     C83452   1.673   6.531   5.723 -0.1071 -0.5223  0.2362
  633MOL0     C83453   1.564   6.507   5.626 -0.3008  0.4246 -0.5232
  633MOL0     O83454   1.480   6.404   5.663 -0.1619 -0.0287 -0.4311
  633MOL0     C83455   1.362   6.384   5.603  0.9408 -0.3926  0.3731
  633MOL0     C83456   1.349   6.362   5.465  0.3215 -0.0228 -0.8450
  633MOL0     C83457   1.219   6.353   5.409 -0.0060 -0.5825  0.0850
  633MOL0     C83458   1.106   6.367   5.484  0.8066  0.6503 -0.2673
  633MOL0     O83459   0.987   6.336   5.426 -0.0300  0.5173 -0.2888
  633MOL0     C83460   0.867   6.396   5.488  0.7479 -0.0841 -0.2036
  633MOL0     C83461   0.765   6.432   5.382  0.4978 -0.4162 -0.8189
  633MOL0     C83462   0.732   6.299   5.306 -0.2311  0.0153 -0.0998
  633MOL0     C83463   0.643   6.329   5.192  0.0869  1.0308  0.6807
  633MOL0     C83464   0.509   6.394   5.228  0.7582 -0.2180  0.0389
  633MOL0     C83465   0.422   6.297   5.316  0.8897 -0.3816  0.3492
  633MOL0     C83466   0.285   6.346   5.336 -1.3763  0.7905  0.3945
  633MOL0     C83467   0.209   6.256   5.426  0.0203 -0.7444  0.0149
  633MOL0    Cl83468   0.099   6.165   5.329 -0.1180 -0.1943  0.6364
  633MOL0     C83469   1.119   6.383   5.623 -0.2748 -0.1440  0.1824
  633MOL0     C83470   1.248   6.399   5.684 -0.1161  0.1049 -0.3346
  633MOL0     O83471   1.553   6.581   5.530  0.2089 -0.0599  0.0269
  633MOL0     C83472   1.687   6.473   5.852  1.4425  0.5399 -0.2478
  633MOL0     C83473   1.795   6.478   5.932  0.4604 -0.8395 -0.3929
  633MOL0     N83474   2.458   6.459   6.430 -1.0493 -0.1979 -0.2539
  633MOL0     N83475   2.535   6.539   6.498  0.2855 -0.7818 -0.0836
  633MOL0     C83476   3.876   7.025   6.411 -0.0729 -0.3273 -0.5601
  633MOL0     C83477   4.017   7.005   6.419 -0.2989 -0.8379  0.7154
  633MOL0     C83478   4.426   6.898   6.499 -0.1101  0.0386  0.4189
  633MOL0     C83479   4.472   6.797   6.411  0.6901  0.4756 -0.4161
  633MOL0     C83480   4.607   6.773   6.391 -0.1005 -0.0217 -0.3160
  633MOL0     C83481   4.708   6.851   6.456 -0.4822 -0.1427 -0.1250
  633MOL0     O83482   4.836   6.809   6.422  0.3699  0.6211 -0.0256
  633MOL0     C83483   4.933   6.899   6.464 -0.2261  0.2329 -0.8795
  633MOL0     C83484   5.066   6.849   6.420  0.3127 -0.4272 -0.1235
  633MOL0     C83485   5.180   6.949   6.447 -0.1742 -0.3773  0.4104
  633MOL0     C83486   5.302   6.912   6.368  0.7532 -0.6255 -0.7991
  633MOL0     C83487   5.367   6.786   6.417 -0.3214  0.5864  0.1917
  633MOL0     C83488   5.416   6.687   6.469 -0.6165 -0.8315  0.4416
  633MOL0     C83489   4.668   6.951   6.552 -0.2577  0.1784  0.9828
  633MOL0     C83490   4.530   6.973   6.566  0.2990 -1.0548  0.3056
  633MOL0     H83491   4.008   6.664   6.445  1.6724 -0.0695 -1.9062
  633MOL0     H83492   3.766   6.702   6.442 -0.1378  0.1448 -0.1963
  633MOL0     H83493   3.562   6.793   6.445  1.8104  1.4485  0.1000
  633MOL0     H83494   3.560   6.822   6.270 -1.4467 -0.2916  0.5466
  633MOL0     H83495   3.382   7.019   6.316  0.7089 -1.3412 -1.9417
  633MOL0     H83496   3.389   6.963   6.484  0.3419  0.4294  0.9367
  633MOL0     H83497   3.292   6.749   6.439 -1.1649  2.2073  1.2120
  633MOL0     H83498   3.324   6.755   6.269 -1.8528 -0.1144  0.3349
  633MOL0     H83499   3.138   6.957   6.379  0.0866 -0.8709  2.6226
  633MOL0     H83500   3.143   6.886   6.217 -2.2885 -0.5949  0.7362
  633MOL0     H83501   3.083   6.747   6.485 -2.4153 -0.6596  1.0624
  633MOL0     H83502   3.065   6.677   6.316  1.7505  1.7290 -2.7527
  633MOL0     H83503   2.907   6.847   6.260  1.4183 -2.9471 -1.3909
  633MOL0     H83504   2.895   6.887   6.437  3.0347  1.4186 -2.4923
  633MOL0     H83505   2.825   6.632   6.298  2.6365  1.0498 -2.1202
  633MOL0     H83506   2.868   6.627   6.468 -1.6116  0.9155  0.8139
  633MOL0     H83507   2.655   6.803   6.348 -0.6193 -2.0957 -1.4508
  633MOL0     H83508   2.684   6.789   6.523 -1.1456 -1.5559  0.8204
  633MOL0     H83509   2.603   6.616   6.198 -1.6033  0.6319 -0.5050
  633MOL0     H83510   2.460   6.297   6.193  0.1931 -0.4501  0.6203
  633MOL0     H83511   2.464   6.432   6.084  0.9894  2.0358  0.2907
  633MOL0     H83512   2.246   6.477   6.258 -0.1279 -0.4654  0.5062
  633MOL0     H83513   2.216   6.304   6.195 -0.3043 -1.1314  0.3194
  633MOL0     H83514   2.242   6.561   6.039  1.4967  0.1208  0.2528
  633MOL0     H83515   2.260   6.397   5.974 -2.2164  0.4445 -1.8360
  633MOL0     H83516   2.007   6.476   6.135 -2.8983 -1.7338 -0.1527
  633MOL0     H83517   2.026   6.340   6.028 -1.2560 -0.0176  2.4439
  633MOL0     H83518   2.000   6.644   5.738 -1.1256  2.6754  0.4510
  633MOL0     H83519   1.790   6.649   5.593 -1.0182 -1.8283  0.5531
  633MOL0     H83520   1.437   6.342   5.405  0.1282  0.0613 -1.1596
  633MOL0     H83521   1.204   6.336   5.303 -2.3507  3.7645 -0.4708
  633MOL0     H83522   0.886   6.486   5.548  2.0830 -0.5857  0.1507
  633MOL0     H83523   0.820   6.321   5.553  2.5259 -1.5282 -0.5109
  633MOL0     H83524   0.819   6.504   5.320  5.2041 -0.5473  2.5427
  633MOL0     H83525   0.678   6.466   5.438  1.9929  2.4117  0.0046
  633MOL0     H83526   0.683   6.227   5.373 -2.3172  2.1252  0.7911
  633MOL0     H83527   0.825   6.247   5.279  0.7384  1.6204  0.0091
  633MOL0     H83528   0.701   6.386   5.119  1.2821 -0.4002  0.4518
  633MOL0     H83529   0.639   6.224   5.160  1.4491  1.0301  0.4640
  633MOL0     H83530   0.457   6.405   5.133  0.3835  2.1003  0.4633
  633MOL0     H83531   0.523   6.495   5.267  0.7238 -0.2341  0.0934
  633MOL0     H83532   0.472   6.292   5.413 -2.3598  0.1116  2.1720
  633MOL0     H83533   0.419   6.196   5.275 -3.8070 -0.3396  0.1489
  633MOL0     H83534   0.299   6.445   5.379 -0.0778 -0.0420  2.0085
  633MOL0     H83535   0.229   6.358   5.243 -0.7954  1.8598  0.1725
  633MOL0     H83536   0.154   6.330   5.486  0.2415  1.9613 -2.8665
  633MOL0     H83537   0.269   6.192   5.492 -0.2177  0.2805  1.2727
  633MOL0     H83538   1.031   6.399   5.684 -0.1564  1.4046 -0.0136
  633MOL0     H83539   1.252   6.405   5.792 -0.1927 -0.2840 -0.3086
  633MOL0     H83540   1.610   6.407   5.890 -0.8030  0.6701 -4.0521
  633MOL0     H83541   1.800   6.429   6.028 -0.8041 -1.5292 -0.6536
  633MOL0     H83542   3.845   7.129   6.405 -0.9054 -0.4051  1.5746
  633MOL0     H83543   4.086   7.088   6.408 -2.0469  0.4627 -1.0053
  633MOL0     H83544   4.403   6.746   6.344  0.2914  1.0083 -0.4168
  633MOL0     H83545   4.639   6.694   6.324 -1.1642 -1.3409  0.6814
  633MOL0     H83546   4.930   6.909   6.573  1.9134 -0.5298 -0.7021
  633MOL0     H83547   4.911   7.000   6.429  1.1789  1.5789  1.7877
  633MOL0     H83548   5.070   6.750   6.466 -5.0561 -0.2564  1.3948
  633MOL0     H83549   5.068   6.829   6.313  0.3728 -1.5862  0.0836
  633MOL0     H83550   5.205   6.956   6.553 -0.1308 -0.7577  0.4250
  633MOL0     H83551   5.147   7.048   6.416  2.0360 -0.6263 -3.2586
  633MOL0     H83552   5.276   6.888   6.265 -0.2538 -0.3392 -0.6193
  633MOL0     H83553   5.369   6.999   6.372 -1.6705  1.3668  2.7514
  633MOL0     H83554   5.467   6.604   6.514 -1.2482 -0.6564  1.5320
  633MOL0     H83555   4.734   7.012   6.611  1.2982 -1.3284  0.8845
  633MOL0     H83556   4.499   7.050   6.636  2.3462  1.1360 -1.0497
  634MOL0     O83557   7.028  11.062  10.797 -0.8415  0.2684 -0.2071
  634MOL0     C83558   7.135  11.093  10.853  0.5840 -0.2380 -0.2297
  634MOL0     O83559   7.188  11.030  10.961  0.4092 -0.4093 -0.1257
  634MOL0     C83560   7.122  10.930  11.029 -0.7321 -0.8579  0.3898
  634MOL0     C83561   7.133  10.920  11.165  0.3126  0.4307 -0.9929
  634MOL0     C83562   7.046  10.832  11.234  0.1255 -1.5070 -0.0101
  634MOL0     C83563   6.960  10.743  11.158 -0.2420 -0.1789 -1.2453
  634MOL0     O83564   6.869  10.665  11.224 -0.1730  0.2609 -0.2914
  634MOL0     C83565   6.737  10.663  11.171 -0.2359 -0.2784  0.3788
  634MOL0     C83566   6.634  10.614  11.277 -0.1520 -0.1137 -0.4260
  634MOL0     C83567   6.502  10.558  11.213 -0.5267  0.1924  0.2735
  634MOL0     C83568   6.382  10.573  11.305 -0.6881  0.1280 -0.1653
  634MOL0     C83569   6.256  10.578  11.220 -0.2278 -0.2843 -0.2173
  634MOL0     C83570   6.130  10.569  11.307 -0.0570  0.4745  0.1734
  634MOL0     C83571   6.003  10.549  11.222 -0.1634 -0.2424  0.6488
  634MOL0     C83572   5.949  10.672  11.152 -0.1662 -0.1259  0.1989
  634MOL0     N83573   5.842  10.725  11.235 -0.4997  0.5451  0.0940
  634MOL0     C83574   5.859  10.794  11.350 -0.0146 -0.2807 -0.6469
  634MOL0     C83575   5.741  10.792  11.408  0.6061  0.2413  0.2078
  634MOL0     C83576   5.731  10.823  11.550 -0.4230 -0.6745  0.6335
  634MOL0     C83577   5.583  10.868  11.575 -0.1005 -0.0780 -0.2431
  634MOL0     C83578   5.519  10.974  11.484  0.0037  0.6728 -0.2519
  634MOL0     C83579   5.390  11.043  11.541  0.4478 -0.5599  1.0429
  634MOL0     O83580   5.294  10.942  11.593  0.2539  0.1713 -0.1781
  634MOL0     C83581   5.231  10.985  11.703  0.4594  0.3085 -0.1596
  634MOL0     C83582   5.103  11.042  11.696 -0.8319  0.1283  0.4466
  634MOL0     C83583   5.039  11.093  11.808 -0.5037 -0.3887  0.1689
  634MOL0     C83584   5.101  11.080  11.935 -0.1711  0.4818 -0.3365
  634MOL0     C83585   5.043  11.130  12.063 -1.1904  0.7499 -0.2119
  634MOL0     O83586   4.918  11.187  12.051  0.2742  0.8712 -0.4282
  634MOL0     C83587   4.823  11.172  12.148  0.0298 -0.0771  0.3244
  634MOL0     C83588   4.821  11.080  12.252  1.1963  0.2056 -0.2815
  634MOL0     C83589   4.705  11.063  12.331 -0.0174 -0.0327 -0.1868
  634MOL0     C83590   4.600  11.151  12.311 -0.2605 -0.0005  0.1975
  634MOL0     O83591   4.488  11.127  12.384 -0.7061 -0.2429  0.1259
  634MOL0     C83592   4.507  11.147  12.526  0.1356  0.6308 -0.6989
  634MOL0     C83593   4.377  11.142  12.610  0.0839 -0.0968  0.3458
  634MOL0     C83594   4.290  11.263  12.584 -0.3102 -0.1426  0.4810
  634MOL0     C83595   4.145  11.236  12.639  0.6681 -0.7558  0.0654
  634MOL0     C83596   4.052  11.348  12.586  0.8040  0.0378  0.1531
  634MOL0     C83597   3.917  11.351  12.650 -1.1615  0.2941 -1.7846
  634MOL0     C83598   3.831  11.459  12.590  0.0414 -0.7548  0.1213
  634MOL0     C83599   3.689  11.455  12.656 -0.3492  0.5419  0.0730
  634MOL0    Cl83600   3.669  11.379  12.814  0.1313  0.0718 -0.1051
  634MOL0     C83601   4.605  11.245  12.212  0.6416  0.1642 -0.9116
  634MOL0     C83602   4.709  11.250  12.126 -0.4515  0.8657  0.1853
  634MOL0     O83603   5.110  11.102  12.170 -0.3145  0.7878 -0.5132
  634MOL0     C83604   5.232  11.020  11.942  0.4129 -0.1383 -0.1279
  634MOL0     C83605   5.289  10.971  11.828  0.4406 -0.2310 -0.8278
  634MOL0     N83606   5.654  10.721  11.328  0.2904  0.6476  0.1078
  634MOL0     N83607   5.713  10.684  11.220  0.5065 -0.6874 -0.1085
  634MOL0     C83608   6.974  10.735  11.021  0.0077 -0.1799  0.0014
  634MOL0     C83609   7.053  10.823  10.957 -0.4268  0.0736  0.4260
  634MOL0     C83610   7.197  11.221  10.808 -0.0799  0.1290  0.0190
  634MOL0     C83611   7.129  11.339  10.765 -0.2063 -0.1391 -0.6670
  634MOL0     C83612   7.194  11.464  10.761 -0.1319 -0.2570 -0.2910
  634MOL0     C83613   7.330  11.476  10.768  0.9165  0.3110  0.4538
  634MOL0     O83614   7.392  11.601  10.758  0.5399 -0.3198  0.1091
  634MOL0     C83615   7.535  11.616  10.744 -0.0553 -0.3569 -0.1305
  634MOL0     C83616   7.584  11.603  10.604  0.5343 -0.3875  0.3498
  634MOL0     C83617   7.735  11.616  10.588 -0.3068 -0.1950 -0.7473
  634MOL0     C83618   7.794  11.757  10.569 -0.2893  0.2114 -0.6544
  634MOL0     C83619   7.788  11.842  10.686 -0.2218 -1.0537 -0.2400
  634MOL0     C83620   7.784  11.909  10.792 -0.7548  0.3667 -0.2891
  634MOL0     C83621   7.397  11.363  10.799 -0.7724 -0.4030 -0.2797
  634MOL0     C83622   7.339  11.236  10.806  0.5845  0.2555 -0.3483
  634MOL0     H83623   7.203  10.978  11.224 -0.5134  0.9929 -0.5406
  634MOL0     H83624   7.045  10.822  11.342  2.2857 -0.0206  0.2084
  634MOL0     H83625   6.754  10.589  11.092  0.3449  1.1016 -0.8316
  634MOL0     H83626   6.716  10.760  11.125  0.9936  0.7767  1.9687
  634MOL0     H83627   6.611  10.704  11.334  0.3829 -0.5475  0.5005
  634MOL0     H83628   6.685  10.540  11.339 -0.3268 -0.1457 -0.3215
  634MOL0     H83629   6.515  10.451  11.193  0.1218 -0.0647  1.8831
  634MOL0     H83630   6.483  10.616  11.123  0.6583 -3.4217 -2.5259
  634MOL0     H83631   6.386  10.496  11.382 -0.2084 -0.5172 -0.8329
  634MOL0     H83632   6.387  10.671  11.353 -0.3633 -0.4727  1.0555
  634MOL0     H83633   6.261  10.487  11.160  0.4132 -0.9468  0.8095
  634MOL0     H83634   6.256  10.672  11.163 -0.9287  1.2151  2.1474
  634MOL0     H83635   6.113  10.658  11.367  0.7578  1.4210 -0.9495
  634MOL0     H83636   6.157  10.495  11.382  0.1023 -1.7106 -1.9117
  634MOL0     H83637   6.034  10.468  11.155  1.7190 -0.1040  1.3152
  634MOL0     H83638   5.929  10.509  11.291  1.7706 -2.1634  1.7113
  634MOL0     H83639   5.900  10.636  11.061 -1.2248 -1.0624  1.1099
  634MOL0     H83640   6.031  10.742  11.134  0.5798 -1.5273 -2.3453
  634MOL0     H83641   5.953  10.824  11.396  0.5128 -2.6980  0.0105
  634MOL0     H83642   5.785  10.914  11.578  0.4787 -1.2631  0.8576
  634MOL0     H83643   5.769  10.739  11.609  2.0277  0.3248  0.6043
  634MOL0     H83644   5.580  10.897  11.680  0.9081 -1.2482  0.1364
  634MOL0     H83645   5.523  10.778  11.558 -0.5248  0.5813 -2.7463
  634MOL0     H83646   5.600  11.043  11.460  0.2906  0.2407 -0.5254
  634MOL0     H83647   5.471  10.927  11.398  0.8183  2.0093 -1.4793
  634MOL0     H83648   5.340  11.097  11.460  2.0008 -1.2358 -0.4211
  634MOL0     H83649   5.419  11.104  11.627  0.5854 -0.3808  0.8675
  634MOL0     H83650   5.081  11.058  11.591  1.1050 -1.0648 -0.1910
  634MOL0     H83651   4.947  11.149  11.804  1.4668  3.1297  0.3293
  634MOL0     H83652   4.907  11.016  12.269  1.5816  0.7125 -0.2933
  634MOL0     H83653   4.696  10.999  12.418 -1.8686 -1.7261 -1.5458
  634MOL0     H83654   4.558  11.242  12.544  1.0750  0.3232 -1.6444
  634MOL0     H83655   4.570  11.073  12.577  1.2139  0.8591 -1.6719
  634MOL0     H83656   4.399  11.126  12.716 -0.8442 -1.6957  0.3258
  634MOL0     H83657   4.316  11.055  12.584 -0.5327 -0.6011  3.1610
  634MOL0     H83658   4.284  11.270  12.475  2.2521  0.0665  0.2867
  634MOL0     H83659   4.333  11.357  12.620  0.7708 -1.8072  4.0024
  634MOL0     H83660   4.104  11.135  12.630  1.7823 -1.4248  1.8373
  634MOL0     H83661   4.153  11.248  12.748 -0.3941 -4.6063  0.6997
  634MOL0     H83662   4.036  11.322  12.481 -1.2502 -2.5180  1.0014
  634MOL0     H83663   4.098  11.447  12.591  0.6922  0.1113 -0.2159
  634MOL0     H83664   3.932  11.367  12.757  0.1545  0.3703 -1.9634
  634MOL0     H83665   3.884  11.247  12.643  1.7231 -0.8459 -0.1681
  634MOL0     H83666   3.877  11.553  12.620 -1.1269 -0.3428  0.6950
  634MOL0     H83667   3.815  11.445  12.483 -0.7068 -0.1999  0.1507
  634MOL0     H83668   3.635  11.396  12.582  0.7128  1.8383 -1.8229
  634MOL0     H83669   3.647  11.556  12.652  1.3650  1.3562  1.0883
  634MOL0     H83670   4.519  11.311  12.211  0.1171  0.0838  5.0785
  634MOL0     H83671   4.712  11.312  12.037  4.4471  0.7303  0.0204
  634MOL0     H83672   5.290  11.018  12.034  0.1843  1.6382  0.0892
  634MOL0     H83673   5.388  10.928  11.838  0.3681 -0.1427  0.3949
  634MOL0     H83674   6.914  10.661  10.968 -0.6307  1.1461 -1.1906
  634MOL0     H83675   7.077  10.809  10.852  0.6450  1.3790  0.4596
  634MOL0     H83676   7.022  11.333  10.746 -0.8602  0.4128  2.2681
  634MOL0     H83677   7.132  11.543  10.719  0.0271  0.1361  0.2165
  634MOL0     H83678   7.593  11.557  10.815  0.2168  1.3243  1.1240
  634MOL0     H83679   7.545  11.721  10.775  0.1031 -1.2516  3.2762
  634MOL0     H83680   7.553  11.509  10.558  2.4452 -1.4139  1.0353
  634MOL0     H83681   7.541  11.694  10.561  2.8274  0.4645 -0.3198
  634MOL0     H83682   7.760  11.559  10.499 -1.5803 -2.3993  0.2300
  634MOL0     H83683   7.790  11.568  10.669 -0.5984  1.5109  0.5434
  634MOL0     H83684   7.896  11.740  10.533  1.3982 -0.7092  3.9732
  634MOL0     H83685   7.741  11.801  10.484 -2.5285  1.0135  1.0712
  634MOL0     H83686   7.792  11.953  10.889  1.2883  1.9528 -1.1095
  634MOL0     H83687   7.504  11.361  10.817 -0.5430 -2.2519 -1.5978
  634MOL0     H83688   7.384  11.145  10.845 -4.3131 -1.2073  2.8795
  635MOL0     O83689   2.014   1.892   3.275 -0.9247 -0.3871 -0.4301
  635MOL0     C83690   1.997   2.005   3.297  0.5285 -0.8122  1.4717
  635MOL0     O83691   1.875   2.070   3.326  0.8910  0.4128  0.2405
  635MOL0     C83692   1.757   1.987   3.291 -0.2994  0.3050 -0.2226
  635MOL0     C83693   1.647   1.998   3.365  0.4721  0.1425 -0.9067
  635MOL0     C83694   1.523   1.931   3.332 -0.1920 -0.7517  0.0987
  635MOL0     C83695   1.517   1.855   3.218  0.0514  0.2836  0.2332
  635MOL0     O83696   1.397   1.797   3.178 -0.4179 -0.2404  0.2987
  635MOL0     C83697   1.279   1.869   3.210 -0.2373  0.4340 -0.3801
  635MOL0     C83698   1.161   1.822   3.133 -0.5150  0.4602 -0.0073
  635MOL0     C83699   1.024   1.903   3.143  0.3844  0.0612 -0.1299
  635MOL0     C83700   0.926   1.846   3.038  1.2234 -0.7106  0.5627
  635MOL0     C83701   0.791   1.923   3.040 -0.5489  0.1754 -0.6118
  635MOL0     C83702   0.683   1.872   2.941  0.3241  0.2222 -0.7524
  635MOL0     C83703   0.540   1.943   2.967 -0.3170 -0.1472  0.2162
  635MOL0     C83704   0.426   1.878   2.890 -0.1440 -0.2586 -0.0941
  635MOL0     N83705   0.300   1.951   2.916  0.1269  0.1651  0.5951
  635MOL0     C83706   0.205   1.997   2.826 -0.5291 -0.7848  0.4556
  635MOL0     C83707   0.108   2.058   2.896 -0.0013 -0.0185 -0.6003
  635MOL0     C83708  -0.014   2.119   2.829  0.2753 -0.0715 -0.1619
  635MOL0     C83709  -0.114   2.016   2.776 -0.0274  0.4989  0.7057
  635MOL0     C83710  -0.228   2.085   2.693 -0.0173  0.1721  1.4196
  635MOL0     C83711  -0.310   1.988   2.605 -0.5884  0.3301 -0.4096
  635MOL0     O83712  -0.235   1.930   2.500  0.5858  0.3910  0.2354
  635MOL0     C83713  -0.300   1.892   2.382 -0.1914  0.1409 -1.0130
  635MOL0     C83714  -0.215   1.851   2.281 -1.1144  0.5527  0.4597
  635MOL0     C83715  -0.260   1.809   2.156  1.0909  0.7055  0.3282
  635MOL0     C83716  -0.395   1.823   2.128  0.4535  0.7013 -0.8149
  635MOL0     C83717  -0.457   1.773   2.001  0.2352 -0.0731 -0.1639
  635MOL0     O83718  -0.366   1.727   1.910 -0.0934  0.3255  0.0543
  635MOL0     C83719  -0.402   1.751   1.778 -0.0952 -0.1575  0.5397
  635MOL0     C83720  -0.472   1.859   1.732 -0.2512 -0.7300  0.3700
  635MOL0     C83721  -0.511   1.875   1.600  0.2159 -0.0323  0.6809
  635MOL0     C83722  -0.467   1.793   1.503  0.2606 -0.4763  0.6461
  635MOL0     O83723  -0.499   1.820   1.370  0.0777  0.5538  0.9894
  635MOL0     C83724  -0.575   1.709   1.305 -0.3547 -0.5942  0.0265
  635MOL0     C83725  -0.585   1.734   1.159  0.5722  0.4884 -0.3588
  635MOL0     C83726  -0.664   1.607   1.098  0.2365 -0.2901 -0.1038
  635MOL0     C83727  -0.718   1.645   0.961  0.6615  0.5219  1.4091
  635MOL0     C83728  -0.797   1.525   0.892  0.2344  0.5300 -0.0394
  635MOL0     C83729  -0.924   1.575   0.813  0.1251 -0.2006  0.3324
  635MOL0     C83730  -0.889   1.644   0.678  0.1265 -0.1096 -0.1672
  635MOL0     C83731  -1.010   1.697   0.601  0.2762 -0.0323 -0.5816
  635MOL0    Cl83732  -1.088   1.820   0.705 -0.0729  0.3926 -0.2218
  635MOL0     C83733  -0.395   1.681   1.545 -0.4397 -0.8639  0.1936
  635MOL0     C83734  -0.356   1.664   1.679  0.6694 -0.1109 -0.0213
  635MOL0     O83735  -0.581   1.780   1.990  0.4757  0.5618 -0.2942
  635MOL0     C83736  -0.483   1.874   2.230 -0.6795 -0.3000 -0.4554
  635MOL0     C83737  -0.433   1.901   2.353 -0.0339 -0.5839  0.0332
  635MOL0     N83738   0.153   2.062   3.031 -0.2978  0.3438  0.3282
  635MOL0     N83739   0.253   1.982   3.038 -0.0351  0.4805  0.3490
  635MOL0     C83740   1.623   1.848   3.137 -0.0720 -0.2369  0.0889
  635MOL0     C83741   1.734   1.919   3.175 -0.9796  0.5107  0.0187
  635MOL0     C83742   2.120   2.078   3.314  0.5065 -0.6016 -0.1026
  635MOL0     C83743   2.130   2.189   3.411 -0.2515  0.3069  0.1099
  635MOL0     C83744   2.259   2.250   3.431  0.5382  0.0556 -1.0258
  635MOL0     C83745   2.370   2.198   3.363 -0.0424 -0.3817 -0.1776
  635MOL0     O83746   2.492   2.271   3.365 -0.0252  0.9318 -0.5690
  635MOL0     C83747   2.503   2.396   3.431  0.0904  0.6248  0.9888
  635MOL0     C83748   2.647   2.452   3.426 -0.7110 -0.4545  0.3467
  635MOL0     C83749   2.751   2.360   3.502 -0.3676  0.0871 -0.4651
  635MOL0     C83750   2.894   2.396   3.455  0.1488 -0.7819  0.5967
  635MOL0     C83751   3.001   2.313   3.509 -0.2053  0.2931  0.8896
  635MOL0     C83752   3.092   2.238   3.546  0.1925  0.1771  0.1810
  635MOL0     C83753   2.359   2.086   3.285  0.0190  0.2791 -1.6894
  635MOL0     C83754   2.237   2.026   3.259 -0.5247  0.9100 -0.4744
  635MOL0     H83755   1.651   2.054   3.458  2.5608 -1.5956  0.1284
  635MOL0     H83756   1.443   1.932   3.404  0.5230 -0.7464  0.9054
  635MOL0     H83757   1.294   1.973   3.181  2.2681  0.1328 -0.3609
  635MOL0     H83758   1.245   1.872   3.314 -0.2617  1.8700 -0.4127
  635MOL0     H83759   1.148   1.719   3.166  2.4939 -0.0393 -0.1064
  635MOL0     H83760   1.191   1.826   3.028 -1.0634  0.3437 -0.1688
  635MOL0     H83761   1.038   2.011   3.130  0.8250  0.0883  0.4937
  635MOL0     H83762   0.985   1.880   3.243 -1.4682  3.0473 -0.0179
  635MOL0     H83763   0.952   1.845   2.932 -4.0587  4.1216 -1.3258
  635MOL0     H83764   0.900   1.745   3.071 -0.0529  0.3462  3.0658
  635MOL0     H83765   0.797   2.032   3.026 -2.2067  0.3869  0.0534
  635MOL0     H83766   0.748   1.912   3.140 -0.6584 -1.7077 -0.8395
  635MOL0     H83767   0.669   1.765   2.960  1.0011  0.1839 -0.4319
  635MOL0     H83768   0.716   1.885   2.838  1.1558  0.7520 -0.4262
  635MOL0     H83769   0.510   1.937   3.072 -4.1797 -2.1608 -0.8188
  635MOL0     H83770   0.543   2.049   2.940  4.3892 -0.3856 -1.2236
  635MOL0     H83771   0.423   1.778   2.935 -1.9228  0.5029  1.6405
  635MOL0     H83772   0.447   1.865   2.784  4.4572  5.7044 -0.4607
  635MOL0     H83773   0.210   1.977   2.719 -1.8612  0.8785  0.0324
  635MOL0     H83774   0.016   2.182   2.745  1.9374  0.6109  0.8813
  635MOL0     H83775  -0.068   2.178   2.904  1.1623 -0.6951  1.0028
  635MOL0     H83776  -0.158   1.940   2.841 -1.0918  1.8386  1.6032
  635MOL0     H83777  -0.047   1.959   2.711 -0.4889 -0.8096  1.3343
  635MOL0     H83778  -0.302   2.141   2.750 -0.0535  3.7447 -1.7212
  635MOL0     H83779  -0.182   2.147   2.615 -0.1853 -0.2723  0.9588
  635MOL0     H83780  -0.396   2.041   2.563 -0.6341 -1.3395 -2.5676
  635MOL0     H83781  -0.336   1.909   2.676 -0.8307 -0.8303 -1.7605
  635MOL0     H83782  -0.108   1.858   2.298 -1.2147  1.2250  0.8381
  635MOL0     H83783  -0.195   1.763   2.082  1.1846  0.6547  0.4423
  635MOL0     H83784  -0.518   1.929   1.801  1.0555 -0.5248  1.0690
  635MOL0     H83785  -0.586   1.948   1.570 -1.6665 -1.7708  0.9555
  635MOL0     H83786  -0.672   1.711   1.356 -0.3204  0.1645  0.0811
  635MOL0     H83787  -0.529   1.611   1.320 -2.1035 -1.5051 -0.3487
  635MOL0     H83788  -0.485   1.740   1.115  2.7399 -1.3766  3.7275
  635MOL0     H83789  -0.642   1.825   1.139 -0.7963 -0.7403 -2.4766
  635MOL0     H83790  -0.751   1.581   1.159 -0.7526  1.6641 -0.6150
  635MOL0     H83791  -0.592   1.525   1.093  1.5960  0.9138 -0.9810
  635MOL0     H83792  -0.788   1.728   0.975 -0.9181 -0.5900  0.4324
  635MOL0     H83793  -0.642   1.672   0.887  1.0035 -3.1389  0.2092
  635MOL0     H83794  -0.821   1.451   0.969  0.2192  0.6123  0.0349
  635MOL0     H83795  -0.723   1.483   0.823  1.9964  0.5988  1.7158
  635MOL0     H83796  -0.989   1.629   0.882 -1.7149 -1.3770 -0.4190
  635MOL0     H83797  -0.973   1.479   0.794  2.2943 -0.6468 -4.4874
  635MOL0     H83798  -0.811   1.718   0.701 -0.7334  0.5983  0.5272
  635MOL0     H83799  -0.842   1.563   0.622  0.8273  0.1405  0.0406
  635MOL0     H83800  -1.069   1.606   0.591  3.3073 -2.6011  2.4799
  635MOL0     H83801  -0.990   1.737   0.501 -0.7247  2.6661  0.2117
  635MOL0     H83802  -0.373   1.604   1.472 -3.1963 -0.7593 -0.8431
  635MOL0     H83803  -0.309   1.575   1.720 -1.5144 -1.6377 -0.6516
  635MOL0     H83804  -0.589   1.886   2.212 -1.0846 -2.8440 -0.1348
  635MOL0     H83805  -0.500   1.933   2.432  1.4510 -0.2038  1.1999
  635MOL0     H83806   1.625   1.805   3.037  0.9344  1.1057 -0.5036
  635MOL0     H83807   1.812   1.894   3.104 -1.9880  0.0591 -0.9737
  635MOL0     H83808   2.039   2.232   3.453 -0.2776  0.5624 -0.2043
  635MOL0     H83809   2.266   2.340   3.492  0.2879  0.8018 -2.0750
  635MOL0     H83810   2.473   2.397   3.536  1.6900 -0.8833  1.5070
  635MOL0     H83811   2.449   2.461   3.361  0.4006 -1.0083 -0.8685
  635MOL0     H83812   2.679   2.451   3.321  0.2557 -2.4470  0.6106
  635MOL0     H83813   2.648   2.556   3.459 -1.8510 -0.7850  1.5051
  635MOL0     H83814   2.718   2.257   3.487 -2.2073  0.3259  1.4591
  635MOL0     H83815   2.743   2.374   3.610  0.7177  1.9250 -0.5829
  635MOL0     H83816   2.897   2.381   3.347 -3.2871 -0.0022  0.2924
  635MOL0     H83817   2.894   2.503   3.477 -2.4652 -0.8237  1.1109
  635MOL0     H83818   3.175   2.180   3.581  0.8553 -0.8741 -2.8015
  635MOL0     H83819   2.447   2.063   3.228 -0.2397  1.8761 -2.8098
  635MOL0     H83820   2.239   1.936   3.198  1.9044  0.3682  0.2609
  636MOL0     O83821   0.241   8.254   2.930 -0.2242 -0.2467 -0.4985
  636MOL0     C83822   0.269   8.169   2.841  0.4238 -0.1363  0.8562
  636MOL0     O83823   0.172   8.096   2.764 -0.0028 -0.2175 -0.4384
  636MOL0     C83824   0.036   8.120   2.787  0.4781 -0.0366 -0.3463
  636MOL0     C83825  -0.053   8.115   2.678  0.0962 -0.0528 -0.3832
  636MOL0     C83826  -0.186   8.148   2.701  0.4920  0.9049 -0.3023
  636MOL0     C83827  -0.237   8.177   2.831  0.4393  1.1785 -0.6258
  636MOL0     O83828  -0.374   8.187   2.826  0.0609  0.4386 -0.2942
  636MOL0     C83829  -0.441   8.117   2.931  0.0300  0.2479 -0.4670
  636MOL0     C83830  -0.583   8.117   2.904  0.8336  0.5346 -0.0094
  636MOL0     C83831  -0.672   8.077   3.029  0.3024  0.2669  1.1933
  636MOL0     C83832  -0.806   8.144   3.009 -0.0928 -0.2276 -0.3337
  636MOL0     C83833  -0.915   8.074   3.094  0.1104  0.8213 -0.8587
  636MOL0     C83834  -1.045   8.143   3.067  1.0199 -0.7852  0.0386
  636MOL0     C83835  -1.159   8.094   3.153  0.4264 -0.2958  0.7613
  636MOL0     C83836  -1.274   8.200   3.156  0.3795 -0.3580  0.9125
  636MOL0     N83837  -1.398   8.145   3.222 -1.3333  0.3617  0.4479
  636MOL0     C83838  -1.445   8.018   3.212  0.2303  0.8263  0.8068
  636MOL0     C83839  -1.565   8.005   3.276  0.2895 -0.6671  0.6938
  636MOL0     C83840  -1.649   7.880   3.302 -0.1303  0.2294  0.2744
  636MOL0     C83841  -1.782   7.890   3.229  0.7020  0.4850 -0.9815
  636MOL0     C83842  -1.895   7.853   3.326  0.0937 -0.4361 -1.0812
  636MOL0     C83843  -2.031   7.835   3.263  0.1861 -0.0232  0.0611
  636MOL0     O83844  -2.037   7.707   3.202  1.1979  0.2656  0.5348
  636MOL0     C83845  -2.148   7.672   3.130  0.1279  0.7050  0.4881
  636MOL0     C83846  -2.265   7.730   3.146  0.1566  0.0734  1.3538
  636MOL0     C83847  -2.367   7.679   3.071  0.2385  0.4758  1.0502
  636MOL0     C83848  -2.362   7.569   2.977 -0.4671  0.0657 -0.1872
  636MOL0     C83849  -2.478   7.532   2.897 -0.4013  0.0608 -0.4033
  636MOL0     O83850  -2.591   7.613   2.899  0.3370 -0.3779 -0.3574
  636MOL0     C83851  -2.697   7.571   2.822  0.1602 -0.4632 -0.5446
  636MOL0     C83852  -2.738   7.651   2.715  0.2280  0.2659  0.0968
  636MOL0     C83853  -2.832   7.598   2.627  0.5211 -1.3689 -0.0223
  636MOL0     C83854  -2.911   7.486   2.656 -0.9929 -0.3957 -0.6980
  636MOL0     O83855  -2.995   7.448   2.560 -0.2259 -0.0131  0.0800
  636MOL0     C83856  -3.096   7.359   2.595 -0.1861 -0.8197  1.6528
  636MOL0     C83857  -3.199   7.341   2.488  0.0360 -1.9972  0.3923
  636MOL0     C83858  -3.327   7.261   2.538  0.2552  0.0086 -0.6533
  636MOL0     C83859  -3.442   7.255   2.432 -0.1598 -0.0115 -0.6956
  636MOL0     C83860  -3.562   7.174   2.488 -0.2029 -0.5525 -0.8226
  636MOL0     C83861  -3.673   7.161   2.391 -0.9736  1.1246  0.2645
  636MOL0     C83862  -3.798   7.126   2.471  0.2200  0.4925 -0.4194
  636MOL0     C83863  -3.897   7.067   2.371 -0.0227 -0.4715  0.3840
  636MOL0    Cl83864  -4.029   6.970   2.437 -0.4975 -0.0158  0.0455
  636MOL0     C83865  -2.873   7.410   2.764  0.0603  0.1995 -0.2477
  636MOL0     C83866  -2.772   7.451   2.849 -0.1176  0.0226 -0.1759
  636MOL0     O83867  -2.466   7.430   2.828  0.9245  0.0009 -0.3449
  636MOL0     C83868  -2.239   7.508   2.974 -0.2003 -0.0079  0.3626
  636MOL0     C83869  -2.134   7.557   3.047  0.2823 -0.0910 -1.4237
  636MOL0     N83870  -1.587   8.135   3.333 -0.6623 -0.1661  0.5614
  636MOL0     N83871  -1.484   8.213   3.302  0.5490 -0.5436  0.1931
  636MOL0     C83872  -0.148   8.178   2.941 -0.9532  0.1187  0.5846
  636MOL0     C83873  -0.017   8.147   2.915 -0.6885  1.1161 -0.0019
  636MOL0     C83874   0.407   8.165   2.786 -0.0995  0.1018  0.9688
  636MOL0     C83875   0.436   8.101   2.656 -0.4028  0.3146 -0.6777
  636MOL0     C83876   0.570   8.088   2.610 -0.1532  0.1138 -0.4619
  636MOL0     C83877   0.682   8.148   2.668  0.2225 -0.1239 -0.2269
  636MOL0     O83878   0.813   8.138   2.628  0.3403 -0.0316  0.0766
  636MOL0     C83879   0.837   8.027   2.549  0.2119 -0.3592  0.4236
  636MOL0     C83880   0.982   7.985   2.530  0.1792 -0.7086  0.2732
  636MOL0     C83881   1.023   7.909   2.659  0.5575  0.0820  0.2440
  636MOL0     C83882   1.172   7.882   2.657 -0.8736 -0.1631 -0.6159
  636MOL0     C83883   1.205   7.792   2.551 -0.2115 -0.6003  0.0090
  636MOL0     C83884   1.234   7.701   2.470 -0.0734 -0.5495  0.3345
  636MOL0     C83885   0.650   8.213   2.794 -0.3180  0.0446  1.0745
  636MOL0     C83886   0.518   8.223   2.845  0.6650  0.2910 -0.3102
  636MOL0     H83887  -0.017   8.093   2.578  2.4582 -2.2239  0.8262
  636MOL0     H83888  -0.248   8.149   2.612 -0.4329 -0.0306  0.3177
  636MOL0     H83889  -0.423   8.168   3.027  1.4781 -0.4509 -0.3420
  636MOL0     H83890  -0.409   8.013   2.932  0.6354  0.4184 -1.1222
  636MOL0     H83891  -0.606   8.057   2.815 -1.0727  0.5823  0.3975
  636MOL0     H83892  -0.602   8.222   2.878  1.1515  0.0679 -2.3553
  636MOL0     H83893  -0.627   8.111   3.122  0.3155  1.1269  0.8866
  636MOL0     H83894  -0.689   7.969   3.031  0.6694  0.2162  1.5108
  636MOL0     H83895  -0.795   8.249   3.034  0.2479 -0.1704 -0.7070
  636MOL0     H83896  -0.837   8.147   2.904 -1.2371  1.8658  0.0261
  636MOL0     H83897  -0.892   8.085   3.200 -2.3258 -3.5604  0.3588
  636MOL0     H83898  -0.914   7.969   3.063  0.1743  0.7624 -0.6609
  636MOL0     H83899  -1.088   8.123   2.968 -1.6420 -1.8663  1.3354
  636MOL0     H83900  -1.044   8.250   3.088 -4.9961 -0.6717  1.3614
  636MOL0     H83901  -1.198   8.002   3.109 -1.8095 -0.2958  2.5556
  636MOL0     H83902  -1.137   8.061   3.254 -1.1521 -0.1709  1.1689
  636MOL0     H83903  -1.304   8.227   3.054 -1.8371 -1.8367  1.1062
  636MOL0     H83904  -1.256   8.297   3.204 -0.6725 -0.1620  0.9555
  636MOL0     H83905  -1.418   7.938   3.145 -1.9740  0.5523  0.1737
  636MOL0     H83906  -1.663   7.868   3.410 -1.6678  0.4609  0.1247
  636MOL0     H83907  -1.594   7.790   3.273  2.3824  2.1650 -1.2899
  636MOL0     H83908  -1.791   7.817   3.149  3.4494 -1.0109 -0.0582
  636MOL0     H83909  -1.791   7.994   3.194  0.7886  0.5063 -0.9407
  636MOL0     H83910  -1.864   7.762   3.378 -1.3213 -0.2254  0.2079
  636MOL0     H83911  -1.890   7.938   3.394 -0.6347 -1.5920  0.4705
  636MOL0     H83912  -2.051   7.915   3.191 -1.4496 -0.4998 -0.0477
  636MOL0     H83913  -2.101   7.833   3.347 -0.7937  0.4823 -0.7198
  636MOL0     H83914  -2.283   7.808   3.220 -4.0457  0.9244 -0.2887
  636MOL0     H83915  -2.461   7.733   3.070  0.7691  1.4118  0.9552
  636MOL0     H83916  -2.690   7.743   2.683 -0.2741  0.2903 -0.5966
  636MOL0     H83917  -2.845   7.652   2.533  0.4849 -2.6920 -0.8068
  636MOL0     H83918  -3.148   7.395   2.684 -0.5423  0.3322  1.0003
  636MOL0     H83919  -3.055   7.258   2.607  0.9272 -1.0908 -2.6327
  636MOL0     H83920  -3.159   7.289   2.401 -0.2930 -0.2391 -0.8653
  636MOL0     H83921  -3.236   7.438   2.454 -0.0958 -2.2462 -0.1907
  636MOL0     H83922  -3.368   7.316   2.624 -1.0936  0.6065 -1.6388
  636MOL0     H83923  -3.298   7.158   2.562  0.1487  0.6417  2.6639
  636MOL0     H83924  -3.459   7.357   2.395  2.3518  1.2216  1.1746
  636MOL0     H83925  -3.401   7.205   2.343 -0.5519 -2.9014  0.6299
  636MOL0     H83926  -3.611   7.237   2.563 -0.7319  1.6804 -2.9379
  636MOL0     H83927  -3.522   7.081   2.529 -0.2523 -0.8190 -1.3685
  636MOL0     H83928  -3.637   7.090   2.316  1.5781  4.3716 -1.8758
  636MOL0     H83929  -3.691   7.257   2.343 -1.0247  0.6556 -0.6732
  636MOL0     H83930  -3.775   7.044   2.539 -1.7197  0.5967  0.4304
  636MOL0     H83931  -3.846   7.215   2.514  1.5920  2.5367 -2.8855
  636MOL0     H83932  -3.843   7.005   2.299 -0.8289 -1.5968  0.7244
  636MOL0     H83933  -3.947   7.148   2.317 -2.0454  0.8135  3.8681
  636MOL0     H83934  -2.914   7.312   2.789  0.8259 -0.3743 -1.1864
  636MOL0     H83935  -2.747   7.406   2.945 -1.9397  1.6381  1.1396
  636MOL0     H83936  -2.207   7.440   2.895 -0.5049  0.5864 -0.2824
  636MOL0     H83937  -2.033   7.518   3.042  0.4946 -1.0633  4.0425
  636MOL0     H83938  -0.182   8.176   3.044 -0.1634 -0.5382  0.8391
  636MOL0     H83939   0.046   8.130   3.002  0.6759  1.6236 -0.8647
  636MOL0     H83940   0.357   8.056   2.596 -0.0749 -0.7647 -0.3051
  636MOL0     H83941   0.581   8.033   2.518 -0.0961 -0.0596 -0.3514
  636MOL0     H83942   0.817   8.066   2.448  0.9334  0.4060  0.5618
  636MOL0     H83943   0.780   7.938   2.577  1.4707 -1.6571 -0.9515
  636MOL0     H83944   0.989   7.922   2.440  1.4334  0.5784 -0.5769
  636MOL0     H83945   1.042   8.075   2.513 -2.3713  0.6674 -2.2274
  636MOL0     H83946   0.966   7.817   2.672 -0.9271  0.7806 -1.0258
  636MOL0     H83947   1.000   7.975   2.743 -0.0145 -0.9543  0.9126
  636MOL0     H83948   1.223   7.978   2.646 -0.1302 -0.3974  0.6130
  636MOL0     H83949   1.199   7.837   2.753  3.5994  1.3673 -0.9362
  636MOL0     H83950   1.267   7.620   2.409 -1.7244 -1.1383  0.1514
  636MOL0     H83951   0.722   8.265   2.857 -0.5660  1.7423  0.0370
  636MOL0     H83952   0.518   8.282   2.936  4.9578  1.0401 -0.5813
  637MOL0     O83953   8.923   7.421   4.722  0.1949  0.5211  0.2496
  637MOL0     C83954   9.009   7.465   4.793  0.3061 -0.9469  0.6898
  637MOL0     O83955   8.997   7.486   4.923  0.0199 -0.5223  0.4630
  637MOL0     C83956   8.920   7.403   5.001  0.0987 -0.0602 -0.7165
  637MOL0     C83957   8.880   7.459   5.119 -0.9998 -0.3927  0.4729
  637MOL0     C83958   8.788   7.392   5.198  0.0075  0.3487 -0.4199
  637MOL0     C83959   8.740   7.263   5.161  0.0008  0.0932 -0.2745
  637MOL0     O83960   8.642   7.195   5.237  0.1529 -0.0977 -0.1288
  637MOL0     C83961   8.593   7.253   5.359  0.2538 -0.0695 -0.2661
  637MOL0     C83962   8.494   7.160   5.432  0.5555 -0.5425 -0.0882
  637MOL0     C83963   8.356   7.203   5.399 -0.0862  0.8333 -0.3926
  637MOL0     C83964   8.251   7.118   5.464 -0.1969  0.1263  0.3000
  637MOL0     C83965   8.127   7.147   5.397 -0.1732 -0.0073  0.0971
  637MOL0     C83966   8.010   7.081   5.469  0.1799 -0.1184  0.6846
  637MOL0     C83967   7.884   7.117   5.379  0.1580  0.7633  0.3756
  637MOL0     C83968   7.753   7.139   5.451  1.1576  0.1942 -0.0996
  637MOL0     N83969   7.640   7.117   5.359  0.5546 -0.0995  0.2178
  637MOL0     C83970   7.633   7.153   5.223 -0.0750 -0.2088  1.2396
  637MOL0     C83971   7.506   7.126   5.185  0.0442 -0.5650 -0.4096
  637MOL0     C83972   7.459   7.131   5.045  0.3060  0.0837  0.3961
  637MOL0     C83973   7.309   7.104   5.046  0.0678  0.3051 -0.5990
  637MOL0     C83974   7.263   7.088   4.906 -0.0363  0.0331 -0.3373
  637MOL0     C83975   7.251   6.947   4.855 -0.9171  0.1422 -0.1947
  637MOL0     O83976   7.144   6.883   4.928  0.3500 -0.6043 -0.1186
  637MOL0     C83977   7.022   6.896   4.880  0.1554 -0.2408  0.1393
  637MOL0     C83978   6.986   6.965   4.759  0.3174  0.3776 -0.0652
  637MOL0     C83979   6.855   6.954   4.705 -0.3748  0.5165  1.2340
  637MOL0     C83980   6.764   6.863   4.760  0.3976 -0.3871  0.0531
  637MOL0     C83981   6.633   6.832   4.689 -1.1623 -0.4442 -0.3698
  637MOL0     O83982   6.624   6.874   4.568  0.0427 -0.3027  0.9166
  637MOL0     C83983   6.509   6.861   4.492 -0.0683  0.5597 -0.1260
  637MOL0     C83984   6.535   6.890   4.360  0.8878 -0.1575 -0.9915
  637MOL0     C83985   6.427   6.898   4.269 -0.0944 -0.1773  0.1192
  637MOL0     C83986   6.296   6.885   4.304 -0.2051 -0.0255  0.2800
  637MOL0     O83987   6.190   6.885   4.220 -0.1898 -0.5991  0.6886
  637MOL0     C83988   6.075   6.793   4.238 -0.8138 -0.2255  0.2022
  637MOL0     C83989   5.955   6.849   4.313 -0.9013  0.1714  0.4233
  637MOL0     C83990   5.854   6.728   4.321 -0.3513 -1.2375 -0.0199
  637MOL0     C83991   5.710   6.780   4.322  0.7836 -0.0953  0.6334
  637MOL0     C83992   5.614   6.661   4.344  0.2053 -0.2267  0.4730
  637MOL0     C83993   5.480   6.718   4.380 -0.0663  0.8141 -0.5233
  637MOL0     C83994   5.387   6.609   4.419 -0.1957 -0.4514 -0.4394
  637MOL0     C83995   5.236   6.639   4.446 -0.1720 -0.1369  0.8225
  637MOL0    Cl83996   5.251   6.727   4.597 -0.4658 -0.1583  0.2950
  637MOL0     C83997   6.276   6.848   4.433 -0.5699  1.0073  0.0554
  637MOL0     C83998   6.375   6.849   4.531  0.9724 -0.0328 -0.3231
  637MOL0     O83999   6.547   6.774   4.758 -0.7170 -0.4487  0.0190
  637MOL0     C84000   6.791   6.810   4.884  0.0758  0.7399  0.3993
  637MOL0     C84001   6.917   6.824   4.938 -0.4158  0.5998 -0.2957
  637MOL0     N84002   7.430   7.097   5.298 -0.2154 -0.1626 -0.0655
  637MOL0     N84003   7.518   7.099   5.401  0.1429 -0.8670 -0.3918
  637MOL0     C84004   8.780   7.205   5.038 -0.1014  0.5182 -0.6593
  637MOL0     C84005   8.878   7.276   4.966  0.4618 -0.2233  0.9794
  637MOL0     C84006   9.127   7.532   4.737  0.0260  1.1320 -0.4781
  637MOL0     C84007   9.230   7.591   4.815  0.1316  0.1928 -0.2556
  637MOL0     C84008   9.338   7.656   4.756  0.7775  0.0814  0.3922
  637MOL0     C84009   9.363   7.652   4.612 -0.4335 -0.3323 -0.5349
  637MOL0     O84010   9.468   7.710   4.550  0.0833  0.7587 -0.0711
  637MOL0     C84011   9.568   7.767   4.632  0.4824 -0.7112  0.4264
  637MOL0     C84012   9.668   7.663   4.684  0.0517 -1.5109 -0.4472
  637MOL0     C84013   9.790   7.735   4.752  0.0858  0.3495 -0.1130
  637MOL0     C84014   9.904   7.633   4.798  0.3430  0.4276  0.2866
  637MOL0     C84015   9.940   7.546   4.683 -0.1021 -0.4779 -0.2615
  637MOL0     C84016   9.973   7.466   4.596  0.9884 -0.4778  0.0031
  637MOL0     C84017   9.263   7.590   4.534 -0.9577  0.2142 -0.8471
  637MOL0     C84018   9.152   7.530   4.599 -0.4783 -0.3838  0.6198
  637MOL0     H84019   8.921   7.558   5.138  2.6181 -1.0594 -2.6110
  637MOL0     H84020   8.768   7.448   5.289  2.5868 -2.6806  2.3092
  637MOL0     H84021   8.544   7.349   5.343  1.3613  0.6197  0.3262
  637MOL0     H84022   8.686   7.267   5.415  2.3351 -2.2445 -2.9119
  637MOL0     H84023   8.518   7.169   5.539  0.0753 -1.8583  0.1541
  637MOL0     H84024   8.507   7.055   5.402 -2.9601 -1.0826 -0.1679
  637MOL0     H84025   8.347   7.190   5.291  2.4576 -1.2995 -0.4471
  637MOL0     H84026   8.337   7.308   5.420  1.2302  1.4937 -2.2563
  637MOL0     H84027   8.269   7.011   5.450 -1.7065 -0.2402  0.9759
  637MOL0     H84028   8.243   7.131   5.572 -2.8873  0.5800  0.1164
  637MOL0     H84029   8.131   7.109   5.295  1.0893  1.0675 -0.2906
  637MOL0     H84030   8.105   7.254   5.400 -2.7833 -0.4457 -0.6745
  637MOL0     H84031   8.003   7.123   5.570  0.6161 -1.4198  1.2887
  637MOL0     H84032   8.025   6.973   5.481 -1.4483 -0.5485 -0.6358
  637MOL0     H84033   7.906   7.206   5.320  1.2015  0.9563  1.0411
  637MOL0     H84034   7.882   7.037   5.304 -0.4622 -0.3519  1.5390
  637MOL0     H84035   7.740   7.243   5.481 -3.4094  0.3282 -1.8078
  637MOL0     H84036   7.739   7.083   5.544  0.0222 -1.4806 -1.2123
  637MOL0     H84037   7.719   7.182   5.164 -1.2577  2.0982  0.5061
  637MOL0     H84038   7.507   7.041   5.006 -0.9185  0.5947 -2.5075
  637MOL0     H84039   7.491   7.219   4.990 -0.2296  0.9322  1.3958
  637MOL0     H84040   7.248   7.181   5.094  2.3660  2.5646 -1.1173
  637MOL0     H84041   7.292   7.010   5.100  2.4687  0.1776  0.0427
  637MOL0     H84042   7.162   7.128   4.899  0.2521  0.5730 -1.9316
  637MOL0     H84043   7.331   7.146   4.842  0.3337  0.0659  0.0748
  637MOL0     H84044   7.336   6.889   4.890 -1.2476  0.3058  0.9425
  637MOL0     H84045   7.237   6.946   4.747 -3.1861  1.3971  0.0041
  637MOL0     H84046   7.049   7.037   4.707 -0.8312  1.3985 -0.0917
  637MOL0     H84047   6.833   7.014   4.618  2.0780  0.2007  0.2875
  637MOL0     H84048   6.636   6.904   4.324  1.1992 -3.9381 -2.0176
  637MOL0     H84049   6.441   6.917   4.163 -0.1424 -0.2022  0.1085
  637MOL0     H84050   6.106   6.695   4.276  0.3501  0.5019  1.2163
  637MOL0     H84051   6.055   6.771   4.133  2.3259 -2.2392 -0.1179
  637MOL0     H84052   5.912   6.934   4.259 -2.6327 -0.5123  0.6616
  637MOL0     H84053   5.976   6.895   4.410 -0.1160  1.8581 -0.4983
  637MOL0     H84054   5.884   6.673   4.411  1.1429 -0.4078  0.0148
  637MOL0     H84055   5.857   6.666   4.231 -0.4176 -0.9044 -0.2530
  637MOL0     H84056   5.710   6.850   4.406  0.8610 -0.1428  0.6737
  637MOL0     H84057   5.695   6.833   4.227 -0.0121  0.2486  0.9419
  637MOL0     H84058   5.652   6.599   4.425 -0.6472 -1.9367 -0.3734
  637MOL0     H84059   5.616   6.595   4.257 -0.8544 -0.3236  0.5101
  637MOL0     H84060   5.435   6.785   4.306 -1.0891  1.9624  1.0631
  637MOL0     H84061   5.503   6.781   4.467  0.5534 -0.0536 -0.0472
  637MOL0     H84062   5.388   6.546   4.330  1.3507  1.0445 -1.5313
  637MOL0     H84063   5.423   6.559   4.509 -0.7337  3.4331  2.2013
  637MOL0     H84064   5.172   6.550   4.454 -0.8027  0.3127  0.8117
  637MOL0     H84065   5.200   6.702   4.365 -2.4080 -1.2172  0.9109
  637MOL0     H84066   6.178   6.816   4.469 -0.6343 -1.1032 -1.7802
  637MOL0     H84067   6.343   6.818   4.630  2.1715 -0.8765 -0.1836
  637MOL0     H84068   6.719   6.751   4.939  0.0377  1.3844  1.0624
  637MOL0     H84069   6.956   6.768   5.022 -3.1410 -0.1754  0.5882
  637MOL0     H84070   8.741   7.106   5.017 -4.0543  1.1591  2.3153
  637MOL0     H84071   8.903   7.243   4.866 -1.6249 -1.3171  0.7535
  637MOL0     H84072   9.220   7.589   4.923 -3.3585 -1.5328 -0.4808
  637MOL0     H84073   9.413   7.710   4.812 -0.2432  0.6893  1.1962
  637MOL0     H84074   9.523   7.846   4.694 -0.6091 -0.8318 -0.1744
  637MOL0     H84075   9.623   7.829   4.560 -1.9634  0.7826 -0.3176
  637MOL0     H84076   9.613   7.614   4.764 -1.9582  2.1805  0.6727
  637MOL0     H84077   9.703   7.597   4.604 -1.4541 -0.4452 -2.0581
  637MOL0     H84078   9.757   7.787   4.842  2.2854  0.3926  0.7253
  637MOL0     H84079   9.840   7.807   4.686  1.5474  0.0527  0.6447
  637MOL0     H84080   9.989   7.689   4.838 -0.8659  1.3415  1.7060
  637MOL0     H84081   9.873   7.562   4.876 -1.0454 -0.8681 -1.3564
  637MOL0     H84082   9.998   7.405   4.512 -0.9879  1.9765 -2.5823
  637MOL0     H84083   9.263   7.594   4.426 -2.8933 -2.7889 -1.0902
  637MOL0     H84084   9.088   7.476   4.531 -0.5760  2.5114 -1.8215
  638MOL0     O84085   4.036   2.481   2.657 -0.0265  0.6654  0.5501
  638MOL0     C84086   4.092   2.385   2.702  0.4433 -0.5328  0.9621
  638MOL0     O84087   4.038   2.266   2.726 -0.3424 -0.7834  0.8100
  638MOL0     C84088   3.908   2.241   2.757 -0.0671 -0.2461 -0.1687
  638MOL0     C84089   3.809   2.334   2.806 -0.5017  0.1978  0.8698
  638MOL0     C84090   3.684   2.283   2.850 -0.1152 -0.3670  0.8042
  638MOL0     C84091   3.655   2.147   2.854 -0.7147  0.3160  1.0552
  638MOL0     O84092   3.534   2.114   2.903 -0.4120  0.1305  0.5279
  638MOL0     C84093   3.431   2.101   2.804  0.2812  0.5459 -0.1890
  638MOL0     C84094   3.385   1.955   2.796 -0.0283  0.2976 -0.2959
  638MOL0     C84095   3.257   1.945   2.715 -0.6544 -0.0623  0.5955
  638MOL0     C84096   3.202   1.803   2.747  0.1008  0.2128  0.5183
  638MOL0     C84097   3.055   1.799   2.687 -0.8752 -0.3684  0.0214
  638MOL0     C84098   2.998   1.668   2.646  0.4089  0.3505  0.0427
  638MOL0     C84099   2.850   1.688   2.583  0.4543 -0.3149  0.0853
  638MOL0     C84100   2.838   1.631   2.444  0.0266 -0.9464  0.2230
  638MOL0     N84101   2.689   1.640   2.423  0.4061  0.0456  1.1063
  638MOL0     C84102   2.597   1.544   2.462 -0.5568 -0.0226  0.0429
  638MOL0     C84103   2.474   1.602   2.431  0.2819  0.1101 -0.3608
  638MOL0     C84104   2.345   1.552   2.477  0.0193 -0.9020 -0.0094
  638MOL0     C84105   2.338   1.511   2.623  0.3004 -0.0174  1.1620
  638MOL0     C84106   2.207   1.454   2.643  0.1908  0.1033  0.1815
  638MOL0     C84107   2.191   1.312   2.595 -0.0296  0.8070 -0.4225
  638MOL0     O84108   2.053   1.282   2.627 -0.2172  0.8546 -0.3509
  638MOL0     C84109   1.958   1.322   2.540  0.6477  0.3817 -0.1610
  638MOL0     C84110   1.986   1.378   2.417  0.2881  0.7991  0.6975
  638MOL0     C84111   1.885   1.438   2.342  0.7893  0.4175  0.4602
  638MOL0     C84112   1.752   1.429   2.387 -0.1381  0.0327  0.7584
  638MOL0     C84113   1.646   1.476   2.302  0.4595  0.0990  0.5504
  638MOL0     O84114   1.523   1.426   2.310  0.1126  0.1591  1.1916
  638MOL0     C84115   1.411   1.459   2.229  0.4625  0.1608  0.1481
  638MOL0     C84116   1.288   1.447   2.291  0.5314 -0.3666 -0.4889
  638MOL0     C84117   1.166   1.478   2.226  0.7463 -0.6977  0.3737
  638MOL0     C84118   1.170   1.523   2.095  0.1321 -0.4299 -0.3287
  638MOL0     O84119   1.064   1.571   2.024  0.3739  0.0194  0.8241
  638MOL0     C84120   0.951   1.603   2.108  0.6945  0.4683  0.2236
  638MOL0     C84121   0.847   1.681   2.030 -0.4010 -1.3469  0.3714
  638MOL0     C84122   0.710   1.637   2.092  0.0101  0.0932  0.3952
  638MOL0     C84123   0.595   1.710   2.020  0.8144  0.0469  0.2675
  638MOL0     C84124   0.465   1.693   2.101  0.1946  0.1182  0.0662
  638MOL0     C84125   0.342   1.743   2.024  0.2705 -0.2757  0.4284
  638MOL0     C84126   0.213   1.686   2.087 -0.9214 -0.1735  0.0155
  638MOL0     C84127   0.190   1.536   2.051 -0.4205  1.9642 -0.4725
  638MOL0    Cl84128   0.021   1.477   2.059 -0.1622 -0.4110  0.1895
  638MOL0     C84129   1.293   1.520   2.029  0.1603 -1.0039  0.5128
  638MOL0     C84130   1.415   1.492   2.095  0.5131  1.3521 -0.0708
  638MOL0     O84131   1.679   1.560   2.220 -0.4162 -0.2132 -0.1302
  638MOL0     C84132   1.724   1.385   2.512 -0.2968  1.3302  0.6352
  638MOL0     C84133   1.826   1.342   2.594 -0.8116  0.2477 -0.9200
  638MOL0     N84134   2.491   1.724   2.370 -0.4911  0.4382  1.1618
  638MOL0     N84135   2.616   1.743   2.371 -0.2196  0.5811  1.0886
  638MOL0     C84136   3.744   2.064   2.807 -0.3964 -0.6680 -0.7531
  638MOL0     C84137   3.874   2.112   2.766  0.7145 -0.4927  0.5406
  638MOL0     C84138   4.236   2.397   2.724 -0.0955 -0.3480 -0.6372
  638MOL0     C84139   4.310   2.503   2.677  0.6882 -0.7178 -0.3668
  638MOL0     C84140   4.443   2.516   2.713  0.5415  1.0761  0.5049
  638MOL0     C84141   4.490   2.430   2.804 -0.1302  0.0196  0.4720
  638MOL0     O84142   4.624   2.461   2.829  0.7445 -0.6387 -0.7702
  638MOL0     C84143   4.685   2.401   2.945  0.4616 -0.4479  0.1178
  638MOL0     C84144   4.797   2.486   3.000  0.2345 -0.1318  0.6517
  638MOL0     C84145   4.923   2.478   2.913 -0.9425 -0.0110  0.2150
  638MOL0     C84146   5.050   2.536   2.972 -0.8009 -0.7929 -0.2754
  638MOL0     C84147   5.172   2.514   2.894  0.1328  0.7718  0.2458
  638MOL0     C84148   5.276   2.500   2.830  1.4150 -0.1516  0.8358
  638MOL0     C84149   4.418   2.324   2.855  0.8006 -0.3660 -0.3281
  638MOL0     C84150   4.293   2.306   2.809  0.5974  0.0448  0.6132
  638MOL0     H84151   3.835   2.439   2.809  1.1184 -0.1880  2.9956
  638MOL0     H84152   3.603   2.347   2.883 -0.3095 -0.0736 -0.2096
  638MOL0     H84153   3.461   2.144   2.708  0.5996  1.4949  0.3298
  638MOL0     H84154   3.344   2.158   2.837 -1.6433 -2.4773  0.3429
  638MOL0     H84155   3.364   1.926   2.899 -2.8006  2.0436 -0.2638
  638MOL0     H84156   3.475   1.900   2.766  0.9559  1.4421  0.4458
  638MOL0     H84157   3.295   1.958   2.614 -0.0744  0.5804  0.8832
  638MOL0     H84158   3.185   2.023   2.742  2.0426  2.9986 -0.3554
  638MOL0     H84159   3.264   1.729   2.696  3.7367  3.5053 -0.3599
  638MOL0     H84160   3.202   1.778   2.854  0.6027 -3.3650 -0.1961
  638MOL0     H84161   3.068   1.863   2.599  1.7180  0.2485  0.7757
  638MOL0     H84162   2.995   1.847   2.765  0.9793  0.1396  1.2068
  638MOL0     H84163   2.989   1.597   2.729 -1.3807 -0.9720 -1.1929
  638MOL0     H84164   3.066   1.616   2.578 -1.9813 -1.6635 -0.9834
  638MOL0     H84165   2.772   1.647   2.648 -1.2389 -0.7416 -2.0989
  638MOL0     H84166   2.831   1.794   2.565 -0.5458 -0.8271 -2.2282
  638MOL0     H84167   2.888   1.535   2.432 -0.6387 -0.9559 -4.0529
  638MOL0     H84168   2.879   1.708   2.378  0.0655  0.9850  2.3570
  638MOL0     H84169   2.620   1.444   2.497 -0.2015 -0.3516 -1.0998
  638MOL0     H84170   2.315   1.475   2.405  3.4083 -1.5018 -0.9264
  638MOL0     H84171   2.277   1.637   2.472  2.9846  1.5585 -1.3713
  638MOL0     H84172   2.337   1.609   2.672  0.0055  1.1133 -0.9462
  638MOL0     H84173   2.420   1.444   2.651 -1.4260 -2.9251 -0.2806
  638MOL0     H84174   2.196   1.449   2.752  0.0329  1.2134  0.2277
  638MOL0     H84175   2.127   1.518   2.604 -0.1126 -0.4567 -0.1265
  638MOL0     H84176   2.260   1.243   2.644  1.1535  1.8402 -0.5692
  638MOL0     H84177   2.225   1.306   2.491 -0.5365 -0.1381 -0.5438
  638MOL0     H84178   2.085   1.381   2.372  0.4851 -0.9539  0.9589
  638MOL0     H84179   1.913   1.486   2.248  2.8284  1.1437  1.3622
  638MOL0     H84180   1.275   1.417   2.394 -1.1849  0.3161 -0.4653
  638MOL0     H84181   1.077   1.478   2.288 -0.2793 -1.5685 -1.0365
  638MOL0     H84182   0.967   1.675   2.188  0.9061 -0.8334  1.3823
  638MOL0     H84183   0.911   1.510   2.149  2.0069  0.1318  0.8140
  638MOL0     H84184   0.847   1.658   1.923  3.2911 -1.5652  0.2850
  638MOL0     H84185   0.860   1.789   2.044 -0.7715 -1.1269 -0.7909
  638MOL0     H84186   0.710   1.659   2.199 -1.1551  0.3428  0.3607
  638MOL0     H84187   0.696   1.530   2.077  0.3574  0.0557  0.3385
  638MOL0     H84188   0.593   1.819   2.017 -2.6674  0.1292  0.8077
  638MOL0     H84189   0.600   1.677   1.916 -0.6501 -3.3691  1.1251
  638MOL0     H84190   0.473   1.748   2.196 -0.1233 -0.7988  0.6355
  638MOL0     H84191   0.465   1.589   2.134 -1.8685  0.3898  1.0861
  638MOL0     H84192   0.351   1.719   1.917  0.9973  2.0323 -0.0809
  638MOL0     H84193   0.335   1.852   2.025 -0.2080 -0.3113  1.5862
  638MOL0     H84194   0.221   1.713   2.193  1.8142  0.4020 -0.2796
  638MOL0     H84195   0.135   1.752   2.047  1.1977  0.4435 -3.4470
  638MOL0     H84196   0.262   1.470   2.100 -1.5635 -0.3838 -1.7638
  638MOL0     H84197   0.208   1.523   1.943 -2.2849 -0.2278 -0.6137
  638MOL0     H84198   1.300   1.555   1.927 -0.7040 -2.3745 -0.0435
  638MOL0     H84199   1.513   1.490   2.050 -0.7417 -2.1020 -3.1316
  638MOL0     H84200   1.620   1.393   2.540  0.3427 -0.7007  4.2141
  638MOL0     H84201   1.816   1.318   2.699  0.4788  0.0318 -0.8327
  638MOL0     H84202   3.728   1.957   2.806  0.4255 -0.8443  0.8985
  638MOL0     H84203   3.954   2.045   2.738 -0.1500 -1.7765  1.0540
  638MOL0     H84204   4.264   2.576   2.611  0.4398 -0.4380  0.1089
  638MOL0     H84205   4.497   2.601   2.672  0.3929  1.7581  1.6541
  638MOL0     H84206   4.724   2.300   2.931  2.9009  0.2441  1.3634
  638MOL0     H84207   4.611   2.389   3.024  0.4215 -2.6261 -0.1839
  638MOL0     H84208   4.768   2.591   2.994  0.3697 -0.1332 -0.0269
  638MOL0     H84209   4.816   2.470   3.107  0.0152 -0.3217  0.6630
  638MOL0     H84210   4.907   2.541   2.825 -1.1365 -2.5828 -1.6928
  638MOL0     H84211   4.942   2.376   2.879 -0.6623  0.0407  0.2131
  638MOL0     H84212   5.037   2.641   3.001  0.1778 -0.8760  0.5012
  638MOL0     H84213   5.061   2.484   3.067 -1.6053  1.5609  1.2048
  638MOL0     H84214   5.366   2.487   2.773  1.7699  0.1044  1.3282
  638MOL0     H84215   4.450   2.259   2.936 -4.0169 -1.9544  0.6284
  638MOL0     H84216   4.235   2.225   2.852  1.3318 -0.5979  0.3971
  639MOL0     O84217   3.665   4.007   3.142 -0.5995  0.0297  0.6666
  639MOL0     C84218   3.707   3.901   3.080 -0.4461  0.0437 -0.6429
  639MOL0     O84219   3.628   3.801   3.018  0.2350 -0.1552  0.2248
  639MOL0     C84220   3.491   3.778   3.058 -0.6232 -0.1665 -0.8757
  639MOL0     C84221   3.420   3.833   3.171 -0.4487 -0.3572  0.2194
  639MOL0     C84222   3.298   3.778   3.220  1.3690  0.7071  0.3395
  639MOL0     C84223   3.249   3.660   3.162 -0.0393  0.2788 -0.9660
  639MOL0     O84224   3.136   3.609   3.224 -0.5109 -0.2902  0.1786
  639MOL0     C84225   3.055   3.508   3.160 -0.1829  0.0087 -0.3336
  639MOL0     C84226   2.938   3.467   3.239  0.2975  0.2851  0.2990
  639MOL0     C84227   2.983   3.350   3.342  0.3622 -0.3346 -0.8256
  639MOL0     C84228   2.898   3.352   3.466  0.0097  0.1023  0.0823
  639MOL0     C84229   2.967   3.282   3.589 -0.5559 -0.5573 -0.4126
  639MOL0     C84230   2.878   3.260   3.709 -0.8407 -0.4487 -0.2375
  639MOL0     C84231   2.757   3.175   3.688 -0.4975  0.8538  0.6776
  639MOL0     C84232   2.776   3.041   3.614 -0.7425 -0.2370  0.1172
  639MOL0     N84233   2.670   2.934   3.627  0.0691 -0.0989  0.1649
  639MOL0     C84234   2.558   2.944   3.548  0.0195 -0.4296 -0.2587
  639MOL0     C84235   2.494   2.826   3.559 -0.4728  0.4165  0.6333
  639MOL0     C84236   2.369   2.787   3.480  0.4256  0.2397 -0.8617
  639MOL0     C84237   2.239   2.856   3.530  0.2966  0.3375  0.0764
  639MOL0     C84238   2.125   2.827   3.439 -0.0695  0.2974  0.0141
  639MOL0     C84239   1.991   2.871   3.493  0.5403 -0.8744  0.3769
  639MOL0     O84240   1.973   3.022   3.472  0.2342  0.2728 -0.3129
  639MOL0     C84241   1.846   3.066   3.498  0.3616  0.0082 -0.2008
  639MOL0     C84242   1.758   3.006   3.589  0.1239 -0.6045 -0.2187
  639MOL0     C84243   1.634   3.059   3.625  0.1161 -0.0604 -0.3477
  639MOL0     C84244   1.609   3.189   3.594 -0.8524  0.2089  0.7250
  639MOL0     C84245   1.477   3.254   3.628 -0.1969 -0.4025 -0.8121
  639MOL0     O84246   1.397   3.186   3.717 -0.5767  0.2486  0.7276
  639MOL0     C84247   1.275   3.240   3.756  1.4378  0.2224  0.9507
  639MOL0     C84248   1.278   3.302   3.879 -0.2168  0.0439  0.6086
  639MOL0     C84249   1.167   3.369   3.920  0.7280  0.1646 -0.0456
  639MOL0     C84250   1.039   3.363   3.851  0.2063  1.0450 -0.3155
  639MOL0     O84251   0.917   3.426   3.882 -0.2595 -0.1696  0.6120
  639MOL0     C84252   0.907   3.506   3.994 -0.1611  0.1432  0.1474
  639MOL0     C84253   0.770   3.578   3.973 -0.0923 -0.1796  0.2213
  639MOL0     C84254   0.650   3.489   3.960  0.0287 -0.7331  0.3193
  639MOL0     C84255   0.523   3.571   3.944 -0.0132 -0.3791  0.4769
  639MOL0     C84256   0.394   3.486   3.922 -0.8175  0.5113 -0.2700
  639MOL0     C84257   0.408   3.406   3.788  0.2039  0.1659  0.1758
  639MOL0     C84258   0.272   3.361   3.738  0.4485 -0.1681  0.2979
  639MOL0     C84259   0.246   3.404   3.591 -0.4632  0.5108  0.0059
  639MOL0    Cl84260   0.076   3.423   3.578  0.1380 -0.3048 -0.1536
  639MOL0     C84261   1.039   3.291   3.733 -0.0447  0.1246  0.0772
  639MOL0     C84262   1.155   3.226   3.686  0.1932 -0.5197 -0.2587
  639MOL0     O84263   1.455   3.368   3.581  0.0019  0.3176  0.1157
  639MOL0     C84264   1.707   3.264   3.516  0.0138  0.4716  0.2654
  639MOL0     C84265   1.818   3.198   3.466 -0.3524  0.2755  0.5133
  639MOL0     N84266   2.564   2.738   3.645 -0.1726 -0.2594 -0.0640
  639MOL0     N84267   2.671   2.817   3.691 -0.7752  0.4700  0.4448
  639MOL0     C84268   3.319   3.601   3.055 -0.1591 -0.3122  0.8108
  639MOL0     C84269   3.439   3.662   3.002  0.2531 -0.0125 -0.1867
  639MOL0     C84270   3.850   3.885   3.064  0.1417  0.9572 -0.9763
  639MOL0     C84271   3.941   3.955   3.147  0.7659 -0.4259  0.5719
  639MOL0     C84272   4.079   3.944   3.139  0.5388 -0.1923 -0.4020
  639MOL0     C84273   4.133   3.855   3.050  0.0036 -0.6293  0.4125
  639MOL0     O84274   4.270   3.845   3.019 -0.3257  0.1954 -0.0108
  639MOL0     C84275   4.364   3.926   3.081 -0.3012 -0.5275 -0.4676
  639MOL0     C84276   4.498   3.881   3.039  1.1018  0.2261 -0.4329
  639MOL0     C84277   4.604   3.992   3.070  0.5805  0.1771 -0.7985
  639MOL0     C84278   4.735   3.934   3.017 -0.1274  0.8622 -0.3629
  639MOL0     C84279   4.846   4.033   3.040 -0.1636 -0.3764 -0.5393
  639MOL0     C84280   4.920   4.121   3.074  0.0554 -0.2104 -0.6108
  639MOL0     C84281   4.044   3.785   2.962 -0.4257  0.6808 -0.3893
  639MOL0     C84282   3.905   3.791   2.976 -0.1059 -0.4529 -0.0571
  639MOL0     H84283   3.469   3.909   3.230 -0.6740 -2.0098  2.6775
  639MOL0     H84284   3.249   3.838   3.296 -0.3586  3.5478 -2.7701
  639MOL0     H84285   3.112   3.416   3.146 -1.5681 -0.6935 -1.7191
  639MOL0     H84286   3.030   3.550   3.063 -1.0983  2.0426  0.7109
  639MOL0     H84287   2.857   3.429   3.177 -3.1285  5.5993  0.9400
  639MOL0     H84288   2.885   3.554   3.279 -3.8867 -1.0514 -1.8270
  639MOL0     H84289   3.088   3.365   3.371 -0.0712  0.7660  0.2546
  639MOL0     H84290   2.973   3.246   3.309  1.0950 -1.2311  1.5689
  639MOL0     H84291   2.886   3.458   3.489 -2.1537  0.0238 -0.4509
  639MOL0     H84292   2.798   3.311   3.445  1.0888 -2.7800  0.0992
  639MOL0     H84293   3.051   3.340   3.630 -1.7038  1.9401 -1.3893
  639MOL0     H84294   3.017   3.188   3.563 -1.6985 -1.5959  0.9939
  639MOL0     H84295   2.836   3.357   3.737 -4.7030 -1.8311 -0.5257
  639MOL0     H84296   2.936   3.226   3.795  0.3484 -1.1346 -1.2811
  639MOL0     H84297   2.717   3.149   3.786  0.0468  3.7927  1.7841
  639MOL0     H84298   2.686   3.233   3.629  2.3768  3.8628 -0.1455
  639MOL0     H84299   2.866   2.990   3.650  0.5267  1.4640 -0.5258
  639MOL0     H84300   2.803   3.059   3.510  2.4358  0.8510  1.0137
  639MOL0     H84301   2.525   3.026   3.484  1.7426  1.0154  0.5960
  639MOL0     H84302   2.367   2.680   3.501 -1.6414  0.2430 -0.8432
  639MOL0     H84303   2.394   2.804   3.375 -2.0396  0.1003 -1.5215
  639MOL0     H84304   2.240   2.965   3.526  1.8879  0.4272  1.9014
  639MOL0     H84305   2.223   2.819   3.632  1.8133 -1.4066 -0.2760
  639MOL0     H84306   2.140   2.865   3.338  1.3500 -2.1463 -0.7912
  639MOL0     H84307   2.117   2.718   3.425 -1.2144  0.7361 -3.8100
  639MOL0     H84308   1.985   2.846   3.600 -0.2902  1.7687  1.0247
  639MOL0     H84309   1.917   2.815   3.435 -1.5397 -0.0851  2.1661
  639MOL0     H84310   1.793   2.912   3.632 -0.9869 -1.3147 -0.8470
  639MOL0     H84311   1.569   2.994   3.683  3.0737 -0.8768  2.3651
  639MOL0     H84312   1.366   3.305   3.943  0.6156 -1.4666 -0.3844
  639MOL0     H84313   1.165   3.403   4.023  1.3398 -1.1521  0.4155
  639MOL0     H84314   0.996   3.566   4.013 -0.0918  0.2371 -0.4682
  639MOL0     H84315   0.916   3.451   4.088  0.7864  2.4191  1.4602
  639MOL0     H84316   0.784   3.644   3.886  2.9502 -0.1363  0.6268
  639MOL0     H84317   0.742   3.632   4.065 -2.2366 -2.8675  1.2699
  639MOL0     H84318   0.649   3.433   4.054 -4.0366  0.6040  1.2709
  639MOL0     H84319   0.656   3.419   3.877 -1.7146  2.2821 -2.5853
  639MOL0     H84320   0.507   3.623   4.039 -2.6279  0.1349 -0.1669
  639MOL0     H84321   0.530   3.653   3.872 -0.5568  0.1743  1.0415
  639MOL0     H84322   0.306   3.548   3.942 -0.5667  0.2471  1.7963
  639MOL0     H84323   0.394   3.410   4.000  3.7851 -2.6828 -2.8958
  639MOL0     H84324   0.471   3.317   3.798  0.4787  0.2779 -0.5358
  639MOL0     H84325   0.465   3.466   3.717  1.0011  1.4890  1.8396
  639MOL0     H84326   0.272   3.253   3.754 -0.6012 -0.0271  1.4553
  639MOL0     H84327   0.191   3.396   3.803 -1.7886 -0.6241 -2.0733
  639MOL0     H84328   0.298   3.336   3.523  1.4902  1.0221  0.9247
  639MOL0     H84329   0.281   3.506   3.572  1.2129 -0.5367 -3.3004
  639MOL0     H84330   0.943   3.289   3.682 -1.8680 -2.0770  3.2760
  639MOL0     H84331   1.148   3.170   3.593 -1.0550 -1.2805  0.2744
  639MOL0     H84332   1.697   3.371   3.502  1.3148  0.7271  1.1195
  639MOL0     H84333   1.897   3.255   3.418  0.5655 -0.7731  0.7427
  639MOL0     H84334   3.288   3.506   3.013 -1.2674 -0.0106  0.9013
  639MOL0     H84335   3.488   3.611   2.919  0.1342 -3.2343  1.5215
  639MOL0     H84336   3.905   4.030   3.218  1.5420  0.2659  0.2501
  639MOL0     H84337   4.133   4.018   3.197  1.7143  1.7551 -3.7173
  639MOL0     H84338   4.348   3.946   3.187  1.7208 -2.2220  0.2145
  639MOL0     H84339   4.354   4.022   3.029 -0.7662 -1.2010 -1.6613
  639MOL0     H84340   4.531   3.788   3.087 -0.1708 -0.1682 -0.2834
  639MOL0     H84341   4.503   3.875   2.930 -0.2775  2.8073 -0.7073
  639MOL0     H84342   4.607   4.018   3.176  3.1654 -0.4434 -0.6597
  639MOL0     H84343   4.577   4.083   3.017  1.5260 -0.5071 -2.5322
  639MOL0     H84344   4.761   3.850   3.083 -0.7314  1.0236  0.0879
  639MOL0     H84345   4.734   3.907   2.911 -1.6666  0.9562 -0.3865
  639MOL0     H84346   4.986   4.198   3.107 -1.5040  0.6748  0.5380
  639MOL0     H84347   4.084   3.722   2.884 -0.3013  2.5374 -1.8921
  639MOL0     H84348   3.842   3.730   2.911 -1.6556 -1.3527  2.1723
  640MOL0     O84349   7.649   6.921   4.820 -0.2878 -0.6356 -0.3319
  640MOL0     C84350   7.731   6.835   4.779 -0.0949  0.1875 -0.1381
  640MOL0     O84351   7.717   6.757   4.670  0.1484 -0.7305  0.8058
  640MOL0     C84352   7.596   6.758   4.614 -0.0668 -0.5798  0.9857
  640MOL0     C84353   7.517   6.644   4.629  0.7867  0.2986 -0.3641
  640MOL0     C84354   7.391   6.639   4.570  0.5743 -0.0866  0.4181
  640MOL0     C84355   7.345   6.742   4.493  0.7453 -0.6492  0.8448
  640MOL0     O84356   7.225   6.726   4.423  0.0011 -0.3490 -0.2389
  640MOL0     C84357   7.149   6.845   4.399 -0.1411 -0.7339  0.0578
  640MOL0     C84358   7.016   6.811   4.339 -0.2599  0.1535 -0.3159
  640MOL0     C84359   7.027   6.786   4.187 -0.5503 -1.0402 -0.8910
  640MOL0     C84360   6.892   6.787   4.106  0.5143  0.2942 -0.0721
  640MOL0     C84361   6.945   6.790   3.955 -0.4563  1.0396  0.3728
  640MOL0     C84362   6.826   6.759   3.866  0.0009 -0.4151  0.2030
  640MOL0     C84363   6.849   6.638   3.772  0.0797 -0.4372 -0.1742
  640MOL0     C84364   6.986   6.647   3.689  0.4771 -0.3204  0.2178
  640MOL0     N84365   6.978   6.583   3.562  0.0548 -0.7465 -0.3467
  640MOL0     C84366   6.957   6.645   3.449 -0.5787  0.5611  0.1016
  640MOL0     C84367   6.951   6.551   3.353  0.2428  0.5459  0.6065
  640MOL0     C84368   6.927   6.582   3.202 -0.6368  0.7933 -0.1246
  640MOL0     C84369   6.791   6.642   3.165 -0.6487  0.4540  0.9402
  640MOL0     C84370   6.748   6.645   3.015 -0.2595  0.7316 -0.7334
  640MOL0     C84371   6.601   6.689   3.003 -0.9941  0.3350 -0.6675
  640MOL0     O84372   6.605   6.832   2.995  0.0888 -0.1722 -0.3747
  640MOL0     C84373   6.485   6.897   2.974 -0.1487  0.2829  0.6364
  640MOL0     C84374   6.486   7.027   2.922 -0.2910 -0.7246  0.7445
  640MOL0     C84375   6.375   7.102   2.896 -0.2169  0.0523  0.5304
  640MOL0     C84376   6.249   7.045   2.920 -0.4087  0.3708  0.0735
  640MOL0     C84377   6.128   7.121   2.887 -1.2085  0.0533  0.2617
  640MOL0     O84378   6.010   7.053   2.866 -0.1532  0.3372  0.2914
  640MOL0     C84379   5.911   7.108   2.788 -0.2836 -0.3218 -0.7349
  640MOL0     C84380   5.944   7.189   2.681 -0.1846  0.1595  0.5698
  640MOL0     C84381   5.842   7.245   2.615  0.2239 -0.2280  0.8181
  640MOL0     C84382   5.707   7.237   2.653  0.2680  0.1012  0.3884
  640MOL0     O84383   5.602   7.304   2.594  0.8174  0.0885 -1.2088
  640MOL0     C84384   5.621   7.344   2.456  0.3609  0.5493 -0.5688
  640MOL0     C84385   5.479   7.378   2.408  0.2225 -0.3678 -0.1157
  640MOL0     C84386   5.390   7.247   2.411 -0.5292 -0.3975  0.3702
  640MOL0     C84387   5.252   7.257   2.340 -0.7574 -0.7236 -0.1494
  640MOL0     C84388   5.173   7.130   2.329 -0.2875  1.5320 -0.9747
  640MOL0     C84389   5.178   7.042   2.455  0.4407  0.0538 -0.0406
  640MOL0     C84390   5.089   6.921   2.446 -0.3276  0.1418 -1.1334
  640MOL0     C84391   5.122   6.806   2.549 -0.2064 -0.1406 -0.6498
  640MOL0    Cl84392   5.278   6.743   2.484 -0.0836  0.3171  0.2911
  640MOL0     C84393   5.670   7.153   2.757 -0.7961  0.6471  0.3071
  640MOL0     C84394   5.774   7.085   2.813  0.1006  0.0563  0.2059
  640MOL0     O84395   6.138   7.243   2.908 -0.2702  0.0572 -0.1483
  640MOL0     C84396   6.245   6.911   2.971  0.5275 -0.3776 -0.1627
  640MOL0     C84397   6.363   6.839   3.008 -0.2285  0.4270  0.1277
  640MOL0     N84398   6.957   6.429   3.421 -0.2755  0.7881 -0.1559
  640MOL0     N84399   6.977   6.447   3.549 -0.4658 -0.6485 -0.7546
  640MOL0     C84400   7.423   6.854   4.478 -0.2540 -0.1195 -0.1727
  640MOL0     C84401   7.542   6.870   4.546  1.0269  0.7607  0.1921
  640MOL0     C84402   7.843   6.816   4.874 -0.1272  0.4615  0.5651
  640MOL0     C84403   7.881   6.912   4.962  0.0559 -0.1143 -0.0533
  640MOL0     C84404   7.998   6.904   5.034 -0.2558  0.3122  0.1453
  640MOL0     C84405   8.074   6.790   5.030  0.2778  0.0808 -0.6705
  640MOL0     O84406   8.180   6.777   5.124  0.7286  0.0713  0.3809
  640MOL0     C84407   8.276   6.877   5.134 -0.3765 -0.2839 -0.0044
  640MOL0     C84408   8.409   6.811   5.178  0.1002 -0.4151 -1.2092
  640MOL0     C84409   8.444   6.693   5.088 -0.0690  0.0942 -0.0034
  640MOL0     C84410   8.575   6.610   5.126 -0.1253 -0.0069  0.0737
  640MOL0     C84411   8.698   6.686   5.124 -0.0207  0.1940 -0.5799
  640MOL0     C84412   8.801   6.746   5.101  0.0566  0.4150 -0.9627
  640MOL0     C84413   8.040   6.687   4.940 -0.9883 -0.7005 -0.1795
  640MOL0     C84414   7.925   6.696   4.858 -0.3063 -0.7071 -0.1843
  640MOL0     H84415   7.544   6.570   4.703 -3.7163  1.8553  3.3155
  640MOL0     H84416   7.340   6.544   4.572 -0.1749  0.3211  1.2726
  640MOL0     H84417   7.199   6.909   4.327  0.9574 -1.2767  0.3202
  640MOL0     H84418   7.145   6.901   4.493 -0.1873  0.0364 -0.4023
  640MOL0     H84419   6.953   6.897   4.362  1.8492  1.4649  0.9764
  640MOL0     H84420   6.973   6.723   4.390 -1.5832  0.4012 -0.9766
  640MOL0     H84421   7.088   6.698   4.163 -0.0177 -0.9030 -0.0820
  640MOL0     H84422   7.081   6.876   4.156 -2.9916  0.4568 -0.9997
  640MOL0     H84423   6.830   6.698   4.119  0.6352  0.1003 -0.8118
  640MOL0     H84424   6.844   6.883   4.128  1.7386  1.6921 -2.9799
  640MOL0     H84425   7.032   6.724   3.939 -1.2945  0.5719 -2.7496
  640MOL0     H84426   6.986   6.886   3.922 -0.3464  1.6776  2.2016
  640MOL0     H84427   6.816   6.845   3.799  1.5961 -2.2274 -2.5975
  640MOL0     H84428   6.734   6.748   3.923  1.3481  0.2756  2.6714
  640MOL0     H84429   6.841   6.543   3.825 -0.5050 -0.9875 -1.2188
  640MOL0     H84430   6.768   6.644   3.698 -0.6417 -0.0482  0.6318
  640MOL0     H84431   7.059   6.600   3.756  0.0269 -1.7091 -0.2216
  640MOL0     H84432   7.023   6.746   3.663  1.9659 -1.3730 -1.9246
  640MOL0     H84433   6.963   6.752   3.438 -0.0182  0.4798 -0.4305
  640MOL0     H84434   6.939   6.484   3.156  2.3299  0.4096  1.2562
  640MOL0     H84435   7.007   6.645   3.163 -0.7473  1.0840  0.1147
  640MOL0     H84436   6.791   6.747   3.195 -2.2341  0.4148  1.1844
  640MOL0     H84437   6.711   6.595   3.223 -0.8314 -0.1180  0.2240
  640MOL0     H84438   6.804   6.717   2.954  0.2760  0.8147 -0.1562
  640MOL0     H84439   6.763   6.542   2.981 -2.0190  0.2431 -0.0989
  640MOL0     H84440   6.537   6.654   3.085  0.5647  0.3442  0.6062
  640MOL0     H84441   6.552   6.649   2.914 -1.6255  1.6736 -0.9291
  640MOL0     H84442   6.588   7.064   2.910  0.2755 -2.2882  0.4931
  640MOL0     H84443   6.389   7.196   2.843  1.8141 -1.5475 -1.9713
  640MOL0     H84444   6.046   7.204   2.648 -0.0422  0.2531  1.0557
  640MOL0     H84445   5.871   7.298   2.525 -1.6003  0.9107  0.8676
  640MOL0     H84446   5.651   7.261   2.392 -0.9493 -0.3687 -0.0266
  640MOL0     H84447   5.694   7.425   2.453  1.8967 -0.5776  2.5344
  640MOL0     H84448   5.480   7.418   2.306 -0.9155  0.7708  0.2965
  640MOL0     H84449   5.436   7.456   2.470  0.2387 -0.1239 -0.4091
  640MOL0     H84450   5.370   7.225   2.517 -0.1353  0.0099  0.5330
  640MOL0     H84451   5.447   7.162   2.372  2.4462  0.8883  1.6001
  640MOL0     H84452   5.195   7.325   2.404 -1.2924  0.1409 -1.5046
  640MOL0     H84453   5.263   7.293   2.237  0.6672  0.0207  0.2342
  640MOL0     H84454   5.231   7.064   2.263 -0.9921 -0.3590  0.2175
  640MOL0     H84455   5.072   7.127   2.288  0.3011  0.0479 -2.4812
  640MOL0     H84456   5.142   7.106   2.536  0.9391  3.0155 -2.0042
  640MOL0     H84457   5.278   7.009   2.483  1.2137  3.3415  1.4951
  640MOL0     H84458   4.985   6.948   2.464 -0.1869  0.7161 -1.1561
  640MOL0     H84459   5.099   6.893   2.341  2.9207  3.6127 -1.9731
  640MOL0     H84460   5.051   6.723   2.555  0.1482 -0.4044  0.0169
  640MOL0     H84461   5.121   6.850   2.649 -1.6800  2.2257 -1.5994
  640MOL0     H84462   5.567   7.138   2.788 -1.2520 -0.0595 -1.4335
  640MOL0     H84463   5.737   7.020   2.892 -1.4830  1.3381  0.5621
  640MOL0     H84464   6.151   6.859   2.964  0.2102 -0.1787  1.9547
  640MOL0     H84465   6.348   6.740   3.051 -0.8661  0.5730  0.2471
  640MOL0     H84466   7.380   6.924   4.407  0.7876  0.7251 -0.0099
  640MOL0     H84467   7.605   6.958   4.542 -0.8546  2.1801  0.1808
  640MOL0     H84468   7.822   7.003   4.954  1.7131  1.0817  0.6815
  640MOL0     H84469   8.011   6.979   5.112  2.6485  0.6769 -0.5937
  640MOL0     H84470   8.236   6.949   5.205 -0.0871  1.0941 -1.1877
  640MOL0     H84471   8.290   6.935   5.042 -2.0904 -1.5155 -1.1090
  640MOL0     H84472   8.484   6.889   5.188 -1.9123  1.2183  4.9290
  640MOL0     H84473   8.395   6.778   5.281  1.3233  3.6332  0.4173
  640MOL0     H84474   8.458   6.735   4.988 -1.4890  2.0602  0.5665
  640MOL0     H84475   8.363   6.620   5.091 -1.3012  1.4344  0.8794
  640MOL0     H84476   8.559   6.572   5.228  0.2559  2.2077  1.0196
  640MOL0     H84477   8.583   6.516   5.071 -1.2265  0.2709 -0.5727
  640MOL0     H84478   8.902   6.781   5.106 -0.9886  3.5760  0.3776
  640MOL0     H84479   8.110   6.606   4.924  0.9065  0.8364 -0.0674
  640MOL0     H84480   7.901   6.633   4.773  0.6693 -0.2772 -0.7922
  641MOL0     O84481   6.166   9.722   8.896 -0.1446 -0.4474  0.7971
  641MOL0     C84482   6.160   9.797   8.996 -0.3731  0.3024 -0.2219
  641MOL0     O84483   6.044   9.844   9.047  0.5094  0.0813  0.1597
  641MOL0     C84484   5.917   9.810   8.992  0.1421  0.4901 -0.0937
  641MOL0     C84485   5.818   9.816   9.085  0.9274  0.0806 -0.5339
  641MOL0     C84486   5.684   9.789   9.045  0.3521 -0.2466  0.5235
  641MOL0     C84487   5.651   9.761   8.908  0.1325 -0.4109  0.7424
  641MOL0     O84488   5.531   9.718   8.861 -0.2750  0.5325 -0.0124
  641MOL0     C84489   5.427   9.706   8.959  0.2961 -0.3798 -0.0099
  641MOL0     C84490   5.316   9.632   8.892 -0.0215 -0.4581 -1.0065
  641MOL0     C84491   5.189   9.637   8.981  0.2589 -1.1964 -0.1262
  641MOL0     C84492   5.079   9.547   8.915 -0.4701 -0.1948 -0.2264
  641MOL0     C84493   4.973   9.509   9.018  0.2380 -0.1175  0.0123
  641MOL0     C84494   4.856   9.450   8.943  1.0989 -0.4784 -0.6331
  641MOL0     C84495   4.757   9.431   9.064 -0.1895 -0.0317 -0.1745
  641MOL0     C84496   4.653   9.322   9.037 -0.2771 -0.5681 -0.2049
  641MOL0     N84497   4.560   9.343   8.920 -0.8848 -0.9030 -0.6419
  641MOL0     C84498   4.587   9.300   8.793  0.5860 -1.4413  0.3839
  641MOL0     C84499   4.465   9.282   8.735  0.0815 -0.0470 -0.5395
  641MOL0     C84500   4.427   9.242   8.591 -0.8532  0.4757  0.2425
  641MOL0     C84501   4.409   9.093   8.550 -0.0337  0.3224 -0.0335
  641MOL0     C84502   4.319   9.022   8.643  0.1005  0.0759 -0.2241
  641MOL0     C84503   4.176   9.084   8.641  0.3777  0.2334 -0.8240
  641MOL0     O84504   4.065   8.987   8.669  0.2444  0.8150  0.0499
  641MOL0     C84505   3.931   9.033   8.658 -0.8846  0.3849  0.5136
  641MOL0     C84506   3.837   8.944   8.599 -0.5494  0.5601 -0.1641
  641MOL0     C84507   3.702   8.975   8.602 -0.0718 -0.3504  0.2263
  641MOL0     C84508   3.661   9.098   8.647 -0.8945 -0.4595  0.0598
  641MOL0     C84509   3.519   9.132   8.644  0.7462  1.0355  0.4706
  641MOL0     O84510   3.428   9.037   8.639  0.0516 -0.4168 -0.5670
  641MOL0     C84511   3.293   9.064   8.615 -0.1818 -1.1151 -0.0074
  641MOL0     C84512   3.209   8.964   8.659  0.5882 -0.1008  0.2432
  641MOL0     C84513   3.070   8.977   8.641  0.3342  0.5205 -0.1800
  641MOL0     C84514   3.007   9.080   8.567  0.3364 -0.0408  1.1780
  641MOL0     O84515   2.876   9.090   8.536  0.0554  0.0436 -0.6684
  641MOL0     C84516   2.794   8.984   8.588  0.5460  1.4964  0.7421
  641MOL0     C84517   2.649   9.035   8.563  0.5591 -0.2069  0.2775
  641MOL0     C84518   2.612   9.175   8.583  0.3385  0.8373 -0.2822
  641MOL0     C84519   2.463   9.176   8.578  0.4120  0.4932  0.8726
  641MOL0     C84520   2.411   9.314   8.604  0.6391 -1.4561 -0.2822
  641MOL0     C84521   2.272   9.340   8.553 -0.4588 -0.0557 -0.4948
  641MOL0     C84522   2.250   9.315   8.399  0.3835  0.0654 -0.6809
  641MOL0     C84523   2.140   9.405   8.346  0.0973 -0.2310 -0.3920
  641MOL0    Cl84524   2.186   9.572   8.327  0.1246 -0.0039  0.7340
  641MOL0     C84525   3.094   9.171   8.514 -0.4833 -0.0526  1.3103
  641MOL0     C84526   3.234   9.170   8.547 -0.0346 -0.5317  0.7127
  641MOL0     O84527   3.491   9.253   8.651 -0.0384  0.0294 -0.5017
  641MOL0     C84528   3.759   9.195   8.693  0.1923  0.2839  0.1043
  641MOL0     C84529   3.894   9.160   8.701 -0.1343  1.1504  0.3672
  641MOL0     N84530   4.369   9.305   8.833 -0.3154  0.4057  0.7323
  641MOL0     N84531   4.424   9.340   8.937 -0.1847  0.2635 -0.0835
  641MOL0     C84532   5.756   9.759   8.819 -0.3303  0.3463  0.7505
  641MOL0     C84533   5.889   9.787   8.857  0.2194 -0.0465 -0.2238
  641MOL0     C84534   6.290   9.832   9.067  0.4002  0.5852  1.0710
  641MOL0     C84535   6.415   9.778   9.028 -0.5592  0.1929 -0.6462
  641MOL0     C84536   6.532   9.827   9.084 -0.0483  0.2469 -0.1613
  641MOL0     C84537   6.523   9.922   9.185 -0.1689  0.2085  1.0788
  641MOL0     O84538   6.641   9.961   9.230 -0.2428 -0.6561 -0.6258
  641MOL0     C84539   6.637  10.070   9.321 -1.5920  0.2814  0.1982
  641MOL0     C84540   6.789  10.102   9.358  0.5164  0.2825 -0.3158
  641MOL0     C84541   6.794  10.214   9.463  1.0581  1.1450 -0.2962
  641MOL0     C84542   6.933  10.231   9.522  0.1997 -0.6242 -0.4788
  641MOL0     C84543   6.917  10.314   9.647 -0.2749  0.8740  0.2127
  641MOL0     C84544   6.890  10.404   9.734  0.6892  0.0176  0.7411
  641MOL0     C84545   6.404   9.986   9.217 -0.1699  1.1458 -1.2209
  641MOL0     C84546   6.293   9.945   9.152  0.5632  0.0180  0.3926
  641MOL0     H84547   5.841   9.838   9.189 -1.4594  0.0670  0.0640
  641MOL0     H84548   5.607   9.807   9.119  0.3526 -0.5944  0.6116
  641MOL0     H84549   5.396   9.802   9.000 -0.8321 -1.0950  0.8895
  641MOL0     H84550   5.456   9.635   9.038  0.7738  0.1809  0.3198
  641MOL0     H84551   5.353   9.530   8.879  2.4788  0.3755 -0.8919
  641MOL0     H84552   5.289   9.665   8.791 -0.0374  1.1449 -0.5056
  641MOL0     H84553   5.151   9.740   8.978 -0.1964 -1.3873 -1.1536
  641MOL0     H84554   5.215   9.619   9.086 -0.0212  1.5406  0.5047
  641MOL0     H84555   5.031   9.613   8.842  1.4435 -0.2496 -1.5865
  641MOL0     H84556   5.110   9.451   8.873  0.1369  0.0817 -0.4196
  641MOL0     H84557   4.933   9.600   9.064  0.5248 -0.9997  2.1104
  641MOL0     H84558   5.007   9.446   9.101 -1.9082 -3.1001 -1.2156
  641MOL0     H84559   4.891   9.354   8.903  1.4088 -1.2312  1.3244
  641MOL0     H84560   4.823   9.517   8.863  2.3233 -1.0050 -1.6141
  641MOL0     H84561   4.805   9.402   9.158 -2.0696  2.7354  1.8086
  641MOL0     H84562   4.694   9.517   9.091  1.1512  1.0947 -0.5110
  641MOL0     H84563   4.600   9.314   9.132  2.5886 -1.6888  1.4116
  641MOL0     H84564   4.707   9.229   9.016  1.8804  0.9201 -1.6159
  641MOL0     H84565   4.679   9.320   8.738  0.5833  1.6656  1.2783
  641MOL0     H84566   4.512   9.285   8.537 -1.6271  1.0243 -0.5652
  641MOL0     H84567   4.332   9.289   8.566  0.2663  2.6171 -0.2554
  641MOL0     H84568   4.509   9.048   8.553 -0.2327 -0.0998  0.7023
  641MOL0     H84569   4.373   9.086   8.447  0.2939 -2.0608 -0.0375
  641MOL0     H84570   4.310   8.915   8.620  2.2364 -0.4047  0.9379
  641MOL0     H84571   4.346   9.033   8.748 -0.9339  0.8988 -0.0296
  641MOL0     H84572   4.137   9.135   8.553 -1.6453 -0.0579 -0.1707
  641MOL0     H84573   4.177   9.161   8.719  0.6894 -1.7364  1.2396
  641MOL0     H84574   3.880   8.853   8.560  0.7404  1.6511 -1.3897
  641MOL0     H84575   3.624   8.918   8.553 -1.0095 -0.5134  1.8497
  641MOL0     H84576   3.242   8.879   8.717 -0.6366 -1.1024 -0.4700
  641MOL0     H84577   3.018   8.892   8.685  3.6170 -1.9606 -0.6626
  641MOL0     H84578   2.816   8.977   8.695  0.4689 -1.1742  0.6523
  641MOL0     H84579   2.816   8.891   8.535 -2.9731  1.6830 -1.3388
  641MOL0     H84580   2.581   8.968   8.618  1.9116 -2.2269 -0.3776
  641MOL0     H84581   2.639   9.005   8.458 -1.6640  0.4135  0.2514
  641MOL0     H84582   2.660   9.237   8.506 -0.0429  0.5132 -0.7872
  641MOL0     H84583   2.646   9.213   8.680  0.3872  1.0322 -0.3737
  641MOL0     H84584   2.445   9.140   8.476 -0.5637 -1.4720  1.6897
  641MOL0     H84585   2.419   9.097   8.639  1.1738 -2.3421 -2.0027
  641MOL0     H84586   2.477   9.375   8.542  1.5383 -0.4948  1.5216
  641MOL0     H84587   2.424   9.345   8.708 -2.6979  1.5760 -0.5770
  641MOL0     H84588   2.257   9.445   8.578  0.5076  0.0728 -0.4022
  641MOL0     H84589   2.205   9.278   8.612 -1.2884  0.4715 -0.8681
  641MOL0     H84590   2.343   9.335   8.345 -1.0767  1.4420 -2.8351
  641MOL0     H84591   2.226   9.210   8.381  1.7264 -0.3144 -0.3780
  641MOL0     H84592   2.049   9.399   8.406  0.1067 -0.0450 -0.3578
  641MOL0     H84593   2.112   9.377   8.244 -0.4554  0.8783 -0.5683
  641MOL0     H84594   3.062   9.249   8.446  0.6642 -0.7162 -0.0557
  641MOL0     H84595   3.297   9.253   8.516 -0.3051 -1.7048 -3.5421
  641MOL0     H84596   3.738   9.298   8.720  1.4793  0.8817 -1.0469
  641MOL0     H84597   3.965   9.240   8.718  1.0352  0.7838 -2.3776
  641MOL0     H84598   5.740   9.737   8.714  0.7481  0.4759  0.5445
  641MOL0     H84599   5.975   9.806   8.794  0.7489  0.3275  0.5961
  641MOL0     H84600   6.416   9.703   8.950 -2.0888  1.5900 -2.0852
  641MOL0     H84601   6.627   9.782   9.059 -0.1194  1.1303 -2.2727
  641MOL0     H84602   6.585  10.035   9.411  2.5975 -3.7002  1.4529
  641MOL0     H84603   6.601  10.151   9.257  0.3213 -0.3902 -1.8501
  641MOL0     H84604   6.823  10.010   9.406 -2.0912 -0.1403  0.9584
  641MOL0     H84605   6.855  10.119   9.273  3.0161  1.3404  1.7184
  641MOL0     H84606   6.720  10.193   9.540  0.9645  0.5389 -0.5503
  641MOL0     H84607   6.773  10.306   9.407  1.0162  1.4439  0.2091
  641MOL0     H84608   6.978  10.136   9.552 -0.8559 -1.3554 -1.1595
  641MOL0     H84609   7.000  10.278   9.450  3.7665 -0.9482  2.3435
  641MOL0     H84610   6.858  10.484   9.798 -2.3934 -1.1741  0.8886
  641MOL0     H84611   6.401  10.073   9.282  0.4295  0.4494 -0.2429
  641MOL0     H84612   6.195   9.987   9.174 -0.0603  0.1142 -2.1932
  642MOL0     O84613   0.501   2.493   1.916  0.7542 -0.2113 -0.7209
  642MOL0     C84614   0.434   2.477   2.018 -1.2713 -0.1347  0.3644
  642MOL0     O84615   0.469   2.405   2.134  0.3400  0.2030  0.4633
  642MOL0     C84616   0.601   2.397   2.170 -0.2202  0.3492 -0.6550
  642MOL0     C84617   0.712   2.436   2.096  0.6179 -0.2646  0.0811
  642MOL0     C84618   0.840   2.386   2.136  0.6225 -0.8016  0.4803
  642MOL0     C84619   0.855   2.304   2.249  0.0788 -0.4286 -0.2171
  642MOL0     O84620   0.982   2.269   2.280 -0.1300  0.0770 -0.1650
  642MOL0     C84621   1.016   2.225   2.419 -0.4993  0.0304 -0.1291
  642MOL0     C84622   1.162   2.172   2.426  0.5217  0.3942 -0.2752
  642MOL0     C84623   1.272   2.281   2.439 -0.5716 -0.0101  0.5380
  642MOL0     C84624   1.303   2.310   2.588 -1.1955  0.3310 -0.6560
  642MOL0     C84625   1.397   2.435   2.587 -0.3049  1.0588  0.2229
  642MOL0     C84626   1.452   2.458   2.726 -0.0082  0.2988 -0.2541
  642MOL0     C84627   1.598   2.523   2.714  0.0430  0.6365 -0.4342
  642MOL0     C84628   1.584   2.677   2.675  0.3043 -0.7891  0.2781
  642MOL0     N84629   1.546   2.761   2.785  0.3834 -0.3276  0.1596
  642MOL0     C84630   1.638   2.814   2.869  0.5608  0.6627  0.2223
  642MOL0     C84631   1.572   2.913   2.937 -0.2018 -0.1812  0.1422
  642MOL0     C84632   1.628   2.997   3.040 -0.6644 -0.7386  0.0641
  642MOL0     C84633   1.543   3.112   3.063  0.3949 -0.6437 -0.3215
  642MOL0     C84634   1.589   3.212   3.179  0.5172  0.4655 -0.4149
  642MOL0     C84635   1.488   3.315   3.222  0.0062 -0.3520 -1.2310
  642MOL0     O84636   1.371   3.253   3.274  0.2861  0.8426 -0.0108
  642MOL0     C84637   1.257   3.329   3.307  0.3014  0.5771 -0.2668
  642MOL0     C84638   1.268   3.474   3.309  0.7371  0.1228  0.3527
  642MOL0     C84639   1.147   3.543   3.333  0.9522  0.3794 -0.0875
  642MOL0     C84640   1.025   3.475   3.362 -0.0209  0.2268  0.3489
  642MOL0     C84641   0.897   3.557   3.385  0.6698 -0.2993  0.1021
  642MOL0     O84642   0.786   3.500   3.425 -0.7996  0.0910  0.2886
  642MOL0     C84643   0.669   3.573   3.430  0.2041 -0.2548  0.2330
  642MOL0     C84644   0.622   3.615   3.559  0.7522 -0.2671  0.1994
  642MOL0     C84645   0.499   3.683   3.559  0.3628 -0.6561  0.6551
  642MOL0     C84646   0.432   3.713   3.442 -0.5008 -0.7986  0.9861
  642MOL0     O84647   0.311   3.773   3.459  0.4175  0.1487  0.4606
  642MOL0     C84648   0.238   3.811   3.349 -0.4320 -0.5300  0.5183
  642MOL0     C84649   0.100   3.862   3.388  0.1117  0.3698 -0.3387
  642MOL0     C84650   0.016   3.901   3.270  0.0031  0.3822  0.0268
  642MOL0     C84651  -0.097   3.999   3.306 -0.3899 -0.9928  0.3937
  642MOL0     C84652  -0.224   3.959   3.225  0.1769 -0.8429  0.1785
  642MOL0     C84653  -0.220   3.995   3.075  0.2398  0.5030  0.3516
  642MOL0     C84654  -0.351   3.940   3.018  0.1463  0.2507  0.1030
  642MOL0     C84655  -0.358   3.969   2.863  0.0318  0.1046 -0.1465
  642MOL0    Cl84656  -0.518   3.920   2.803  0.1400  0.0872  0.0253
  642MOL0     C84657   0.504   3.703   3.317  0.1406  0.0039  0.6457
  642MOL0     C84658   0.615   3.624   3.315  0.7457 -0.7342 -1.0064
  642MOL0     O84659   0.905   3.678   3.359 -0.3093  0.9151  0.4335
  642MOL0     C84660   1.016   3.338   3.365  0.2207 -0.5297  1.1068
  642MOL0     C84661   1.137   3.263   3.338  1.1047  0.1917  0.6074
  642MOL0     N84662   1.436   2.904   2.894 -0.2614 -0.1677 -0.8591
  642MOL0     N84663   1.420   2.814   2.814 -0.3788  0.3843  0.0819
  642MOL0     C84664   0.738   2.270   2.322 -0.3480 -0.3035 -0.1460
  642MOL0     C84665   0.613   2.313   2.282 -0.6043 -0.5110  0.1974
  642MOL0     C84666   0.284   2.509   2.020 -0.3522  0.0523  0.1370
  642MOL0     C84667   0.192   2.452   2.116 -0.6879  0.2281  0.8368
  642MOL0     C84668   0.051   2.472   2.096 -0.0700  0.4764 -0.2259
  642MOL0     C84669   0.001   2.556   1.989  1.0546  0.8605 -0.2012
  642MOL0     O84670  -0.132   2.589   1.992  0.0408  0.5957  0.3000
  642MOL0     C84671  -0.193   2.689   1.915  0.7124 -0.7574  0.2146
  642MOL0     C84672  -0.352   2.685   1.930  0.1072 -0.5585  0.3510
  642MOL0     C84673  -0.421   2.705   2.065  0.3160  0.2905 -0.2914
  642MOL0     C84674  -0.446   2.855   2.101  0.5721  0.2106  0.7873
  642MOL0     C84675  -0.586   2.882   2.125 -0.3048  0.2596 -0.1445
  642MOL0     C84676  -0.703   2.893   2.157  0.3852  0.0637  0.3966
  642MOL0     C84677   0.098   2.610   1.897  0.4028  0.4337  0.5528
  642MOL0     C84678   0.234   2.575   1.905 -1.0827  0.0620  0.5430
  642MOL0     H84679   0.718   2.501   2.009 -1.0885  3.4533  2.4699
  642MOL0     H84680   0.922   2.413   2.071  1.7172  0.3299  2.2414
  642MOL0     H84681   0.942   2.148   2.444 -1.9385  1.5637  0.5040
  642MOL0     H84682   0.994   2.314   2.478  0.2182 -0.8781  1.5947
  642MOL0     H84683   1.174   2.106   2.339 -0.7916  0.3024 -0.4129
  642MOL0     H84684   1.175   2.108   2.514 -1.2462  2.7122  1.7931
  642MOL0     H84685   1.243   2.374   2.390 -0.6062  0.1275  0.8164
  642MOL0     H84686   1.360   2.252   2.381 -0.4545  1.8527 -0.2830
  642MOL0     H84687   1.218   2.336   2.651 -0.9501  3.1185 -1.3221
  642MOL0     H84688   1.361   2.224   2.622 -1.4997 -0.5124 -2.1948
  642MOL0     H84689   1.343   2.526   2.560 -0.3286  0.3703 -2.2489
  642MOL0     H84690   1.462   2.413   2.502 -1.8125 -0.8973 -0.5008
  642MOL0     H84691   1.453   2.367   2.786 -0.9889 -0.1608 -0.9260
  642MOL0     H84692   1.380   2.526   2.773 -2.7589 -2.7882  0.3459
  642MOL0     H84693   1.661   2.505   2.801 -2.5699  1.5934  1.7637
  642MOL0     H84694   1.650   2.489   2.623  0.3252  2.8582 -1.1657
  642MOL0     H84695   1.511   2.687   2.595  0.2685  1.8303  0.5628
  642MOL0     H84696   1.684   2.700   2.638  0.4665  0.4719  1.4474
  642MOL0     H84697   1.741   2.782   2.881  0.1239 -0.4261  1.2276
  642MOL0     H84698   1.726   3.032   3.007  0.2208  0.3819  3.4661
  642MOL0     H84699   1.630   2.948   3.138  2.0055 -2.1056 -0.5684
  642MOL0     H84700   1.440   3.085   3.086 -0.2291  1.0611 -0.9907
  642MOL0     H84701   1.550   3.170   2.970 -0.3452  2.8785  1.6513
  642MOL0     H84702   1.603   3.144   3.265  0.8513  1.4820  0.3520
  642MOL0     H84703   1.681   3.266   3.154 -0.1018  1.3511 -0.7886
  642MOL0     H84704   1.473   3.367   3.127  0.1791  2.2876  0.1203
  642MOL0     H84705   1.523   3.385   3.297 -0.5330  2.5323 -3.5082
  642MOL0     H84706   1.356   3.529   3.276  1.8085  0.1909  3.0515
  642MOL0     H84707   1.131   3.650   3.319 -0.9513 -0.0295 -1.4907
  642MOL0     H84708   0.683   3.599   3.647  0.4398  1.7720  0.8421
  642MOL0     H84709   0.459   3.723   3.651  3.1208  1.6819  0.9758
  642MOL0     H84710   0.227   3.722   3.287 -0.1902 -0.4461  0.3554
  642MOL0     H84711   0.284   3.894   3.294 -1.6053 -0.5967 -0.6238
  642MOL0     H84712   0.114   3.952   3.448 -1.1657 -0.2330  0.9417
  642MOL0     H84713   0.048   3.793   3.456 -1.5202  2.5344  0.7405
  642MOL0     H84714  -0.030   3.808   3.234 -1.9412  0.7713  1.3585
  642MOL0     H84715   0.079   3.946   3.192 -1.1581  0.5074 -0.8869
  642MOL0     H84716  -0.122   3.999   3.413  0.5760 -2.1697  0.6519
  642MOL0     H84717  -0.058   4.097   3.278  2.8392 -2.3099 -0.2036
  642MOL0     H84718  -0.308   4.019   3.263  1.7831  1.2681  0.5500
  642MOL0     H84719  -0.249   3.854   3.246  2.2147 -0.8718  2.9788
  642MOL0     H84720  -0.139   3.943   3.024  1.1884  0.4240  1.8715
  642MOL0     H84721  -0.204   4.103   3.062  0.5039  0.8986  3.3455
  642MOL0     H84722  -0.375   3.834   3.032 -2.1269  0.7317  0.2251
  642MOL0     H84723  -0.426   4.003   3.067  2.2910  1.4415  2.0806
  642MOL0     H84724  -0.281   3.913   2.808 -0.9151 -0.3205 -1.0744
  642MOL0     H84725  -0.341   4.075   2.845  0.2029  0.0115 -0.5519
  642MOL0     H84726   0.467   3.745   3.224  1.1764 -4.1350 -1.8689
  642MOL0     H84727   0.662   3.606   3.219  0.2377 -2.4098 -0.9550
  642MOL0     H84728   0.921   3.287   3.380  0.0068 -1.5507 -2.7759
  642MOL0     H84729   1.131   3.155   3.330  2.2532  0.2014 -0.5674
  642MOL0     H84730   0.744   2.198   2.403  1.9733 -1.5241 -1.2951
  642MOL0     H84731   0.532   2.261   2.333 -0.2402 -1.2364  0.0468
  642MOL0     H84732   0.232   2.401   2.203 -0.9618  0.7679  1.2817
  642MOL0     H84733  -0.022   2.426   2.162 -1.7699  1.9479 -0.9873
  642MOL0     H84734  -0.164   2.666   1.812 -0.3672  1.4937 -0.6487
  642MOL0     H84735  -0.156   2.789   1.940  0.7033 -0.5447 -0.5853
  642MOL0     H84736  -0.409   2.754   1.867 -1.4236 -0.6533  1.5839
  642MOL0     H84737  -0.384   2.586   1.896 -4.1808  1.1368 -1.3190
  642MOL0     H84738  -0.359   2.660   2.143 -0.6596 -0.9785 -0.2020
  642MOL0     H84739  -0.516   2.650   2.068  0.8458 -0.6443 -0.2809
  642MOL0     H84740  -0.386   2.888   2.187  1.8530  1.7403 -0.6195
  642MOL0     H84741  -0.427   2.916   2.012  0.8638 -0.2709  0.5160
  642MOL0     H84742  -0.805   2.896   2.191  0.8251 -1.5708  2.0639
  642MOL0     H84743   0.062   2.678   1.820  0.9746  0.7255  0.5375
  642MOL0     H84744   0.296   2.624   1.832 -2.5841  0.6613 -0.3794
  643MOL0     O84745   8.167   6.883   3.921  0.2234 -0.4587 -1.0162
  643MOL0     C84746   8.142   6.946   4.020 -0.6546 -0.1014 -0.6948
  643MOL0     O84747   8.038   6.924   4.113 -0.2782  0.3353  1.3696
  643MOL0     C84748   7.940   6.828   4.109 -0.1187  0.0478  0.0215
  643MOL0     C84749   7.946   6.712   4.029  0.0970  0.5659  0.6195
  643MOL0     C84750   7.832   6.624   4.020 -0.4549  0.2601 -0.3118
  643MOL0     C84751   7.716   6.652   4.095  0.0376 -0.0551 -0.6663
  643MOL0     O84752   7.622   6.557   4.101  1.0814  0.3784  0.0504
  643MOL0     C84753   7.507   6.575   4.191  0.0855  0.5787 -0.9307
  643MOL0     C84754   7.404   6.462   4.176 -0.0358  0.0861  0.5113
  643MOL0     C84755   7.369   6.441   4.032 -0.1147  0.4755  0.4574
  643MOL0     C84756   7.248   6.353   4.023  0.8864 -0.2131  0.1853
  643MOL0     C84757   7.225   6.325   3.869  0.1405 -0.1834 -0.3668
  643MOL0     C84758   7.089   6.269   3.820 -0.0908 -0.2149 -0.0471
  643MOL0     C84759   7.063   6.129   3.879 -0.2386 -0.2904  0.7459
  643MOL0     C84760   6.950   6.058   3.811  0.2485  0.4784 -0.3451
  643MOL0     N84761   6.832   6.142   3.811 -0.3927  0.1751  0.2271
  643MOL0     C84762   6.799   6.215   3.703 -0.7754  0.1512  0.3821
  643MOL0     C84763   6.678   6.273   3.736  0.6457  0.3060 -1.0452
  643MOL0     C84764   6.594   6.339   3.641  0.0157  0.7007  0.7989
  643MOL0     C84765   6.623   6.307   3.488  0.2726  0.5449  0.1277
  643MOL0     C84766   6.538   6.376   3.375  0.7945 -0.4032  0.4486
  643MOL0     C84767   6.390   6.331   3.369 -0.4149 -0.3050 -0.1662
  643MOL0     O84768   6.321   6.389   3.482  0.1411  0.1367 -0.1818
  643MOL0     C84769   6.183   6.366   3.481  0.1066  0.8912 -0.0683
  643MOL0     C84770   6.116   6.430   3.585 -0.6535 -0.3620 -0.1293
  643MOL0     C84771   5.976   6.422   3.580 -0.6369  0.8887 -0.5086
  643MOL0     C84772   5.905   6.364   3.472 -0.2545 -0.2103  0.3025
  643MOL0     C84773   5.757   6.357   3.474 -0.2564 -0.6789 -0.7068
  643MOL0     O84774   5.698   6.400   3.591 -0.0154 -0.2872 -0.5736
  643MOL0     C84775   5.564   6.380   3.608 -0.6680 -0.5487  0.0292
  643MOL0     C84776   5.536   6.311   3.721 -0.4612 -0.9962 -0.2276
  643MOL0     C84777   5.406   6.284   3.755  0.0097  0.0341 -0.6637
  643MOL0     C84778   5.299   6.329   3.683  0.5312 -0.2856  0.1230
  643MOL0     O84779   5.177   6.297   3.740 -0.2204  0.6456  0.3603
  643MOL0     C84780   5.062   6.340   3.668 -0.4238  0.6564 -0.2285
  643MOL0     C84781   4.951   6.352   3.772 -0.1840 -0.2833  0.0374
  643MOL0     C84782   4.898   6.214   3.811 -0.7223 -0.2262 -0.0089
  643MOL0     C84783   4.784   6.213   3.920 -0.1791  0.4002 -0.4044
  643MOL0     C84784   4.712   6.075   3.913 -0.5667 -0.4062  1.3169
  643MOL0     C84785   4.578   6.100   3.995  0.5733 -0.1742 -0.7143
  643MOL0     C84786   4.487   5.979   4.013 -0.2232  0.6563  0.6533
  643MOL0     C84787   4.557   5.851   4.062 -0.9859 -0.0239  0.1076
  643MOL0    Cl84788   4.658   5.872   4.213  0.3780 -0.4690 -0.1411
  643MOL0     C84789   5.328   6.386   3.559 -0.4473  0.3631  0.0258
  643MOL0     C84790   5.461   6.416   3.515  0.0892 -0.3320  0.0692
  643MOL0     O84791   5.701   6.320   3.372  0.5780  0.0766  0.3577
  643MOL0     C84792   5.973   6.313   3.365 -0.2774  0.2358 -0.3759
  643MOL0     C84793   6.108   6.306   3.373  0.2437 -0.0153  1.1960
  643MOL0     N84794   6.642   6.236   3.870  0.1681 -0.3668 -0.4191
  643MOL0     N84795   6.739   6.154   3.908 -0.3153  0.2156 -0.4755
  643MOL0     C84796   7.716   6.768   4.174  0.1080  0.0343  0.2142
  643MOL0     C84797   7.821   6.855   4.176 -0.9292  0.0188  0.3930
  643MOL0     C84798   8.246   7.037   4.078 -0.0136 -0.0240 -0.0232
  643MOL0     C84799   8.218   7.135   4.172 -0.4164 -0.5675  0.0308
  643MOL0     C84800   8.315   7.215   4.231 -0.2861 -1.1487 -0.8817
  643MOL0     C84801   8.441   7.224   4.174 -0.3930  0.2089 -0.1137
  643MOL0     O84802   8.533   7.313   4.232 -0.2987  0.3960  0.5064
  643MOL0     C84803   8.671   7.289   4.208 -0.8195 -0.5261 -0.9381
  643MOL0     C84804   8.734   7.431   4.229 -0.2104 -0.3303  0.1923
  643MOL0     C84805   8.689   7.550   4.132  0.5555  1.0175 -0.9174
  643MOL0     C84806   8.711   7.505   3.990 -0.7165 -0.6033  0.6327
  643MOL0     C84807   8.733   7.610   3.889 -0.0709  0.0173 -0.6061
  643MOL0     C84808   8.732   7.669   3.783 -0.4251 -1.6673  0.5233
  643MOL0     C84809   8.471   7.117   4.079  0.1291 -0.4817  0.0889
  643MOL0     C84810   8.376   7.033   4.031 -0.4551 -0.0777 -0.0292
  643MOL0     H84811   8.039   6.678   3.984  0.1553 -2.4307  2.6783
  643MOL0     H84812   7.849   6.546   3.947  0.9053  0.2218  0.0058
  643MOL0     H84813   7.460   6.672   4.172 -1.4735  0.1765  0.6580
  643MOL0     H84814   7.544   6.566   4.293  1.8023 -2.3719 -1.6919
  643MOL0     H84815   7.326   6.479   4.252  0.7683 -0.7907  1.5789
  643MOL0     H84816   7.449   6.368   4.209 -1.9746 -0.0633  3.0498
  643MOL0     H84817   7.449   6.384   3.984 -1.6067  1.4945 -3.6388
  643MOL0     H84818   7.359   6.536   3.979 -0.9661  0.3144  0.3015
  643MOL0     H84819   7.263   6.260   4.078  0.1752  0.4288  1.5086
  643MOL0     H84820   7.159   6.396   4.071  1.1550 -2.2319  2.7082
  643MOL0     H84821   7.306   6.261   3.832 -0.4878  0.4072 -2.9072
  643MOL0     H84822   7.248   6.415   3.812  0.6988  0.6959  1.1869
  643MOL0     H84823   7.081   6.267   3.711  2.5410 -0.2653 -0.2954
  643MOL0     H84824   7.012   6.342   3.849 -0.2350 -0.8472  1.2711
  643MOL0     H84825   7.152   6.067   3.869  2.0026  2.6929  0.7393
  643MOL0     H84826   7.039   6.147   3.984  0.5905  0.9989  0.7309
  643MOL0     H84827   6.928   5.965   3.863 -2.5557  2.0755  1.5969
  643MOL0     H84828   6.968   6.031   3.706  0.2484  0.7224 -0.4090
  643MOL0     H84829   6.862   6.232   3.616 -0.0548  1.5261  1.1343
  643MOL0     H84830   6.604   6.447   3.657 -0.5884  0.7867  0.6165
  643MOL0     H84831   6.493   6.309   3.672 -0.5788  0.4918 -1.1583
  643MOL0     H84832   6.607   6.199   3.481  3.4147 -0.2685  3.0474
  643MOL0     H84833   6.729   6.326   3.469  0.6862 -0.6764  1.0771
  643MOL0     H84834   6.539   6.483   3.393  0.9615 -0.1830 -0.7890
  643MOL0     H84835   6.588   6.352   3.280  2.5218  0.9960  0.9640
  643MOL0     H84836   6.398   6.222   3.379  0.0907 -0.3147 -0.6532
  643MOL0     H84837   6.350   6.351   3.270 -1.3687  1.0293  0.4604
  643MOL0     H84838   6.167   6.487   3.663 -1.2097  1.1313 -0.8182
  643MOL0     H84839   5.925   6.471   3.662  1.4152  3.5855 -0.7195
  643MOL0     H84840   5.615   6.280   3.788 -1.3902  0.4850  1.6633
  643MOL0     H84841   5.395   6.238   3.853 -0.1094  0.0837 -0.6534
  643MOL0     H84842   5.021   6.278   3.588 -1.0854  2.3767 -1.2848
  643MOL0     H84843   5.079   6.440   3.626  0.5407  0.2438 -0.8585
  643MOL0     H84844   4.867   6.409   3.733 -1.0479 -1.4314  0.1580
  643MOL0     H84845   4.986   6.404   3.862 -2.1277 -1.7954  1.7907
  643MOL0     H84846   4.984   6.163   3.855 -0.2761 -0.2891 -0.9208
  643MOL0     H84847   4.872   6.164   3.717  0.9102  3.5680 -2.7537
  643MOL0     H84848   4.824   6.236   4.019 -0.4540  0.7854 -0.3802
  643MOL0     H84849   4.718   6.297   3.898  0.8875  1.1250 -0.9652
  643MOL0     H84850   4.771   5.992   3.953  0.4046 -0.7434 -0.6974
  643MOL0     H84851   4.685   6.054   3.809  0.1568  2.2241  0.5182
  643MOL0     H84852   4.512   6.177   3.953 -0.8642 -1.3722 -0.7486
  643MOL0     H84853   4.600   6.146   4.092 -2.8653  1.3786 -0.5245
  643MOL0     H84854   4.428   5.998   4.104 -0.0226 -0.3759  1.0223
  643MOL0     H84855   4.417   5.965   3.931  2.2561  0.7017 -1.6172
  643MOL0     H84856   4.610   5.805   3.978 -0.3714  3.1763 -1.3762
  643MOL0     H84857   4.469   5.790   4.083 -2.6134  2.2353  0.2025
  643MOL0     H84858   5.240   6.398   3.497 -1.5225  0.0826  1.4262
  643MOL0     H84859   5.492   6.460   3.421  1.7619 -0.4546  0.5315
  643MOL0     H84860   5.928   6.282   3.271 -1.5656 -0.6493  0.5055
  643MOL0     H84861   6.163   6.269   3.287  2.8047  2.5861  1.5568
  643MOL0     H84862   7.632   6.801   4.235  0.3170  0.9236  0.0352
  643MOL0     H84863   7.812   6.952   4.223  0.5709  0.3680  0.0265
  643MOL0     H84864   8.115   7.142   4.207 -0.5001 -0.7470 -0.1829
  643MOL0     H84865   8.283   7.290   4.303  0.7744  0.0221 -1.6013
  643MOL0     H84866   8.690   7.246   4.109 -0.3335 -1.0458 -0.6241
  643MOL0     H84867   8.711   7.213   4.276 -0.9882 -1.1293 -1.4934
  643MOL0     H84868   8.720   7.463   4.332 -1.6148 -0.1999 -0.0125
  643MOL0     H84869   8.843   7.420   4.222 -0.2943 -0.8163 -0.5442
  643MOL0     H84870   8.745   7.641   4.157  0.1213  0.7234  1.3202
  643MOL0     H84871   8.583   7.575   4.141  0.3236  0.1305 -1.0650
  643MOL0     H84872   8.801   7.445   4.007 -0.6638 -0.5089  0.6833
  643MOL0     H84873   8.628   7.443   3.953 -0.0195 -0.3335 -1.5146
  643MOL0     H84874   8.731   7.710   3.684  4.4495 -1.8081  0.1808
  643MOL0     H84875   8.573   7.097   4.047  0.7834  0.2374  1.6297
  643MOL0     H84876   8.410   6.949   3.970  2.8357 -0.3210  1.8779
  644MOL0     O84877   5.879   7.803   6.257 -0.1660  0.0819 -0.2272
  644MOL0     C84878   5.880   7.926   6.233 -0.4260  0.3010  0.0974
  644MOL0     O84879   5.772   8.011   6.216 -0.0134  0.4334 -0.6723
  644MOL0     C84880   5.657   7.946   6.234  0.0329  0.5144 -0.3886
  644MOL0     C84881   5.572   7.987   6.335  0.3187 -0.6013 -0.7085
  644MOL0     C84882   5.446   7.934   6.360 -0.2552  0.2664 -0.6304
  644MOL0     C84883   5.401   7.829   6.271  0.0793 -0.2505 -0.7721
  644MOL0     O84884   5.277   7.777   6.267  0.2097 -0.6313  0.3919
  644MOL0     C84885   5.181   7.831   6.353 -0.2929  0.3992 -0.5369
  644MOL0     C84886   5.035   7.776   6.322 -0.6999 -0.8490  0.6075
  644MOL0     C84887   4.937   7.811   6.432 -0.4096  0.5901  0.0097
  644MOL0     C84888   4.835   7.697   6.439 -1.3424  0.0039  0.3560
  644MOL0     C84889   4.717   7.736   6.537  0.0848  1.6198 -0.1569
  644MOL0     C84890   4.613   7.835   6.486  0.2093 -0.2695  0.1076
  644MOL0     C84891   4.507   7.879   6.574  0.5070  0.2681  0.6245
  644MOL0     C84892   4.379   7.781   6.567 -0.5643  0.0373 -1.1742
  644MOL0     N84893   4.279   7.833   6.661 -0.0001 -0.1022 -0.2429
  644MOL0     C84894   4.146   7.835   6.634  0.5375  1.0636  0.2776
  644MOL0     C84895   4.099   7.904   6.737 -0.3529  0.3764  0.0681
  644MOL0     C84896   3.957   7.930   6.755 -0.5946 -0.0444 -1.0952
  644MOL0     C84897   3.916   8.000   6.620  0.5146  1.2257 -0.6667
  644MOL0     C84898   3.787   8.070   6.656  0.2656  0.8691 -0.6562
  644MOL0     C84899   3.732   8.154   6.538  1.0318 -0.2360 -0.4847
  644MOL0     O84900   3.638   8.081   6.447 -0.1266 -0.4996  0.2325
  644MOL0     C84901   3.512   8.053   6.498  0.6534 -1.1478  0.8610
  644MOL0     C84902   3.457   8.102   6.625  0.0050 -0.4439 -0.4411
  644MOL0     C84903   3.327   8.069   6.653 -0.4895  0.3968 -0.1620
  644MOL0     C84904   3.246   7.985   6.573  0.1961 -0.8340 -1.0201
  644MOL0     C84905   3.124   7.921   6.625  0.7256 -0.2144 -0.4286
  644MOL0     O84906   3.055   7.839   6.539  0.4020  0.0555 -0.4502
  644MOL0     C84907   2.922   7.803   6.570  0.6833  0.1236  0.3296
  644MOL0     C84908   2.881   7.670   6.572  0.1112  0.1274 -0.0067
  644MOL0     C84909   2.748   7.633   6.579 -0.2424  0.1634 -0.2049
  644MOL0     C84910   2.653   7.727   6.587  0.4742  0.7915 -0.0427
  644MOL0     O84911   2.517   7.710   6.600 -0.1809 -0.9851 -1.1355
  644MOL0     C84912   2.462   7.579   6.607 -0.5061  0.7656  0.0486
  644MOL0     C84913   2.305   7.577   6.608  0.2764  0.1058 -0.0793
  644MOL0     C84914   2.249   7.444   6.576 -0.4316 -0.5710 -0.4485
  644MOL0     C84915   2.091   7.452   6.587 -0.7947 -0.2637 -0.3528
  644MOL0     C84916   2.049   7.311   6.552  0.2867 -0.3568 -0.3340
  644MOL0     C84917   1.891   7.298   6.549 -0.0009  0.4183  1.0377
  644MOL0     C84918   1.841   7.172   6.475  0.0110  0.0705  0.7665
  644MOL0     C84919   1.693   7.142   6.508  0.0484  0.0778 -1.0050
  644MOL0    Cl84920   1.662   7.088   6.683 -0.3575 -0.3139  0.0286
  644MOL0     C84921   2.683   7.864   6.589 -0.0375 -0.7163 -0.1797
  644MOL0     C84922   2.820   7.901   6.578  0.4459  1.5894  0.9973
  644MOL0     O84923   3.083   7.956   6.732  0.1172  0.3206  0.0883
  644MOL0     C84924   3.299   7.949   6.452 -0.1289  0.4526  0.4672
  644MOL0     C84925   3.431   7.986   6.412 -0.7922 -0.5336 -0.5399
  644MOL0     N84926   4.208   7.936   6.820  0.0168  0.4625  0.1872
  644MOL0     N84927   4.311   7.882   6.780  0.4763 -0.4429  0.0718
  644MOL0     C84928   5.485   7.791   6.173  0.0491 -0.5521  0.4690
  644MOL0     C84929   5.611   7.844   6.153 -0.0188  0.3183  0.8532
  644MOL0     C84930   6.009   8.001   6.241 -0.4071  0.4789  0.2378
  644MOL0     C84931   6.124   7.925   6.276  0.0828 -0.2985  0.9005
  644MOL0     C84932   6.249   7.986   6.283  0.7080  1.1887  0.1749
  644MOL0     C84933   6.263   8.126   6.264 -0.2813  0.1873 -0.4638
  644MOL0     O84934   6.386   8.176   6.263 -0.2697 -0.1127  0.2483
  644MOL0     C84935   6.424   8.225   6.403  0.1678 -0.0882 -0.3279
  644MOL0     C84936   6.533   8.327   6.383  0.2916 -0.4132  0.9511
  644MOL0     C84937   6.617   8.347   6.508 -0.4735  0.9520 -0.7669
  644MOL0     C84938   6.705   8.472   6.497  0.5104 -0.0080  0.0393
  644MOL0     C84939   6.799   8.478   6.383 -0.0432  0.2413 -0.5668
  644MOL0     C84940   6.878   8.495   6.294 -0.0643  0.0581 -0.0429
  644MOL0     C84941   6.145   8.195   6.229 -0.3391 -0.3103 -0.3655
  644MOL0     C84942   6.020   8.134   6.204 -0.2600 -0.1241  0.1438
  644MOL0     H84943   5.596   8.061   6.411 -0.9906 -2.1688  1.3313
  644MOL0     H84944   5.371   7.981   6.423 -1.9728 -1.9996 -0.8436
  644MOL0     H84945   5.179   7.940   6.338 -0.1471  0.2743 -1.5146
  644MOL0     H84946   5.213   7.817   6.457 -4.3633  0.1504  0.8709
  644MOL0     H84947   5.048   7.668   6.311 -0.7204 -0.6332 -2.6677
  644MOL0     H84948   4.997   7.824   6.231  0.4637  0.5610  0.8385
  644MOL0     H84949   4.886   7.905   6.408  0.0770  0.2268 -2.6982
  644MOL0     H84950   4.987   7.825   6.529 -1.1371 -1.9827  0.8412
  644MOL0     H84951   4.795   7.673   6.340  1.2906  1.3285 -1.1413
  644MOL0     H84952   4.888   7.611   6.480 -0.8565  0.6343  1.0860
  644MOL0     H84953   4.766   7.775   6.626  2.0261  0.7047 -0.7514
  644MOL0     H84954   4.657   7.648   6.561  0.5010  1.3018 -0.2625
  644MOL0     H84955   4.565   7.801   6.394 -0.5359 -0.4641  0.5585
  644MOL0     H84956   4.656   7.928   6.449  0.2561 -0.7339 -1.0542
  644MOL0     H84957   4.553   7.899   6.671  0.8683  3.5636 -0.1082
  644MOL0     H84958   4.479   7.981   6.543  0.3566  0.3299  0.9544
  644MOL0     H84959   4.414   7.679   6.588  2.2924  1.3590  1.1256
  644MOL0     H84960   4.336   7.780   6.467 -0.6850  0.7354 -1.1347
  644MOL0     H84961   4.100   7.796   6.544  3.6546 -1.1836 -0.5356
  644MOL0     H84962   3.925   7.988   6.843 -2.6593  0.1718 -1.9172
  644MOL0     H84963   3.924   7.827   6.773  0.2825 -0.3342 -1.1292
  644MOL0     H84964   3.897   7.927   6.541 -0.6776  0.7350  0.0358
  644MOL0     H84965   3.989   8.071   6.579  1.7353  0.5462  0.2530
  644MOL0     H84966   3.709   8.002   6.694  0.8755  2.0083  3.0512
  644MOL0     H84967   3.811   8.147   6.730  1.4796  1.9487 -2.1344
  644MOL0     H84968   3.815   8.187   6.474  1.0036  0.2082 -0.2940
  644MOL0     H84969   3.689   8.243   6.584  1.9512 -0.7318  1.4463
  644MOL0     H84970   3.516   8.146   6.705 -0.9141 -1.4249  0.8305
  644MOL0     H84971   3.290   8.097   6.750  0.3564  1.6168 -0.1652
  644MOL0     H84972   2.958   7.594   6.571 -0.6820 -0.6948 -0.9488
  644MOL0     H84973   2.722   7.528   6.570  1.6226 -0.2948 -0.7666
  644MOL0     H84974   2.497   7.519   6.691  3.6044 -0.0055 -1.9654
  644MOL0     H84975   2.498   7.524   6.519 -0.8168  1.3828 -0.4703
  644MOL0     H84976   2.270   7.656   6.541  2.9736  0.5678 -1.0617
  644MOL0     H84977   2.273   7.612   6.707  0.5297  0.7808 -0.2257
  644MOL0     H84978   2.288   7.383   6.657 -1.3041 -1.2246 -0.5119
  644MOL0     H84979   2.283   7.411   6.477  0.3466 -2.0428  0.2724
  644MOL0     H84980   2.055   7.487   6.684 -0.8963  1.3744 -0.9574
  644MOL0     H84981   2.057   7.517   6.506 -2.7173 -2.0583 -1.0832
  644MOL0     H84982   2.088   7.241   6.627 -0.4994 -1.8694 -1.2726
  644MOL0     H84983   2.096   7.285   6.457 -0.6917  2.1623 -1.5740
  644MOL0     H84984   1.844   7.379   6.492  1.2804  0.2935 -0.2501
  644MOL0     H84985   1.867   7.300   6.656 -0.6733 -0.3616  0.9090
  644MOL0     H84986   1.865   7.188   6.369  2.2878  2.0150  1.4813
  644MOL0     H84987   1.903   7.092   6.518 -1.1437 -0.9996  0.4991
  644MOL0     H84988   1.658   7.065   6.439  2.1465 -3.3157  1.4563
  644MOL0     H84989   1.629   7.229   6.487  0.9366  0.5953 -1.6505
  644MOL0     H84990   2.606   7.940   6.599 -0.1168 -0.9579  1.2634
  644MOL0     H84991   2.838   8.006   6.560  1.7345  0.9952 -1.7681
  644MOL0     H84992   3.246   7.876   6.392  4.3471  0.1081 -3.7602
  644MOL0     H84993   3.469   7.952   6.315 -2.2105  1.8223 -1.9980
  644MOL0     H84994   5.466   7.699   6.119 -2.3964 -0.0903  0.4207
  644MOL0     H84995   5.668   7.796   6.075  2.0628  0.3304  2.2996
  644MOL0     H84996   6.108   7.818   6.286 -1.3036 -0.2151 -0.1413
  644MOL0     H84997   6.341   7.930   6.298 -0.0972 -0.5227 -0.9525
  644MOL0     H84998   6.461   8.146   6.469 -2.3609  0.7631  2.3115
  644MOL0     H84999   6.338   8.277   6.446  0.0507  1.1656 -1.9752
  644MOL0     H85000   6.602   8.286   6.308  0.6934 -0.9903  1.6186
  644MOL0     H85001   6.501   8.420   6.337  1.3150 -1.2273 -1.5882
  644MOL0     H85002   6.685   8.264   6.529 -0.1145  1.3257 -0.4243
  644MOL0     H85003   6.548   8.371   6.589  0.8549  0.4159  0.5790
  644MOL0     H85004   6.640   8.559   6.489  0.7490  0.4230  2.1611
  644MOL0     H85005   6.752   8.507   6.589 -0.0149 -1.2801  0.8204
  644MOL0     H85006   6.929   8.511   6.201 -1.0681 -2.5994 -1.1447
  644MOL0     H85007   6.155   8.301   6.208 -1.2733 -0.5684 -2.3845
  644MOL0     H85008   5.934   8.198   6.190 -1.6966 -1.7517  1.0361
  645MOL0     O85009   0.042   3.725  11.113 -0.4007 -0.0847 -0.0204
  645MOL0     C85010   0.072   3.845  11.119  1.6111 -0.1833  0.1280
  645MOL0     O85011  -0.018   3.951  11.121  0.5242  0.1498  0.1824
  645MOL0     C85012  -0.152   3.940  11.080 -0.8014 -0.7870 -0.1457
  645MOL0     C85013  -0.243   4.028  11.143 -0.0374 -0.5025 -0.1491
  645MOL0     C85014  -0.379   4.025  11.107  0.1534 -0.7311 -0.2161
  645MOL0     C85015  -0.428   3.935  11.011  0.7250 -0.2106  1.2470
  645MOL0     O85016  -0.563   3.959  10.986 -0.5562  0.7215 -0.6172
  645MOL0     C85017  -0.629   3.859  10.911  1.1278  0.5613 -0.0281
  645MOL0     C85018  -0.771   3.883  10.915  0.0231 -0.0256  0.1988
  645MOL0     C85019  -0.840   3.781  10.819  0.4131  0.1689 -0.5266
  645MOL0     C85020  -0.992   3.807  10.824  0.3744 -0.9164  0.0176
  645MOL0     C85021  -1.087   3.707  10.752 -0.4302 -0.4340 -0.9308
  645MOL0     C85022  -1.227   3.747  10.757 -0.0493  0.1110 -0.0665
  645MOL0     C85023  -1.312   3.665  10.656  1.3377 -0.2450  0.8927
  645MOL0     C85024  -1.461   3.693  10.668  0.3177  0.3944 -0.3319
  645MOL0     N85025  -1.508   3.801  10.574  0.0581 -0.5783 -0.4835
  645MOL0     C85026  -1.516   3.792  10.442 -0.6052  0.3637 -0.0120
  645MOL0     C85027  -1.557   3.911  10.395  0.1761 -0.0595  0.0197
  645MOL0     C85028  -1.591   3.945  10.255 -0.0579  0.5413  0.8618
  645MOL0     C85029  -1.739   3.931  10.229  1.1118 -0.3811  0.1424
  645MOL0     C85030  -1.782   4.024  10.114 -0.4850  0.4467  0.5868
  645MOL0     C85031  -1.775   3.956   9.972  1.2094  0.2736  1.0190
  645MOL0     O85032  -1.868   3.850   9.973  0.1415  0.7948 -1.2281
  645MOL0     C85033  -1.993   3.859   9.916 -0.4596  0.4973 -0.4347
  645MOL0     C85034  -2.060   3.977   9.888  0.1796  0.6520  0.9396
  645MOL0     C85035  -2.194   3.973   9.844  0.0963  0.5039 -0.0173
  645MOL0     C85036  -2.259   3.852   9.838  0.4087  0.3778  0.9484
  645MOL0     C85037  -2.410   3.831   9.799  0.6453 -0.1320  0.6214
  645MOL0     O85038  -2.452   3.702   9.774  0.2686  0.4757  0.1549
  645MOL0     C85039  -2.571   3.668   9.713  0.7058  0.2951  0.9223
  645MOL0     C85040  -2.660   3.765   9.658  0.4835  0.4287  0.5250
  645MOL0     C85041  -2.789   3.719   9.615  0.2026 -1.1632  0.2762
  645MOL0     C85042  -2.823   3.587   9.605  0.4431  0.3484 -0.7387
  645MOL0     O85043  -2.939   3.554   9.535 -0.1799  0.1809  0.1270
  645MOL0     C85044  -2.951   3.414   9.483  0.6962  0.9288  0.0467
  645MOL0     C85045  -3.040   3.446   9.363  0.0085  0.4291  0.1006
  645MOL0     C85046  -3.072   3.324   9.277 -0.1099  0.2096  0.4849
  645MOL0     C85047  -3.149   3.360   9.150  0.0141 -1.0228 -0.3149
  645MOL0     C85048  -3.155   3.254   9.037 -0.2868 -0.9852  0.1390
  645MOL0     C85049  -3.243   3.296   8.921 -0.9400  1.1037  0.9035
  645MOL0     C85050  -3.390   3.289   8.963 -0.3976 -0.0067  0.4795
  645MOL0     C85051  -3.492   3.322   8.848  0.2760 -0.0782 -0.1570
  645MOL0    Cl85052  -3.639   3.393   8.928 -0.1485 -0.0698 -0.2384
  645MOL0     C85053  -2.727   3.501   9.665  0.7199 -0.2691 -1.0981
  645MOL0     C85054  -2.612   3.540   9.729 -0.3773 -0.3223 -0.6124
  645MOL0     O85055  -2.488   3.933   9.796 -0.6761  0.2240 -0.0379
  645MOL0     C85056  -2.189   3.736   9.866  0.4110  0.1074 -0.0034
  645MOL0     C85057  -2.054   3.738   9.909 -0.1506 -0.0248  0.5058
  645MOL0     N85058  -1.572   3.986  10.510  0.2687 -0.0809 -0.8257
  645MOL0     N85059  -1.545   3.922  10.615  1.1063  0.7649  0.1740
  645MOL0     C85060  -0.339   3.854  10.947  0.0473 -0.1099  0.2873
  645MOL0     C85061  -0.201   3.865  10.978  0.0059  0.4346  1.0110
  645MOL0     C85062   0.204   3.890  11.117 -0.5823  0.2049 -0.6930
  645MOL0     C85063   0.237   4.022  11.104 -0.4919 -0.4721  0.1034
  645MOL0     C85064   0.362   4.068  11.108 -0.1564 -1.0277  0.2120
  645MOL0     C85065   0.476   3.982  11.113 -0.6013  0.7213 -0.3076
  645MOL0     O85066   0.602   4.034  11.125  0.2373  0.1155  0.5466
  645MOL0     C85067   0.624   4.171  11.155  0.1236  0.1133  0.3537
  645MOL0     C85068   0.748   4.179  11.237 -0.3543  0.2739 -0.1396
  645MOL0     C85069   0.733   4.297  11.341 -0.0097 -0.6818  0.0527
  645MOL0     C85070   0.848   4.297  11.444 -0.1003  0.1247  0.0035
  645MOL0     C85071   0.973   4.346  11.382  0.5122  1.2897  0.1056
  645MOL0     C85072   1.067   4.398  11.337 -0.4008 -0.2337  1.4279
  645MOL0     C85073   0.447   3.843  11.132  0.0798 -0.4615  0.1260
  645MOL0     C85074   0.311   3.797  11.134 -0.4878  0.0400 -0.4650
  645MOL0     H85075  -0.217   4.099  11.221  1.2003  0.5417 -1.4550
  645MOL0     H85076  -0.454   4.091  11.150  1.5272  0.3975  0.5363
  645MOL0     H85077  -0.620   3.764  10.965 -1.9329  0.9081  1.2561
  645MOL0     H85078  -0.593   3.867  10.808 -0.5694  0.4118 -0.6656
  645MOL0     H85079  -0.787   3.987  10.886  1.0422  0.5180  1.4667
  645MOL0     H85080  -0.805   3.868  11.017  0.4513 -1.1847  0.1861
  645MOL0     H85081  -0.814   3.683  10.861 -1.0720  1.7366  4.8559
  645MOL0     H85082  -0.815   3.782  10.712 -0.4749  1.3997 -0.7421
  645MOL0     H85083  -1.021   3.806  10.929 -1.3703  1.2601 -0.3755
  645MOL0     H85084  -1.003   3.909  10.785  3.8391 -0.3111  0.3189
  645MOL0     H85085  -1.092   3.609  10.800 -2.5884 -0.1086 -0.4089
  645MOL0     H85086  -1.051   3.689  10.650  3.4041  1.3536 -0.0818
  645MOL0     H85087  -1.233   3.856  10.744  0.2248  0.0152 -1.1293
  645MOL0     H85088  -1.268   3.727  10.856 -2.0855 -0.9707 -1.0718
  645MOL0     H85089  -1.270   3.681  10.557 -0.9260  2.3609  0.2676
  645MOL0     H85090  -1.312   3.560  10.689  3.1322  0.0540  1.9615
  645MOL0     H85091  -1.488   3.724  10.769 -0.0626 -0.0459 -0.2952
  645MOL0     H85092  -1.511   3.598  10.649 -1.4423  1.3038 -0.4840
  645MOL0     H85093  -1.500   3.697  10.392  1.3513 -0.6243  2.2821
  645MOL0     H85094  -1.548   3.869  10.190  0.9662  0.7307  1.3098
  645MOL0     H85095  -1.543   4.042  10.239  1.6551  0.1197  3.1047
  645MOL0     H85096  -1.793   3.970  10.315 -2.6092 -0.3179 -2.0325
  645MOL0     H85097  -1.756   3.824  10.211  0.6020 -0.3946  0.6845
  645MOL0     H85098  -1.886   4.058  10.125 -1.3111 -2.2417  1.8808
  645MOL0     H85099  -1.719   4.112  10.101  2.0444 -1.6155 -2.6724
  645MOL0     H85100  -1.675   3.916   9.958  0.5645 -1.7035  1.7441
  645MOL0     H85101  -1.802   4.024   9.890 -1.9936 -2.4989 -0.4677
  645MOL0     H85102  -2.007   4.071   9.899 -0.1195  1.2807 -2.0155
  645MOL0     H85103  -2.254   4.063   9.835  1.1664  1.0603 -2.6475
  645MOL0     H85104  -2.625   3.864   9.631  1.4121 -0.5561 -2.3772
  645MOL0     H85105  -2.855   3.804   9.600 -2.8458 -2.3513  4.7606
  645MOL0     H85106  -3.008   3.344   9.544 -2.1308  2.5937 -0.4889
  645MOL0     H85107  -2.856   3.371   9.451 -0.8306 -3.7306  1.0833
  645MOL0     H85108  -2.981   3.517   9.303 -0.5709 -0.9391 -2.1914
  645MOL0     H85109  -3.127   3.507   9.391  1.1534  1.8385  0.7409
  645MOL0     H85110  -3.131   3.252   9.333  0.2170  0.9215  1.7710
  645MOL0     H85111  -2.983   3.270   9.245 -1.2988 -1.9647  0.6111
  645MOL0     H85112  -3.251   3.386   9.182 -0.1151 -0.9788 -0.7643
  645MOL0     H85113  -3.114   3.454   9.107  1.9985 -0.8068  1.5905
  645MOL0     H85114  -3.181   3.158   9.082 -2.8394 -0.6478 -0.4865
  645MOL0     H85115  -3.053   3.237   9.000 -1.1690 -1.1237 -2.4278
  645MOL0     H85116  -3.225   3.215   8.849  3.3984  2.6928 -0.1110
  645MOL0     H85117  -3.207   3.388   8.874  0.3431 -0.1693 -0.7304
  645MOL0     H85118  -3.421   3.189   8.997 -0.1854 -0.1917  0.1341
  645MOL0     H85119  -3.411   3.358   9.045 -0.7048  1.3989 -0.7528
  645MOL0     H85120  -3.505   3.230   8.790 -1.2389 -0.9873  1.5276
  645MOL0     H85121  -3.454   3.399   8.781 -2.4513  1.6116  0.1049
  645MOL0     H85122  -2.732   3.392   9.663 -2.0649 -0.4058  2.7142
  645MOL0     H85123  -2.540   3.479   9.782  1.7303  1.7463 -0.9171
  645MOL0     H85124  -2.241   3.641   9.866  0.0676  0.2799  1.5130
  645MOL0     H85125  -1.989   3.654   9.930  2.1968  1.3033 -1.0657
  645MOL0     H85126  -0.364   3.801  10.856 -0.0348  2.1785 -1.0952
  645MOL0     H85127  -0.122   3.806  10.933  0.0880  0.7823  0.6908
  645MOL0     H85128   0.162   4.099  11.087 -2.6300 -2.3054  0.7145
  645MOL0     H85129   0.361   4.176  11.096 -1.1959 -0.9735  0.6170
  645MOL0     H85130   0.539   4.221  11.202 -0.3698 -0.2546 -0.1397
  645MOL0     H85131   0.655   4.229  11.067  1.6451 -2.6314 -1.0422
  645MOL0     H85132   0.772   4.086  11.290  4.1441  1.3620  0.1919
  645MOL0     H85133   0.830   4.212  11.172 -2.0990  6.0811  0.0445
  645MOL0     H85134   0.636   4.310  11.390 -0.5426 -0.9733 -0.9020
  645MOL0     H85135   0.748   4.385  11.278 -3.2396 -0.0700 -0.0488
  645MOL0     H85136   0.824   4.359  11.531  1.4460  0.7440  0.0145
  645MOL0     H85137   0.868   4.194  11.476 -2.2858 -0.9489 -1.7616
  645MOL0     H85138   1.152   4.450  11.296  0.9357 -1.8681  1.9961
  645MOL0     H85139   0.523   3.766  11.138 -1.9665 -2.5938  0.1607
  645MOL0     H85140   0.289   3.691  11.143  2.9160 -0.7821 -0.4483
  646MOL0     O85141   2.110   3.313  11.228 -0.9175  0.3588 -0.0708
  646MOL0     C85142   2.131   3.339  11.113  0.5926 -0.4062  0.4715
  646MOL0     O85143   2.037   3.375  11.024  0.1523 -0.1511 -0.5493
  646MOL0     C85144   1.903   3.357  11.061  0.2868 -0.8061  0.3004
  646MOL0     C85145   1.810   3.461  11.055  0.6303 -0.4871  0.2176
  646MOL0     C85146   1.674   3.443  11.076  0.2835  0.6166  0.7018
  646MOL0     C85147   1.628   3.314  11.115  0.5817  0.7386  0.5861
  646MOL0     O85148   1.497   3.295  11.121  0.5253  1.2712 -0.8161
  646MOL0     C85149   1.431   3.189  11.191 -0.1032  0.6084 -0.0458
  646MOL0     C85150   1.291   3.235  11.222  0.8070  0.5066  0.0028
  646MOL0     C85151   1.195   3.240  11.103 -0.1337 -0.4795 -0.2431
  646MOL0     C85152   1.140   3.097  11.076 -0.4949  0.2084 -0.2192
  646MOL0     C85153   1.030   3.088  10.965  0.7598 -0.0201 -0.2580
  646MOL0     C85154   0.894   3.146  11.014 -0.7443 -0.5995  0.2567
  646MOL0     C85155   0.764   3.079  10.956  0.2453  0.2207  0.0129
  646MOL0     C85156   0.759   3.082  10.799 -0.0836  0.1329 -0.5406
  646MOL0     N85157   0.620   3.076  10.746  0.6649 -0.4605 -0.0959
  646MOL0     C85158   0.532   3.181  10.768 -0.5082 -0.3473 -0.0030
  646MOL0     C85159   0.434   3.154  10.678  0.0498  0.7126 -0.6813
  646MOL0     C85160   0.311   3.233  10.661  0.5593  0.2807  0.2040
  646MOL0     C85161   0.191   3.185  10.743  0.0371  0.1151 -1.0876
  646MOL0     C85162   0.137   3.058  10.688  0.7290  0.1379  0.3524
  646MOL0     C85163   0.004   3.032  10.764 -0.2974 -0.5592 -0.1730
  646MOL0     O85164  -0.109   3.124  10.782 -0.3410 -0.4003  0.7566
  646MOL0     C85165  -0.194   3.116  10.674  0.1747 -0.6564  0.2119
  646MOL0     C85166  -0.161   3.073  10.547  0.0064  0.6139  0.7181
  646MOL0     C85167  -0.271   3.046  10.469 -0.3556 -0.1720  0.1106
  646MOL0     C85168  -0.407   3.073  10.503  0.0518 -0.1653 -0.0450
  646MOL0     C85169  -0.518   3.042  10.417 -1.1282  0.1577 -1.0402
  646MOL0     O85170  -0.497   2.937  10.330  0.3181 -0.5834 -0.7883
  646MOL0     C85171  -0.595   2.879  10.258  0.9206  0.1764 -0.4749
  646MOL0     C85172  -0.581   2.851  10.118 -0.2912  0.3450  0.4632
  646MOL0     C85173  -0.686   2.797  10.042 -0.6605 -0.3525  0.5618
  646MOL0     C85174  -0.810   2.768  10.100  0.5833 -0.6065  1.0228
  646MOL0     O85175  -0.904   2.716  10.015 -0.6106 -0.9634 -0.2541
  646MOL0     C85176  -1.034   2.714  10.076  1.6019 -0.3381 -0.0575
  646MOL0     C85177  -1.127   2.681   9.955 -0.3362 -0.2425 -0.3296
  646MOL0     C85178  -1.139   2.796   9.861 -0.3206  0.2854  0.9021
  646MOL0     C85179  -1.247   2.757   9.752  0.2851  0.0501 -0.0812
  646MOL0     C85180  -1.276   2.867   9.651  0.8274 -0.2324 -0.2810
  646MOL0     C85181  -1.168   2.900   9.553 -1.0125 -0.3100  0.1583
  646MOL0     C85182  -1.101   3.041   9.565  0.1748 -0.0113  0.0037
  646MOL0     C85183  -0.984   3.040   9.656 -0.3342 -0.7940  0.1660
  646MOL0    Cl85184  -0.927   3.197   9.660 -0.2838 -0.1135 -0.0044
  646MOL0     C85185  -0.824   2.798  10.230  0.1280 -0.3828  0.3073
  646MOL0     C85186  -0.716   2.844  10.318 -0.6844  1.0500  0.0281
  646MOL0     O85187  -0.621   3.108  10.439  0.2284  0.2586  0.2660
  646MOL0     C85188  -0.425   3.132  10.634 -0.1202 -0.7360  0.7454
  646MOL0     C85189  -0.322   3.149  10.716 -0.3659  0.2129 -0.6725
  646MOL0     N85190   0.460   3.036  10.605 -1.0988  0.3634 -0.0974
  646MOL0     N85191   0.576   2.994  10.650 -0.9557  0.4385  0.3219
  646MOL0     C85192   1.719   3.208  11.122 -0.0310  0.4118 -0.1013
  646MOL0     C85193   1.857   3.230  11.110  0.1998 -0.0092 -0.0955
  646MOL0     C85194   2.274   3.350  11.068  0.0892 -0.0366 -0.7815
  646MOL0     C85195   2.310   3.421  10.957 -0.3328 -0.2859 -0.6422
  646MOL0     C85196   2.442   3.422  10.911  0.1965  0.4681 -0.5514
  646MOL0     C85197   2.540   3.352  10.981 -0.1468 -0.4178  0.8648
  646MOL0     O85198   2.669   3.328  10.927  0.1228 -0.8957 -0.1226
  646MOL0     C85199   2.780   3.367  11.001  0.3931  0.0959 -0.7234
  646MOL0     C85200   2.815   3.516  10.990 -0.2282 -0.3739  1.0732
  646MOL0     C85201   2.841   3.550  10.843  0.4605 -0.4986  0.1220
  646MOL0     C85202   2.841   3.704  10.827 -0.0797  0.1735  0.4097
  646MOL0     C85203   2.967   3.782  10.862  0.1023  0.7087 -0.2693
  646MOL0     C85204   3.066   3.843  10.900  0.5069 -0.0289  0.3344
  646MOL0     C85205   2.511   3.285  11.092  0.1937 -0.2831 -0.2161
  646MOL0     C85206   2.377   3.286  11.142 -0.2814  0.4452 -0.7796
  646MOL0     H85207   1.843   3.560  11.026 -0.5644 -0.1822 -0.1809
  646MOL0     H85208   1.598   3.521  11.077  0.4870  0.8135  1.8008
  646MOL0     H85209   1.478   3.175  11.289 -1.1705 -4.3186  0.0433
  646MOL0     H85210   1.430   3.094  11.136 -1.0021  1.1108 -0.9327
  646MOL0     H85211   1.289   3.341  11.246 -4.0218  1.1837 -2.2145
  646MOL0     H85212   1.245   3.170  11.297 -3.1651  0.9602 -1.7667
  646MOL0     H85213   1.230   3.287  11.011 -0.6118  0.7346  0.1734
  646MOL0     H85214   1.114   3.301  11.144  0.4112 -0.4507  0.8406
  646MOL0     H85215   1.232   3.041  11.055  1.9051  2.8200  2.3551
  646MOL0     H85216   1.086   3.055  11.161  0.1035  2.0838  1.1680
  646MOL0     H85217   1.012   2.982  10.947  3.6320 -1.1330  2.4668
  646MOL0     H85218   1.065   3.139  10.874  2.5286 -0.1527  0.3222
  646MOL0     H85219   0.893   3.250  10.981 -0.4414 -0.5913  0.2701
  646MOL0     H85220   0.878   3.138  11.122  0.2282  1.1072  0.5625
  646MOL0     H85221   0.746   2.976  10.989 -1.9098  0.5230 -0.1039
  646MOL0     H85222   0.679   3.140  10.987  0.3756  0.0856  0.6565
  646MOL0     H85223   0.811   2.990  10.768 -0.3240 -0.9588  2.0216
  646MOL0     H85224   0.820   3.166  10.765 -0.7668  0.5320 -0.7870
  646MOL0     H85225   0.542   3.263  10.839 -0.8327  0.5780 -0.9986
  646MOL0     H85226   0.278   3.237  10.557  1.2450  0.1557 -0.0247
  646MOL0     H85227   0.323   3.337  10.690 -0.1177  0.9836 -1.8625
  646MOL0     H85228   0.117   3.265  10.737  1.6098  1.8083  0.6944
  646MOL0     H85229   0.222   3.177  10.848 -1.1352  1.8994 -0.5595
  646MOL0     H85230   0.117   3.071  10.581  0.5523  1.7274  0.5574
  646MOL0     H85231   0.200   2.973  10.714 -2.9085 -2.7967  0.5197
  646MOL0     H85232   0.036   3.030  10.869 -3.8466  1.2415  1.1291
  646MOL0     H85233  -0.033   2.937  10.724 -0.1807 -0.5102 -0.3971
  646MOL0     H85234  -0.062   3.043  10.517 -0.5886  0.4066 -1.1242
  646MOL0     H85235  -0.250   2.994  10.376 -2.7461  0.9098 -1.1394
  646MOL0     H85236  -0.480   2.860  10.078 -0.6865  1.8471 -0.2863
  646MOL0     H85237  -0.651   2.774   9.942 -0.0234 -0.4536  0.8045
  646MOL0     H85238  -1.065   2.810  10.117  3.0342 -0.4349  1.3698
  646MOL0     H85239  -1.036   2.639  10.155 -2.7646  0.6157  0.9746
  646MOL0     H85240  -1.228   2.667   9.994  0.3719 -2.7468  0.8747
  646MOL0     H85241  -1.105   2.582   9.913 -0.3212  0.0692 -1.0634
  646MOL0     H85242  -1.047   2.808   9.803 -0.8842  0.6085  0.0576
  646MOL0     H85243  -1.156   2.893   9.908 -1.0260  1.6203 -1.8589
  646MOL0     H85244  -1.233   2.668   9.690  0.9232 -1.8231  2.5823
  646MOL0     H85245  -1.343   2.741   9.803 -1.1395  1.8494 -2.0118
  646MOL0     H85246  -1.304   2.954   9.712 -0.6315  0.4494 -1.8072
  646MOL0     H85247  -1.374   2.853   9.603 -0.7839  0.9537  2.4026
  646MOL0     H85248  -1.206   2.893   9.451  2.1444 -1.9277 -1.0320
  646MOL0     H85249  -1.090   2.824   9.559 -0.4335  0.1871 -0.8817
  646MOL0     H85250  -1.071   3.085   9.469  1.6017  3.3006  1.8017
  646MOL0     H85251  -1.182   3.101   9.607  0.9337  0.7527  0.4280
  646MOL0     H85252  -0.906   2.965   9.646  1.5904  1.2167 -0.8867
  646MOL0     H85253  -1.038   3.022   9.749  2.0361  2.8237  2.4961
  646MOL0     H85254  -0.914   2.770  10.284 -0.6405 -0.9618 -1.2109
  646MOL0     H85255  -0.744   2.867  10.420  2.2781 -0.4965  1.3125
  646MOL0     H85256  -0.527   3.154  10.662  1.1633  0.8102  4.9393
  646MOL0     H85257  -0.339   3.196  10.812  1.1029 -0.1209 -0.2296
  646MOL0     H85258   1.679   3.112  11.153  1.6232 -0.3853 -0.2974
  646MOL0     H85259   1.929   3.157  11.145  0.1675  0.6619  1.4428
  646MOL0     H85260   2.235   3.480  10.905 -0.6815  1.6073  1.8344
  646MOL0     H85261   2.472   3.475  10.822  0.5017 -0.4237 -0.9859
  646MOL0     H85262   2.862   3.298  10.979  1.2934  1.5240 -2.0133
  646MOL0     H85263   2.759   3.356  11.108 -0.4283 -0.2593 -0.9097
  646MOL0     H85264   2.725   3.573  11.013 -0.4950  0.9167 -2.4655
  646MOL0     H85265   2.894   3.544  11.059 -1.6829 -1.2110  3.1606
  646MOL0     H85266   2.768   3.494  10.783  1.0977  0.0452 -1.1833
  646MOL0     H85267   2.941   3.517  10.814  0.4744  0.1778 -0.6416
  646MOL0     H85268   2.845   3.726  10.720  3.6752 -0.1869  0.3215
  646MOL0     H85269   2.751   3.746  10.872 -0.2810 -1.4189  1.5973
  646MOL0     H85270   3.146   3.909  10.925 -1.6453  3.1542 -0.5308
  646MOL0     H85271   2.587   3.229  11.146  0.7431  1.4204  0.8552
  646MOL0     H85272   2.349   3.242  11.238 -0.4436  0.3355 -0.8756
  647MOL0     O85273  10.365   1.151   3.962  0.3097 -0.5050 -0.0077
  647MOL0     C85274  10.378   1.135   3.842 -0.0275  1.1395  0.2433
  647MOL0     O85275  10.286   1.170   3.747 -0.9255  0.2153 -0.2841
  647MOL0     C85276  10.154   1.171   3.772  0.6686 -0.4840 -0.1923
  647MOL0     C85277  10.073   1.267   3.698  0.2532  0.0993  0.4903
  647MOL0     C85278   9.936   1.265   3.713 -0.7526 -1.0022  0.5937
  647MOL0     C85279   9.873   1.185   3.806  0.1718 -1.3052  0.1790
  647MOL0     O85280   9.742   1.186   3.837  0.4243 -0.1826 -0.1191
  647MOL0     C85281   9.662   1.116   3.738 -0.4099  1.1436  0.2417
  647MOL0     C85282   9.540   1.058   3.811 -0.0332  0.3042 -0.6287
  647MOL0     C85283   9.439   0.992   3.726  0.5098 -0.4308 -0.4237
  647MOL0     C85284   9.322   0.929   3.806  0.5771 -0.0225 -0.0464
  647MOL0     C85285   9.231   0.844   3.724 -0.4682  0.8332  0.7482
  647MOL0     C85286   9.135   0.759   3.810 -0.4396 -0.2391 -0.1556
  647MOL0     C85287   9.066   0.656   3.719  0.6218  0.1406  0.6489
  647MOL0     C85288   8.973   0.551   3.788 -0.2508 -0.2253 -0.0889
  647MOL0     N85289   8.852   0.603   3.852  0.3456 -0.9017  0.1062
  647MOL0     C85290   8.803   0.734   3.844 -0.4065  0.1520 -0.0490
  647MOL0     C85291   8.718   0.743   3.945  0.1942 -0.2064 -0.2559
  647MOL0     C85292   8.657   0.872   3.993 -0.7951 -0.4129 -0.6672
  647MOL0     C85293   8.495   0.856   4.015 -0.2281  0.2388 -1.4761
  647MOL0     C85294   8.450   0.775   4.139  0.0980  1.1974 -0.1182
  647MOL0     C85295   8.303   0.756   4.142  0.2885  0.7131 -0.0731
  647MOL0     O85296   8.237   0.881   4.132 -0.3070  0.1457  0.2157
  647MOL0     C85297   8.105   0.885   4.125  0.0414  0.6558  0.0649
  647MOL0     C85298   8.015   0.777   4.128  0.4207  0.3289 -0.3165
  647MOL0     C85299   7.877   0.794   4.148  0.3062  0.2782 -0.0213
  647MOL0     C85300   7.821   0.926   4.141 -0.4781  0.6210  0.1487
  647MOL0     C85301   7.683   0.954   4.158 -0.2655  0.2034 -0.1481
  647MOL0     O85302   7.640   1.056   4.085 -0.0984 -0.5247  1.0502
  647MOL0     C85303   7.509   1.066   4.083  0.1951  0.0429  0.5209
  647MOL0     C85304   7.446   1.186   4.130 -1.2140  0.2538  0.7967
  647MOL0     C85305   7.308   1.199   4.129  0.3619  0.5369  0.5771
  647MOL0     C85306   7.227   1.094   4.070  0.2375  0.7916 -0.0257
  647MOL0     O85307   7.089   1.096   4.049  0.5478 -0.4485 -0.6370
  647MOL0     C85308   7.025   1.227   4.068  0.4127  0.3449 -0.4156
  647MOL0     C85309   6.877   1.201   4.074  0.1149 -0.6347  0.0712
  647MOL0     C85310   6.810   1.186   4.210  0.7183 -0.8782  0.2350
  647MOL0     C85311   6.664   1.136   4.183  0.8545  0.1385  0.0404
  647MOL0     C85312   6.586   1.173   4.313 -0.7395 -0.0855  0.3566
  647MOL0     C85313   6.440   1.135   4.295 -0.2368 -0.2451  0.5688
  647MOL0     C85314   6.363   1.183   4.422  0.9486  0.0443 -0.7027
  647MOL0     C85315   6.230   1.121   4.443 -0.0384 -0.4237 -0.1749
  647MOL0    Cl85316   6.250   0.965   4.498 -0.4951  0.1556  0.2286
  647MOL0     C85317   7.291   0.985   4.026 -0.0298  0.1118  0.5985
  647MOL0     C85318   7.429   0.968   4.024  0.1453 -0.0121 -0.2014
  647MOL0     O85319   7.623   0.883   4.239 -0.7478 -0.3845 -0.3152
  647MOL0     C85320   7.922   1.035   4.139 -0.3511 -0.2605  0.0659
  647MOL0     C85321   8.055   1.010   4.123  0.5756 -0.6808  0.2565
  647MOL0     N85322   8.717   0.624   4.013  1.3572 -0.3544 -0.2402
  647MOL0     N85323   8.799   0.545   3.956 -0.0217  0.9833 -0.5421
  647MOL0     C85324   9.956   1.099   3.877 -0.2889  0.6164 -0.0126
  647MOL0     C85325  10.092   1.085   3.864  0.5497  0.5224 -0.2040
  647MOL0     C85326  10.521   1.092   3.783  0.4696  0.1944 -1.2548
  647MOL0     C85327  10.618   1.040   3.870 -0.2571  0.2578  0.1537
  647MOL0     C85328  10.750   1.027   3.826  0.9358  0.2229 -0.5754
  647MOL0     C85329  10.784   1.065   3.693 -0.6524  0.3276 -0.0608
  647MOL0     O85330  10.907   1.047   3.637  0.6908  0.3521  0.4686
  647MOL0     C85331  11.009   0.977   3.706  0.2059 -0.0467 -0.3201
  647MOL0     C85332  11.083   1.063   3.815  0.2126  0.5780  0.3741
  647MOL0     C85333  11.109   1.199   3.752 -0.8404 -0.9969  0.1678
  647MOL0     C85334  11.185   1.275   3.854 -0.0260 -0.4675 -0.0145
  647MOL0     C85335  11.326   1.242   3.873 -0.5075  0.2741  0.3147
  647MOL0     C85336  11.435   1.202   3.910  0.7302  0.0934  0.2353
  647MOL0     C85337  10.688   1.106   3.604 -0.3343 -0.0397 -0.0467
  647MOL0     C85338  10.556   1.116   3.651  0.3582 -1.0072  0.1143
  647MOL0     H85339  10.133   1.311   3.619 -1.1161  0.4752 -0.3707
  647MOL0     H85340   9.874   1.328   3.650  0.0958 -1.2634 -0.5296
  647MOL0     H85341   9.707   1.033   3.683 -0.4561 -0.0075  1.8749
  647MOL0     H85342   9.616   1.182   3.663  1.1816  2.3068  0.2328
  647MOL0     H85343   9.488   1.138   3.865 -3.7475 -1.3079 -1.4731
  647MOL0     H85344   9.576   0.986   3.884 -1.4525  1.1723  1.0077
  647MOL0     H85345   9.481   0.912   3.664  0.8116 -2.2095  1.9457
  647MOL0     H85346   9.413   1.073   3.658 -2.2403 -0.4061  0.5438
  647MOL0     H85347   9.358   0.860   3.883  1.9335 -0.6844 -1.2252
  647MOL0     H85348   9.262   1.010   3.850 -0.7309 -0.6974 -0.5562
  647MOL0     H85349   9.298   0.771   3.677  0.0230  1.5432  0.3376
  647MOL0     H85350   9.178   0.907   3.653 -0.7943 -1.7678 -1.4752
  647MOL0     H85351   9.069   0.824   3.869 -0.4698 -2.9805  3.1197
  647MOL0     H85352   9.193   0.701   3.883  1.7771  1.2515 -0.6156
  647MOL0     H85353   9.020   0.716   3.639  0.1605 -3.6352 -2.1999
  647MOL0     H85354   9.138   0.603   3.656  0.7592 -0.8429  1.6051
  647MOL0     H85355   9.030   0.509   3.871 -0.6098  0.4483  0.5106
  647MOL0     H85356   8.957   0.473   3.713  2.7716  0.2544 -1.3805
  647MOL0     H85357   8.847   0.809   3.779  0.9286 -0.9111 -0.4049
  647MOL0     H85358   8.668   0.951   3.918  4.3697  0.4023  0.6255
  647MOL0     H85359   8.704   0.905   4.086 -2.4564  0.7128 -0.1774
  647MOL0     H85360   8.452   0.816   3.923  1.9392  0.4605 -2.6438
  647MOL0     H85361   8.455   0.954   4.039 -0.0126 -0.6824  3.8202
  647MOL0     H85362   8.489   0.673   4.134 -2.2752  0.2634 -0.9599
  647MOL0     H85363   8.482   0.814   4.236  0.0816 -1.8489  1.2138
  647MOL0     H85364   8.268   0.708   4.234 -1.3645  0.2343 -0.9274
  647MOL0     H85365   8.279   0.690   4.058 -1.5855  0.4163  0.6621
  647MOL0     H85366   8.056   0.676   4.123 -4.2412 -1.8411 -0.1242
  647MOL0     H85367   7.806   0.713   4.160 -1.9173  2.0665 -0.4739
  647MOL0     H85368   7.521   1.252   4.173 -1.3412  0.0733  1.2988
  647MOL0     H85369   7.271   1.286   4.183  2.8476  1.7926  0.3778
  647MOL0     H85370   7.055   1.300   3.992 -0.6663 -1.0089 -2.2295
  647MOL0     H85371   7.042   1.268   4.168  0.1365  1.2837 -0.7436
  647MOL0     H85372   6.862   1.106   4.023 -1.3764 -1.8163  2.4974
  647MOL0     H85373   6.825   1.286   4.028  0.7694 -0.3362 -0.1212
  647MOL0     H85374   6.821   1.282   4.261  1.6153 -0.1046 -1.3149
  647MOL0     H85375   6.865   1.117   4.275 -0.4594  1.8483  4.5128
  647MOL0     H85376   6.626   1.185   4.093  2.2747  3.0497  0.9131
  647MOL0     H85377   6.662   1.027   4.175  2.2961 -0.0724  1.8864
  647MOL0     H85378   6.616   1.274   4.345  4.9657 -0.7522 -1.5871
  647MOL0     H85379   6.630   1.104   4.386  1.5073 -1.6378 -2.2782
  647MOL0     H85380   6.433   1.030   4.265 -1.1690  0.0307 -0.2230
  647MOL0     H85381   6.400   1.189   4.209 -0.2695  0.3923  0.9747
  647MOL0     H85382   6.420   1.154   4.511  1.2430  3.1833  0.2497
  647MOL0     H85383   6.347   1.291   4.422 -4.5847 -0.4930 -2.1277
  647MOL0     H85384   6.168   1.111   4.353  1.2358 -1.4096 -0.9762
  647MOL0     H85385   6.175   1.176   4.520 -0.4128  2.0134 -2.0537
  647MOL0     H85386   7.229   0.906   3.984 -0.6123  0.4479  0.8129
  647MOL0     H85387   7.481   0.888   3.973  0.2996  0.3387 -0.5950
  647MOL0     H85388   7.892   1.138   4.159  0.3460  0.1273 -0.8225
  647MOL0     H85389   8.122   1.094   4.128 -2.5549  1.9368  2.6030
  647MOL0     H85390   9.904   1.037   3.949  0.2354  0.1252 -0.0530
  647MOL0     H85391  10.138   1.015   3.934 -2.6150 -0.3561  1.1519
  647MOL0     H85392  10.594   1.018   3.973 -1.9188  0.8198 -0.0814
  647MOL0     H85393  10.826   0.975   3.884  0.6864  0.2192 -0.2481
  647MOL0     H85394  11.087   0.960   3.631 -1.4344  0.8630 -2.3401
  647MOL0     H85395  10.968   0.882   3.744  0.1132 -1.0023 -2.6202
  647MOL0     H85396  11.020   1.065   3.904  0.5940  1.1376  0.6311
  647MOL0     H85397  11.178   1.018   3.844  2.1282  1.3260 -3.9674
  647MOL0     H85398  11.018   1.253   3.726  1.3677  1.8922 -2.2567
  647MOL0     H85399  11.171   1.189   3.662 -1.0523 -1.2231  0.0466
  647MOL0     H85400  11.181   1.377   3.815 -0.8811  0.0536  1.3639
  647MOL0     H85401  11.132   1.270   3.950  2.6780  1.5854  1.7616
  647MOL0     H85402  11.531   1.166   3.942  1.6252  1.2751 -0.9897
  647MOL0     H85403  10.713   1.117   3.499 -1.2510 -1.2409 -0.4053
  647MOL0     H85404  10.482   1.160   3.584  0.7386  0.2763  0.4902
  648MOL0     O85405   9.800   1.703   6.205  0.1045 -0.3391 -0.1472
  648MOL0     C85406   9.812   1.822   6.211 -0.5113 -0.6306 -0.4576
  648MOL0     O85407   9.714   1.911   6.223  0.1367 -0.3164 -0.2684
  648MOL0     C85408   9.578   1.883   6.198 -0.7000  1.1031 -0.0175
  648MOL0     C85409   9.506   1.977   6.119 -0.6076  0.0538  0.0557
  648MOL0     C85410   9.365   1.958   6.086 -0.2328  0.5386  0.4619
  648MOL0     C85411   9.307   1.842   6.137 -0.2248  0.4065 -0.6114
  648MOL0     O85412   9.178   1.805   6.107  0.5554  0.3718  0.3048
  648MOL0     C85413   9.079   1.899   6.059 -1.4350 -0.3611 -0.0058
  648MOL0     C85414   9.021   1.974   6.176  0.1482  0.9592 -0.2165
  648MOL0     C85415   8.947   1.886   6.287 -0.2498 -0.0974  1.1736
  648MOL0     C85416   8.822   1.811   6.242 -0.8841  0.3119 -0.3718
  648MOL0     C85417   8.746   1.798   6.373 -0.0777  0.7383  0.8551
  648MOL0     C85418   8.629   1.697   6.357  0.4819 -0.3187 -0.4762
  648MOL0     C85419   8.538   1.709   6.485  0.7887  0.9345  0.0932
  648MOL0     C85420   8.419   1.611   6.487  0.1590 -0.2421 -0.3643
  648MOL0     N85421   8.276   1.675   6.487 -0.5388 -0.1706  0.2476
  648MOL0     C85422   8.210   1.681   6.603  0.5461  0.2661 -0.5834
  648MOL0     C85423   8.083   1.704   6.573 -0.6414  0.3861  0.2665
  648MOL0     C85424   7.964   1.711   6.668 -0.1827 -0.0103 -0.1587
  648MOL0     C85425   7.841   1.677   6.590  0.4444 -0.3400 -0.3280
  648MOL0     C85426   7.709   1.700   6.673  0.1871  0.3918 -0.3866
  648MOL0     C85427   7.584   1.665   6.587  0.1978 -0.0622  0.5145
  648MOL0     O85428   7.469   1.707   6.656 -0.3487  0.2419  0.0619
  648MOL0     C85429   7.406   1.622   6.745 -0.1744  0.7640 -0.1455
  648MOL0     C85430   7.442   1.491   6.777 -0.3246 -0.3752  0.0962
  648MOL0     C85431   7.362   1.417   6.863  0.1328 -0.4016  0.3152
  648MOL0     C85432   7.263   1.475   6.944 -0.8651  0.5689 -0.3942
  648MOL0     C85433   7.203   1.394   7.047  0.1147 -0.4485 -0.3105
  648MOL0     O85434   7.230   1.260   7.048  0.8410  0.4580 -0.0960
  648MOL0     C85435   7.174   1.183   7.141  0.6267  0.3359  0.7987
  648MOL0     C85436   7.089   1.082   7.085  0.4472  0.3834 -0.1418
  648MOL0     C85437   7.049   0.973   7.160  0.8001  0.3235  0.1433
  648MOL0     C85438   7.092   0.953   7.292 -0.5699 -0.8174  0.2263
  648MOL0     O85439   7.051   0.857   7.377  0.3659  0.0532  0.8171
  648MOL0     C85440   6.971   0.746   7.326 -0.1189 -0.5879 -0.0093
  648MOL0     C85441   6.929   0.666   7.446 -0.3884  0.2473  1.0142
  648MOL0     C85442   6.816   0.565   7.426 -0.4954  0.8552 -0.3655
  648MOL0     C85443   6.791   0.486   7.555  1.0746  0.1176 -0.4796
  648MOL0     C85444   6.684   0.380   7.527  0.6772  0.6140 -0.3317
  648MOL0     C85445   6.659   0.295   7.652  0.4460 -0.3555 -0.3427
  648MOL0     C85446   6.517   0.230   7.643 -0.6720  0.0659  0.3455
  648MOL0     C85447   6.494   0.155   7.509  0.3905  0.1854  0.1741
  648MOL0    Cl85448   6.324   0.114   7.501 -0.2694  0.3196 -0.4260
  648MOL0     C85449   7.174   1.060   7.346  0.3748  0.1859  0.1058
  648MOL0     C85450   7.222   1.176   7.271 -0.8665  0.4915  0.6285
  648MOL0     O85451   7.116   1.455   7.113 -0.5994  0.6697 -1.5168
  648MOL0     C85452   7.238   1.613   6.925  0.3287 -0.4734 -0.1178
  648MOL0     C85453   7.310   1.682   6.826 -1.1762  0.2257 -0.0634
  648MOL0     N85454   8.080   1.708   6.433 -0.0712 -0.1383 -0.0227
  648MOL0     N85455   8.197   1.684   6.381  0.2535 -0.0176  0.5547
  648MOL0     C85456   9.376   1.759   6.228 -0.1352 -0.0588 -0.1201
  648MOL0     C85457   9.513   1.777   6.259 -0.1407  0.6065 -0.2156
  648MOL0     C85458   9.954   1.868   6.223  0.1362  0.5184 -0.2240
  648MOL0     C85459   9.977   2.001   6.256 -0.1326 -0.2801 -0.3782
  648MOL0     C85460  10.106   2.045   6.245  0.0288  0.3379  0.6858
  648MOL0     C85461  10.213   1.954   6.221 -0.7723 -0.7420 -0.4947
  648MOL0     O85462  10.346   1.987   6.198 -0.1559 -0.2619 -0.7433
  648MOL0     C85463  10.386   2.114   6.265  0.7933  0.7153 -0.3282
  648MOL0     C85464  10.532   2.139   6.251 -0.6344  0.0618 -0.3559
  648MOL0     C85465  10.572   2.165   6.108  0.1491  0.3571  0.2278
  648MOL0     C85466  10.572   2.317   6.081 -0.4509  0.4890 -0.8003
  648MOL0     C85467  10.600   2.343   5.941  0.4558  0.9089  0.1407
  648MOL0     C85468  10.607   2.368   5.827 -0.3372  0.3806  0.7894
  648MOL0     C85469  10.185   1.824   6.185  0.3438  0.5658 -0.4137
  648MOL0     C85470  10.054   1.784   6.187 -0.7651 -0.5836 -0.2777
  648MOL0     H85471   9.550   2.066   6.076  0.1621 -1.3310 -2.2429
  648MOL0     H85472   9.325   2.040   6.028 -1.6750 -1.6042 -1.7558
  648MOL0     H85473   9.009   1.837   6.002  0.2828 -1.2205 -1.2914
  648MOL0     H85474   9.117   1.968   5.983  0.0593 -1.0575  0.0734
  648MOL0     H85475   8.958   2.051   6.130 -0.6516  0.1600 -0.4827
  648MOL0     H85476   9.102   2.024   6.231 -0.0210 -1.9759  3.0402
  648MOL0     H85477   8.915   1.966   6.355 -0.2484  0.1428  0.8962
  648MOL0     H85478   9.018   1.825   6.344  0.5092  0.5535  0.9376
  648MOL0     H85479   8.764   1.859   6.162  1.7454  1.0113 -2.0000
  648MOL0     H85480   8.855   1.716   6.199 -0.1080 -0.8992  2.6910
  648MOL0     H85481   8.707   1.898   6.394 -2.3681  0.2186 -0.4713
  648MOL0     H85482   8.806   1.763   6.457 -0.6898 -0.3809  0.8385
  648MOL0     H85483   8.665   1.594   6.345  0.7677 -0.2968  0.1390
  648MOL0     H85484   8.561   1.725   6.276  1.3260  1.0034 -0.7713
  648MOL0     H85485   8.595   1.680   6.574  0.3000 -0.3199  0.0240
  648MOL0     H85486   8.515   1.814   6.503  0.4907  0.7955  0.5667
  648MOL0     H85487   8.440   1.544   6.571  2.4484  3.4817  2.3363
  648MOL0     H85488   8.429   1.558   6.391 -4.2039  0.5555 -1.5050
  648MOL0     H85489   8.252   1.665   6.702  0.1792 -2.6605 -0.8389
  648MOL0     H85490   7.959   1.811   6.713  0.2315 -1.1458  2.6666
  648MOL0     H85491   7.980   1.641   6.751  3.5184  1.2541  0.4051
  648MOL0     H85492   7.846   1.572   6.560  1.3925 -0.9934  1.8625
  648MOL0     H85493   7.836   1.738   6.500  3.0102 -0.3844 -0.5659
  648MOL0     H85494   7.705   1.647   6.768 -0.8458  0.0957 -0.5872
  648MOL0     H85495   7.703   1.809   6.687 -0.5012  0.3334 -0.2087
  648MOL0     H85496   7.580   1.559   6.560  0.7244  0.0436  0.0116
  648MOL0     H85497   7.579   1.716   6.490 -1.7775 -2.2180 -0.6307
  648MOL0     H85498   7.533   1.449   6.736  1.4803  1.4214  1.9600
  648MOL0     H85499   7.390   1.315   6.886  0.0363 -0.3785  0.5385
  648MOL0     H85500   7.059   1.075   6.981  2.9023 -1.1550 -0.8492
  648MOL0     H85501   6.993   0.889   7.121  4.1075 -2.3400  0.6050
  648MOL0     H85502   7.035   0.688   7.259  0.0248 -2.2387  1.4815
  648MOL0     H85503   6.879   0.786   7.283  1.9766  3.3048 -1.3637
  648MOL0     H85504   6.880   0.734   7.516 -1.6243 -0.4027  0.7909
  648MOL0     H85505   7.020   0.628   7.494  1.1879 -1.3110 -2.7836
  648MOL0     H85506   6.852   0.493   7.353 -0.7750 -2.8764  2.8115
  648MOL0     H85507   6.726   0.621   7.398 -0.4187  1.6944  0.9745
  648MOL0     H85508   6.892   0.447   7.575  1.1871  0.5374 -0.2091
  648MOL0     H85509   6.758   0.552   7.636 -1.2437  1.0357 -2.0542
  648MOL0     H85510   6.714   0.331   7.435 -0.1517  0.6422 -0.6268
  648MOL0     H85511   6.584   0.423   7.512  0.0143 -0.3350  1.0743
  648MOL0     H85512   6.654   0.364   7.736  1.1019  1.5649 -1.7929
  648MOL0     H85513   6.734   0.217   7.669 -0.7398 -1.2140  1.1701
  648MOL0     H85514   6.496   0.160   7.724 -1.0640 -1.8396 -1.3115
  648MOL0     H85515   6.443   0.309   7.659 -1.0285  0.0283 -0.9513
  648MOL0     H85516   6.558   0.067   7.523  0.9585  0.5846  0.1276
  648MOL0     H85517   6.524   0.201   7.414  1.7796  0.1369  0.5741
  648MOL0     H85518   7.210   1.047   7.447  2.3898 -1.0171 -0.7272
  648MOL0     H85519   7.296   1.249   7.303  0.7786 -0.8507  0.0341
  648MOL0     H85520   7.155   1.659   6.977 -0.0008 -0.1831 -0.8845
  648MOL0     H85521   7.293   1.789   6.818  0.4943  0.4971 -0.3448
  648MOL0     H85522   9.322   1.672   6.263  2.0800 -1.2493  0.5177
  648MOL0     H85523   9.557   1.715   6.336 -2.0137 -0.1025  0.3467
  648MOL0     H85524   9.896   2.067   6.287 -0.3081 -1.0089  0.7532
  648MOL0     H85525  10.121   2.150   6.271 -0.3788 -0.2339  3.4535
  648MOL0     H85526  10.370   2.095   6.371 -1.3665  2.8461 -0.2021
  648MOL0     H85527  10.327   2.197   6.224 -4.1299 -2.9747 -1.7482
  648MOL0     H85528  10.554   2.231   6.306  0.9324 -0.7308  0.4017
  648MOL0     H85529  10.600   2.065   6.295  0.5330  1.7804  0.8436
  648MOL0     H85530  10.500   2.120   6.039  0.5544  2.5383 -1.7889
  648MOL0     H85531  10.667   2.115   6.083  0.3222  0.4349  0.7298
  648MOL0     H85532  10.478   2.363   6.115  0.9915  2.9176  0.1793
  648MOL0     H85533  10.661   2.355   6.133  1.2201 -0.8110 -2.5783
  648MOL0     H85534  10.618   2.372   5.720  2.2785  3.8630  1.0177
  648MOL0     H85535  10.265   1.755   6.162 -0.6296 -0.2466 -1.4950
  648MOL0     H85536  10.024   1.681   6.169 -2.2590 -0.3942  0.8900
  649MOL0     O85537   4.708   1.766   2.452 -0.2601 -1.2538  0.1842
  649MOL0     C85538   4.674   1.811   2.344 -0.8399  0.3934 -0.2808
  649MOL0     O85539   4.570   1.765   2.266  0.3586  0.1374 -0.2168
  649MOL0     C85540   4.469   1.677   2.320 -0.8279  0.4632  0.0086
  649MOL0     C85541   4.370   1.649   2.230  0.1415 -0.6304 -0.2515
  649MOL0     C85542   4.258   1.573   2.266 -0.1626  0.9058 -1.3367
  649MOL0     C85543   4.259   1.505   2.393  0.5802 -0.7711  0.5340
  649MOL0     O85544   4.155   1.441   2.453 -0.3417 -0.4293  0.1572
  649MOL0     C85545   4.066   1.383   2.355 -0.3548 -0.2731  0.4307
  649MOL0     C85546   3.963   1.290   2.435 -0.6695 -0.3765  0.7339
  649MOL0     C85547   3.872   1.209   2.335  0.3268  0.2860  0.1145
  649MOL0     C85548   3.822   1.291   2.221  0.4514  0.3482 -0.0084
  649MOL0     C85549   3.726   1.210   2.133 -0.1399 -0.0559  0.8255
  649MOL0     C85550   3.788   1.108   2.031  0.2135  0.0785 -0.3980
  649MOL0     C85551   3.684   1.084   1.923  0.5358  0.1710  0.5778
  649MOL0     C85552   3.740   0.981   1.818 -0.2577 -0.5612 -0.3611
  649MOL0     N85553   3.638   0.934   1.727 -0.1961 -0.4527  0.4465
  649MOL0     C85554   3.656   0.934   1.594 -0.7668  0.4301 -0.2469
  649MOL0     C85555   3.549   0.875   1.545  0.2340 -0.7166 -0.0625
  649MOL0     C85556   3.522   0.870   1.397 -0.1451 -0.6090 -0.4195
  649MOL0     C85557   3.522   0.725   1.363  0.2795  0.3427  0.9052
  649MOL0     C85558   3.661   0.657   1.384 -1.2432  0.0981  0.4766
  649MOL0     C85559   3.783   0.733   1.323 -0.2436  0.3293  0.0024
  649MOL0     O85560   3.892   0.645   1.349 -0.0852  0.3934 -0.0225
  649MOL0     C85561   4.012   0.663   1.289 -0.0296  0.3864 -0.3075
  649MOL0     C85562   4.036   0.765   1.192  0.3108 -0.5328  0.9095
  649MOL0     C85563   4.170   0.789   1.145 -0.4580 -0.0885 -1.1014
  649MOL0     C85564   4.275   0.708   1.187 -0.5966  0.5218  0.5558
  649MOL0     C85565   4.419   0.741   1.141 -0.1307 -0.7425 -0.4800
  649MOL0     O85566   4.516   0.663   1.191 -0.5228 -0.1913 -1.0384
  649MOL0     C85567   4.648   0.683   1.173  0.6601 -0.1426 -0.0504
  649MOL0     C85568   4.747   0.582   1.182 -0.4782  0.1037 -0.2820
  649MOL0     C85569   4.882   0.605   1.145 -1.0713 -0.7112 -0.0631
  649MOL0     C85570   4.929   0.737   1.115  0.6127 -0.2710  0.2463
  649MOL0     O85571   5.065   0.775   1.103 -0.2408 -0.3804  0.2433
  649MOL0     C85572   5.167   0.679   1.130 -0.2423 -0.3180 -0.1521
  649MOL0     C85573   5.215   0.635   0.990  0.1621  0.0120  0.3005
  649MOL0     C85574   5.322   0.515   1.002  1.2372  0.4591  0.2135
  649MOL0     C85575   5.420   0.502   0.886 -0.3799 -0.2416  0.7116
  649MOL0     C85576   5.552   0.434   0.922  0.3695 -0.1946  0.9261
  649MOL0     C85577   5.629   0.441   0.798 -0.6084  0.1585 -0.2300
  649MOL0     C85578   5.755   0.354   0.808 -0.1868  0.3000 -0.2038
  649MOL0     C85579   5.856   0.430   0.900  0.3333 -0.1505 -0.5161
  649MOL0    Cl85580   5.997   0.322   0.901  0.1912  0.1368 -0.0103
  649MOL0     C85581   4.835   0.839   1.121  0.2746  0.9572  0.2738
  649MOL0     C85582   4.702   0.810   1.145  0.0202 -0.9709 -0.5507
  649MOL0     O85583   4.428   0.819   1.052 -0.2733  0.0219  0.5492
  649MOL0     C85584   4.251   0.607   1.282 -0.4017  0.2819 -0.4118
  649MOL0     C85585   4.121   0.581   1.330 -0.0132 -0.3957 -0.0017
  649MOL0     N85586   3.471   0.825   1.645  0.4413  0.6168 -0.5353
  649MOL0     N85587   3.527   0.867   1.756 -0.3202 -0.2929 -0.6580
  649MOL0     C85588   4.350   1.544   2.482 -0.0776 -0.8346 -0.3403
  649MOL0     C85589   4.463   1.626   2.448  1.2048  0.0765 -0.0197
  649MOL0     C85590   4.782   1.882   2.277 -1.4023 -0.8635 -0.3431
  649MOL0     C85591   4.905   1.911   2.344  0.0607 -0.9235 -0.3515
  649MOL0     C85592   4.992   1.990   2.287 -0.6264  0.7846  0.6280
  649MOL0     C85593   4.962   2.056   2.161 -0.6032  0.9206 -0.5499
  649MOL0     O85594   5.053   2.142   2.097  0.6582 -0.1925  0.5771
  649MOL0     C85595   5.188   2.152   2.154 -0.4201  0.6067 -0.0813
  649MOL0     C85596   5.274   2.250   2.074 -0.2975 -0.2475  0.6719
  649MOL0     C85597   5.283   2.204   1.935  0.3751 -0.0369  0.0057
  649MOL0     C85598   5.426   2.192   1.884  1.3825 -0.5431  0.8640
  649MOL0     C85599   5.426   2.093   1.780 -0.1430  0.1684  0.3943
  649MOL0     C85600   5.444   2.005   1.692  0.2661 -0.0810 -0.5496
  649MOL0     C85601   4.853   2.009   2.085 -0.9437  0.0451  0.4864
  649MOL0     C85602   4.763   1.935   2.148  0.2882 -0.8893  0.1948
  649MOL0     H85603   4.378   1.688   2.129 -2.4981 -1.5679 -0.9270
  649MOL0     H85604   4.173   1.565   2.199 -2.2101 -2.8007  1.3016
  649MOL0     H85605   4.116   1.329   2.275  1.0791 -0.5086  1.4604
  649MOL0     H85606   4.015   1.465   2.303  2.0076  0.8410 -0.2891
  649MOL0     H85607   3.910   1.349   2.511  1.5362  2.4508  0.2630
  649MOL0     H85608   4.030   1.226   2.493  2.3438 -0.3605 -2.4249
  649MOL0     H85609   3.793   1.160   2.393  1.0099 -1.5120 -0.4131
  649MOL0     H85610   3.937   1.127   2.301 -0.7765 -0.5421 -0.0339
  649MOL0     H85611   3.756   1.372   2.253 -0.5063 -1.3294  2.5375
  649MOL0     H85612   3.910   1.330   2.169  2.4760 -3.5224  0.0765
  649MOL0     H85613   3.656   1.276   2.082  0.0381  0.7411  1.5936
  649MOL0     H85614   3.660   1.151   2.198 -2.2465  2.8333  1.5093
  649MOL0     H85615   3.814   1.010   2.074  1.1123 -0.4535 -2.0437
  649MOL0     H85616   3.883   1.141   1.988  0.4073 -1.5770 -1.3519
  649MOL0     H85617   3.589   1.053   1.967 -1.7678  2.1372 -2.5760
  649MOL0     H85618   3.657   1.171   1.862  1.8398 -1.6048 -2.7274
  649MOL0     H85619   3.792   0.900   1.870 -0.9274  1.1399  3.2983
  649MOL0     H85620   3.811   1.028   1.750  0.4002 -2.5897 -1.1491
  649MOL0     H85621   3.730   0.984   1.532  0.1527 -0.2727  0.2584
  649MOL0     H85622   3.591   0.932   1.339  0.8734  1.3421  2.6131
  649MOL0     H85623   3.424   0.918   1.390  0.6781  1.0720 -1.1465
  649MOL0     H85624   3.493   0.711   1.259 -1.6592  2.0462  1.1636
  649MOL0     H85625   3.452   0.677   1.433  4.9435  0.6956  6.6589
  649MOL0     H85626   3.669   0.647   1.493  0.3059  1.6233  0.5421
  649MOL0     H85627   3.666   0.557   1.338  0.2592 -0.2924  1.4125
  649MOL0     H85628   3.802   0.835   1.357 -1.9258  1.5931 -2.4682
  649MOL0     H85629   3.759   0.740   1.216  1.5974  0.3966 -0.4427
  649MOL0     H85630   3.960   0.830   1.149  0.9350  0.1639  0.8343
  649MOL0     H85631   4.189   0.868   1.072  1.5300 -0.0613 -0.6154
  649MOL0     H85632   4.719   0.478   1.194 -0.8422 -0.1509 -2.7588
  649MOL0     H85633   4.951   0.522   1.135  0.6027  0.8706 -2.9477
  649MOL0     H85634   5.138   0.590   1.185 -1.7121  0.1683 -0.0846
  649MOL0     H85635   5.243   0.736   1.184  0.3671 -2.4426  1.3264
  649MOL0     H85636   5.257   0.725   0.944 -3.0460  0.4355 -2.1084
  649MOL0     H85637   5.134   0.607   0.923  1.5188 -0.5009 -1.1839
  649MOL0     H85638   5.272   0.420   1.025 -0.5561  1.8411  2.5745
  649MOL0     H85639   5.383   0.539   1.090  1.1109  0.9349  0.1719
  649MOL0     H85640   5.356   0.454   0.811 -0.3130 -0.6678  0.9207
  649MOL0     H85641   5.443   0.604   0.854 -1.2856  0.6202  2.6432
  649MOL0     H85642   5.541   0.330   0.955  1.8506 -0.2589  1.2619
  649MOL0     H85643   5.601   0.484   1.005  0.4655  0.8539  0.2437
  649MOL0     H85644   5.663   0.545   0.784 -2.4980  1.2297  2.4371
  649MOL0     H85645   5.566   0.400   0.719  0.9023  0.4338 -1.6382
  649MOL0     H85646   5.744   0.253   0.847 -2.6175  1.1598  1.5640
  649MOL0     H85647   5.790   0.332   0.706 -1.1006 -3.4593  0.1545
  649MOL0     H85648   5.817   0.447   1.001 -0.3916  0.3471 -0.8644
  649MOL0     H85649   5.878   0.531   0.866 -1.0582  0.2433 -0.3373
  649MOL0     H85650   4.875   0.940   1.115 -0.7351  1.3514 -0.0682
  649MOL0     H85651   4.640   0.898   1.149  0.2667 -0.7632 -1.0905
  649MOL0     H85652   4.319   0.531   1.319 -1.7664 -1.3103 -1.0690
  649MOL0     H85653   4.113   0.510   1.412  1.7744  2.0292  2.4959
  649MOL0     H85654   4.345   1.517   2.586  1.0112  0.8925  0.2088
  649MOL0     H85655   4.524   1.650   2.535 -2.1990 -1.2524  3.0014
  649MOL0     H85656   4.910   1.880   2.448  0.5336 -4.8441 -1.3774
  649MOL0     H85657   5.083   2.012   2.342  0.5930  2.5723 -1.9369
  649MOL0     H85658   5.228   2.051   2.147  0.9888  1.2484 -6.0801
  649MOL0     H85659   5.176   2.177   2.260  0.5952  0.7378  0.0105
  649MOL0     H85660   5.232   2.351   2.080  0.1127 -0.1036  1.2916
  649MOL0     H85661   5.369   2.256   2.129 -0.3904 -1.2145  0.9534
  649MOL0     H85662   5.237   2.285   1.878 -3.3368 -0.8183  1.6161
  649MOL0     H85663   5.229   2.112   1.909  3.3361 -2.1397  0.6448
  649MOL0     H85664   5.446   2.286   1.831  0.4619  0.0097  1.4751
  649MOL0     H85665   5.506   2.174   1.957  0.7453  1.7868  2.2647
  649MOL0     H85666   5.450   1.930   1.616  0.0395  1.3636 -2.0539
  649MOL0     H85667   4.840   2.045   1.984 -1.9377 -0.2554  0.5004
  649MOL0     H85668   4.666   1.918   2.101  0.3672  2.7623 -1.6773
  650MOL0     O85669   3.263   5.151   3.399  0.5387 -0.1563  0.2003
  650MOL0     C85670   3.352   5.242   3.398  0.5310 -0.1733  0.3396
  650MOL0     O85671   3.350   5.357   3.482  0.0005  0.2367 -0.1123
  650MOL0     C85672   3.232   5.372   3.557 -0.3055  0.5782  0.6295
  650MOL0     C85673   3.233   5.320   3.689  0.2369 -0.1128  0.7158
  650MOL0     C85674   3.121   5.325   3.768  0.2044  0.4152 -0.1467
  650MOL0     C85675   3.002   5.383   3.726  0.5968 -0.4494  0.8440
  650MOL0     O85676   2.898   5.383   3.821  0.2817  0.1598  0.3571
  650MOL0     C85677   2.791   5.299   3.770 -0.3163 -0.0373  0.1678
  650MOL0     C85678   2.734   5.210   3.873  0.3632 -0.3584 -0.0206
  650MOL0     C85679   2.587   5.167   3.840  0.8928  0.2645 -1.2273
  650MOL0     C85680   2.536   5.097   3.960  0.5719  0.5168 -0.4509
  650MOL0     C85681   2.396   5.046   3.936  1.4821 -0.1676  0.1612
  650MOL0     C85682   2.390   4.937   3.822 -1.1459 -0.9117  0.0351
  650MOL0     C85683   2.251   4.882   3.816  0.8593  0.0659  0.4127
  650MOL0     C85684   2.134   4.978   3.792  0.1027 -0.3006 -0.4135
  650MOL0     N85685   1.996   4.913   3.806  0.4342  0.5532 -0.2319
  650MOL0     C85686   1.910   4.886   3.702 -0.3218 -0.7036 -0.4449
  650MOL0     C85687   1.814   4.816   3.756 -0.0127  0.0701  0.1022
  650MOL0     C85688   1.668   4.784   3.698 -0.4880 -0.2299 -0.0098
  650MOL0     C85689   1.586   4.908   3.676  0.3983 -0.2770  0.3204
  650MOL0     C85690   1.549   4.990   3.814  0.2305  0.9665 -0.7609
  650MOL0     C85691   1.407   4.967   3.840 -0.2510 -0.6402 -0.0706
  650MOL0     O85692   1.367   5.037   3.963  0.6262 -0.2740  0.3362
  650MOL0     C85693   1.237   5.029   4.014  0.1652  0.5061 -0.7021
  650MOL0     C85694   1.198   5.091   4.127  0.2218 -1.0751 -0.1010
  650MOL0     C85695   1.078   5.075   4.182 -0.5143  0.1161  0.4523
  650MOL0     C85696   0.981   4.987   4.136 -0.8448  0.0503 -0.0990
  650MOL0     C85697   0.847   4.974   4.215  0.0800  0.5877 -0.0717
  650MOL0     O85698   0.755   4.905   4.148  0.0724  0.8189  0.9610
  650MOL0     C85699   0.617   4.918   4.165 -0.3561 -0.0322  0.5402
  650MOL0     C85700   0.566   5.047   4.177  0.2678 -0.9444  0.3220
  650MOL0     C85701   0.428   5.070   4.194 -0.0206  0.1430  1.0749
  650MOL0     C85702   0.344   4.952   4.203 -1.0297  0.6403 -0.1000
  650MOL0     O85703   0.209   4.982   4.203  0.3245  0.5187 -0.1114
  650MOL0     C85704   0.119   4.871   4.214 -0.0421  0.8241 -0.3540
  650MOL0     C85705  -0.025   4.913   4.238  0.9347  0.1488 -0.7006
  650MOL0     C85706  -0.114   4.786   4.242  0.3515 -0.7583  1.0310
  650MOL0     C85707  -0.265   4.822   4.228  0.9766 -0.3468 -0.0926
  650MOL0     C85708  -0.358   4.700   4.259  1.0355 -0.4874 -0.7806
  650MOL0     C85709  -0.507   4.738   4.234  0.8398 -0.3887 -0.0637
  650MOL0     C85710  -0.580   4.608   4.186  0.6510 -0.2606  0.4663
  650MOL0     C85711  -0.724   4.637   4.164 -0.5635  0.2222  0.6402
  650MOL0    Cl85712  -0.748   4.706   3.997 -0.1138  0.5650  0.2513
  650MOL0     C85713   0.401   4.821   4.188 -0.5076  0.2462  1.4277
  650MOL0     C85714   0.533   4.808   4.168 -0.2864 -0.3684 -0.1585
  650MOL0     O85715   0.823   5.025   4.324 -0.0810 -0.0637  0.2810
  650MOL0     C85716   1.022   4.913   4.023 -0.6247 -0.1156  0.9707
  650MOL0     C85717   1.147   4.931   3.968 -0.0573 -0.3203  0.2980
  650MOL0     N85718   1.853   4.776   3.885  0.4966  0.4410  0.0588
  650MOL0     N85719   1.966   4.835   3.915  0.2182 -0.1019 -0.5462
  650MOL0     C85720   3.003   5.447   3.597 -0.0758 -0.5363 -0.9250
  650MOL0     C85721   3.110   5.433   3.512 -0.5151 -0.3147 -0.5138
  650MOL0     C85722   3.476   5.226   3.315 -0.5488  0.2384  0.4228
  650MOL0     C85723   3.473   5.148   3.196  0.0407 -0.7300 -1.2067
  650MOL0     C85724   3.588   5.140   3.119  0.1479  0.0972  0.3951
  650MOL0     C85725   3.713   5.192   3.158  0.2215  0.1796  0.5115
  650MOL0     O85726   3.814   5.168   3.072  0.1871  0.6714  0.3457
  650MOL0     C85727   3.941   5.218   3.109 -0.3509 -0.1525  0.4589
  650MOL0     C85728   4.051   5.182   3.005  0.7234  0.4212  0.6648
  650MOL0     C85729   4.181   5.243   3.014  0.0608 -0.0192  0.0055
  650MOL0     C85730   4.262   5.186   2.894 -0.3125  0.4345 -0.3789
  650MOL0     C85731   4.399   5.244   2.904  0.0706 -0.0357 -0.1347
  650MOL0     C85732   4.511   5.292   2.906 -0.4712  0.6093  0.1369
  650MOL0     C85733   3.713   5.266   3.277  0.9574  0.5519 -1.4054
  650MOL0     C85734   3.597   5.280   3.356  0.9006 -0.2470  1.1865
  650MOL0     H85735   3.326   5.275   3.723 -0.2926 -1.2493  0.7180
  650MOL0     H85736   3.114   5.267   3.859 -3.6337  1.0394  0.1050
  650MOL0     H85737   2.809   5.239   3.681 -1.2299 -0.7115  0.4154
  650MOL0     H85738   2.709   5.363   3.737  0.6937 -0.0187 -2.5686
  650MOL0     H85739   2.742   5.262   3.969  2.2712 -1.2655  0.3591
  650MOL0     H85740   2.794   5.119   3.882 -0.6272 -0.9599  0.7141
  650MOL0     H85741   2.577   5.105   3.750 -1.4985 -0.4488 -0.5418
  650MOL0     H85742   2.529   5.259   3.822  2.2045  1.4591  0.3709
  650MOL0     H85743   2.599   5.011   3.984  3.3420  1.1745 -4.4505
  650MOL0     H85744   2.541   5.168   4.044 -2.3888  0.6136 -0.2549
  650MOL0     H85745   2.338   5.133   3.902  0.8536 -0.5443  0.2597
  650MOL0     H85746   2.344   5.006   4.023  2.1166  1.9056  1.5701
  650MOL0     H85747   2.448   4.849   3.851 -0.6237 -0.4484  0.4044
  650MOL0     H85748   2.424   4.969   3.723  1.4295 -3.1308  0.0909
  650MOL0     H85749   2.247   4.801   3.742  3.0664  0.2900 -0.0406
  650MOL0     H85750   2.238   4.834   3.914 -2.7259  0.7097  0.3762
  650MOL0     H85751   2.140   5.008   3.687 -1.3665  2.3421  0.1763
  650MOL0     H85752   2.133   5.066   3.857 -2.6819 -1.3300  1.1427
  650MOL0     H85753   1.898   4.927   3.603 -0.0298  0.4070 -0.0359
  650MOL0     H85754   1.615   4.722   3.771 -1.1449  0.5895  0.2277
  650MOL0     H85755   1.684   4.727   3.606  0.7419 -1.3410  0.8554
  650MOL0     H85756   1.497   4.879   3.620  1.9672 -0.3234 -2.3230
  650MOL0     H85757   1.638   4.981   3.612 -1.0214  0.7978  0.3357
  650MOL0     H85758   1.607   4.960   3.901 -2.0245 -1.8377 -0.0820
  650MOL0     H85759   1.557   5.098   3.801  1.8535  1.1469  1.2605
  650MOL0     H85760   1.398   4.859   3.852 -1.4517 -0.2679  3.6740
  650MOL0     H85761   1.351   5.003   3.754  3.2348 -0.5731 -2.5314
  650MOL0     H85762   1.262   5.166   4.173  0.2360 -1.0886 -0.0983
  650MOL0     H85763   1.059   5.122   4.278 -0.2643 -0.7973  0.9664
  650MOL0     H85764   0.624   5.138   4.192 -0.4182 -0.2755 -0.9553
  650MOL0     H85765   0.383   5.169   4.193  0.1029  0.2038  1.6080
  650MOL0     H85766   0.145   4.804   4.297 -1.0859  0.2772 -0.4526
  650MOL0     H85767   0.117   4.819   4.118 -2.0370  1.3657 -0.6489
  650MOL0     H85768  -0.060   4.969   4.151 -1.0461 -1.0221 -0.7275
  650MOL0     H85769  -0.029   4.977   4.327  0.0986  0.7713 -1.1732
  650MOL0     H85770  -0.087   4.743   4.339  1.7099  0.1070  1.0563
  650MOL0     H85771  -0.085   4.716   4.163 -1.2818  1.4220 -1.6747
  650MOL0     H85772  -0.290   4.909   4.290 -1.7199  0.3205 -1.9495
  650MOL0     H85773  -0.279   4.861   4.127  0.9446  1.6331  0.6343
  650MOL0     H85774  -0.349   4.656   4.358  2.2962 -0.1424 -0.7236
  650MOL0     H85775  -0.322   4.620   4.194 -0.3461 -0.8710 -1.0972
  650MOL0     H85776  -0.503   4.810   4.152 -1.5722 -2.5541 -2.2399
  650MOL0     H85777  -0.550   4.789   4.321  0.3968  1.6536 -1.4207
  650MOL0     H85778  -0.521   4.569   4.103  1.9898  0.2872  1.1157
  650MOL0     H85779  -0.588   4.526   4.258  0.6468 -0.3823  0.3260
  650MOL0     H85780  -0.768   4.703   4.239 -0.9399  0.6849  0.0229
  650MOL0     H85781  -0.779   4.544   4.150 -0.3516  0.3713 -1.5566
  650MOL0     H85782   0.342   4.730   4.188 -0.6120  0.2529 -1.1061
  650MOL0     H85783   0.565   4.704   4.169 -1.0985 -0.6234 -0.3643
  650MOL0     H85784   0.953   4.835   3.993 -0.7679 -0.1206  1.3090
  650MOL0     H85785   1.171   4.865   3.885 -0.3261 -0.7144  0.5256
  650MOL0     H85786   2.911   5.491   3.559  0.9906  0.9371 -1.9297
  650MOL0     H85787   3.104   5.456   3.406  0.1056  1.0061 -0.2889
  650MOL0     H85788   3.387   5.093   3.161  0.7765 -0.7285 -3.1752
  650MOL0     H85789   3.584   5.099   3.018  0.2726  0.3005  0.3075
  650MOL0     H85790   3.980   5.181   3.205  1.7252 -0.8036 -0.5764
  650MOL0     H85791   3.946   5.327   3.115 -2.5078 -0.0374  0.8176
  650MOL0     H85792   4.062   5.073   2.997  1.0501  0.6003 -3.0401
  650MOL0     H85793   4.002   5.220   2.914 -0.0815 -1.3569  0.3167
  650MOL0     H85794   4.221   5.216   3.113  0.2302  2.5563  0.7321
  650MOL0     H85795   4.180   5.352   3.010 -0.3694 -0.0702 -1.4943
  650MOL0     H85796   4.264   5.077   2.901  0.6544  0.5475  1.7222
  650MOL0     H85797   4.214   5.210   2.798 -0.7776  1.9031  0.1933
  650MOL0     H85798   4.611   5.329   2.916 -0.5783  1.6880 -2.1381
  650MOL0     H85799   3.807   5.310   3.308  1.7621 -1.3898 -0.9620
  650MOL0     H85800   3.605   5.354   3.435  1.2092  2.5768 -1.3156
  651MOL0     O85801   7.064   0.328   0.254 -0.5942 -0.1344  0.2555
  651MOL0     C85802   7.060   0.416   0.341  0.6228 -0.1377  0.1718
  651MOL0     O85803   6.969   0.414   0.440  0.2421 -0.2721 -0.3786
  651MOL0     C85804   6.890   0.300   0.462 -0.3644 -0.7250  0.2288
  651MOL0     C85805   6.751   0.318   0.479  1.2103  0.1683  0.7295
  651MOL0     C85806   6.666   0.211   0.476 -0.2544 -0.4389  0.2475
  651MOL0     C85807   6.711   0.083   0.478 -0.2970 -0.4187  0.4765
  651MOL0     O85808   6.612  -0.019   0.483 -0.2885  0.3490 -0.1715
  651MOL0     C85809   6.652  -0.159   0.498  1.2289  1.2678 -0.7256
  651MOL0     C85810   6.528  -0.242   0.531  0.0616  0.3439 -0.4924
  651MOL0     C85811   6.420  -0.236   0.423  0.1742 -0.6259  0.4996
  651MOL0     C85812   6.275  -0.259   0.475 -0.6890  0.5388 -0.0447
  651MOL0     C85813   6.257  -0.409   0.508  0.4665 -0.5998  0.5685
  651MOL0     C85814   6.119  -0.435   0.566 -0.0811 -0.3974  0.2682
  651MOL0     C85815   6.094  -0.382   0.712  0.7117  0.1261  0.8305
  651MOL0     C85816   6.158  -0.471   0.818 -0.0737  0.9310 -0.5972
  651MOL0     N85817   6.084  -0.471   0.947  0.6723 -0.3907 -1.2614
  651MOL0     C85818   6.114  -0.380   1.050  0.5906 -0.6891  0.0895
  651MOL0     C85819   5.999  -0.368   1.124 -0.5959 -0.1327  0.4745
  651MOL0     C85820   5.972  -0.289   1.249 -0.4915 -0.2560 -0.1064
  651MOL0     C85821   5.852  -0.199   1.221  0.0150 -0.3281  0.4367
  651MOL0     C85822   5.898  -0.075   1.141  0.2207  0.5443 -0.7332
  651MOL0     C85823   5.790   0.036   1.156  0.2479  0.3387 -0.1125
  651MOL0     O85824   5.672  -0.010   1.086  0.3416 -0.4081  0.1816
  651MOL0     C85825   5.550   0.043   1.127  0.6928 -0.2633 -0.6424
  651MOL0     C85826   5.541   0.173   1.197  0.7779  0.0649  0.7719
  651MOL0     C85827   5.412   0.230   1.231 -0.1239 -0.2814  0.2098
  651MOL0     C85828   5.297   0.158   1.204  0.0394  0.3651  0.7611
  651MOL0     C85829   5.162   0.207   1.236  0.3549 -0.6365 -0.5354
  651MOL0     O85830   5.048   0.129   1.234 -0.4079  0.6460  0.1626
  651MOL0     C85831   4.927   0.167   1.289 -0.6707  0.4723  0.0054
  651MOL0     C85832   4.903   0.171   1.427 -0.2216  0.3815 -0.4098
  651MOL0     C85833   4.782   0.202   1.480  0.9047  0.6754  0.6778
  651MOL0     C85834   4.667   0.221   1.399 -0.2212 -0.6453 -0.7559
  651MOL0     O85835   4.534   0.247   1.458 -0.5124  0.6092  0.3740
  651MOL0     C85836   4.527   0.224   1.595  0.8347  0.2695 -0.4006
  651MOL0     C85837   4.380   0.231   1.650 -0.7131  0.4388  0.1633
  651MOL0     C85838   4.326   0.372   1.621  0.3639  0.0820 -1.2209
  651MOL0     C85839   4.181   0.405   1.669 -0.1029  0.2073 -0.4236
  651MOL0     C85840   4.162   0.556   1.695  0.2800 -0.1007  0.2000
  651MOL0     C85841   4.021   0.583   1.735 -0.4472  0.2338  0.4076
  651MOL0     C85842   3.974   0.731   1.735  0.3389  0.0767 -0.4823
  651MOL0     C85843   4.061   0.820   1.825 -0.4472 -0.8208 -0.7644
  651MOL0    Cl85844   4.041   0.778   2.005 -0.1945 -0.2899 -0.8048
  651MOL0     C85845   4.690   0.226   1.258 -0.5798 -0.0734 -0.4135
  651MOL0     C85846   4.821   0.198   1.200 -0.2520  0.0398 -0.0741
  651MOL0     O85847   5.154   0.327   1.265  0.0560  0.0531 -0.4236
  651MOL0     C85848   5.313   0.039   1.136  0.1357  0.7678  0.4428
  651MOL0     C85849   5.436  -0.023   1.095 -0.6941 -0.2172 -0.5716
  651MOL0     N85850   5.914  -0.462   1.068  0.5751 -0.2855 -0.1755
  651MOL0     N85851   5.954  -0.506   0.956  0.1876 -0.1480 -0.1866
  651MOL0     C85852   6.845   0.057   0.469 -1.1252  0.1779 -0.0896
  651MOL0     C85853   6.940   0.164   0.460  0.0198 -0.2183  0.5248
  651MOL0     C85854   7.165   0.519   0.338  0.9893 -0.4253  0.4377
  651MOL0     C85855   7.279   0.499   0.254  0.4054 -0.6632  0.6561
  651MOL0     C85856   7.378   0.594   0.258 -0.1247  0.5728  0.0755
  651MOL0     C85857   7.372   0.707   0.338  0.5488  0.1681 -0.2832
  651MOL0     O85858   7.487   0.782   0.321  0.7322  0.2095  0.6396
  651MOL0     C85859   7.532   0.876   0.424 -0.8289 -0.5407  0.8527
  651MOL0     C85860   7.670   0.932   0.384  0.3251 -0.2473 -0.2785
  651MOL0     C85861   7.658   0.993   0.243 -0.9121 -0.3109 -0.0169
  651MOL0     C85862   7.664   1.146   0.241 -0.4540  0.5730 -0.2818
  651MOL0     C85863   7.574   1.206   0.331  0.1553 -0.2441  0.3835
  651MOL0     C85864   7.501   1.269   0.402  0.5047 -0.3362 -0.3532
  651MOL0     C85865   7.258   0.725   0.412 -0.2608  0.3454  0.1083
  651MOL0     C85866   7.152   0.638   0.414  0.7064 -0.2391  0.5812
  651MOL0     H85867   6.706   0.416   0.495 -2.6564 -1.4639  0.9859
  651MOL0     H85868   6.562   0.237   0.458  0.4037  1.3579 -1.4142
  651MOL0     H85869   6.727  -0.162   0.578  1.0497  1.1445 -0.5633
  651MOL0     H85870   6.698  -0.191   0.404 -0.5539  1.1371 -1.5934
  651MOL0     H85871   6.482  -0.194   0.617  0.6689  0.4636 -0.2262
  651MOL0     H85872   6.555  -0.347   0.548  0.3503  0.5504  0.3494
  651MOL0     H85873   6.440  -0.312   0.347  0.0491  1.9654 -2.3214
  651MOL0     H85874   6.422  -0.139   0.372 -0.9707 -0.1383  1.3430
  651MOL0     H85875   6.258  -0.194   0.561 -0.8005  0.8847 -0.3238
  651MOL0     H85876   6.197  -0.246   0.399 -1.8944  0.9816  1.2165
  651MOL0     H85877   6.324  -0.437   0.590  0.5079  2.1750  1.5748
  651MOL0     H85878   6.267  -0.476   0.423 -2.6859  0.2003 -0.5678
  651MOL0     H85879   6.109  -0.544   0.568  0.4048 -0.6084 -3.0906
  651MOL0     H85880   6.050  -0.391   0.494  0.2399  1.3158  0.9536
  651MOL0     H85881   6.139  -0.284   0.729 -0.4672  0.6519  1.0082
  651MOL0     H85882   5.984  -0.379   0.718  0.4832 -1.9655 -0.7586
  651MOL0     H85883   6.263  -0.444   0.827  0.5681  0.5158 -4.7267
  651MOL0     H85884   6.153  -0.573   0.779 -0.1560  1.3808 -1.8056
  651MOL0     H85885   6.200  -0.315   1.064  0.2965  0.1471 -1.6097
  651MOL0     H85886   6.065  -0.239   1.279  2.2399 -3.1463 -2.9876
  651MOL0     H85887   5.942  -0.362   1.324 -0.5951 -3.2306 -2.8650
  651MOL0     H85888   5.824  -0.170   1.323  0.2729  1.7407 -0.0352
  651MOL0     H85889   5.776  -0.245   1.158 -1.9751  0.6131  2.0494
  651MOL0     H85890   5.993  -0.035   1.177 -0.8354  1.6600  0.9483
  651MOL0     H85891   5.902  -0.107   1.036 -1.6977 -0.6617 -0.5007
  651MOL0     H85892   5.826   0.132   1.117  1.5222 -0.1757 -0.2243
  651MOL0     H85893   5.766   0.067   1.258  2.5829  2.2076 -0.0417
  651MOL0     H85894   5.626   0.241   1.207 -0.3758  1.9798 -1.4906
  651MOL0     H85895   5.400   0.329   1.275 -2.7369 -0.1028 -0.6952
  651MOL0     H85896   4.993   0.143   1.480  0.1104 -2.1445 -2.1272
  651MOL0     H85897   4.774   0.213   1.588 -0.9668 -1.3307  0.8104
  651MOL0     H85898   4.596   0.285   1.655  2.3869 -0.9213 -0.9117
  651MOL0     H85899   4.546   0.118   1.610  1.6671  0.5634  0.8646
  651MOL0     H85900   4.382   0.196   1.754 -2.9017  1.1176  0.4704
  651MOL0     H85901   4.319   0.154   1.602  2.6129 -3.2829  1.2451
  651MOL0     H85902   4.323   0.408   1.517  0.9105  2.0672 -0.5869
  651MOL0     H85903   4.395   0.443   1.666 -0.7080 -0.1203  0.8589
  651MOL0     H85904   4.103   0.364   1.605 -1.2180  2.1698 -0.4137
  651MOL0     H85905   4.174   0.365   1.770 -1.4535 -0.2427 -0.6793
  651MOL0     H85906   4.189   0.613   1.606  1.7806  0.2367  0.8526
  651MOL0     H85907   4.235   0.585   1.771  0.0320 -0.5437  0.6186
  651MOL0     H85908   3.985   0.551   1.834 -0.0000 -2.8269 -0.3089
  651MOL0     H85909   3.951   0.519   1.680 -0.7896 -0.7636  1.9365
  651MOL0     H85910   3.997   0.780   1.640 -0.0651  0.7870 -0.2211
  651MOL0     H85911   3.865   0.732   1.750  0.5965  0.5178  1.5270
  651MOL0     H85912   4.012   0.917   1.812  1.1797  0.5987  2.4650
  651MOL0     H85913   4.167   0.827   1.797  0.0942 -1.8310  0.8891
  651MOL0     H85914   4.599   0.238   1.200 -1.3380 -1.0939  0.5063
  651MOL0     H85915   4.835   0.206   1.093 -2.6492  3.0346 -0.2857
  651MOL0     H85916   5.224  -0.012   1.102 -1.3049  2.5923  1.3005
  651MOL0     H85917   5.434  -0.114   1.036  0.4545 -1.0810  0.6617
  651MOL0     H85918   6.886  -0.043   0.462  1.6594  1.2106  0.0459
  651MOL0     H85919   7.042   0.128   0.455 -0.5299 -1.6459 -2.8957
  651MOL0     H85920   7.292   0.408   0.196 -0.0067 -0.0210 -0.4609
  651MOL0     H85921   7.468   0.580   0.199  1.2309  1.5407  1.8135
  651MOL0     H85922   7.531   0.824   0.520  0.8554 -3.3123 -0.5031
  651MOL0     H85923   7.456   0.953   0.437  0.7494  1.4626 -0.9532
  651MOL0     H85924   7.714   1.009   0.448 -2.2239  0.1151  1.1982
  651MOL0     H85925   7.745   0.853   0.379  0.7204  0.1970 -1.6302
  651MOL0     H85926   7.562   0.970   0.197 -1.5398  0.6710  0.7589
  651MOL0     H85927   7.735   0.947   0.181  0.0309  2.4509 -1.0413
  651MOL0     H85928   7.767   1.172   0.268 -0.2868 -2.0319  2.0971
  651MOL0     H85929   7.661   1.176   0.136  1.3817 -0.6490 -0.7499
  651MOL0     H85930   7.437   1.323   0.469  0.2276 -0.9078 -0.1540
  651MOL0     H85931   7.255   0.817   0.469 -3.0984 -0.1794  0.9478
  651MOL0     H85932   7.063   0.653   0.474 -0.7866 -3.7955 -0.4790
  652MOL0     O85933   1.973   9.822   7.881 -0.7198 -0.1879 -0.8286
  652MOL0     C85934   2.082   9.874   7.883 -0.1766 -0.6649 -0.3128
  652MOL0     O85935   2.107  10.005   7.847  0.6501 -0.2466  0.6253
  652MOL0     C85936   2.006  10.104   7.816  0.4751  0.3744 -0.7451
  652MOL0     C85937   2.056  10.209   7.742  0.8863  0.3545  1.2766
  652MOL0     C85938   1.974  10.316   7.715  0.1202 -0.3902 -0.6321
  652MOL0     C85939   1.834  10.318   7.740  0.1666 -0.1633 -0.6942
  652MOL0     O85940   1.764  10.430   7.694  0.3182 -0.0237 -0.6989
  652MOL0     C85941   1.651  10.456   7.780 -0.2316  1.2347  0.7256
  652MOL0     C85942   1.611  10.605   7.779 -0.2932  0.1573  0.0655
  652MOL0     C85943   1.575  10.651   7.629 -0.6015 -0.3561 -0.7637
  652MOL0     C85944   1.528  10.793   7.601  0.9220  0.1131  0.2107
  652MOL0     C85945   1.405  10.846   7.680  1.0674 -0.9566 -0.3281
  652MOL0     C85946   1.290  10.746   7.703 -0.8586  0.0159  1.3059
  652MOL0     C85947   1.189  10.810   7.798 -0.3136  0.7147  0.4101
  652MOL0     C85948   1.041  10.755   7.781  1.0361  0.0151 -0.2855
  652MOL0     N85949   1.028  10.614   7.825 -0.0711  0.9402 -0.2706
  652MOL0     C85950   1.061  10.499   7.755 -0.3644  0.6768  0.1629
  652MOL0     C85951   1.016  10.403   7.831 -0.2935 -0.2110 -0.0820
  652MOL0     C85952   1.029  10.262   7.786 -0.4260 -0.2588  0.0701
  652MOL0     C85953   1.170  10.209   7.837  0.0887  0.0091 -0.4494
  652MOL0     C85954   1.214  10.088   7.755  0.1247 -0.3757  0.0442
  652MOL0     C85955   1.167   9.952   7.810 -0.3221 -1.2176 -0.6669
  652MOL0     O85956   1.211   9.958   7.946 -0.2051 -0.1259 -0.7226
  652MOL0     C85957   1.242   9.851   8.017 -0.0283 -0.0049  0.3189
  652MOL0     C85958   1.324   9.881   8.130  0.6106  0.1414 -0.0788
  652MOL0     C85959   1.368   9.774   8.207 -0.4874 -0.9540  0.0811
  652MOL0     C85960   1.330   9.642   8.178 -0.0277  0.6117  0.2410
  652MOL0     C85961   1.376   9.528   8.269  0.2185 -0.1249 -0.7457
  652MOL0     O85962   1.325   9.396   8.260 -0.3932  0.2865 -0.2368
  652MOL0     C85963   1.379   9.287   8.332 -0.2382  0.4982 -0.0771
  652MOL0     C85964   1.295   9.176   8.346 -0.7679 -0.1984  0.1807
  652MOL0     C85965   1.340   9.061   8.407 -0.0289  0.6242  0.2078
  652MOL0     C85966   1.474   9.058   8.460  0.1389  0.5906 -0.5270
  652MOL0     O85967   1.519   8.930   8.498 -0.5819 -0.1860 -0.2859
  652MOL0     C85968   1.625   8.907   8.594 -0.0508  0.1480 -1.0645
  652MOL0     C85969   1.704   8.775   8.577  0.3356  0.1706  0.0825
  652MOL0     C85970   1.608   8.649   8.572 -0.0186  0.2548 -0.5894
  652MOL0     C85971   1.673   8.537   8.484  0.4862 -0.3439 -0.1167
  652MOL0     C85972   1.587   8.414   8.434 -0.4486 -0.1921  0.2664
  652MOL0     C85973   1.688   8.300   8.380 -0.5193  0.1627 -1.1328
  652MOL0     C85974   1.620   8.162   8.340  0.6918 -1.1818  0.6125
  652MOL0     C85975   1.555   8.153   8.197  0.6404  0.3819 -0.2386
  652MOL0    Cl85976   1.681   8.174   8.078  0.1808  0.0827  0.4282
  652MOL0     C85977   1.562   9.170   8.447  0.0504 -0.6847  0.6270
  652MOL0     C85978   1.508   9.285   8.383 -0.3537  0.2711 -0.3924
  652MOL0     O85979   1.461   9.565   8.347  0.1716 -0.4606 -0.0297
  652MOL0     C85980   1.252   9.615   8.062  0.3441 -0.8096 -0.0268
  652MOL0     C85981   1.206   9.718   7.986  0.1672 -0.2990  0.1917
  652MOL0     N85982   0.965  10.452   7.949  0.1961  0.7625 -0.5837
  652MOL0     N85983   0.980  10.576   7.949  0.1066  0.3101  0.6792
  652MOL0     C85984   1.787  10.215   7.826  0.1489 -0.4427 -0.4767
  652MOL0     C85985   1.872  10.106   7.864 -0.3659  0.1368  0.3807
  652MOL0     C85986   2.201   9.791   7.921  0.3309  0.0808 -0.1893
  652MOL0     C85987   2.335   9.848   7.909  1.0194 -0.0487  0.3254
  652MOL0     C85988   2.447   9.774   7.943  0.7065 -0.1908  0.1256
  652MOL0     C85989   2.442   9.649   7.994  0.9012 -0.4974 -0.1929
  652MOL0     O85990   2.560   9.592   8.031 -0.0170 -0.1352 -0.0802
  652MOL0     C85991   2.539   9.475   8.106 -0.0629 -0.1265 -0.6867
  652MOL0     C85992   2.659   9.433   8.191 -1.1620 -0.1357  0.4374
  652MOL0     C85993   2.777   9.376   8.105  0.0508 -0.0958  0.5081
  652MOL0     C85994   2.903   9.348   8.188  0.1881  0.2562 -0.9112
  652MOL0     C85995   3.020   9.284   8.125 -0.1852 -0.8748  0.0294
  652MOL0     C85996   3.112   9.230   8.074 -0.1433 -0.2918 -0.1653
  652MOL0     C85997   2.310   9.589   8.005 -0.0720 -0.1109  0.1138
  652MOL0     C85998   2.189   9.656   7.965  0.0506 -0.0170  0.2589
  652MOL0     H85999   2.153  10.192   7.697  0.5292 -2.0813  1.2826
  652MOL0     H86000   2.008  10.405   7.664 -2.1015  2.1669  2.0145
  652MOL0     H86001   1.662  10.418   7.882  1.7931 -2.2215 -0.6219
  652MOL0     H86002   1.569  10.395   7.741 -0.0234  1.2399  0.2758
  652MOL0     H86003   1.692  10.672   7.807 -2.8328  2.4915  2.3392
  652MOL0     H86004   1.521  10.616   7.840 -0.4468 -2.8652  0.5486
  652MOL0     H86005   1.497  10.585   7.588 -1.4628  0.1737 -0.0196
  652MOL0     H86006   1.670  10.639   7.576 -0.8701 -1.6172 -0.9794
  652MOL0     H86007   1.603  10.869   7.626  1.3194 -0.1106 -0.2833
  652MOL0     H86008   1.508  10.801   7.494  0.0875 -1.9639  0.1693
  652MOL0     H86009   1.363  10.923   7.614  0.7897 -2.8379 -2.4913
  652MOL0     H86010   1.440  10.886   7.775 -2.4247 -2.5494  1.8189
  652MOL0     H86011   1.315  10.644   7.733 -0.9286  0.3652  2.6056
  652MOL0     H86012   1.241  10.737   7.605 -0.3736  2.4760  0.7669
  652MOL0     H86013   1.236  10.792   7.895  2.5340  0.5324 -0.9204
  652MOL0     H86014   1.176  10.918   7.783 -2.3606  0.6568  1.4298
  652MOL0     H86015   1.003  10.754   7.678 -0.2339  0.9494  0.1482
  652MOL0     H86016   0.973  10.822   7.835 -0.4654 -1.0222 -0.8114
  652MOL0     H86017   1.122  10.487   7.666 -0.8241 -0.7307  0.0118
  652MOL0     H86018   1.023  10.261   7.677  0.2297 -0.1153  0.0248
  652MOL0     H86019   0.948  10.198   7.822  1.2579 -2.2796  0.4854
  652MOL0     H86020   1.170  10.194   7.945  3.5510  0.9255 -0.2210
  652MOL0     H86021   1.236  10.292   7.812 -2.1589  1.9603 -0.2956
  652MOL0     H86022   1.180  10.095   7.651  0.7241  1.3120 -0.0753
  652MOL0     H86023   1.323  10.084   7.742 -0.0687  0.9687 -2.5568
  652MOL0     H86024   1.221   9.874   7.756  3.6100  0.4159  0.5425
  652MOL0     H86025   1.058   9.944   7.813 -0.4753  0.6799  0.4083
  652MOL0     H86026   1.358   9.982   8.153  1.9115 -0.5160  0.9866
  652MOL0     H86027   1.414   9.797   8.303 -2.3427  2.4780  0.3115
  652MOL0     H86028   1.193   9.184   8.309 -1.1492  0.0417  1.2526
  652MOL0     H86029   1.278   8.973   8.419  0.6660 -0.1804 -1.6924
  652MOL0     H86030   1.579   8.910   8.693  0.5934  1.0499 -0.7818
  652MOL0     H86031   1.697   8.989   8.601 -0.2259  0.2700 -0.6836
  652MOL0     H86032   1.776   8.773   8.660  1.0017 -0.3747 -0.4921
  652MOL0     H86033   1.760   8.780   8.484 -1.7303  0.7034 -1.1882
  652MOL0     H86034   1.515   8.686   8.528 -0.5370  0.4345  0.6080
  652MOL0     H86035   1.581   8.590   8.660  1.5899 -1.0763 -0.9413
  652MOL0     H86036   1.714   8.578   8.391 -0.2108 -2.3834 -1.4000
  652MOL0     H86037   1.763   8.506   8.538  0.4977  1.7559  1.1593
  652MOL0     H86038   1.516   8.445   8.357 -0.3134  0.6738  0.4844
  652MOL0     H86039   1.526   8.381   8.519 -1.8619 -0.1424 -0.6908
  652MOL0     H86040   1.754   8.279   8.464 -0.0507  0.4145 -1.4385
  652MOL0     H86041   1.753   8.338   8.301 -0.1265 -0.3509 -1.0613
  652MOL0     H86042   1.691   8.079   8.340  1.5321 -0.4913  0.2240
  652MOL0     H86043   1.543   8.151   8.416  1.6296 -1.2847  1.5788
  652MOL0     H86044   1.478   8.230   8.192 -0.6582 -0.4780  3.1907
  652MOL0     H86045   1.499   8.059   8.195 -3.3222  2.5561 -1.6341
  652MOL0     H86046   1.667   9.171   8.475 -0.5774  1.3418  3.2456
  652MOL0     H86047   1.587   9.354   8.354  1.5509 -2.1485 -1.3006
  652MOL0     H86048   1.226   9.510   8.057  1.1374 -0.9967 -0.4540
  652MOL0     H86049   1.157   9.697   7.891  0.3746  1.1190 -0.2554
  652MOL0     H86050   1.688  10.209   7.871  1.5987 -1.7338  2.8489
  652MOL0     H86051   1.823  10.030   7.924 -1.1067 -2.2510 -2.9428
  652MOL0     H86052   2.345   9.950   7.876  0.3879 -1.3808 -4.9153
  652MOL0     H86053   2.545   9.821   7.935  0.5189  0.2607  0.4071
  652MOL0     H86054   2.524   9.398   8.029  0.0997  0.0560 -0.9034
  652MOL0     H86055   2.452   9.479   8.171  0.2626  1.7577 -0.3231
  652MOL0     H86056   2.695   9.511   8.258  0.0577 -1.9660  2.0134
  652MOL0     H86057   2.637   9.345   8.251  2.3236 -0.5265  1.3635
  652MOL0     H86058   2.799   9.450   8.026  1.3645 -0.1288  0.8200
  652MOL0     H86059   2.747   9.288   8.048  0.6793  0.1863 -0.2642
  652MOL0     H86060   2.941   9.434   8.244 -1.3180  1.0589 -1.0920
  652MOL0     H86061   2.881   9.276   8.268 -1.0295  0.0771 -1.3937
  652MOL0     H86062   3.197   9.189   8.023  0.2853 -0.9896  1.0747
  652MOL0     H86063   2.295   9.484   8.027  2.7383 -0.7113 -0.5324
  652MOL0     H86064   2.088   9.615   7.970 -0.3185  0.9256  0.5592
  653MOL0     O86065   0.170   5.962   0.624 -0.2471  0.0321 -0.2165
  653MOL0     C86066   0.114   5.856   0.597 -0.4075  0.2533 -0.5797
  653MOL0     O86067   0.001   5.843   0.516 -0.6859 -0.2835  0.0998
  653MOL0     C86068  -0.058   5.948   0.452  0.4618  0.4327 -0.6835
  653MOL0     C86069   0.012   6.053   0.399 -0.2653 -1.2196  1.3135
  653MOL0     C86070  -0.061   6.154   0.329 -0.3339 -0.0920  0.4564
  653MOL0     C86071  -0.197   6.154   0.305 -0.1416  0.6451  0.1013
  653MOL0     O86072  -0.268   6.264   0.252 -0.2601 -0.1987  0.0914
  653MOL0     C86073  -0.410   6.279   0.259 -0.1436  0.6515 -0.1859
  653MOL0     C86074  -0.454   6.429   0.247  0.5939  0.0920  0.5101
  653MOL0     C86075  -0.605   6.445   0.279  0.5334  1.0033  0.1628
  653MOL0     C86076  -0.688   6.417   0.151 -0.4950  0.0817 -0.0442
  653MOL0     C86077  -0.837   6.451   0.178 -0.7893 -0.0177  0.2609
  653MOL0     C86078  -0.927   6.333   0.136  0.3263  0.2653  0.0452
  653MOL0     C86079  -1.083   6.333   0.162 -0.1145 -0.4563  0.3052
  653MOL0     C86080  -1.142   6.204   0.101  0.5056 -0.4980  0.6927
  653MOL0     N86081  -1.281   6.175   0.129 -0.3481  0.6869 -0.3948
  653MOL0     C86082  -1.388   6.257   0.085 -1.0293  0.0977 -0.2214
  653MOL0     C86083  -1.492   6.208   0.166 -0.5624  0.5558  0.5091
  653MOL0     C86084  -1.637   6.243   0.193 -0.0788  0.7019  0.2086
  653MOL0     C86085  -1.716   6.223   0.066  0.1219 -0.1551  0.1415
  653MOL0     C86086  -1.753   6.075   0.041 -0.7830 -0.6751 -0.4470
  653MOL0     C86087  -1.866   6.060  -0.066 -0.5893  0.0074 -0.2414
  653MOL0     O86088  -1.994   6.093  -0.012  0.6056 -0.0789 -0.6179
  653MOL0     C86089  -2.104   6.058  -0.095  0.0813 -0.2618 -0.6030
  653MOL0     C86090  -2.097   6.009  -0.232 -0.2907 -0.6819  0.5103
  653MOL0     C86091  -2.218   5.992  -0.309 -0.4527 -0.4692 -1.0946
  653MOL0     C86092  -2.341   6.032  -0.255  0.8351  0.0867 -0.4667
  653MOL0     C86093  -2.469   6.037  -0.332  0.2615  0.6381 -0.5896
  653MOL0     O86094  -2.587   6.068  -0.277  0.4397 -0.4691  0.1559
  653MOL0     C86095  -2.702   6.044  -0.348  0.4124  0.4204  0.5515
  653MOL0     C86096  -2.781   5.935  -0.325  0.9557 -0.3740 -0.5769
  653MOL0     C86097  -2.910   5.917  -0.379 -1.7724  0.3166 -0.2397
  653MOL0     C86098  -2.953   6.015  -0.468 -0.4804 -0.3337  0.0893
  653MOL0     O86099  -3.071   6.007  -0.531  0.1766 -0.4522  0.5486
  653MOL0     C86100  -3.161   5.894  -0.517  0.5027 -0.1000  0.0127
  653MOL0     C86101  -3.276   5.887  -0.616  0.7007  0.3961  0.2762
  653MOL0     C86102  -3.238   5.927  -0.763  0.9253 -0.9368 -0.4771
  653MOL0     C86103  -3.128   5.843  -0.830 -0.1552 -0.5089 -0.0830
  653MOL0     C86104  -3.083   5.881  -0.964  1.0943 -0.2748  0.3335
  653MOL0     C86105  -3.204   5.906  -1.058 -0.8054 -0.0842 -0.4346
  653MOL0     C86106  -3.163   5.956  -1.203  0.2464  0.2164 -0.1163
  653MOL0     C86107  -3.266   5.906  -1.308  0.8967  0.7568 -0.2907
  653MOL0    Cl86108  -3.279   5.718  -1.314 -0.0990  0.2595  0.2783
  653MOL0     C86109  -2.874   6.129  -0.492  0.4960 -0.6742 -0.0364
  653MOL0     C86110  -2.744   6.137  -0.442  0.9757 -0.5329  0.6121
  653MOL0     O86111  -2.450   5.979  -0.437 -0.0751  0.1082 -0.5645
  653MOL0     C86112  -2.351   6.080  -0.127  0.1098 -0.4433  0.0652
  653MOL0     C86113  -2.232   6.100  -0.044  0.2228 -0.0175 -0.3184
  653MOL0     N86114  -1.447   6.097   0.232  0.7642  0.0916  1.0222
  653MOL0     N86115  -1.323   6.077   0.210 -0.2010  0.1989 -0.3848
  653MOL0     C86116  -0.257   6.034   0.339  0.4198 -0.1753 -0.1238
  653MOL0     C86117  -0.194   5.933   0.418  0.0441  0.8926  0.2984
  653MOL0     C86118   0.167   5.730   0.659  0.6042  1.0582 -0.2200
  653MOL0     C86119   0.262   5.724   0.768 -0.6275 -0.9010  0.1580
  653MOL0     C86120   0.285   5.608   0.839  0.7890  0.2737  0.2192
  653MOL0     C86121   0.209   5.492   0.804 -1.0834  0.4317  0.5396
  653MOL0     O86122   0.207   5.369   0.869  0.2956 -0.3617  0.4269
  653MOL0     C86123   0.336   5.347   0.928 -0.0164  0.8112  0.4758
  653MOL0     C86124   0.331   5.210   0.993 -0.3247  0.3891  0.5477
  653MOL0     C86125   0.453   5.192   1.086  0.8640 -0.6400 -0.0572
  653MOL0     C86126   0.573   5.163   1.005  0.2250  0.1702 -0.2718
  653MOL0     C86127   0.684   5.164   1.097  0.3900 -0.1673 -0.0554
  653MOL0     C86128   0.767   5.143   1.176  0.0618 -0.3147 -0.1529
  653MOL0     C86129   0.121   5.496   0.696  0.6175  0.3792  0.5314
  653MOL0     C86130   0.099   5.609   0.624  0.6452 -0.5684  0.1584
  653MOL0     H86131   0.117   6.067   0.419 -0.1838  1.3464 -0.4751
  653MOL0     H86132  -0.011   6.230   0.270  1.6361 -0.9091  0.9858
  653MOL0     H86133  -0.442   6.231   0.352 -0.2483  1.0546 -0.0131
  653MOL0     H86134  -0.453   6.221   0.177  1.8855 -0.8776 -0.2494
  653MOL0     H86135  -0.431   6.460   0.144 -1.9605  2.2484  0.4635
  653MOL0     H86136  -0.387   6.493   0.304  2.5369  0.3265 -1.8714
  653MOL0     H86137  -0.607   6.548   0.317  2.0038  1.4572 -0.8887
  653MOL0     H86138  -0.633   6.380   0.363  1.0135 -0.2898 -0.6521
  653MOL0     H86139  -0.660   6.485   0.070  0.3641 -0.3892 -0.1546
  653MOL0     H86140  -0.662   6.317   0.115  2.5251  0.0214  1.8931
  653MOL0     H86141  -0.861   6.547   0.130  1.2823  0.9792  1.0944
  653MOL0     H86142  -0.847   6.472   0.285 -4.5174 -0.8199  0.2206
  653MOL0     H86143  -0.892   6.245   0.192 -1.6563 -1.5595 -1.4164
  653MOL0     H86144  -0.905   6.307   0.032  1.6580 -0.3278  0.4497
  653MOL0     H86145  -1.115   6.344   0.266  0.9243  2.7220  0.4065
  653MOL0     H86146  -1.128   6.420   0.111  0.2363  0.2004  1.0986
  653MOL0     H86147  -1.090   6.113   0.134  1.8529  0.1657  0.4603
  653MOL0     H86148  -1.125   6.205  -0.007 -1.7349 -1.0164  0.2751
  653MOL0     H86149  -1.381   6.338   0.013 -0.3744 -2.9548 -3.9004
  653MOL0     H86150  -1.652   6.342   0.236 -1.0899 -0.7636  3.5409
  653MOL0     H86151  -1.679   6.181   0.273 -2.2670  2.3906  0.4712
  653MOL0     H86152  -1.661   6.262  -0.020  2.5441 -0.8720  1.2679
  653MOL0     H86153  -1.806   6.286   0.071 -0.4086 -0.7418 -1.4258
  653MOL0     H86154  -1.669   6.014   0.007 -1.4057 -1.9120  0.1906
  653MOL0     H86155  -1.775   6.022   0.134  3.6191 -1.0865  0.5822
  653MOL0     H86156  -1.860   5.958  -0.105  2.0945 -0.2849  0.6818
  653MOL0     H86157  -1.846   6.132  -0.147 -0.5333  1.3711  0.9468
  653MOL0     H86158  -2.002   5.990  -0.281 -0.3550 -1.9704  0.8507
  653MOL0     H86159  -2.224   5.954  -0.410 -1.2355 -3.1965 -0.0860
  653MOL0     H86160  -2.743   5.866  -0.249 -2.8961 -1.8085  0.2912
  653MOL0     H86161  -2.966   5.824  -0.367 -2.2946  0.4037 -1.7197
  653MOL0     H86162  -3.209   5.906  -0.420  1.2857  1.5618  0.2140
  653MOL0     H86163  -3.105   5.800  -0.524 -0.7517 -1.1593  2.9117
  653MOL0     H86164  -3.357   5.951  -0.579  0.8984  2.0405 -1.9689
  653MOL0     H86165  -3.325   5.790  -0.621 -2.3272  1.6907  1.9387
  653MOL0     H86166  -3.209   6.031  -0.779  1.7186 -1.5286 -3.5824
  653MOL0     H86167  -3.336   5.925  -0.812  0.5220 -0.5422  0.2956
  653MOL0     H86168  -3.032   5.852  -0.777 -0.5467 -1.5051  0.8334
  653MOL0     H86169  -3.155   5.738  -0.830 -1.0886 -0.3236 -2.7119
  653MOL0     H86170  -3.016   5.806  -1.006  1.3818  0.1928 -0.0554
  653MOL0     H86171  -3.027   5.974  -0.950 -1.2635  0.9656  2.2489
  653MOL0     H86172  -3.265   5.987  -1.018  0.5625  0.2564  1.0470
  653MOL0     H86173  -3.264   5.815  -1.060  1.0914 -1.5455 -4.7848
  653MOL0     H86174  -3.150   6.064  -1.206 -0.4890  0.4203  2.0211
  653MOL0     H86175  -3.071   5.906  -1.236 -0.9146 -1.5913 -0.7996
  653MOL0     H86176  -3.238   5.941  -1.408 -0.4965  3.4549  0.1767
  653MOL0     H86177  -3.362   5.942  -1.270  1.2237 -1.0627  2.6022
  653MOL0     H86178  -2.914   6.194  -0.568  1.0213 -0.6532 -0.3021
  653MOL0     H86179  -2.685   6.220  -0.478 -2.5064  1.4918 -1.0104
  653MOL0     H86180  -2.446   6.083  -0.076 -0.1064  0.4447 -0.3684
  653MOL0     H86181  -2.250   6.129   0.058 -0.1330  0.1416 -0.4268
  653MOL0     H86182  -0.359   6.016   0.309  0.4890 -0.2543 -0.3182
  653MOL0     H86183  -0.252   5.849   0.454  2.6862 -0.6962  1.0974
  653MOL0     H86184   0.310   5.815   0.803  0.3775 -0.8232 -1.3257
  653MOL0     H86185   0.351   5.624   0.924  0.0164  1.0142  0.7015
  653MOL0     H86186   0.364   5.422   1.002 -2.1398 -0.2620  2.5166
  653MOL0     H86187   0.412   5.350   0.849 -0.9655 -0.2821 -0.5237
  653MOL0     H86188   0.236   5.205   1.047 -0.4587  3.3409  0.7537
  653MOL0     H86189   0.320   5.133   0.916 -2.0797  1.1129  0.0281
  653MOL0     H86190   0.423   5.105   1.146 -1.4550 -2.2559 -3.1900
  653MOL0     H86191   0.448   5.285   1.143  2.5066 -1.0396  0.7787
  653MOL0     H86192   0.560   5.064   0.959 -2.2019  0.5663 -0.5724
  653MOL0     H86193   0.591   5.230   0.921  1.0034  1.8569  1.1951
  653MOL0     H86194   0.835   5.119   1.256 -1.4994  0.0259  1.3362
  653MOL0     H86195   0.073   5.400   0.679  1.5010  0.1725 -0.9491
  653MOL0     H86196   0.018   5.608   0.551  0.6219 -3.4131  0.1057
  654MOL0     O86197   1.358   3.390   0.266 -0.2003  0.0707  0.3700
  654MOL0     C86198   1.377   3.283   0.309 -0.1959  0.5100 -0.6446
  654MOL0     O86199   1.281   3.198   0.359 -0.3599 -0.3403  0.2485
  654MOL0     C86200   1.150   3.206   0.306  0.4784 -0.2150  0.9230
  654MOL0     C86201   1.059   3.109   0.360 -1.0987 -0.4263 -0.6948
  654MOL0     C86202   0.929   3.097   0.334  0.0147  0.6051 -0.1556
  654MOL0     C86203   0.870   3.212   0.269 -0.5917  0.3357 -0.2942
  654MOL0     O86204   0.736   3.220   0.263  0.4446 -0.9073 -0.0623
  654MOL0     C86205   0.650   3.140   0.348 -0.2945 -0.3531  0.0066
  654MOL0     C86206   0.514   3.196   0.316 -0.7684  0.3842 -0.9904
  654MOL0     C86207   0.401   3.112   0.386  0.0403 -0.4224  0.7044
  654MOL0     C86208   0.263   3.144   0.319 -0.6048 -0.1760 -0.3909
  654MOL0     C86209   0.155   3.058   0.387  0.0956 -0.2105  0.5892
  654MOL0     C86210   0.016   3.127   0.357 -0.1309 -0.3201 -0.6703
  654MOL0     C86211  -0.111   3.050   0.410 -0.8939  0.7003 -0.7414
  654MOL0     C86212  -0.134   2.918   0.346  0.1040  0.0820  0.0270
  654MOL0     N86213  -0.112   2.906   0.198  0.1780 -0.2748  0.5701
  654MOL0     C86214  -0.193   2.957   0.101  0.0571  0.6391  0.4855
  654MOL0     C86215  -0.145   2.913  -0.020  0.0945  0.4418  0.1818
  654MOL0     C86216  -0.203   2.936  -0.153 -0.1435 -0.7548 -0.0879
  654MOL0     C86217  -0.304   2.821  -0.196  0.3579  0.1195 -0.6467
  654MOL0     C86218  -0.340   2.834  -0.342  0.6408  0.2830  0.0138
  654MOL0     C86219  -0.443   2.732  -0.389 -0.0283 -0.0863 -0.4402
  654MOL0     O86220  -0.559   2.746  -0.301  0.3706 -0.5706 -0.1515
  654MOL0     C86221  -0.676   2.795  -0.354  0.1058 -0.0161 -0.1417
  654MOL0     C86222  -0.691   2.861  -0.471  0.2824  0.3703 -0.0803
  654MOL0     C86223  -0.819   2.894  -0.520  0.8617 -0.0990  0.2527
  654MOL0     C86224  -0.938   2.849  -0.456 -0.0418 -1.0647 -0.0702
  654MOL0     C86225  -1.065   2.876  -0.516  0.3659  0.5783  0.5899
  654MOL0     O86226  -1.067   2.958  -0.623  0.8475 -0.5670 -0.2580
  654MOL0     C86227  -1.146   2.935  -0.734  0.0030 -0.6935  0.1873
  654MOL0     C86228  -1.279   2.905  -0.725  0.4201  0.0007  0.7071
  654MOL0     C86229  -1.370   2.909  -0.831  0.0922  0.0866 -0.0400
  654MOL0     C86230  -1.323   2.963  -0.953  0.2416  0.0135 -0.1466
  654MOL0     O86231  -1.406   2.967  -1.062 -0.3935  0.0190 -0.4109
  654MOL0     C86232  -1.488   2.854  -1.088 -0.4775 -0.8090  0.0536
  654MOL0     C86233  -1.549   2.877  -1.220  0.2103  0.1444  1.8046
  654MOL0     C86234  -1.664   2.781  -1.228 -0.6050  0.4313 -0.1845
  654MOL0     C86235  -1.712   2.793  -1.375  0.1056 -0.1520 -1.7316
  654MOL0     C86236  -1.818   2.693  -1.406  0.2758  0.1574 -0.4037
  654MOL0     C86237  -1.938   2.700  -1.314  0.3583 -0.5421 -0.6770
  654MOL0     C86238  -2.047   2.616  -1.380 -0.1716  0.1754  0.2944
  654MOL0     C86239  -2.047   2.467  -1.349  0.7924  0.0253  0.1212
  654MOL0    Cl86240  -2.050   2.439  -1.176  0.1072  0.1470 -0.2276
  654MOL0     C86241  -1.195   3.004  -0.970 -0.5224  0.0009  0.6532
  654MOL0     C86242  -1.105   2.984  -0.864  0.5105 -0.3902  0.5838
  654MOL0     O86243  -1.156   2.803  -0.475  0.5505 -0.7355 -0.0822
  654MOL0     C86244  -0.917   2.791  -0.331  0.0904 -0.3705 -0.5378
  654MOL0     C86245  -0.786   2.771  -0.276 -0.2221 -0.8089 -0.4011
  654MOL0     N86246  -0.027   2.847   0.009  0.9367 -0.9645  0.1679
  654MOL0     N86247  -0.016   2.830   0.137 -0.4162  0.6948  0.8164
  654MOL0     C86248   0.952   3.308   0.212 -0.4369  0.1222 -0.6204
  654MOL0     C86249   1.088   3.312   0.225  0.2661  0.4530 -0.5186
  654MOL0     C86250   1.520   3.241   0.329 -0.0361  0.3420  0.6093
  654MOL0     C86251   1.556   3.139   0.416  0.4181  1.2512 -0.5713
  654MOL0     C86252   1.689   3.102   0.438  0.3176  1.0821 -0.0909
  654MOL0     C86253   1.792   3.155   0.358  0.5320 -0.5742  0.1851
  654MOL0     O86254   1.925   3.129   0.387  0.4313  0.4752  0.6758
  654MOL0     C86255   2.027   3.162   0.285 -0.8190 -0.3848 -0.5658
  654MOL0     C86256   2.163   3.119   0.325 -0.3220 -0.2019  1.0509
  654MOL0     C86257   2.277   3.172   0.238  0.1431 -0.6178  0.1684
  654MOL0     C86258   2.398   3.199   0.322  0.0127  0.4646  0.9805
  654MOL0     C86259   2.518   3.253   0.259  0.9410  0.2691 -0.9117
  654MOL0     C86260   2.601   3.293   0.180  0.2845  0.3794  0.9967
  654MOL0     C86261   1.760   3.259   0.260  0.4322  0.1004 -0.1527
  654MOL0     C86262   1.627   3.295   0.247  0.4587  0.9856  0.8115
  654MOL0     H86263   1.090   3.033   0.430 -0.3155  1.7901  1.5257
  654MOL0     H86264   0.882   3.012   0.381  1.4768  0.7364  1.6452
  654MOL0     H86265   0.681   3.148   0.453  2.9013 -0.8046 -0.7916
  654MOL0     H86266   0.670   3.038   0.313 -3.0017 -0.8729 -0.2329
  654MOL0     H86267   0.498   3.200   0.208 -2.6507 -2.3334 -0.9248
  654MOL0     H86268   0.504   3.300   0.349  2.4770  0.1002  1.3741
  654MOL0     H86269   0.396   3.124   0.494  0.7586  2.3207  0.5088
  654MOL0     H86270   0.421   3.007   0.361 -0.6610  0.0797 -2.4433
  654MOL0     H86271   0.243   3.251   0.321  0.3729  0.1936 -3.9555
  654MOL0     H86272   0.275   3.119   0.213 -0.7754  1.2385 -0.7635
  654MOL0     H86273   0.176   3.055   0.494  0.2047  3.9889  0.8599
  654MOL0     H86274   0.149   2.954   0.354 -1.3154 -0.1844  0.7208
  654MOL0     H86275   0.011   3.141   0.248 -0.1861  0.9533 -0.5148
  654MOL0     H86276   0.015   3.226   0.403  0.9970 -1.3211  1.6215
  654MOL0     H86277  -0.088   3.020   0.512  0.2446  0.3183 -1.0936
  654MOL0     H86278  -0.198   3.116   0.403 -0.9464  0.5507 -1.6819
  654MOL0     H86279  -0.237   2.884   0.361  0.5783 -1.5477 -0.1897
  654MOL0     H86280  -0.077   2.838   0.395 -1.5434 -2.5150 -1.9643
  654MOL0     H86281  -0.289   2.999   0.128 -0.0726 -1.4748  3.8930
  654MOL0     H86282  -0.121   2.943  -0.225 -0.2865 -3.0867 -0.5764
  654MOL0     H86283  -0.250   3.034  -0.165  1.5248 -0.2648 -4.0394
  654MOL0     H86284  -0.391   2.826  -0.130  2.1756  1.1795  1.8433
  654MOL0     H86285  -0.257   2.724  -0.177 -0.1709 -0.4614 -2.2136
  654MOL0     H86286  -0.372   2.937  -0.360 -0.8560 -0.2754 -0.6889
  654MOL0     H86287  -0.259   2.813  -0.412  0.4981  0.4797 -0.2099
  654MOL0     H86288  -0.384   2.639  -0.395 -0.5083 -0.3968 -0.3900
  654MOL0     H86289  -0.466   2.753  -0.494 -0.1288 -5.3874 -1.7790
  654MOL0     H86290  -0.606   2.891  -0.532 -1.5657  2.3393 -1.8554
  654MOL0     H86291  -0.830   2.950  -0.613 -0.9211  2.3913  1.8222
  654MOL0     H86292  -1.322   2.881  -0.628  2.0092 -0.2621  1.3794
  654MOL0     H86293  -1.477   2.888  -0.832  0.5315 -2.5263  0.2044
  654MOL0     H86294  -1.559   2.847  -1.005  1.1788 -2.3673  1.4246
  654MOL0     H86295  -1.427   2.763  -1.085  0.2510 -0.4529 -2.2046
  654MOL0     H86296  -1.474   2.867  -1.299 -0.8828 -0.8049  0.8515
  654MOL0     H86297  -1.595   2.976  -1.224  0.0961  0.0630  0.9295
  654MOL0     H86298  -1.739   2.815  -1.156  2.3808  4.4672  1.3903
  654MOL0     H86299  -1.631   2.682  -1.198  0.3903  0.5564 -0.8270
  654MOL0     H86300  -1.750   2.894  -1.392  0.5126  0.1322 -0.9993
  654MOL0     H86301  -1.635   2.779  -1.451  0.2670 -0.6166 -1.4871
  654MOL0     H86302  -1.770   2.595  -1.393  0.5458  0.4796  1.3272
  654MOL0     H86303  -1.847   2.716  -1.509 -1.2537  1.6946  0.3158
  654MOL0     H86304  -1.980   2.801  -1.314  0.3833 -0.5267 -0.0196
  654MOL0     H86305  -1.921   2.675  -1.209 -2.6805  0.4218  0.1370
  654MOL0     H86306  -2.139   2.663  -1.343 -0.3677 -2.3900  3.4559
  654MOL0     H86307  -2.040   2.620  -1.489 -1.4120 -1.9166  0.0788
  654MOL0     H86308  -1.963   2.415  -1.396  0.7107 -0.1442  0.1631
  654MOL0     H86309  -2.136   2.423  -1.394  1.8915 -2.7631  0.4595
  654MOL0     H86310  -1.148   3.017  -1.067 -0.0257  0.4968  0.9488
  654MOL0     H86311  -1.000   3.007  -0.880  0.4939  1.7027  2.8159
  654MOL0     H86312  -0.999   2.759  -0.267 -0.8400 -1.2237 -2.0772
  654MOL0     H86313  -0.777   2.720  -0.181 -1.4002 -0.8835 -0.3122
  654MOL0     H86314   0.910   3.389   0.152  0.1428  1.4431  0.6906
  654MOL0     H86315   1.147   3.388   0.174 -0.7284  0.2199 -2.0779
  654MOL0     H86316   1.485   3.115   0.494  0.5293  1.0335 -0.5385
  654MOL0     H86317   1.716   3.031   0.514  0.2191 -0.3844 -1.3726
  654MOL0     H86318   2.030   3.270   0.268  0.1525 -0.4894 -1.1181
  654MOL0     H86319   2.001   3.112   0.191 -1.3047 -0.9208 -0.1518
  654MOL0     H86320   2.177   3.151   0.428 -0.7914 -0.5418  1.2261
  654MOL0     H86321   2.151   3.011   0.334 -0.0860 -0.2902  0.4225
  654MOL0     H86322   2.244   3.269   0.199 -0.2618 -2.3078 -4.3118
  654MOL0     H86323   2.296   3.097   0.160 -0.9331 -2.3063  1.4525
  654MOL0     H86324   2.375   3.280   0.392  0.9058  4.5580 -3.0117
  654MOL0     H86325   2.428   3.110   0.378  0.6697 -0.8796 -1.3810
  654MOL0     H86326   2.685   3.315   0.118 -0.2534 -1.9361 -0.6838
  654MOL0     H86327   1.834   3.307   0.196  1.8947  1.7625  2.6158
  654MOL0     H86328   1.577   3.356   0.172 -1.8511 -2.7447 -0.9738
  655MOL0     O86329   7.658  10.230  10.942  0.3226 -0.1759 -0.4975
  655MOL0     C86330   7.717  10.266  11.047 -0.6002  0.3336 -0.5834
  655MOL0     O86331   7.681  10.234  11.172  0.0293 -0.6275 -0.0397
  655MOL0     C86332   7.572  10.143  11.174  0.6062  0.2633 -0.0236
  655MOL0     C86333   7.572  10.011  11.123  0.1178  0.0627  0.4289
  655MOL0     C86334   7.455   9.933  11.128  1.0337  0.1031  0.6543
  655MOL0     C86335   7.344   9.987  11.190  1.3484  0.7314 -0.2632
  655MOL0     O86336   7.222   9.922  11.184 -0.0260 -0.4925  0.8126
  655MOL0     C86337   7.212   9.787  11.133  0.5145  0.3702  0.7925
  655MOL0     C86338   7.074   9.720  11.148 -0.5303 -0.8592 -0.6159
  655MOL0     C86339   6.974   9.812  11.084  0.1185 -0.9143  0.6157
  655MOL0     C86340   6.845   9.740  11.096  0.3424  0.2874 -0.1129
  655MOL0     C86341   6.735   9.814  11.032 -0.4015  0.2968 -0.2600
  655MOL0     C86342   6.603   9.774  11.086 -0.5986 -0.6456 -0.7197
  655MOL0     C86343   6.565   9.631  11.065 -1.2407 -0.0018 -0.7919
  655MOL0     C86344   6.416   9.609  11.068  0.2655 -0.3048  1.4179
  655MOL0     N86345   6.340   9.676  10.955  0.0795  0.2636  0.0570
  655MOL0     C86346   6.375   9.662  10.819  0.1973 -0.4616 -0.0787
  655MOL0     C86347   6.260   9.707  10.749 -0.5313 -0.7598 -0.1067
  655MOL0     C86348   6.247   9.720  10.589  0.3016 -0.9014  0.5468
  655MOL0     C86349   6.107   9.730  10.544 -0.1856  0.0440 -0.6344
  655MOL0     C86350   6.078   9.768  10.394  0.5977  1.0941 -0.7114
  655MOL0     C86351   5.939   9.826  10.369 -0.0167  0.6373 -0.4104
  655MOL0     O86352   5.842   9.723  10.336  0.8829  0.7883  0.1126
  655MOL0     C86353   5.714   9.776  10.316 -0.1086  0.6444 -0.2398
  655MOL0     C86354   5.625   9.682  10.259 -0.6930 -0.3941  0.3794
  655MOL0     C86355   5.492   9.711  10.232  0.0911  0.6334  0.0598
  655MOL0     C86356   5.440   9.833  10.278  0.8357 -1.0296 -0.2265
  655MOL0     C86357   5.294   9.862  10.253 -0.5064 -0.3253  0.4729
  655MOL0     O86358   5.237   9.971  10.316 -0.0327 -0.0780  0.3141
  655MOL0     C86359   5.106   9.975  10.298 -0.4031 -0.0761  0.2817
  655MOL0     C86360   5.021   9.887  10.368 -0.5524 -0.5307  0.1837
  655MOL0     C86361   4.884   9.893  10.354  0.9239  0.5153  0.5829
  655MOL0     C86362   4.823   9.995  10.281  0.3175  0.6023 -0.0629
  655MOL0     O86363   4.690  10.012  10.282  0.8097  0.0540 -0.4135
  655MOL0     C86364   4.603   9.906  10.327  0.4172  0.4516  0.0901
  655MOL0     C86365   4.455   9.943  10.317 -0.7098  0.2223 -0.8683
  655MOL0     C86366   4.352   9.824  10.328  0.0657 -0.3352  0.5917
  655MOL0     C86367   4.202   9.864  10.306 -0.1543  0.2223 -0.5858
  655MOL0     C86368   4.106   9.745  10.296 -0.3271  0.4824 -0.0318
  655MOL0     C86369   3.951   9.793  10.293  0.3755  0.3904 -0.5089
  655MOL0     C86370   3.854   9.686  10.285  0.1222 -0.3116 -1.0531
  655MOL0     C86371   3.906   9.539  10.271  0.1368  0.5144  0.7194
  655MOL0    Cl86372   3.769   9.433  10.230 -0.6580  0.2986  0.2625
  655MOL0     C86373   4.908  10.078  10.207  0.8754 -0.2985  0.3586
  655MOL0     C86374   5.044  10.066  10.216  0.3040 -0.0883  1.2464
  655MOL0     O86375   5.232   9.785  10.180  0.2738 -0.5046  0.0028
  655MOL0     C86376   5.526   9.927  10.336  0.0835 -0.9799  0.1579
  655MOL0     C86377   5.659   9.897  10.347 -0.4465 -0.1596 -0.4823
  655MOL0     N86378   6.171   9.748  10.846  0.0669 -0.4174  0.7731
  655MOL0     N86379   6.214   9.730  10.969  0.3443 -0.1065 -0.3370
  655MOL0     C86380   7.345  10.115  11.237 -0.2810  0.0602 -0.0234
  655MOL0     C86381   7.455  10.189  11.236 -0.7166 -0.9107  0.2318
  655MOL0     C86382   7.844  10.341  11.037  0.7835 -0.9317 -0.1011
  655MOL0     C86383   7.915  10.368  10.919  0.8852 -0.4721 -0.2249
  655MOL0     C86384   8.036  10.437  10.919 -0.4844 -0.1658 -0.2514
  655MOL0     C86385   8.086  10.490  11.038 -0.3903  0.2569 -0.4629
  655MOL0     O86386   8.200  10.563  11.028 -0.2400 -0.3855  0.0297
  655MOL0     C86387   8.239  10.655  11.138 -0.5229  0.4710  0.4512
  655MOL0     C86388   8.326  10.772  11.084  0.1655 -0.3430 -0.1905
  655MOL0     C86389   8.371  10.862  11.196 -0.0965  0.4159  0.1848
  655MOL0     C86390   8.404  10.998  11.125  0.3160  0.4642 -0.1722
  655MOL0     C86391   8.515  10.991  11.030 -0.1170  0.5801  0.0744
  655MOL0     C86392   8.621  10.982  10.962  0.1035 -0.5080  0.5144
  655MOL0     C86393   8.020  10.466  11.153 -0.5021  0.5296  0.3094
  655MOL0     C86394   7.903  10.393  11.156 -0.3179 -0.0314  0.0843
  655MOL0     H86395   7.665   9.977  11.079  2.1714  1.5576  3.2448
  655MOL0     H86396   7.463   9.830  11.092  0.7888  0.4268 -0.3580
  655MOL0     H86397   7.283   9.730  11.192 -0.4844 -0.2382  1.4189
  655MOL0     H86398   7.233   9.794  11.026 -0.7651  2.0472  0.6029
  655MOL0     H86399   7.043   9.720  11.253 -3.2074  0.1278 -1.3298
  655MOL0     H86400   7.071   9.621  11.101 -1.4942 -0.1361 -2.1334
  655MOL0     H86401   6.991   9.840  10.979 -0.8543 -2.2030  0.0934
  655MOL0     H86402   6.982   9.910  11.132  3.4264 -0.2532 -0.9727
  655MOL0     H86403   6.853   9.638  11.059  1.8994 -0.3954  1.9574
  655MOL0     H86404   6.817   9.742  11.202 -2.5766 -1.9421 -0.6903
  655MOL0     H86405   6.728   9.793  10.925 -0.2722 -0.2118 -0.1706
  655MOL0     H86406   6.749   9.922  11.042 -1.6580  0.9626 -3.9751
  655MOL0     H86407   6.527   9.846  11.057 -2.6575 -2.2576  0.3798
  655MOL0     H86408   6.604   9.782  11.195  0.9243  1.4473 -0.8356
  655MOL0     H86409   6.597   9.592  10.967 -2.2024 -2.3819 -0.2311
  655MOL0     H86410   6.619   9.566  11.135  0.4647 -2.2139 -3.8873
  655MOL0     H86411   6.365   9.626  11.164  1.7487 -1.8589  2.5444
  655MOL0     H86412   6.398   9.502  11.055 -1.7100  0.3204 -2.1552
  655MOL0     H86413   6.475   9.639  10.785  0.4568  1.1017 -0.4628
  655MOL0     H86414   6.293   9.638  10.533  2.1231  0.1544  0.4414
  655MOL0     H86415   6.300   9.809  10.555  0.8886 -0.6072  2.1577
  655MOL0     H86416   6.069   9.807  10.612 -0.9450 -0.2413 -0.7379
  655MOL0     H86417   6.068   9.630  10.563  5.3117 -2.0775  1.5100
  655MOL0     H86418   6.143   9.852  10.371  0.8419  0.8531 -0.9007
  655MOL0     H86419   6.089   9.682  10.328 -2.4658  1.0320 -1.3037
  655MOL0     H86420   5.939   9.904  10.292  1.2951 -0.4497 -1.5687
  655MOL0     H86421   5.910   9.877  10.461  0.1120 -2.3316  1.4061
  655MOL0     H86422   5.666   9.591  10.216 -2.7044 -0.3216 -1.9164
  655MOL0     H86423   5.422   9.645  10.182 -0.0291  0.7623  0.0569
  655MOL0     H86424   5.075   9.806  10.417  0.2355  1.1433  2.2824
  655MOL0     H86425   4.839   9.815  10.416  1.6414 -1.0429 -0.7964
  655MOL0     H86426   4.618   9.872  10.429 -2.0917  1.1028  0.7490
  655MOL0     H86427   4.608   9.817  10.264  1.8342 -0.0551  0.8854
  655MOL0     H86428   4.443   9.991  10.220 -0.5074  0.1666 -0.9217
  655MOL0     H86429   4.434  10.023  10.389 -1.4538  0.7613 -1.6713
  655MOL0     H86430   4.350   9.795  10.433 -0.5322  2.6127  1.4734
  655MOL0     H86431   4.376   9.737  10.266  2.1618  0.8895 -0.4349
  655MOL0     H86432   4.185   9.929  10.392 -0.3357  0.3989 -0.7524
  655MOL0     H86433   4.193   9.932  10.220 -2.3493  1.7512  0.7290
  655MOL0     H86434   4.107   9.684  10.387  0.8924  1.5828  0.7421
  655MOL0     H86435   4.127   9.693  10.203 -2.2849 -0.4541  0.0179
  655MOL0     H86436   3.935   9.863  10.211 -0.8397  0.1519 -0.4868
  655MOL0     H86437   3.933   9.852  10.383  3.9145  2.5272 -0.9930
  655MOL0     H86438   3.788   9.686  10.372  1.5234 -0.9174  0.0610
  655MOL0     H86439   3.794   9.700  10.195 -1.8082  1.7719  0.4673
  655MOL0     H86440   3.955   9.502  10.362 -1.1617  0.3776  1.3879
  655MOL0     H86441   3.975   9.545  10.187  1.4303  0.0226  1.7157
  655MOL0     H86442   4.861  10.167  10.165 -0.1230 -0.5285  0.9370
  655MOL0     H86443   5.108  10.122  10.149 -1.2428 -1.0735 -1.1680
  655MOL0     H86444   5.493  10.028  10.357  0.3706 -0.8385 -0.0686
  655MOL0     H86445   5.728   9.972  10.386  1.2429 -2.7455  1.9336
  655MOL0     H86446   7.251  10.161  11.264 -0.7750 -1.8471  1.7716
  655MOL0     H86447   7.455  10.289  11.278  1.3452 -1.1407  0.9171
  655MOL0     H86448   7.875  10.336  10.823 -1.5520  0.3679  0.4422
  655MOL0     H86449   8.074  10.468  10.822 -1.7366  1.6633 -0.2144
  655MOL0     H86450   8.306  10.609  11.212  1.0925  1.4047 -0.3872
  655MOL0     H86451   8.151  10.693  11.191 -1.6737 -2.5345  0.9307
  655MOL0     H86452   8.421  10.729  11.050 -0.0754 -1.1238  0.0999
  655MOL0     H86453   8.272  10.821  11.003  3.0840  1.4236 -1.2525
  655MOL0     H86454   8.451  10.823  11.259  0.4584  0.1092 -0.6821
  655MOL0     H86455   8.285  10.885  11.260  1.3193  2.4440  1.4844
  655MOL0     H86456   8.315  11.025  11.066  0.2390  0.4574 -0.0578
  655MOL0     H86457   8.437  11.073  11.198  3.4342 -0.7161 -0.2192
  655MOL0     H86458   8.709  10.983  10.902  0.4279 -0.8196  0.9785
  655MOL0     H86459   8.047  10.513  11.247  1.2199  1.1345 -0.4543
  655MOL0     H86460   7.846  10.380  11.247  0.8102 -1.2350  0.6567
  656MOL0     O86461   0.760   1.636   7.424 -0.1634  0.2802 -0.7447
  656MOL0     C86462   0.809   1.528   7.456 -0.4064  0.2248 -0.2784
  656MOL0     O86463   0.734   1.422   7.494 -0.7603  0.1292  0.3220
  656MOL0     C86464   0.595   1.424   7.494 -0.0608 -0.4322  0.1990
  656MOL0     C86465   0.541   1.317   7.556 -0.1682 -0.5964  0.0755
  656MOL0     C86466   0.401   1.297   7.552  1.0211  0.6691 -0.9359
  656MOL0     C86467   0.307   1.376   7.488  0.2626 -0.3224  0.9030
  656MOL0     O86468   0.172   1.352   7.471 -0.7117 -0.0755 -0.3786
  656MOL0     C86469   0.130   1.233   7.538 -0.5945 -0.0341 -0.0245
  656MOL0     C86470  -0.014   1.214   7.494  0.5655  0.5131 -0.0018
  656MOL0     C86471  -0.093   1.115   7.577  0.6783  0.4460  0.0894
  656MOL0     C86472  -0.237   1.092   7.524 -0.4624 -0.2409  0.1612
  656MOL0     C86473  -0.299   0.978   7.607 -0.5154  0.1884 -0.1834
  656MOL0     C86474  -0.452   0.972   7.617  0.4715 -0.6258  0.1124
  656MOL0     C86475  -0.492   0.861   7.709  0.0079 -0.1857 -0.2806
  656MOL0     C86476  -0.643   0.857   7.716  0.5275 -0.4214 -0.7359
  656MOL0     N86477  -0.722   0.822   7.593  0.2422 -0.3846  0.0503
  656MOL0     C86478  -0.797   0.915   7.527 -0.8051 -0.1453 -0.2644
  656MOL0     C86479  -0.879   0.843   7.448  0.1358 -0.5475  0.6494
  656MOL0     C86480  -0.988   0.907   7.363  0.3162 -0.7005 -0.8960
  656MOL0     C86481  -1.141   0.886   7.411  0.3745  0.0398  0.1432
  656MOL0     C86482  -1.191   0.753   7.373  0.1411 -0.2481 -0.9347
  656MOL0     C86483  -1.338   0.742   7.416  0.6764  0.4030  0.2359
  656MOL0     O86484  -1.416   0.853   7.384  1.0892  0.2403  0.6075
  656MOL0     C86485  -1.547   0.857   7.409  0.2909  0.2336  0.3692
  656MOL0     C86486  -1.632   0.755   7.458  0.4291  0.0556  0.1623
  656MOL0     C86487  -1.771   0.773   7.450  0.3626  0.2855 -0.0949
  656MOL0     C86488  -1.831   0.889   7.406 -0.5744 -0.4836  0.2533
  656MOL0     C86489  -1.974   0.908   7.398 -0.3060  0.7063  0.0925
  656MOL0     O86490  -2.035   0.802   7.449 -0.2997  0.1618 -0.2404
  656MOL0     C86491  -2.176   0.788   7.442 -0.0238  0.0247  0.1583
  656MOL0     C86492  -2.232   0.722   7.558  0.2891  0.1020 -0.5037
  656MOL0     C86493  -2.364   0.681   7.560 -0.2543 -0.7719  0.0132
  656MOL0     C86494  -2.449   0.722   7.453  0.1319  0.0363  0.4395
  656MOL0     O86495  -2.579   0.681   7.440 -0.2998 -0.0512  0.1590
  656MOL0     C86496  -2.615   0.558   7.510  0.3480  0.2462 -0.3580
  656MOL0     C86497  -2.747   0.503   7.462  0.3490 -0.7133 -0.4443
  656MOL0     C86498  -2.871   0.569   7.518 -0.0246  0.5908 -0.9776
  656MOL0     C86499  -3.006   0.512   7.450  0.5159 -0.2906 -1.3627
  656MOL0     C86500  -3.061   0.396   7.526  0.3591 -0.2181  0.3865
  656MOL0     C86501  -3.126   0.436   7.661  0.1536  0.0139 -0.6410
  656MOL0     C86502  -3.170   0.322   7.754 -0.3988  0.0467  0.0018
  656MOL0     C86503  -3.266   0.367   7.864  0.0194  0.2927  0.8574
  656MOL0    Cl86504  -3.343   0.215   7.930 -0.4057  0.2306  0.3780
  656MOL0     C86505  -2.399   0.784   7.340  0.1805 -0.0104  0.3929
  656MOL0     C86506  -2.264   0.816   7.335  0.1611 -0.3135 -0.0990
  656MOL0     O86507  -2.028   1.015   7.370 -0.2092  0.1457 -0.5782
  656MOL0     C86508  -1.744   0.991   7.367  0.0090  0.2060 -0.3439
  656MOL0     C86509  -1.602   0.980   7.372  0.8001 -0.3950  0.6499
  656MOL0     N86510  -0.865   0.709   7.465  0.1285  0.3499 -0.3064
  656MOL0     N86511  -0.766   0.704   7.552 -0.1369  1.2176  0.2286
  656MOL0     C86512   0.362   1.485   7.419 -0.4941 -0.5011  0.7786
  656MOL0     C86513   0.507   1.508   7.424  0.4064 -0.4706 -0.2514
  656MOL0     C86514   0.962   1.501   7.471 -0.2971 -0.9787 -0.0878
  656MOL0     C86515   1.013   1.372   7.496 -0.6179  0.3461  0.1215
  656MOL0     C86516   1.154   1.346   7.507  0.6392  0.3686  0.3907
  656MOL0     C86517   1.246   1.450   7.484 -0.3386  1.0987 -0.1636
  656MOL0     O86518   1.385   1.446   7.492  0.0708 -0.3058 -1.0371
  656MOL0     C86519   1.447   1.335   7.546 -0.2786 -0.5662  0.7472
  656MOL0     C86520   1.440   1.354   7.695  0.1433 -0.1129 -0.5689
  656MOL0     C86521   1.544   1.257   7.757 -0.2921  0.1986  0.2365
  656MOL0     C86522   1.604   1.281   7.897  0.5388 -0.0475  0.3746
  656MOL0     C86523   1.713   1.193   7.923 -0.0680  1.1089  0.3926
  656MOL0     C86524   1.811   1.114   7.927  0.2472  0.9864 -0.0732
  656MOL0     C86525   1.190   1.579   7.467  0.2294  0.5495 -1.4083
  656MOL0     C86526   1.055   1.604   7.458 -0.2858 -0.6440 -0.6402
  656MOL0     H86527   0.605   1.247   7.608  0.0856 -0.1195  0.4019
  656MOL0     H86528   0.372   1.209   7.609 -0.0309  1.4024 -0.2974
  656MOL0     H86529   0.149   1.254   7.644 -1.9884  1.6496 -0.0714
  656MOL0     H86530   0.192   1.149   7.505  0.5997 -0.0422  2.0519
  656MOL0     H86531  -0.019   1.196   7.387  1.3250  0.1768  0.0108
  656MOL0     H86532  -0.065   1.309   7.517 -1.2085 -1.0615  3.3210
  656MOL0     H86533  -0.119   1.165   7.671 -0.8693  0.2748 -0.2242
  656MOL0     H86534  -0.041   1.019   7.588  0.1721 -0.0160 -1.3860
  656MOL0     H86535  -0.286   1.189   7.525 -1.0586 -0.5369 -0.1029
  656MOL0     H86536  -0.239   1.061   7.420  0.7300 -0.0562  0.0707
  656MOL0     H86537  -0.265   0.981   7.711  1.2852  2.7883 -0.7596
  656MOL0     H86538  -0.257   0.880   7.582 -2.4164 -1.0983  1.3218
  656MOL0     H86539  -0.499   0.964   7.519 -2.6201  1.0871  1.3186
  656MOL0     H86540  -0.495   1.065   7.653  1.2135  0.7996 -2.4352
  656MOL0     H86541  -0.459   0.769   7.660 -0.2920 -1.5867  2.0036
  656MOL0     H86542  -0.445   0.872   7.807  0.8722  1.9750 -0.8793
  656MOL0     H86543  -0.686   0.952   7.750  3.1560  0.7967 -0.6158
  656MOL0     H86544  -0.676   0.787   7.794 -0.6787  1.2081  0.2785
  656MOL0     H86545  -0.776   1.021   7.537 -1.7725  0.0637 -0.3611
  656MOL0     H86546  -0.982   0.874   7.259  3.0147  1.4426 -1.5398
  656MOL0     H86547  -0.961   1.013   7.360  0.8831 -0.8574 -1.8801
  656MOL0     H86548  -1.193   0.964   7.354  1.4462  1.0390  0.4825
  656MOL0     H86549  -1.152   0.914   7.516  0.8556  1.7733 -0.2357
  656MOL0     H86550  -1.182   0.737   7.265 -0.2177  0.4197 -1.0656
  656MOL0     H86551  -1.129   0.675   7.418 -1.4005 -0.3741  1.1306
  656MOL0     H86552  -1.354   0.725   7.523  1.1364  4.0255  0.9928
  656MOL0     H86553  -1.366   0.651   7.361  2.5842  0.0531 -0.2376
  656MOL0     H86554  -1.594   0.661   7.496  0.7221  0.5166  1.0344
  656MOL0     H86555  -1.816   0.682   7.487  4.0441 -1.7192 -0.0071
  656MOL0     H86556  -2.170   0.730   7.647 -1.0000  1.2058  0.3322
  656MOL0     H86557  -2.389   0.627   7.650  1.7124 -3.6495 -1.0235
  656MOL0     H86558  -2.627   0.584   7.616  0.9490  1.4737 -0.5687
  656MOL0     H86559  -2.537   0.481   7.503 -1.3841 -1.6016 -0.2585
  656MOL0     H86560  -2.746   0.395   7.483  0.0395 -0.4187  1.2376
  656MOL0     H86561  -2.754   0.520   7.355  0.2513  1.2615 -0.1633
  656MOL0     H86562  -2.876   0.676   7.495 -1.8132  1.4571  2.6917
  656MOL0     H86563  -2.870   0.565   7.628 -2.0150 -1.4803 -0.9348
  656MOL0     H86564  -3.086   0.586   7.449 -0.2641 -1.1120 -1.3626
  656MOL0     H86565  -2.995   0.494   7.342 -3.2936  2.2218 -2.3472
  656MOL0     H86566  -2.983   0.321   7.543  0.8061 -0.1230 -1.0805
  656MOL0     H86567  -3.135   0.362   7.454 -1.3696  0.8499  1.5808
  656MOL0     H86568  -3.210   0.505   7.646  1.9847  2.2820 -1.0439
  656MOL0     H86569  -3.056   0.499   7.717 -1.4355  1.0423  0.2718
  656MOL0     H86570  -3.211   0.241   7.692 -0.0904 -0.8156  0.8873
  656MOL0     H86571  -3.074   0.285   7.792 -0.3172  0.7802  0.5158
  656MOL0     H86572  -3.353   0.416   7.819 -0.7010 -0.9433  0.8495
  656MOL0     H86573  -3.218   0.442   7.928 -0.6556  1.9783 -0.5321
  656MOL0     H86574  -2.460   0.799   7.252  0.6057  0.5533  0.1942
  656MOL0     H86575  -2.225   0.868   7.248  0.7537 -0.1967  0.2336
  656MOL0     H86576  -1.795   1.085   7.349 -3.4402 -1.2663  1.0098
  656MOL0     H86577  -1.547   1.067   7.338  0.4542 -0.2100  0.5597
  656MOL0     H86578   0.306   1.557   7.359  1.7647 -0.3425 -1.2773
  656MOL0     H86579   0.537   1.597   7.371 -3.2119  0.2274 -1.4466
  656MOL0     H86580   0.947   1.286   7.501  1.0301 -0.9783  0.0494
  656MOL0     H86581   1.196   1.246   7.519 -0.6624 -0.2577 -0.0765
  656MOL0     H86582   1.550   1.325   7.512 -0.8025 -1.3673 -0.7273
  656MOL0     H86583   1.407   1.244   7.501 -0.6753  0.7859 -1.8510
  656MOL0     H86584   1.465   1.451   7.739  0.2387  0.0460 -0.9645
  656MOL0     H86585   1.338   1.328   7.723  0.1035  0.4913 -0.1328
  656MOL0     H86586   1.635   1.257   7.696  1.3406 -0.4200  2.5553
  656MOL0     H86587   1.495   1.160   7.772  2.4953 -0.9653  3.0874
  656MOL0     H86588   1.640   1.381   7.922 -1.6912  0.9657 -0.1746
  656MOL0     H86589   1.523   1.261   7.968  0.3405 -1.1948 -0.1432
  656MOL0     H86590   1.891   1.042   7.935  1.9373  2.8217  0.1694
  656MOL0     H86591   1.249   1.670   7.458  1.0120  0.0847 -1.1343
  656MOL0     H86592   1.030   1.707   7.434  0.0668 -0.1347  1.0832
  657MOL0     O86593   5.656  10.271   4.553  0.4548  0.5975  1.0377
  657MOL0     C86594   5.692  10.388   4.523 -0.2143 -0.1452 -1.0568
  657MOL0     O86595   5.622  10.483   4.465 -0.5663  0.2690 -0.4582
  657MOL0     C86596   5.494  10.453   4.431 -1.1295  0.3485  0.1308
  657MOL0     C86597   5.396  10.442   4.523 -0.1197 -0.5008  0.2705
  657MOL0     C86598   5.267  10.424   4.481 -0.2215 -0.7529  0.2539
  657MOL0     C86599   5.233  10.423   4.345  0.4622 -0.3638 -0.4402
  657MOL0     O86600   5.095  10.434   4.320 -0.1393 -0.4462 -0.0845
  657MOL0     C86601   5.064  10.490   4.191 -0.0108  0.2389  0.8065
  657MOL0     C86602   4.918  10.521   4.185  0.3481  0.2471 -0.8093
  657MOL0     C86603   4.832  10.393   4.194  0.1372  0.2194  0.0988
  657MOL0     C86604   4.682  10.434   4.185 -0.1417  0.1072  0.7599
  657MOL0     C86605   4.586  10.314   4.147 -0.4082  0.3977 -0.3523
  657MOL0     C86606   4.624  10.260   4.013 -0.1442 -1.1221  0.1099
  657MOL0     C86607   4.511  10.174   3.952 -0.1860  0.0499  0.5294
  657MOL0     C86608   4.550  10.148   3.801 -0.6246  0.4632 -0.3502
  657MOL0     N86609   4.451  10.054   3.748 -0.5104  0.8091  0.8096
  657MOL0     C86610   4.359  10.079   3.645 -0.1617  0.4807  0.4260
  657MOL0     C86611   4.275   9.973   3.632 -0.4629  0.1482 -0.6584
  657MOL0     C86612   4.165   9.939   3.541  0.8672  0.2619  0.3886
  657MOL0     C86613   4.095   9.806   3.561  0.5446 -0.1732  0.1842
  657MOL0     C86614   4.007   9.761   3.446  0.2916 -0.8143  0.2575
  657MOL0     C86615   3.903   9.866   3.400  0.3916 -0.1544 -0.8514
  657MOL0     O86616   3.809   9.813   3.296  0.5455  0.0949 -0.1598
  657MOL0     C86617   3.683   9.762   3.323  0.2377  0.6125  0.8265
  657MOL0     C86618   3.640   9.725   3.459  0.2222 -0.2058 -0.0485
  657MOL0     C86619   3.513   9.672   3.478 -0.0941 -0.2338  0.6709
  657MOL0     C86620   3.430   9.652   3.367 -1.2587 -0.9440  0.6324
  657MOL0     C86621   3.292   9.597   3.380  0.0845 -0.2237  0.1412
  657MOL0     O86622   3.245   9.561   3.509  0.3180  0.7526  0.0862
  657MOL0     C86623   3.120   9.512   3.524 -0.5811 -0.0263 -0.8164
  657MOL0     C86624   3.078   9.525   3.656 -0.1401  0.6420 -0.6022
  657MOL0     C86625   2.949   9.498   3.688 -0.3258  0.0484 -0.2519
  657MOL0     C86626   2.859   9.447   3.591  0.4481  0.0888  0.5987
  657MOL0     O86627   2.734   9.406   3.634  0.7387 -0.5279 -0.0694
  657MOL0     C86628   2.704   9.276   3.602 -0.1666 -0.1757 -0.1140
  657MOL0     C86629   2.559   9.233   3.648 -0.5341 -0.3766 -0.0775
  657MOL0     C86630   2.499   9.125   3.565  0.1372 -0.6854 -0.6723
  657MOL0     C86631   2.475   9.180   3.422  0.0235  0.2869 -0.5768
  657MOL0     C86632   2.349   9.132   3.360  0.4476 -0.5692 -1.1640
  657MOL0     C86633   2.364   8.985   3.330 -0.2295 -0.8112  0.0369
  657MOL0     C86634   2.244   8.917   3.261  0.3842 -0.1491  0.0927
  657MOL0     C86635   2.218   8.988   3.131 -0.5030  0.3321 -0.0203
  657MOL0    Cl86636   2.112   8.903   3.009  0.0134  0.0827  0.6064
  657MOL0     C86637   2.908   9.423   3.464  0.0749  0.1971 -0.5605
  657MOL0     C86638   3.036   9.453   3.432 -0.2058  0.8244  0.5176
  657MOL0     O86639   3.222   9.602   3.274  0.2073  0.0105 -0.0913
  657MOL0     C86640   3.479   9.679   3.231 -0.0531  0.7250 -0.3015
  657MOL0     C86641   3.609   9.726   3.213  0.2217  0.0170  0.1708
  657MOL0     N86642   4.327   9.882   3.723 -0.9367  0.2173  0.3037
  657MOL0     N86643   4.422   9.931   3.789 -0.2325  0.2360 -0.0675
  657MOL0     C86644   5.333  10.455   4.256 -0.3808 -0.3882  0.2352
  657MOL0     C86645   5.465  10.462   4.295 -0.3460  0.1862 -0.7822
  657MOL0     C86646   5.829  10.422   4.560  0.2239  0.5025 -0.6621
  657MOL0     C86647   5.895  10.344   4.661 -0.2255 -0.2688  0.0744
  657MOL0     C86648   6.027  10.359   4.674  0.6757  0.1177 -0.0362
  657MOL0     C86649   6.096  10.457   4.604 -0.0853  0.9444 -0.8747
  657MOL0     O86650   6.232  10.463   4.627 -0.0523 -0.4406 -0.3800
  657MOL0     C86651   6.297  10.599   4.615  0.3727  0.4807  0.2183
  657MOL0     C86652   6.423  10.605   4.680 -0.7576 -0.9512  0.2224
  657MOL0     C86653   6.512  10.487   4.628 -0.5171 -0.2979 -0.1351
  657MOL0     C86654   6.647  10.473   4.699  0.0057  0.0971 -0.8616
  657MOL0     C86655   6.716  10.601   4.722 -0.5657  0.7928 -0.3156
  657MOL0     C86656   6.787  10.705   4.733 -0.2066 -0.5428  0.2727
  657MOL0     C86657   6.029  10.541   4.516  0.3734  0.0299 -0.9486
  657MOL0     C86658   5.898  10.526   4.493 -0.2922  0.6594  0.4557
  657MOL0     H86659   5.418  10.438   4.629 -0.1308  0.1212  0.3013
  657MOL0     H86660   5.182  10.404   4.547 -0.9750 -1.1784 -0.8117
  657MOL0     H86661   5.100  10.427   4.109 -3.5687 -2.8825  1.3862
  657MOL0     H86662   5.123  10.578   4.165 -1.5426  0.4996 -2.2680
  657MOL0     H86663   4.900  10.555   4.082  4.5810  0.2828 -1.7269
  657MOL0     H86664   4.892  10.598   4.258 -0.6025 -0.0470 -0.8194
  657MOL0     H86665   4.860  10.346   4.289  0.9715  1.1395  0.3285
  657MOL0     H86666   4.866  10.335   4.108 -0.1686  0.7044 -0.3569
  657MOL0     H86667   4.656  10.488   4.276 -0.5595  2.1297 -0.4899
  657MOL0     H86668   4.676  10.514   4.110 -0.1368  0.1506  0.8063
  657MOL0     H86669   4.485  10.354   4.134  0.9213  3.4155 -2.8207
  657MOL0     H86670   4.595  10.241   4.228  0.8599  1.9724  1.0120
  657MOL0     H86671   4.720  10.209   4.005  1.2311  1.5054 -1.2843
  657MOL0     H86672   4.636  10.347   3.948 -0.5896 -1.5185 -0.5152
  657MOL0     H86673   4.535  10.080   4.003  1.5659 -0.1391 -0.5348
  657MOL0     H86674   4.409  10.210   3.967  0.2725  1.6835  0.0154
  657MOL0     H86675   4.650  10.107   3.786 -1.4549 -1.6579 -0.4607
  657MOL0     H86676   4.538  10.239   3.741  0.2950 -0.0735 -1.3887
  657MOL0     H86677   4.359  10.179   3.603  1.5563  1.3120  2.2597
  657MOL0     H86678   4.208   9.932   3.441  2.5697  0.6628  1.0679
  657MOL0     H86679   4.084  10.014   3.546  0.6405 -0.0059  5.6344
  657MOL0     H86680   4.037   9.795   3.653  1.4214 -1.7278  0.5970
  657MOL0     H86681   4.177   9.733   3.568  1.1493 -0.0480 -3.6528
  657MOL0     H86682   4.073   9.717   3.371 -0.5165  1.6147 -2.0267
  657MOL0     H86683   3.952   9.674   3.486 -0.3976  1.1159  3.9475
  657MOL0     H86684   3.955   9.949   3.351  0.5482 -0.8891 -1.9573
  657MOL0     H86685   3.843   9.904   3.483  1.1540 -0.1367 -0.3043
  657MOL0     H86686   3.703   9.751   3.544  1.6234 -4.3500  0.3868
  657MOL0     H86687   3.478   9.636   3.574  1.3712 -2.7932  0.3537
  657MOL0     H86688   3.148   9.569   3.725  0.5501 -1.9968  0.5319
  657MOL0     H86689   2.908   9.523   3.786 -1.2061 -2.8438  0.1987
  657MOL0     H86690   2.780   9.210   3.644  2.1155  1.9138 -0.7436
  657MOL0     H86691   2.707   9.262   3.494 -2.2777 -0.0354 -0.2386
  657MOL0     H86692   2.491   9.320   3.654 -0.5472 -0.4906  2.2672
  657MOL0     H86693   2.568   9.192   3.748  1.5219  1.1757  0.4327
  657MOL0     H86694   2.411   9.094   3.623  0.2303 -0.0603 -0.1782
  657MOL0     H86695   2.574   9.046   3.568  0.5627 -0.2643  0.7403
  657MOL0     H86696   2.487   9.289   3.418  0.0083  0.2643 -1.4135
  657MOL0     H86697   2.557   9.146   3.358 -1.9373 -1.3817 -2.3660
  657MOL0     H86698   2.330   9.191   3.270 -3.6335 -0.1106 -0.2130
  657MOL0     H86699   2.259   9.137   3.421  1.0021 -1.7571 -0.2021
  657MOL0     H86700   2.381   8.923   3.418  2.5660 -1.0844 -0.5922
  657MOL0     H86701   2.450   8.976   3.263 -1.5727 -1.9629 -1.6426
  657MOL0     H86702   2.257   8.809   3.252 -0.9322 -0.6889  3.3883
  657MOL0     H86703   2.149   8.934   3.312 -0.8763 -2.2119 -1.4013
  657MOL0     H86704   2.316   9.010   3.089  1.7998 -2.8098  3.1304
  657MOL0     H86705   2.177   9.088   3.150  0.7081  0.9380 -0.5257
  657MOL0     H86706   2.851   9.378   3.383  1.2798 -0.0686 -1.2861
  657MOL0     H86707   3.078   9.425   3.336 -0.8667 -0.0405  0.4687
  657MOL0     H86708   3.413   9.664   3.146  2.5538 -0.5104 -2.2354
  657MOL0     H86709   3.639   9.745   3.111 -0.7421 -0.6673 -0.2558
  657MOL0     H86710   5.322  10.467   4.149  0.3632  0.8474  0.2801
  657MOL0     H86711   5.547  10.483   4.227  1.0896  0.9434  1.0886
  657MOL0     H86712   5.850  10.253   4.700 -3.1064  0.4723 -1.2435
  657MOL0     H86713   6.081  10.286   4.734 -1.1942 -3.0118 -1.8763
  657MOL0     H86714   6.231  10.679   4.650  2.4857  2.7643 -0.7223
  657MOL0     H86715   6.315  10.624   4.509  1.1640  1.4095  0.5552
  657MOL0     H86716   6.478  10.697   4.658  2.4162 -2.0772  2.6252
  657MOL0     H86717   6.406  10.591   4.788 -3.2946 -0.8371 -0.0931
  657MOL0     H86718   6.542  10.502   4.524 -0.4230 -1.1169 -0.2257
  657MOL0     H86719   6.467  10.389   4.644  2.0098 -1.0926  3.1785
  657MOL0     H86720   6.626  10.422   4.793  1.2762 -0.2410 -0.7380
  657MOL0     H86721   6.720  10.412   4.646  0.5672  1.6639 -2.0040
  657MOL0     H86722   6.841  10.798   4.735  0.8650 -0.7790 -4.5621
  657MOL0     H86723   6.088  10.609   4.455 -0.8054  0.4786 -1.6121
  657MOL0     H86724   5.849  10.587   4.417  0.8384 -2.2488 -2.8656
  658MOL0     O86725   9.792  10.856   8.133  0.1948  0.0227  0.2233
  658MOL0     C86726   9.846  10.834   8.023 -0.4533 -0.9724  0.6319
  658MOL0     O86727   9.791  10.765   7.917  0.7611  0.3913  0.3845
  658MOL0     C86728   9.656  10.743   7.929 -0.1354  0.7506  0.1106
  658MOL0     C86729   9.563  10.832   7.886  0.5631 -0.3474  0.3663
  658MOL0     C86730   9.421  10.803   7.873  0.2928 -0.0807 -0.5204
  658MOL0     C86731   9.379  10.686   7.934 -0.4090  0.8820  0.3708
  658MOL0     O86732   9.250  10.660   7.934 -0.2009  0.1842 -0.3498
  658MOL0     C86733   9.204  10.549   7.853 -0.0098  0.3583  0.1506
  658MOL0     C86734   9.083  10.482   7.925 -0.9917  0.3281 -0.6550
  658MOL0     C86735   9.126  10.391   8.040  0.5754  0.3577  0.5323
  658MOL0     C86736   8.996  10.313   8.094 -0.4701  0.9344  0.3853
  658MOL0     C86737   9.051  10.201   8.184 -0.7292 -0.1458 -0.0428
  658MOL0     C86738   9.096  10.263   8.319  0.7674 -0.2804 -0.1865
  658MOL0     C86739   9.155  10.160   8.402  0.0056 -0.3283 -0.6707
  658MOL0     C86740   9.208  10.220   8.532 -0.0319  0.7222 -0.2777
  658MOL0     N86741   9.100  10.267   8.619 -0.6210 -0.6201  0.0751
  658MOL0     C86742   9.013  10.189   8.686  0.9149  0.0574  0.3236
  658MOL0     C86743   8.921  10.278   8.741  0.2739  0.4608  0.6310
  658MOL0     C86744   8.799  10.245   8.839 -0.4511  0.3229 -0.3592
  658MOL0     C86745   8.850  10.229   8.983  0.0150  0.6914 -0.3058
  658MOL0     C86746   8.952  10.333   9.035  0.6671  0.3065 -0.1988
  658MOL0     C86747   8.976  10.315   9.186 -0.7146  0.3108  0.9803
  658MOL0     O86748   9.057  10.419   9.243 -0.6996 -0.5856  0.9189
  658MOL0     C86749   9.136  10.386   9.350 -0.1015 -0.2748 -0.3448
  658MOL0     C86750   9.271  10.432   9.331  0.3021  0.2375 -0.2368
  658MOL0     C86751   9.369  10.388   9.421 -0.2853  0.6294  0.0357
  658MOL0     C86752   9.335  10.287   9.516  0.4707 -0.3573  0.1298
  658MOL0     C86753   9.434  10.230   9.615  0.1959  0.3158 -0.5179
  658MOL0     O86754   9.389  10.158   9.723  0.2299 -0.6306 -0.0349
  658MOL0     C86755   9.486  10.104   9.796  0.1383 -0.5790  0.0692
  658MOL0     C86756   9.546  10.175   9.898 -0.2237  0.1134  0.3312
  658MOL0     C86757   9.637  10.101   9.974  0.3988  0.6615  0.2200
  658MOL0     C86758   9.664   9.961   9.951 -0.7371 -0.5702 -1.1308
  658MOL0     O86759   9.748   9.882  10.022 -0.1215  1.0348  0.3736
  658MOL0     C86760   9.808   9.936  10.143 -0.6580  0.4310 -0.4455
  658MOL0     C86761   9.855   9.814  10.223  0.2628 -0.3718  1.6547
  658MOL0     C86762   9.921   9.857  10.355 -0.1935 -0.5429 -0.9568
  658MOL0     C86763   9.819   9.902  10.464  0.3728  0.4079  0.0940
  658MOL0     C86764   9.888   9.935  10.595  0.1312  0.0655  1.0676
  658MOL0     C86765   9.789  10.013  10.686 -0.4020  0.0003  0.9390
  658MOL0     C86766   9.858  10.054  10.819  0.6427 -0.1604  0.3504
  658MOL0     C86767   9.784  10.031  10.960 -0.0541  0.1921  0.7382
  658MOL0    Cl86768   9.890  10.093  11.085  0.0503 -0.4662  0.1268
  658MOL0     C86769   9.584   9.892   9.856  0.4635  0.2376 -0.5026
  658MOL0     C86770   9.491   9.964   9.779 -1.0058  0.4215 -0.0059
  658MOL0     O86771   9.550  10.252   9.597 -0.6709 -0.0790  0.2796
  658MOL0     C86772   9.199  10.244   9.530 -0.2170  0.0057 -0.0592
  658MOL0     C86773   9.104  10.307   9.455 -0.7027  0.0639 -0.9463
  658MOL0     N86774   8.961  10.403   8.703  0.3170  0.1040  0.4202
  658MOL0     N86775   9.058  10.398   8.622 -0.4538 -0.6363 -0.6115
  658MOL0     C86776   9.473  10.598   7.986 -1.5854 -0.1498  0.2848
  658MOL0     C86777   9.619  10.621   7.979  0.6622  0.3324  0.3593
  658MOL0     C86778   9.969  10.900   7.983 -0.3461 -0.2518  0.5160
  658MOL0     C86779  10.026  10.886   7.855 -0.0013 -0.3592 -0.6824
  658MOL0     C86780  10.133  10.966   7.815  0.2662  0.5720  0.0019
  658MOL0     C86781  10.195  11.055   7.907 -0.1802  0.1303  0.1234
  658MOL0     O86782  10.309  11.133   7.887  0.2993  0.2679  0.2643
  658MOL0     C86783  10.374  11.099   7.761  0.0571  0.5506 -0.8363
  658MOL0     C86784  10.484  11.186   7.713 -0.1580 -0.8078 -0.0019
  658MOL0     C86785  10.418  11.309   7.642 -0.2169 -0.4484 -0.3432
  658MOL0     C86786  10.505  11.363   7.532 -0.9984 -0.3424 -0.2678
  658MOL0     C86787  10.623  11.416   7.586 -0.7650 -0.2704 -0.4675
  658MOL0     C86788  10.713  11.478   7.639 -0.0792 -0.0287 -0.2798
  658MOL0     C86789  10.135  11.066   8.031  0.1496 -0.5365  0.1965
  658MOL0     C86790  10.033  10.980   8.076 -0.4210 -0.2508 -1.1765
  658MOL0     H86791   9.598  10.921   7.836  0.4878 -1.3780 -1.6170
  658MOL0     H86792   9.353  10.874   7.827  1.3427  2.4723  1.6169
  658MOL0     H86793   9.286  10.477   7.838 -0.9474 -1.1870  1.9366
  658MOL0     H86794   9.177  10.590   7.755  0.7396 -0.2592 -0.3344
  658MOL0     H86795   9.026  10.424   7.852 -0.5247 -0.5173 -0.3545
  658MOL0     H86796   9.015  10.559   7.963 -1.0227  0.6184 -1.2908
  658MOL0     H86797   9.168  10.449   8.122  3.0980 -1.8715  0.9577
  658MOL0     H86798   9.201  10.321   8.003  0.9143  0.4311  1.0733
  658MOL0     H86799   8.927  10.382   8.142  0.0732  0.5788  1.7452
  658MOL0     H86800   8.953  10.266   8.005  1.8068 -2.0602  0.6951
  658MOL0     H86801   9.136  10.153   8.135 -0.3210  1.0974 -0.5933
  658MOL0     H86802   8.974  10.125   8.198  0.3026 -1.1926  0.0521
  658MOL0     H86803   9.007  10.309   8.364 -0.6187  0.6131 -3.5331
  658MOL0     H86804   9.168  10.341   8.291 -0.3344  0.0740 -2.2356
  658MOL0     H86805   9.092  10.075   8.432  0.0720  0.1817  1.0024
  658MOL0     H86806   9.237  10.118   8.343  0.9305  1.1014 -0.4430
  658MOL0     H86807   9.277  10.300   8.505  0.3176  0.8060  0.7978
  658MOL0     H86808   9.270  10.150   8.589  0.3476  1.5433  0.3475
  658MOL0     H86809   9.010  10.081   8.699 -1.0116  0.1119  0.7614
  658MOL0     H86810   8.747  10.154   8.806 -0.1493  0.6697 -1.8894
  658MOL0     H86811   8.735  10.334   8.841  0.3574  0.9274 -0.9419
  658MOL0     H86812   8.896  10.130   8.986  0.3884  0.8847  0.9885
  658MOL0     H86813   8.772  10.239   9.059  1.1937  0.2131  1.0214
  658MOL0     H86814   9.050  10.316   8.988  1.1099 -1.7922  1.3506
  658MOL0     H86815   8.924  10.439   9.038  1.0328  0.3936  1.7053
  658MOL0     H86816   9.017  10.218   9.215  2.6903  1.2584 -0.1545
  658MOL0     H86817   8.882  10.326   9.239 -0.2748  1.7826  1.5049
  658MOL0     H86818   9.290  10.493   9.244 -1.8137 -0.9457 -1.5987
  658MOL0     H86819   9.472  10.415   9.405 -0.5611  2.2706  0.8430
  658MOL0     H86820   9.524  10.279   9.917  4.5519  1.1199  1.4488
  658MOL0     H86821   9.696  10.155  10.048  1.5956 -1.2228  0.6928
  658MOL0     H86822   9.739   9.996  10.204 -1.5153  1.2660 -2.1730
  658MOL0     H86823   9.884  10.009  10.113  2.3834 -2.1844  0.4057
  658MOL0     H86824   9.929   9.752  10.172 -1.4603 -1.3970  0.3003
  658MOL0     H86825   9.766   9.752  10.236  1.0696 -2.3242 -1.3299
  658MOL0     H86826  10.008   9.924  10.349  1.0301 -1.6217  2.2142
  658MOL0     H86827   9.964   9.760  10.383  2.8014  0.7203 -0.6950
  658MOL0     H86828   9.760   9.991  10.440  0.4912  1.2041  2.5147
  658MOL0     H86829   9.751   9.821  10.491 -0.4928  0.1726 -2.4778
  658MOL0     H86830   9.974   9.998  10.569  0.3852  0.0005  1.7179
  658MOL0     H86831   9.907   9.832  10.627  2.3145  0.0962  0.0460
  658MOL0     H86832   9.709   9.946  10.719  0.3587 -2.6190 -2.0892
  658MOL0     H86833   9.742  10.094  10.631 -0.3883 -0.1049  0.7710
  658MOL0     H86834   9.955  10.005  10.833  0.3671 -0.4344  1.4007
  658MOL0     H86835   9.868  10.163  10.814  0.0250 -0.0236  1.6721
  658MOL0     H86836   9.762   9.926  10.980 -0.1116  0.1829  0.6254
  658MOL0     H86837   9.682  10.070  10.952 -0.0982 -0.2306 -1.1709
  658MOL0     H86838   9.594   9.786   9.835 -0.6840  0.4700 -2.4770
  658MOL0     H86839   9.431   9.897   9.718  1.9404 -2.4426 -0.0394
  658MOL0     H86840   9.170  10.175   9.608  0.4257  0.1396  0.3069
  658MOL0     H86841   8.998  10.298   9.476 -0.3648 -3.1636 -0.0880
  658MOL0     H86842   9.451  10.498   8.021 -0.4420 -0.0514  1.3608
  658MOL0     H86843   9.702  10.559   8.013  1.5812  1.2174 -0.2365
  658MOL0     H86844   9.983  10.817   7.783  1.3648  1.8817 -3.8905
  658MOL0     H86845  10.182  10.947   7.720  2.7414  1.0904  1.0859
  658MOL0     H86846  10.299  11.093   7.681 -0.8524  0.3170  0.0142
  658MOL0     H86847  10.423  11.002   7.769 -0.7409  0.2678  1.0757
  658MOL0     H86848  10.544  11.230   7.793 -2.6720  0.6508  1.1997
  658MOL0     H86849  10.554  11.136   7.646  2.0217 -0.5515  1.9740
  658MOL0     H86850  10.390  11.386   7.714  1.4428 -0.8687  0.8083
  658MOL0     H86851  10.328  11.277   7.590 -1.2093  0.2822  0.8543
  658MOL0     H86852  10.538  11.281   7.467  2.4743 -1.5749  2.6657
  658MOL0     H86853  10.454  11.441   7.474 -0.0440  1.7792  1.5892
  658MOL0     H86854  10.785  11.534   7.695 -1.9206  1.7618  0.4328
  658MOL0     H86855  10.193  11.115   8.108 -3.2292  0.6485  2.1681
  658MOL0     H86856  10.018  10.977   8.184 -0.6092  0.5427 -1.1703
  659MOL0     O86857   5.410   1.689   5.639 -0.2063  0.2246  0.2359
  659MOL0     C86858   5.420   1.612   5.547 -0.2026  0.0177 -0.1956
  659MOL0     O86859   5.317   1.534   5.495  0.2712 -0.3950 -0.1371
  659MOL0     C86860   5.214   1.520   5.587  0.0046 -0.5239 -0.5400
  659MOL0     C86861   5.103   1.616   5.593  0.5866  0.3782  0.5890
  659MOL0     C86862   4.988   1.585   5.673 -0.3712  0.5237 -0.3221
  659MOL0     C86863   4.989   1.462   5.746  0.0909  1.0387  0.8817
  659MOL0     O86864   4.880   1.435   5.818 -0.3267  0.7617  0.3486
  659MOL0     C86865   4.836   1.295   5.795  0.4129 -0.5945  0.0066
  659MOL0     C86866   4.697   1.253   5.845 -0.2082  0.2495  0.2105
  659MOL0     C86867   4.583   1.351   5.821  0.1801  0.7565  0.3889
  659MOL0     C86868   4.570   1.460   5.928  0.2098  0.2058  0.4457
  659MOL0     C86869   4.480   1.567   5.871  0.0588 -0.2194  0.4434
  659MOL0     C86870   4.447   1.675   5.963  0.1444  0.2871  0.7319
  659MOL0     C86871   4.564   1.739   6.037 -0.0296 -0.6048  0.1165
  659MOL0     C86872   4.670   1.793   5.939  0.0913  0.1910 -0.5508
  659MOL0     N86873   4.733   1.908   5.998  0.2507 -0.2947  0.0982
  659MOL0     C86874   4.799   1.908   6.124  0.4220 -0.2375 -0.1051
  659MOL0     C86875   4.847   2.033   6.134  0.8908 -0.6419 -0.4212
  659MOL0     C86876   4.919   2.084   6.260 -0.2149 -0.1749 -0.7409
  659MOL0     C86877   5.069   2.103   6.246 -0.5370  0.2460  0.2211
  659MOL0     C86878   5.100   2.229   6.161  0.6139  0.3987 -0.1110
  659MOL0     C86879   5.247   2.250   6.138  0.5039  0.9485 -0.6523
  659MOL0     O86880   5.275   2.375   6.067 -0.2131  0.2093 -0.0187
  659MOL0     C86881   5.402   2.405   6.073 -0.5329  0.2559  0.8481
  659MOL0     C86882   5.438   2.509   6.155  0.5298  1.2294 -0.7580
  659MOL0     C86883   5.569   2.555   6.170  0.9853 -0.7260  0.1354
  659MOL0     C86884   5.666   2.494   6.086  0.8767 -0.1880 -0.4776
  659MOL0     C86885   5.805   2.536   6.112  1.1821  0.2681 -0.7011
  659MOL0     O86886   5.895   2.490   6.020 -0.3814 -0.2853  1.1339
  659MOL0     C86887   6.019   2.552   6.036  0.1023 -0.4510 -0.3421
  659MOL0     C86888   6.059   2.635   5.937  0.3734  0.0937 -0.0850
  659MOL0     C86889   6.184   2.697   5.944  0.0153  0.3315 -0.0396
  659MOL0     C86890   6.270   2.682   6.056 -0.3305  0.6989 -0.6250
  659MOL0     O86891   6.393   2.751   6.058 -0.0295 -0.1365  0.7152
  659MOL0     C86892   6.473   2.730   6.171 -0.5155 -0.6214 -0.2023
  659MOL0     C86893   6.599   2.824   6.180  0.8169  0.1306 -0.8061
  659MOL0     C86894   6.714   2.795   6.083 -0.5803  1.0453 -0.2178
  659MOL0     C86895   6.846   2.864   6.115 -0.0312  0.2041 -0.2188
  659MOL0     C86896   6.951   2.834   6.001  0.2812 -0.2983 -0.4948
  659MOL0     C86897   7.081   2.919   6.017 -0.0141 -0.2930 -0.3599
  659MOL0     C86898   7.059   3.050   5.934  1.1183 -0.5845 -0.3513
  659MOL0     C86899   7.192   3.105   5.895 -0.1215 -1.0948 -0.5645
  659MOL0    Cl86900   7.288   3.148   6.045 -0.1107  0.4659 -0.5141
  659MOL0     C86901   6.218   2.603   6.165 -0.1167 -0.7510  0.1568
  659MOL0     C86902   6.106   2.529   6.147  0.9225 -0.3850 -0.4407
  659MOL0     O86903   5.824   2.620   6.195  0.3579 -0.1574 -0.0243
  659MOL0     C86904   5.631   2.389   6.000  0.4267  0.9380 -0.3342
  659MOL0     C86905   5.495   2.348   5.989 -0.4878  0.4236 -0.2560
  659MOL0     N86906   4.818   2.102   6.021 -0.0110  0.0974  0.0050
  659MOL0     N86907   4.747   2.031   5.938 -0.2091  0.2814  0.9396
  659MOL0     C86908   5.106   1.385   5.749 -0.2278 -0.5954 -0.0302
  659MOL0     C86909   5.203   1.402   5.660  0.0577  0.9811  0.2840
  659MOL0     C86910   5.558   1.582   5.503 -0.3331 -0.3803 -0.7712
  659MOL0     C86911   5.670   1.636   5.567 -0.0546  0.4648  1.0891
  659MOL0     C86912   5.804   1.615   5.509 -0.1296  0.5083 -0.6600
  659MOL0     C86913   5.828   1.539   5.397  0.5297  0.5471 -0.6712
  659MOL0     O86914   5.952   1.522   5.339 -0.2050 -0.3451  0.0877
  659MOL0     C86915   6.063   1.576   5.409  0.7424 -0.1044  0.1360
  659MOL0     C86916   6.199   1.525   5.356  0.6750  0.4185  0.3351
  659MOL0     C86917   6.259   1.601   5.241  0.0800 -0.2418 -0.4911
  659MOL0     C86918   6.361   1.699   5.292  0.0465  0.7818  0.4190
  659MOL0     C86919   6.490   1.622   5.300 -0.2856 -0.4770 -0.8178
  659MOL0     C86920   6.604   1.580   5.319  0.6383 -0.2472 -0.3396
  659MOL0     C86921   5.716   1.481   5.330  0.1494 -0.9656  0.3454
  659MOL0     C86922   5.583   1.507   5.384 -0.1720  0.4021 -0.4142
  659MOL0     H86923   5.093   1.707   5.534  0.6976 -0.3423 -0.5691
  659MOL0     H86924   4.899   1.647   5.681 -1.5894 -1.2330  0.2966
  659MOL0     H86925   4.909   1.226   5.838 -0.1811 -0.3507  1.4637
  659MOL0     H86926   4.840   1.266   5.689  0.3899 -1.1328  0.1514
  659MOL0     H86927   4.707   1.231   5.952  1.6890 -0.6816 -0.1113
  659MOL0     H86928   4.673   1.154   5.806  1.6665 -0.1998  0.1226
  659MOL0     H86929   4.489   1.295   5.814  0.5402  0.2030 -0.1341
  659MOL0     H86930   4.606   1.392   5.723 -2.0211  1.6897  0.2068
  659MOL0     H86931   4.524   1.428   6.021 -0.4757  1.0594  0.4072
  659MOL0     H86932   4.670   1.487   5.963  1.6254 -2.1057 -1.4631
  659MOL0     H86933   4.386   1.522   5.837  0.3610  0.9083 -2.0383
  659MOL0     H86934   4.520   1.606   5.778  0.8339 -0.6497  0.5861
  659MOL0     H86935   4.379   1.630   6.036 -1.1934 -0.2629 -0.7790
  659MOL0     H86936   4.404   1.759   5.908  4.0716  2.2470  0.2798
  659MOL0     H86937   4.517   1.820   6.095 -4.3224  0.3423 -4.0162
  659MOL0     H86938   4.622   1.666   6.093  2.4021 -0.0274 -1.5104
  659MOL0     H86939   4.625   1.819   5.843 -1.2785  1.0084  0.2875
  659MOL0     H86940   4.740   1.713   5.911 -3.9164 -3.2679 -1.6940
  659MOL0     H86941   4.813   1.818   6.182  1.2452  0.5545  0.9643
  659MOL0     H86942   4.900   2.009   6.337 -1.4233 -1.0929 -1.9068
  659MOL0     H86943   4.873   2.177   6.295  0.5265 -0.7734  2.0879
  659MOL0     H86944   5.127   2.014   6.219  1.4725  1.1482  1.3613
  659MOL0     H86945   5.102   2.122   6.348  0.4393 -1.7198  0.3219
  659MOL0     H86946   5.049   2.232   6.064 -1.3922  1.9693  0.8954
  659MOL0     H86947   5.060   2.315   6.217 -1.8922  0.4865 -1.8739
  659MOL0     H86948   5.287   2.168   6.077 -0.0147  1.8091 -2.1985
  659MOL0     H86949   5.312   2.249   6.226  1.2902  0.6741 -1.2225
  659MOL0     H86950   5.359   2.557   6.211  1.4127  0.8846  0.8408
  659MOL0     H86951   5.577   2.632   6.246  1.6570 -0.5761 -0.0797
  659MOL0     H86952   5.986   2.646   5.857 -0.0121  1.0007  0.3847
  659MOL0     H86953   6.224   2.761   5.866 -4.5715 -0.1242 -3.1346
  659MOL0     H86954   6.504   2.624   6.171  1.0890 -0.1924  0.6025
  659MOL0     H86955   6.407   2.750   6.256 -0.9373  0.0609 -0.6854
  659MOL0     H86956   6.644   2.823   6.279  1.3624 -0.2550 -1.0529
  659MOL0     H86957   6.571   2.930   6.174  1.5213  0.3444 -0.4795
  659MOL0     H86958   6.673   2.816   5.983 -1.3172  2.9125  0.4384
  659MOL0     H86959   6.732   2.687   6.084 -2.5314  0.5923  3.8557
  659MOL0     H86960   6.822   2.970   6.115 -1.5953 -0.1225  0.4151
  659MOL0     H86961   6.891   2.841   6.212  0.0365  2.4833  0.3288
  659MOL0     H86962   6.897   2.860   5.910  1.3224 -0.4839 -1.1760
  659MOL0     H86963   6.980   2.728   6.003 -3.2505 -1.3881  0.4889
  659MOL0     H86964   7.160   2.859   5.971 -1.0787 -1.6682 -0.4442
  659MOL0     H86965   7.106   2.950   6.119  0.6161  1.2664 -0.9440
  659MOL0     H86966   7.013   3.015   5.842  1.4282 -3.5028  0.4904
  659MOL0     H86967   7.006   3.131   5.986  1.3749 -0.7288  0.1511
  659MOL0     H86968   7.174   3.191   5.830  1.9486 -0.0158  0.1728
  659MOL0     H86969   7.251   3.028   5.845  1.8991  0.6436 -1.0147
  659MOL0     H86970   6.270   2.593   6.260 -1.1958  0.2350  0.8775
  659MOL0     H86971   6.081   2.461   6.228  2.9371 -0.1508  0.4366
  659MOL0     H86972   5.707   2.346   5.937 -0.0780 -0.0165 -0.3075
  659MOL0     H86973   5.486   2.268   5.916  3.2638 -1.6441  1.2600
  659MOL0     H86974   5.099   1.297   5.813 -2.0674 -0.9140 -0.6034
  659MOL0     H86975   5.281   1.327   5.657 -2.2500 -1.5711  0.2505
  659MOL0     H86976   5.670   1.691   5.661 -0.8289  1.2821  0.6266
  659MOL0     H86977   5.886   1.645   5.573 -0.3495 -0.9490  0.3414
  659MOL0     H86978   6.057   1.544   5.513  1.8451  0.3311  0.3498
  659MOL0     H86979   6.062   1.685   5.419  0.7088 -0.1787  1.0606
  659MOL0     H86980   6.270   1.520   5.438  0.3871 -1.0982  0.5147
  659MOL0     H86981   6.177   1.422   5.328  0.9768 -0.6055  3.5655
  659MOL0     H86982   6.179   1.648   5.183 -1.4858  0.1575  1.8637
  659MOL0     H86983   6.296   1.523   5.174  1.5703  1.0534 -1.2413
  659MOL0     H86984   6.360   1.778   5.217 -1.2028 -0.1958 -0.6455
  659MOL0     H86985   6.329   1.737   5.390  2.9927  0.9788  1.4208
  659MOL0     H86986   6.708   1.558   5.323  0.5928 -1.2348 -2.8141
  659MOL0     H86987   5.736   1.406   5.254  0.9844  0.0852 -0.5071
  659MOL0     H86988   5.507   1.459   5.323  2.5549 -3.5586 -1.0765
  660MOL0     O86989  10.145   5.733   8.465  0.5691 -0.2527 -0.2550
  660MOL0     C86990  10.199   5.839   8.460 -0.2510 -0.6634 -0.4563
  660MOL0     O86991  10.155   5.945   8.395  0.1319 -0.4165  0.2159
  660MOL0     C86992  10.083   5.948   8.279  0.0594 -0.5418  0.6556
  660MOL0     C86993  10.087   5.844   8.190  0.2417 -0.5844 -0.3131
  660MOL0     C86994  10.012   5.852   8.078  0.7011 -0.7173  0.9516
  660MOL0     C86995   9.929   5.972   8.054 -0.9520 -0.2805 -0.4339
  660MOL0     O86996   9.843   5.993   7.947  0.9085 -0.5853 -0.1947
  660MOL0     C86997   9.845   5.890   7.842  0.3955  0.1325 -0.3452
  660MOL0     C86998   9.753   5.939   7.722  0.7934 -0.6783  0.3143
  660MOL0     C86999   9.778   6.079   7.671 -0.2471 -0.2520 -0.1836
  660MOL0     C87000   9.647   6.129   7.602 -0.5948  0.1099 -0.4510
  660MOL0     C87001   9.681   6.263   7.530 -0.0309 -0.0398  0.1876
  660MOL0     C87002   9.558   6.353   7.503  0.0670 -0.0651 -1.4860
  660MOL0     C87003   9.594   6.464   7.402  0.4972  0.6372  0.4388
  660MOL0     C87004   9.465   6.544   7.372 -0.9578 -0.2419 -1.1170
  660MOL0     N87005   9.334   6.477   7.353  0.0283 -0.7115  0.7218
  660MOL0     C87006   9.291   6.438   7.231 -1.1517 -0.3780  1.0355
  660MOL0     C87007   9.165   6.402   7.258  0.2124  0.3582 -0.7480
  660MOL0     C87008   9.085   6.332   7.146  0.0809  0.1521 -0.3649
  660MOL0     C87009   8.967   6.411   7.100 -0.8885 -0.3676 -1.0990
  660MOL0     C87010   8.888   6.337   6.987 -0.4390  0.1643  0.3217
  660MOL0     C87011   8.834   6.207   7.024 -0.3429 -0.7827 -1.0602
  660MOL0     O87012   8.732   6.232   7.124 -0.4097 -0.5617 -0.5280
  660MOL0     C87013   8.603   6.271   7.083 -0.3576 -0.0743 -0.3840
  660MOL0     C87014   8.509   6.289   7.177  0.1627 -0.8298 -0.7375
  660MOL0     C87015   8.381   6.326   7.147 -0.4066 -0.7241 -1.0750
  660MOL0     C87016   8.343   6.344   7.019 -0.2116  0.2631  0.2498
  660MOL0     C87017   8.194   6.377   6.995 -0.4129  0.4848  0.3067
  660MOL0     O87018   8.169   6.419   6.867  0.3764  0.5990 -0.1135
  660MOL0     C87019   8.043   6.437   6.823 -0.2362 -0.1227  1.1234
  660MOL0     C87020   7.991   6.345   6.732 -0.3994 -0.2981 -0.5593
  660MOL0     C87021   7.862   6.371   6.675 -1.7390  1.0362 -0.0384
  660MOL0     C87022   7.781   6.480   6.713  0.1695 -1.2485 -0.6553
  660MOL0     O87023   7.660   6.506   6.650 -0.2640  0.5589 -0.6588
  660MOL0     C87024   7.540   6.478   6.722  0.2851  0.3705  0.4192
  660MOL0     C87025   7.501   6.327   6.706  0.1992  0.9303 -0.5831
  660MOL0     C87026   7.349   6.311   6.739  0.5788 -0.2521 -0.2018
  660MOL0     C87027   7.324   6.339   6.891  0.4051  0.5822 -0.6942
  660MOL0     C87028   7.177   6.320   6.928  0.1538 -0.2448  0.8904
  660MOL0     C87029   7.075   6.426   6.871 -1.0471  0.4829  0.1844
  660MOL0     C87030   6.932   6.367   6.904  0.4897 -0.2173  0.1163
  660MOL0     C87031   6.835   6.480   6.889  1.1971 -0.4043 -0.1796
  660MOL0    Cl87032   6.845   6.589   7.034  0.3643  0.2640 -0.3181
  660MOL0     C87033   7.840   6.571   6.806  0.3591 -0.8440  0.0474
  660MOL0     C87034   7.966   6.546   6.865 -0.0308 -0.0803 -0.0487
  660MOL0     O87035   8.110   6.347   7.078 -0.4419 -0.2146 -0.5315
  660MOL0     C87036   8.435   6.329   6.918 -0.3350  0.0936 -0.4709
  660MOL0     C87037   8.566   6.286   6.952  0.2192  0.4907 -0.0316
  660MOL0     N87038   9.127   6.430   7.385  0.6149 -0.8593 -0.5681
  660MOL0     N87039   9.233   6.486   7.440  0.4371 -0.4512 -0.3040
  660MOL0     C87040   9.936   6.084   8.138 -0.2946 -0.2055 -0.0047
  660MOL0     C87041  10.004   6.065   8.255  0.9192  0.5761  0.2485
  660MOL0     C87042  10.321   5.854   8.537 -0.0448  0.3551 -0.0460
  660MOL0     C87043  10.381   5.732   8.588 -0.5463  0.1194 -0.5487
  660MOL0     C87044  10.507   5.741   8.654  0.7631 -0.4261 -0.1789
  660MOL0     C87045  10.573   5.870   8.675 -0.5466  0.5389 -0.6580
  660MOL0     O87046  10.699   5.886   8.736 -0.4637  0.8355 -0.5619
  660MOL0     C87047  10.777   5.775   8.772 -0.8273  0.2332 -0.0235
  660MOL0     C87048  10.898   5.835   8.832 -0.8646  0.1323 -0.1730
  660MOL0     C87049  10.986   5.737   8.910 -0.9876 -0.0592  0.8187
  660MOL0     C87050  11.124   5.810   8.930  1.3528 -0.6233  0.7941
  660MOL0     C87051  11.199   5.749   9.042  0.0182  0.0131 -0.2552
  660MOL0     C87052  11.268   5.708   9.134  0.9559  0.3113 -0.3593
  660MOL0     C87053  10.519   5.988   8.624  0.0881 -0.3651 -0.7354
  660MOL0     C87054  10.395   5.976   8.557 -0.4111  0.7441 -0.9747
  660MOL0     H87055  10.149   5.757   8.203  1.9722  0.8807  2.2237
  660MOL0     H87056  10.017   5.777   8.000  2.8748  1.5930 -1.3317
  660MOL0     H87057   9.807   5.796   7.883 -0.7315  1.0272  0.7255
  660MOL0     H87058   9.950   5.881   7.810  0.9906  0.2337  1.4522
  660MOL0     H87059   9.654   5.944   7.768  0.6975 -1.3244  0.1921
  660MOL0     H87060   9.745   5.862   7.645 -0.8390 -0.8159  0.5840
  660MOL0     H87061   9.868   6.075   7.609 -1.2019 -1.2451 -1.5554
  660MOL0     H87062   9.804   6.152   7.749  0.4302  2.3245 -2.6577
  660MOL0     H87063   9.616   6.056   7.527 -0.0055 -0.8156  0.1743
  660MOL0     H87064   9.565   6.145   7.673 -1.8044 -0.0354 -1.7847
  660MOL0     H87065   9.721   6.234   7.432 -0.1143  0.1874  0.0852
  660MOL0     H87066   9.761   6.313   7.585  1.3560 -0.4516 -1.3812
  660MOL0     H87067   9.518   6.399   7.594  1.9163  1.1868 -1.2523
  660MOL0     H87068   9.474   6.299   7.459  0.4853 -1.3372 -0.7886
  660MOL0     H87069   9.664   6.541   7.435 -0.2586  0.9765  1.3127
  660MOL0     H87070   9.633   6.418   7.311 -0.5578 -0.5709  0.5613
  660MOL0     H87071   9.494   6.608   7.289 -0.3242  1.7013  0.5094
  660MOL0     H87072   9.438   6.612   7.454  0.0152  0.9349 -1.7335
  660MOL0     H87073   9.349   6.410   7.143 -0.0126  2.2410  0.8375
  660MOL0     H87074   9.065   6.230   7.179 -0.4678 -0.0204 -1.1914
  660MOL0     H87075   9.158   6.338   7.065 -0.0618  1.2876 -0.4405
  660MOL0     H87076   9.021   6.493   7.052  0.9855  0.5871  2.2947
  660MOL0     H87077   8.910   6.447   7.186 -0.9768 -1.1555 -0.8233
  660MOL0     H87078   8.806   6.405   6.965 -0.1504  0.1340 -0.9010
  660MOL0     H87079   8.947   6.322   6.896 -1.1253 -0.0041 -0.0994
  660MOL0     H87080   8.910   6.135   7.057  0.9112  0.4720 -1.1147
  660MOL0     H87081   8.786   6.166   6.934 -1.7968  0.0176 -0.6759
  660MOL0     H87082   8.539   6.279   7.281 -1.6590 -0.1418 -0.1140
  660MOL0     H87083   8.311   6.359   7.223  0.1339  0.6297 -1.1389
  660MOL0     H87084   8.057   6.266   6.697 -0.1690 -1.6141  2.5050
  660MOL0     H87085   7.838   6.301   6.595  0.9556  0.7976 -0.7397
  660MOL0     H87086   7.457   6.539   6.685 -0.7922 -1.1116  0.2859
  660MOL0     H87087   7.557   6.509   6.825 -0.4724  1.6709  0.1712
  660MOL0     H87088   7.556   6.267   6.779 -1.7405 -0.9519 -0.5614
  660MOL0     H87089   7.531   6.282   6.611  1.1452 -0.8318  0.5119
  660MOL0     H87090   7.326   6.209   6.705 -0.8947  0.1205 -0.3849
  660MOL0     H87091   7.286   6.380   6.682 -3.2790 -2.5619  0.9041
  660MOL0     H87092   7.395   6.281   6.951  0.5469  1.5272  0.0611
  660MOL0     H87093   7.340   6.446   6.901 -2.5390  1.2913 -2.3981
  660MOL0     H87094   7.175   6.322   7.037 -2.2317 -2.6369  0.9815
  660MOL0     H87095   7.150   6.219   6.897  0.1146  0.3368 -1.1381
  660MOL0     H87096   7.087   6.426   6.762 -0.6634 -1.7497  0.1659
  660MOL0     H87097   7.090   6.530   6.902  3.1679  0.6574 -1.6864
  660MOL0     H87098   6.902   6.289   6.833  3.0954 -0.1933 -1.1583
  660MOL0     H87099   6.937   6.332   7.007 -1.1300  1.4893  0.8333
  660MOL0     H87100   6.740   6.426   6.877  2.0471 -1.5408 -2.2989
  660MOL0     H87101   6.843   6.544   6.801 -0.1077  1.3054  0.8878
  660MOL0     H87102   7.802   6.668   6.839 -4.1347 -2.9291  1.7705
  660MOL0     H87103   8.002   6.623   6.933 -1.6969 -0.3736  1.2198
  660MOL0     H87104   8.407   6.352   6.816 -2.7308 -0.0818  0.1004
  660MOL0     H87105   8.627   6.271   6.863  0.7853 -2.1886  0.7249
  660MOL0     H87106   9.870   6.166   8.112 -0.3195 -0.4353 -0.6975
  660MOL0     H87107   9.976   6.138   8.331  0.5523  0.5426  0.1486
  660MOL0     H87108  10.343   5.631   8.591 -3.4545  1.1085  1.9612
  660MOL0     H87109  10.560   5.652   8.684 -1.3868 -1.0433  2.1715
  660MOL0     H87110  10.815   5.719   8.686 -0.2887 -0.1382  0.4524
  660MOL0     H87111  10.724   5.714   8.846 -0.8793  1.4504  0.9780
  660MOL0     H87112  10.966   5.881   8.760 -0.1416  0.7532  0.8786
  660MOL0     H87113  10.863   5.910   8.902  2.1061  0.9892  0.5238
  660MOL0     H87114  11.018   5.649   8.853  0.3986 -0.2043  1.7945
  660MOL0     H87115  10.937   5.715   9.005  2.0497 -1.3244  2.2201
  660MOL0     H87116  11.192   5.815   8.845  0.5339 -0.4236  0.1468
  660MOL0     H87117  11.104   5.915   8.953  1.6936 -0.4597  0.3474
  660MOL0     H87118  11.317   5.689   9.227  2.2075  2.6445 -0.4502
  660MOL0     H87119  10.568   6.084   8.639  0.1442 -0.4285 -0.5030
  660MOL0     H87120  10.357   6.069   8.518 -1.7197  0.7772  0.2896
  661MOL0     O87121   2.577   6.619   4.056 -0.0838 -0.2664 -0.3895
  661MOL0     C87122   2.616   6.725   4.110  0.8707 -0.9166  0.0233
  661MOL0     O87123   2.534   6.832   4.138 -0.2419 -0.1006 -0.6516
  661MOL0     C87124   2.396   6.826   4.151  0.2698  0.6036  0.1016
  661MOL0     C87125   2.334   6.959   4.157  0.5097  0.0456 -0.1107
  661MOL0     C87126   2.197   6.972   4.173 -0.5650  1.3296  0.0375
  661MOL0     C87127   2.122   6.853   4.177 -0.2463 -0.0756  0.1949
  661MOL0     O87128   1.987   6.878   4.172  0.1989  0.5906 -0.0978
  661MOL0     C87129   1.901   6.806   4.257 -0.0386  0.2441 -0.0535
  661MOL0     C87130   1.812   6.919   4.320  0.5530 -0.4239  0.4292
  661MOL0     C87131   1.712   6.979   4.221 -0.4623  1.5551 -0.3118
  661MOL0     C87132   1.629   7.094   4.284  0.4026 -0.4908 -0.3001
  661MOL0     C87133   1.531   7.148   4.177  0.2558 -0.0269  0.4284
  661MOL0     C87134   1.588   7.234   4.068 -0.7949 -0.5668  0.2593
  661MOL0     C87135   1.634   7.370   4.116  0.5700 -0.5104  0.2173
  661MOL0     C87136   1.520   7.480   4.138  0.5223  0.7547 -0.1460
  661MOL0     N87137   1.429   7.490   4.019  0.0536  0.1779 -0.1630
  661MOL0     C87138   1.460   7.529   3.891 -0.8259  0.3165 -1.0504
  661MOL0     C87139   1.336   7.534   3.829 -0.5328 -0.1677 -0.8711
  661MOL0     C87140   1.314   7.567   3.690  0.1923  0.4566  0.3393
  661MOL0     C87141   1.173   7.605   3.646  0.1474 -0.3631  0.1581
  661MOL0     C87142   1.130   7.734   3.719  0.8510 -0.5148 -0.2549
  661MOL0     C87143   1.002   7.796   3.659 -0.5900 -0.5274 -0.5272
  661MOL0     O87144   0.885   7.714   3.702 -0.0002 -0.1449  0.5822
  661MOL0     C87145   0.772   7.716   3.631  0.0868 -0.4560 -0.3790
  661MOL0     C87146   0.739   7.810   3.534 -0.5889 -0.5472  0.6088
  661MOL0     C87147   0.630   7.794   3.446 -0.3615  0.2414 -0.9234
  661MOL0     C87148   0.547   7.679   3.463 -0.4178  0.4393  0.3740
  661MOL0     C87149   0.415   7.661   3.397  0.4050  0.5422  0.2281
  661MOL0     O87150   0.352   7.540   3.419 -0.5898 -0.5649  0.6270
  661MOL0     C87151   0.232   7.511   3.361  0.2549  0.1262 -0.0636
  661MOL0     C87152   0.203   7.504   3.223  0.4976  0.0816 -0.2204
  661MOL0     C87153   0.078   7.482   3.173 -0.0591 -0.1360  0.0733
  661MOL0     C87154  -0.025   7.456   3.272  0.4472 -0.6890  0.2201
  661MOL0     O87155  -0.157   7.444   3.227  0.3748 -1.4140 -0.2013
  661MOL0     C87156  -0.272   7.500   3.289  0.0465 -0.7132  0.1823
  661MOL0     C87157  -0.380   7.482   3.191 -0.5711  0.2662  0.9021
  661MOL0     C87158  -0.514   7.484   3.256  1.1434  0.1104 -0.6545
  661MOL0     C87159  -0.543   7.340   3.298 -0.1399  0.5335  0.3207
  661MOL0     C87160  -0.667   7.320   3.390 -0.1602 -0.6189 -1.0356
  661MOL0     C87161  -0.790   7.379   3.319 -0.1797 -0.6124  0.4427
  661MOL0     C87162  -0.917   7.338   3.390  0.0566  0.3512 -0.1793
  661MOL0     C87163  -1.052   7.394   3.337 -0.4626 -0.8026 -0.1564
  661MOL0    Cl87164  -1.065   7.385   3.160  0.3237 -0.3188 -0.3471
  661MOL0     C87165   0.002   7.443   3.410  0.0741 -0.7969 -0.0675
  661MOL0     C87166   0.134   7.465   3.450 -0.6527 -0.2004 -0.2617
  661MOL0     O87167   0.368   7.754   3.326  0.3312  0.4099  0.4387
  661MOL0     C87168   0.583   7.582   3.560  0.8486 -0.7567  0.6846
  661MOL0     C87169   0.690   7.605   3.643  0.3674  0.1257 -0.2613
  661MOL0     N87170   1.245   7.503   3.922 -0.2590  0.8425  0.4588
  661MOL0     N87171   1.297   7.465   4.035  0.0866 -0.0570 -0.4283
  661MOL0     C87172   2.181   6.722   4.169 -0.1531 -0.5051  0.5407
  661MOL0     C87173   2.321   6.710   4.166 -0.3665 -0.2508 -1.1762
  661MOL0     C87174   2.764   6.759   4.128  0.9277  0.1999  0.6233
  661MOL0     C87175   2.849   6.654   4.174  0.7418  0.4179  0.6246
  661MOL0     C87176   2.977   6.681   4.213  0.1869 -0.9671  0.1770
  661MOL0     C87177   3.034   6.805   4.191  0.0184 -0.2663  1.0696
  661MOL0     O87178   3.170   6.814   4.194  1.1136 -0.0678  0.0282
  661MOL0     C87179   3.221   6.950   4.206 -0.0852  0.6695 -0.3708
  661MOL0     C87180   3.378   6.943   4.220  0.7100  0.3737  0.4880
  661MOL0     C87181   3.435   6.895   4.092 -1.2217  0.1442 -0.4394
  661MOL0     C87182   3.590   6.893   4.107 -0.8667  0.6270  0.2282
  661MOL0     C87183   3.658   7.023   4.105 -0.3056 -0.2040  0.8737
  661MOL0     C87184   3.711   7.133   4.095 -0.1531 -0.4682  0.6313
  661MOL0     C87185   2.942   6.908   4.151 -0.4887 -0.5018 -0.8418
  661MOL0     C87186   2.815   6.893   4.122 -1.0204 -0.1317  0.9057
  661MOL0     H87187   2.401   7.044   4.163 -1.8132  1.9691  0.1730
  661MOL0     H87188   2.140   7.062   4.193 -2.4496  0.3106 -0.5435
  661MOL0     H87189   1.951   6.747   4.333 -0.0806 -2.4678 -1.9906
  661MOL0     H87190   1.836   6.738   4.200 -0.2674 -0.7350  1.3283
  661MOL0     H87191   1.868   7.005   4.357  0.2453 -0.5018  1.0791
  661MOL0     H87192   1.763   6.883   4.410  1.5626 -1.2970  0.6399
  661MOL0     H87193   1.636   6.909   4.185  2.3824 -0.9662 -1.9478
  661MOL0     H87194   1.759   7.025   4.134  0.6828  1.2183  0.1144
  661MOL0     H87195   1.574   7.054   4.370 -0.0437  1.8354  0.5687
  661MOL0     H87196   1.691   7.178   4.315  0.3209 -0.5584  0.0477
  661MOL0     H87197   1.446   7.205   4.215 -1.2423 -0.9529 -1.3482
  661MOL0     H87198   1.495   7.060   4.123  4.0157 -1.2216 -0.5116
  661MOL0     H87199   1.518   7.245   3.985  1.1780  0.2835 -1.3843
  661MOL0     H87200   1.678   7.189   4.024  1.6093  3.9978 -0.1242
  661MOL0     H87201   1.693   7.361   4.208 -0.9369 -1.2262  1.1477
  661MOL0     H87202   1.695   7.414   4.036 -1.3768 -1.8076 -2.1136
  661MOL0     H87203   1.570   7.576   4.153  0.6999  1.0001 -2.0794
  661MOL0     H87204   1.458   7.454   4.224  1.8545  1.0070  0.9365
  661MOL0     H87205   1.559   7.535   3.848 -0.0123 -1.7818  0.3618
  661MOL0     H87206   1.334   7.485   3.621  0.0006 -0.8184  1.7478
  661MOL0     H87207   1.380   7.650   3.664  1.9856 -1.2711 -0.9207
  661MOL0     H87208   1.114   7.517   3.673  2.5343 -1.2457  3.1407
  661MOL0     H87209   1.157   7.624   3.539 -0.2684 -3.6130 -0.4467
  661MOL0     H87210   1.109   7.720   3.825 -1.9221  2.0981 -0.3400
  661MOL0     H87211   1.212   7.806   3.714  1.0228 -0.6678  0.2549
  661MOL0     H87212   1.028   7.790   3.553 -1.8347 -0.5771 -0.8388
  661MOL0     H87213   0.992   7.896   3.701 -1.5851 -1.5598  1.8890
  661MOL0     H87214   0.801   7.899   3.527 -1.5529  0.1807  1.1040
  661MOL0     H87215   0.593   7.871   3.378 -3.1862  0.7668  1.0502
  661MOL0     H87216   0.283   7.521   3.152  0.8773 -1.8038 -0.2937
  661MOL0     H87217   0.061   7.477   3.066 -0.2599 -0.9326  0.1419
  661MOL0     H87218  -0.272   7.606   3.315 -2.4619 -0.7524  0.5832
  661MOL0     H87219  -0.283   7.447   3.384 -0.3035 -1.1387 -0.0936
  661MOL0     H87220  -0.370   7.388   3.135  2.3427 -0.2606  2.1416
  661MOL0     H87221  -0.380   7.560   3.115  2.8817 -1.4961 -1.1630
  661MOL0     H87222  -0.589   7.493   3.176  0.2407 -1.0343  0.0460
  661MOL0     H87223  -0.532   7.573   3.317  0.8879  0.7599 -1.6397
  661MOL0     H87224  -0.560   7.280   3.208 -0.1844  3.8600 -2.0783
  661MOL0     H87225  -0.457   7.292   3.344  1.1701  0.8322 -1.6975
  661MOL0     H87226  -0.653   7.371   3.486  1.8791 -2.1808 -0.4413
  661MOL0     H87227  -0.681   7.215   3.417 -2.9221  0.5447  2.9782
  661MOL0     H87228  -0.790   7.364   3.210  3.0118  0.6523  0.1603
  661MOL0     H87229  -0.788   7.487   3.332 -1.9187 -0.4069 -0.6459
  661MOL0     H87230  -0.931   7.233   3.363  0.2748  0.6624 -1.5840
  661MOL0     H87231  -0.918   7.350   3.498 -0.5930  2.5620 -0.3916
  661MOL0     H87232  -1.065   7.495   3.377 -0.4203 -0.6602 -0.5016
  661MOL0     H87233  -1.135   7.334   3.377  1.0789 -3.7324 -1.0343
  661MOL0     H87234  -0.077   7.424   3.482 -1.9467 -0.1408 -2.0059
  661MOL0     H87235   0.161   7.451   3.554  4.1062  2.8005 -0.7757
  661MOL0     H87236   0.529   7.490   3.581 -2.0357  1.0147  1.6719
  661MOL0     H87237   0.704   7.532   3.722 -2.6176  1.1150  1.3695
  661MOL0     H87238   2.113   6.638   4.163 -3.2157  1.8324 -0.0674
  661MOL0     H87239   2.355   6.607   4.161 -2.6625 -1.1644  0.5362
  661MOL0     H87240   2.809   6.556   4.197  1.3559  0.3130  1.2777
  661MOL0     H87241   3.036   6.597   4.249 -0.7451 -1.5605  0.3600
  661MOL0     H87242   3.177   6.990   4.298 -1.0125 -2.2037  0.5602
  661MOL0     H87243   3.201   7.015   4.120 -0.1525  0.3513 -0.5980
  661MOL0     H87244   3.412   7.045   4.238  0.8150  0.3809  0.2453
  661MOL0     H87245   3.398   6.877   4.305 -3.1891 -0.1110  1.2021
  661MOL0     H87246   3.408   6.957   4.006 -2.0049 -0.1096 -0.3777
  661MOL0     H87247   3.394   6.794   4.088 -1.3087  0.1874 -0.6786
  661MOL0     H87248   3.618   6.847   4.202 -3.0169  0.3351  0.7716
  661MOL0     H87249   3.639   6.824   4.037  2.4265  0.7360  2.2266
  661MOL0     H87250   3.761   7.222   4.065  0.4967 -2.1652 -4.2706
  661MOL0     H87251   2.986   7.007   4.144 -0.9569 -0.2986 -1.0019
  661MOL0     H87252   2.745   6.973   4.101 -1.1114 -0.5562 -0.4976
  662MOL0     O87253   7.991   4.784   7.992 -0.1309 -0.5806 -0.6644
  662MOL0     C87254   8.083   4.862   8.011  0.3997 -0.3949 -0.5422
  662MOL0     O87255   8.075   4.999   8.021  0.1052  0.3475  0.3339
  662MOL0     C87256   7.941   5.036   8.022  0.2846 -0.7243  0.7279
  662MOL0     C87257   7.873   5.082   7.899  0.2942 -0.4574 -0.2283
  662MOL0     C87258   7.736   5.106   7.903 -0.1720 -0.8736  1.2347
  662MOL0     C87259   7.667   5.096   8.022  0.7325  0.0365  0.3110
  662MOL0     O87260   7.533   5.114   8.041 -0.2165  0.1213  0.4114
  662MOL0     C87261   7.452   5.187   7.938 -0.7865 -0.0640  0.2380
  662MOL0     C87262   7.305   5.196   7.971  0.6816 -0.1418  0.8190
  662MOL0     C87263   7.282   5.250   8.114  0.9075  0.5908  0.7566
  662MOL0     C87264   7.130   5.268   8.135 -0.3153 -0.1385 -0.8105
  662MOL0     C87265   7.100   5.285   8.290  0.2719  0.2682 -0.5944
  662MOL0     C87266   7.171   5.410   8.344 -0.4207  0.5206 -0.4581
  662MOL0     C87267   7.139   5.547   8.284 -0.1631 -0.7274  0.5698
  662MOL0     C87268   6.995   5.582   8.288 -0.1707 -0.4366 -0.1267
  662MOL0     N87269   6.948   5.622   8.421  0.0340  0.5548 -0.8177
  662MOL0     C87270   6.882   5.738   8.452 -0.3010 -0.2716  0.1364
  662MOL0     C87271   6.846   5.730   8.581 -0.2186 -0.2309  0.1618
  662MOL0     C87272   6.769   5.840   8.659  0.1013 -0.4668  0.0948
  662MOL0     C87273   6.617   5.793   8.676 -0.6644 -0.4798 -0.4450
  662MOL0     C87274   6.537   5.888   8.767 -0.4737  0.2018  0.1071
  662MOL0     C87275   6.417   5.819   8.831  0.8593  1.0570  0.5277
  662MOL0     O87276   6.375   5.923   8.920 -0.2937  0.5602  0.3481
  662MOL0     C87277   6.263   5.894   8.993  0.3743  0.3683  0.0887
  662MOL0     C87278   6.171   5.787   8.990  0.3446  0.2777 -0.3066
  662MOL0     C87279   6.045   5.799   9.061  0.6470 -0.0011 -1.0997
  662MOL0     C87280   6.024   5.905   9.147 -0.4595  0.2371  0.9809
  662MOL0     C87281   5.911   5.904   9.229  0.4608 -0.8848  0.3289
  662MOL0     O87282   5.819   5.805   9.210 -0.2168  0.2679 -0.2993
  662MOL0     C87283   5.714   5.790   9.300 -0.3890 -0.3222  0.1988
  662MOL0     C87284   5.689   5.660   9.340 -0.0676  0.0380  0.3388
  662MOL0     C87285   5.561   5.633   9.400  1.1912  0.6923  0.5070
  662MOL0     C87286   5.467   5.730   9.429  1.0206 -0.0307  0.5268
  662MOL0     O87287   5.360   5.696   9.508 -0.2320  0.2299 -0.3410
  662MOL0     C87288   5.245   5.780   9.518  0.1206 -0.6362  0.4687
  662MOL0     C87289   5.117   5.708   9.516 -0.0337 -0.2934 -0.1051
  662MOL0     C87290   5.008   5.813   9.510  0.0173  1.0702 -0.4321
  662MOL0     C87291   4.869   5.745   9.500 -1.0918  0.3356  0.2959
  662MOL0     C87292   4.759   5.845   9.502  0.5330 -0.2003  0.4274
  662MOL0     C87293   4.713   5.908   9.631  0.1011 -0.1740 -0.0090
  662MOL0     C87294   4.599   6.005   9.601 -0.5268  1.3430  0.6529
  662MOL0     C87295   4.463   5.940   9.570 -0.4346  0.4450 -0.0640
  662MOL0    Cl87296   4.322   6.056   9.566 -0.4385  0.6734 -0.0245
  662MOL0     C87297   5.499   5.861   9.392 -0.9364  0.9919  0.5508
  662MOL0     C87298   5.621   5.890   9.331  0.0552  0.2217 -0.6916
  662MOL0     O87299   5.907   5.992   9.323  0.2230 -0.4293 -0.3041
  662MOL0     C87300   6.118   6.012   9.146 -0.2962 -0.7346  0.2302
  662MOL0     C87301   6.233   6.011   9.065  0.2834 -1.1479  0.5966
  662MOL0     N87302   6.896   5.602   8.628 -0.3046 -0.3965 -0.5428
  662MOL0     N87303   6.947   5.535   8.531  0.0801 -0.0196 -0.2259
  662MOL0     C87304   7.739   5.087   8.141  0.9355 -0.5101 -0.3894
  662MOL0     C87305   7.876   5.053   8.142 -0.0591 -0.1770  0.3463
  662MOL0     C87306   8.224   4.811   8.026  0.4455  0.4202  0.3464
  662MOL0     C87307   8.340   4.896   8.028 -0.5705  0.1093 -0.4145
  662MOL0     C87308   8.473   4.840   8.056  0.9370 -0.2921 -0.6509
  662MOL0     C87309   8.483   4.710   8.091 -0.0072  0.9086 -0.8266
  662MOL0     O87310   8.592   4.648   8.147 -0.1456 -0.2000  0.3545
  662MOL0     C87311   8.714   4.719   8.183 -0.0269  0.6051 -0.1832
  662MOL0     C87312   8.806   4.732   8.065 -0.2425 -0.0246  0.5471
  662MOL0     C87313   8.955   4.757   8.103  0.1264 -0.3050  0.4626
  662MOL0     C87314   9.034   4.633   8.141 -0.0125 -0.4516 -0.4156
  662MOL0     C87315   9.148   4.611   8.048  0.3741 -1.1126  0.1706
  662MOL0     C87316   9.249   4.597   7.986  0.7939 -0.4074 -1.0324
  662MOL0     C87317   8.369   4.627   8.086  0.7302  0.1356 -0.5439
  662MOL0     C87318   8.240   4.678   8.052 -1.0152  0.3057 -0.5130
  662MOL0     H87319   7.930   5.076   7.808  0.2381 -0.4906 -0.2610
  662MOL0     H87320   7.688   5.129   7.808  1.5186  0.6939  0.7077
  662MOL0     H87321   7.461   5.128   7.846  0.0687 -0.6285  0.6711
  662MOL0     H87322   7.488   5.288   7.914 -1.7535  0.4392  0.8482
  662MOL0     H87323   7.259   5.097   7.963  2.8636 -1.3694  2.4915
  662MOL0     H87324   7.254   5.257   7.895  0.4854 -1.5821 -0.2566
  662MOL0     H87325   7.343   5.339   8.125 -0.2915  2.0041 -2.5407
  662MOL0     H87326   7.325   5.187   8.192 -1.4144  1.6346  3.0364
  662MOL0     H87327   7.096   5.349   8.070 -1.9665  2.2312  2.6991
  662MOL0     H87328   7.073   5.179   8.106 -2.3876  1.3057 -1.3786
  662MOL0     H87329   7.138   5.197   8.343 -2.4383 -0.5613  0.1316
  662MOL0     H87330   6.991   5.285   8.306 -0.1573 -3.3641 -2.5236
  662MOL0     H87331   7.280   5.401   8.338 -0.4400  0.9295 -1.5710
  662MOL0     H87332   7.146   5.421   8.450  0.2991 -0.5601 -0.1629
  662MOL0     H87333   7.192   5.624   8.341  2.4702 -0.4936 -1.9364
  662MOL0     H87334   7.184   5.554   8.184  2.7624  1.3842  1.9033
  662MOL0     H87335   6.937   5.499   8.247 -1.8139  1.4764 -1.9496
  662MOL0     H87336   6.971   5.667   8.223  1.2232  0.7550  0.8479
  662MOL0     H87337   6.868   5.827   8.392 -0.1945  0.5083  1.2359
  662MOL0     H87338   6.766   5.938   8.609 -0.8116  0.4725  1.8657
  662MOL0     H87339   6.822   5.846   8.755  0.5216 -1.9292 -0.0265
  662MOL0     H87340   6.606   5.690   8.709  0.1562 -0.2943  0.4490
  662MOL0     H87341   6.575   5.793   8.575  1.4830 -3.2840 -1.4876
  662MOL0     H87342   6.601   5.921   8.849 -0.0832  1.6171 -0.7150
  662MOL0     H87343   6.520   5.981   8.712  1.4813 -0.8034 -2.4278
  662MOL0     H87344   6.459   5.729   8.876 -0.4514 -0.4746 -1.1137
  662MOL0     H87345   6.340   5.790   8.758 -0.3272  0.0459  2.1219
  662MOL0     H87346   6.186   5.698   8.930 -4.0532  0.9552 -2.8255
  662MOL0     H87347   5.972   5.719   9.052  1.4579 -0.7410 -1.2834
  662MOL0     H87348   5.758   5.586   9.302  0.8622  0.6218  0.8692
  662MOL0     H87349   5.545   5.538   9.450  0.6411  1.7629  2.4716
  662MOL0     H87350   5.246   5.848   9.432  0.4030  0.7290  1.5221
  662MOL0     H87351   5.260   5.846   9.604  1.9046  2.7471 -2.1793
  662MOL0     H87352   5.113   5.639   9.601 -0.7859  0.4318  0.4597
  662MOL0     H87353   5.121   5.642   9.428 -4.3936 -0.3226 -0.4894
  662MOL0     H87354   5.024   5.880   9.426  0.1891  1.7827  0.1544
  662MOL0     H87355   5.013   5.872   9.602 -1.1405 -0.4082  0.6339
  662MOL0     H87356   4.859   5.687   9.408 -2.5142 -1.6424  1.5887
  662MOL0     H87357   4.866   5.669   9.579  3.2624 -0.9034 -0.4378
  662MOL0     H87358   4.678   5.794   9.449  0.8467 -0.0009 -0.2609
  662MOL0     H87359   4.798   5.924   9.437 -0.9967 -0.5665 -0.9809
  662MOL0     H87360   4.801   5.961   9.668 -0.5539 -0.0873  1.4728
  662MOL0     H87361   4.692   5.839   9.713  0.9577 -0.4910 -0.0430
  662MOL0     H87362   4.582   6.073   9.685 -0.4170  0.7663  1.1533
  662MOL0     H87363   4.634   6.067   9.518  1.3909 -1.4727 -0.8106
  662MOL0     H87364   4.445   5.869   9.650 -0.3996 -1.0369 -1.3312
  662MOL0     H87365   4.454   5.885   9.476 -2.6376 -0.7895  0.8031
  662MOL0     H87366   5.429   5.939   9.419 -1.1766  0.3318  1.9488
  662MOL0     H87367   5.655   5.993   9.321  0.0025  0.3564  0.4213
  662MOL0     H87368   6.111   6.110   9.192  0.3177 -0.3670 -0.4423
  662MOL0     H87369   6.297   6.099   9.063 -1.0633 -0.1083  1.6519
  662MOL0     H87370   7.670   5.083   8.225  2.4016 -1.8665  0.8056
  662MOL0     H87371   7.921   5.029   8.237  0.2732  0.7793  0.4388
  662MOL0     H87372   8.322   5.002   8.018 -1.0604  0.1783  0.9178
  662MOL0     H87373   8.561   4.898   8.082  1.0857 -0.8003  0.0059
  662MOL0     H87374   8.767   4.662   8.260 -0.0422 -0.8712 -1.2331
  662MOL0     H87375   8.679   4.813   8.227 -0.2159  1.9292 -2.9779
  662MOL0     H87376   8.794   4.636   8.014 -1.4896  0.1955  0.4063
  662MOL0     H87377   8.776   4.811   7.997 -0.1831 -0.3521  0.1364
  662MOL0     H87378   8.947   4.835   8.178 -0.8996 -0.7288  0.8163
  662MOL0     H87379   9.004   4.804   8.017 -1.1459  0.8969  0.3566
  662MOL0     H87380   9.073   4.643   8.243 -2.1024 -0.8330  0.4796
  662MOL0     H87381   8.969   4.545   8.139  2.0116 -2.0653  0.3080
  662MOL0     H87382   9.337   4.576   7.928 -0.5268 -2.6719 -2.3923
  662MOL0     H87383   8.381   4.523   8.117 -0.3743 -0.7637 -2.8930
  662MOL0     H87384   8.149   4.619   8.062 -0.7409 -0.0925 -0.3221
  663MOL0     O87385   6.130   2.922   2.066  0.4877 -0.2008 -0.8127
  663MOL0     C87386   6.097   2.848   1.977 -0.1566 -1.0666  0.0776
  663MOL0     O87387   5.965   2.832   1.923  0.2312  0.1881  0.0305
  663MOL0     C87388   5.866   2.879   2.010  0.1407 -0.5681  0.7043
  663MOL0     C87389   5.822   3.011   2.006 -0.2468  0.2551  0.1824
  663MOL0     C87390   5.714   3.049   2.089 -0.5056 -0.2531 -0.2008
  663MOL0     C87391   5.661   2.968   2.186  0.4000  0.8146  0.6142
  663MOL0     O87392   5.571   3.030   2.268  0.2903 -0.5247  0.0701
  663MOL0     C87393   5.474   2.946   2.324  0.1568 -0.1573 -0.0741
  663MOL0     C87394   5.349   2.962   2.222  0.2328 -0.5825 -0.0765
  663MOL0     C87395   5.220   2.922   2.295  0.2733 -0.5558  0.9204
  663MOL0     C87396   5.090   2.962   2.225  0.8517  0.1764 -0.2900
  663MOL0     C87397   4.964   2.936   2.320  0.0788 -0.8514  0.1088
  663MOL0     C87398   4.839   2.996   2.251  0.6673 -0.6498 -0.2141
  663MOL0     C87399   4.705   2.965   2.320  0.3215 -0.1065 -0.1796
  663MOL0     C87400   4.659   2.817   2.301  0.0266  0.3225  0.0120
  663MOL0     N87401   4.516   2.808   2.331  0.1740 -0.4356  0.0991
  663MOL0     C87402   4.417   2.850   2.245  0.3514 -0.4256 -0.5689
  663MOL0     C87403   4.302   2.840   2.318 -0.5237 -0.5282 -0.0631
  663MOL0     C87404   4.161   2.881   2.267  1.2027 -0.6591  0.6740
  663MOL0     C87405   4.040   2.799   2.307 -0.2492 -0.4935 -0.4169
  663MOL0     C87406   4.076   2.658   2.285 -0.3336  0.1283  0.3560
  663MOL0     C87407   3.974   2.565   2.344 -0.1625 -0.7608  0.3936
  663MOL0     O87408   3.874   2.516   2.253  0.3481 -0.3789 -0.3115
  663MOL0     C87409   3.776   2.433   2.300 -0.4591  0.7317  0.7393
  663MOL0     C87410   3.683   2.391   2.199  0.0586 -0.6959  0.1660
  663MOL0     C87411   3.588   2.297   2.232  0.3992 -0.5839  0.5193
  663MOL0     C87412   3.583   2.221   2.353  0.3732 -0.5817  0.7572
  663MOL0     C87413   3.521   2.090   2.361  0.2046  0.5402 -0.0181
  663MOL0     O87414   3.490   2.012   2.257 -0.4009 -1.1655 -0.1806
  663MOL0     C87415   3.412   1.900   2.264  0.2262 -0.5941 -0.0527
  663MOL0     C87416   3.443   1.783   2.196 -0.1167 -0.7993 -0.8013
  663MOL0     C87417   3.364   1.671   2.197 -0.5927  0.1688 -0.2633
  663MOL0     C87418   3.241   1.666   2.255  0.5117 -0.4170 -0.5383
  663MOL0     O87419   3.140   1.568   2.257  0.0009  0.0615  0.0652
  663MOL0     C87420   3.150   1.457   2.159  0.2208 -0.4414 -0.3884
  663MOL0     C87421   3.060   1.482   2.044 -0.8900  0.0666 -0.1832
  663MOL0     C87422   2.913   1.510   2.090 -0.2960  0.2485 -0.4270
  663MOL0     C87423   2.797   1.444   2.001  0.1599  0.2925 -0.4080
  663MOL0     C87424   2.652   1.464   2.060 -0.1340  0.3156  0.7107
  663MOL0     C87425   2.593   1.323   2.096  0.2769  0.1409  0.2308
  663MOL0     C87426   2.453   1.327   2.158 -0.0131  0.6497  0.6088
  663MOL0     C87427   2.429   1.193   2.241  0.1039 -1.0523  0.4385
  663MOL0    Cl87428   2.499   1.228   2.411  0.1753  0.0737  0.0066
  663MOL0     C87429   3.208   1.787   2.322 -0.0885  0.7208 -0.4266
  663MOL0     C87430   3.288   1.897   2.329 -0.1267 -0.9641 -0.8945
  663MOL0     O87431   3.469   2.081   2.473 -0.8285  0.7754  0.4693
  663MOL0     C87432   3.673   2.271   2.455 -0.2698 -0.0175  0.3439
  663MOL0     C87433   3.763   2.371   2.427  0.0801  0.0333  0.1091
  663MOL0     N87434   4.338   2.791   2.444 -0.1153 -0.2157 -0.3969
  663MOL0     N87435   4.467   2.785   2.458 -0.1094  0.4891  0.1125
  663MOL0     C87436   5.717   2.842   2.200 -0.6795  0.2271 -0.4159
  663MOL0     C87437   5.823   2.802   2.117 -0.0982 -1.1462 -0.3140
  663MOL0     C87438   6.206   2.803   1.896  0.2179  0.3011 -0.4278
  663MOL0     C87439   6.177   2.782   1.764  0.2420  0.1235  0.3284
  663MOL0     C87440   6.277   2.748   1.670  0.6228  0.2223  0.7135
  663MOL0     C87441   6.412   2.739   1.703 -0.1988 -0.1834  0.3410
  663MOL0     O87442   6.502   2.698   1.606  0.1923 -0.2465  0.7122
  663MOL0     C87443   6.647   2.699   1.635  0.6516  0.2223 -0.1998
  663MOL0     C87444   6.687   2.839   1.665  0.6548 -0.2694 -0.5029
  663MOL0     C87445   6.838   2.855   1.693 -0.5319 -0.6823  0.2922
  663MOL0     C87446   6.912   2.876   1.563 -0.8717  0.0708 -0.8813
  663MOL0     C87447   7.057   2.847   1.597  0.1593 -0.6086 -0.4662
  663MOL0     C87448   7.171   2.840   1.637  0.2910  0.2738  0.7125
  663MOL0     C87449   6.442   2.764   1.837  0.2391 -0.4602  0.3113
  663MOL0     C87450   6.345   2.800   1.932  0.0195  0.0210 -0.6278
  663MOL0     H87451   5.867   3.082   1.938 -0.4209  0.1366 -0.0586
  663MOL0     H87452   5.678   3.151   2.083  1.5257  0.5726  0.5943
  663MOL0     H87453   5.452   2.993   2.421 -0.4426  2.0598 -1.2253
  663MOL0     H87454   5.494   2.839   2.331  1.3980 -0.0047 -0.9686
  663MOL0     H87455   5.362   2.900   2.133  0.6996 -3.0036  1.5667
  663MOL0     H87456   5.342   3.067   2.191  0.1099 -0.8436 -0.9556
  663MOL0     H87457   5.225   2.973   2.392  0.5658  0.3832  0.4236
  663MOL0     H87458   5.224   2.813   2.302 -2.5334 -1.0101 -2.3976
  663MOL0     H87459   5.098   3.068   2.199 -0.3282 -0.5987 -4.6902
  663MOL0     H87460   5.067   2.921   2.126 -0.0637 -0.9455  0.3710
  663MOL0     H87461   4.971   2.983   2.419 -1.9263  3.3834 -1.5380
  663MOL0     H87462   4.948   2.829   2.338 -1.1567 -0.2792  3.1234
  663MOL0     H87463   4.828   2.955   2.151 -0.2812 -1.4466  0.2051
  663MOL0     H87464   4.863   3.103   2.250  3.2368 -1.0944  2.1657
  663MOL0     H87465   4.709   2.982   2.428  1.9975  1.4517 -0.4367
  663MOL0     H87466   4.631   3.032   2.274  0.9727  0.0439 -1.0465
  663MOL0     H87467   4.714   2.749   2.367  0.4343  0.2279 -0.4165
  663MOL0     H87468   4.661   2.785   2.196  1.0444 -2.1309  0.7029
  663MOL0     H87469   4.426   2.899   2.149  1.3951 -1.9363 -1.2874
  663MOL0     H87470   4.176   2.891   2.159  3.2572  0.4381  0.9877
  663MOL0     H87471   4.150   2.987   2.294  0.6284 -0.7203  0.6751
  663MOL0     H87472   3.955   2.826   2.243 -0.9397 -1.9823 -0.1649
  663MOL0     H87473   4.015   2.826   2.410 -2.8649 -0.1040 -1.0732
  663MOL0     H87474   4.077   2.633   2.178 -3.2670 -0.1041  0.2980
  663MOL0     H87475   4.175   2.649   2.330 -0.4968  1.4042  1.0282
  663MOL0     H87476   3.925   2.620   2.425  1.6287  1.0140  0.3477
  663MOL0     H87477   4.026   2.476   2.379  1.8304  0.6695  1.2198
  663MOL0     H87478   3.695   2.433   2.100  3.8036  2.5587  1.7313
  663MOL0     H87479   3.521   2.258   2.155 -0.6590  1.5999  0.2575
  663MOL0     H87480   3.536   1.778   2.141  1.0733 -0.9625  1.1323
  663MOL0     H87481   3.395   1.583   2.141 -0.6944  0.7636 -1.2861
  663MOL0     H87482   3.116   1.374   2.222  1.7833  1.7268  3.6557
  663MOL0     H87483   3.253   1.427   2.136  0.4269  1.3092 -2.0035
  663MOL0     H87484   3.073   1.394   1.980 -0.1869  1.5583 -2.2026
  663MOL0     H87485   3.096   1.564   1.981  2.6079 -2.7048 -2.1765
  663MOL0     H87486   2.889   1.617   2.099  0.6051  0.3845  0.5526
  663MOL0     H87487   2.911   1.461   2.188  2.9208 -2.8561 -1.7099
  663MOL0     H87488   2.806   1.479   1.898 -1.7949  2.5435  0.0972
  663MOL0     H87489   2.815   1.336   2.002 -0.1225  0.2471  0.5467
  663MOL0     H87490   2.588   1.520   1.990 -0.3988 -0.7252  0.1019
  663MOL0     H87491   2.666   1.528   2.147  2.3442  1.0929 -0.1582
  663MOL0     H87492   2.664   1.286   2.171  4.0189  1.5335 -2.2951
  663MOL0     H87493   2.595   1.268   2.002 -1.7500  0.9832 -0.3661
  663MOL0     H87494   2.437   1.421   2.212 -3.3792  1.1852 -1.0578
  663MOL0     H87495   2.377   1.336   2.080  0.8462  1.1309 -0.1946
  663MOL0     H87496   2.480   1.105   2.201 -0.6375 -0.4550 -1.9185
  663MOL0     H87497   2.323   1.173   2.259 -0.0907 -1.9692 -1.4917
  663MOL0     H87498   3.106   1.785   2.360  0.3643  0.3222  0.7912
  663MOL0     H87499   3.255   1.979   2.392  0.1784 -0.7697 -0.9859
  663MOL0     H87500   3.687   2.227   2.553 -0.8058  2.7110  1.7569
  663MOL0     H87501   3.833   2.395   2.506 -1.4667 -0.7600  1.7819
  663MOL0     H87502   5.700   2.774   2.283  1.7422  1.4988  1.2300
  663MOL0     H87503   5.866   2.702   2.124 -0.6827 -1.3392  0.7517
  663MOL0     H87504   6.081   2.800   1.716 -0.6991 -1.1571  1.6285
  663MOL0     H87505   6.252   2.729   1.566  0.4539  0.4320  0.7165
  663MOL0     H87506   6.699   2.668   1.544 -0.3628  1.2672 -1.1859
  663MOL0     H87507   6.661   2.633   1.721 -0.0722  0.7541  0.3407
  663MOL0     H87508   6.646   2.894   1.579 -3.0631  0.8076  1.7392
  663MOL0     H87509   6.639   2.885   1.751  1.1602  2.7458 -1.6924
  663MOL0     H87510   6.871   2.768   1.751 -1.3118  0.0432  1.9176
  663MOL0     H87511   6.871   2.933   1.762  4.5599 -0.5513 -1.9217
  663MOL0     H87512   6.872   2.812   1.483 -0.7157  0.8518 -1.6044
  663MOL0     H87513   6.894   2.977   1.526  0.3477  0.7468  0.2650
  663MOL0     H87514   7.267   2.814   1.677  0.7419  2.5542  1.2215
  663MOL0     H87515   6.539   2.753   1.885 -0.9620  1.0433  3.3701
  663MOL0     H87516   6.361   2.828   2.035  0.0544  1.3273 -0.9692
  664MOL0     O87517   9.625   7.066   9.431  0.0812 -0.3843  0.1153
  664MOL0     C87518   9.723   7.140   9.444  0.8983 -0.2110  0.4942
  664MOL0     O87519   9.714   7.274   9.431 -0.5518 -0.6566  0.4265
  664MOL0     C87520   9.591   7.333   9.422 -0.5873  0.2526  0.0009
  664MOL0     C87521   9.503   7.319   9.526 -0.3535 -0.3239 -0.0723
  664MOL0     C87522   9.384   7.386   9.526 -0.0637  1.0795  0.4763
  664MOL0     C87523   9.356   7.470   9.422 -0.4338 -0.1303 -0.1048
  664MOL0     O87524   9.241   7.538   9.410  0.6115  0.1785  0.2150
  664MOL0     C87525   9.124   7.446   9.421  0.1888 -0.3288  0.6250
  664MOL0     C87526   9.025   7.525   9.505  0.0715  0.0494 -0.8880
  664MOL0     C87527   8.889   7.469   9.474  0.2395  0.1303 -0.4014
  664MOL0     C87528   8.783   7.564   9.533 -0.3145  0.7364  0.2338
  664MOL0     C87529   8.654   7.504   9.581 -0.4672  0.8875 -0.4919
  664MOL0     C87530   8.561   7.607   9.642  0.3288 -0.4452  0.1254
  664MOL0     C87531   8.491   7.683   9.520 -1.0078 -0.3537 -0.1846
  664MOL0     C87532   8.345   7.707   9.547 -0.3066 -0.3350 -0.5735
  664MOL0     N87533   8.277   7.770   9.429  0.8333  0.4086  0.2844
  664MOL0     C87534   8.271   7.899   9.394 -0.5083  0.4133  0.2976
  664MOL0     C87535   8.204   7.896   9.276 -0.0257  0.5218  0.7767
  664MOL0     C87536   8.177   8.009   9.181  0.7172 -0.4265 -0.0237
  664MOL0     C87537   8.021   8.036   9.179  0.9776 -1.2979 -0.0758
  664MOL0     C87538   7.984   8.151   9.083  0.0136  0.0277 -0.5955
  664MOL0     C87539   7.837   8.202   9.104  0.1547  0.3670 -0.2122
  664MOL0     O87540   7.736   8.096   9.073 -0.4440 -1.0997  0.4473
  664MOL0     C87541   7.610   8.142   9.084 -0.3646  0.9018 -0.4061
  664MOL0     C87542   7.573   8.188   9.209 -0.1493 -0.2053 -0.3466
  664MOL0     C87543   7.442   8.235   9.228 -0.0965 -0.3713 -0.3749
  664MOL0     C87544   7.347   8.218   9.127  0.4311  0.1317 -0.1214
  664MOL0     C87545   7.201   8.244   9.145 -0.2538  0.2408 -0.0037
  664MOL0     O87546   7.118   8.220   9.043 -0.8281  0.5268 -0.8392
  664MOL0     C87547   6.995   8.266   9.057  0.2290 -0.4203 -0.0369
  664MOL0     C87548   6.967   8.409   9.059 -0.5318 -0.1402 -0.3842
  664MOL0     C87549   6.841   8.461   9.082  0.0568  0.2344 -0.7473
  664MOL0     C87550   6.735   8.371   9.083 -0.3515  0.3518 -0.3370
  664MOL0     O87551   6.616   8.427   9.103  0.0177 -0.0867  0.4158
  664MOL0     C87552   6.505   8.371   9.035  0.2614 -0.1486 -0.0001
  664MOL0     C87553   6.427   8.283   9.140 -0.1362 -0.4242  0.0359
  664MOL0     C87554   6.337   8.368   9.230 -0.6309 -0.0546  1.1097
  664MOL0     C87555   6.296   8.287   9.350  0.5954 -1.1316  0.2845
  664MOL0     C87556   6.165   8.338   9.419 -0.4399 -0.0218 -0.5755
  664MOL0     C87557   6.118   8.257   9.550 -0.9322  0.5143 -0.0689
  664MOL0     C87558   5.994   8.308   9.623  0.1914  0.1281 -0.4390
  664MOL0     C87559   5.862   8.275   9.541 -0.0343 -0.4122 -0.6409
  664MOL0    Cl87560   5.711   8.383   9.569  0.3986 -0.4584  0.1622
  664MOL0     C87561   6.757   8.229   9.089 -0.8709  0.0191  0.6330
  664MOL0     C87562   6.884   8.176   9.074 -0.6391 -0.6821 -0.6039
  664MOL0     O87563   7.169   8.276   9.257  0.0613 -0.1378 -0.3516
  664MOL0     C87564   7.381   8.159   9.002  1.4622  0.2839 -0.3235
  664MOL0     C87565   7.513   8.130   8.982  0.1660 -0.4597  0.0862
  664MOL0     N87566   8.171   7.763   9.246  0.5247 -1.1693 -0.4394
  664MOL0     N87567   8.207   7.688   9.341 -0.3403 -0.7106  0.4642
  664MOL0     C87568   9.441   7.481   9.318  0.0979 -0.3108 -0.4396
  664MOL0     C87569   9.558   7.412   9.312  0.2139  0.1682  0.4006
  664MOL0     C87570   9.854   7.066   9.455 -0.4088 -0.9053 -0.1083
  664MOL0     C87571   9.864   6.926   9.452 -0.1636 -0.0917  0.5545
  664MOL0     C87572   9.994   6.865   9.445 -0.0374 -0.3541  0.5664
  664MOL0     C87573  10.105   6.936   9.459 -0.6870  0.5022  0.2834
  664MOL0     O87574  10.236   6.889   9.454  0.6371  1.2398 -0.3417
  664MOL0     C87575  10.275   6.764   9.409 -0.0110  0.4027  1.0890
  664MOL0     C87576  10.430   6.759   9.401  0.4982 -0.4320 -0.3492
  664MOL0     C87577  10.489   6.871   9.311  0.6284  0.0550 -0.4694
  664MOL0     C87578  10.593   6.963   9.376  0.1580 -0.4493  0.3162
  664MOL0     C87579  10.722   6.900   9.413 -0.6077  0.2650 -0.1154
  664MOL0     C87580  10.833   6.869   9.458 -0.2733  0.4574  0.5400
  664MOL0     C87581  10.097   7.074   9.484  0.0782 -0.1536 -0.4194
  664MOL0     C87582   9.971   7.137   9.472 -0.4546  0.0290 -0.3565
  664MOL0     H87583   9.528   7.273   9.621 -2.8326 -0.7628  0.4316
  664MOL0     H87584   9.314   7.357   9.605  0.4058 -2.0553 -0.1039
  664MOL0     H87585   9.141   7.348   9.465 -3.7501 -2.0481 -1.2313
  664MOL0     H87586   9.098   7.418   9.319  0.5924  1.0691  0.1113
  664MOL0     H87587   9.034   7.632   9.484  1.5020  0.3409  0.9822
  664MOL0     H87588   9.043   7.510   9.611  2.3618 -0.5143 -1.2971
  664MOL0     H87589   8.872   7.372   9.522 -0.4146  0.2479 -0.3784
  664MOL0     H87590   8.881   7.451   9.366  1.5596  0.3471 -0.5435
  664MOL0     H87591   8.830   7.610   9.621  2.9987 -3.1217  0.7837
  664MOL0     H87592   8.778   7.644   9.458  1.6150 -1.3775 -2.3275
  664MOL0     H87593   8.682   7.440   9.665  0.0855  2.7426  0.8203
  664MOL0     H87594   8.605   7.443   9.505  0.7874 -2.6765  1.3217
  664MOL0     H87595   8.614   7.671   9.713 -0.9714 -0.4651  1.1614
  664MOL0     H87596   8.487   7.556   9.705  1.3935 -0.5694  1.3097
  664MOL0     H87597   8.535   7.783   9.510 -2.5871  0.2638 -1.3399
  664MOL0     H87598   8.521   7.624   9.433 -0.3988 -2.7322  1.5447
  664MOL0     H87599   8.334   7.775   9.631 -0.1250  1.7380 -2.1494
  664MOL0     H87600   8.296   7.612   9.572 -0.7486  0.4002  1.5120
  664MOL0     H87601   8.322   7.986   9.435  0.2421  0.3680 -0.5147
  664MOL0     H87602   8.209   7.979   9.081  2.1541  3.0062 -0.7523
  664MOL0     H87603   8.224   8.105   9.207 -0.0832 -0.0307  0.0012
  664MOL0     H87604   8.003   8.061   9.284  0.9004  0.3169 -0.4388
  664MOL0     H87605   7.976   7.944   9.142  1.8474 -0.7556 -2.6892
  664MOL0     H87606   8.053   8.233   9.104  0.8124 -0.1375 -2.3761
  664MOL0     H87607   7.995   8.107   8.983  0.0975 -0.2646 -0.4574
  664MOL0     H87608   7.820   8.297   9.052 -0.8622  1.7561  2.4388
  664MOL0     H87609   7.832   8.234   9.209 -0.4451  1.9069 -0.6799
  664MOL0     H87610   7.645   8.183   9.290  0.4208  3.1441 -0.4733
  664MOL0     H87611   7.414   8.267   9.328 -1.3829 -1.3912 -0.3801
  664MOL0     H87612   7.050   8.479   9.054 -1.7657  1.3853 -0.2469
  664MOL0     H87613   6.826   8.568   9.097  0.3992  0.3693 -1.3548
  664MOL0     H87614   6.539   8.320   8.944  1.1462  0.9673 -0.3254
  664MOL0     H87615   6.432   8.449   9.010  1.4742  1.3575  0.9631
  664MOL0     H87616   6.499   8.237   9.208  0.1507 -0.9486 -0.6118
  664MOL0     H87617   6.371   8.202   9.091 -0.8690 -1.2942  2.1712
  664MOL0     H87618   6.248   8.405   9.179 -0.9881 -1.4932  0.6541
  664MOL0     H87619   6.393   8.454   9.268 -0.2847  0.2927 -0.1403
  664MOL0     H87620   6.283   8.182   9.323 -3.1875 -0.6310 -0.3696
  664MOL0     H87621   6.380   8.285   9.420  1.2601  0.7819 -0.3917
  664MOL0     H87622   6.087   8.327   9.343  1.0307 -0.0368 -2.1676
  664MOL0     H87623   6.191   8.440   9.447  1.4714 -0.4981 -0.4598
  664MOL0     H87624   6.206   8.261   9.615 -2.1846  1.4499  1.6488
  664MOL0     H87625   6.100   8.154   9.519 -0.2135  0.8750 -1.8191
  664MOL0     H87626   5.987   8.261   9.722  1.0776  2.7005  0.9503
  664MOL0     H87627   6.001   8.414   9.651  0.4210 -0.1765  0.7255
  664MOL0     H87628   5.841   8.169   9.561 -1.5216 -0.1418 -0.6163
  664MOL0     H87629   5.892   8.287   9.437 -1.7495  1.5487 -0.9666
  664MOL0     H87630   6.678   8.157   9.110 -1.2354 -0.0835 -0.9478
  664MOL0     H87631   6.905   8.070   9.079 -0.0521 -0.5311  0.4766
  664MOL0     H87632   7.313   8.124   8.924  0.7655 -2.0391  1.2340
  664MOL0     H87633   7.551   8.106   8.884 -0.9383  1.4746 -0.8624
  664MOL0     H87634   9.418   7.561   9.248 -1.6152 -0.0082  0.4120
  664MOL0     H87635   9.641   7.422   9.242 -0.0363 -0.0077  0.0749
  664MOL0     H87636   9.775   6.867   9.434  0.0563 -0.7965  1.6693
  664MOL0     H87637  10.003   6.758   9.433 -1.3188 -0.7889  2.9010
  664MOL0     H87638  10.242   6.749   9.306  4.2092 -1.4729 -0.2093
  664MOL0     H87639  10.241   6.687   9.479  0.1013  2.5676  3.6855
  664MOL0     H87640  10.472   6.758   9.502 -0.8474  0.8000  0.2687
  664MOL0     H87641  10.458   6.669   9.346 -0.7120  0.1866 -2.0865
  664MOL0     H87642  10.414   6.935   9.265  0.1759  1.4255  2.0057
  664MOL0     H87643  10.542   6.820   9.230  0.3784 -1.1980  0.1341
  664MOL0     H87644  10.632   7.035   9.303  2.4042 -1.1955  0.7109
  664MOL0     H87645  10.544   7.020   9.456  0.4371 -0.3700  0.4309
  664MOL0     H87646  10.936   6.845   9.476 -0.1385 -1.2216 -2.0143
  664MOL0     H87647  10.184   7.139   9.489 -0.3037  0.3758 -0.5639
  664MOL0     H87648   9.970   7.243   9.497 -1.3232 -0.5684  2.6123
  665MOL0     O87649   2.261   2.751  10.031  0.2302  0.1079 -0.0534
  665MOL0     C87650   2.351   2.748   9.951  0.1835  0.3392 -0.0745
  665MOL0     O87651   2.334   2.709   9.819  0.1169  0.3181  0.0808
  665MOL0     C87652   2.210   2.684   9.765 -0.7573  0.5633 -0.0548
  665MOL0     C87653   2.165   2.749   9.656 -0.1921  0.6167 -0.1762
  665MOL0     C87654   2.032   2.732   9.602  0.5125 -0.1443  0.2398
  665MOL0     C87655   1.949   2.638   9.661 -0.2355  0.6261 -0.4072
  665MOL0     O87656   1.823   2.625   9.613 -0.3978  0.3921 -0.5784
  665MOL0     C87657   1.722   2.653   9.709  0.0395 -0.3146  0.6580
  665MOL0     C87658   1.595   2.628   9.614 -0.7109  0.4300  0.0001
  665MOL0     C87659   1.465   2.663   9.666 -0.3868 -0.2877 -0.2543
  665MOL0     C87660   1.360   2.652   9.560  0.7291  0.6327 -0.0556
  665MOL0     C87661   1.227   2.710   9.606 -0.2485  0.3438 -0.7064
  665MOL0     C87662   1.090   2.691   9.535 -0.3916 -0.1110 -0.0965
  665MOL0     C87663   1.082   2.729   9.390 -0.0760 -0.9099 -0.4374
  665MOL0     C87664   0.957   2.674   9.332 -0.3007  0.4691  0.5608
  665MOL0     N87665   0.834   2.751   9.347  0.2400  0.5296  0.2466
  665MOL0     C87666   0.716   2.726   9.290  1.0845 -0.5285  0.2242
  665MOL0     C87667   0.631   2.827   9.333 -0.2885  0.4616  0.9537
  665MOL0     C87668   0.490   2.862   9.300 -0.2535 -0.2238 -0.6529
  665MOL0     C87669   0.391   2.836   9.416 -0.3912  1.0031  0.3972
  665MOL0     C87670   0.320   2.700   9.392 -0.4467 -1.5819 -0.1073
  665MOL0     C87671   0.209   2.714   9.286  0.0609  0.5894  0.0755
  665MOL0     O87672   0.117   2.807   9.345 -0.1031  0.3395 -1.0614
  665MOL0     C87673  -0.020   2.800   9.304 -0.0702  0.0032 -0.8914
  665MOL0     C87674  -0.106   2.884   9.367  0.0295 -0.7901 -0.3273
  665MOL0     C87675  -0.236   2.888   9.334  0.3881  0.4380 -0.3292
  665MOL0     C87676  -0.286   2.802   9.235 -0.3182  0.5483  0.2224
  665MOL0     C87677  -0.416   2.826   9.172  1.0128  0.2132 -0.0714
  665MOL0     O87678  -0.480   2.937   9.228  0.0736  0.4796  0.2444
  665MOL0     C87679  -0.609   2.965   9.192  0.4283  0.2027  1.4304
  665MOL0     C87680  -0.634   2.988   9.057 -0.5962 -0.5903 -0.1961
  665MOL0     C87681  -0.758   3.019   9.008  0.6398 -0.0646 -0.2997
  665MOL0     C87682  -0.868   3.022   9.100  0.1152  0.4466  0.1236
  665MOL0     O87683  -0.996   3.056   9.059  0.2533 -0.6579  0.3030
  665MOL0     C87684  -1.090   2.947   9.035 -0.4637  0.3183 -0.6485
  665MOL0     C87685  -1.220   2.961   9.122  0.5430 -0.4518 -0.3579
  665MOL0     C87686  -1.303   3.080   9.092  0.6393  1.3911  1.2888
  665MOL0     C87687  -1.450   3.068   9.142 -0.4566  1.3248 -0.0972
  665MOL0     C87688  -1.532   2.958   9.083  0.4522  0.4406  0.6344
  665MOL0     C87689  -1.570   2.995   8.940  0.0181  0.3135  0.7522
  665MOL0     C87690  -1.664   2.886   8.871  0.2978  0.3218 -0.5303
  665MOL0     C87691  -1.654   2.885   8.720  0.7458  0.2888 -0.3703
  665MOL0    Cl87692  -1.506   2.791   8.681  0.0243  0.2333 -0.5243
  665MOL0     C87693  -0.848   2.995   9.233  0.3669  0.4668 -0.4766
  665MOL0     C87694  -0.717   2.967   9.283 -0.7504  1.2043 -0.9055
  665MOL0     O87695  -0.469   2.753   9.090  0.2736 -0.4882 -0.5519
  665MOL0     C87696  -0.200   2.704   9.183  0.3736  0.1179 -0.0326
  665MOL0     C87697  -0.066   2.700   9.212 -0.0102 -1.5498 -0.2393
  665MOL0     N87698   0.698   2.901   9.429  0.3708 -0.2610  0.0372
  665MOL0     N87699   0.813   2.846   9.441 -0.0544 -0.4989  0.5288
  665MOL0     C87700   1.994   2.567   9.780  0.7151  0.4144  0.3664
  665MOL0     C87701   2.119   2.595   9.832 -0.1288 -0.7637  0.9295
  665MOL0     C87702   2.480   2.806   9.995 -0.0717  0.4507  0.3927
  665MOL0     C87703   2.596   2.785   9.922 -0.9278  0.5038  0.0928
  665MOL0     C87704   2.721   2.854   9.947  0.2881 -0.1824  0.6153
  665MOL0     C87705   2.729   2.935  10.055 -0.2193 -1.1747 -0.2069
  665MOL0     O87706   2.836   3.015  10.088 -0.1696  0.4322 -0.1754
  665MOL0     C87707   2.967   2.983  10.023  0.4507  0.0549  0.1015
  665MOL0     C87708   2.978   3.060   9.883  0.1698 -1.2496 -0.5446
  665MOL0     C87709   2.995   3.211   9.905  0.9700  0.0396  0.5432
  665MOL0     C87710   3.108   3.287   9.823  0.3212 -0.5212 -0.4003
  665MOL0     C87711   3.238   3.233   9.839  0.1485 -0.2815  0.4048
  665MOL0     C87712   3.351   3.190   9.850  0.0016  0.1205  0.2562
  665MOL0     C87713   2.612   2.965  10.132  0.5927  0.2494  0.1476
  665MOL0     C87714   2.490   2.896  10.104 -0.2159  0.2176 -0.5739
  665MOL0     H87715   2.217   2.826   9.600 -1.0831 -1.5403 -4.3658
  665MOL0     H87716   2.001   2.792   9.517  0.2022  0.7778  0.9941
  665MOL0     H87717   1.715   2.747   9.765  0.1296 -2.0540  3.7960
  665MOL0     H87718   1.719   2.568   9.778 -0.5105 -2.3866 -1.7866
  665MOL0     H87719   1.595   2.519   9.600  0.3380  0.1118  2.1135
  665MOL0     H87720   1.614   2.678   9.519  0.7895 -0.8169 -0.3972
  665MOL0     H87721   1.480   2.768   9.690  0.2440 -0.0103 -1.7510
  665MOL0     H87722   1.441   2.610   9.759  0.8793 -0.7829 -0.1924
  665MOL0     H87723   1.389   2.719   9.479  0.9464 -0.2546 -0.7307
  665MOL0     H87724   1.346   2.548   9.528  2.4348 -0.3219  2.0815
  665MOL0     H87725   1.238   2.818   9.614 -3.8591  0.9001 -1.1826
  665MOL0     H87726   1.206   2.684   9.710 -0.3437  2.1413 -0.2516
  665MOL0     H87727   1.026   2.762   9.588  0.0496 -0.1340  0.4676
  665MOL0     H87728   1.068   2.585   9.553  3.6843 -1.4344 -1.8417
  665MOL0     H87729   1.093   2.835   9.366  0.9609  0.2560  4.1956
  665MOL0     H87730   1.154   2.664   9.339 -0.4356 -1.0360 -0.7924
  665MOL0     H87731   0.919   2.574   9.357 -0.6637  0.6937  0.9090
  665MOL0     H87732   0.970   2.678   9.223 -0.7953  0.0820  0.4838
  665MOL0     H87733   0.676   2.641   9.236  1.2716 -0.6475  0.2724
  665MOL0     H87734   0.457   2.804   9.213  1.0286  0.4464 -1.6162
  665MOL0     H87735   0.479   2.969   9.282 -0.7211  0.4965  3.1247
  665MOL0     H87736   0.318   2.916   9.430 -0.8844  0.2791  2.1333
  665MOL0     H87737   0.447   2.831   9.510 -0.2625  0.7378  0.3061
  665MOL0     H87738   0.402   2.640   9.352  0.5428  0.7514 -1.7988
  665MOL0     H87739   0.287   2.669   9.492  0.0000  1.8251  1.2580
  665MOL0     H87740   0.158   2.618   9.273 -0.0067  0.6029  0.2346
  665MOL0     H87741   0.255   2.735   9.189  1.2730  1.2433  0.7838
  665MOL0     H87742  -0.065   2.964   9.428  0.0266 -0.2066 -1.0686
  665MOL0     H87743  -0.300   2.961   9.383  2.1385  0.7343  1.6269
  665MOL0     H87744  -0.546   3.005   8.995  0.0268 -0.5395  0.6909
  665MOL0     H87745  -0.762   3.054   8.906  0.2633 -1.2527 -0.7198
  665MOL0     H87746  -1.049   2.850   9.064 -2.2245 -0.8104 -1.7169
  665MOL0     H87747  -1.111   2.950   8.928  0.1885  1.9360 -0.7504
  665MOL0     H87748  -1.215   2.952   9.231 -3.3543  1.9256  0.2103
  665MOL0     H87749  -1.267   2.868   9.087  1.3885 -1.0312  0.0165
  665MOL0     H87750  -1.306   3.103   8.986 -0.4899 -2.7337  0.2341
  665MOL0     H87751  -1.253   3.159   9.148  2.0124 -0.3315  2.6362
  665MOL0     H87752  -1.446   3.058   9.251 -1.8846 -3.0652 -0.2718
  665MOL0     H87753  -1.490   3.164   9.109  0.4519  2.5512  2.1772
  665MOL0     H87754  -1.619   2.945   9.147  0.5942  0.5200  0.8451
  665MOL0     H87755  -1.483   2.861   9.082 -1.1105 -0.4353 -1.7686
  665MOL0     H87756  -1.473   3.001   8.889  1.7995 -2.9009  3.3828
  665MOL0     H87757  -1.627   3.089   8.938  1.7898  1.5357  2.8586
  665MOL0     H87758  -1.651   2.782   8.900  1.4977  0.0722 -1.8631
  665MOL0     H87759  -1.768   2.911   8.894 -0.2441 -0.1558 -2.3130
  665MOL0     H87760  -1.638   2.985   8.680 -2.9138  0.9379 -0.5505
  665MOL0     H87761  -1.740   2.830   8.680  0.1478 -0.8964  2.3489
  665MOL0     H87762  -0.912   3.012   9.319 -1.1174 -0.4566 -1.3485
  665MOL0     H87763  -0.683   2.957   9.386  1.2965  0.8976 -1.5673
  665MOL0     H87764  -0.228   2.629   9.111 -0.5684  1.1442 -0.7694
  665MOL0     H87765  -0.001   2.643   9.146  0.8582 -0.7663 -0.0927
  665MOL0     H87766   1.925   2.515   9.846  1.8322  3.2467  4.1391
  665MOL0     H87767   2.159   2.548   9.922  6.3485  1.7978 -0.0394
  665MOL0     H87768   2.587   2.735   9.825 -0.0703  0.5017  0.0010
  665MOL0     H87769   2.799   2.836   9.874  1.8213 -1.8888  2.5564
  665MOL0     H87770   2.981   2.876  10.006  2.3368  0.3254 -0.3551
  665MOL0     H87771   3.044   3.002  10.098 -1.8251 -2.3779  3.3210
  665MOL0     H87772   3.063   3.012   9.834 -0.7747 -0.1753 -3.4098
  665MOL0     H87773   2.885   3.040   9.828 -1.0355 -1.9049  1.5703
  665MOL0     H87774   3.006   3.238  10.010  4.2909 -0.5538  0.4482
  665MOL0     H87775   2.901   3.258   9.874 -0.0248 -2.5367 -0.5963
  665MOL0     H87776   3.079   3.302   9.718 -1.4394  3.1797  0.4227
  665MOL0     H87777   3.130   3.389   9.857  0.4142 -1.5719  3.1053
  665MOL0     H87778   3.447   3.144   9.867  0.9238  2.3584  1.5804
  665MOL0     H87779   2.614   3.037  10.213  0.7081  2.1110 -1.4407
  665MOL0     H87780   2.409   2.913  10.175 -0.4828  0.2049 -0.8726
  666MOL0     O87781   8.237   7.319   1.811 -0.0375  0.1523  0.2553
  666MOL0     C87782   8.276   7.235   1.887  1.2923 -0.0680 -0.0077
  666MOL0     O87783   8.203   7.122   1.925 -0.0562  0.0723 -0.2604
  666MOL0     C87784   8.068   7.117   1.925  0.1205 -0.4583 -0.7989
  666MOL0     C87785   7.991   7.134   1.811 -0.0661 -0.4481 -0.1161
  666MOL0     C87786   7.857   7.096   1.809  0.0093 -0.2594  0.5144
  666MOL0     C87787   7.794   7.050   1.924 -0.1290 -0.5834 -0.1992
  666MOL0     O87788   7.665   7.017   1.906  0.6545 -0.3080 -0.2338
  666MOL0     C87789   7.614   6.893   1.967 -0.4831  0.6416 -0.0512
  666MOL0     C87790   7.483   6.865   1.892 -0.6761 -0.6541 -0.1108
  666MOL0     C87791   7.382   6.973   1.942  0.3602 -0.1096 -0.5865
  666MOL0     C87792   7.247   6.945   1.868 -0.2573 -0.8967 -0.2273
  666MOL0     C87793   7.134   7.042   1.924 -0.1596 -0.3952  0.3791
  666MOL0     C87794   6.991   7.013   1.865 -0.1673  0.3971 -0.1854
  666MOL0     C87795   6.888   7.101   1.926 -0.0628  0.2536 -0.2110
  666MOL0     C87796   6.744   7.059   1.893  0.5820  0.5637  0.1532
  666MOL0     N87797   6.651   7.096   1.995  0.3413  0.8183 -0.4917
  666MOL0     C87798   6.593   7.218   2.012  0.2023 -0.9107 -0.5851
  666MOL0     C87799   6.480   7.189   2.084 -0.3785 -0.5785 -1.3041
  666MOL0     C87800   6.381   7.282   2.133  0.4387 -0.3315  0.4970
  666MOL0     C87801   6.289   7.334   2.017 -0.3195 -0.4765  0.1586
  666MOL0     C87802   6.200   7.222   1.972  0.2002  0.3031  0.2774
  666MOL0     C87803   6.071   7.264   1.891  0.3930  0.5897 -0.1290
  666MOL0     O87804   6.113   7.303   1.763 -0.1375 -0.5000 -0.4082
  666MOL0     C87805   6.011   7.325   1.675  0.3595 -0.5895  0.2873
  666MOL0     C87806   5.868   7.294   1.691 -0.9128  0.5008  0.5474
  666MOL0     C87807   5.785   7.309   1.578 -0.2250 -0.5445 -1.4072
  666MOL0     C87808   5.830   7.370   1.459  1.3665 -0.1331 -0.3978
  666MOL0     C87809   5.730   7.391   1.348  0.5128  1.2910 -0.7389
  666MOL0     O87810   5.755   7.485   1.255  0.1503 -0.5070  0.1924
  666MOL0     C87811   5.651   7.520   1.172  0.6652 -0.6571 -0.1592
  666MOL0     C87812   5.531   7.579   1.226 -1.3891  0.5199  0.0433
  666MOL0     C87813   5.433   7.620   1.134  0.3889  0.0650  0.1186
  666MOL0     C87814   5.462   7.627   0.999  0.5202  0.5015 -0.5885
  666MOL0     O87815   5.368   7.674   0.910 -0.0613 -0.2576  0.5991
  666MOL0     C87816   5.337   7.607   0.787 -0.2946  0.4267  0.2693
  666MOL0     C87817   5.202   7.638   0.732  0.6498  0.4903  0.5370
  666MOL0     C87818   5.088   7.580   0.823 -0.1133  0.3196 -0.1202
  666MOL0     C87819   4.975   7.675   0.800 -0.5797  0.8144  0.1998
  666MOL0     C87820   4.849   7.642   0.883 -0.1155 -0.9773 -0.4461
  666MOL0     C87821   4.857   7.632   1.039 -0.6535  0.1119  0.7517
  666MOL0     C87822   4.727   7.641   1.120  0.4049 -0.3573  0.4296
  666MOL0     C87823   4.608   7.570   1.057 -0.2151 -0.5228 -0.1818
  666MOL0    Cl87824   4.469   7.562   1.171 -0.1079 -0.0818 -0.1121
  666MOL0     C87825   5.580   7.572   0.947  0.3808 -0.6250 -0.2443
  666MOL0     C87826   5.674   7.516   1.032 -0.2980 -0.0322 -0.6105
  666MOL0     O87827   5.624   7.330   1.351  0.9614  0.2227 -0.6724
  666MOL0     C87828   5.965   7.399   1.443 -0.1191 -0.2592  0.3537
  666MOL0     C87829   6.053   7.384   1.550  0.1812  0.3366  0.0703
  666MOL0     N87830   6.479   7.056   2.116  0.6982 -0.3794 -0.3153
  666MOL0     N87831   6.581   6.999   2.063 -0.0386 -0.0500 -0.3037
  666MOL0     C87832   7.876   7.031   2.043  0.1887  0.4772  0.1419
  666MOL0     C87833   8.008   7.077   2.044 -0.1142  0.7492  0.4939
  666MOL0     C87834   8.408   7.245   1.956 -0.0695  0.4726 -0.4034
  666MOL0     C87835   8.459   7.148   2.044 -0.3642  1.3814  0.3942
  666MOL0     C87836   8.582   7.170   2.106  0.3627 -0.4997 -0.4906
  666MOL0     C87837   8.660   7.284   2.080  0.3681  0.4611 -0.2164
  666MOL0     O87838   8.781   7.295   2.146  0.4656 -0.0324 -0.2705
  666MOL0     C87839   8.890   7.288   2.051 -0.4043  0.8522 -0.6744
  666MOL0     C87840   9.021   7.254   2.138  0.3576  0.1979 -0.9924
  666MOL0     C87841   9.136   7.228   2.050  0.5379 -0.5671  0.1572
  666MOL0     C87842   9.246   7.142   2.120  0.3526 -0.5285 -0.1924
  666MOL0     C87843   9.299   7.203   2.248 -0.2311  0.3239  0.5229
  666MOL0     C87844   9.335   7.255   2.353  0.7294  0.6554 -0.7351
  666MOL0     C87845   8.616   7.379   1.991 -0.2490 -0.3740  0.9048
  666MOL0     C87846   8.483   7.364   1.931 -0.3923 -0.1307 -0.1380
  666MOL0     H87847   8.042   7.167   1.721  0.7720 -2.7424 -0.5577
  666MOL0     H87848   7.809   7.129   1.717 -1.4879  0.3253  1.4693
  666MOL0     H87849   7.605   6.897   2.076  0.4671 -0.4581  0.0908
  666MOL0     H87850   7.686   6.813   1.949 -1.0528  0.0957  0.0700
  666MOL0     H87851   7.442   6.769   1.923 -3.1155 -0.4188 -2.2571
  666MOL0     H87852   7.497   6.872   1.783 -2.5911 -0.3398 -0.3720
  666MOL0     H87853   7.407   7.078   1.922 -3.5698  0.9141 -1.0449
  666MOL0     H87854   7.378   6.966   2.051 -0.8404  1.9161 -0.4435
  666MOL0     H87855   7.267   6.972   1.764 -0.1518  0.7682  0.1949
  666MOL0     H87856   7.217   6.843   1.893 -0.0596 -0.4870  1.9155
  666MOL0     H87857   7.156   7.147   1.902 -0.3401 -0.5291 -0.4978
  666MOL0     H87858   7.149   7.029   2.031  2.2444  1.5533  0.3729
  666MOL0     H87859   6.962   6.908   1.865  1.9786 -0.2638 -1.3526
  666MOL0     H87860   6.994   7.030   1.757  3.6622  2.2442  0.0398
  666MOL0     H87861   6.902   7.107   2.034  0.3754  0.9831 -0.2991
  666MOL0     H87862   6.907   7.205   1.898 -1.1441  0.8508  1.1534
  666MOL0     H87863   6.740   6.954   1.863 -1.4993  0.2342  1.3978
  666MOL0     H87864   6.720   7.114   1.801 -1.0860 -1.5248 -0.7442
  666MOL0     H87865   6.624   7.320   1.991 -0.8510  0.1714  2.6561
  666MOL0     H87866   6.433   7.366   2.181  0.8243  0.1562 -0.7194
  666MOL0     H87867   6.322   7.240   2.215 -2.5004  1.2413 -0.6652
  666MOL0     H87868   6.342   7.373   1.929 -2.8077 -1.2646 -1.8239
  666MOL0     H87869   6.214   7.405   2.054 -0.0738 -0.5445  0.7922
  666MOL0     H87870   6.262   7.148   1.922  0.1430  0.2840  0.2343
  666MOL0     H87871   6.165   7.171   2.062  0.5484 -2.5227 -1.0897
  666MOL0     H87872   6.022   7.345   1.945 -1.4605 -0.8039  0.3964
  666MOL0     H87873   6.007   7.176   1.879 -0.7205  1.7025 -3.6170
  666MOL0     H87874   5.834   7.254   1.786  1.2792  2.3310  2.2190
  666MOL0     H87875   5.683   7.272   1.580  0.4064 -2.8376 -4.7010
  666MOL0     H87876   5.516   7.582   1.334  1.5800 -0.4451  0.6029
  666MOL0     H87877   5.329   7.640   1.162  0.1513  1.4631 -1.5601
  666MOL0     H87878   5.339   7.498   0.800  0.6193  0.4382  0.2997
  666MOL0     H87879   5.411   7.616   0.707 -1.2612 -2.6453 -1.1234
  666MOL0     H87880   5.188   7.600   0.630  0.9969 -0.7240  0.9258
  666MOL0     H87881   5.188   7.743   0.706  0.1327  0.0115 -1.2750
  666MOL0     H87882   5.125   7.571   0.926 -0.6597  1.9329  0.2469
  666MOL0     H87883   5.059   7.484   0.780 -0.1975  1.0992 -1.8677
  666MOL0     H87884   5.015   7.769   0.839  2.8845 -0.1447 -0.6825
  666MOL0     H87885   4.947   7.686   0.695 -0.1576 -3.2540 -0.5070
  666MOL0     H87886   4.802   7.554   0.837 -2.5102  0.1902 -0.4137
  666MOL0     H87887   4.788   7.726   0.848  0.5959 -0.3528 -0.2073
  666MOL0     H87888   4.930   7.702   1.079  0.2534 -1.8658  2.7514
  666MOL0     H87889   4.906   7.535   1.049  1.9566  1.4240  1.5714
  666MOL0     H87890   4.756   7.604   1.219  0.8638  0.1712  0.5005
  666MOL0     H87891   4.705   7.747   1.138  2.5648 -0.1909  2.6737
  666MOL0     H87892   4.642   7.469   1.034 -1.2623 -0.6150 -1.4369
  666MOL0     H87893   4.573   7.612   0.963  2.4413  0.9538 -0.6178
  666MOL0     H87894   5.599   7.578   0.841  0.6399  4.3337 -0.1783
  666MOL0     H87895   5.771   7.477   1.002 -0.3720 -0.7060 -0.0047
  666MOL0     H87896   6.014   7.439   1.354  1.9389 -2.1472  0.5534
  666MOL0     H87897   6.157   7.416   1.553  0.1519  0.3612  1.8107
  666MOL0     H87898   7.833   6.996   2.136  2.8873  0.4165  1.4716
  666MOL0     H87899   8.060   7.068   2.139  1.2308 -1.1775 -0.3443
  666MOL0     H87900   8.401   7.058   2.059 -2.8439  1.7749 -4.7020
  666MOL0     H87901   8.629   7.100   2.174  0.7007  0.9385  0.7950
  666MOL0     H87902   8.918   7.379   1.997 -0.5024  1.2073 -0.1316
  666MOL0     H87903   8.885   7.211   1.973  2.0513  1.1852 -1.2603
  666MOL0     H87904   9.032   7.338   2.208 -0.1465 -1.0003  0.5908
  666MOL0     H87905   9.006   7.166   2.200  1.1619  0.5614 -0.2576
  666MOL0     H87906   9.187   7.316   2.011  0.3823  0.0728  1.3532
  666MOL0     H87907   9.097   7.171   1.965 -0.6910  0.2370  0.1535
  666MOL0     H87908   9.215   7.037   2.131  0.1566 -0.3260  1.4462
  666MOL0     H87909   9.336   7.140   2.058 -0.2961 -1.3069 -1.1357
  666MOL0     H87910   9.363   7.308   2.442  1.0630 -0.0752 -0.3919
  666MOL0     H87911   8.673   7.472   1.990 -1.4093  0.3554  0.1819
  666MOL0     H87912   8.451   7.439   1.859  1.5292 -0.9598 -1.9483
  667MOL0     O87913   2.947   3.518   6.985  0.0296 -1.1062  0.1616
  667MOL0     C87914   3.026   3.433   7.027  0.2118 -0.7294  0.5297
  667MOL0     O87915   2.996   3.333   7.112  0.3972  0.0874 -0.6419
  667MOL0     C87916   2.877   3.339   7.187  0.3571 -0.1716  0.1258
  667MOL0     C87917   2.786   3.229   7.191 -0.4884 -1.1984 -0.2346
  667MOL0     C87918   2.667   3.240   7.273 -1.3074  0.1499  0.7029
  667MOL0     C87919   2.655   3.338   7.366 -0.3075 -0.9098 -0.2903
  667MOL0     O87920   2.554   3.349   7.457 -0.2738  0.0807 -0.1228
  667MOL0     C87921   2.463   3.238   7.472  0.0833  0.9098 -0.5801
  667MOL0     C87922   2.380   3.265   7.604 -0.4235  0.0001 -0.1372
  667MOL0     C87923   2.313   3.405   7.601  0.1186 -0.4309  0.4237
  667MOL0     C87924   2.222   3.421   7.714  0.4405  0.0871 -0.0124
  667MOL0     C87925   2.158   3.568   7.715  0.1734 -0.0399  0.6399
  667MOL0     C87926   2.075   3.610   7.827 -0.4334 -0.0935 -0.1217
  667MOL0     C87927   1.938   3.569   7.807 -1.0650  0.0351 -0.7980
  667MOL0     C87928   1.852   3.642   7.913 -0.2851 -0.1274  0.2449
  667MOL0     N87929   1.718   3.585   7.920 -0.1798 -0.4297 -0.7929
  667MOL0     C87930   1.625   3.591   7.820  0.6491  0.3488 -0.6702
  667MOL0     C87931   1.504   3.561   7.876  0.1498  1.0264 -0.7384
  667MOL0     C87932   1.366   3.528   7.801 -0.5893  0.4811  0.5976
  667MOL0     C87933   1.238   3.587   7.851 -0.3612 -0.8133  0.6943
  667MOL0     C87934   1.223   3.741   7.822 -0.0875  0.6263  1.1381
  667MOL0     C87935   1.078   3.794   7.854 -0.0969  0.3864 -0.3280
  667MOL0     O87936   1.043   3.908   7.773  0.2123 -0.3579 -0.4042
  667MOL0     C87937   0.912   3.958   7.798 -0.2646  0.2614 -0.1201
  667MOL0     C87938   0.868   4.042   7.700 -0.5282  0.3556  0.1515
  667MOL0     C87939   0.732   4.062   7.684 -0.7641  0.4797  0.2844
  667MOL0     C87940   0.636   4.008   7.780  0.3394  0.2431 -0.3077
  667MOL0     C87941   0.493   4.044   7.767 -0.3677 -0.0647  0.0037
  667MOL0     O87942   0.451   4.086   7.650 -0.6471 -0.1064  0.3268
  667MOL0     C87943   0.319   4.099   7.629  0.4843 -0.3187 -0.0265
  667MOL0     C87944   0.263   4.229   7.605  0.1826  0.5512 -0.0045
  667MOL0     C87945   0.123   4.244   7.605  0.7889  0.1494 -0.1907
  667MOL0     C87946   0.033   4.131   7.610  0.7109  0.0412 -0.1740
  667MOL0     O87947  -0.107   4.134   7.594 -0.5266  0.2801  0.3069
  667MOL0     C87948  -0.166   4.260   7.572  0.3746 -0.5527  0.8348
  667MOL0     C87949  -0.317   4.248   7.566  0.6468  0.4618  0.2868
  667MOL0     C87950  -0.379   4.392   7.553  0.8670 -0.1955 -0.1515
  667MOL0     C87951  -0.535   4.405   7.550 -0.3453 -0.1602 -0.4192
  667MOL0     C87952  -0.586   4.387   7.405  0.4232  0.5610  0.0775
  667MOL0     C87953  -0.564   4.517   7.317  0.1545 -0.1418 -0.4046
  667MOL0     C87954  -0.546   4.480   7.167 -0.1866 -0.3106 -0.4034
  667MOL0     C87955  -0.532   4.603   7.072  0.1945 -0.9060  0.1537
  667MOL0    Cl87956  -0.678   4.709   7.075  0.1704 -0.3222 -0.5557
  667MOL0     C87957   0.090   4.006   7.635  0.0935  0.2540  0.7178
  667MOL0     C87958   0.232   3.987   7.640  0.2312  0.1028 -0.7121
  667MOL0     O87959   0.422   4.034   7.868  0.3120  0.1398  0.1605
  667MOL0     C87960   0.692   3.937   7.884  0.7508 -0.6791 -0.0060
  667MOL0     C87961   0.824   3.917   7.897 -0.0398 -0.0287  0.2094
  667MOL0     N87962   1.530   3.526   8.008  0.4330  0.0856 -0.2862
  667MOL0     N87963   1.650   3.554   8.029  0.1688  0.4565  0.3863
  667MOL0     C87964   2.750   3.445   7.375 -0.6546  0.2098 -0.1359
  667MOL0     C87965   2.859   3.441   7.283 -0.9464  0.1023 -0.1792
  667MOL0     C87966   3.168   3.455   6.993 -0.1786 -0.1701 -0.2654
  667MOL0     C87967   3.265   3.350   7.020  0.1600  0.8828  0.2859
  667MOL0     C87968   3.403   3.378   6.998  0.0461 -0.5993 -0.7325
  667MOL0     C87969   3.438   3.511   6.951  0.0657  0.3303 -0.5778
  667MOL0     O87970   3.564   3.557   6.941  0.0724  0.1514 -0.1055
  667MOL0     C87971   3.665   3.487   7.004 -0.5868  0.8161 -0.4570
  667MOL0     C87972   3.785   3.576   7.025 -0.3542  0.1463 -0.3185
  667MOL0     C87973   3.739   3.689   7.121  0.2267  0.1554 -0.6171
  667MOL0     C87974   3.854   3.791   7.139 -0.6650 -0.1975 -0.6912
  667MOL0     C87975   3.978   3.744   7.201 -0.3950 -0.4824 -0.6126
  667MOL0     C87976   4.071   3.703   7.266  0.1969  0.4234  1.1823
  667MOL0     C87977   3.342   3.616   6.925  0.6667  0.4916 -0.0286
  667MOL0     C87978   3.201   3.583   6.949  0.5453 -0.1854  0.4427
  667MOL0     H87979   2.797   3.152   7.116  1.8958 -1.4577  0.3331
  667MOL0     H87980   2.589   3.165   7.269 -1.7958  0.6334 -3.4963
  667MOL0     H87981   2.510   3.139   7.480  2.6824  2.0384 -1.0365
  667MOL0     H87982   2.392   3.227   7.390  0.0573 -0.7651 -0.3621
  667MOL0     H87983   2.452   3.262   7.687 -1.2755 -0.3347  0.6130
  667MOL0     H87984   2.304   3.189   7.625 -0.1140  0.0527  1.3343
  667MOL0     H87985   2.259   3.405   7.506 -1.5150  2.5422  1.2221
  667MOL0     H87986   2.380   3.491   7.593 -1.5732  0.7719 -2.6544
  667MOL0     H87987   2.142   3.347   7.707  2.2486 -1.8539 -1.6436
  667MOL0     H87988   2.274   3.395   7.806  0.0336  0.6028  0.3674
  667MOL0     H87989   2.095   3.568   7.625 -1.2918  2.1687  1.5893
  667MOL0     H87990   2.243   3.634   7.697  3.2148 -3.5641  0.8846
  667MOL0     H87991   2.084   3.719   7.837 -0.4991  0.2739 -3.0920
  667MOL0     H87992   2.110   3.562   7.919  0.3059 -0.3977 -0.5546
  667MOL0     H87993   1.904   3.599   7.708 -1.2890  2.5855 -0.0207
  667MOL0     H87994   1.922   3.463   7.829  2.2387 -0.5086 -0.6453
  667MOL0     H87995   1.840   3.746   7.879 -1.5972 -1.1821 -2.8814
  667MOL0     H87996   1.909   3.635   8.006 -0.2072 -2.4370  0.0825
  667MOL0     H87997   1.643   3.616   7.716 -0.9345 -1.5487 -1.4669
  667MOL0     H87998   1.355   3.419   7.804  1.0364  0.2379 -0.9845
  667MOL0     H87999   1.367   3.551   7.694  0.5684  0.4113  0.5768
  667MOL0     H88000   1.233   3.567   7.959  0.3638  0.1725  0.9179
  667MOL0     H88001   1.156   3.535   7.800 -0.1354 -1.1294  0.6469
  667MOL0     H88002   1.277   3.802   7.895  0.3652  0.5642  0.8545
  667MOL0     H88003   1.248   3.769   7.719  1.0903 -0.2856  1.1652
  667MOL0     H88004   1.081   3.818   7.960  1.8620  1.8033 -0.6479
  667MOL0     H88005   1.005   3.713   7.838 -0.3889  0.3608  1.0478
  667MOL0     H88006   0.938   4.072   7.622 -1.8826  3.3506 -0.0132
  667MOL0     H88007   0.684   4.121   7.607 -0.2664  1.6763  0.8768
  667MOL0     H88008   0.336   4.309   7.603  2.9631 -1.8020  0.1515
  667MOL0     H88009   0.090   4.344   7.579 -0.9426 -1.1107 -3.4332
  667MOL0     H88010  -0.143   4.299   7.472  0.0474 -5.0851 -1.2556
  667MOL0     H88011  -0.124   4.329   7.646  1.6108 -1.3939  0.9509
  667MOL0     H88012  -0.360   4.204   7.656  0.5477  0.3373  0.1795
  667MOL0     H88013  -0.349   4.191   7.478 -0.4180  2.6671 -0.8587
  667MOL0     H88014  -0.338   4.438   7.462 -0.6347  2.4449  0.4117
  667MOL0     H88015  -0.334   4.462   7.623  1.7166 -1.4343  0.5774
  667MOL0     H88016  -0.576   4.344   7.631  0.9189  1.0067  1.1624
  667MOL0     H88017  -0.571   4.502   7.587 -1.7343 -0.8563  0.1494
  667MOL0     H88018  -0.694   4.370   7.400  0.5320  0.0711 -1.2363
  667MOL0     H88019  -0.542   4.296   7.362  2.0646  1.3021  0.1157
  667MOL0     H88020  -0.476   4.568   7.358  0.5725 -0.4283 -0.9367
  667MOL0     H88021  -0.650   4.580   7.338 -0.7738 -1.4607 -0.1519
  667MOL0     H88022  -0.456   4.418   7.159 -0.1682 -0.4513  0.7415
  667MOL0     H88023  -0.629   4.417   7.133 -0.7826  1.0953 -1.6908
  667MOL0     H88024  -0.517   4.574   6.968  1.3175 -1.8488  0.5600
  667MOL0     H88025  -0.443   4.663   7.097  1.6436 -2.5669 -0.7959
  667MOL0     H88026   0.022   3.923   7.648 -0.1784  0.4925  0.8466
  667MOL0     H88027   0.263   3.884   7.656 -2.8181 -0.7998  0.2091
  667MOL0     H88028   0.621   3.901   7.958  0.6670 -0.9451 -0.2153
  667MOL0     H88029   0.868   3.851   7.971 -0.6640  0.2901  0.8788
  667MOL0     H88030   2.742   3.527   7.445 -0.4256 -0.3557  0.5539
  667MOL0     H88031   2.932   3.521   7.273 -1.3866  0.5641  0.2235
  667MOL0     H88032   3.229   3.250   7.044 -0.2407  1.0573  0.4155
  667MOL0     H88033   3.479   3.300   7.004 -0.2195 -1.1484 -3.4252
  667MOL0     H88034   3.707   3.408   6.940 -1.6821  1.0226 -1.4880
  667MOL0     H88035   3.621   3.442   7.093 -2.3029  0.2851 -1.5039
  667MOL0     H88036   3.863   3.517   7.074 -1.1525 -1.8060 -1.3012
  667MOL0     H88037   3.826   3.611   6.929  2.4674 -2.2811 -0.1496
  667MOL0     H88038   3.696   3.645   7.211 -0.4210  0.1351 -0.9287
  667MOL0     H88039   3.652   3.745   7.086  0.6563  2.3346  1.5440
  667MOL0     H88040   3.869   3.829   7.037  1.2860 -0.9540 -0.7101
  667MOL0     H88041   3.806   3.872   7.196 -0.8797 -1.0366  0.3415
  667MOL0     H88042   4.156   3.662   7.315 -0.5314 -1.4895  0.9399
  667MOL0     H88043   3.365   3.718   6.896  2.0726 -0.0620 -1.0012
  667MOL0     H88044   3.127   3.661   6.935 -2.8448 -3.5368 -2.4681
  668MOL0     O88045   3.316   2.286   8.140  0.3168 -0.4318 -0.0098
  668MOL0     C88046   3.218   2.321   8.075 -0.9351 -0.0977 -0.2340
  668MOL0     O88047   3.206   2.443   8.027 -0.7923  0.0356 -0.3074
  668MOL0     C88048   3.302   2.541   8.047 -0.2568 -0.5775  0.2588
  668MOL0     C88049   3.374   2.597   7.939 -0.3551 -0.1354 -0.1014
  668MOL0     C88050   3.472   2.693   7.955 -0.1817 -0.8271 -0.3567
  668MOL0     C88051   3.489   2.760   8.083 -0.7708  0.7101  0.4666
  668MOL0     O88052   3.581   2.858   8.093  0.5447  0.1252  0.3400
  668MOL0     C88053   3.711   2.831   8.060 -0.4756  1.3174  0.5573
  668MOL0     C88054   3.801   2.936   8.134 -0.6303  0.1380  0.4644
  668MOL0     C88055   3.778   3.077   8.089 -0.6009 -0.2853 -0.3516
  668MOL0     C88056   3.888   3.173   8.148  0.0273 -0.1527  0.4877
  668MOL0     C88057   3.853   3.320   8.121  0.1536 -0.0607 -0.7519
  668MOL0     C88058   3.877   3.351   7.977  0.0326 -0.5460  0.1395
  668MOL0     C88059   3.863   3.497   7.937  0.5273 -0.0005 -0.4023
  668MOL0     C88060   3.881   3.509   7.785 -0.1341 -0.0246  0.6381
  668MOL0     N88061   3.923   3.641   7.742  0.2027 -0.3437 -0.1631
  668MOL0     C88062   3.857   3.744   7.806  0.0451  0.4127  0.2845
  668MOL0     C88063   3.923   3.855   7.763  0.6249 -0.9286  0.6090
  668MOL0     C88064   3.922   4.002   7.796 -0.3744  0.2475 -0.4941
  668MOL0     C88065   3.770   4.034   7.815  0.8343  0.1038 -0.3378
  668MOL0     C88066   3.709   4.035   7.666  0.4916 -0.1775 -1.2925
  668MOL0     C88067   3.562   4.090   7.643 -0.1051  0.1500 -0.1208
  668MOL0     O88068   3.476   4.020   7.735  0.5947 -0.2932 -0.2879
  668MOL0     C88069   3.346   4.002   7.710  0.0961  0.6523 -0.6121
  668MOL0     C88070   3.264   3.928   7.800 -0.7594  0.2171  0.1438
  668MOL0     C88071   3.123   3.921   7.779  0.0496  0.6822 -0.4345
  668MOL0     C88072   3.058   3.958   7.660 -0.1684 -0.5915  0.8942
  668MOL0     C88073   2.913   3.948   7.631 -0.7324 -0.6335  0.0457
  668MOL0     O88074   2.829   3.889   7.722 -0.3459  0.0323  0.1147
  668MOL0     C88075   2.694   3.881   7.712 -0.1383  0.1014  0.2428
  668MOL0     C88076   2.626   3.902   7.826  0.9446  0.4827 -0.0697
  668MOL0     C88077   2.484   3.907   7.831 -0.6320  0.4425 -0.7903
  668MOL0     C88078   2.411   3.874   7.714 -0.3077  0.4986  0.4713
  668MOL0     O88079   2.278   3.891   7.709  0.3292 -0.6530  0.6400
  668MOL0     C88080   2.211   3.903   7.574  0.3305  0.1749  0.1971
  668MOL0     C88081   2.064   3.949   7.574  0.7846 -0.7411 -0.0951
  668MOL0     C88082   2.052   4.088   7.635  0.8089  0.2464 -0.1645
  668MOL0     C88083   1.898   4.103   7.667 -0.4523  0.3670  0.3431
  668MOL0     C88084   1.884   4.257   7.678  0.0667  0.1581 -1.0285
  668MOL0     C88085   1.736   4.289   7.703  0.6070 -0.6065  0.4360
  668MOL0     C88086   1.733   4.442   7.727  0.0676  0.0596  0.2687
  668MOL0     C88087   1.585   4.482   7.743  0.0576  0.0051  0.1863
  668MOL0    Cl88088   1.504   4.466   7.590 -0.1553 -0.6639 -0.7492
  668MOL0     C88089   2.487   3.853   7.599  0.7473  0.4455  0.3571
  668MOL0     C88090   2.625   3.859   7.594 -0.6985 -0.2197  0.2961
  668MOL0     O88091   2.878   3.995   7.521  0.1285 -0.1855 -0.2541
  668MOL0     C88092   3.145   4.016   7.555  0.2801 -0.1389  0.2336
  668MOL0     C88093   3.281   4.034   7.585  0.0080  0.3964  0.4234
  668MOL0     N88094   4.033   3.815   7.684  0.9023 -0.3793 -0.3030
  668MOL0     N88095   4.026   3.684   7.675 -0.1356 -0.6234 -0.0070
  668MOL0     C88096   3.415   2.709   8.186 -0.3991 -1.0056 -0.7686
  668MOL0     C88097   3.323   2.606   8.167 -0.6976 -0.3017 -0.0212
  668MOL0     C88098   3.099   2.231   8.050 -0.4845  0.1594 -0.8349
  668MOL0     C88099   3.121   2.092   8.040 -0.7866  1.0704  0.1730
  668MOL0     C88100   3.018   2.003   8.011 -0.0139  0.1364 -0.7532
  668MOL0     C88101   2.887   2.059   7.984  0.7001 -0.2733  0.9578
  668MOL0     O88102   2.781   1.983   7.935 -0.4005  0.5979  0.8677
  668MOL0     C88103   2.809   1.858   7.879  0.3225  0.0116 -0.0342
  668MOL0     C88104   2.675   1.796   7.843 -0.2082 -0.1036 -0.1253
  668MOL0     C88105   2.622   1.844   7.708  0.8830 -0.1879 -0.2936
  668MOL0     C88106   2.486   1.786   7.671 -0.2488  0.4252 -0.0674
  668MOL0     C88107   2.387   1.852   7.744  0.1814  0.2161  0.0379
  668MOL0     C88108   2.289   1.905   7.791  0.1361  0.4349 -0.4795
  668MOL0     C88109   2.866   2.191   7.984 -0.5163  0.1436  0.1316
  668MOL0     C88110   2.969   2.283   8.022  1.1332 -0.0728  0.0734
  668MOL0     H88111   3.359   2.561   7.838  1.6503  1.1918 -0.9446
  668MOL0     H88112   3.521   2.733   7.867 -1.8563 -1.3306 -1.5656
  668MOL0     H88113   3.714   2.828   7.951 -0.1632 -2.2826  0.5461
  668MOL0     H88114   3.743   2.732   8.092 -3.5641  0.0890  0.2314
  668MOL0     H88115   3.907   2.920   8.111 -0.6993  0.6010 -0.1930
  668MOL0     H88116   3.774   2.914   8.238 -1.7019 -1.2733 -0.0768
  668MOL0     H88117   3.678   3.110   8.121 -1.6082 -2.5129 -1.0325
  668MOL0     H88118   3.777   3.092   7.981 -1.3283  2.5424 -0.0354
  668MOL0     H88119   3.881   3.152   8.255 -2.1045  0.8182  0.6057
  668MOL0     H88120   3.988   3.156   8.108  0.0346 -0.6801  0.7197
  668MOL0     H88121   3.923   3.374   8.185  0.5849 -2.0592  0.5591
  668MOL0     H88122   3.748   3.335   8.150  0.0986 -2.6574  0.7453
  668MOL0     H88123   3.808   3.287   7.922 -1.5018 -0.6021  2.0512
  668MOL0     H88124   3.971   3.306   7.944 -0.5867 -0.8234 -1.3167
  668MOL0     H88125   3.759   3.530   7.949  1.6500  3.4206  1.6193
  668MOL0     H88126   3.938   3.554   7.992  0.4827 -1.6659  1.5178
  668MOL0     H88127   3.788   3.487   7.732  0.2105  0.5893 -0.2395
  668MOL0     H88128   3.960   3.443   7.750  1.1323  1.5117  0.4610
  668MOL0     H88129   3.772   3.739   7.874  0.8039 -0.9315  1.1752
  668MOL0     H88130   3.983   4.065   7.730  0.9557 -0.3598  0.1058
  668MOL0     H88131   3.972   4.016   7.893 -1.1243  2.0767 -0.3217
  668MOL0     H88132   3.746   4.136   7.848  3.4983  1.7946 -3.0622
  668MOL0     H88133   3.719   3.965   7.882 -1.4791  2.1076  0.0808
  668MOL0     H88134   3.769   4.086   7.591  0.9188 -1.6439 -1.9848
  668MOL0     H88135   3.697   3.929   7.640 -1.1834 -0.3747  0.0666
  668MOL0     H88136   3.544   4.067   7.537 -3.6876 -1.5601  0.7094
  668MOL0     H88137   3.543   4.197   7.637  0.6571  0.2624 -0.7325
  668MOL0     H88138   3.302   3.898   7.897 -1.0010 -0.2264  0.1016
  668MOL0     H88139   3.057   3.875   7.851  1.8749 -0.5857  0.4886
  668MOL0     H88140   2.684   3.903   7.917  0.9689 -1.0394 -0.0550
  668MOL0     H88141   2.438   3.937   7.924 -0.3994  1.4668 -0.9891
  668MOL0     H88142   2.207   3.803   7.529 -0.3197  0.2212  0.1459
  668MOL0     H88143   2.269   3.968   7.508  0.1880 -1.1045 -1.2743
  668MOL0     H88144   2.009   3.880   7.638  0.0591 -2.7629 -2.7459
  668MOL0     H88145   2.006   3.950   7.481 -0.9892 -1.6228  0.9483
  668MOL0     H88146   2.075   4.163   7.558 -2.1231  0.0319 -1.3700
  668MOL0     H88147   2.109   4.099   7.727  0.6999  1.9793 -0.2672
  668MOL0     H88148   1.842   4.074   7.577  1.7785  0.9810 -1.3422
  668MOL0     H88149   1.875   4.042   7.754  3.9691 -1.5817  0.3779
  668MOL0     H88150   1.915   4.302   7.584 -0.8700 -0.0539 -1.4487
  668MOL0     H88151   1.954   4.285   7.758  1.2688 -1.9378 -1.2700
  668MOL0     H88152   1.700   4.231   7.788 -0.6904 -0.7044 -0.1560
  668MOL0     H88153   1.677   4.266   7.614 -0.1659 -1.0465  1.0478
  668MOL0     H88154   1.791   4.464   7.817 -0.0432  1.1378  0.0931
  668MOL0     H88155   1.762   4.492   7.634 -0.6072 -1.7549 -0.9815
  668MOL0     H88156   1.576   4.588   7.771 -1.0046  0.1935 -0.7760
  668MOL0     H88157   1.535   4.424   7.821 -0.9847 -0.1380 -0.5689
  668MOL0     H88158   2.437   3.822   7.507  0.3478 -1.3622  1.1302
  668MOL0     H88159   2.672   3.842   7.498 -2.0676  0.2842 -0.4993
  668MOL0     H88160   3.109   4.040   7.455  2.5036  0.1097 -0.5722
  668MOL0     H88161   3.341   4.089   7.513  1.2838 -0.2457  0.9737
  668MOL0     H88162   3.440   2.752   8.283  2.3806  0.1942 -1.9127
  668MOL0     H88163   3.268   2.575   8.255 -1.3920  0.2411 -0.2444
  668MOL0     H88164   3.215   2.040   8.052 -0.6065  1.0733 -1.1235
  668MOL0     H88165   3.048   1.899   8.012  1.0541  0.4093  1.4129
  668MOL0     H88166   2.863   1.785   7.941 -2.4854 -0.9656  1.4341
  668MOL0     H88167   2.867   1.865   7.786  0.3746  0.8369  0.0583
  668MOL0     H88168   2.681   1.688   7.825 -0.5701  0.1349 -1.9021
  668MOL0     H88169   2.602   1.809   7.923 -0.1147 -2.1139  0.3389
  668MOL0     H88170   2.687   1.833   7.620 -0.0751 -3.2900 -0.7424
  668MOL0     H88171   2.612   1.952   7.719  1.1935 -0.3677  2.5214
  668MOL0     H88172   2.476   1.801   7.563 -0.3155 -0.8301 -0.2424
  668MOL0     H88173   2.477   1.681   7.701 -2.8237  0.6155  0.0465
  668MOL0     H88174   2.204   1.957   7.831 -0.9428 -0.2475 -1.8400
  668MOL0     H88175   2.769   2.233   7.957 -0.7590 -0.8251 -0.5608
  668MOL0     H88176   2.939   2.386   8.038  0.0692 -0.3469 -0.0310
  669MOL0     O88177   4.383   7.855   3.148  0.4246  0.8949  0.3173
  669MOL0     C88178   4.419   7.968   3.120 -0.0769  0.1204  0.0145
  669MOL0     O88179   4.336   8.074   3.105 -0.7124 -0.4703  0.0955
  669MOL0     C88180   4.204   8.069   3.135  0.5899 -0.3683 -0.1901
  669MOL0     C88181   4.127   7.955   3.173  0.0204  0.2260 -0.2279
  669MOL0     C88182   3.986   7.966   3.198  0.2408  0.2567 -0.1579
  669MOL0     C88183   3.921   8.085   3.204  0.6077  0.6966 -0.2849
  669MOL0     O88184   3.786   8.082   3.219  0.4581 -0.3670  0.7374
  669MOL0     C88185   3.705   8.195   3.251  0.0922 -0.0773 -0.3195
  669MOL0     C88186   3.599   8.149   3.357  0.0009 -0.1566 -0.3344
  669MOL0     C88187   3.465   8.097   3.301  0.4604  0.0953 -0.6481
  669MOL0     C88188   3.401   7.996   3.401 -0.0252 -0.0884  0.1942
  669MOL0     C88189   3.254   7.965   3.362 -0.4518 -0.5500  0.3329
  669MOL0     C88190   3.163   8.084   3.378  0.3514  0.0659  0.8558
  669MOL0     C88191   3.015   8.032   3.380  0.1329  0.3792 -0.0938
  669MOL0     C88192   2.927   8.152   3.381  0.1002  0.0619  0.2659
  669MOL0     N88193   2.787   8.124   3.404  0.6218  0.0848  0.6617
  669MOL0     C88194   2.707   8.041   3.320 -0.2205 -0.1354  0.0860
  669MOL0     C88195   2.593   8.026   3.386 -0.4678  0.7109 -0.6169
  669MOL0     C88196   2.474   7.928   3.363 -0.1363  0.5123 -0.3276
  669MOL0     C88197   2.330   7.979   3.410 -0.3750  0.4749  0.8337
  669MOL0     C88198   2.315   8.011   3.557  0.2307  0.5728 -0.1080
  669MOL0     C88199   2.165   8.045   3.578  0.4783 -0.3563  0.0427
  669MOL0     O88200   2.081   7.934   3.565  0.3289  0.8588 -0.0382
  669MOL0     C88201   1.947   7.962   3.573  0.3093  0.3208 -0.9879
  669MOL0     C88202   1.876   7.870   3.648  1.1171 -0.1689 -0.3479
  669MOL0     C88203   1.736   7.883   3.669 -0.7126  0.4582  0.9522
  669MOL0     C88204   1.671   7.989   3.595  0.2055 -0.5491 -0.4463
  669MOL0     C88205   1.518   8.009   3.607 -0.1883 -0.2695 -0.3681
  669MOL0     O88206   1.465   8.129   3.566 -0.0623  0.6952 -0.3602
  669MOL0     C88207   1.338   8.138   3.593  0.3365 -1.2886 -0.7512
  669MOL0     C88208   1.244   8.128   3.486 -0.1538  0.7224  0.6089
  669MOL0     C88209   1.106   8.141   3.511 -0.3384  0.2821 -0.7283
  669MOL0     C88210   1.056   8.176   3.635 -0.2287 -0.2351 -0.0958
  669MOL0     O88211   0.920   8.201   3.641  1.2461 -0.7085 -0.4491
  669MOL0     C88212   0.856   8.181   3.764  0.0345 -0.8109 -0.7193
  669MOL0     C88213   0.702   8.202   3.736 -0.4354  0.3273 -0.7548
  669MOL0     C88214   0.673   8.353   3.722 -0.3746  0.3853 -0.1012
  669MOL0     C88215   0.523   8.396   3.715 -0.3646 -0.0799 -0.5701
  669MOL0     C88216   0.431   8.349   3.829  0.0686  0.1358 -0.0514
  669MOL0     C88217   0.302   8.431   3.863  0.7002 -0.0001 -0.5439
  669MOL0     C88218   0.207   8.343   3.939  0.2989  0.1691 -0.5184
  669MOL0     C88219   0.072   8.420   3.957 -0.2065  0.3242 -0.0575
  669MOL0    Cl88220  -0.015   8.437   3.802 -0.0766  0.4002  0.0633
  669MOL0     C88221   1.149   8.189   3.744 -0.4068 -0.2677 -0.4586
  669MOL0     C88222   1.284   8.168   3.729  0.3296  0.0795 -0.1425
  669MOL0     O88223   1.452   7.918   3.667  0.2734  0.0816  0.4630
  669MOL0     C88224   1.738   8.070   3.507 -0.3247  0.0776  0.8441
  669MOL0     C88225   1.875   8.061   3.506  1.0718 -0.0945 -0.8048
  669MOL0     N88226   2.590   8.120   3.487 -0.6981  0.6423  0.0577
  669MOL0     N88227   2.709   8.167   3.503  0.2046 -0.6021 -0.7506
  669MOL0     C88228   3.991   8.200   3.164 -0.4951 -0.0807 -0.2074
  669MOL0     C88229   4.130   8.192   3.123 -0.2556  0.6354  0.0968
  669MOL0     C88230   4.564   7.994   3.080 -0.4477  0.1364  0.2818
  669MOL0     C88231   4.611   8.119   3.064  0.2014  0.2322 -0.2657
  669MOL0     C88232   4.750   8.150   3.057  0.6332  0.2528 -0.8867
  669MOL0     C88233   4.847   8.041   3.047 -1.2153 -0.3512 -1.6435
  669MOL0     O88234   4.984   8.054   3.044  0.8927 -0.4153  0.3883
  669MOL0     C88235   5.044   8.183   3.058  0.5472  0.5025  0.4175
  669MOL0     C88236   5.086   8.243   2.923 -0.3597 -0.5751 -0.4113
  669MOL0     C88237   5.189   8.142   2.854 -0.0293 -1.4626  0.2072
  669MOL0     C88238   5.192   8.165   2.699  0.1586 -1.0114  0.0099
  669MOL0     C88239   5.317   8.235   2.669 -0.5560  1.0782  0.0172
  669MOL0     C88240   5.422   8.297   2.653 -0.7031  0.5895  0.3475
  669MOL0     C88241   4.798   7.912   3.071 -0.2396 -0.3139  0.4148
  669MOL0     C88242   4.661   7.888   3.079 -0.0445  0.0950  0.4778
  669MOL0     H88243   4.160   7.852   3.178  3.3989  1.1556 -0.8681
  669MOL0     H88244   3.925   7.877   3.212  1.8525 -1.0341 -0.9703
  669MOL0     H88245   3.657   8.230   3.159  2.0879  4.6475  0.1860
  669MOL0     H88246   3.761   8.278   3.294  0.4876  1.1157 -2.9467
  669MOL0     H88247   3.567   8.234   3.417  2.9193  1.1858 -0.4955
  669MOL0     H88248   3.647   8.084   3.431  1.0057  2.3425  1.3264
  669MOL0     H88249   3.473   8.052   3.202 -0.0197  0.9267 -1.0770
  669MOL0     H88250   3.399   8.182   3.282  1.7563  1.0584 -0.9823
  669MOL0     H88251   3.450   7.897   3.399  3.9640  1.6884 -1.3379
  669MOL0     H88252   3.407   8.034   3.504  1.4664 -0.5817  0.3238
  669MOL0     H88253   3.230   7.886   3.433  0.5524 -1.5948 -0.4449
  669MOL0     H88254   3.245   7.926   3.260  0.8610 -0.8910  0.3260
  669MOL0     H88255   3.179   8.146   3.289 -2.3912 -0.7971 -0.3696
  669MOL0     H88256   3.190   8.143   3.466 -1.0260 -0.1264  1.4365
  669MOL0     H88257   2.990   7.976   3.290 -1.1303  2.1471 -0.8812
  669MOL0     H88258   2.997   7.978   3.474 -0.2145  0.0514 -0.3434
  669MOL0     H88259   2.945   8.208   3.289 -1.3827 -3.2887 -2.2270
  669MOL0     H88260   2.950   8.215   3.468 -0.4663  0.7901 -0.1033
  669MOL0     H88261   2.722   7.996   3.222  2.9930 -2.7151  1.5899
  669MOL0     H88262   2.502   7.832   3.407 -2.6826  0.3199  1.0524
  669MOL0     H88263   2.462   7.912   3.255 -1.0190  0.9227 -0.3024
  669MOL0     H88264   2.262   7.896   3.390  0.8664 -0.4408  0.2699
  669MOL0     H88265   2.318   8.065   3.343 -0.5045  0.1565  0.4460
  669MOL0     H88266   2.346   7.921   3.612  2.3088  1.3236  0.0116
  669MOL0     H88267   2.376   8.097   3.584  0.8400  0.8546 -2.2161
  669MOL0     H88268   2.138   8.131   3.516 -0.0642  2.4024  3.7260
  669MOL0     H88269   2.150   8.080   3.681 -1.1093 -1.7922  0.3220
  669MOL0     H88270   1.921   7.787   3.702  2.4642  1.5333  1.2697
  669MOL0     H88271   1.678   7.824   3.739  0.5838  0.9100  2.4586
  669MOL0     H88272   1.286   8.115   3.387 -0.9636  2.0396  0.0674
  669MOL0     H88273   1.033   8.129   3.431 -0.1506  1.2354 -1.0528
  669MOL0     H88274   0.883   8.257   3.838 -3.7919 -0.2435  0.3151
  669MOL0     H88275   0.870   8.083   3.809 -0.7874 -0.3611  0.5855
  669MOL0     H88276   0.647   8.159   3.820  0.4899  0.3883 -0.1025
  669MOL0     H88277   0.663   8.143   3.652 -1.3094 -1.1560  0.6424
  669MOL0     H88278   0.718   8.391   3.630 -0.1126 -2.3007 -1.1676
  669MOL0     H88279   0.710   8.410   3.808  1.3809 -1.8449  0.7493
  669MOL0     H88280   0.520   8.505   3.713  1.9324  0.0398 -2.6455
  669MOL0     H88281   0.487   8.351   3.622  0.7533 -1.0765 -0.5501
  669MOL0     H88282   0.485   8.350   3.924 -0.0013  0.6088 -0.0159
  669MOL0     H88283   0.405   8.246   3.802  0.3702  0.3735 -1.2806
  669MOL0     H88284   0.262   8.477   3.772 -1.5422  2.5337  1.5309
  669MOL0     H88285   0.335   8.519   3.920 -0.2458  0.4401 -0.6647
  669MOL0     H88286   0.194   8.249   3.884  6.3287 -0.8974 -0.7117
  669MOL0     H88287   0.253   8.320   4.035 -0.5773  2.1656  0.4489
  669MOL0     H88288   0.096   8.521   3.992  1.7385 -0.6438  1.6444
  669MOL0     H88289   0.016   8.364   4.032  0.4198  0.2443  0.3517
  669MOL0     H88290   1.123   8.216   3.846  1.4580 -1.5254  0.4241
  669MOL0     H88291   1.354   8.185   3.811  0.6633  1.7188 -0.7275
  669MOL0     H88292   1.688   8.135   3.436 -0.7794  2.0697  2.8837
  669MOL0     H88293   1.928   8.119   3.431  3.0406  0.0906  0.6233
  669MOL0     H88294   3.934   8.293   3.160  1.7891  1.3908 -3.7887
  669MOL0     H88295   4.193   8.279   3.108 -0.3649  0.7553  0.3376
  669MOL0     H88296   4.536   8.196   3.081  0.2972  0.1887  0.3613
  669MOL0     H88297   4.789   8.251   3.045  1.7848 -0.2180 -1.2201
  669MOL0     H88298   5.136   8.151   3.108  0.4063 -1.4383 -0.4862
  669MOL0     H88299   4.989   8.254   3.120  1.2278 -0.0401  1.6998
  669MOL0     H88300   5.000   8.253   2.856  2.3600 -1.9988 -4.4561
  669MOL0     H88301   5.131   8.342   2.929 -1.0342 -0.2440 -0.6860
  669MOL0     H88302   5.151   8.040   2.865  1.0059 -2.1630 -2.1316
  669MOL0     H88303   5.287   8.142   2.901  0.0535 -4.0343  0.1914
  669MOL0     H88304   5.188   8.077   2.635 -0.6125  0.9591 -2.8397
  669MOL0     H88305   5.107   8.229   2.675 -0.2994 -1.8913 -0.7707
  669MOL0     H88306   5.510   8.351   2.627 -0.9326  0.4148 -0.8722
  669MOL0     H88307   4.861   7.824   3.086 -1.5771 -1.7567 -1.7963
  669MOL0     H88308   4.620   7.787   3.074  1.5630 -0.6361  1.2894
  670MOL0     O88309   4.536   6.782   6.045 -0.4940 -1.0390 -0.3421
  670MOL0     C88310   4.557   6.662   6.022 -0.1159  0.6049  0.2911
  670MOL0     O88311   4.463   6.569   5.977 -0.3366  0.2187  0.5567
  670MOL0     C88312   4.335   6.620   5.964 -0.9191 -0.1441  0.3560
  670MOL0     C88313   4.264   6.656   6.077  0.3654 -0.3469  0.1837
  670MOL0     C88314   4.126   6.690   6.074  0.1160  0.4528 -0.6346
  670MOL0     C88315   4.065   6.712   5.954 -0.3241  0.8230  0.7943
  670MOL0     O88316   3.936   6.748   5.933 -0.3608  0.4898 -0.0315
  670MOL0     C88317   3.848   6.765   6.044  0.5582  0.1031  0.2883
  670MOL0     C88318   3.708   6.809   6.008 -0.6485  0.2754  0.2417
  670MOL0     C88319   3.633   6.687   5.952  0.3791 -1.2611 -0.3822
  670MOL0     C88320   3.484   6.733   5.942  0.6330 -0.2048  0.0554
  670MOL0     C88321   3.436   6.764   5.803  0.2439  0.2247  0.3486
  670MOL0     C88322   3.304   6.845   5.795 -0.0088  0.3857 -0.7156
  670MOL0     C88323   3.178   6.760   5.838  0.4466  0.4016 -0.6339
  670MOL0     C88324   3.049   6.838   5.813 -0.3815 -0.4597 -0.0104
  670MOL0     N88325   2.938   6.750   5.853 -0.1734 -0.0692 -0.5553
  670MOL0     C88326   2.915   6.617   5.810  0.0207 -0.0901  0.2976
  670MOL0     C88327   2.813   6.570   5.879  1.3569 -0.3802 -0.6089
  670MOL0     C88328   2.753   6.435   5.869 -0.2190  0.9497 -0.4260
  670MOL0     C88329   2.858   6.328   5.860 -0.9204 -0.1013 -0.0825
  670MOL0     C88330   2.980   6.338   5.961 -0.0744  0.3709  0.2602
  670MOL0     C88331   3.079   6.226   5.951 -0.5975 -0.2892  0.6359
  670MOL0     O88332   3.201   6.268   6.005 -1.1010  0.1420  0.1536
  670MOL0     C88333   3.308   6.194   5.965  0.2009 -0.7008  0.1054
  670MOL0     C88334   3.307   6.067   5.901  0.8400 -0.3410 -0.3043
  670MOL0     C88335   3.423   6.009   5.869  0.9255  0.4121 -0.8564
  670MOL0     C88336   3.550   6.069   5.893 -0.3875  0.7049  0.3997
  670MOL0     C88337   3.679   6.002   5.856 -0.4607 -1.0070 -0.0368
  670MOL0     O88338   3.662   5.898   5.774 -0.0886  0.3073  0.4417
  670MOL0     C88339   3.778   5.826   5.750  0.4295 -0.3654 -0.6923
  670MOL0     C88340   3.917   5.867   5.748  0.9458 -0.4777 -0.1141
  670MOL0     C88341   4.021   5.771   5.742  0.2700 -0.1866 -0.6526
  670MOL0     C88342   3.987   5.633   5.741  0.5035 -0.1646  0.7051
  670MOL0     O88343   4.076   5.531   5.748 -0.5168  0.3507 -0.2574
  670MOL0     C88344   4.211   5.575   5.743 -0.1042  0.2719 -0.2294
  670MOL0     C88345   4.298   5.441   5.729 -0.2791  0.3928  0.4347
  670MOL0     C88346   4.435   5.468   5.665 -0.1023 -0.5122 -0.9847
  670MOL0     C88347   4.514   5.333   5.669 -0.0011  0.8279  0.1137
  670MOL0     C88348   4.614   5.319   5.555 -0.4928  1.1597  0.4235
  670MOL0     C88349   4.706   5.187   5.576  0.1446  0.2659 -0.3368
  670MOL0     C88350   4.798   5.136   5.457 -0.2001  0.0573 -0.3417
  670MOL0     C88351   4.826   4.984   5.492  0.0413 -0.3529  0.3997
  670MOL0    Cl88352   4.937   4.922   5.360  0.3991 -0.1834  0.0616
  670MOL0     C88353   3.858   5.596   5.728  1.0733  0.0849  0.6190
  670MOL0     C88354   3.754   5.693   5.724 -0.4169  0.0958  0.2836
  670MOL0     O88355   3.782   6.043   5.910 -0.0588  0.0972  0.6073
  670MOL0     C88356   3.552   6.194   5.953  0.6428  0.5823 -0.1124
  670MOL0     C88357   3.430   6.250   5.998 -0.3796  0.1232  0.7695
  670MOL0     N88358   2.776   6.658   5.974 -0.7443 -0.2994  0.3387
  670MOL0     N88359   2.850   6.764   5.957 -0.1835 -0.1331 -0.6206
  670MOL0     C88360   4.143   6.678   5.841 -0.4701 -0.5208  0.0953
  670MOL0     C88361   4.273   6.632   5.839  0.0247 -0.3895  0.4694
  670MOL0     C88362   4.697   6.617   6.037 -0.4603  0.5228  0.4089
  670MOL0     C88363   4.720   6.490   5.985  0.9144 -0.2861  0.3500
  670MOL0     C88364   4.851   6.452   5.973 -1.1706  0.7322 -0.8536
  670MOL0     C88365   4.965   6.515   6.043 -0.0988  0.3551  0.0607
  670MOL0     O88366   5.094   6.481   6.045  0.4934  0.2709  0.5122
  670MOL0     C88367   5.121   6.351   5.986 -0.9267 -0.0986  0.1554
  670MOL0     C88368   5.257   6.297   6.033  0.9374 -0.1997 -0.1535
  670MOL0     C88369   5.259   6.291   6.186 -0.2998  0.5254  0.5744
  670MOL0     C88370   5.391   6.263   6.245 -1.6639 -0.0788  0.5528
  670MOL0     C88371   5.452   6.133   6.205 -0.1515 -0.1729 -0.2056
  670MOL0     C88372   5.501   6.036   6.169 -0.3933 -0.1504  1.1980
  670MOL0     C88373   4.924   6.634   6.109 -0.1243 -0.1987  0.3473
  670MOL0     C88374   4.798   6.684   6.103 -0.9141 -0.0584 -0.1116
  670MOL0     H88375   4.309   6.649   6.176  1.5585  1.6346 -0.1690
  670MOL0     H88376   4.067   6.708   6.163 -0.8261 -0.2001 -1.1070
  670MOL0     H88377   3.884   6.853   6.098  0.4932 -0.1249  0.7076
  670MOL0     H88378   3.845   6.682   6.116  1.5302 -0.3223 -0.1423
  670MOL0     H88379   3.719   6.892   5.937  5.3332 -0.7264 -0.5088
  670MOL0     H88380   3.666   6.851   6.101 -0.1440  0.2897  0.4626
  670MOL0     H88381   3.642   6.604   6.022 -0.5467  0.3146  1.7251
  670MOL0     H88382   3.672   6.663   5.852  1.2142  0.0706 -0.4077
  670MOL0     H88383   3.415   6.654   5.973 -0.2227  0.7441  0.6412
  670MOL0     H88384   3.460   6.813   6.012 -2.2208 -0.3250 -0.6804
  670MOL0     H88385   3.437   6.678   5.736  1.2753  0.5993 -0.1460
  670MOL0     H88386   3.510   6.835   5.764 -1.9003  1.9233 -0.8880
  670MOL0     H88387   3.289   6.880   5.693  2.7049 -2.4759 -2.2631
  670MOL0     H88388   3.317   6.930   5.862 -2.3145  1.4023 -1.4519
  670MOL0     H88389   3.182   6.671   5.774  1.7624 -0.3889  0.5012
  670MOL0     H88390   3.188   6.736   5.944 -2.7219 -0.5903 -0.4366
  670MOL0     H88391   3.046   6.865   5.707  0.4941  0.1096  0.1050
  670MOL0     H88392   3.052   6.928   5.875  0.5438 -0.3064 -0.2676
  670MOL0     H88393   2.965   6.563   5.731  1.2832 -1.3593  1.8995
  670MOL0     H88394   2.674   6.440   5.794 -0.3760 -0.6420 -0.4082
  670MOL0     H88395   2.697   6.424   5.963  0.7855 -0.6876  0.0265
  670MOL0     H88396   2.889   6.332   5.756  1.2408 -0.6518  0.4917
  670MOL0     H88397   2.804   6.236   5.887 -3.9527  1.6979  0.5170
  670MOL0     H88398   3.031   6.431   5.930  1.0050 -0.2448  0.1243
  670MOL0     H88399   2.941   6.350   6.062 -1.0688  0.9275 -0.1754
  670MOL0     H88400   3.092   6.202   5.845  0.3819  2.8727 -0.0526
  670MOL0     H88401   3.037   6.139   6.003 -2.3888  1.2467  1.8628
  670MOL0     H88402   3.214   6.017   5.876  0.9073 -0.8501  0.4309
  670MOL0     H88403   3.415   5.913   5.819  1.1517 -1.6828  2.8017
  670MOL0     H88404   3.951   5.970   5.761  0.6622 -0.2932 -0.8161
  670MOL0     H88405   4.121   5.809   5.759  1.1964 -2.2478 -1.2338
  670MOL0     H88406   4.236   5.633   5.833 -0.9229  1.7080 -0.8985
  670MOL0     H88407   4.244   5.640   5.662  1.3335 -0.9772 -0.7156
  670MOL0     H88408   4.246   5.368   5.667  2.4728 -1.4543  0.1289
  670MOL0     H88409   4.311   5.394   5.827 -0.1765 -1.9686 -0.6556
  670MOL0     H88410   4.480   5.541   5.733 -2.6679  1.2591 -1.0330
  670MOL0     H88411   4.445   5.514   5.566  1.5325  4.3379  1.1413
  670MOL0     H88412   4.566   5.322   5.764 -2.3119 -0.4762  1.2831
  670MOL0     H88413   4.440   5.255   5.653 -1.0542  1.8226 -0.0085
  670MOL0     H88414   4.679   5.406   5.553 -0.1696  0.9088 -1.4449
  670MOL0     H88415   4.558   5.314   5.461 -0.2085 -0.4591  0.3090
  670MOL0     H88416   4.634   5.108   5.599  0.8672 -0.6136 -1.0203
  670MOL0     H88417   4.768   5.199   5.665 -0.2513  0.2962 -0.0633
  670MOL0     H88418   4.746   5.152   5.362 -2.0164 -1.9116  0.2541
  670MOL0     H88419   4.892   5.192   5.459  0.4651 -1.0406 -0.1695
  670MOL0     H88420   4.735   4.923   5.493  1.4480 -2.5908 -0.1473
  670MOL0     H88421   4.876   4.981   5.590  1.5184 -0.4114 -0.3196
  670MOL0     H88422   3.833   5.490   5.719  1.0422  0.1166  0.3321
  670MOL0     H88423   3.651   5.666   5.701 -0.3927  2.2857 -2.9893
  670MOL0     H88424   3.645   6.240   5.986 -1.0534  3.0588  1.5635
  670MOL0     H88425   3.425   6.347   6.046 -1.4681  0.9033 -0.8136
  670MOL0     H88426   4.094   6.683   5.745  0.2146 -1.2812 -0.3058
  670MOL0     H88427   4.324   6.605   5.747 -0.5107  0.4945 -0.1032
  670MOL0     H88428   4.650   6.422   5.939 -1.4780  2.0478  0.2624
  670MOL0     H88429   4.878   6.358   5.926  2.0697  0.6737  0.8291
  670MOL0     H88430   5.139   6.355   5.878  2.5126 -1.6842  0.5272
  670MOL0     H88431   5.047   6.274   6.009  1.3613 -3.2812 -2.1676
  670MOL0     H88432   5.281   6.200   5.989  1.1296  0.4682 -1.5729
  670MOL0     H88433   5.340   6.355   5.990  1.1913 -0.2217  0.3062
  670MOL0     H88434   5.177   6.226   6.217 -1.3420  0.2096 -2.4423
  670MOL0     H88435   5.238   6.389   6.231 -0.0216  1.3235 -0.9513
  670MOL0     H88436   5.465   6.339   6.217 -1.8618 -0.2019 -0.3286
  670MOL0     H88437   5.376   6.266   6.354 -1.8641  1.2550  0.5076
  670MOL0     H88438   5.544   5.952   6.117 -0.0704  0.6972  0.0659
  670MOL0     H88439   4.996   6.694   6.164  0.6755 -2.1918  1.5874
  670MOL0     H88440   4.775   6.779   6.152  1.8375  0.3021  0.6246
  671MOL0     O88441   2.474   2.140   8.069 -0.6736  0.5438 -0.1970
  671MOL0     C88442   2.558   2.126   8.155 -0.7293  0.0307 -0.0197
  671MOL0     O88443   2.596   2.008   8.228  0.0004 -0.4871  0.6675
  671MOL0     C88444   2.531   1.884   8.210 -1.0869 -0.2465 -1.4874
  671MOL0     C88445   2.417   1.862   8.133 -0.1925  0.7866 -1.1656
  671MOL0     C88446   2.372   1.729   8.107  0.4238  0.0751  0.0466
  671MOL0     C88447   2.441   1.623   8.165 -0.6396 -0.1416 -0.0181
  671MOL0     O88448   2.411   1.494   8.163  0.9182  0.1106 -0.2477
  671MOL0     C88449   2.331   1.441   8.050  0.9895 -0.1465  0.1978
  671MOL0     C88450   2.408   1.449   7.905  1.1847 -0.2798 -0.0938
  671MOL0     C88451   2.557   1.410   7.925  0.2634 -0.5339 -0.4660
  671MOL0     C88452   2.588   1.265   7.970  0.2292  0.1265  0.6158
  671MOL0     C88453   2.737   1.229   7.940 -0.0949 -0.4196 -0.3554
  671MOL0     C88454   2.749   1.080   7.909  0.3042 -0.2828 -0.3078
  671MOL0     C88455   2.898   1.034   7.917 -0.2233  0.2059 -0.4264
  671MOL0     C88456   2.999   1.131   7.864 -0.3354 -0.0342 -0.4471
  671MOL0     N88457   3.142   1.090   7.890 -0.5562 -0.2087 -0.1643
  671MOL0     C88458   3.224   1.033   7.795 -0.7623 -0.2492 -0.4342
  671MOL0     C88459   3.335   1.001   7.860 -0.6423  0.5866  1.2780
  671MOL0     C88460   3.444   0.912   7.795 -0.3104 -0.2142 -0.3529
  671MOL0     C88461   3.465   0.787   7.877  0.2542 -0.1217 -0.4438
  671MOL0     C88462   3.369   0.669   7.842  0.4795  0.0392  0.4061
  671MOL0     C88463   3.219   0.701   7.878  0.3254  0.0692 -0.0543
  671MOL0     O88464   3.138   0.582   7.889  0.8389 -0.2089  0.1665
  671MOL0     C88465   3.014   0.604   7.943 -0.0599 -0.1695  0.3473
  671MOL0     C88466   2.990   0.595   8.084  0.6874  0.7826 -0.1561
  671MOL0     C88467   2.868   0.644   8.143 -0.7605 -0.0838  0.2749
  671MOL0     C88468   2.759   0.679   8.055 -0.0764  0.4148  0.7464
  671MOL0     C88469   2.631   0.721   8.115  0.1716  0.0134 -0.1030
  671MOL0     O88470   2.553   0.796   8.028  0.3178  0.2174 -0.2495
  671MOL0     C88471   2.442   0.863   8.076  0.1210 -0.5522  0.3900
  671MOL0     C88472   2.344   0.888   7.980 -0.2502 -0.0994 -0.6041
  671MOL0     C88473   2.218   0.934   8.021 -0.2494  0.7299 -0.1295
  671MOL0     C88474   2.188   0.959   8.157  0.2825  0.1779 -0.3987
  671MOL0     O88475   2.075   1.029   8.188 -0.3853  0.2016  0.4083
  671MOL0     C88476   2.080   1.170   8.172 -0.0732 -0.4432  0.2987
  671MOL0     C88477   2.051   1.226   8.309  0.8139 -1.1100  0.3523
  671MOL0     C88478   2.074   1.378   8.317 -0.0738  0.5473 -0.1470
  671MOL0     C88479   1.989   1.457   8.214  0.4089 -0.3799 -0.9008
  671MOL0     C88480   1.840   1.456   8.255 -0.0596 -0.0363  0.0522
  671MOL0     C88481   1.762   1.561   8.187 -0.2571  0.7973 -0.1709
  671MOL0     C88482   1.615   1.565   8.231 -1.1100 -0.2925  0.0619
  671MOL0     C88483   1.524   1.679   8.179 -0.1246 -0.0551 -0.0373
  671MOL0    Cl88484   1.504   1.683   7.998 -0.0820  0.2861  0.3041
  671MOL0     C88485   2.286   0.927   8.252 -0.1041 -0.0135  0.2624
  671MOL0     C88486   2.417   0.885   8.211  0.3318  0.1885  0.4368
  671MOL0     O88487   2.588   0.654   8.214 -0.0799  0.1617  0.5493
  671MOL0     C88488   2.789   0.684   7.919  0.3696 -0.4368 -0.5709
  671MOL0     C88489   2.909   0.646   7.863  0.0254  0.0548 -0.1534
  671MOL0     N88490   3.325   1.051   7.981 -0.4132 -0.6606  0.5120
  671MOL0     N88491   3.207   1.112   8.003  0.4343 -0.0664  0.4840
  671MOL0     C88492   2.553   1.650   8.261  0.0767  0.4979  0.6165
  671MOL0     C88493   2.597   1.776   8.273  0.9137 -1.0166  0.1636
  671MOL0     C88494   2.610   2.255   8.216 -0.2600  0.5348  0.4576
  671MOL0     C88495   2.577   2.382   8.174  0.2279 -0.6603  0.1108
  671MOL0     C88496   2.643   2.500   8.232 -0.7661  0.7856  0.1903
  671MOL0     C88497   2.718   2.487   8.350  0.4566  0.1121  0.5672
  671MOL0     O88498   2.761   2.604   8.404  0.4406  0.0279 -0.1327
  671MOL0     C88499   2.753   2.601   8.540  0.2846 -0.0292 -0.0857
  671MOL0     C88500   2.759   2.750   8.577 -0.2284 -0.4779  0.4981
  671MOL0     C88501   2.659   2.838   8.502 -0.1540 -0.1523  0.1311
  671MOL0     C88502   2.514   2.813   8.527  0.0416 -0.8661 -0.3819
  671MOL0     C88503   2.471   2.795   8.662 -0.0345 -0.2342 -0.0026
  671MOL0     C88504   2.427   2.782   8.770  0.3076 -0.7913 -0.0211
  671MOL0     C88505   2.735   2.363   8.403 -0.2885  0.8832 -0.3929
  671MOL0     C88506   2.689   2.242   8.331 -0.7579 -0.5365  0.1495
  671MOL0     H88507   2.362   1.936   8.077 -0.8766 -0.0319 -1.5954
  671MOL0     H88508   2.283   1.723   8.046 -1.4097 -0.1369  2.6016
  671MOL0     H88509   2.237   1.498   8.053  0.0297 -1.7149  1.1128
  671MOL0     H88510   2.305   1.338   8.074  0.0703 -0.1163 -0.5853
  671MOL0     H88511   2.394   1.543   7.851  2.5183  0.0510  0.1089
  671MOL0     H88512   2.357   1.374   7.844  0.3729  0.6256 -0.5517
  671MOL0     H88513   2.602   1.474   8.001  1.5164 -0.2626 -1.4122
  671MOL0     H88514   2.602   1.431   7.828 -2.2155 -1.4315 -1.9241
  671MOL0     H88515   2.554   1.252   8.074 -1.1303 -0.7483  0.0828
  671MOL0     H88516   2.528   1.191   7.918  2.1154 -2.0535  1.3401
  671MOL0     H88517   2.786   1.255   8.034 -1.7557  1.0019  0.1579
  671MOL0     H88518   2.772   1.305   7.869 -2.0435  2.3584  1.4797
  671MOL0     H88519   2.709   1.057   7.810 -3.3916  0.0661  0.9233
  671MOL0     H88520   2.691   1.019   7.979  0.2211 -0.8219 -0.8358
  671MOL0     H88521   2.915   1.005   8.022  2.9438  1.0448 -0.6039
  671MOL0     H88522   2.907   0.949   7.849 -0.8278  0.4233 -0.7805
  671MOL0     H88523   2.980   1.232   7.901 -0.2919 -0.9531  2.3276
  671MOL0     H88524   2.988   1.125   7.755  2.3500 -2.7743 -0.7049
  671MOL0     H88525   3.198   1.002   7.695 -0.5389  2.3274 -1.3567
  671MOL0     H88526   3.535   0.971   7.811 -0.4873 -0.0626  0.1087
  671MOL0     H88527   3.422   0.888   7.691 -0.1552  1.9405 -0.9331
  671MOL0     H88528   3.458   0.811   7.984  0.6003  1.7986 -0.8162
  671MOL0     H88529   3.570   0.757   7.868  0.2244 -0.4825  0.2965
  671MOL0     H88530   3.376   0.651   7.735 -4.3142  0.8041 -0.2527
  671MOL0     H88531   3.385   0.573   7.892 -0.6835 -1.2580 -1.5779
  671MOL0     H88532   3.171   0.765   7.803  0.7645  0.4497 -0.0159
  671MOL0     H88533   3.210   0.756   7.972 -0.6464 -0.4705  0.1770
  671MOL0     H88534   3.066   0.562   8.155 -1.5668 -2.7887  0.8770
  671MOL0     H88535   2.852   0.632   8.249 -2.3588  0.2324  0.0986
  671MOL0     H88536   2.370   0.867   7.877 -1.5730 -0.3503 -0.9012
  671MOL0     H88537   2.149   0.955   7.940 -1.6231 -0.1910  0.7658
  671MOL0     H88538   2.008   1.212   8.101  2.7734  1.6885 -1.5347
  671MOL0     H88539   2.176   1.210   8.138 -0.5818 -0.3676 -1.1001
  671MOL0     H88540   2.102   1.171   8.389 -0.0505 -2.3039  0.1081
  671MOL0     H88541   1.946   1.203   8.327 -0.0927  2.1026 -0.2683
  671MOL0     H88542   2.180   1.397   8.300  0.0618 -0.0492  0.0178
  671MOL0     H88543   2.057   1.408   8.420 -0.3398 -2.5428  0.7930
  671MOL0     H88544   2.024   1.561   8.212  2.1042 -0.9312 -2.6381
  671MOL0     H88545   1.998   1.415   8.114  1.4135 -1.1873 -0.4888
  671MOL0     H88546   1.822   1.455   8.363 -3.1279  2.6319 -0.2805
  671MOL0     H88547   1.800   1.361   8.219 -0.4543 -0.4085  1.4204
  671MOL0     H88548   1.767   1.560   8.078  1.6460  1.8053 -0.1316
  671MOL0     H88549   1.811   1.649   8.229  2.7217 -1.8785  2.5220
  671MOL0     H88550   1.575   1.474   8.185 -1.5129  1.1849 -2.7251
  671MOL0     H88551   1.603   1.548   8.338 -2.6459  2.1852  0.3676
  671MOL0     H88552   1.560   1.776   8.216 -1.3640  0.9002 -1.1876
  671MOL0     H88553   1.424   1.680   8.224  1.2764  1.6265  3.4754
  671MOL0     H88554   2.257   0.944   8.356 -1.5731  0.7657 -0.2541
  671MOL0     H88555   2.493   0.859   8.284  1.0000 -0.4779 -0.4681
  671MOL0     H88556   2.718   0.711   7.841  1.0628 -1.3998 -1.5682
  671MOL0     H88557   2.914   0.656   7.756 -1.7284  0.7838 -0.1912
  671MOL0     H88558   2.595   1.566   8.315 -2.4377 -0.0538  1.8788
  671MOL0     H88559   2.676   1.804   8.342 -1.3076  0.0586  2.4108
  671MOL0     H88560   2.517   2.391   8.085  0.7141  0.6090 -0.1137
  671MOL0     H88561   2.620   2.600   8.195  2.9386  1.2278 -1.3738
  671MOL0     H88562   2.842   2.552   8.582  0.6263 -0.8986 -1.7396
  671MOL0     H88563   2.660   2.549   8.565 -0.1489 -0.9122 -3.0334
  671MOL0     H88564   2.757   2.772   8.684 -3.0339 -4.2609  1.4333
  671MOL0     H88565   2.858   2.795   8.560 -1.8811  2.9256 -0.9908
  671MOL0     H88566   2.681   2.843   8.395 -0.5751 -1.7377 -0.0548
  671MOL0     H88567   2.669   2.938   8.546 -0.7624  0.8336 -1.8498
  671MOL0     H88568   2.453   2.895   8.490 -0.0270 -0.2124  1.1241
  671MOL0     H88569   2.490   2.724   8.468 -0.5700 -0.4567 -0.7578
  671MOL0     H88570   2.401   2.761   8.872  4.8653  0.4365  1.6320
  671MOL0     H88571   2.792   2.336   8.491 -2.3239 -4.1473 -0.2864
  671MOL0     H88572   2.720   2.145   8.370 -1.3619 -0.4706  0.8001
  672MOL0     O88573   3.791   5.914   2.507  0.1917  0.2587  0.1008
  672MOL0     C88574   3.877   5.840   2.465 -0.3690  0.1640  0.2868
  672MOL0     O88575   3.852   5.718   2.400 -0.0785  0.1735 -0.4124
  672MOL0     C88576   3.723   5.652   2.397 -0.0133  0.4127 -0.2152
  672MOL0     C88577   3.644   5.657   2.512 -0.6293  0.2954 -0.4399
  672MOL0     C88578   3.533   5.570   2.520 -0.7708 -0.5097 -0.3466
  672MOL0     C88579   3.496   5.491   2.410 -0.3550 -0.1478  0.2801
  672MOL0     O88580   3.395   5.401   2.407  0.3305 -0.3945 -0.6122
  672MOL0     C88581   3.292   5.419   2.503  0.1751  0.5250 -0.0398
  672MOL0     C88582   3.168   5.343   2.463 -0.5005  0.2528 -0.2288
  672MOL0     C88583   3.070   5.328   2.586 -0.6837  0.1112 -0.6342
  672MOL0     C88584   2.932   5.286   2.548 -0.1430 -0.4316 -0.8939
  672MOL0     C88585   2.929   5.141   2.500  0.0052  1.2849 -0.1237
  672MOL0     C88586   2.777   5.105   2.498  0.5252 -0.0752  0.1864
  672MOL0     C88587   2.763   4.954   2.472  0.4407 -0.7338 -0.2170
  672MOL0     C88588   2.622   4.917   2.464  0.2486  0.1334  0.1597
  672MOL0     N88589   2.570   4.963   2.333 -0.2623 -0.6515  0.0941
  672MOL0     C88590   2.590   4.904   2.211  0.4258  0.2747  0.2483
  672MOL0     C88591   2.521   4.987   2.126 -0.1336  0.9153  0.2398
  672MOL0     C88592   2.505   4.969   1.977 -0.7509  0.0081  0.1542
  672MOL0     C88593   2.401   4.866   1.946 -0.0958 -0.3275 -0.3251
  672MOL0     C88594   2.460   4.731   1.976 -0.2778 -0.0590 -0.3327
  672MOL0     C88595   2.424   4.619   1.882 -0.3130  0.3164  0.2809
  672MOL0     O88596   2.288   4.590   1.874  0.7831 -0.6398  0.3862
  672MOL0     C88597   2.213   4.520   1.970  0.0305  0.6419 -0.3187
  672MOL0     C88598   2.073   4.501   1.951  0.0138 -0.5281  0.0588
  672MOL0     C88599   1.997   4.437   2.053 -0.0540  0.5916 -0.0071
  672MOL0     C88600   2.050   4.380   2.171 -0.0894 -0.6077  0.5698
  672MOL0     C88601   1.953   4.320   2.273 -0.4305 -0.6076  0.4288
  672MOL0     O88602   1.820   4.352   2.260 -0.0153  0.7999 -0.2955
  672MOL0     C88603   1.714   4.293   2.327 -0.1204  0.0331 -0.5930
  672MOL0     C88604   1.710   4.221   2.446  0.7887  0.2592 -0.7865
  672MOL0     C88605   1.589   4.162   2.496 -0.1235  0.2544  0.3108
  672MOL0     C88606   1.470   4.171   2.419 -0.4921  0.2713  0.0835
  672MOL0     O88607   1.361   4.094   2.454 -0.2119  0.0763  0.1290
  672MOL0     C88608   1.242   4.098   2.372 -0.0321  0.3468 -0.4118
  672MOL0     C88609   1.125   4.010   2.423 -0.7061  0.0035 -0.2507
  672MOL0     C88610   0.990   4.025   2.346 -0.2138 -0.9716 -0.9810
  672MOL0     C88611   0.899   3.902   2.390 -0.2144 -0.2875 -0.1782
  672MOL0     C88612   0.760   3.927   2.336 -0.6693  0.1357  0.4412
  672MOL0     C88613   0.672   3.801   2.340 -0.1506  0.2631 -0.0689
  672MOL0     C88614   0.533   3.831   2.275 -0.5275 -0.7654 -0.1593
  672MOL0     C88615   0.434   3.718   2.279 -0.3337  0.0253 -0.0598
  672MOL0    Cl88616   0.378   3.675   2.442 -0.0918 -0.5608 -0.5452
  672MOL0     C88617   1.472   4.254   2.309 -0.2074  0.7171  0.2829
  672MOL0     C88618   1.596   4.309   2.263 -0.0338  0.8486  0.2084
  672MOL0     O88619   2.000   4.246   2.358 -0.0495 -0.5578  0.2802
  672MOL0     C88620   2.193   4.386   2.174  0.6109 -0.1464 -0.2959
  672MOL0     C88621   2.269   4.457   2.080  0.2352  0.9552 -0.0643
  672MOL0     N88622   2.475   5.095   2.195  0.0029  0.3532  0.9864
  672MOL0     N88623   2.509   5.083   2.319 -0.0375 -0.2948 -0.0794
  672MOL0     C88624   3.582   5.496   2.288 -0.0196 -1.2641  0.8242
  672MOL0     C88625   3.694   5.577   2.284 -0.3542 -0.1518 -0.1267
  672MOL0     C88626   4.019   5.894   2.471 -0.8110  0.3486 -0.3721
  672MOL0     C88627   4.123   5.842   2.391  0.8749 -0.3393 -0.3520
  672MOL0     C88628   4.242   5.912   2.381  0.2570 -0.2984  0.3260
  672MOL0     C88629   4.261   6.024   2.465 -0.5358 -0.4315  0.1608
  672MOL0     O88630   4.376   6.092   2.434 -0.4673  0.0759 -0.6932
  672MOL0     C88631   4.398   6.224   2.473  1.3051 -0.2269 -0.3846
  672MOL0     C88632   4.504   6.289   2.384  0.4427 -0.0623  0.9595
  672MOL0     C88633   4.458   6.314   2.234 -0.0907  0.0313  0.6835
  672MOL0     C88634   4.567   6.377   2.144  0.2009 -0.3496  0.1588
  672MOL0     C88635   4.675   6.283   2.112  0.0135  0.0126 -0.0634
  672MOL0     C88636   4.768   6.213   2.069  0.5235  0.0273  0.6641
  672MOL0     C88637   4.170   6.069   2.554  0.3992 -0.0729  0.4041
  672MOL0     C88638   4.049   6.007   2.556 -0.2441  1.0623  0.6204
  672MOL0     H88639   3.670   5.712   2.602 -0.9080  0.1281 -0.2529
  672MOL0     H88640   3.476   5.561   2.612 -1.3435  0.8130 -0.5522
  672MOL0     H88641   3.256   5.522   2.511 -0.9181  0.0776  1.1687
  672MOL0     H88642   3.323   5.384   2.602  1.7374 -0.4382 -0.8300
  672MOL0     H88643   3.198   5.247   2.419 -2.7548 -0.1439 -1.0662
  672MOL0     H88644   3.126   5.390   2.373 -0.9337 -0.6097 -0.4954
  672MOL0     H88645   3.070   5.428   2.630  0.6960  1.3908 -3.3004
  672MOL0     H88646   3.114   5.267   2.665  2.7537  1.7349 -1.0612
  672MOL0     H88647   2.872   5.293   2.640 -3.1809  3.4118 -2.8819
  672MOL0     H88648   2.891   5.359   2.478  0.0803  0.7268  0.1479
  672MOL0     H88649   2.980   5.068   2.562  0.1747 -0.4378 -2.1647
  672MOL0     H88650   2.962   5.139   2.395 -1.7145 -0.6947 -0.6929
  672MOL0     H88651   2.728   5.155   2.413  0.5967 -0.6462 -0.2013
  672MOL0     H88652   2.723   5.134   2.588 -0.2100 -1.7847  0.3469
  672MOL0     H88653   2.807   4.917   2.379 -0.6204  0.1666 -1.1030
  672MOL0     H88654   2.812   4.905   2.556 -1.9646 -2.5684  0.2067
  672MOL0     H88655   2.561   4.957   2.546  0.7637  2.0466 -0.3317
  672MOL0     H88656   2.621   4.808   2.467 -1.0050  0.0017 -2.3683
  672MOL0     H88657   2.638   4.811   2.180  2.5322  0.8730  1.4978
  672MOL0     H88658   2.599   4.945   1.927 -2.0633  1.7845 -3.5558
  672MOL0     H88659   2.479   5.056   1.916 -0.2551 -1.2970 -2.0120
  672MOL0     H88660   2.363   4.868   1.844 -0.0122  0.5361 -0.3440
  672MOL0     H88661   2.312   4.879   2.008 -0.4913 -1.2973 -0.6658
  672MOL0     H88662   2.568   4.736   1.992  0.1491 -0.2716 -2.6993
  672MOL0     H88663   2.434   4.709   2.080  1.6753 -1.1898 -0.0273
  672MOL0     H88664   2.479   4.533   1.923 -0.4679 -1.5279 -3.0142
  672MOL0     H88665   2.472   4.625   1.784  0.8922  2.0797  0.9221
  672MOL0     H88666   2.023   4.553   1.871 -0.9281  1.0757  1.6188
  672MOL0     H88667   1.893   4.426   2.026 -0.0983 -0.3951  0.5583
  672MOL0     H88668   1.792   4.224   2.517 -0.7119 -0.2081  1.0426
  672MOL0     H88669   1.590   4.101   2.586  2.2750 -1.0531 -0.5062
  672MOL0     H88670   1.265   4.068   2.269 -3.0087  2.3860 -1.8075
  672MOL0     H88671   1.203   4.200   2.373  0.8161  0.7012  1.8559
  672MOL0     H88672   1.118   4.030   2.530  1.0123  0.7447 -0.2400
  672MOL0     H88673   1.159   3.907   2.416  2.1024  0.6399  2.0619
  672MOL0     H88674   1.012   4.021   2.239  3.2727  0.2139 -0.4503
  672MOL0     H88675   0.945   4.120   2.376 -2.9756 -2.5185  0.0405
  672MOL0     H88676   0.947   3.817   2.340  1.2731  1.0453 -1.1247
  672MOL0     H88677   0.899   3.884   2.498  0.6714  3.7252  0.6649
  672MOL0     H88678   0.764   3.959   2.231 -3.0047 -0.2590  0.1686
  672MOL0     H88679   0.702   4.004   2.387 -1.6124 -1.1419  1.3997
  672MOL0     H88680   0.648   3.777   2.444 -1.0670 -0.0939 -0.3478
  672MOL0     H88681   0.714   3.716   2.285 -1.2677 -0.4916  0.2222
  672MOL0     H88682   0.484   3.911   2.332  1.0364 -1.1274  1.7889
  672MOL0     H88683   0.555   3.874   2.176  4.2449  2.1220  1.7941
  672MOL0     H88684   0.490   3.635   2.234 -1.6478 -0.8788 -0.0702
  672MOL0     H88685   0.341   3.734   2.224  0.1472  0.1783 -0.8523
  672MOL0     H88686   1.378   4.275   2.259 -1.5671 -1.4975  1.6989
  672MOL0     H88687   1.611   4.368   2.173 -0.5312 -1.8473 -1.7845
  672MOL0     H88688   2.241   4.341   2.260 -3.3449 -0.8630  1.7727
  672MOL0     H88689   2.373   4.456   2.110  0.6244  0.7855 -1.3463
  672MOL0     H88690   3.534   5.431   2.215 -1.6271  0.4134  0.2878
  672MOL0     H88691   3.761   5.579   2.200 -1.5205 -2.2962 -1.1885
  672MOL0     H88692   4.096   5.756   2.331 -0.7532 -0.1882  0.1105
  672MOL0     H88693   4.318   5.879   2.311 -0.2939  2.4267 -1.6661
  672MOL0     H88694   4.417   6.232   2.580  0.4226  0.6315 -0.2778
  672MOL0     H88695   4.305   6.278   2.452 -1.8608 -4.1496  2.0235
  672MOL0     H88696   4.534   6.381   2.435  1.0355 -1.2613  2.8830
  672MOL0     H88697   4.595   6.228   2.383  2.0313  2.1702  1.1300
  672MOL0     H88698   4.380   6.390   2.230 -2.0025 -1.8155  0.9949
  672MOL0     H88699   4.415   6.220   2.196  0.7926 -0.1751  0.1722
  672MOL0     H88700   4.522   6.407   2.049  0.5795 -3.3021 -1.0523
  672MOL0     H88701   4.604   6.471   2.184 -0.2061  0.2257 -0.7845
  672MOL0     H88702   4.845   6.148   2.031  0.8264  1.4591 -1.3001
  672MOL0     H88703   4.177   6.156   2.618 -1.6128 -0.3434  1.0650
  672MOL0     H88704   3.977   6.044   2.628  0.5379  0.0434  1.9846
  673MOL0     O88705   9.176   1.490   3.453 -0.5326 -0.5101  0.0348
  673MOL0     C88706   9.255   1.454   3.545  0.0039  0.4874  1.2585
  673MOL0     O88707   9.230   1.349   3.639 -0.3043  0.3271  0.2837
  673MOL0     C88708   9.108   1.275   3.639  0.7450 -0.0938 -0.7851
  673MOL0     C88709   9.074   1.194   3.757 -0.0208  0.0873  0.1899
  673MOL0     C88710   8.949   1.126   3.763 -0.5116  0.0350  0.1996
  673MOL0     C88711   8.866   1.116   3.658  0.4451  0.0016  0.2060
  673MOL0     O88712   8.744   1.055   3.680  0.0611  0.5464  0.1351
  673MOL0     C88713   8.648   1.058   3.575  0.0815  0.5175 -0.6605
  673MOL0     C88714   8.520   1.004   3.640 -0.5000 -0.1417 -0.0382
  673MOL0     C88715   8.396   1.012   3.549 -0.2228  0.0043  0.0504
  673MOL0     C88716   8.282   0.932   3.626 -0.8086 -0.7944 -0.0412
  673MOL0     C88717   8.152   0.928   3.539  0.3354  0.8988  0.6524
  673MOL0     C88718   8.038   0.847   3.612  0.0052  0.7273 -0.1896
  673MOL0     C88719   7.986   0.884   3.755 -0.0526 -0.1620  0.2131
  673MOL0     C88720   7.968   1.030   3.788  0.7017 -0.3661 -0.4615
  673MOL0     N88721   7.858   1.087   3.710 -0.0052  0.2023 -0.2205
  673MOL0     C88722   7.733   1.111   3.757  0.2280 -0.1065 -0.2207
  673MOL0     C88723   7.669   1.164   3.651  0.0831  0.4636 -0.6317
  673MOL0     C88724   7.518   1.180   3.651  0.3170 -0.4600 -0.5405
  673MOL0     C88725   7.477   1.316   3.705 -0.8640 -0.0486  0.4751
  673MOL0     C88726   7.332   1.357   3.667  0.0761 -0.3886 -0.3863
  673MOL0     C88727   7.303   1.346   3.524  0.0836 -0.5083  0.0615
  673MOL0     O88728   7.203   1.430   3.471  0.6005 -0.3302  0.2691
  673MOL0     C88729   7.089   1.451   3.538  0.7271  0.8605 -0.0407
  673MOL0     C88730   7.014   1.351   3.607  0.9436 -0.3898 -0.1532
  673MOL0     C88731   6.909   1.385   3.692 -0.3777 -0.1098 -0.1362
  673MOL0     C88732   6.862   1.511   3.692 -0.1633  0.1092  0.2359
  673MOL0     C88733   6.750   1.547   3.781 -0.8928  0.4316  1.1909
  673MOL0     O88734   6.687   1.451   3.846 -0.0962 -0.3891 -0.3343
  673MOL0     C88735   6.577   1.474   3.930  0.6278 -0.2880  0.1777
  673MOL0     C88736   6.449   1.449   3.881 -0.8739  0.3356  0.1773
  673MOL0     C88737   6.337   1.460   3.962 -0.0095 -0.6844 -0.6381
  673MOL0     C88738   6.351   1.495   4.098 -0.0541  0.0302  0.2082
  673MOL0     O88739   6.247   1.505   4.195  0.1351 -0.2249  0.3767
  673MOL0     C88740   6.123   1.436   4.163  0.1653  0.0298  0.6666
  673MOL0     C88741   6.041   1.406   4.285 -0.6113  0.7047  0.0454
  673MOL0     C88742   5.972   1.532   4.333 -0.6252 -0.9125  0.0443
  673MOL0     C88743   5.882   1.510   4.457 -0.2329  0.2603  0.2704
  673MOL0     C88744   5.838   1.649   4.507 -0.0734  0.0702 -0.7461
  673MOL0     C88745   5.724   1.636   4.603 -0.0122  0.0219 -0.0224
  673MOL0     C88746   5.764   1.578   4.741  0.4211  0.6375  0.8765
  673MOL0     C88747   5.654   1.593   4.846 -0.2967  0.4254 -0.0380
  673MOL0    Cl88748   5.615   1.758   4.870 -0.1390 -0.2929  0.2244
  673MOL0     C88749   6.479   1.514   4.144 -1.3295 -0.8042  0.5664
  673MOL0     C88750   6.597   1.500   4.070 -0.0876  0.3559  1.1090
  673MOL0     O88751   6.723   1.667   3.796 -0.5680  0.0662  0.0722
  673MOL0     C88752   6.923   1.610   3.612  0.1755  0.2652 -0.3094
  673MOL0     C88753   7.037   1.576   3.535  0.1425  0.0982 -0.2877
  673MOL0     N88754   7.749   1.186   3.555 -0.0379 -0.0158  0.0095
  673MOL0     N88755   7.863   1.145   3.591 -0.9116  0.1679 -0.6794
  673MOL0     C88756   8.894   1.191   3.544  1.2071 -0.3837 -0.3775
  673MOL0     C88757   9.010   1.261   3.539 -0.1380 -0.6565  0.1982
  673MOL0     C88758   9.388   1.517   3.539  1.1117  0.0629  0.1918
  673MOL0     C88759   9.489   1.448   3.600  0.7461 -0.1003  0.1748
  673MOL0     C88760   9.611   1.515   3.622  0.2008 -0.0411  0.1121
  673MOL0     C88761   9.627   1.648   3.573  0.1603  0.3976 -0.4073
  673MOL0     O88762   9.745   1.715   3.584 -0.7084 -0.7239  0.1854
  673MOL0     C88763   9.864   1.632   3.597  0.4693 -0.1339 -0.4326
  673MOL0     C88764   9.993   1.698   3.559 -0.4639 -1.1195  0.0549
  673MOL0     C88765  10.016   1.836   3.640  0.2804  0.7510 -0.0748
  673MOL0     C88766  10.124   1.923   3.588 -1.1348  0.1184 -0.8014
  673MOL0     C88767  10.257   1.859   3.601 -0.0532  0.9372 -0.1393
  673MOL0     C88768  10.366   1.817   3.609  0.3149 -0.0757  0.2865
  673MOL0     C88769   9.520   1.709   3.508  0.2661  0.2919  0.5959
  673MOL0     C88770   9.403   1.643   3.488 -0.4988  0.6728  0.3315
  673MOL0     H88771   9.133   1.178   3.846 -3.6064 -1.7890  2.4701
  673MOL0     H88772   8.923   1.076   3.855 -0.2216  0.7468  0.6816
  673MOL0     H88773   8.673   0.994   3.490  0.6571  0.7595 -0.6779
  673MOL0     H88774   8.630   1.163   3.549 -0.0398  1.0753  1.4570
  673MOL0     H88775   8.525   1.066   3.731  3.9050  2.2091 -1.5523
  673MOL0     H88776   8.537   0.898   3.660  1.6941  0.3791  1.2741
  673MOL0     H88777   8.421   0.955   3.459  2.4696  2.1784 -0.7263
  673MOL0     H88778   8.378   1.119   3.540  5.7382  1.5643  1.7802
  673MOL0     H88779   8.321   0.830   3.641  2.3849  0.4256  0.8191
  673MOL0     H88780   8.259   0.975   3.724  1.8259  0.8171 -0.0298
  673MOL0     H88781   8.181   0.880   3.445 -1.2972  0.8554  0.1503
  673MOL0     H88782   8.119   1.024   3.500  3.7337  0.9750 -2.5453
  673MOL0     H88783   8.060   0.740   3.622 -1.8635  0.2485 -0.7670
  673MOL0     H88784   7.951   0.846   3.546  1.4250 -0.9333 -2.1562
  673MOL0     H88785   7.892   0.830   3.773 -0.3008 -0.0691 -0.7801
  673MOL0     H88786   8.066   0.853   3.823  0.0663  1.4259  0.8336
  673MOL0     H88787   8.066   1.077   3.774  1.0213 -0.3721  1.4515
  673MOL0     H88788   7.944   1.054   3.892 -0.4867 -2.4279 -0.2121
  673MOL0     H88789   7.690   1.072   3.849  1.7360 -0.9023  0.1741
  673MOL0     H88790   7.466   1.103   3.710  3.1425 -4.8053 -3.1580
  673MOL0     H88791   7.486   1.158   3.549 -0.5299 -1.8578 -0.0056
  673MOL0     H88792   7.549   1.390   3.671  0.1678 -0.8598  0.8654
  673MOL0     H88793   7.493   1.316   3.813  1.4730  1.1294  0.1866
  673MOL0     H88794   7.265   1.307   3.738  0.4225  0.6901  0.7397
  673MOL0     H88795   7.331   1.465   3.687  0.0283  0.1333 -2.9577
  673MOL0     H88796   7.286   1.242   3.494 -3.3681 -0.4048  1.2438
  673MOL0     H88797   7.398   1.365   3.471 -0.8121 -1.1969 -1.9101
  673MOL0     H88798   7.034   1.245   3.602  1.0841 -0.3303 -1.0477
  673MOL0     H88799   6.860   1.308   3.750  0.2467  0.0689  0.6557
  673MOL0     H88800   6.448   1.415   3.777 -2.7027 -0.2469  0.3479
  673MOL0     H88801   6.241   1.429   3.923 -0.2938  0.7051 -1.0967
  673MOL0     H88802   6.148   1.347   4.106  3.0359  1.5580 -0.6908
  673MOL0     H88803   6.074   1.497   4.086  3.2969  3.0509  0.8157
  673MOL0     H88804   6.100   1.368   4.369  0.0632  0.2430 -0.6213
  673MOL0     H88805   5.962   1.333   4.265  0.2492 -0.3011  0.2548
  673MOL0     H88806   5.900   1.565   4.257  1.1815 -0.8308 -1.7269
  673MOL0     H88807   6.043   1.612   4.355 -0.5119 -0.4657 -1.7477
  673MOL0     H88808   5.796   1.453   4.419 -0.7316  1.0333  0.2060
  673MOL0     H88809   5.928   1.451   4.536 -4.1124 -0.8043  2.0038
  673MOL0     H88810   5.815   1.719   4.426  0.1186  1.2711  0.2092
  673MOL0     H88811   5.925   1.689   4.559 -2.0744  0.0335  2.9264
  673MOL0     H88812   5.638   1.586   4.558  0.0817  0.2941 -0.5012
  673MOL0     H88813   5.684   1.736   4.620  1.9965  0.7048  0.9409
  673MOL0     H88814   5.785   1.471   4.729 -3.5315  0.0390 -3.3494
  673MOL0     H88815   5.845   1.640   4.780  0.3580  0.5574  1.1404
  673MOL0     H88816   5.683   1.545   4.940 -0.6283  0.1802 -0.0576
  673MOL0     H88817   5.564   1.542   4.809  0.6436 -1.9507  0.7795
  673MOL0     H88818   6.486   1.553   4.244 -0.9415  1.6522 -0.3475
  673MOL0     H88819   6.697   1.510   4.112 -0.0874  2.0989  0.7918
  673MOL0     H88820   6.878   1.708   3.614 -0.1649  0.0961  0.5227
  673MOL0     H88821   7.078   1.656   3.474  2.0074 -1.3119 -0.9477
  673MOL0     H88822   8.828   1.190   3.457  1.1102 -3.8490 -0.3873
  673MOL0     H88823   9.018   1.315   3.445 -3.1966  2.6558  1.6521
  673MOL0     H88824   9.478   1.344   3.628 -0.3846 -0.0717 -0.1159
  673MOL0     H88825   9.687   1.467   3.684  0.8881 -0.1058 -0.7543
  673MOL0     H88826   9.863   1.540   3.538  0.9320  0.4350 -1.3549
  673MOL0     H88827   9.860   1.611   3.704  0.8534 -2.0873 -0.7613
  673MOL0     H88828  10.078   1.637   3.590  0.3776  1.6359  3.8727
  673MOL0     H88829   9.990   1.721   3.452 -1.4732  2.0729  0.6560
  673MOL0     H88830  10.029   1.811   3.745  2.1821 -0.2160 -0.4906
  673MOL0     H88831   9.922   1.890   3.632 -2.3954 -3.4676 -0.4213
  673MOL0     H88832  10.108   1.952   3.484 -3.2617  0.6939 -0.3615
  673MOL0     H88833  10.123   2.015   3.648  0.1569 -1.9498  2.7136
  673MOL0     H88834  10.469   1.788   3.617  0.4265  0.1042 -0.4659
  673MOL0     H88835   9.527   1.813   3.475 -2.2352  1.2362  2.6814
  673MOL0     H88836   9.321   1.692   3.437 -2.3931 -2.1914  0.4371
  674MOL0     O88837  10.719   6.650  10.562 -0.1507 -0.2065  0.5121
  674MOL0     C88838  10.720   6.533  10.590  0.7157 -0.5461 -0.1619
  674MOL0     O88839  10.609   6.456  10.606  0.4175  0.0386  0.1745
  674MOL0     C88840  10.490   6.524  10.601  0.7495  0.3355  1.0637
  674MOL0     C88841  10.396   6.498  10.497 -0.1257  0.2960 -0.6131
  674MOL0     C88842  10.279   6.579  10.488 -0.2023  0.2683  0.0460
  674MOL0     C88843  10.254   6.680  10.585 -0.0285  0.5515  0.1211
  674MOL0     O88844  10.140   6.751  10.578 -0.9118  0.4112 -0.1767
  674MOL0     C88845  10.077   6.810  10.692 -0.2416 -0.1117  0.1654
  674MOL0     C88846   9.931   6.855  10.656  0.4947 -0.2768  0.0339
  674MOL0     C88847   9.834   6.734  10.658 -0.9476  0.2009  0.2882
  674MOL0     C88848   9.684   6.763  10.609 -0.1950 -0.4321  0.2926
  674MOL0     C88849   9.568   6.698  10.685  0.6356  0.0346 -0.6781
  674MOL0     C88850   9.441   6.676  10.589  0.2819 -0.6261  0.4698
  674MOL0     C88851   9.376   6.812  10.527 -0.5972  0.0626 -0.6231
  674MOL0     C88852   9.228   6.819  10.530  0.7330 -0.0019  0.3753
  674MOL0     N88853   9.168   6.948  10.485  0.5687 -0.9586 -0.6081
  674MOL0     C88854   9.113   7.038  10.562 -0.1853 -0.8832 -0.5844
  674MOL0     C88855   9.066   7.140  10.474  0.1246 -0.7325 -0.6754
  674MOL0     C88856   8.986   7.260  10.501  0.1051 -1.0188 -0.0130
  674MOL0     C88857   8.937   7.325  10.366 -0.0331  0.1373 -0.4801
  674MOL0     C88858   8.868   7.465  10.381  0.1098 -0.7801  0.2351
  674MOL0     C88859   8.762   7.482  10.483  0.7575 -0.2290  0.1811
  674MOL0     O88860   8.701   7.608  10.478  0.4179  0.2082  0.1347
  674MOL0     C88861   8.620   7.640  10.373 -0.4642  0.1008  0.4388
  674MOL0     C88862   8.626   7.759  10.296  0.6272 -0.1163 -0.1033
  674MOL0     C88863   8.533   7.786  10.195  0.7239 -1.3226  0.0164
  674MOL0     C88864   8.416   7.703  10.170 -0.4529  0.1976 -0.6071
  674MOL0     C88865   8.317   7.747  10.082  0.3286  0.7492 -0.3184
  674MOL0     O88866   8.216   7.664  10.047  0.1600  0.4923 -0.2248
  674MOL0     C88867   8.128   7.709   9.956 -0.4292 -0.2143 -0.2499
  674MOL0     C88868   8.032   7.808   9.986  0.0902  1.2722  0.6647
  674MOL0     C88869   7.944   7.851   9.884  0.8105 -0.0849 -0.7050
  674MOL0     C88870   7.949   7.794   9.757 -0.1979 -0.1296 -0.0888
  674MOL0     O88871   7.857   7.830   9.662  0.4131  0.1324 -0.3471
  674MOL0     C88872   7.880   7.796   9.530  0.2574  0.2235  0.0505
  674MOL0     C88873   7.797   7.878   9.437  0.1628  0.6635 -0.8477
  674MOL0     C88874   7.651   7.853   9.440  0.5617  0.3229 -0.2082
  674MOL0     C88875   7.569   7.933   9.537 -0.5633 -0.2337  0.9687
  674MOL0     C88876   7.420   7.889   9.553 -0.4487 -0.7883 -0.1195
  674MOL0     C88877   7.332   7.914   9.437 -0.1187  0.2509 -1.0353
  674MOL0     C88878   7.187   7.929   9.467  0.3096 -0.2314  0.6661
  674MOL0     C88879   7.111   7.960   9.336 -0.0759 -0.0906 -0.4011
  674MOL0    Cl88880   6.986   7.842   9.290  0.2555  0.1836 -0.0922
  674MOL0     C88881   8.046   7.693   9.734  0.6745  0.3755 -0.3579
  674MOL0     C88882   8.137   7.658   9.828 -0.2418 -0.1693 -0.7133
  674MOL0     O88883   8.323   7.868  10.053  0.6238 -0.0115  0.3116
  674MOL0     C88884   8.419   7.582  10.240  0.2289  0.1703  0.7889
  674MOL0     C88885   8.511   7.550  10.338 -0.5049 -0.8953 -0.2347
  674MOL0     N88886   9.123   7.109  10.350  0.5260 -0.4057 -0.1419
  674MOL0     N88887   9.172   6.990  10.359  0.4378 -0.5041  0.1869
  674MOL0     C88888  10.350   6.701  10.682  0.2976 -0.0417  0.0453
  674MOL0     C88889  10.455   6.613  10.697  0.4732 -0.3756  0.0322
  674MOL0     C88890  10.854   6.466  10.590 -0.4592 -0.1152  0.3650
  674MOL0     C88891  10.973   6.535  10.560 -0.1989  0.2377 -0.1044
  674MOL0     C88892  11.096   6.461  10.561 -0.8115  0.2380 -0.5425
  674MOL0     C88893  11.101   6.337  10.626 -0.5133  0.6066 -0.3593
  674MOL0     O88894  11.210   6.258  10.659  0.1125 -0.6279 -0.3379
  674MOL0     C88895  11.344   6.293  10.623  0.5305  0.4003 -0.3730
  674MOL0     C88896  11.431   6.212  10.721 -0.0776  0.2997 -0.0075
  674MOL0     C88897  11.569   6.202  10.653 -0.2326  0.6755  0.6649
  674MOL0     C88898  11.657   6.096  10.723  0.0772 -0.9992 -0.2649
  674MOL0     C88899  11.729   6.149  10.838  1.2220 -0.7190 -0.5860
  674MOL0     C88900  11.787   6.192  10.935 -0.1010 -0.8400 -0.1926
  674MOL0     C88901  10.988   6.278  10.679  0.3307  0.0418 -0.2104
  674MOL0     C88902  10.864   6.339  10.648  0.1346  0.4473 -0.9166
  674MOL0     H88903  10.420   6.425  10.421  3.3536 -1.2043  1.6589
  674MOL0     H88904  10.211   6.569  10.404 -1.0322  0.6864  0.6573
  674MOL0     H88905  10.137   6.896  10.723 -2.6151  0.4406  3.8965
  674MOL0     H88906  10.078   6.736  10.773  4.1984  0.2431  0.6734
  674MOL0     H88907   9.929   6.901  10.556  0.3453 -0.4410 -0.0394
  674MOL0     H88908   9.894   6.929  10.727  1.4247  2.8216 -2.4992
  674MOL0     H88909   9.837   6.681  10.754 -0.1971  0.8999  0.6686
  674MOL0     H88910   9.869   6.660  10.586  0.7353  0.8417  0.3967
  674MOL0     H88911   9.669   6.871  10.605  0.0394 -0.3848  0.6456
  674MOL0     H88912   9.692   6.718  10.510  1.8251 -0.0406  0.2357
  674MOL0     H88913   9.542   6.760  10.772  0.5431 -0.9394  0.0041
  674MOL0     H88914   9.598   6.599  10.720 -0.3351 -0.4125 -1.0869
  674MOL0     H88915   9.368   6.630  10.656  1.1644 -0.3055  1.6952
  674MOL0     H88916   9.465   6.603  10.512  2.5953  0.9042 -0.3730
  674MOL0     H88917   9.409   6.906  10.572 -0.3461  1.1256 -2.8720
  674MOL0     H88918   9.404   6.808  10.421 -0.4056  0.6027 -0.5972
  674MOL0     H88919   9.192   6.799  10.631 -0.6847  2.8658  0.5670
  674MOL0     H88920   9.179   6.745  10.467 -2.6883  1.9450  0.4880
  674MOL0     H88921   9.084   7.029  10.666 -0.7953  3.8296 -0.1165
  674MOL0     H88922   9.043   7.343  10.544 -1.4138  0.1961 -0.2483
  674MOL0     H88923   8.909   7.246  10.578  0.3852 -2.5751  0.0057
  674MOL0     H88924   8.868   7.261  10.310 -0.9026 -0.8634  1.5875
  674MOL0     H88925   9.028   7.348  10.310  0.9055  1.6671  1.5573
  674MOL0     H88926   8.950   7.534  10.405  2.4600 -3.0511 -0.7627
  674MOL0     H88927   8.815   7.482  10.287  0.3622  2.0013  0.4991
  674MOL0     H88928   8.807   7.474  10.582 -0.1647  0.7362  0.7051
  674MOL0     H88929   8.693   7.396  10.484  2.5162 -1.8183 -2.3548
  674MOL0     H88930   8.708   7.828  10.316  0.4681 -0.0620  0.3797
  674MOL0     H88931   8.543   7.883  10.148  2.9799 -2.0099 -1.0705
  674MOL0     H88932   8.032   7.845  10.088  0.4955  2.5861  0.2039
  674MOL0     H88933   7.871   7.927   9.906 -0.6943 -1.5513 -0.4504
  674MOL0     H88934   7.863   7.689   9.515  0.7702  0.1384  0.0479
  674MOL0     H88935   7.984   7.820   9.507 -0.3811  0.8900 -2.4392
  674MOL0     H88936   7.836   7.849   9.339  0.2698 -0.6376 -0.4504
  674MOL0     H88937   7.830   7.980   9.456  3.7875 -0.8045  1.9171
  674MOL0     H88938   7.631   7.748   9.465  2.4164 -0.0211  0.0343
  674MOL0     H88939   7.615   7.885   9.343  3.5334  1.5799 -1.0197
  674MOL0     H88940   7.606   7.938   9.639 -2.9200  4.9296  1.8875
  674MOL0     H88941   7.576   8.035   9.497  0.0786 -0.1332  1.3278
  674MOL0     H88942   7.373   7.947   9.633  0.8742 -1.0376  0.8793
  674MOL0     H88943   7.421   7.783   9.581  0.8223 -0.9384 -0.6830
  674MOL0     H88944   7.338   7.824   9.375 -1.2437  0.4434 -1.4357
  674MOL0     H88945   7.370   8.009   9.397  2.9864  0.0817  1.1053
  674MOL0     H88946   7.149   7.832   9.500 -0.9232  0.0396  0.1084
  674MOL0     H88947   7.167   8.009   9.539 -0.7804  1.3621 -1.2810
  674MOL0     H88948   7.180   7.968   9.251  0.3765  0.6726  0.0269
  674MOL0     H88949   7.083   8.065   9.344  3.2254  0.8941 -0.1287
  674MOL0     H88950   8.047   7.636   9.642  0.3719  1.4757 -1.0637
  674MOL0     H88951   8.202   7.573   9.809 -0.0554  0.0017 -0.8463
  674MOL0     H88952   8.340   7.509  10.222 -1.8767  2.1381  1.6324
  674MOL0     H88953   8.498   7.455  10.388 -3.4042 -0.1643  0.5989
  674MOL0     H88954  10.336   6.780  10.755 -0.6201  2.2217 -2.4366
  674MOL0     H88955  10.525   6.635  10.777 -1.9147 -0.8640  2.3730
  674MOL0     H88956  10.979   6.631  10.510  0.7034 -0.8100 -2.1395
  674MOL0     H88957  11.184   6.508  10.519  0.5787 -2.7658 -1.2377
  674MOL0     H88958  11.361   6.400  10.636 -0.9161  0.6757 -0.5403
  674MOL0     H88959  11.350   6.272  10.516 -0.5406 -0.3693 -0.3013
  674MOL0     H88960  11.439   6.248  10.824  3.0677  1.0528 -0.4227
  674MOL0     H88961  11.390   6.111  10.728  2.2910 -0.7132  0.3546
  674MOL0     H88962  11.616   6.300  10.647  1.8409 -0.2716  0.7278
  674MOL0     H88963  11.546   6.173  10.550  1.1338  3.4470 -0.5264
  674MOL0     H88964  11.594   6.016  10.764  0.5237 -2.7876 -2.8186
  674MOL0     H88965  11.734   6.071  10.650  0.4122  2.2270 -1.1425
  674MOL0     H88966  11.839   6.231  11.019  0.6516 -0.2868 -0.8995
  674MOL0     H88967  10.985   6.183  10.733 -0.7542 -0.0100 -0.3432
  674MOL0     H88968  10.774   6.290  10.684 -0.4384  0.0139 -2.8578
  675MOL0     O88969   8.136   2.448   3.999 -0.0874  0.3158  0.1850
  675MOL0     C88970   8.182   2.533   3.922 -0.3282 -0.2600 -0.0344
  675MOL0     O88971   8.117   2.619   3.840 -0.3996  0.2308 -0.1200
  675MOL0     C88972   7.987   2.630   3.819 -0.3062  0.5024 -0.7253
  675MOL0     C88973   7.887   2.569   3.893 -0.6460  0.2293 -0.0643
  675MOL0     C88974   7.755   2.589   3.859 -0.1741  0.5886  0.6391
  675MOL0     C88975   7.721   2.656   3.746  0.6953 -0.3990  0.1201
  675MOL0     O88976   7.587   2.693   3.713 -0.0337  0.5207  0.4065
  675MOL0     C88977   7.478   2.671   3.800  0.9253  0.4092 -0.9786
  675MOL0     C88978   7.344   2.672   3.729 -0.6992  0.0516  1.5204
  675MOL0     C88979   7.319   2.565   3.624 -0.4238  0.2479 -0.7348
  675MOL0     C88980   7.198   2.580   3.532 -0.6733  0.0154  0.9360
  675MOL0     C88981   7.197   2.458   3.438 -0.3666  0.0170 -0.3317
  675MOL0     C88982   7.067   2.443   3.355 -0.0670  0.1771 -0.2395
  675MOL0     C88983   7.010   2.575   3.308 -0.3809 -0.3651  0.0718
  675MOL0     C88984   6.855   2.563   3.259 -0.3833 -0.4046 -0.1843
  675MOL0     N88985   6.764   2.520   3.372  0.7218 -0.2873  0.0224
  675MOL0     C88986   6.719   2.603   3.470 -0.0337 -0.3661  0.0047
  675MOL0     C88987   6.617   2.537   3.534  0.4630  0.2291 -1.0540
  675MOL0     C88988   6.526   2.595   3.635 -0.9826 -0.4425 -0.3072
  675MOL0     C88989   6.597   2.639   3.763 -0.8268 -0.4998 -0.6571
  675MOL0     C88990   6.500   2.722   3.856 -0.4852  0.2173 -0.3904
  675MOL0     C88991   6.574   2.774   3.975 -0.3132  0.4536 -0.5798
  675MOL0     O88992   6.513   2.882   4.052 -0.2724 -0.1221  0.3219
  675MOL0     C88993   6.378   2.879   4.081  0.0040 -0.0910 -0.2106
  675MOL0     C88994   6.321   2.825   4.197 -0.9082  0.6073  0.3661
  675MOL0     C88995   6.189   2.844   4.231 -0.2621  0.5974  0.2703
  675MOL0     C88996   6.096   2.896   4.137 -0.1098  1.0389  0.5151
  675MOL0     C88997   5.953   2.900   4.158  0.0814  0.4744  0.4653
  675MOL0     O88998   5.864   2.935   4.063 -0.6063  0.0973 -0.8123
  675MOL0     C88999   5.732   2.967   4.094  0.3821  0.4980 -0.4851
  675MOL0     C89000   5.689   3.046   4.211  0.0916  0.1396  0.1778
  675MOL0     C89001   5.561   3.080   4.226 -0.9930  0.0048  0.3709
  675MOL0     C89002   5.467   3.030   4.136 -0.2073  0.6339 -0.0414
  675MOL0     O89003   5.338   3.068   4.168  0.4034  0.3317 -0.1638
  675MOL0     C89004   5.227   2.981   4.175 -0.2169 -0.0304  0.1428
  675MOL0     C89005   5.098   3.043   4.250  0.5691 -0.4057  0.5451
  675MOL0     C89006   4.984   2.936   4.267 -0.3874  0.1609 -0.0990
  675MOL0     C89007   4.855   3.005   4.317  0.8321  0.0238  0.1775
  675MOL0     C89008   4.728   2.908   4.320  0.2649 -1.0892  0.7845
  675MOL0     C89009   4.654   2.915   4.450 -0.7410 -0.9291 -0.2386
  675MOL0     C89010   4.514   2.846   4.441  0.2287  0.5492 -0.8526
  675MOL0     C89011   4.422   2.896   4.558 -1.3174  0.3795 -0.2805
  675MOL0    Cl89012   4.410   3.077   4.544 -0.2148  0.0043 -0.3835
  675MOL0     C89013   5.499   2.940   4.036 -0.0383 -0.1117  0.5530
  675MOL0     C89014   5.634   2.924   4.010  0.0994 -0.2638  0.1709
  675MOL0     O89015   5.923   2.868   4.268 -0.3568 -0.5742  0.5573
  675MOL0     C89016   6.150   2.951   4.024 -0.0835 -0.1637  0.0763
  675MOL0     C89017   6.287   2.934   3.995 -0.3187  0.6917  0.2862
  675MOL0     N89018   6.600   2.422   3.468 -0.3826  0.5700  0.1428
  675MOL0     N89019   6.689   2.415   3.375  0.8868  0.5152  0.3476
  675MOL0     C89020   7.814   2.703   3.664 -0.2975  0.3832  0.2789
  675MOL0     C89021   7.942   2.693   3.706  0.3023 -0.8027 -0.1465
  675MOL0     C89022   8.333   2.535   3.927  0.0102  0.3873 -0.4173
  675MOL0     C89023   8.409   2.594   3.821 -0.2179  0.4284 -0.5896
  675MOL0     C89024   8.552   2.601   3.833 -0.3165  0.4542  0.0427
  675MOL0     C89025   8.616   2.561   3.950  0.2243 -0.3290 -0.4016
  675MOL0     O89026   8.751   2.571   3.967 -0.2820  0.2416  0.4144
  675MOL0     C89027   8.819   2.644   3.863  0.0685  0.4612  1.0898
  675MOL0     C89028   8.971   2.627   3.876  0.4085 -0.4167  0.0710
  675MOL0     C89029   9.037   2.723   3.785  0.0178 -0.5059  0.5082
  675MOL0     C89030   9.193   2.718   3.793  0.5354  0.2554 -0.3035
  675MOL0     C89031   9.253   2.776   3.669 -0.0064 -0.2681  0.2596
  675MOL0     C89032   9.306   2.804   3.569 -0.0056 -0.7743 -0.7934
  675MOL0     C89033   8.529   2.501   4.046  0.0217  0.9504 -0.3522
  675MOL0     C89034   8.391   2.488   4.038 -0.4575 -0.6687  0.5273
  675MOL0     H89035   7.894   2.524   3.992 -1.4928  3.5114  1.6362
  675MOL0     H89036   7.687   2.556   3.936 -0.2238  1.2122  0.8682
  675MOL0     H89037   7.477   2.759   3.865 -1.7707  0.9989 -1.6959
  675MOL0     H89038   7.478   2.575   3.852 -2.2122 -0.2876 -2.0271
  675MOL0     H89039   7.338   2.768   3.677 -3.3095 -1.0134 -0.3442
  675MOL0     H89040   7.248   2.666   3.782 -2.9689 -1.8897 -2.3646
  675MOL0     H89041   7.310   2.472   3.681 -0.7411  0.7364  0.0402
  675MOL0     H89042   7.403   2.559   3.555 -0.0402 -0.2588 -0.2296
  675MOL0     H89043   7.104   2.583   3.588 -1.7864 -1.7540 -0.6927
  675MOL0     H89044   7.216   2.668   3.469 -0.0743 -0.2158  0.7732
  675MOL0     H89045   7.213   2.364   3.492 -0.5554  0.5494  0.6868
  675MOL0     H89046   7.284   2.464   3.372  0.4444  1.5941  0.8196
  675MOL0     H89047   6.998   2.395   3.425  0.1782 -2.3280 -1.6232
  675MOL0     H89048   7.078   2.370   3.275  0.1985 -0.5490  0.4417
  675MOL0     H89049   7.000   2.649   3.388 -2.5959 -0.1138 -0.3608
  675MOL0     H89050   7.077   2.617   3.233  1.0954 -0.2568  1.4096
  675MOL0     H89051   6.854   2.483   3.184  0.0218 -0.4036 -0.1931
  675MOL0     H89052   6.808   2.655   3.222 -1.3417  0.6425  3.3133
  675MOL0     H89053   6.744   2.707   3.491 -3.4074  0.2608  1.5229
  675MOL0     H89054   6.447   2.524   3.659  0.3804 -1.5363  1.2102
  675MOL0     H89055   6.485   2.685   3.589 -0.0883 -1.1364 -2.5820
  675MOL0     H89056   6.685   2.696   3.731  1.0012 -3.5292 -1.4446
  675MOL0     H89057   6.619   2.554   3.828 -4.1734  0.1105  1.4983
  675MOL0     H89058   6.452   2.807   3.806 -2.0507  0.1337  0.8722
  675MOL0     H89059   6.423   2.660   3.903 -1.1322  1.9219  0.9239
  675MOL0     H89060   6.671   2.805   3.937  0.9577 -1.0358  1.2631
  675MOL0     H89061   6.581   2.687   4.042  3.1719  0.4127 -0.8623
  675MOL0     H89062   6.390   2.803   4.278  0.3205 -1.6586 -1.1537
  675MOL0     H89063   6.147   2.803   4.323  0.0142 -0.6490 -0.1428
  675MOL0     H89064   5.756   3.055   4.296  0.0122  1.1044  0.1426
  675MOL0     H89065   5.528   3.134   4.315 -3.3638  1.2183 -1.1473
  675MOL0     H89066   5.257   2.884   4.215  0.3578 -0.5400 -1.4256
  675MOL0     H89067   5.193   2.969   4.072  1.9886  0.0826 -0.6626
  675MOL0     H89068   5.066   3.124   4.184  0.8809 -1.0467 -0.4340
  675MOL0     H89069   5.134   3.091   4.341  0.6484  1.6590 -0.5140
  675MOL0     H89070   5.001   2.864   4.348  0.8966  2.2339  1.5875
  675MOL0     H89071   4.959   2.886   4.173  0.6622 -0.3457 -0.1201
  675MOL0     H89072   4.875   3.053   4.413  2.1458  0.2811 -0.2112
  675MOL0     H89073   4.831   3.089   4.251 -1.3961 -0.0500  0.8042
  675MOL0     H89074   4.762   2.806   4.301  1.1795 -0.7221  0.4083
  675MOL0     H89075   4.663   2.936   4.237  0.0668  1.8053  1.8047
  675MOL0     H89076   4.631   3.018   4.479 -1.1744 -1.6268  2.1730
  675MOL0     H89077   4.718   2.879   4.531 -1.0036  0.2199  0.5047
  675MOL0     H89078   4.450   2.879   4.359  0.0959  1.9662 -0.2112
  675MOL0     H89079   4.530   2.738   4.444 -1.4282  0.3015 -0.1103
  675MOL0     H89080   4.467   2.873   4.655 -2.2631 -0.7288 -0.0790
  675MOL0     H89081   4.321   2.856   4.548 -1.0688  0.0419 -1.7577
  675MOL0     H89082   5.417   2.893   3.981 -0.3570 -2.4642  2.8231
  675MOL0     H89083   5.659   2.866   3.922  1.6594  1.5583 -0.6429
  675MOL0     H89084   6.086   2.991   3.945  0.1474 -0.2358 -0.1460
  675MOL0     H89085   6.333   2.961   3.901 -1.1221 -0.2747 -0.4060
  675MOL0     H89086   7.780   2.773   3.588  0.5763 -3.2124 -3.8206
  675MOL0     H89087   8.015   2.738   3.639  1.3037 -0.8339  0.8912
  675MOL0     H89088   8.377   2.650   3.734  3.2946  1.2867 -1.4658
  675MOL0     H89089   8.605   2.651   3.752  0.6347  1.7287  1.3889
  675MOL0     H89090   8.792   2.750   3.866 -0.4807  0.3329  4.6775
  675MOL0     H89091   8.790   2.606   3.765 -0.2572  2.8480  0.1934
  675MOL0     H89092   8.993   2.644   3.982  0.8767  3.8341 -0.5345
  675MOL0     H89093   8.992   2.527   3.838  0.0864 -0.6489  0.4940
  675MOL0     H89094   9.005   2.824   3.811  1.8829  0.1440  0.4526
  675MOL0     H89095   8.996   2.701   3.687 -0.9472  0.4813  0.6799
  675MOL0     H89096   9.232   2.770   3.881 -0.7979  1.1717 -0.2253
  675MOL0     H89097   9.223   2.613   3.800  2.1852  0.8128  2.5548
  675MOL0     H89098   9.354   2.837   3.479 -1.3516  1.6272 -0.7408
  675MOL0     H89099   8.565   2.462   4.140 -1.9327 -0.2044 -0.0217
  675MOL0     H89100   8.356   2.438   4.127  1.2604 -0.9203  1.1061
  676MOL0     O89101   9.922   4.793  10.107 -0.1078  0.1332  0.1962
  676MOL0     C89102   9.912   4.771  10.229 -0.0093  0.3060 -0.5975
  676MOL0     O89103   9.796   4.776  10.302  0.0355 -0.2130 -0.5956
  676MOL0     C89104   9.670   4.804  10.252  0.4303  0.2884  0.2399
  676MOL0     C89105   9.588   4.876  10.339  0.6197  0.1459 -0.4827
  676MOL0     C89106   9.450   4.880  10.319  0.8325 -0.0941 -0.4459
  676MOL0     C89107   9.395   4.802  10.217  0.1315  0.1263  0.4105
  676MOL0     O89108   9.262   4.780  10.194  0.3054  0.3810  0.1561
  676MOL0     C89109   9.167   4.862  10.267  0.0355  0.2560  0.4696
  676MOL0     C89110   9.022   4.840  10.237 -0.1700  1.2534 -0.1367
  676MOL0     C89111   8.926   4.956  10.293 -0.9527 -0.0245 -0.2530
  676MOL0     C89112   8.786   4.950  10.242  0.2336  0.1089  1.3194
  676MOL0     C89113   8.765   5.012  10.100  0.1502  0.9348 -0.1541
  676MOL0     C89114   8.634   4.955  10.041  0.7883 -0.1943  0.9793
  676MOL0     C89115   8.601   5.026   9.914  0.3703 -0.1289 -0.1180
  676MOL0     C89116   8.455   4.995   9.871  1.0388 -0.5255 -0.1839
  676MOL0     N89117   8.460   4.851   9.842  0.1392 -0.1481  0.6990
  676MOL0     C89118   8.369   4.759   9.895 -0.4128 -0.0707  0.6340
  676MOL0     C89119   8.381   4.650   9.815  0.4830 -0.1094 -0.3867
  676MOL0     C89120   8.292   4.530   9.824 -0.4239 -0.3974 -0.0578
  676MOL0     C89121   8.378   4.413   9.849  0.2045 -0.1164  0.4722
  676MOL0     C89122   8.328   4.296   9.761  0.0624 -0.5073  0.1277
  676MOL0     C89123   8.405   4.169   9.784  0.2917  0.5933 -0.5997
  676MOL0     O89124   8.371   4.123   9.919  0.2077  0.5097 -0.3600
  676MOL0     C89125   8.263   4.037   9.937 -0.6365 -0.8089  0.7243
  676MOL0     C89126   8.230   4.001  10.072  0.6084  0.7195  0.9531
  676MOL0     C89127   8.119   3.920  10.096 -0.0658 -0.4316 -0.1644
  676MOL0     C89128   8.036   3.870   9.992 -0.4699 -0.3510 -0.5352
  676MOL0     C89129   7.905   3.807  10.019 -0.7410  0.5464 -0.2650
  676MOL0     O89130   7.804   3.836   9.932  0.2164 -0.5853  0.3659
  676MOL0     C89131   7.672   3.828   9.961 -0.4957  0.1245  0.3326
  676MOL0     C89132   7.619   3.819  10.096  1.3675 -0.5936 -0.3077
  676MOL0     C89133   7.481   3.794  10.123  0.6206 -0.1032 -0.7019
  676MOL0     C89134   7.391   3.781  10.009  0.3340  0.1005 -0.8243
  676MOL0     O89135   7.255   3.788  10.009 -0.2978 -0.2733 -1.0571
  676MOL0     C89136   7.210   3.895  10.091  0.1633 -0.0379  0.5946
  676MOL0     C89137   7.060   3.910  10.080  0.0247 -0.6853  0.6516
  676MOL0     C89138   6.973   3.783  10.120  0.0648 -0.2815 -0.3992
  676MOL0     C89139   6.820   3.794  10.091 -0.3680  0.3660 -0.3324
  676MOL0     C89140   6.737   3.686  10.168 -0.3806  0.2604 -0.2823
  676MOL0     C89141   6.589   3.731  10.137 -0.1574  0.1583  0.3510
  676MOL0     C89142   6.501   3.604  10.147  0.3101  0.5797 -0.3962
  676MOL0     C89143   6.362   3.633  10.224 -0.3767  0.9487  0.0317
  676MOL0    Cl89144   6.393   3.641  10.402  0.2818  0.3391 -0.1960
  676MOL0     C89145   7.446   3.778   9.883  0.6425 -0.4056  0.3130
  676MOL0     C89146   7.579   3.793   9.861 -1.4423  0.4505 -1.3717
  676MOL0     O89147   7.899   3.738  10.122  0.9979 -0.2001  0.0338
  676MOL0     C89148   8.076   3.901   9.861 -0.5393 -0.1026  0.2554
  676MOL0     C89149   8.183   3.985   9.829 -0.7162  0.4478 -0.6186
  676MOL0     N89150   8.471   4.682   9.717  0.4632 -0.1334 -1.0225
  676MOL0     N89151   8.509   4.808   9.722 -0.3357  0.2230  0.1536
  676MOL0     C89152   9.480   4.730  10.132  0.5863 -0.3103  0.5735
  676MOL0     C89153   9.614   4.747  10.133  0.0372  0.6720 -0.2796
  676MOL0     C89154  10.037   4.743  10.301  0.9254  0.7618  0.0920
  676MOL0     C89155  10.168   4.765  10.250 -0.1298 -0.0758 -0.5739
  676MOL0     C89156  10.281   4.738  10.330  0.4073  0.3216  0.1754
  676MOL0     C89157  10.271   4.683  10.451 -1.0042 -0.5753 -0.2766
  676MOL0     O89158  10.380   4.663  10.537  0.4838  0.2720 -0.4015
  676MOL0     C89159  10.508   4.706  10.495 -0.4533  0.0387 -0.1919
  676MOL0     C89160  10.594   4.701  10.627  0.1023 -0.2641 -1.1166
  676MOL0     C89161  10.731   4.762  10.609  1.1644  0.3146 -0.0625
  676MOL0     C89162  10.741   4.910  10.645 -0.2378  0.6230 -0.1923
  676MOL0     C89163  10.873   4.963  10.601  0.3325 -0.8518  0.0771
  676MOL0     C89164  10.985   4.999  10.559  0.8715  0.1889 -0.2463
  676MOL0     C89165  10.145   4.658  10.504 -0.3543 -0.8664  0.1069
  676MOL0     C89166  10.029   4.692  10.433 -0.1780 -0.1427 -0.6723
  676MOL0     H89167   9.623   4.910  10.436  0.9351 -1.6154  0.0482
  676MOL0     H89168   9.382   4.931  10.386  0.8109  0.1141 -0.6235
  676MOL0     H89169   9.192   4.967  10.251 -0.5040  0.4398  0.8057
  676MOL0     H89170   9.177   4.838  10.373 -0.0909  1.1165  0.6884
  676MOL0     H89171   8.998   4.744  10.284  1.1574 -0.4035 -2.6163
  676MOL0     H89172   9.003   4.851  10.130 -3.9526  1.6610  0.4318
  676MOL0     H89173   8.980   5.047  10.264 -0.7384  0.5680  1.8387
  676MOL0     H89174   8.930   4.951  10.402 -0.1127  2.3973 -0.0951
  676MOL0     H89175   8.766   4.843  10.234  2.2469 -0.1670 -3.7581
  676MOL0     H89176   8.711   4.984  10.313  1.1156  1.5460  1.6050
  676MOL0     H89177   8.849   4.984  10.036 -0.4448  1.8381 -1.3877
  676MOL0     H89178   8.771   5.121  10.104 -0.0073  0.9695 -0.6599
  676MOL0     H89179   8.553   4.957  10.115 -1.0082  1.5675 -0.8696
  676MOL0     H89180   8.665   4.853  10.019 -0.8433 -0.7703  1.2205
  676MOL0     H89181   8.606   5.133   9.934  0.5195 -0.2690  0.6245
  676MOL0     H89182   8.674   5.002   9.836  1.4869 -1.7591  1.3600
  676MOL0     H89183   8.419   5.053   9.786 -0.3723 -1.1363 -0.0347
  676MOL0     H89184   8.384   5.004   9.953  1.3837 -0.0842  0.0674
  676MOL0     H89185   8.297   4.773   9.975 -1.0646 -2.0040  0.4361
  676MOL0     H89186   8.242   4.526   9.727  1.0399 -0.3181 -0.8510
  676MOL0     H89187   8.226   4.553   9.908 -0.4250  0.8333 -0.3849
  676MOL0     H89188   8.379   4.397   9.957 -5.0366 -0.1211  0.7905
  676MOL0     H89189   8.482   4.422   9.817  0.5322 -1.1078  1.1957
  676MOL0     H89190   8.223   4.279   9.788 -0.5873  1.4077 -0.9874
  676MOL0     H89191   8.324   4.322   9.655  1.6711  0.9922  0.3749
  676MOL0     H89192   8.511   4.192   9.777  0.4266 -0.1620 -1.1655
  676MOL0     H89193   8.395   4.093   9.706  2.9015  0.4452 -0.8495
  676MOL0     H89194   8.283   4.040  10.158  0.6755  0.1281  1.1812
  676MOL0     H89195   8.086   3.885  10.194  0.1070 -3.9009 -1.2124
  676MOL0     H89196   7.685   3.854  10.175  1.0335 -1.3324  0.3016
  676MOL0     H89197   7.452   3.794  10.227  0.9932  0.7481 -0.5869
  676MOL0     H89198   7.259   3.986  10.053 -0.4603  0.0297 -0.0790
  676MOL0     H89199   7.234   3.873  10.195  2.1642 -2.4390 -0.2582
  676MOL0     H89200   7.034   3.951   9.983  1.2872 -0.1220  0.5368
  676MOL0     H89201   7.031   3.990  10.148 -1.4094  0.7148 -1.5089
  676MOL0     H89202   6.979   3.774  10.229  0.5935 -0.9404 -0.4727
  676MOL0     H89203   7.016   3.690  10.082  2.6772 -0.4267  2.4642
  676MOL0     H89204   6.788   3.892  10.127 -1.1458  0.4656 -1.2335
  676MOL0     H89205   6.803   3.785   9.983 -3.3838 -1.6760  0.1834
  676MOL0     H89206   6.752   3.685  10.277 -1.4436  0.8716 -0.1209
  676MOL0     H89207   6.753   3.584  10.132 -2.5170  0.0292 -0.6746
  676MOL0     H89208   6.575   3.772  10.037 -0.5115 -0.7500  0.0232
  676MOL0     H89209   6.565   3.808  10.212 -0.0030 -1.3654  2.0402
  676MOL0     H89210   6.486   3.564  10.046 -0.6907  2.0358 -0.8632
  676MOL0     H89211   6.558   3.533  10.208 -1.1178 -0.5317 -0.2925
  676MOL0     H89212   6.304   3.542  10.211  2.8994 -1.7089  2.3256
  676MOL0     H89213   6.317   3.731  10.204  1.1429  1.9130  1.1083
  676MOL0     H89214   7.382   3.756   9.798 -3.0335 -1.3902  3.0643
  676MOL0     H89215   7.615   3.778   9.760 -2.7561 -0.1426 -1.7646
  676MOL0     H89216   8.015   3.863   9.779 -1.2011  1.3476  0.0450
  676MOL0     H89217   8.186   4.016   9.725 -0.2819 -1.2402 -1.1366
  676MOL0     H89218   9.432   4.666  10.058 -2.3130  1.8905  0.3602
  676MOL0     H89219   9.674   4.697  10.059  0.5572  0.8981 -0.0174
  676MOL0     H89220  10.176   4.812  10.153  0.5870 -1.8301 -1.4131
  676MOL0     H89221  10.376   4.766  10.285  1.3706  1.5737  2.7656
  676MOL0     H89222  10.509   4.805  10.448  2.1223 -0.1175 -0.5704
  676MOL0     H89223  10.557   4.637  10.426 -0.1632 -1.9210  1.8741
  676MOL0     H89224  10.535   4.745  10.708  1.9016  0.3782 -0.1054
  676MOL0     H89225  10.607   4.599  10.665  0.9790 -0.8625 -2.8927
  676MOL0     H89226  10.747   4.736  10.504 -0.2303 -4.3120  0.6380
  676MOL0     H89227  10.810   4.710  10.664  1.6061 -0.8133 -1.7232
  676MOL0     H89228  10.662   4.964  10.593  0.4335  0.2128 -1.6772
  676MOL0     H89229  10.730   4.929  10.752 -0.3103  3.7676 -0.6815
  676MOL0     H89230  11.081   5.016  10.515  0.5921 -2.0910 -1.8711
  676MOL0     H89231  10.141   4.622  10.606  5.3419 -0.6338  0.7402
  676MOL0     H89232   9.935   4.673  10.484  0.4837 -1.2611  0.1549
  677MOL0     O89233   8.693   6.641   4.507 -0.0782  0.2472 -0.1611
  677MOL0     C89234   8.725   6.748   4.452 -1.1612  0.1125 -0.9171
  677MOL0     O89235   8.675   6.785   4.337  0.1307 -0.3753 -0.1420
  677MOL0     C89236   8.580   6.700   4.278 -0.0951  0.4320  0.3906
  677MOL0     C89237   8.455   6.745   4.234  0.0668  0.6890  0.3162
  677MOL0     C89238   8.360   6.653   4.179  0.2533 -0.4105 -0.8716
  677MOL0     C89239   8.387   6.514   4.175 -0.6376 -0.7884  0.2023
  677MOL0     O89240   8.310   6.417   4.120 -0.3865 -0.1639 -0.8885
  677MOL0     C89241   8.176   6.428   4.171  0.5016 -0.3237  0.2478
  677MOL0     C89242   8.075   6.325   4.121 -0.3369  0.2868 -0.3390
  677MOL0     C89243   7.943   6.314   4.195  0.2740 -0.2519 -0.6870
  677MOL0     C89244   7.861   6.191   4.155  0.0448 -0.2315 -0.0469
  677MOL0     C89245   7.804   6.199   4.014  0.5641  0.0137  0.4409
  677MOL0     C89246   7.662   6.139   3.993 -0.1310  0.1692 -0.1060
  677MOL0     C89247   7.667   5.987   4.001  0.1750 -0.6761  0.2054
  677MOL0     C89248   7.525   5.925   3.996 -0.0041  0.5755  0.5851
  677MOL0     N89249   7.441   5.967   4.108 -0.1936 -0.0918 -0.6966
  677MOL0     C89250   7.302   5.963   4.101  0.2183 -0.4385  0.0824
  677MOL0     C89251   7.258   6.003   4.220  0.1867  0.1623  0.0094
  677MOL0     C89252   7.118   5.999   4.273  0.3685 -0.1591  0.1650
  677MOL0     C89253   7.078   6.138   4.297 -0.7790 -0.0362 -0.2400
  677MOL0     C89254   6.928   6.136   4.333  0.6536 -1.1222  0.4578
  677MOL0     C89255   6.855   6.275   4.328 -0.0068  1.2093  0.6485
  677MOL0     O89256   6.729   6.280   4.395  0.0413 -0.2123  0.4340
  677MOL0     C89257   6.622   6.212   4.340 -0.3598 -0.9805  0.2956
  677MOL0     C89258   6.621   6.148   4.218 -0.9926 -0.3035  0.3226
  677MOL0     C89259   6.501   6.099   4.174 -0.3444 -0.6086 -0.1446
  677MOL0     C89260   6.377   6.120   4.244  0.2998  0.3692 -0.5575
  677MOL0     C89261   6.252   6.059   4.194  0.1264 -0.3866 -1.0860
  677MOL0     O89262   6.139   6.096   4.255  1.3033  0.1209  0.0699
  677MOL0     C89263   6.003   6.062   4.227  0.6686 -0.3540 -0.0200
  677MOL0     C89264   5.904   6.136   4.301 -0.3030  0.9535 -0.3099
  677MOL0     C89265   5.771   6.109   4.263 -0.1451 -0.7463 -0.0661
  677MOL0     C89266   5.741   6.024   4.152  0.6614 -0.0676  0.3270
  677MOL0     O89267   5.612   6.028   4.127  0.1861 -0.4883  0.1371
  677MOL0     C89268   5.547   5.931   4.042 -0.7744 -1.7165 -0.5198
  677MOL0     C89269   5.400   5.934   4.044  0.4659  0.8825 -0.5849
  677MOL0     C89270   5.332   5.840   3.949  0.6857 -0.2807  0.2876
  677MOL0     C89271   5.173   5.845   3.964 -0.3373  0.0384  0.4185
  677MOL0     C89272   5.111   5.771   3.846 -0.4302 -0.6605  0.1484
  677MOL0     C89273   5.073   5.868   3.732  0.5502  0.1940  0.7402
  677MOL0     C89274   5.026   5.801   3.600  0.8580  0.0810  0.4507
  677MOL0     C89275   4.907   5.701   3.610  0.4994 -0.2071  0.1349
  677MOL0    Cl89276   4.765   5.773   3.689  0.2202  0.1634 -0.3462
  677MOL0     C89277   5.833   5.960   4.081  0.6094 -0.1746  0.1256
  677MOL0     C89278   5.964   5.984   4.112  0.2454 -0.2017  0.1882
  677MOL0     O89279   6.260   5.977   4.099  0.0469 -1.9909 -0.5644
  677MOL0     C89280   6.381   6.187   4.366 -0.1521 -0.1711  0.0021
  677MOL0     C89281   6.503   6.238   4.412 -0.2328  0.2573  0.8913
  677MOL0     N89282   7.365   6.027   4.298 -0.1262 -0.3532 -0.0593
  677MOL0     N89283   7.477   5.992   4.240  0.3672 -0.5902  0.8372
  677MOL0     C89284   8.515   6.480   4.210 -0.4115  1.1912 -1.0625
  677MOL0     C89285   8.614   6.568   4.245 -0.0786  0.3390 -0.0887
  677MOL0     C89286   8.834   6.833   4.515 -0.4251 -0.9500 -0.7369
  677MOL0     C89287   8.914   6.801   4.628  1.0870  0.2266  0.0468
  677MOL0     C89288   9.004   6.889   4.687 -0.6206 -0.0187  0.5462
  677MOL0     C89289   9.024   7.012   4.632  0.5582 -0.5544 -0.8377
  677MOL0     O89290   9.107   7.103   4.698 -0.4874 -0.1755 -0.4522
  677MOL0     C89291   9.180   7.198   4.627 -0.5316 -0.0924 -0.4026
  677MOL0     C89292   9.283   7.133   4.534 -0.2269 -0.1141 -0.2067
  677MOL0     C89293   9.372   7.228   4.479  0.5705  0.7441 -0.1981
  677MOL0     C89294   9.485   7.164   4.397 -0.2689 -0.4254  0.5590
  677MOL0     C89295   9.614   7.159   4.464 -0.0922 -0.3631  0.3622
  677MOL0     C89296   9.714   7.168   4.522 -0.4840  0.8271 -0.4553
  677MOL0     C89297   8.954   7.048   4.512 -0.3569 -0.6729 -0.8158
  677MOL0     C89298   8.864   6.958   4.453  0.1732 -0.1435 -0.1351
  677MOL0     H89299   8.422   6.847   4.256 -0.0443  0.4294  1.4621
  677MOL0     H89300   8.263   6.695   4.155  0.3166  1.7622  2.1172
  677MOL0     H89301   8.124   6.522   4.149 -0.9816 -1.4120 -1.1138
  677MOL0     H89302   8.176   6.429   4.281  0.2122  0.5497  0.2494
  677MOL0     H89303   8.112   6.222   4.130 -3.1659 -0.8541 -0.4395
  677MOL0     H89304   8.057   6.352   4.017  0.4984  0.6084 -0.4058
  677MOL0     H89305   7.886   6.406   4.182 -1.5753 -1.4920 -1.7293
  677MOL0     H89306   7.965   6.301   4.301 -1.3720 -1.2214 -0.4251
  677MOL0     H89307   7.921   6.104   4.183  0.9106  0.4763  0.3569
  677MOL0     H89308   7.784   6.188   4.232  0.9356  4.2030  1.2768
  677MOL0     H89309   7.870   6.153   3.940 -3.1338 -2.5010 -1.6394
  677MOL0     H89310   7.796   6.306   3.998 -1.2162 -0.4014 -2.1058
  677MOL0     H89311   7.607   6.168   3.904 -3.9331 -2.5367  1.1149
  677MOL0     H89312   7.614   6.167   4.087  0.7427 -2.5669  1.2735
  677MOL0     H89313   7.736   5.950   3.925  0.4554 -0.9842  0.6037
  677MOL0     H89314   7.702   5.961   4.101 -0.2454  2.1011  1.1705
  677MOL0     H89315   7.547   5.819   3.985 -0.3592  0.7702 -3.0578
  677MOL0     H89316   7.465   5.953   3.909 -1.0741 -0.4455  0.9691
  677MOL0     H89317   7.241   5.923   4.021  0.5049 -2.3075  0.7360
  677MOL0     H89318   7.121   5.942   4.366 -2.5517 -1.8031 -0.6232
  677MOL0     H89319   7.053   5.958   4.195  1.6400  0.2713 -1.1827
  677MOL0     H89320   7.084   6.215   4.219 -0.4742 -0.8022 -0.9769
  677MOL0     H89321   7.137   6.174   4.382 -1.1766 -0.7221  0.3312
  677MOL0     H89322   6.878   6.057   4.277 -2.7545 -1.7993  3.9958
  677MOL0     H89323   6.918   6.098   4.436 -0.9479 -1.6506  0.1423
  677MOL0     H89324   6.836   6.303   4.224 -3.4505 -0.3275  0.7158
  677MOL0     H89325   6.923   6.345   4.377  1.5296 -0.1390  0.5418
  677MOL0     H89326   6.713   6.129   4.164  0.4903 -2.0379  3.2429
  677MOL0     H89327   6.499   6.052   4.076 -3.8472 -0.8132 -0.1070
  677MOL0     H89328   5.925   6.211   4.377  0.9835 -0.7612  1.1146
  677MOL0     H89329   5.707   6.174   4.322  4.1737  1.3591  2.7840
  677MOL0     H89330   5.578   5.832   4.075  1.1341 -1.5087 -1.5298
  677MOL0     H89331   5.582   5.949   3.940 -1.3310 -0.3405 -0.4927
  677MOL0     H89332   5.365   6.033   4.015 -3.1519  0.8144  2.6936
  677MOL0     H89333   5.363   5.916   4.146 -1.7899 -2.0659 -1.7821
  677MOL0     H89334   5.366   5.738   3.971  1.4196  0.3721  2.3806
  677MOL0     H89335   5.363   5.874   3.850  1.1678  2.0993  1.2021
  677MOL0     H89336   5.150   5.780   4.049 -2.4996 -0.3768 -0.4147
  677MOL0     H89337   5.121   5.940   3.973  0.3045  0.3772  0.6378
  677MOL0     H89338   5.021   5.730   3.893 -0.6341  0.4151  0.7265
  677MOL0     H89339   5.167   5.685   3.807 -1.2486 -1.3158  0.3764
  677MOL0     H89340   5.166   5.916   3.700  1.0763  1.0234  3.2435
  677MOL0     H89341   5.007   5.948   3.766  0.6936  0.9379 -0.6831
  677MOL0     H89342   4.995   5.876   3.527 -3.0008 -0.1675  1.6139
  677MOL0     H89343   5.112   5.745   3.560  2.5236  1.8400  1.4399
  677MOL0     H89344   4.949   5.626   3.677  4.4803  1.4119 -0.2809
  677MOL0     H89345   4.874   5.671   3.510 -0.0739  1.7533 -0.3085
  677MOL0     H89346   5.808   5.888   4.003 -1.1370  0.6944 -0.1614
  677MOL0     H89347   6.032   5.935   4.044  1.2605 -1.3228  1.9244
  677MOL0     H89348   6.288   6.193   4.423 -1.3169 -0.9313 -1.7469
  677MOL0     H89349   6.506   6.297   4.503 -3.2232  1.1546  0.5352
  677MOL0     H89350   8.547   6.376   4.212  1.3766  1.7097  0.4829
  677MOL0     H89351   8.714   6.549   4.281 -0.0393  1.3605  0.3563
  677MOL0     H89352   8.907   6.709   4.684  0.4781  1.0793  1.4502
  677MOL0     H89353   9.055   6.870   4.782  1.6959  2.3068 -0.1113
  677MOL0     H89354   9.231   7.267   4.695 -2.7217  0.0688  1.1634
  677MOL0     H89355   9.115   7.258   4.563 -0.6556 -0.2159 -0.3941
  677MOL0     H89356   9.348   7.066   4.590  2.4565 -0.0634 -3.0407
  677MOL0     H89357   9.229   7.072   4.461 -1.0309  0.4211 -0.0807
  677MOL0     H89358   9.418   7.271   4.569  0.1699 -1.6794  1.2619
  677MOL0     H89359   9.316   7.304   4.423 -2.6602  0.3065  2.1729
  677MOL0     H89360   9.454   7.066   4.360 -4.4239  1.3735 -1.3046
  677MOL0     H89361   9.500   7.232   4.312 -0.2468 -2.0719 -0.7947
  677MOL0     H89362   9.808   7.180   4.572 -1.9640 -0.5075  2.9741
  677MOL0     H89363   8.971   7.145   4.467 -0.0147  0.5088  1.6894
  677MOL0     H89364   8.811   6.980   4.361 -0.8254 -2.7793 -0.2916
  678MOL0     O89365   3.332   0.692   3.231  1.0246  1.1341  0.1673
  678MOL0     C89366   3.360   0.616   3.142  0.8334  0.4648 -0.5125
  678MOL0     O89367   3.302   0.493   3.110 -0.5785 -0.3449 -0.2299
  678MOL0     C89368   3.191   0.458   3.183 -0.0878 -0.5348  1.4003
  678MOL0     C89369   3.192   0.329   3.240 -0.0674  0.2530 -0.6303
  678MOL0     C89370   3.071   0.285   3.292 -0.5369  0.2034  0.2787
  678MOL0     C89371   2.961   0.366   3.303 -0.0184  0.0517  0.7219
  678MOL0     O89372   2.850   0.312   3.360  0.6231  1.1073  0.3305
  678MOL0     C89373   2.737   0.392   3.400 -0.6454 -0.6613 -0.1168
  678MOL0     C89374   2.622   0.396   3.298  1.4422 -0.4773  0.3028
  678MOL0     C89375   2.496   0.453   3.370 -0.5141  0.2731  0.7796
  678MOL0     C89376   2.366   0.431   3.290 -0.6045  1.2792  0.9079
  678MOL0     C89377   2.248   0.473   3.375  0.5383  0.3366  0.3679
  678MOL0     C89378   2.117   0.416   3.293 -0.6565  0.4212  0.5869
  678MOL0     C89379   1.984   0.420   3.365  0.1421  0.3986  0.0461
  678MOL0     C89380   1.875   0.330   3.297 -0.6167  0.1640  0.3190
  678MOL0     N89381   1.748   0.364   3.363 -0.7127 -0.6496  0.2857
  678MOL0     C89382   1.657   0.467   3.328 -0.3280 -0.2643 -0.6580
  678MOL0     C89383   1.544   0.432   3.395  0.1622 -0.4690  0.2104
  678MOL0     C89384   1.416   0.511   3.381  0.4157 -0.4088 -0.6280
  678MOL0     C89385   1.355   0.480   3.246  0.2867  0.8515  0.2244
  678MOL0     C89386   1.262   0.350   3.234  0.1021  0.1604 -0.4139
  678MOL0     C89387   1.113   0.378   3.271  0.4968 -0.7273 -0.0933
  678MOL0     O89388   1.044   0.459   3.165 -0.3915  0.1469  0.5141
  678MOL0     C89389   0.910   0.484   3.194 -0.0411  0.3000  0.1616
  678MOL0     C89390   0.867   0.542   3.312 -0.6216 -0.0285 -0.0939
  678MOL0     C89391   0.730   0.556   3.340  0.4803  0.1668 -0.3898
  678MOL0     C89392   0.634   0.532   3.246  0.2606  0.1032  0.5984
  678MOL0     C89393   0.498   0.570   3.275 -0.5352  0.2114 -0.7504
  678MOL0     O89394   0.426   0.598   3.169  0.4431  0.5399  0.1194
  678MOL0     C89395   0.289   0.621   3.172  0.6264  0.4238  0.1788
  678MOL0     C89396   0.198   0.541   3.234 -0.2849 -0.4766  0.1616
  678MOL0     C89397   0.063   0.555   3.224  0.1171 -1.2525  0.4018
  678MOL0     C89398   0.013   0.647   3.137  0.1048 -0.4791 -0.0041
  678MOL0     O89399  -0.116   0.619   3.110  0.4607 -0.4271  0.0192
  678MOL0     C89400  -0.172   0.674   2.994 -0.1930 -0.6251 -0.0755
  678MOL0     C89401  -0.217   0.819   3.014  0.3208 -0.2032  0.2780
  678MOL0     C89402  -0.263   0.916   2.891  0.3663 -0.3174 -0.6891
  678MOL0     C89403  -0.133   0.960   2.806 -0.0975 -0.8362  0.4771
  678MOL0     C89404  -0.164   1.079   2.714 -0.1657  0.0836 -0.5965
  678MOL0     C89405  -0.032   1.116   2.639 -0.0464  0.6964 -0.5366
  678MOL0     C89406   0.075   1.168   2.741  0.2199 -0.1119  0.6769
  678MOL0     C89407   0.158   1.283   2.680 -0.4391 -0.1136  0.0941
  678MOL0    Cl89408   0.234   1.212   2.525  0.0256  0.1220 -0.1503
  678MOL0     C89409   0.099   0.742   3.077  0.5402  0.3333  0.1816
  678MOL0     C89410   0.241   0.724   3.096  0.4647  0.6283 -0.6554
  678MOL0     O89411   0.463   0.579   3.392 -0.1750 -0.0231  0.1049
  678MOL0     C89412   0.678   0.486   3.117 -0.2431  0.4545 -0.9036
  678MOL0     C89413   0.816   0.465   3.093  0.7528  0.4376  0.1491
  678MOL0     N89414   1.563   0.319   3.469 -0.4502 -0.8720  0.4607
  678MOL0     N89415   1.685   0.282   3.448  0.4831  0.8059  0.3087
  678MOL0     C89416   2.961   0.492   3.242  0.2639 -1.1552  0.3658
  678MOL0     C89417   3.073   0.545   3.183 -0.1609 -0.1378 -0.1927
  678MOL0     C89418   3.481   0.642   3.068 -0.4781 -1.1636  0.6660
  678MOL0     C89419   3.528   0.778   3.060  0.7967  0.8203  1.8442
  678MOL0     C89420   3.647   0.811   2.992  0.1862  0.1174 -0.4511
  678MOL0     C89421   3.728   0.715   2.942 -1.0566  0.0908  0.3838
  678MOL0     O89422   3.859   0.723   2.905 -1.0470 -0.4534 -0.1688
  678MOL0     C89423   3.934   0.836   2.966 -0.7533  0.1227  0.3913
  678MOL0     C89424   4.091   0.811   2.970 -0.1800  0.0792 -0.6133
  678MOL0     C89425   4.154   0.935   3.041 -0.4846  1.4155 -0.5930
  678MOL0     C89426   4.303   0.916   3.068 -0.7512 -0.0533  0.5726
  678MOL0     C89427   4.367   0.874   2.935  0.1324 -0.3511 -0.2966
  678MOL0     C89428   4.439   0.840   2.843  0.4256  0.0585  0.5260
  678MOL0     C89429   3.671   0.586   2.941  0.1605 -0.6729  0.3455
  678MOL0     C89430   3.547   0.549   2.993 -1.1621  0.0333  0.6828
  678MOL0     H89431   3.278   0.263   3.248 -0.0580  0.4805  1.5096
  678MOL0     H89432   3.053   0.186   3.333 -0.7174 -1.0747 -2.5952
  678MOL0     H89433   2.763   0.486   3.449 -2.6095 -0.3968  0.5041
  678MOL0     H89434   2.695   0.340   3.486 -1.1215  1.4927  1.0219
  678MOL0     H89435   2.593   0.294   3.268 -2.1760  0.5685 -0.1448
  678MOL0     H89436   2.651   0.444   3.204 -1.6032  1.3113  0.1671
  678MOL0     H89437   2.502   0.562   3.369  0.2115  0.2651 -1.9566
  678MOL0     H89438   2.482   0.414   3.472  0.0827 -0.6247  0.5324
  678MOL0     H89439   2.377   0.501   3.206  1.2979  0.6303  0.5663
  678MOL0     H89440   2.375   0.332   3.245  0.1561  2.6117 -2.1762
  678MOL0     H89441   2.237   0.582   3.376  0.4858  0.4247 -1.9758
  678MOL0     H89442   2.256   0.440   3.479  0.4255  0.0179  0.2776
  678MOL0     H89443   2.137   0.311   3.272  1.3547  0.2215  3.0439
  678MOL0     H89444   2.113   0.462   3.193  2.3038  1.3150  0.7980
  678MOL0     H89445   2.002   0.390   3.469  1.0287  2.8545  0.6630
  678MOL0     H89446   1.955   0.525   3.369 -0.8298  0.1992 -1.2423
  678MOL0     H89447   1.893   0.225   3.321 -1.2839  0.0173  0.1900
  678MOL0     H89448   1.876   0.347   3.189 -2.2248 -1.1259  0.0494
  678MOL0     H89449   1.672   0.552   3.262 -1.5429  0.9515  0.5605
  678MOL0     H89450   1.448   0.616   3.391  0.8097 -0.6613  1.2456
  678MOL0     H89451   1.356   0.494   3.471  2.6169 -3.4035  0.4439
  678MOL0     H89452   1.433   0.463   3.172 -1.5590 -1.1822 -1.4013
  678MOL0     H89453   1.295   0.558   3.199  3.0788  1.8833 -1.8988
  678MOL0     H89454   1.255   0.311   3.132 -4.1419 -0.5262 -0.0388
  678MOL0     H89455   1.293   0.271   3.303  0.6960  0.0161 -0.8354
  678MOL0     H89456   1.104   0.427   3.369 -0.2930  1.0163 -0.9786
  678MOL0     H89457   1.065   0.280   3.274 -0.7701 -0.1278  0.0911
  678MOL0     H89458   0.945   0.583   3.376 -0.1963 -0.0034 -0.6171
  678MOL0     H89459   0.703   0.605   3.432  1.0795 -0.5163  0.1698
  678MOL0     H89460   0.232   0.457   3.293 -2.5159 -1.2564  0.4223
  678MOL0     H89461  -0.011   0.490   3.268 -2.5159  2.2714  1.6210
  678MOL0     H89462  -0.264   0.621   2.969 -1.1530  0.1212  1.7189
  678MOL0     H89463  -0.097   0.674   2.914  0.0274 -0.0919  0.1266
  678MOL0     H89464  -0.150   0.875   3.081 -0.6499  0.8753  0.3735
  678MOL0     H89465  -0.309   0.798   3.069 -0.6042 -0.0564 -1.1730
  678MOL0     H89466  -0.315   1.002   2.935 -2.1865 -1.7618 -0.6852
  678MOL0     H89467  -0.335   0.867   2.826 -0.1885 -1.5643  0.7910
  678MOL0     H89468  -0.059   1.002   2.875  0.0629  0.3481 -0.3952
  678MOL0     H89469  -0.087   0.875   2.755 -0.3636 -0.8580  0.2707
  678MOL0     H89470  -0.210   1.159   2.773 -0.4529 -0.8825  0.5263
  678MOL0     H89471  -0.238   1.045   2.641  1.7079 -0.1624 -2.4636
  678MOL0     H89472  -0.046   1.181   2.552  0.0360 -0.0006 -1.0745
  678MOL0     H89473   0.004   1.022   2.598 -2.1574 -0.6080  0.4282
  678MOL0     H89474   0.030   1.208   2.832 -0.6800 -0.8709  0.5746
  678MOL0     H89475   0.145   1.089   2.769  1.2139  0.5802  0.2247
  678MOL0     H89476   0.244   1.312   2.740 -1.0688  0.6809  0.6363
  678MOL0     H89477   0.091   1.367   2.657  0.3131  0.0752 -1.5145
  678MOL0     H89478   0.058   0.810   3.003 -0.4292 -1.3964 -0.9253
  678MOL0     H89479   0.308   0.788   3.040 -0.1397  2.4995  0.6839
  678MOL0     H89480   0.607   0.479   3.035  1.0553 -0.8312 -1.9833
  678MOL0     H89481   0.847   0.426   2.997 -1.3119 -2.4061  0.5227
  678MOL0     H89482   2.876   0.560   3.239  2.9910  2.5236 -0.3549
  678MOL0     H89483   3.091   0.643   3.139  1.5636  0.8578  2.4769
  678MOL0     H89484   3.465   0.857   3.099 -1.6039  0.9475 -1.7610
  678MOL0     H89485   3.675   0.915   2.984  0.5794  0.0539  0.0996
  678MOL0     H89486   3.896   0.847   3.068  0.2240 -1.8617  1.0212
  678MOL0     H89487   3.922   0.929   2.910  3.2116 -0.4826 -1.8132
  678MOL0     H89488   4.123   0.725   3.029 -1.3740  0.7003  1.0370
  678MOL0     H89489   4.125   0.795   2.867 -0.2156  0.0076 -0.6136
  678MOL0     H89490   4.105   0.953   3.136 -1.8212 -0.2386 -0.9134
  678MOL0     H89491   4.141   1.024   2.978  0.5350  1.6232 -0.5250
  678MOL0     H89492   4.342   1.006   3.116 -2.1291 -0.4463  2.5368
  678MOL0     H89493   4.315   0.836   3.141 -0.3537 -1.2750 -0.7741
  678MOL0     H89494   4.501   0.820   2.758 -0.1420  1.0729 -0.1372
  678MOL0     H89495   3.739   0.514   2.896  0.7461  0.9467 -1.4935
  678MOL0     H89496   3.526   0.442   3.001 -0.4930 -0.4957 -2.9493
  679MOL0     O89497   0.251   7.024  10.071 -0.3720  0.0236  0.1963
  679MOL0     C89498   0.303   7.134  10.046  0.1023 -0.3636 -0.1156
  679MOL0     O89499   0.249   7.257  10.061  0.1193  0.1901 -0.2167
  679MOL0     C89500   0.122   7.269  10.105  0.6130 -0.4852 -0.9855
  679MOL0     C89501   0.017   7.197  10.054  0.2197  0.7478  0.3600
  679MOL0     C89502  -0.114   7.229  10.087  0.1000 -0.2604 -0.4815
  679MOL0     C89503  -0.149   7.330  10.181  0.3462  0.3980 -0.5041
  679MOL0     O89504  -0.274   7.381  10.193 -0.5516 -0.0595  0.1545
  679MOL0     C89505  -0.383   7.331  10.115  0.3852 -0.0577 -0.1893
  679MOL0     C89506  -0.514   7.381  10.184 -0.7042  0.8824  0.2155
  679MOL0     C89507  -0.525   7.540  10.179 -0.0751 -0.1383 -0.2558
  679MOL0     C89508  -0.551   7.591  10.039 -0.4506 -0.3395 -0.0882
  679MOL0     C89509  -0.581   7.746  10.038  0.5017 -0.2944  0.4999
  679MOL0     C89510  -0.678   7.794  10.150  0.7290  0.4524 -0.2901
  679MOL0     C89511  -0.716   7.937  10.131 -0.4630 -0.1024  0.8192
  679MOL0     C89512  -0.783   7.986  10.256 -0.6125 -0.2267  0.0687
  679MOL0     N89513  -0.919   7.927  10.272 -0.9304 -0.3533 -0.0467
  679MOL0     C89514  -0.960   7.847  10.373  0.0622  0.8459  0.5884
  679MOL0     C89515  -1.095   7.831  10.363 -0.5355  1.0755  0.2271
  679MOL0     C89516  -1.170   7.733  10.443  0.2927 -0.0337 -0.5464
  679MOL0     C89517  -1.227   7.782  10.581 -0.9197 -0.2295  0.1620
  679MOL0     C89518  -1.294   7.922  10.575  0.5277 -0.1697 -0.0189
  679MOL0     C89519  -1.406   7.947  10.483  1.2371 -1.6483  0.6743
  679MOL0     O89520  -1.452   8.083  10.526 -0.7033 -0.9831 -0.2023
  679MOL0     C89521  -1.584   8.107  10.502  1.0117 -0.0244  0.6089
  679MOL0     C89522  -1.665   8.035  10.413 -0.1075 -0.3294  0.5282
  679MOL0     C89523  -1.800   8.060  10.395  0.6289  0.3290  0.2773
  679MOL0     C89524  -1.863   8.167  10.459  0.3331 -0.2062 -0.1830
  679MOL0     C89525  -2.001   8.208  10.420 -0.7675 -0.4876  0.0793
  679MOL0     O89526  -2.062   8.300  10.503  0.8109  0.6038  0.5531
  679MOL0     C89527  -2.196   8.335  10.492 -0.6418 -0.0147 -0.1677
  679MOL0     C89528  -2.231   8.411  10.385  0.5897  0.4372 -0.9324
  679MOL0     C89529  -2.371   8.431  10.363 -0.7540  0.0703  0.0408
  679MOL0     C89530  -2.470   8.399  10.463 -0.6989  0.1246  0.2417
  679MOL0     O89531  -2.605   8.424  10.437 -0.6040 -0.3839  0.3758
  679MOL0     C89532  -2.703   8.367  10.522  0.7887 -0.8071  0.1725
  679MOL0     C89533  -2.840   8.414  10.480 -0.3049  1.2897  0.1813
  679MOL0     C89534  -2.884   8.525  10.565 -0.5593  0.1483 -0.1737
  679MOL0     C89535  -3.018   8.584  10.516  0.3801  0.3275  0.1430
  679MOL0     C89536  -3.078   8.690  10.599 -0.1915 -0.4779  0.8340
  679MOL0     C89537  -3.125   8.638  10.744 -0.2653  1.0227 -0.6894
  679MOL0     C89538  -3.235   8.720  10.810 -0.0776 -0.0030 -1.1475
  679MOL0     C89539  -3.271   8.688  10.958  0.0291 -1.2211  0.7815
  679MOL0    Cl89540  -3.325   8.521  10.968  0.1398 -0.0228 -0.3951
  679MOL0     C89541  -2.421   8.329  10.578 -0.0768  0.0923 -0.3830
  679MOL0     C89542  -2.280   8.298  10.592  0.2508 -0.3311 -0.5523
  679MOL0     O89543  -2.054   8.148  10.332  0.0064  0.1369  0.7472
  679MOL0     C89544  -1.786   8.242  10.548 -0.7249 -0.2778  0.5828
  679MOL0     C89545  -1.653   8.216  10.565 -0.6398  0.4540  0.4443
  679MOL0     N89546  -1.136   7.899  10.246 -0.3512 -0.2575  0.1050
  679MOL0     N89547  -1.032   7.955  10.194  0.6560 -0.0872  0.5253
  679MOL0     C89548  -0.040   7.395  10.240 -1.1317 -0.7655 -0.0706
  679MOL0     C89549   0.096   7.359  10.204 -0.8112 -0.4338  0.0256
  679MOL0     C89550   0.420   7.129   9.951 -0.3024 -0.0318 -0.7704
  679MOL0     C89551   0.454   7.241   9.864  0.1838 -0.0451  0.1755
  679MOL0     C89552   0.563   7.241   9.778  0.5510  0.1336 -0.2910
  679MOL0     C89553   0.658   7.136   9.783 -0.5652 -0.8855 -0.7330
  679MOL0     O89554   0.772   7.141   9.706  0.7731 -0.2532  0.7113
  679MOL0     C89555   0.859   7.030   9.686  0.7197 -0.0927  0.4433
  679MOL0     C89556   0.788   6.945   9.574  0.9158  0.1486  0.6457
  679MOL0     C89557   0.885   6.846   9.499  0.2805 -0.3611 -0.5129
  679MOL0     C89558   0.808   6.780   9.385  0.4926  0.2267  0.6483
  679MOL0     C89559   0.667   6.736   9.414 -0.0890 -0.2003 -0.4540
  679MOL0     C89560   0.555   6.701   9.433 -0.4188 -0.0327 -0.4857
  679MOL0     C89561   0.619   7.029   9.862  0.2774 -0.2363 -0.9260
  679MOL0     C89562   0.513   7.025   9.950  0.6307 -0.0095 -0.0122
  679MOL0     H89563   0.034   7.134   9.968 -0.2524 -0.0164  0.8209
  679MOL0     H89564  -0.196   7.193  10.026  0.8315 -1.8160 -0.5975
  679MOL0     H89565  -0.383   7.222  10.102  2.0426 -0.0964 -0.0450
  679MOL0     H89566  -0.390   7.375  10.015  1.1369  1.9873  0.6141
  679MOL0     H89567  -0.522   7.332  10.281 -0.8451  0.8882  0.2076
  679MOL0     H89568  -0.593   7.344  10.118 -2.3948  1.9390  1.5430
  679MOL0     H89569  -0.434   7.584  10.222 -0.3217 -1.7452  2.1448
  679MOL0     H89570  -0.607   7.567  10.246  1.4810  2.9302  0.5997
  679MOL0     H89571  -0.462   7.591   9.974 -1.6154  1.5785 -1.8032
  679MOL0     H89572  -0.627   7.536   9.982 -0.4449  0.9220 -1.3702
  679MOL0     H89573  -0.634   7.773   9.946 -2.1253 -0.1492  1.9673
  679MOL0     H89574  -0.485   7.800  10.039 -0.8025  2.1881  1.2907
  679MOL0     H89575  -0.619   7.783  10.242  0.8159 -0.0039 -0.3965
  679MOL0     H89576  -0.774   7.741  10.150  0.1839  1.4288 -0.8322
  679MOL0     H89577  -0.626   7.996  10.118  1.4122 -2.8569  0.3615
  679MOL0     H89578  -0.783   7.950  10.045 -0.1968  1.2038  0.8005
  679MOL0     H89579  -0.789   8.095  10.264  0.1581 -0.2880  2.0931
  679MOL0     H89580  -0.730   7.951  10.345 -0.1880  0.4158  0.0704
  679MOL0     H89581  -0.893   7.794  10.440 -1.5844  0.3583  1.9375
  679MOL0     H89582  -1.113   7.640  10.455  1.7192  1.0772  2.0072
  679MOL0     H89583  -1.255   7.704  10.380  0.4987  0.3932 -1.0258
  679MOL0     H89584  -1.146   7.769  10.654  0.7610  2.1134 -1.1542
  679MOL0     H89585  -1.300   7.709  10.616 -0.3167 -1.1964 -0.5362
  679MOL0     H89586  -1.324   7.946  10.678  0.3153  0.9345 -0.3267
  679MOL0     H89587  -1.218   7.994  10.544 -0.7031  0.7715 -0.9244
  679MOL0     H89588  -1.489   7.877  10.494 -3.0125  2.2343 -2.6892
  679MOL0     H89589  -1.383   7.967  10.378 -2.0064 -2.0175 -0.2285
  679MOL0     H89590  -1.623   7.951  10.359 -2.5625 -0.6417 -1.0534
  679MOL0     H89591  -1.862   8.001  10.329  0.0151  2.6284 -1.3302
  679MOL0     H89592  -2.157   8.441  10.311 -1.4035  3.3662 -1.9312
  679MOL0     H89593  -2.417   8.469  10.273 -0.0067  2.0697  0.4468
  679MOL0     H89594  -2.683   8.398  10.625  1.7387  3.1879 -1.0438
  679MOL0     H89595  -2.695   8.260  10.503 -1.3865 -1.1873  1.1250
  679MOL0     H89596  -2.904   8.328  10.499  0.7398  0.3360 -0.4843
  679MOL0     H89597  -2.842   8.438  10.373  1.6228 -4.0814 -1.4111
  679MOL0     H89598  -2.809   8.605  10.564 -1.3386  0.9563  1.6099
  679MOL0     H89599  -2.890   8.481  10.664 -1.1779 -2.9827 -1.4841
  679MOL0     H89600  -3.000   8.629  10.418  0.0339  1.5172  0.6041
  679MOL0     H89601  -3.093   8.505  10.511  1.2364 -0.5927  1.3369
  679MOL0     H89602  -3.168   8.725  10.547 -1.1267 -0.8094  2.1677
  679MOL0     H89603  -3.015   8.777  10.618  0.7317 -0.8523 -0.3853
  679MOL0     H89604  -3.042   8.623  10.814 -1.0688  3.0305  0.8066
  679MOL0     H89605  -3.154   8.533  10.735  2.5124  0.2782 -1.9884
  679MOL0     H89606  -3.209   8.825  10.793 -0.1299  0.5295  1.6739
  679MOL0     H89607  -3.327   8.694  10.757 -1.5198 -1.9273  2.0215
  679MOL0     H89608  -3.357   8.755  10.968  0.1376 -0.1632 -3.4962
  679MOL0     H89609  -3.189   8.716  11.025 -1.2223 -1.1018  2.3020
  679MOL0     H89610  -2.491   8.286  10.648 -0.7583  2.1209  0.2648
  679MOL0     H89611  -2.244   8.252  10.684 -0.5312  4.0918  2.3050
  679MOL0     H89612  -1.825   8.320  10.612 -3.4985 -1.6658  0.7596
  679MOL0     H89613  -1.603   8.272  10.642 -0.1065 -1.6630  1.7088
  679MOL0     H89614  -0.059   7.471  10.315  2.0380 -0.5269  0.6461
  679MOL0     H89615   0.187   7.401  10.245 -1.4489  0.5620  0.4600
  679MOL0     H89616   0.378   7.318   9.863 -0.5952 -0.7845 -1.9305
  679MOL0     H89617   0.565   7.327   9.713  0.8781  0.0474 -0.3981
  679MOL0     H89618   0.878   6.972   9.776  1.0727  1.4477  1.3950
  679MOL0     H89619   0.948   7.075   9.642 -0.7213  2.3773 -0.1709
  679MOL0     H89620   0.716   6.881   9.627 -0.0145 -0.6814 -1.4914
  679MOL0     H89621   0.733   7.010   9.506 -1.3399 -2.9930 -0.8154
  679MOL0     H89622   0.936   6.788   9.577  2.7248 -0.1055 -1.8006
  679MOL0     H89623   0.963   6.903   9.448 -0.6894  0.1495 -1.4725
  679MOL0     H89624   0.786   6.866   9.320 -0.5208  1.4563  2.5490
  679MOL0     H89625   0.871   6.707   9.332  2.2042  0.1343  2.7031
  679MOL0     H89626   0.464   6.649   9.460  1.5740 -2.4942  2.1785
  679MOL0     H89627   0.694   6.951   9.859  1.0892  0.5127 -0.6310
  679MOL0     H89628   0.500   6.948  10.026 -1.0579 -0.9729 -1.2048
  680MOL0     O89629   4.023   9.047   0.336  0.2987 -0.9593 -0.4412
  680MOL0     C89630   4.065   8.938   0.365  0.0324  0.0702  0.1556
  680MOL0     O89631   4.007   8.815   0.324 -0.1914  0.4162  0.2520
  680MOL0     C89632   3.905   8.828   0.232  0.2666 -0.0636 -0.0160
  680MOL0     C89633   3.786   8.891   0.273  0.7442 -0.6829 -0.1170
  680MOL0     C89634   3.691   8.909   0.172  0.2865  1.0202  0.3533
  680MOL0     C89635   3.704   8.875   0.033 -0.6316  0.0446 -0.5844
  680MOL0     O89636   3.605   8.877  -0.064 -0.0341 -0.1912 -0.8074
  680MOL0     C89637   3.475   8.922  -0.032 -0.5595  0.5026  0.0156
  680MOL0     C89638   3.465   9.075  -0.056 -1.0754  0.5512 -0.0823
  680MOL0     C89639   3.437   9.110  -0.196 -0.9975 -0.0368  0.3084
  680MOL0     C89640   3.461   9.254  -0.241  0.2567 -0.3842 -0.5633
  680MOL0     C89641   3.464   9.251  -0.391  0.7102  0.3341  0.7393
  680MOL0     C89642   3.480   9.395  -0.443 -0.6776 -0.1901 -0.4082
  680MOL0     C89643   3.502   9.404  -0.594  0.8798  0.1629 -0.6072
  680MOL0     C89644   3.635   9.337  -0.630  0.3115 -0.4911  0.2232
  680MOL0     N89645   3.612   9.220  -0.713 -0.4049 -0.4789  0.3408
  680MOL0     C89646   3.565   9.217  -0.839 -0.0626  0.0385 -0.2347
  680MOL0     C89647   3.537   9.082  -0.852 -0.4933  0.4313  0.1766
  680MOL0     C89648   3.481   9.030  -0.976 -0.3151  1.0510 -0.3143
  680MOL0     C89649   3.334   9.071  -0.982  0.5726 -0.0715  0.9229
  680MOL0     C89650   3.275   9.014  -1.107 -0.4650 -0.6258  0.4365
  680MOL0     C89651   3.139   9.059  -1.139 -0.0937 -1.2869  0.8416
  680MOL0     O89652   3.052   9.008  -1.038  0.7885  0.0091  0.9040
  680MOL0     C89653   2.919   9.033  -1.047  0.7268 -0.3003  0.7487
  680MOL0     C89654   2.831   8.934  -0.992 -0.1942  0.7472  0.4096
  680MOL0     C89655   2.693   8.951  -0.991  0.7208 -0.0916  1.3388
  680MOL0     C89656   2.641   9.062  -1.044  0.0827  0.4011  0.1342
  680MOL0     C89657   2.494   9.092  -1.047 -1.0977  0.4044  0.8654
  680MOL0     O89658   2.452   9.200  -1.117 -0.4870  0.3911 -0.1051
  680MOL0     C89659   2.313   9.220  -1.157 -1.3639 -0.6435  0.1764
  680MOL0     C89660   2.207   9.125  -1.171 -0.1554 -0.1676  0.3630
  680MOL0     C89661   2.075   9.160  -1.211 -0.0458  0.0147  0.0686
  680MOL0     C89662   2.051   9.295  -1.253 -0.1232  0.5294  0.3381
  680MOL0     O89663   1.935   9.328  -1.310  0.0202 -0.7911 -0.0709
  680MOL0     C89664   1.912   9.455  -1.369  0.2420 -0.4191 -0.8586
  680MOL0     C89665   1.896   9.564  -1.257  0.6607 -0.0478  0.5230
  680MOL0     C89666   1.760   9.544  -1.180  0.2268  0.5807 -0.0641
  680MOL0     C89667   1.737   9.657  -1.079 -0.5055 -0.2303 -0.6962
  680MOL0     C89668   1.593   9.721  -1.084 -0.6333 -0.3084  1.1432
  680MOL0     C89669   1.481   9.617  -1.067  0.0574  0.4635  0.6245
  680MOL0     C89670   1.476   9.541  -0.936 -0.6105 -0.2375 -1.2844
  680MOL0     C89671   1.372   9.429  -0.940  0.3336 -0.1619 -1.0865
  680MOL0    Cl89672   1.354   9.350  -0.777 -0.3568  0.0064 -0.1053
  680MOL0     C89673   2.153   9.387  -1.232 -0.1596  0.0503  0.7567
  680MOL0     C89674   2.275   9.346  -1.187 -0.2703 -0.3876 -0.4485
  680MOL0     O89675   2.430   9.002  -0.991 -0.3758  0.3197  1.1023
  680MOL0     C89676   2.725   9.168  -1.086 -0.1094 -0.2791 -0.0333
  680MOL0     C89677   2.860   9.153  -1.096 -1.4229  0.4638 -0.8176
  680MOL0     N89678   3.545   9.009  -0.739 -0.2178  0.4438  0.5137
  680MOL0     N89679   3.586   9.100  -0.654  0.5139  0.5020 -0.1532
  680MOL0     C89680   3.825   8.809   0.005 -0.4428  0.5975  0.0811
  680MOL0     C89681   3.928   8.782   0.108 -0.2398  0.3213 -0.2137
  680MOL0     C89682   4.188   8.929   0.451 -0.4466 -0.1645 -0.5880
  680MOL0     C89683   4.264   9.046   0.477 -0.3380  0.2278 -0.0200
  680MOL0     C89684   4.391   9.035   0.539  0.4471  0.1891 -0.0201
  680MOL0     C89685   4.446   8.916   0.585  1.2753 -0.4303 -0.4152
  680MOL0     O89686   4.570   8.907   0.649 -0.2269  0.2582 -0.1939
  680MOL0     C89687   4.622   8.783   0.701  0.7677  0.2961 -0.4903
  680MOL0     C89688   4.766   8.802   0.749  0.3454  0.0288  0.0138
  680MOL0     C89689   4.794   8.914   0.854  0.8439  0.4372  0.1474
  680MOL0     C89690   4.765   8.847   0.991 -0.4070 -1.1234 -0.2850
  680MOL0     C89691   4.783   8.953   1.095 -0.3917  0.3058  1.2759
  680MOL0     C89692   4.790   9.035   1.185 -0.1568 -0.5971 -0.5637
  680MOL0     C89693   4.364   8.799   0.571 -0.1404 -0.3018  0.2103
  680MOL0     C89694   4.241   8.813   0.510  0.0268 -0.4114  0.4474
  680MOL0     H89695   3.765   8.901   0.379  2.3909 -2.4378  0.4436
  680MOL0     H89696   3.594   8.937   0.213  0.5694  1.8103  0.5021
  680MOL0     H89697   3.452   8.895   0.072  1.5864  0.2532  0.4691
  680MOL0     H89698   3.401   8.867  -0.091  0.9362 -0.6631 -0.8712
  680MOL0     H89699   3.553   9.124  -0.013 -0.3940 -0.3912 -0.3641
  680MOL0     H89700   3.385   9.120   0.003  0.0287  3.1654 -0.4564
  680MOL0     H89701   3.335   9.080  -0.220 -1.2977  0.2925  1.1391
  680MOL0     H89702   3.516   9.055  -0.249  2.1403  3.5310  0.8441
  680MOL0     H89703   3.375   9.310  -0.204  1.3134  1.0887 -0.2478
  680MOL0     H89704   3.555   9.287  -0.195  0.8515  0.5002 -2.3230
  680MOL0     H89705   3.376   9.201  -0.430 -0.8743  3.7703 -0.5152
  680MOL0     H89706   3.549   9.191  -0.427  2.8626  2.7629  1.4251
  680MOL0     H89707   3.558   9.455  -0.395 -0.7335  2.4561 -3.2681
  680MOL0     H89708   3.391   9.455  -0.422 -0.5496  0.2602 -1.1128
  680MOL0     H89709   3.423   9.343  -0.640  1.5924  0.3589 -2.1683
  680MOL0     H89710   3.493   9.507  -0.630  1.5268  1.1063  1.7729
  680MOL0     H89711   3.693   9.314  -0.540 -1.6238 -3.8351  0.7922
  680MOL0     H89712   3.686   9.405  -0.699 -0.0538 -1.0790 -0.6386
  680MOL0     H89713   3.552   9.286  -0.921 -0.5358 -0.9103 -0.9894
  680MOL0     H89714   3.486   8.921  -0.979  1.1455  0.8697  3.4170
  680MOL0     H89715   3.540   9.078  -1.055  1.3800  2.4386  1.6659
  680MOL0     H89716   3.334   9.180  -0.987 -3.2810  0.0070 -1.7485
  680MOL0     H89717   3.282   9.030  -0.895 -2.1159 -1.3897 -1.1587
  680MOL0     H89718   3.337   9.041  -1.193  1.4524  1.0743  2.2434
  680MOL0     H89719   3.273   8.907  -1.086 -1.3408 -0.1487  3.3284
  680MOL0     H89720   3.115   9.007  -1.232 -0.8268 -2.5696  1.7060
  680MOL0     H89721   3.135   9.166  -1.157 -1.3491 -1.2916  1.0417
  680MOL0     H89722   2.875   8.848  -0.942 -0.2882  1.2940  1.4706
  680MOL0     H89723   2.626   8.869  -0.969  0.7974 -1.1308 -1.7766
  680MOL0     H89724   2.240   9.025  -1.145 -1.2421 -0.6431 -0.0529
  680MOL0     H89725   1.995   9.090  -1.235 -2.0647  2.6494 -1.3521
  680MOL0     H89726   1.820   9.457  -1.428 -2.4095 -1.3245  2.8836
  680MOL0     H89727   1.995   9.484  -1.433  0.8147  2.4971  0.9675
  680MOL0     H89728   1.901   9.664  -1.301  0.8344 -0.2219  0.1398
  680MOL0     H89729   1.969   9.563  -1.176 -1.5542  4.0885  2.9497
  680MOL0     H89730   1.756   9.443  -1.138 -1.0907  1.3323  1.7606
  680MOL0     H89731   1.679   9.541  -1.254 -1.1825 -2.6381  1.4291
  680MOL0     H89732   1.761   9.612  -0.982 -0.6545 -0.1425 -0.6194
  680MOL0     H89733   1.811   9.737  -1.078 -1.0037  0.2364 -0.7387
  680MOL0     H89734   1.579   9.775  -1.178 -3.3783 -1.4526  0.7816
  680MOL0     H89735   1.582   9.792  -1.001 -0.7762  1.4378 -0.3135
  680MOL0     H89736   1.484   9.546  -1.151 -1.9186 -1.1188  1.7891
  680MOL0     H89737   1.385   9.666  -1.088 -0.8578 -1.6274 -0.3329
  680MOL0     H89738   1.572   9.490  -0.932 -2.3525 -3.8078 -0.2961
  680MOL0     H89739   1.478   9.613  -0.854  2.2606 -0.3010 -1.1980
  680MOL0     H89740   1.393   9.363  -1.025 -0.1640  0.2615 -1.5488
  680MOL0     H89741   1.275   9.468  -0.971  0.9016  0.9219 -1.5617
  680MOL0     H89742   2.143   9.491  -1.261 -0.1065  0.5467  2.3920
  680MOL0     H89743   2.348   9.426  -1.171 -2.4594  2.1593 -2.3115
  680MOL0     H89744   2.679   9.259  -1.122 -1.8380 -1.2921 -0.5134
  680MOL0     H89745   2.925   9.228  -1.141  1.1960 -1.1318  0.0952
  680MOL0     H89746   3.841   8.764  -0.093  2.1282 -0.6189  0.9598
  680MOL0     H89747   4.020   8.732   0.079  0.8863  0.7749  2.3007
  680MOL0     H89748   4.230   9.143   0.442 -1.4214  1.1975  3.3800
  680MOL0     H89749   4.434   9.133   0.558  0.3074  1.0501 -3.3977
  680MOL0     H89750   4.627   8.710   0.619  1.1875  1.3867 -1.4567
  680MOL0     H89751   4.558   8.757   0.786 -0.3074  1.1433 -1.0050
  680MOL0     H89752   4.808   8.707   0.783  4.4565  1.3757 -0.7144
  680MOL0     H89753   4.821   8.834   0.660  1.5954  1.9835  1.4099
  680MOL0     H89754   4.730   9.002   0.845 -0.8783 -0.6528  1.2974
  680MOL0     H89755   4.897   8.952   0.843  0.5056  0.8196 -2.4214
  680MOL0     H89756   4.666   8.801   0.989  0.8189 -3.9143 -1.3775
  680MOL0     H89757   4.838   8.767   1.007  1.3542  0.4170 -0.2374
  680MOL0     H89758   4.825   9.114   1.248  0.7557  1.4179 -3.3960
  680MOL0     H89759   4.387   8.699   0.605 -0.0675 -0.7533 -1.0940
  680MOL0     H89760   4.180   8.724   0.496  1.4524 -2.2370  4.3239
  681MOL0     O89761   8.131   3.752   5.801 -0.1176  0.2367 -0.3258
  681MOL0     C89762   8.215   3.837   5.824  0.1976 -0.1731  0.3994
  681MOL0     O89763   8.188   3.969   5.853  0.6918 -0.3475 -0.0614
  681MOL0     C89764   8.059   4.003   5.882  0.3682 -0.1263  0.5964
  681MOL0     C89765   7.963   4.005   5.782  0.4038 -0.4525 -0.5452
  681MOL0     C89766   7.831   4.056   5.809 -0.2429  0.1440 -0.0927
  681MOL0     C89767   7.790   4.093   5.936 -0.8631  0.3538  0.4856
  681MOL0     O89768   7.669   4.131   5.984 -0.5211 -0.2082  0.6139
  681MOL0     C89769   7.561   4.163   5.893  0.4567 -0.5288 -0.8878
  681MOL0     C89770   7.456   4.237   5.966  0.1794  0.4232 -0.4542
  681MOL0     C89771   7.500   4.335   6.071 -0.2055  0.0896 -0.0724
  681MOL0     C89772   7.395   4.433   6.137 -0.8018  0.3329  0.1266
  681MOL0     C89773   7.293   4.353   6.220  0.0324 -0.0903  0.4387
  681MOL0     C89774   7.217   4.440   6.309  0.8673 -0.5426  0.1173
  681MOL0     C89775   7.137   4.374   6.423  0.4454 -0.2284  0.0518
  681MOL0     C89776   6.992   4.316   6.399 -0.3678 -0.0588 -0.0410
  681MOL0     N89777   6.891   4.406   6.353 -0.0214 -0.2751  0.3247
  681MOL0     C89778   6.761   4.407   6.395  0.1133 -0.1015  0.8471
  681MOL0     C89779   6.705   4.504   6.326  0.7867 -0.0677 -0.9044
  681MOL0     C89780   6.559   4.527   6.325 -0.1033  0.3965  0.0658
  681MOL0     C89781   6.510   4.530   6.181  0.6862  0.3238  0.6264
  681MOL0     C89782   6.358   4.545   6.170 -0.0559  0.3415 -0.3276
  681MOL0     C89783   6.330   4.557   6.018  1.0872 -0.7545 -0.8377
  681MOL0     O89784   6.189   4.548   5.995  0.2243  0.1970 -0.8462
  681MOL0     C89785   6.099   4.652   6.015 -0.3526  0.0903  0.5261
  681MOL0     C89786   6.142   4.772   6.057 -0.4591  0.0626 -0.1680
  681MOL0     C89787   6.049   4.880   6.073 -0.0033 -0.0678  0.5470
  681MOL0     C89788   5.917   4.865   6.036  0.2664 -0.4663 -0.1557
  681MOL0     C89789   5.819   4.971   6.072  0.4693 -0.5244 -0.1195
  681MOL0     O89790   5.694   4.923   6.100 -0.6534  0.7869 -1.0556
  681MOL0     C89791   5.584   5.001   6.136 -0.8275 -0.1129 -0.5738
  681MOL0     C89792   5.493   5.033   6.034 -0.2427  0.2188 -0.1100
  681MOL0     C89793   5.382   5.109   6.071  0.3130  1.4576  0.2050
  681MOL0     C89794   5.360   5.153   6.204  0.0493 -0.7587  0.0638
  681MOL0     O89795   5.254   5.238   6.224 -0.2735 -0.0992  0.9678
  681MOL0     C89796   5.158   5.191   6.324  0.8924  1.0452  0.7958
  681MOL0     C89797   5.025   5.251   6.283  1.1747  0.2576  0.0563
  681MOL0     C89798   4.904   5.228   6.377  0.8908  0.0557  0.3574
  681MOL0     C89799   4.899   5.090   6.435  0.7355  0.1436  0.0384
  681MOL0     C89800   4.769   5.066   6.508  0.0306  0.3489 -0.8834
  681MOL0     C89801   4.639   5.070   6.420  0.5513  0.7910 -0.6480
  681MOL0     C89802   4.531   4.982   6.490 -0.1790  0.7434 -0.9716
  681MOL0     C89803   4.559   4.830   6.473  0.7504 -0.6334  0.3076
  681MOL0    Cl89804   4.398   4.754   6.498 -0.0128  0.3693  0.7767
  681MOL0     C89805   5.460   5.132   6.303  0.0470 -0.6411 -0.1784
  681MOL0     C89806   5.570   5.051   6.259 -0.9795 -0.6423  0.0544
  681MOL0     O89807   5.857   5.085   6.101 -0.6253  0.1595 -0.2861
  681MOL0     C89808   5.876   4.739   5.984  0.1962  0.1514  0.1655
  681MOL0     C89809   5.965   4.632   5.981 -0.5466 -0.1975 -0.7070
  681MOL0     N89810   6.790   4.551   6.229  0.1258 -1.0713 -0.1309
  681MOL0     N89811   6.900   4.483   6.243 -0.5486 -0.1092  0.2627
  681MOL0     C89812   7.895   4.102   6.034  0.5767 -0.5761  0.2665
  681MOL0     C89813   8.026   4.057   6.002 -0.5093 -0.4611  0.1883
  681MOL0     C89814   8.354   3.796   5.834 -0.7442  0.8537  0.4060
  681MOL0     C89815   8.395   3.670   5.782 -0.1801 -0.4539  1.1003
  681MOL0     C89816   8.527   3.636   5.788 -0.4967  0.4017 -0.0615
  681MOL0     C89817   8.621   3.713   5.852 -0.4955 -0.7211  0.5667
  681MOL0     O89818   8.752   3.671   5.868  0.3655  0.8298  0.1325
  681MOL0     C89819   8.845   3.749   5.798 -0.4154 -1.0204  0.9377
  681MOL0     C89820   8.963   3.781   5.890 -0.4444 -0.2346 -0.3208
  681MOL0     C89821   8.959   3.910   5.968  0.3804  0.2040 -0.1541
  681MOL0     C89822   8.950   4.041   5.898 -0.4789 -1.1249 -0.0502
  681MOL0     C89823   8.978   4.153   5.985  0.0744 -0.9731  0.1474
  681MOL0     C89824   8.984   4.241   6.067 -0.7351  0.8556  0.3539
  681MOL0     C89825   8.575   3.836   5.908 -1.1668  0.7461 -0.5126
  681MOL0     C89826   8.444   3.875   5.898 -0.5753  0.5614 -0.0094
  681MOL0     H89827   7.992   3.971   5.683 -3.7204 -4.3376 -0.7658
  681MOL0     H89828   7.761   4.057   5.725  0.6632 -1.0162 -0.8984
  681MOL0     H89829   7.521   4.064   5.869  1.5683 -1.2844  0.2095
  681MOL0     H89830   7.599   4.216   5.806  1.0415  1.2908  0.4113
  681MOL0     H89831   7.392   4.161   6.011  0.4472 -0.6992 -1.8935
  681MOL0     H89832   7.392   4.285   5.891  0.2751  0.3307 -0.5966
  681MOL0     H89833   7.588   4.393   6.040 -0.0822  1.3612  2.4097
  681MOL0     H89834   7.543   4.269   6.146  1.8580  0.7746 -0.5918
  681MOL0     H89835   7.437   4.503   6.210 -0.3893 -0.1433  0.3612
  681MOL0     H89836   7.340   4.500   6.070 -2.1431 -0.0197  0.8383
  681MOL0     H89837   7.349   4.284   6.284  1.6871  1.6176  0.9355
  681MOL0     H89838   7.229   4.300   6.150 -3.2409  2.0138  1.6121
  681MOL0     H89839   7.152   4.493   6.238 -2.2061 -2.5232  1.2540
  681MOL0     H89840   7.275   4.513   6.366 -1.6843  2.3120 -0.6651
  681MOL0     H89841   7.199   4.295   6.465  0.9773  1.3453  2.4634
  681MOL0     H89842   7.131   4.445   6.506 -1.3148  2.3832 -2.1179
  681MOL0     H89843   6.959   4.260   6.488 -1.7367  1.1076  0.2270
  681MOL0     H89844   7.006   4.235   6.327 -1.0423 -2.4978  2.3669
  681MOL0     H89845   6.704   4.339   6.456  1.7156 -1.1411  1.2389
  681MOL0     H89846   6.553   4.623   6.376 -1.0156  0.6912 -0.5782
  681MOL0     H89847   6.501   4.456   6.386 -2.1853  0.1986 -2.0190
  681MOL0     H89848   6.532   4.431   6.140  0.8094  0.1513  1.1079
  681MOL0     H89849   6.571   4.601   6.125  1.9180  0.1199  1.6534
  681MOL0     H89850   6.309   4.456   6.211 -0.1795 -0.0580 -1.3154
  681MOL0     H89851   6.318   4.628   6.228  0.7781  1.0007 -0.6723
  681MOL0     H89852   6.370   4.468   5.970  0.2292 -2.1317  0.9007
  681MOL0     H89853   6.363   4.656   5.983 -1.5838  0.1209 -1.1320
  681MOL0     H89854   6.238   4.790   6.103 -1.2831  3.2184  0.5443
  681MOL0     H89855   6.087   4.973   6.113 -2.1130  0.9728  0.3250
  681MOL0     H89856   5.481   4.985   5.937 -0.9946 -0.9336  0.5404
  681MOL0     H89857   5.311   5.137   5.993 -0.3304 -1.7048 -0.5025
  681MOL0     H89858   5.196   5.232   6.418 -2.0486 -0.0127  2.5903
  681MOL0     H89859   5.156   5.083   6.343  0.1694  1.4363  3.2811
  681MOL0     H89860   4.998   5.211   6.185 -2.2879 -0.9922  1.3638
  681MOL0     H89861   5.034   5.359   6.271  0.6071  0.5704  2.1807
  681MOL0     H89862   4.816   5.263   6.324  1.6381  0.9767 -0.3042
  681MOL0     H89863   4.897   5.299   6.460 -0.9814 -0.4767  0.6897
  681MOL0     H89864   4.919   5.021   6.352  1.0005  0.5899 -0.2729
  681MOL0     H89865   4.970   5.076   6.517 -2.1615 -1.3270  2.5051
  681MOL0     H89866   4.755   5.131   6.595  0.8467 -0.5466 -0.0467
  681MOL0     H89867   4.783   4.965   6.549 -1.1174  1.9017  4.0324
  681MOL0     H89868   4.655   5.049   6.313  2.0842  1.0226 -0.4961
  681MOL0     H89869   4.603   5.173   6.427 -1.9481 -0.0967  0.7997
  681MOL0     H89870   4.522   5.005   6.597 -0.6302 -1.9142 -0.3791
  681MOL0     H89871   4.439   5.002   6.435 -0.2075 -2.1000 -2.0809
  681MOL0     H89872   4.634   4.793   6.543  2.9019 -1.1083 -2.0784
  681MOL0     H89873   4.588   4.799   6.372 -2.1843 -0.0178 -0.8356
  681MOL0     H89874   5.437   5.177   6.399 -0.2683  1.8036 -1.3186
  681MOL0     H89875   5.645   4.999   6.317  0.4704  1.1147 -0.1354
  681MOL0     H89876   5.773   4.724   5.954 -0.0998  4.0246 -1.4063
  681MOL0     H89877   5.938   4.534   5.943  0.6505 -0.8058 -0.0224
  681MOL0     H89878   7.879   4.137   6.135  0.4123 -0.1713  0.1038
  681MOL0     H89879   8.106   4.069   6.075 -1.1725 -0.2298  0.8926
  681MOL0     H89880   8.318   3.607   5.740  0.1636 -1.2617  1.6649
  681MOL0     H89881   8.534   3.535   5.749  0.6725  1.3992 -2.6776
  681MOL0     H89882   8.812   3.843   5.752  2.4806 -0.2953  0.0953
  681MOL0     H89883   8.883   3.686   5.717  0.1721 -0.6467  0.9157
  681MOL0     H89884   8.971   3.706   5.970 -2.4043  1.0339  1.1772
  681MOL0     H89885   9.054   3.788   5.831 -0.3465  0.3853 -0.1019
  681MOL0     H89886   9.048   3.904   6.031 -0.4034 -0.4238  0.9398
  681MOL0     H89887   8.876   3.908   6.040 -0.6572 -0.9482 -1.3202
  681MOL0     H89888   9.030   4.050   5.823  0.7995 -1.9999  1.1655
  681MOL0     H89889   8.855   4.056   5.846 -0.8338  1.3291  1.1467
  681MOL0     H89890   8.994   4.314   6.145 -1.5794  1.3426  0.0216
  681MOL0     H89891   8.642   3.895   5.971  0.9354 -1.0842 -0.9278
  681MOL0     H89892   8.421   3.975   5.932  0.9408  0.4504  1.4991
  682MOL0     O89893   7.054   7.198   4.513 -0.1091  0.6905 -0.5549
  682MOL0     C89894   7.095   7.195   4.399  0.6183 -1.0317 -0.4335
  682MOL0     O89895   7.229   7.190   4.358 -1.4315 -0.5788 -0.1187
  682MOL0     C89896   7.342   7.198   4.432 -0.2342  0.5486 -0.0252
  682MOL0     C89897   7.357   7.210   4.570 -0.8279  0.2991 -0.7096
  682MOL0     C89898   7.486   7.215   4.627  0.0633  0.8282 -0.1359
  682MOL0     C89899   7.603   7.210   4.548 -1.2476  1.6162 -0.0409
  682MOL0     O89900   7.735   7.221   4.584 -0.2918  0.0956 -0.5299
  682MOL0     C89901   7.764   7.254   4.724 -0.2129  0.1896 -0.3093
  682MOL0     C89902   7.912   7.248   4.716 -0.1623  0.8461 -0.0608
  682MOL0     C89903   7.959   7.309   4.854  0.0560 -0.4456 -0.7708
  682MOL0     C89904   8.115   7.320   4.863 -0.5402  0.7890 -0.1452
  682MOL0     C89905   8.161   7.378   4.996  0.1034 -0.0148  0.4898
  682MOL0     C89906   8.312   7.381   5.017  0.6178  0.7698 -0.3195
  682MOL0     C89907   8.401   7.451   4.913 -0.3760 -0.8939  0.0883
  682MOL0     C89908   8.459   7.585   4.957 -0.7269 -0.3923  0.1258
  682MOL0     N89909   8.356   7.686   4.954  0.6271 -0.2853  0.6473
  682MOL0     C89910   8.299   7.742   4.846  0.1970 -0.2479 -0.0879
  682MOL0     C89911   8.176   7.799   4.894 -1.0997  0.0580 -0.1606
  682MOL0     C89912   8.065   7.855   4.807 -0.0224  0.5108  0.6639
  682MOL0     C89913   7.963   7.753   4.816  0.4230  0.3799 -0.0175
  682MOL0     C89914   7.840   7.808   4.741  0.0730 -0.3616 -0.1443
  682MOL0     C89915   7.717   7.713   4.764  0.5466  0.9429  0.2778
  682MOL0     O89916   7.601   7.748   4.686 -0.1162  0.1039 -0.8796
  682MOL0     C89917   7.497   7.665   4.700 -0.2404  0.3370 -0.1882
  682MOL0     C89918   7.389   7.693   4.625 -0.6179  0.6686  0.0293
  682MOL0     C89919   7.265   7.628   4.640 -0.3968  0.7777 -0.7631
  682MOL0     C89920   7.252   7.524   4.730  0.9683 -0.2854 -1.4186
  682MOL0     C89921   7.125   7.457   4.754  0.8177  0.0817 -0.5133
  682MOL0     O89922   7.026   7.490   4.668 -0.6214 -0.1543  0.8562
  682MOL0     C89923   6.893   7.452   4.688  0.5038 -0.3884  0.4077
  682MOL0     C89924   6.798   7.553   4.657 -0.0609  0.7393 -0.1950
  682MOL0     C89925   6.661   7.531   4.675 -0.0227 -0.0852 -0.1952
  682MOL0     C89926   6.621   7.407   4.715 -0.3105  0.6640 -1.0144
  682MOL0     O89927   6.486   7.380   4.707  0.5418 -0.3955  0.3119
  682MOL0     C89928   6.417   7.274   4.783  0.8824 -0.0308 -0.0194
  682MOL0     C89929   6.391   7.152   4.695 -0.2643 -0.5751 -1.0676
  682MOL0     C89930   6.328   7.200   4.568 -0.4495  0.2098  0.0491
  682MOL0     C89931   6.203   7.284   4.579  0.3385  0.1518 -0.0348
  682MOL0     C89932   6.092   7.196   4.638 -0.0612 -0.1418  0.1783
  682MOL0     C89933   5.956   7.276   4.646 -0.7134  0.3332 -0.2535
  682MOL0     C89934   5.846   7.180   4.678  0.5550  0.8914  0.4493
  682MOL0     C89935   5.701   7.213   4.659  0.4001  0.4397 -0.1259
  682MOL0    Cl89936   5.599   7.068   4.685  0.0856  0.2214  0.2767
  682MOL0     C89937   6.711   7.305   4.745  0.6335  0.3389  0.0361
  682MOL0     C89938   6.848   7.325   4.728 -0.2729  0.1528 -0.0110
  682MOL0     O89939   7.119   7.362   4.844  0.0796 -0.8706  0.7051
  682MOL0     C89940   7.363   7.487   4.810 -0.2611 -0.7342  0.7164
  682MOL0     C89941   7.481   7.555   4.789  0.1344  0.1339 -0.1541
  682MOL0     N89942   8.182   7.797   5.030 -0.1043 -0.7152 -0.0404
  682MOL0     N89943   8.277   7.727   5.062  0.0695 -0.2793  0.3259
  682MOL0     C89944   7.580   7.195   4.413 -0.3112  0.4272 -0.3496
  682MOL0     C89945   7.454   7.188   4.354 -0.6252 -0.1912 -0.1623
  682MOL0     C89946   6.998   7.192   4.303  0.4617 -0.3323 -0.1867
  682MOL0     C89947   7.032   7.164   4.173 -0.7865 -0.6357  0.5858
  682MOL0     C89948   6.927   7.131   4.082 -0.5076  0.1247 -0.2997
  682MOL0     C89949   6.795   7.137   4.122 -0.7436 -0.3802 -0.1607
  682MOL0     O89950   6.706   7.068   4.045  1.1485  0.0708  0.1014
  682MOL0     C89951   6.684   7.131   3.917  1.0600  0.6731 -0.0462
  682MOL0     C89952   6.558   7.073   3.864  0.2144  0.2019 -0.3545
  682MOL0     C89953   6.504   7.148   3.748 -0.4425  0.0190  0.1366
  682MOL0     C89954   6.591   7.152   3.619 -0.1483 -0.5360 -0.2084
  682MOL0     C89955   6.638   7.025   3.574  0.0021  0.7003 -0.4176
  682MOL0     C89956   6.659   6.917   3.534 -0.5787 -0.1338  0.0841
  682MOL0     C89957   6.768   7.165   4.251 -0.5343 -0.4387  0.2912
  682MOL0     C89958   6.862   7.198   4.334 -0.0510  0.5812 -1.3715
  682MOL0     H89959   7.273   7.205   4.638 -1.1506 -0.3945 -1.1418
  682MOL0     H89960   7.499   7.238   4.732  0.6792 -1.2692  0.3037
  682MOL0     H89961   7.720   7.180   4.791 -1.3327  0.1369 -1.0716
  682MOL0     H89962   7.731   7.355   4.752  0.2169  0.0100  0.9069
  682MOL0     H89963   7.934   7.307   4.626 -1.4833 -0.6722 -1.4621
  682MOL0     H89964   7.946   7.144   4.706  1.4110  1.2194  1.1282
  682MOL0     H89965   7.919   7.253   4.939 -0.2063  0.0669 -0.5594
  682MOL0     H89966   7.914   7.408   4.857 -2.4879 -1.5589  0.7350
  682MOL0     H89967   8.166   7.226   4.841 -2.0138 -0.2457  0.6468
  682MOL0     H89968   8.144   7.384   4.779 -0.1593 -1.6824 -2.0074
  682MOL0     H89969   8.115   7.335   5.085  1.2137  0.7089  1.4396
  682MOL0     H89970   8.131   7.483   4.994  2.5856  0.7598 -1.6477
  682MOL0     H89971   8.347   7.277   5.013  0.3430  0.4775  2.5883
  682MOL0     H89972   8.346   7.429   5.109  3.4926  1.3273 -1.5443
  682MOL0     H89973   8.493   7.395   4.894 -0.8527 -1.1217 -1.7752
  682MOL0     H89974   8.336   7.454   4.825  1.3164 -2.2067 -1.2828
  682MOL0     H89975   8.543   7.614   4.894  0.1811 -2.4434  0.3178
  682MOL0     H89976   8.499   7.575   5.059 -1.9276  5.0349  1.4383
  682MOL0     H89977   8.325   7.732   4.741  1.2075 -0.6484  0.1982
  682MOL0     H89978   8.110   7.872   4.709  0.8076  1.9965  1.2763
  682MOL0     H89979   8.033   7.947   4.856  1.0907  1.1343  0.2518
  682MOL0     H89980   7.944   7.708   4.913  2.3869 -0.4780  0.0251
  682MOL0     H89981   8.005   7.668   4.762  0.3629  0.5168 -0.2873
  682MOL0     H89982   7.814   7.906   4.782  0.5951 -0.4991  0.5269
  682MOL0     H89983   7.865   7.810   4.634  2.1157 -0.0438  0.3020
  682MOL0     H89984   7.692   7.724   4.870 -0.4167  1.9689 -0.0358
  682MOL0     H89985   7.751   7.613   4.735 -3.8543 -1.1900  1.5956
  682MOL0     H89986   7.391   7.772   4.551  0.6743  1.6581  1.0946
  682MOL0     H89987   7.177   7.660   4.585 -2.4388 -0.6408  1.4404
  682MOL0     H89988   6.840   7.648   4.627  3.5966 -0.2694  1.1076
  682MOL0     H89989   6.589   7.607   4.648 -1.2364 -1.9274 -2.5121
  682MOL0     H89990   6.324   7.302   4.833  0.7862 -4.0130  2.4303
  682MOL0     H89991   6.479   7.247   4.869 -0.8581  0.4011  1.4279
  682MOL0     H89992   6.320   7.090   4.752  0.4958  1.6969  2.6675
  682MOL0     H89993   6.485   7.102   4.670 -0.5454 -0.7098 -1.8975
  682MOL0     H89994   6.306   7.111   4.508  2.5322  0.6204 -1.8440
  682MOL0     H89995   6.414   7.243   4.516  0.4989 -2.3070 -0.6396
  682MOL0     H89996   6.225   7.371   4.642  0.9933 -0.6405  0.8606
  682MOL0     H89997   6.164   7.313   4.481  0.8479  2.3785  0.3683
  682MOL0     H89998   6.120   7.172   4.741  2.8886 -0.5689 -0.6551
  682MOL0     H89999   6.084   7.104   4.580 -0.8582  1.5907 -2.6822
  682MOL0     H90000   5.927   7.326   4.552 -0.9949  2.7393  1.0390
  682MOL0     H90001   5.953   7.353   4.723  0.5740 -0.2898  0.4395
  682MOL0     H90002   5.865   7.089   4.621  0.0365  0.3816  1.0630
  682MOL0     H90003   5.867   7.152   4.782  1.6956 -0.8685 -0.2308
  682MOL0     H90004   5.674   7.247   4.559 -2.6025  0.7138  0.6889
  682MOL0     H90005   5.689   7.293   4.733 -0.3576 -1.3671  1.8084
  682MOL0     H90006   6.680   7.204   4.770 -1.2110  0.9903  0.5449
  682MOL0     H90007   6.919   7.244   4.743 -0.4176 -0.4559 -2.1610
  682MOL0     H90008   7.370   7.407   4.883  0.5173  0.8205  2.4226
  682MOL0     H90009   7.567   7.514   4.843  1.6247  0.4431 -2.1743
  682MOL0     H90010   7.672   7.200   4.355 -0.6512  0.3648 -0.9127
  682MOL0     H90011   7.444   7.167   4.249 -3.4379  0.1390 -0.0270
  682MOL0     H90012   7.136   7.150   4.144 -0.8174  0.7356 -0.2456
  682MOL0     H90013   6.956   7.108   3.980 -0.1483  1.7513 -0.5859
  682MOL0     H90014   6.754   7.105   3.837  2.1751  0.8613  0.8330
  682MOL0     H90015   6.673   7.239   3.928  1.7900  1.1011 -2.7311
  682MOL0     H90016   6.561   6.969   3.830  0.8922  1.2599 -3.8387
  682MOL0     H90017   6.480   7.074   3.941  1.1627  2.4067  0.6690
  682MOL0     H90018   6.484   7.254   3.767  3.0494  0.8056  0.1183
  682MOL0     H90019   6.408   7.111   3.712  0.9573 -0.5614 -3.5371
  682MOL0     H90020   6.536   7.195   3.535  1.0777  1.1117 -0.2086
  682MOL0     H90021   6.679   7.210   3.647 -0.0597 -0.0693 -1.4021
  682MOL0     H90022   6.702   6.821   3.514  0.2870 -0.2336  2.1563
  682MOL0     H90023   6.664   7.154   4.282 -0.8725  2.4910  0.5509
  682MOL0     H90024   6.828   7.210   4.436 -0.4901 -4.0693 -0.7352
  683MOL0     O90025   7.878   6.202   9.799  0.0340 -0.1177  0.6926
  683MOL0     C90026   7.806   6.301   9.793 -0.7747 -0.2624 -0.1523
  683MOL0     O90027   7.828   6.411   9.703 -0.3713  0.1598  0.0789
  683MOL0     C90028   7.930   6.401   9.610  0.6361 -0.3559  0.2679
  683MOL0     C90029   8.065   6.430   9.636  0.1514  0.0651  0.0444
  683MOL0     C90030   8.171   6.424   9.534 -0.2421 -1.0442  0.0388
  683MOL0     C90031   8.130   6.389   9.406 -0.6503 -0.3862 -0.3397
  683MOL0     O90032   8.210   6.391   9.296  0.6032  0.0796  0.0357
  683MOL0     C90033   8.353   6.373   9.307  0.2698  0.4905 -0.8119
  683MOL0     C90034   8.431   6.344   9.168  0.3366 -0.1741  1.0272
  683MOL0     C90035   8.576   6.318   9.200 -0.8964 -0.0148 -1.6978
  683MOL0     C90036   8.662   6.308   9.071 -0.0666  0.4388 -0.4793
  683MOL0     C90037   8.810   6.285   9.108  0.6573 -0.0834  0.7310
  683MOL0     C90038   8.902   6.249   8.984  1.2052 -0.6753 -1.0360
  683MOL0     C90039   9.026   6.173   9.039 -0.8306 -0.2411  0.5611
  683MOL0     C90040   9.132   6.146   8.934 -0.2716 -0.9373  1.8137
  683MOL0     N90041   9.070   6.063   8.827 -1.0912  0.6861 -0.0189
  683MOL0     C90042   9.024   6.105   8.704  0.2037 -0.8008  0.3134
  683MOL0     C90043   8.974   5.987   8.644 -0.0902  0.4159  0.0587
  683MOL0     C90044   8.904   5.972   8.510 -0.4438  0.3348  0.7756
  683MOL0     C90045   8.760   5.925   8.514 -0.1798 -0.7159  0.1338
  683MOL0     C90046   8.653   6.033   8.561  0.3421 -0.6419 -0.4200
  683MOL0     C90047   8.500   5.991   8.577 -0.4073  0.2279 -0.6450
  683MOL0     O90048   8.427   6.100   8.641  0.0560 -0.3669  0.2631
  683MOL0     C90049   8.294   6.072   8.683 -0.2279  0.1517  0.0169
  683MOL0     C90050   8.191   6.073   8.592  0.4134 -0.0979  0.1051
  683MOL0     C90051   8.064   6.040   8.631  0.3269 -0.6619  0.1983
  683MOL0     C90052   8.034   6.000   8.758 -0.0465  0.9498 -0.3269
  683MOL0     C90053   7.891   5.980   8.798 -0.6750 -0.6968  0.2746
  683MOL0     O90054   7.866   6.008   8.925  0.7831 -0.0907  0.2585
  683MOL0     C90055   7.747   6.003   8.997  1.6800 -0.0021 -0.0537
  683MOL0     C90056   7.746   6.034   9.131 -0.2306 -0.1414 -0.4418
  683MOL0     C90057   7.624   6.033   9.207 -0.0039 -0.5690  0.4804
  683MOL0     C90058   7.506   6.003   9.146  0.3411  0.2335 -0.4094
  683MOL0     O90059   7.392   6.022   9.225 -0.6452 -0.1356 -0.6287
  683MOL0     C90060   7.339   5.900   9.292  0.7890 -0.4330  0.6473
  683MOL0     C90061   7.221   5.948   9.372 -0.4353 -0.9346  0.7141
  683MOL0     C90062   7.152   5.840   9.458 -0.4567  0.8855 -0.2247
  683MOL0     C90063   7.015   5.887   9.520 -0.9402 -0.1122  0.1526
  683MOL0     C90064   6.932   5.768   9.573  0.5575  0.4563 -0.6005
  683MOL0     C90065   6.783   5.813   9.598 -0.8504  0.3205 -0.4265
  683MOL0     C90066   6.695   5.707   9.654  0.5880  0.0727  0.0004
  683MOL0     C90067   6.551   5.745   9.675  0.2270  0.1371  0.5030
  683MOL0    Cl90068   6.479   5.634   9.785  0.0282 -0.0026  0.1054
  683MOL0     C90069   7.499   5.971   9.011  0.3415  0.2008 -0.0838
  683MOL0     C90070   7.618   5.964   8.933  1.4551  0.1561  0.3838
  683MOL0     O90071   7.805   5.958   8.717  0.2069 -0.2895  0.0210
  683MOL0     C90072   8.140   6.000   8.849  0.8970 -0.3431  0.6283
  683MOL0     C90073   8.271   6.022   8.809  0.3140 -0.5314 -0.8997
  683MOL0     N90074   8.990   5.886   8.731 -0.5395  0.4988  0.1361
  683MOL0     N90075   9.064   5.932   8.825  0.1203  0.9079 -0.2058
  683MOL0     C90076   7.999   6.362   9.379 -0.2127 -0.2823  0.0523
  683MOL0     C90077   7.904   6.365   9.482  0.1105 -1.2732  0.4363
  683MOL0     C90078   7.692   6.307   9.879 -0.1481 -0.8989  0.6292
  683MOL0     C90079   7.698   6.232  10.002  0.2569 -0.1736  0.7981
  683MOL0     C90080   7.591   6.240  10.087  1.4541  0.0735 -0.1753
  683MOL0     C90081   7.469   6.313  10.052  0.2986 -0.2734 -0.2350
  683MOL0     O90082   7.362   6.334  10.129  0.6098 -0.4452  0.0340
  683MOL0     C90083   7.371   6.293  10.262  0.6943 -0.4658  0.4763
  683MOL0     C90084   7.251   6.316  10.345  0.3251 -0.3168  0.1301
  683MOL0     C90085   7.206   6.458  10.350 -0.2553 -0.1958  0.0239
  683MOL0     C90086   7.088   6.474  10.443  1.0301  0.6565 -0.4077
  683MOL0     C90087   6.974   6.380  10.429 -0.5245 -0.1397  0.6968
  683MOL0     C90088   6.881   6.308  10.402 -0.9043 -0.5801  0.2563
  683MOL0     C90089   7.467   6.379   9.928  0.6028  0.1154  0.5423
  683MOL0     C90090   7.581   6.381   9.845  0.1392 -0.7394 -0.5840
  683MOL0     H90091   8.102   6.445   9.737 -1.6129  0.9218  0.6052
  683MOL0     H90092   8.269   6.456   9.567 -0.8025  0.9043 -0.0525
  683MOL0     H90093   8.374   6.298   9.383 -2.7036  1.3731  1.0620
  683MOL0     H90094   8.392   6.470   9.341  2.9555 -1.2585  1.5540
  683MOL0     H90095   8.406   6.421   9.095 -0.3835 -0.9420  0.4526
  683MOL0     H90096   8.394   6.250   9.129  1.6442  0.0894 -1.0016
  683MOL0     H90097   8.586   6.229   9.263 -0.3671  0.5092 -1.0141
  683MOL0     H90098   8.607   6.406   9.258 -2.1793  0.9537 -2.4395
  683MOL0     H90099   8.636   6.214   9.022  0.0539  1.0551 -1.7544
  683MOL0     H90100   8.649   6.392   9.002 -1.0985  1.8317  1.3140
  683MOL0     H90101   8.815   6.206   9.184 -1.2849 -0.2937  0.6981
  683MOL0     H90102   8.858   6.376   9.143  2.4965  0.2734 -2.3876
  683MOL0     H90103   8.943   6.340   8.940  1.0239 -1.1926 -2.3218
  683MOL0     H90104   8.842   6.196   8.910  0.0761 -0.2758 -0.4276
  683MOL0     H90105   9.072   6.209   9.132 -2.7560  0.4331  1.3034
  683MOL0     H90106   8.984   6.076   9.065  0.9854 -1.5863 -1.1941
  683MOL0     H90107   9.225   6.105   8.974  2.0059 -1.1752 -3.0783
  683MOL0     H90108   9.174   6.238   8.893 -3.1286  0.1683  1.1229
  683MOL0     H90109   9.029   6.206   8.663  2.5346 -1.6506 -1.7966
  683MOL0     H90110   8.954   5.897   8.448 -0.7151  1.5787 -1.0438
  683MOL0     H90111   8.908   6.064   8.450 -1.3051 -1.6829 -2.6377
  683MOL0     H90112   8.746   5.835   8.574  0.9554 -1.1644 -0.2536
  683MOL0     H90113   8.724   5.902   8.413  0.3138  2.4937 -0.8899
  683MOL0     H90114   8.686   6.059   8.662 -2.3756 -2.1652  0.9760
  683MOL0     H90115   8.649   6.120   8.495 -2.0610  0.2585  0.7936
  683MOL0     H90116   8.492   5.898   8.634 -2.1452  0.5893 -0.2477
  683MOL0     H90117   8.450   5.980   8.480 -1.3997  3.3222 -0.5860
  683MOL0     H90118   8.215   6.112   8.494  0.1168  1.2532  0.5407
  683MOL0     H90119   7.984   6.036   8.558 -2.1290 -0.1271  2.6869
  683MOL0     H90120   7.844   6.067   9.163  1.6742 -4.8456 -0.7470
  683MOL0     H90121   7.630   6.049   9.314  0.9704  1.3168  0.1820
  683MOL0     H90122   7.413   5.863   9.363  2.3305 -2.6517 -1.9131
  683MOL0     H90123   7.303   5.822   9.225 -0.1605 -0.2702  0.9490
  683MOL0     H90124   7.147   5.984   9.299  0.6020 -3.1577 -1.6043
  683MOL0     H90125   7.249   6.039   9.426 -0.4021  1.9806 -3.7161
  683MOL0     H90126   7.225   5.805   9.532  2.3448  0.7408 -2.8698
  683MOL0     H90127   7.131   5.747   9.403 -0.8358  0.2345  0.9844
  683MOL0     H90128   7.039   5.942   9.611 -0.9333 -2.1524  1.4374
  683MOL0     H90129   6.965   5.945   9.441  2.3608 -0.9438 -2.7576
  683MOL0     H90130   6.973   5.731   9.667  1.9907 -0.9927 -1.7551
  683MOL0     H90131   6.939   5.689   9.499  2.5465 -0.7159  0.7538
  683MOL0     H90132   6.753   5.855   9.502  0.8591  0.8461 -0.7532
  683MOL0     H90133   6.783   5.901   9.664  1.3128 -0.0422  0.1140
  683MOL0     H90134   6.706   5.614   9.599  0.5759 -0.7504  1.3285
  683MOL0     H90135   6.731   5.684   9.755 -1.6856 -1.6995  0.4960
  683MOL0     H90136   6.486   5.736   9.588 -1.6014 -0.1718  1.8418
  683MOL0     H90137   6.554   5.843   9.724 -0.5568 -0.5510  1.9879
  683MOL0     H90138   7.398   5.964   8.971 -0.4402  2.5786  1.3019
  683MOL0     H90139   7.604   5.947   8.827  0.0982 -0.1174  0.5897
  683MOL0     H90140   8.118   5.981   8.954 -5.2916 -2.6902 -0.6879
  683MOL0     H90141   8.352   6.022   8.881  0.7533 -3.3850 -1.2843
  683MOL0     H90142   7.966   6.319   9.285 -0.1899 -0.5823  0.1805
  683MOL0     H90143   7.797   6.351   9.470 -0.5275  2.3394  0.7030
  683MOL0     H90144   7.793   6.188  10.030 -0.0143 -1.1646  0.2344
  683MOL0     H90145   7.597   6.203  10.189 -0.0069 -2.2079 -0.8285
  683MOL0     H90146   7.442   6.355  10.316  0.2303  0.4458  0.0712
  683MOL0     H90147   7.390   6.186  10.276 -1.6143 -0.7683  1.7909
  683MOL0     H90148   7.168   6.257  10.304 -0.3884  0.5606  0.2911
  683MOL0     H90149   7.269   6.293  10.451  2.0375  0.6365  0.0825
  683MOL0     H90150   7.204   6.498  10.248  0.4954 -0.0463  0.0631
  683MOL0     H90151   7.283   6.522  10.393 -0.6658  0.8578 -0.7661
  683MOL0     H90152   7.112   6.464  10.549  0.4668 -1.0729 -0.4092
  683MOL0     H90153   7.047   6.575  10.432  0.7149  0.8185  1.8307
  683MOL0     H90154   6.809   6.239  10.363  0.7107 -1.0998 -2.0113
  683MOL0     H90155   7.379   6.433   9.895 -0.4330  0.0201  2.8944
  683MOL0     H90156   7.557   6.443   9.758 -1.7343 -0.5620  0.0152
  684MOL0     O90157   6.074   0.532   9.369  0.0757 -0.1591  0.5694
  684MOL0     C90158   6.065   0.409   9.391 -0.2539 -0.6456 -1.1041
  684MOL0     O90159   5.957   0.345   9.439 -0.9177 -0.6862 -0.0369
  684MOL0     C90160   5.827   0.396   9.443  0.8473 -0.3467  0.4327
  684MOL0     C90161   5.779   0.503   9.364  0.6125  0.3755  0.4286
  684MOL0     C90162   5.644   0.547   9.365 -0.3637 -0.9278  0.4702
  684MOL0     C90163   5.558   0.484   9.450  0.0654 -0.0401  0.5687
  684MOL0     O90164   5.423   0.506   9.464  0.3289  0.1384  0.0875
  684MOL0     C90165   5.367   0.631   9.432 -0.2139  0.0407 -0.8036
  684MOL0     C90166   5.217   0.630   9.481 -0.3106 -0.9316  0.0752
  684MOL0     C90167   5.128   0.507   9.446 -0.5829  0.1658 -0.9089
  684MOL0     C90168   4.996   0.515   9.517 -0.2714  0.2357 -0.2235
  684MOL0     C90169   4.907   0.387   9.494 -0.3061  0.0285  0.9996
  684MOL0     C90170   4.773   0.406   9.566 -0.3130 -0.3366  0.0673
  684MOL0     C90171   4.665   0.312   9.521  0.1726 -0.2913 -1.1610
  684MOL0     C90172   4.558   0.309   9.628 -0.3675  0.1993 -0.0928
  684MOL0     N90173   4.446   0.214   9.600 -0.7328  0.6766 -0.3414
  684MOL0     C90174   4.435   0.088   9.657 -0.0390 -0.6531 -0.0822
  684MOL0     C90175   4.310   0.054   9.625  0.4579  0.5105  0.0316
  684MOL0     C90176   4.259  -0.082   9.656  0.5989 -0.2572  0.3537
  684MOL0     C90177   4.144  -0.098   9.769 -0.5525 -0.7636 -0.7921
  684MOL0     C90178   4.025  -0.004   9.759  0.4272  0.4029 -0.5890
  684MOL0     C90179   3.907  -0.059   9.836  0.5909  0.2742  0.4674
  684MOL0     O90180   3.868  -0.185   9.769 -0.0147 -0.9192  0.0760
  684MOL0     C90181   3.732  -0.211   9.761 -0.1753  0.3039 -0.4002
  684MOL0     C90182   3.684  -0.275   9.644 -0.3063  0.6998  0.5776
  684MOL0     C90183   3.547  -0.295   9.621 -0.1702 -0.5012 -0.2541
  684MOL0     C90184   3.461  -0.268   9.726  0.9495 -0.0982 -0.4362
  684MOL0     C90185   3.313  -0.300   9.709 -0.6852  0.8577 -0.4663
  684MOL0     O90186   3.229  -0.251   9.801  0.4868  0.4231 -0.0445
  684MOL0     C90187   3.088  -0.265   9.786  0.2735 -0.2390 -0.0074
  684MOL0     C90188   3.007  -0.349   9.868 -0.5160 -0.1320  0.2643
  684MOL0     C90189   2.868  -0.366   9.846 -0.3448  0.5210 -1.2497
  684MOL0     C90190   2.800  -0.289   9.742 -0.3172  0.5952  0.0493
  684MOL0     O90191   2.672  -0.296   9.705 -0.1916  0.1945 -0.6216
  684MOL0     C90192   2.578  -0.400   9.762 -0.8933  0.6081  0.2329
  684MOL0     C90193   2.439  -0.368   9.725  0.4654  0.0318 -0.1304
  684MOL0     C90194   2.412  -0.336   9.571  0.2173 -0.1656 -0.0219
  684MOL0     C90195   2.275  -0.287   9.554 -0.1470 -0.1074  0.6032
  684MOL0     C90196   2.165  -0.380   9.582  0.0809  0.3292  0.0937
  684MOL0     C90197   2.113  -0.430   9.449 -0.1703  0.5510  0.0408
  684MOL0     C90198   2.001  -0.535   9.488 -0.1206 -0.0929  0.2178
  684MOL0     C90199   1.944  -0.605   9.369  0.1239 -0.7115  0.4451
  684MOL0    Cl90200   1.821  -0.731   9.413  0.1384  0.1975  0.1354
  684MOL0     C90201   2.878  -0.200   9.667  0.0542 -0.7241 -0.8358
  684MOL0     C90202   3.021  -0.186   9.685 -0.3568  0.3048  0.8523
  684MOL0     O90203   3.294  -0.386   9.624  0.4267 -0.3789  0.4554
  684MOL0     C90204   3.505  -0.219   9.853  0.3308 -0.1024  0.2230
  684MOL0     C90205   3.642  -0.184   9.867  0.9975  0.7224 -0.0170
  684MOL0     N90206   4.247   0.148   9.545 -1.0364  0.5537 -0.2211
  684MOL0     N90207   4.334   0.241   9.527 -0.4326 -0.2156 -1.1748
  684MOL0     C90208   5.608   0.380   9.541 -0.2261 -1.0934 -0.4624
  684MOL0     C90209   5.738   0.338   9.526 -0.2217  0.3165  0.5880
  684MOL0     C90210   6.187   0.330   9.383  0.3395 -0.3341 -0.0017
  684MOL0     C90211   6.310   0.392   9.347 -1.2018  0.7808  0.0282
  684MOL0     C90212   6.429   0.313   9.327  0.1788  0.5750  0.5645
  684MOL0     C90213   6.422   0.174   9.342  0.4917 -0.3424 -0.8222
  684MOL0     O90214   6.530   0.097   9.333  0.0649  0.2502 -0.4321
  684MOL0     C90215   6.653   0.151   9.270 -0.0389  0.0741  0.0978
  684MOL0     C90216   6.743   0.037   9.228 -0.5994 -0.2451  0.4670
  684MOL0     C90217   6.869   0.073   9.153 -0.6277 -0.3849 -0.5170
  684MOL0     C90218   6.845   0.125   9.018 -1.0673 -0.5471 -0.9463
  684MOL0     C90219   6.973   0.194   8.974  0.4341 -0.2424  0.9471
  684MOL0     C90220   7.076   0.256   8.938 -0.3725 -0.2546  0.8574
  684MOL0     C90221   6.302   0.120   9.398 -1.4377 -0.2295  0.4919
  684MOL0     C90222   6.192   0.194   9.421 -0.9374  0.3666 -0.0643
  684MOL0     H90223   5.851   0.558   9.304 -0.2935  0.7903 -0.2986
  684MOL0     H90224   5.611   0.622   9.294 -1.3770 -2.0771 -0.3227
  684MOL0     H90225   5.366   0.652   9.324  0.0354  0.6898 -0.6847
  684MOL0     H90226   5.426   0.716   9.469  0.9324 -1.1974  0.2951
  684MOL0     H90227   5.167   0.722   9.449  3.5687  0.9159 -1.3456
  684MOL0     H90228   5.227   0.643   9.589 -2.5374 -0.1382  0.2354
  684MOL0     H90229   5.180   0.421   9.490 -3.8623 -2.4956 -1.7526
  684MOL0     H90230   5.114   0.486   9.339  1.5204 -0.2630 -1.1430
  684MOL0     H90231   5.018   0.531   9.623  0.2988  1.6377 -0.5282
  684MOL0     H90232   4.939   0.604   9.487 -1.9324 -0.3665  1.0124
  684MOL0     H90233   4.961   0.299   9.529  1.8843 -0.3729 -2.7534
  684MOL0     H90234   4.898   0.371   9.386  1.9847 -1.0981  0.9046
  684MOL0     H90235   4.744   0.509   9.548 -0.1362  0.0457  1.7481
  684MOL0     H90236   4.800   0.399   9.672  0.6596  2.4327  0.0806
  684MOL0     H90237   4.635   0.347   9.422  2.3679  1.9351 -1.1273
  684MOL0     H90238   4.706   0.212   9.504 -0.0374 -0.5386 -0.2593
  684MOL0     H90239   4.505   0.404   9.642 -1.3256 -0.3273 -0.0343
  684MOL0     H90240   4.610   0.286   9.722  1.0742  2.7789 -0.1546
  684MOL0     H90241   4.509   0.036   9.717 -0.4307 -0.3889  0.6495
  684MOL0     H90242   4.342  -0.147   9.685 -1.0013 -2.4911  0.2117
  684MOL0     H90243   4.212  -0.118   9.564  2.6897  0.0424 -0.8898
  684MOL0     H90244   4.195  -0.081   9.864  0.5405 -0.1152 -1.4671
  684MOL0     H90245   4.107  -0.201   9.759  1.4028 -1.5638 -0.2042
  684MOL0     H90246   4.047   0.097   9.797  0.5214  0.2921 -0.3491
  684MOL0     H90247   3.999   0.001   9.653  2.3634  2.8481 -1.0428
  684MOL0     H90248   3.828   0.017   9.835  0.2975 -0.0210  0.7761
  684MOL0     H90249   3.928  -0.071   9.943  0.5601  2.4023  0.7497
  684MOL0     H90250   3.760  -0.311   9.575  2.0105  0.4359  3.0679
  684MOL0     H90251   3.516  -0.332   9.523  2.6198 -0.6741 -1.1630
  684MOL0     H90252   3.057  -0.394   9.952  0.4825  1.4853  0.5652
  684MOL0     H90253   2.810  -0.429   9.913 -0.8308  0.1637 -1.9883
  684MOL0     H90254   2.583  -0.402   9.871  0.8578 -0.0006  0.1678
  684MOL0     H90255   2.602  -0.502   9.731 -0.8588  0.4997  0.6179
  684MOL0     H90256   2.417  -0.278   9.782 -0.0431 -0.6127  0.7164
  684MOL0     H90257   2.380  -0.454   9.757 -0.3164  1.1520  1.5579
  684MOL0     H90258   2.445  -0.419   9.508  0.8467  2.1470 -2.9838
  684MOL0     H90259   2.482  -0.259   9.538 -0.5679  0.9757  0.8735
  684MOL0     H90260   2.265  -0.211   9.633  0.8252  0.0196  0.6144
  684MOL0     H90261   2.272  -0.234   9.459  0.4464  0.8985  1.1190
  684MOL0     H90262   2.085  -0.343   9.646 -0.3938 -0.3878 -0.0703
  684MOL0     H90263   2.209  -0.471   9.625 -0.9961 -0.3130 -0.1346
  684MOL0     H90264   2.195  -0.481   9.396 -0.3499  0.8044 -0.4945
  684MOL0     H90265   2.070  -0.340   9.405 -3.0830 -0.0423  1.4001
  684MOL0     H90266   2.045  -0.596   9.568  2.2008  1.4645  0.2354
  684MOL0     H90267   1.910  -0.487   9.523 -0.8449 -0.3742 -1.2052
  684MOL0     H90268   2.030  -0.636   9.308  2.2756  0.9845  2.3905
  684MOL0     H90269   1.898  -0.524   9.311 -0.1916 -2.1731 -1.4198
  684MOL0     H90270   2.823  -0.153   9.586 -2.2112 -4.5541 -1.7797
  684MOL0     H90271   3.085  -0.136   9.613  2.2324 -0.9486  2.1458
  684MOL0     H90272   3.437  -0.200   9.936  1.9336  2.5339  1.0559
  684MOL0     H90273   3.671  -0.129   9.956 -1.7203  2.2139  0.0687
  684MOL0     H90274   5.546   0.328   9.613 -3.4619 -2.3587 -3.8692
  684MOL0     H90275   5.770   0.246   9.573  1.5675 -0.8097 -2.5319
  684MOL0     H90276   6.316   0.494   9.311  1.8866  1.3542  1.7948
  684MOL0     H90277   6.522   0.362   9.301  1.0018 -0.4387  1.5035
  684MOL0     H90278   6.700   0.213   9.347 -0.3223 -0.5450  0.7760
  684MOL0     H90279   6.628   0.217   9.187 -3.1304  1.4417  1.9481
  684MOL0     H90280   6.770  -0.007   9.324  0.7878 -0.5422 -0.0346
  684MOL0     H90281   6.679  -0.034   9.174  0.0726  0.3117 -1.1241
  684MOL0     H90282   6.928  -0.018   9.153 -1.5994 -1.2602  4.0265
  684MOL0     H90283   6.920   0.150   9.212  1.1424  0.3047 -2.7902
  684MOL0     H90284   6.813   0.038   8.960 -2.2259 -1.4913  1.0002
  684MOL0     H90285   6.767   0.201   9.028 -0.2693  0.1098  0.4981
  684MOL0     H90286   7.168   0.307   8.919 -2.9128  3.7196 -2.2083
  684MOL0     H90287   6.288   0.016   9.425  0.6147 -0.7572 -0.2817
  684MOL0     H90288   6.108   0.138   9.461 -0.3073 -1.6807 -1.4264
  685MOL0     O90289   1.572  10.420   2.397  0.8309  0.5512 -0.4811
  685MOL0     C90290   1.537  10.436   2.279  0.0032 -0.6986 -0.5658
  685MOL0     O90291   1.412  10.427   2.234 -0.4194 -0.5301 -0.1329
  685MOL0     C90292   1.322  10.441   2.335 -0.7380  0.2139 -0.1364
  685MOL0     C90293   1.275  10.334   2.405 -0.2675 -0.1784  0.0135
  685MOL0     C90294   1.183  10.357   2.508  0.1805 -0.0200  0.2697
  685MOL0     C90295   1.132  10.485   2.535 -0.0283  0.6677  0.6350
  685MOL0     O90296   1.059  10.492   2.648  0.4115 -0.1881 -0.1340
  685MOL0     C90297   1.067  10.624   2.712  0.4334  0.5204 -0.5434
  685MOL0     C90298   0.995  10.622   2.849 -0.4687  0.0741  0.1000
  685MOL0     C90299   0.851  10.582   2.834 -0.3911 -1.0440 -0.0307
  685MOL0     C90300   0.782  10.612   2.969 -1.1418 -0.7278  0.8929
  685MOL0     C90301   0.645  10.543   2.962 -0.0023 -0.4634 -0.1185
  685MOL0     C90302   0.586  10.533   3.106 -0.9906 -0.1460  1.0862
  685MOL0     C90303   0.471  10.438   3.114  0.4368 -0.2313  0.4944
  685MOL0     C90304   0.349  10.483   3.029  0.9083  0.0872 -0.6117
  685MOL0     N90305   0.228  10.411   3.045 -0.3099  0.2326 -0.1734
  685MOL0     C90306   0.189  10.319   3.140  0.7960 -0.2664 -0.6098
  685MOL0     C90307   0.055  10.310   3.135  0.4828 -1.1779 -0.5059
  685MOL0     C90308  -0.034  10.215   3.208 -0.6704  0.1579  0.5465
  685MOL0     C90309  -0.063  10.248   3.356 -0.3366 -0.1829  0.6366
  685MOL0     C90310  -0.139  10.380   3.366 -0.0605  0.4667  0.4236
  685MOL0     C90311  -0.283  10.362   3.332 -0.3227 -0.9423  0.2142
  685MOL0     O90312  -0.330  10.497   3.312  0.0413 -0.7734 -0.0822
  685MOL0     C90313  -0.456  10.518   3.361  0.7103 -0.4283 -0.0470
  685MOL0     C90314  -0.493  10.650   3.396  0.1679 -0.2929 -0.5949
  685MOL0     C90315  -0.624  10.685   3.427  0.5435  0.2828 -0.1809
  685MOL0     C90316  -0.723  10.584   3.446  0.4608  0.5075  0.1946
  685MOL0     C90317  -0.848  10.628   3.513 -0.3322 -0.2206 -0.2364
  685MOL0     O90318  -0.902  10.538   3.602 -0.4343  0.1464  0.2500
  685MOL0     C90319  -1.034  10.541   3.630  0.3780 -0.2047 -0.0340
  685MOL0     C90320  -1.080  10.582   3.756 -0.2729  0.5023  0.9391
  685MOL0     C90321  -1.217  10.574   3.795 -0.5296 -0.8010  0.8206
  685MOL0     C90322  -1.314  10.531   3.693  0.9628  0.4215  0.0880
  685MOL0     O90323  -1.449  10.523   3.709 -0.3164 -0.3526 -0.8827
  685MOL0     C90324  -1.535  10.642   3.733 -0.6221  0.9398 -0.4060
  685MOL0     C90325  -1.684  10.602   3.702 -0.1231 -0.6563 -0.1012
  685MOL0     C90326  -1.777  10.722   3.725 -0.1864 -0.2053 -0.3678
  685MOL0     C90327  -1.933  10.695   3.717 -0.4504  0.5346  0.7578
  685MOL0     C90328  -1.979  10.584   3.805  0.8693 -0.4923  0.4633
  685MOL0     C90329  -2.127  10.556   3.785  0.5285 -0.2464 -0.4665
  685MOL0     C90330  -2.216  10.655   3.859  0.9193  0.7002  0.2207
  685MOL0     C90331  -2.363  10.611   3.873 -0.2671 -0.4553 -0.2827
  685MOL0    Cl90332  -2.455  10.610   3.719  0.2277 -0.0583  0.5776
  685MOL0     C90333  -1.271  10.507   3.565  0.0129  0.1124  0.4900
  685MOL0     C90334  -1.129  10.517   3.534  1.3936  0.4592  0.6672
  685MOL0     O90335  -0.903  10.732   3.477  0.0616 -1.8115  0.3333
  685MOL0     C90336  -0.689  10.450   3.432 -0.6241  0.1465  0.2482
  685MOL0     C90337  -0.558  10.415   3.383 -0.4277  1.0082  0.0502
  685MOL0     N90338   0.009  10.402   3.040  0.5057  0.2913 -0.0932
  685MOL0     N90339   0.109  10.461   2.995  0.8554 -0.5628 -0.4022
  685MOL0     C90340   1.166  10.592   2.443  0.1385  0.0611 -0.1684
  685MOL0     C90341   1.263  10.565   2.348 -0.0191 -0.0284  0.7896
  685MOL0     C90342   1.639  10.460   2.176 -0.9246  0.1033  0.2054
  685MOL0     C90343   1.601  10.490   2.043 -0.1623 -0.2507  0.9432
  685MOL0     C90344   1.705  10.529   1.957  0.0608 -0.8483  1.3868
  685MOL0     C90345   1.840  10.531   1.991 -0.1134  0.2984 -0.8969
  685MOL0     O90346   1.921  10.596   1.902  0.5458  0.4138  0.3344
  685MOL0     C90347   2.052  10.631   1.939  0.6503 -0.3218 -0.1442
  685MOL0     C90348   2.136  10.676   1.817 -0.2153 -0.8520  0.9642
  685MOL0     C90349   2.279  10.733   1.864  0.1363 -0.4501  0.2890
  685MOL0     C90350   2.351  10.782   1.735 -0.8113 -0.0281 -0.1044
  685MOL0     C90351   2.300  10.904   1.689 -0.2209 -0.3711 -0.1227
  685MOL0     C90352   2.268  11.009   1.634 -0.0564  0.1715  0.0984
  685MOL0     C90353   1.874  10.492   2.117 -0.1421  0.5200 -0.5954
  685MOL0     C90354   1.773  10.462   2.211  0.1168 -0.4632  0.4452
  685MOL0     H90355   1.300  10.232   2.377  1.8546  0.0674  0.8421
  685MOL0     H90356   1.146  10.270   2.562 -1.0405 -0.8028 -1.7229
  685MOL0     H90357   1.013  10.703   2.659 -1.7999  1.0205  2.2401
  685MOL0     H90358   1.171  10.645   2.737 -0.5879  0.4544  4.9430
  685MOL0     H90359   1.010  10.721   2.894  2.3441 -1.1216  2.1132
  685MOL0     H90360   1.035  10.547   2.918 -1.1535 -2.3382 -1.9797
  685MOL0     H90361   0.854  10.480   2.794  4.3135 -0.7967 -0.9154
  685MOL0     H90362   0.799  10.643   2.759 -1.4260 -0.7589  0.8986
  685MOL0     H90363   0.844  10.584   3.055  0.4785 -2.0035 -0.6174
  685MOL0     H90364   0.759  10.717   2.986 -0.0279 -0.3907  0.3939
  685MOL0     H90365   0.654  10.446   2.913 -1.0694 -0.7722  0.2586
  685MOL0     H90366   0.576  10.602   2.901  0.9519  0.0176 -0.7599
  685MOL0     H90367   0.566  10.634   3.144  1.2109  1.6165 -1.9894
  685MOL0     H90368   0.655  10.490   3.179  0.4694  0.9541  0.4131
  685MOL0     H90369   0.500  10.340   3.076 -1.5571 -1.0091  0.8540
  685MOL0     H90370   0.456  10.427   3.222  0.5432 -1.0041  0.4347
  685MOL0     H90371   0.377  10.477   2.923  0.0620 -0.4794 -0.8081
  685MOL0     H90372   0.319  10.586   3.051 -1.0957 -1.1204  3.0507
  685MOL0     H90373   0.244  10.256   3.210 -0.2286 -0.9916 -0.4327
  685MOL0     H90374   0.023  10.122   3.208  3.0338  2.1845 -0.7680
  685MOL0     H90375  -0.128  10.209   3.154  0.7846 -3.7270 -1.9346
  685MOL0     H90376   0.033  10.255   3.409  0.0933  2.8643 -0.3264
  685MOL0     H90377  -0.124  10.169   3.400 -2.0654 -0.5368 -2.1930
  685MOL0     H90378  -0.146  10.419   3.468 -0.4996  3.8706 -0.7896
  685MOL0     H90379  -0.091  10.461   3.311 -0.7242  2.1908  2.2896
  685MOL0     H90380  -0.336  10.307   3.410 -3.7157 -1.1003 -1.9991
  685MOL0     H90381  -0.294  10.304   3.240  3.7541 -3.0286  0.8383
  685MOL0     H90382  -0.427  10.736   3.383  1.8949 -1.5565 -0.6126
  685MOL0     H90383  -0.650  10.789   3.443  0.3027  0.1488  0.3022
  685MOL0     H90384  -1.011  10.621   3.830 -1.4217 -0.6177  2.6906
  685MOL0     H90385  -1.247  10.607   3.894 -0.0512 -1.4306  1.1837
  685MOL0     H90386  -1.515  10.719   3.658  0.6498  2.0361  1.0112
  685MOL0     H90387  -1.536  10.675   3.837 -4.4873 -0.4300  0.1481
  685MOL0     H90388  -1.710  10.518   3.766 -0.6870 -2.1513 -2.1759
  685MOL0     H90389  -1.688  10.574   3.596 -0.8468  1.6914 -0.7664
  685MOL0     H90390  -1.742  10.810   3.671 -1.2031  1.0980  1.0126
  685MOL0     H90391  -1.758  10.754   3.828 -1.2587 -2.7912  0.7305
  685MOL0     H90392  -1.977  10.788   3.756  2.3755  1.2132  2.7038
  685MOL0     H90393  -1.954  10.670   3.613  0.8366  1.6314  0.2002
  685MOL0     H90394  -1.963  10.609   3.911 -0.9987 -1.0260  0.8967
  685MOL0     H90395  -1.922  10.494   3.779  2.0191  0.8484 -1.9923
  685MOL0     H90396  -2.144  10.458   3.831 -0.2535  0.3114  0.4701
  685MOL0     H90397  -2.156  10.539   3.681 -0.8682 -3.9469  0.4015
  685MOL0     H90398  -2.179  10.667   3.961  1.1586  1.8897  0.0179
  685MOL0     H90399  -2.209  10.759   3.825 -0.9073  1.4111  1.8504
  685MOL0     H90400  -2.403  10.691   3.936  2.5155  2.1842 -1.6056
  685MOL0     H90401  -2.373  10.515   3.924 -1.2863 -0.3781 -0.3069
  685MOL0     H90402  -1.341  10.465   3.494 -0.2205 -0.2926  0.9537
  685MOL0     H90403  -1.099  10.463   3.445  2.3998  0.3352  1.0755
  685MOL0     H90404  -0.758  10.367   3.446 -1.8857  1.3410  1.3803
  685MOL0     H90405  -0.553  10.309   3.361 -1.3666  0.6941  1.2190
  685MOL0     H90406   1.134  10.693   2.463 -4.4814 -1.4090  1.2399
  685MOL0     H90407   1.311  10.632   2.278  2.8135 -0.2193  2.3895
  685MOL0     H90408   1.505  10.473   1.996  0.6506 -1.9440 -0.2267
  685MOL0     H90409   1.694  10.559   1.853  2.0286 -2.3077  0.6784
  685MOL0     H90410   2.102  10.544   1.983  0.6345 -0.3985 -0.2791
  685MOL0     H90411   2.048  10.703   2.021  0.3177 -2.1830  1.5396
  685MOL0     H90412   2.145  10.588   1.753  0.1866 -0.3490  0.3202
  685MOL0     H90413   2.075  10.748   1.762  0.0195 -1.4272 -0.0668
  685MOL0     H90414   2.327  10.645   1.908 -0.9535 -0.4114  1.6251
  685MOL0     H90415   2.278  10.817   1.934  0.2795  0.3010 -0.5848
  685MOL0     H90416   2.455  10.795   1.768  0.1016 -2.4156 -1.7187
  685MOL0     H90417   2.357  10.708   1.655  0.2606  1.8289 -1.8320
  685MOL0     H90418   2.238  11.103   1.593 -1.0807 -0.2160 -0.0648
  685MOL0     H90419   1.974  10.483   2.159 -1.0090 -0.7991  1.3425
  685MOL0     H90420   1.818  10.456   2.310  0.9985 -1.8562 -0.0088
  686MOL0     O90421   0.315   6.649   2.700  0.3047  0.6124 -0.2245
  686MOL0     C90422   0.309   6.745   2.774  0.0479 -1.4901 -0.6763
  686MOL0     O90423   0.203   6.818   2.821 -0.3964 -0.7791  0.0746
  686MOL0     C90424   0.079   6.783   2.790  0.3255 -0.3842 -0.3555
  686MOL0     C90425   0.035   6.653   2.807  1.0776  0.1846  1.2733
  686MOL0     C90426  -0.093   6.619   2.772  0.6318  0.5645  0.7015
  686MOL0     C90427  -0.191   6.715   2.732 -0.2119  0.4770 -0.0121
  686MOL0     O90428  -0.319   6.674   2.697 -0.4859 -0.0765  0.0858
  686MOL0     C90429  -0.399   6.636   2.808  0.3926 -0.2831 -0.6952
  686MOL0     C90430  -0.527   6.723   2.821 -0.5641 -0.5908  0.2569
  686MOL0     C90431  -0.606   6.719   2.701  0.3235 -0.2042  0.4219
  686MOL0     C90432  -0.581   6.833   2.604  0.4315 -0.2391 -0.3740
  686MOL0     C90433  -0.702   6.860   2.518  0.6615 -0.0208  0.9170
  686MOL0     C90434  -0.675   6.903   2.366 -0.2200 -0.3801 -0.0777
  686MOL0     C90435  -0.794   6.907   2.284  0.9896 -0.2820  0.8307
  686MOL0     C90436  -0.874   7.035   2.292 -0.4313  0.5328 -0.5264
  686MOL0     N90437  -1.007   7.041   2.232  0.6833 -0.0778  0.4796
  686MOL0     C90438  -1.034   6.997   2.103  0.2395 -0.3405  0.5332
  686MOL0     C90439  -1.163   7.011   2.091  0.5546 -0.1714 -0.0149
  686MOL0     C90440  -1.235   6.978   1.958  0.0137 -0.4128 -0.5882
  686MOL0     C90441  -1.357   7.074   1.935 -0.0986  0.6590  0.9482
  686MOL0     C90442  -1.422   7.038   1.804  0.8927 -0.9232  0.2705
  686MOL0     C90443  -1.539   7.125   1.751 -1.5985  0.3166 -0.1260
  686MOL0     O90444  -1.634   7.034   1.679 -0.4841  0.4639 -0.2462
  686MOL0     C90445  -1.765   7.057   1.695  0.8712  0.8859  0.1945
  686MOL0     C90446  -1.850   6.944   1.721 -0.3378  0.5092 -0.2065
  686MOL0     C90447  -1.991   6.955   1.725 -0.2351 -0.3077 -0.3558
  686MOL0     C90448  -2.049   7.076   1.712  0.4485  0.0419 -0.1402
  686MOL0     C90449  -2.199   7.080   1.716 -0.0414 -0.4320 -0.3973
  686MOL0     O90450  -2.249   7.204   1.687  0.4185  0.8085 -0.6789
  686MOL0     C90451  -2.373   7.205   1.619  0.2348  0.5540 -0.4364
  686MOL0     C90452  -2.375   7.193   1.481 -0.0582  0.8061  0.6203
  686MOL0     C90453  -2.494   7.197   1.401  0.6452  0.2058  0.5384
  686MOL0     C90454  -2.614   7.198   1.465  0.3480 -0.5525 -0.1055
  686MOL0     O90455  -2.743   7.194   1.397  0.0480 -0.1717  0.2394
  686MOL0     C90456  -2.746   7.126   1.266  0.6959  0.2506 -0.0752
  686MOL0     C90457  -2.899   7.127   1.224  0.0671  0.2230 -0.7934
  686MOL0     C90458  -2.986   7.023   1.287 -0.0645  0.2171  0.4147
  686MOL0     C90459  -3.010   7.045   1.439 -0.1716 -0.2268  0.1252
  686MOL0     C90460  -3.069   6.911   1.497 -0.6055 -0.1975 -0.2090
  686MOL0     C90461  -3.191   6.845   1.426 -0.1398 -0.2046 -1.3638
  686MOL0     C90462  -3.303   6.942   1.389  0.4173 -0.0077 -0.0053
  686MOL0     C90463  -3.393   6.868   1.291 -0.2152  0.6798 -0.0838
  686MOL0    Cl90464  -3.307   6.853   1.127  0.1382  0.2353 -0.0718
  686MOL0     C90465  -2.620   7.193   1.605  0.2946 -0.1272 -0.1509
  686MOL0     C90466  -2.498   7.207   1.684  0.2846  0.2627 -0.6855
  686MOL0     O90467  -2.261   6.972   1.717  0.0050 -0.6567 -0.1246
  686MOL0     C90468  -1.965   7.188   1.699 -0.5750  0.4761  0.5992
  686MOL0     C90469  -1.824   7.181   1.690  0.3878  0.0065  0.5905
  686MOL0     N90470  -1.224   7.044   2.212 -0.4522 -0.6781 -0.3903
  686MOL0     N90471  -1.129   7.066   2.289 -0.0718 -0.3426  0.0759
  686MOL0     C90472  -0.146   6.844   2.719 -0.3533  0.3131 -0.2292
  686MOL0     C90473  -0.016   6.878   2.747 -0.4786  0.2042  0.6191
  686MOL0     C90474   0.441   6.786   2.837  0.5865 -0.4943  0.4723
  686MOL0     C90475   0.443   6.887   2.935  1.0555  0.5697 -0.0518
  686MOL0     C90476   0.566   6.917   3.003 -0.0297  0.0062  0.2318
  686MOL0     C90477   0.678   6.834   2.982 -0.0179  0.8462  0.5818
  686MOL0     O90478   0.796   6.830   3.048 -0.0994  0.3109 -0.0023
  686MOL0     C90479   0.823   6.912   3.158  0.1649 -0.4853 -0.0783
  686MOL0     C90480   0.955   6.893   3.226 -0.0239 -0.4671  0.2047
  686MOL0     C90481   0.963   6.759   3.301  0.0496 -0.2890 -0.4667
  686MOL0     C90482   1.082   6.762   3.394  0.2944  0.3613 -0.2069
  686MOL0     C90483   1.100   6.622   3.446 -0.8586  0.4749  1.0244
  686MOL0     C90484   1.128   6.504   3.470  0.2365 -0.6843  0.5245
  686MOL0     C90485   0.662   6.723   2.905  0.3537  0.5606 -0.8038
  686MOL0     C90486   0.552   6.709   2.822 -0.9757  0.5598  0.0521
  686MOL0     H90487   0.105   6.572   2.826 -0.7610 -1.3061  2.0567
  686MOL0     H90488  -0.127   6.517   2.790 -2.8418  0.9164 -2.5475
  686MOL0     H90489  -0.343   6.645   2.901 -0.7623 -0.9531  0.0776
  686MOL0     H90490  -0.422   6.529   2.809  3.4371 -1.0859  2.1392
  686MOL0     H90491  -0.485   6.823   2.834  1.4892 -1.5761  2.0074
  686MOL0     H90492  -0.590   6.694   2.906 -2.2039  0.3996 -0.5949
  686MOL0     H90493  -0.712   6.712   2.729 -0.2040  2.5591 -0.5722
  686MOL0     H90494  -0.591   6.621   2.654 -3.3947 -1.9596  2.4463
  686MOL0     H90495  -0.558   6.926   2.657 -0.4538 -0.2947  0.1273
  686MOL0     H90496  -0.494   6.815   2.540  0.1210  1.7557 -1.4581
  686MOL0     H90497  -0.756   6.941   2.570  1.5359  1.2065 -0.0311
  686MOL0     H90498  -0.770   6.777   2.500 -1.7967  2.3272 -1.8391
  686MOL0     H90499  -0.604   6.835   2.319  2.5899  2.4813 -0.3305
  686MOL0     H90500  -0.630   7.003   2.369 -0.4146 -0.3083  0.8932
  686MOL0     H90501  -0.767   6.894   2.179 -1.3848 -3.3965  0.4316
  686MOL0     H90502  -0.856   6.821   2.312  2.3819 -1.1871  1.2056
  686MOL0     H90503  -0.831   7.114   2.230 -1.7125  0.2477 -1.8360
  686MOL0     H90504  -0.889   7.057   2.398  1.6506  1.9084 -0.4625
  686MOL0     H90505  -0.969   6.980   2.018 -2.4987  0.8517 -2.0183
  686MOL0     H90506  -1.272   6.875   1.960  1.4381 -0.9676 -1.4066
  686MOL0     H90507  -1.156   6.995   1.884  1.4832  1.1146  1.2371
  686MOL0     H90508  -1.323   7.177   1.944  2.0760 -0.1059  2.0709
  686MOL0     H90509  -1.430   7.045   2.011  1.3279 -2.1702  1.3843
  686MOL0     H90510  -1.350   7.034   1.722  0.1688 -1.2228 -0.3660
  686MOL0     H90511  -1.456   6.936   1.823  1.8603 -1.0283  1.5293
  686MOL0     H90512  -1.506   7.208   1.688  0.4087 -2.1684 -2.5887
  686MOL0     H90513  -1.595   7.177   1.829 -4.2401  0.2481 -1.8266
  686MOL0     H90514  -1.805   6.848   1.748 -2.8006 -0.0438  2.4258
  686MOL0     H90515  -2.054   6.867   1.734 -1.9858  0.8503 -0.8048
  686MOL0     H90516  -2.281   7.184   1.428  0.6827 -1.1065  2.1367
  686MOL0     H90517  -2.490   7.197   1.293  2.7715 -0.0640  0.5752
  686MOL0     H90518  -2.714   7.022   1.262 -0.1796 -0.0064 -2.8004
  686MOL0     H90519  -2.691   7.184   1.191  1.3762  0.1651  0.3547
  686MOL0     H90520  -2.902   7.091   1.121 -0.1398  1.4827 -1.2414
  686MOL0     H90521  -2.947   7.225   1.231  0.9764  0.5640  1.8584
  686MOL0     H90522  -2.941   6.923   1.275 -0.1201 -0.0272  2.0469
  686MOL0     H90523  -3.080   7.030   1.232  0.8727  2.8226 -0.9900
  686MOL0     H90524  -2.912   7.064   1.485  1.1967 -1.9070 -1.9061
  686MOL0     H90525  -3.073   7.131   1.465  0.9321  0.7449 -0.3082
  686MOL0     H90526  -3.097   6.930   1.601  1.1607 -1.0173  0.4519
  686MOL0     H90527  -2.982   6.845   1.497  1.3917  2.2856 -0.6503
  686MOL0     H90528  -3.227   6.776   1.503  0.4188  1.1001  0.1067
  686MOL0     H90529  -3.155   6.798   1.333  0.1181  0.1685 -1.4561
  686MOL0     H90530  -3.364   6.968   1.476 -1.4079  1.1218 -1.5146
  686MOL0     H90531  -3.270   7.030   1.332 -2.7655 -0.1784 -2.4429
  686MOL0     H90532  -3.495   6.903   1.272 -0.7735 -0.8325 -0.0095
  686MOL0     H90533  -3.403   6.771   1.341  1.2106  1.9361  2.8896
  686MOL0     H90534  -2.720   7.181   1.646  1.1025 -2.5100  1.3487
  686MOL0     H90535  -2.515   7.215   1.791  0.2670 -2.6115 -0.3980
  686MOL0     H90536  -2.002   7.290   1.693 -0.0448  0.6283 -0.2149
  686MOL0     H90537  -1.776   7.275   1.664 -2.2826  2.1662  2.8603
  686MOL0     H90538  -0.225   6.911   2.686 -2.5796 -1.9976  0.0983
  686MOL0     H90539   0.033   6.971   2.718 -0.7280 -0.6254 -3.0495
  686MOL0     H90540   0.356   6.942   2.966  0.0146 -1.7130  1.3256
  686MOL0     H90541   0.561   7.003   3.070  0.2135 -1.1359  1.7799
  686MOL0     H90542   0.751   6.896   3.239 -0.0471  3.7315  0.7742
  686MOL0     H90543   0.802   7.014   3.126 -0.6966 -1.1740 -1.8360
  686MOL0     H90544   1.032   6.903   3.149  0.0310 -1.8300  0.0616
  686MOL0     H90545   0.966   6.981   3.291 -1.7644  0.9359 -1.2734
  686MOL0     H90546   0.977   6.675   3.232  2.2002 -0.0288 -0.4147
  686MOL0     H90547   0.869   6.746   3.355 -0.6483  2.0521 -0.9906
  686MOL0     H90548   1.166   6.804   3.338  0.6222  1.2605  0.9278
  686MOL0     H90549   1.058   6.825   3.480 -2.1594 -0.1219 -0.4378
  686MOL0     H90550   1.148   6.399   3.483  2.6998 -0.2048  0.9581
  686MOL0     H90551   0.742   6.650   2.907  1.1875  1.4623 -0.2620
  686MOL0     H90552   0.558   6.618   2.762  0.5225 -0.5080  1.7325
  687MOL0     O90553   1.495   9.921  11.063  0.4060 -0.4119 -0.2607
  687MOL0     C90554   1.547   9.947  11.170 -0.1145  0.5774 -0.8818
  687MOL0     O90555   1.519  10.055  11.239 -0.3651 -0.2075 -0.9245
  687MOL0     C90556   1.407  10.129  11.224  0.1701  0.1245 -0.2995
  687MOL0     C90557   1.417  10.267  11.207  0.0979 -0.6261 -0.7613
  687MOL0     C90558   1.299  10.342  11.212  0.2351  0.5313 -0.5211
  687MOL0     C90559   1.172  10.283  11.210  0.0335  0.0560 -0.6314
  687MOL0     O90560   1.062  10.359  11.204 -0.2430  0.2725  0.0242
  687MOL0     C90561   0.951  10.326  11.120  0.3886  0.2726 -0.2031
  687MOL0     C90562   0.833  10.424  11.117 -0.2090  0.1403  0.3402
  687MOL0     C90563   0.761  10.436  11.249  0.0237  0.9691 -0.9729
  687MOL0     C90564   0.637  10.526  11.234 -0.3763 -0.1346  0.1678
  687MOL0     C90565   0.541  10.518  11.349 -0.9967 -0.1724 -0.4415
  687MOL0     C90566   0.410  10.585  11.322  0.4473 -0.5303 -0.0902
  687MOL0     C90567   0.321  10.581  11.448  0.0050  0.2709  0.1832
  687MOL0     C90568   0.174  10.619  11.432  0.4252 -0.8320  0.2093
  687MOL0     N90569   0.085  10.511  11.380 -0.1951  0.0208 -0.3549
  687MOL0     C90570   0.126  10.403  11.299  0.0713 -0.2621 -0.0963
  687MOL0     C90571   0.013  10.318  11.293 -0.1495  0.1348  0.4903
  687MOL0     C90572   0.005  10.183  11.224 -0.1388  0.5523 -0.2603
  687MOL0     C90573   0.041  10.180  11.075 -0.4505  0.5918  1.2855
  687MOL0     C90574   0.028  10.033  11.022 -0.6726 -0.0568  0.8552
  687MOL0     C90575   0.095  10.021  10.882 -0.1416 -0.2160  0.2588
  687MOL0     O90576  -0.003  10.052  10.782 -0.4738  0.8232 -0.1365
  687MOL0     C90577   0.023  10.054  10.651  0.2782 -0.1055  0.6267
  687MOL0     C90578   0.149  10.036  10.596 -1.0508  1.0708  0.6872
  687MOL0     C90579   0.171  10.041  10.458  0.3953  0.4998  0.4235
  687MOL0     C90580   0.068  10.086  10.366 -0.0911 -0.0605 -0.8892
  687MOL0     C90581   0.091  10.114  10.226 -0.0068  0.9526  0.4016
  687MOL0     O90582   0.178  10.033  10.169 -0.6972 -0.1833  0.0171
  687MOL0     C90583   0.207  10.048  10.037 -0.4768  0.1822  0.1269
  687MOL0     C90584   0.170   9.941   9.950 -0.1483  0.0849 -0.4762
  687MOL0     C90585   0.185   9.963   9.810  0.3454  0.8936  0.5917
  687MOL0     C90586   0.234  10.085   9.757  0.5671  0.0320 -0.6601
  687MOL0     O90587   0.256  10.098   9.615 -0.3650  0.1975 -0.9222
  687MOL0     C90588   0.267   9.983   9.536 -0.0043  0.0067  0.3141
  687MOL0     C90589   0.383   9.884   9.563  0.3163  0.0395  0.1483
  687MOL0     C90590   0.518   9.959   9.552  0.0360 -0.1203  1.1030
  687MOL0     C90591   0.571  10.029   9.669  0.3660  0.3227 -1.1004
  687MOL0     C90592   0.604   9.935   9.786  0.3454  0.4125  1.3489
  687MOL0     C90593   0.667   9.990   9.908 -0.4488  0.1291  0.4985
  687MOL0     C90594   0.661   9.885  10.020 -0.2929  0.1866  0.3024
  687MOL0     C90595   0.729   9.741   9.988  0.3472  0.2702 -0.3204
  687MOL0    Cl90596   0.898   9.759   9.991  0.1474 -0.4022 -0.2249
  687MOL0     C90597   0.274  10.186   9.849  0.8728 -0.0678 -0.2654
  687MOL0     C90598   0.258  10.170   9.987  0.6320 -0.9872 -0.1602
  687MOL0     O90599   0.011  10.183  10.162 -0.1751 -0.4997  0.2210
  687MOL0     C90600  -0.056  10.119  10.427  0.2123  0.3609 -0.1554
  687MOL0     C90601  -0.068  10.098  10.560 -0.0518  0.1318 -0.2721
  687MOL0     N90602  -0.089  10.375  11.361 -0.1946 -0.6327  0.2332
  687MOL0     N90603  -0.041  10.483  11.420  0.1480  0.6627 -0.0802
  687MOL0     C90604   1.160  10.146  11.216  0.6296  0.3094  0.1266
  687MOL0     C90605   1.281  10.068  11.226  0.5100  0.0391 -0.4242
  687MOL0     C90606   1.662   9.861  11.214  0.0126 -0.5215  0.3091
  687MOL0     C90607   1.690   9.746  11.132 -0.8377  0.6523  0.1228
  687MOL0     C90608   1.792   9.657  11.171 -0.2093  0.0831 -0.1210
  687MOL0     C90609   1.868   9.678  11.290  0.2451 -0.0973 -0.0296
  687MOL0     O90610   1.968   9.595  11.335 -0.1026 -0.0123 -0.6092
  687MOL0     C90611   1.978   9.469  11.275 -0.0469 -0.1461 -0.3577
  687MOL0     C90612   2.079   9.382  11.355 -0.1888  0.2840  0.6144
  687MOL0     C90613   2.080   9.231  11.297  0.3995 -0.9379  0.4381
  687MOL0     C90614   2.204   9.150  11.337  0.9836 -0.3759 -0.0618
  687MOL0     C90615   2.246   9.150  11.476  0.4539 -1.0724  0.1071
  687MOL0     C90616   2.287   9.173  11.587  0.0588  0.1942  0.5224
  687MOL0     C90617   1.827   9.783  11.368  0.5150 -0.2675  0.4377
  687MOL0     C90618   1.728   9.873  11.335 -0.3734 -0.6817 -0.2314
  687MOL0     H90619   1.515  10.312  11.196 -0.0412 -0.6727 -2.4933
  687MOL0     H90620   1.305  10.450  11.203 -1.8387  0.4997 -4.3910
  687MOL0     H90621   0.905  10.234  11.156  0.9086  0.9310  2.3080
  687MOL0     H90622   0.991  10.312  11.019  0.4852  1.5224 -0.3564
  687MOL0     H90623   0.759  10.404  11.039  0.1565  4.2643 -1.2899
  687MOL0     H90624   0.864  10.527  11.100  1.3378  0.3686  3.7830
  687MOL0     H90625   0.827  10.474  11.328  1.1725 -0.3602 -1.2503
  687MOL0     H90626   0.739  10.334  11.279 -1.3530  0.5614 -3.1027
  687MOL0     H90627   0.675  10.626  11.210  0.5649 -0.4958  0.1331
  687MOL0     H90628   0.581  10.497  11.144  0.4738  3.9338 -1.8887
  687MOL0     H90629   0.588  10.566  11.435 -4.5031  2.8036  0.0555
  687MOL0     H90630   0.518  10.415  11.377  1.9016 -0.0675  3.0410
  687MOL0     H90631   0.359  10.540  11.236 -0.9094 -2.5393  1.6495
  687MOL0     H90632   0.439  10.688  11.303  0.2181 -0.8085 -2.1120
  687MOL0     H90633   0.336  10.484  11.497  2.8726 -0.5752 -2.0971
  687MOL0     H90634   0.362  10.646  11.526  1.3864  1.9059 -1.7949
  687MOL0     H90635   0.170  10.706  11.365 -2.3956  0.7857  2.2558
  687MOL0     H90636   0.139  10.665  11.524 -0.3780 -0.9428 -0.0381
  687MOL0     H90637   0.223  10.396  11.251 -0.8492  1.4231 -2.3713
  687MOL0     H90638  -0.098  10.146  11.220 -0.1289  0.6253 -2.0540
  687MOL0     H90639   0.059  10.116  11.291  1.9103  2.5177  0.1728
  687MOL0     H90640   0.140  10.221  11.051 -1.9657  2.4782 -2.6351
  687MOL0     H90641  -0.034  10.237  11.019 -2.7606 -0.0522  3.4982
  687MOL0     H90642   0.078   9.973  11.099  0.4729  0.9785  0.9475
  687MOL0     H90643  -0.078  10.007  11.020 -1.1493  1.6809 -2.0446
  687MOL0     H90644   0.132   9.919  10.867  2.3361  0.5232  0.9090
  687MOL0     H90645   0.180  10.090  10.874  0.2318 -0.5865  0.9581
  687MOL0     H90646   0.243  10.011  10.644 -0.5768 -2.6076 -1.7356
  687MOL0     H90647   0.261   9.996  10.418  0.2986  0.5731  0.1273
  687MOL0     H90648   0.128   9.854  10.000  1.0806 -1.1770 -1.5488
  687MOL0     H90649   0.152   9.878   9.753  1.8380 -1.5964  3.1632
  687MOL0     H90650   0.287  10.027   9.438 -1.8247 -0.7559 -0.4456
  687MOL0     H90651   0.173   9.927   9.540  0.4982 -1.1169 -2.0863
  687MOL0     H90652   0.378   9.802   9.491  1.4692 -0.8999  1.0826
  687MOL0     H90653   0.363   9.829   9.655 -0.1429 -1.7484 -0.9664
  687MOL0     H90654   0.506  10.033   9.471  0.1803 -2.3308 -1.0585
  687MOL0     H90655   0.600   9.892   9.527 -0.3263 -0.2496  0.2002
  687MOL0     H90656   0.664  10.075   9.633  2.5107 -1.5376  1.5773
  687MOL0     H90657   0.511  10.112   9.707  3.2049  1.4432  1.4734
  687MOL0     H90658   0.667   9.864   9.731 -1.8772 -0.0993 -0.7375
  687MOL0     H90659   0.508   9.887   9.810 -1.8799  2.0115 -3.1130
  687MOL0     H90660   0.628  10.083   9.949  0.2956  1.6133 -1.9764
  687MOL0     H90661   0.770  10.022   9.894 -0.0200 -1.1324  0.5926
  687MOL0     H90662   0.712   9.930  10.105 -2.8820  1.0627  1.5189
  687MOL0     H90663   0.556   9.881  10.053 -0.9065  0.6409 -1.4438
  687MOL0     H90664   0.697   9.714   9.887 -1.5572  0.4352  0.1983
  687MOL0     H90665   0.702   9.656  10.053 -0.9842  2.0604  1.5999
  687MOL0     H90666   0.333  10.271   9.814  2.7174 -0.2844  2.0943
  687MOL0     H90667   0.285  10.232  10.072 -2.2734  0.8918 -0.4669
  687MOL0     H90668  -0.131  10.156  10.359  1.0652  0.8921 -0.8401
  687MOL0     H90669  -0.169  10.110  10.598 -0.6339  0.0723 -1.7689
  687MOL0     H90670   1.067  10.091  11.203  0.1935  1.6786 -3.4259
  687MOL0     H90671   1.269   9.960  11.231  0.8010 -0.2528 -3.8698
  687MOL0     H90672   1.639   9.719  11.040  3.4776 -1.8320 -1.8278
  687MOL0     H90673   1.803   9.558  11.126 -2.4556 -1.2142  1.9039
  687MOL0     H90674   2.002   9.484  11.170 -2.0749  1.8716 -0.6163
  687MOL0     H90675   1.878   9.425  11.285 -0.9053  1.3397 -1.8738
  687MOL0     H90676   2.180   9.425  11.360 -0.4011  1.0804 -1.2599
  687MOL0     H90677   2.045   9.383  11.459  0.4319  2.5797  0.8419
  687MOL0     H90678   2.067   9.235  11.189  0.6691  3.2660  0.3678
  687MOL0     H90679   1.987   9.192  11.337  0.9577 -2.3710  0.3739
  687MOL0     H90680   2.183   9.046  11.312  1.5228 -0.9598  1.7258
  687MOL0     H90681   2.282   9.192  11.274 -0.5394  0.0049 -1.7646
  687MOL0     H90682   2.320   9.189  11.688 -2.5261  0.0927  1.4605
  687MOL0     H90683   1.890   9.784  11.456  3.4633 -0.4348 -1.4980
  687MOL0     H90684   1.708   9.967  11.385 -3.4664  0.3515 -3.0655
  688MOL0     O90685   5.046   0.889   0.515 -0.0229  0.3477 -0.6054
  688MOL0     C90686   5.050   0.777   0.567  0.5887 -0.2755 -0.5793
  688MOL0     O90687   4.949   0.706   0.623  0.3210 -0.4984  1.1634
  688MOL0     C90688   4.815   0.739   0.623 -0.3657 -0.2522  0.1895
  688MOL0     C90689   4.743   0.706   0.736  0.0679 -0.3181 -0.1222
  688MOL0     C90690   4.608   0.743   0.737 -0.2985 -0.4237 -0.9372
  688MOL0     C90691   4.547   0.815   0.641 -0.1998  0.2049  0.7679
  688MOL0     O90692   4.412   0.845   0.628 -0.3969  0.1562 -0.9874
  688MOL0     C90693   4.325   0.765   0.706 -0.0661 -0.1986  0.5804
  688MOL0     C90694   4.182   0.803   0.662  0.8209 -0.2255  0.1867
  688MOL0     C90695   4.073   0.705   0.711 -0.0471  0.4937 -0.5363
  688MOL0     C90696   3.951   0.746   0.635 -0.3537 -0.6142  0.6467
  688MOL0     C90697   3.840   0.655   0.686  0.3411 -0.1446 -0.4895
  688MOL0     C90698   3.702   0.690   0.612  0.3954  0.8373  0.2106
  688MOL0     C90699   3.591   0.612   0.692 -0.1379 -0.2196  0.2624
  688MOL0     C90700   3.541   0.699   0.811  0.1086  0.0845 -0.6474
  688MOL0     N90701   3.463   0.617   0.906  0.4732  0.1902 -0.3992
  688MOL0     C90702   3.332   0.641   0.939 -0.3476  0.6388 -0.7489
  688MOL0     C90703   3.294   0.543   1.027  0.8790  0.6281 -1.0514
  688MOL0     C90704   3.152   0.518   1.085  0.7616 -0.0204  0.4044
  688MOL0     C90705   3.131   0.591   1.213 -0.7458  0.5592 -0.5231
  688MOL0     C90706   3.084   0.730   1.202 -0.2456  0.0947  0.6174
  688MOL0     C90707   3.100   0.793   1.337 -0.2149  0.5952 -0.2400
  688MOL0     O90708   3.020   0.730   1.443 -0.0371 -0.4000 -0.4568
  688MOL0     C90709   2.892   0.760   1.448  0.9031  0.0721  0.2619
  688MOL0     C90710   2.786   0.662   1.446 -1.2225  0.0031 -0.7070
  688MOL0     C90711   2.650   0.695   1.456  0.1333 -0.5184 -0.0002
  688MOL0     C90712   2.613   0.837   1.465 -0.0677  0.3150  1.0107
  688MOL0     C90713   2.468   0.876   1.467 -0.6119 -1.1191  0.5377
  688MOL0     O90714   2.379   0.781   1.432  0.1787  0.1555 -0.2970
  688MOL0     C90715   2.250   0.804   1.457  0.4841  0.0552  0.2382
  688MOL0     C90716   2.211   0.773   1.578  0.3319 -0.2348 -0.5834
  688MOL0     C90717   2.070   0.774   1.606 -0.3170 -0.1358 -0.1648
  688MOL0     C90718   1.977   0.820   1.514  0.6297 -0.7536  0.0822
  688MOL0     O90719   1.843   0.823   1.554  0.0580 -0.8687  0.1035
  688MOL0     C90720   1.755   0.895   1.479 -0.1775  0.0072 -0.9445
  688MOL0     C90721   1.638   0.931   1.563  0.1996  1.3082  0.1908
  688MOL0     C90722   1.528   0.825   1.541  0.5823  0.2058  0.1160
  688MOL0     C90723   1.404   0.875   1.607 -0.1046 -0.0150 -0.4934
  688MOL0     C90724   1.291   0.771   1.599  0.8182  0.5573  0.7258
  688MOL0     C90725   1.169   0.818   1.673  0.0250 -0.4094  0.2499
  688MOL0     C90726   1.052   0.726   1.636  0.2589 -0.3815  0.6270
  688MOL0     C90727   0.915   0.754   1.701  1.3407 -0.1199  0.1179
  688MOL0    Cl90728   0.836   0.910   1.641 -0.0763 -0.1225  0.8449
  688MOL0     C90729   2.025   0.862   1.384  0.0616  0.3559  1.0545
  688MOL0     C90730   2.160   0.848   1.353 -0.0729 -0.5937  0.1757
  688MOL0     O90731   2.441   0.990   1.504  0.9743  0.5457 -0.1178
  688MOL0     C90732   2.719   0.929   1.479  0.3855 -0.6442  0.3687
  688MOL0     C90733   2.853   0.888   1.475 -0.8643  0.8955  0.4263
  688MOL0     N90734   3.397   0.464   1.053 -1.2436  0.0780 -0.5987
  688MOL0     N90735   3.500   0.510   0.984 -0.2325 -0.0775  0.1202
  688MOL0     C90736   4.623   0.855   0.533 -0.8095  0.3979 -1.1541
  688MOL0     C90737   4.756   0.808   0.521  0.1550 -0.8201  0.8728
  688MOL0     C90738   5.185   0.713   0.567  0.2240  0.4370  1.1302
  688MOL0     C90739   5.202   0.576   0.587 -0.0495 -0.4421  0.0699
  688MOL0     C90740   5.324   0.510   0.557  0.4005  0.0434 -0.0990
  688MOL0     C90741   5.433   0.593   0.524 -0.0039 -0.4229  0.5086
  688MOL0     O90742   5.547   0.537   0.476 -0.3663  0.6770 -0.3267
  688MOL0     C90743   5.663   0.617   0.449 -0.1656  0.5808  0.7643
  688MOL0     C90744   5.757   0.511   0.397 -0.7712 -0.9198  0.2782
  688MOL0     C90745   5.876   0.556   0.314  0.0347 -0.2361 -0.4048
  688MOL0     C90746   6.004   0.489   0.343 -0.8958 -0.1117 -0.0541
  688MOL0     C90747   6.120   0.553   0.266 -1.1610 -0.1289 -0.0871
  688MOL0     C90748   6.223   0.594   0.212  0.2982  0.2472  0.6377
  688MOL0     C90749   5.416   0.731   0.502 -0.4362 -0.2515  0.1296
  688MOL0     C90750   5.294   0.789   0.523 -0.2114 -0.1900  0.2370
  688MOL0     H90751   4.787   0.645   0.814 -0.0710  0.9007  0.9483
  688MOL0     H90752   4.558   0.693   0.820  2.1210 -0.4068  0.6048
  688MOL0     H90753   4.336   0.790   0.811  1.1636  1.9350 -0.0028
  688MOL0     H90754   4.350   0.661   0.681 -0.6529 -0.1618 -0.2034
  688MOL0     H90755   4.183   0.810   0.553  0.6333  1.6754  0.2766
  688MOL0     H90756   4.162   0.904   0.698  0.7626 -0.6501  1.4147
  688MOL0     H90757   4.053   0.705   0.819 -1.3633 -0.2693 -0.7601
  688MOL0     H90758   4.100   0.603   0.684  0.1891  0.0293  1.3019
  688MOL0     H90759   3.940   0.853   0.651  0.2523 -0.2788 -0.9642
  688MOL0     H90760   3.963   0.732   0.527  4.0910  2.4585  0.5060
  688MOL0     H90761   3.829   0.661   0.795 -0.4749 -0.4388 -0.5524
  688MOL0     H90762   3.854   0.547   0.672  2.3567  0.0508 -0.2437
  688MOL0     H90763   3.702   0.671   0.505 -1.6350 -1.1974  0.4886
  688MOL0     H90764   3.672   0.795   0.625 -2.4713  0.0800  0.2837
  688MOL0     H90765   3.508   0.593   0.623  0.0073  0.2032 -0.0268
  688MOL0     H90766   3.625   0.510   0.716  1.1374 -0.3741 -1.9431
  688MOL0     H90767   3.481   0.784   0.777 -1.7830 -0.7577  0.3985
  688MOL0     H90768   3.637   0.720   0.860  1.5598 -1.4015 -2.6955
  688MOL0     H90769   3.268   0.710   0.886  2.8124  2.4015 -2.5388
  688MOL0     H90770   3.148   0.414   1.118  0.3848 -0.5241 -1.1331
  688MOL0     H90771   3.063   0.530   1.022  2.3214  1.1503 -1.7032
  688MOL0     H90772   3.222   0.596   1.274 -1.4087  2.1772  0.3875
  688MOL0     H90773   3.060   0.532   1.271 -1.1372 -0.5223 -2.0249
  688MOL0     H90774   3.150   0.779   1.131 -0.2080 -1.0340 -0.1445
  688MOL0     H90775   2.980   0.729   1.167  0.4239 -0.6890 -1.4595
  688MOL0     H90776   3.091   0.902   1.333 -2.2214  0.6118  2.1386
  688MOL0     H90777   3.201   0.767   1.368 -1.0616 -2.0163  0.5932
  688MOL0     H90778   2.813   0.557   1.432 -1.5866 -0.3896  1.2780
  688MOL0     H90779   2.572   0.620   1.454 -0.0620 -0.4014  1.8698
  688MOL0     H90780   2.277   0.735   1.655 -0.5867 -1.1555 -0.2243
  688MOL0     H90781   2.027   0.743   1.701 -2.5860  0.0725 -1.0571
  688MOL0     H90782   1.725   0.844   1.387 -2.3055 -0.7158  0.0825
  688MOL0     H90783   1.801   0.989   1.448 -0.1687 -0.2657 -1.7846
  688MOL0     H90784   1.583   1.017   1.525 -2.9595 -0.4867  0.3599
  688MOL0     H90785   1.662   0.929   1.670 -0.7495  3.4116  0.4861
  688MOL0     H90786   1.549   0.722   1.571  0.3046  0.7912  2.5065
  688MOL0     H90787   1.499   0.825   1.435  0.7148 -0.1223  0.0792
  688MOL0     H90788   1.425   0.887   1.714 -2.1545  0.5514 -0.1146
  688MOL0     H90789   1.371   0.970   1.564 -1.1335  0.5871  1.4852
  688MOL0     H90790   1.325   0.675   1.639  1.0390  0.3393  0.0428
  688MOL0     H90791   1.264   0.745   1.496  2.5817 -3.3145  1.0485
  688MOL0     H90792   1.135   0.918   1.643  0.5840 -0.3792 -0.3004
  688MOL0     H90793   1.190   0.813   1.780  1.8246 -1.0790 -0.0941
  688MOL0     H90794   1.046   0.733   1.527  1.9270  2.3862  0.6113
  688MOL0     H90795   1.077   0.624   1.666  1.3345 -0.2501  0.2229
  688MOL0     H90796   0.912   0.758   1.811  0.7362 -2.1408  0.2049
  688MOL0     H90797   0.855   0.666   1.675 -1.3992  0.6026  3.2001
  688MOL0     H90798   1.955   0.907   1.314 -2.0661 -1.4822  1.8409
  688MOL0     H90799   2.185   0.861   1.249 -0.0233 -2.1353 -0.0372
  688MOL0     H90800   2.693   1.032   1.501  0.0796 -0.5903 -0.2145
  688MOL0     H90801   2.935   0.955   1.499 -0.5155  0.4332  0.5472
  688MOL0     H90802   4.579   0.898   0.444  0.4425 -0.5041 -2.2429
  688MOL0     H90803   4.809   0.849   0.436  0.2473  0.4563  1.5230
  688MOL0     H90804   5.116   0.519   0.622 -0.5228 -0.1494 -0.5848
  688MOL0     H90805   5.340   0.403   0.563  0.3629 -0.2468 -3.2797
  688MOL0     H90806   5.706   0.657   0.541 -0.2241 -0.4085  1.2393
  688MOL0     H90807   5.656   0.685   0.363  1.2620 -2.8504 -2.3723
  688MOL0     H90808   5.794   0.442   0.473  4.3369 -1.5512 -2.3841
  688MOL0     H90809   5.704   0.449   0.324 -0.1733 -1.3068  0.1723
  688MOL0     H90810   5.898   0.660   0.343  2.5026 -0.7831 -0.0464
  688MOL0     H90811   5.860   0.552   0.206 -2.5516  3.5472 -0.3439
  688MOL0     H90812   6.032   0.494   0.449  0.1546  1.0977 -0.3682
  688MOL0     H90813   5.988   0.388   0.304 -5.2014  0.6870 -0.7870
  688MOL0     H90814   6.316   0.620   0.167  0.4340 -0.1454  0.6928
  688MOL0     H90815   5.489   0.804   0.470 -1.2783  0.8571  0.6561
  688MOL0     H90816   5.281   0.893   0.495 -1.9003 -0.9377 -2.1040
  689MOL0     O90817   3.918   5.779   1.594 -0.3168  0.2671  0.1197
  689MOL0     C90818   3.990   5.689   1.555  0.4047 -0.1581  0.2152
  689MOL0     O90819   3.969   5.551   1.573 -0.0475 -0.1838  0.3955
  689MOL0     C90820   3.874   5.518   1.664 -0.4944  0.1287 -0.7342
  689MOL0     C90821   3.743   5.534   1.638 -0.5775 -0.8580  0.3149
  689MOL0     C90822   3.640   5.486   1.726  0.8087  0.0901 -0.0222
  689MOL0     C90823   3.672   5.408   1.839 -0.5358 -0.3014  1.2868
  689MOL0     O90824   3.584   5.347   1.925 -0.2609 -0.3897 -0.1343
  689MOL0     C90825   3.445   5.343   1.890  0.4600  0.5146 -0.1388
  689MOL0     C90826   3.364   5.272   2.002  0.0434 -0.0776  0.5930
  689MOL0     C90827   3.218   5.243   1.944  0.5342 -0.2733 -0.2487
  689MOL0     C90828   3.118   5.197   2.050 -0.1060 -0.3255  0.1432
  689MOL0     C90829   2.988   5.143   1.981 -0.5055  0.5479  0.3006
  689MOL0     C90830   3.014   5.004   1.925 -0.8094 -0.0844  0.1444
  689MOL0     C90831   2.913   4.958   1.813  0.7862 -0.3486 -0.0748
  689MOL0     C90832   2.942   4.823   1.766 -0.1361  0.0433  0.4842
  689MOL0     N90833   2.893   4.711   1.846 -0.5921 -0.3335  0.5860
  689MOL0     C90834   2.958   4.647   1.949 -0.6519  0.7031 -0.4547
  689MOL0     C90835   2.877   4.541   1.984  0.4251  0.4871 -0.6497
  689MOL0     C90836   2.896   4.456   2.106  0.2632 -0.7437  0.0548
  689MOL0     C90837   2.765   4.386   2.154 -0.0945 -0.0491 -0.0933
  689MOL0     C90838   2.779   4.315   2.293  0.0922 -0.0774  0.2975
  689MOL0     C90839   2.647   4.251   2.333  0.2084 -0.2635 -0.1513
  689MOL0     O90840   2.676   4.152   2.423  0.8282 -0.4320 -0.6706
  689MOL0     C90841   2.564   4.085   2.474  0.0035 -0.0925  0.1364
  689MOL0     C90842   2.588   3.950   2.500  0.6314  0.1219 -0.2184
  689MOL0     C90843   2.479   3.867   2.535  0.5602 -0.0323 -0.5161
  689MOL0     C90844   2.346   3.918   2.556 -0.4051  1.2814  0.3131
  689MOL0     C90845   2.229   3.843   2.581 -0.6212  0.4914  0.1522
  689MOL0     O90846   2.111   3.902   2.549  0.7938 -0.1198  0.4810
  689MOL0     C90847   1.986   3.837   2.580 -0.4426  0.2420  0.7367
  689MOL0     C90848   1.975   3.714   2.654 -0.8262  0.6673 -0.0580
  689MOL0     C90849   1.853   3.647   2.663 -0.3471 -1.5350 -0.7265
  689MOL0     C90850   1.741   3.703   2.594  1.5186  0.6972  0.2387
  689MOL0     O90851   1.620   3.643   2.614  0.0594  0.1577  0.3593
  689MOL0     C90852   1.509   3.693   2.536  0.5111  0.4535  0.5277
  689MOL0     C90853   1.385   3.611   2.583 -0.4924  0.0240 -0.5164
  689MOL0     C90854   1.276   3.615   2.473 -0.0144 -0.0316 -0.5740
  689MOL0     C90855   1.142   3.554   2.517 -0.4401 -0.2813  0.9358
  689MOL0     C90856   1.151   3.401   2.530 -0.1028  1.0255  0.1450
  689MOL0     C90857   1.012   3.327   2.519 -0.8408 -0.1419  0.2816
  689MOL0     C90858   0.921   3.355   2.638 -1.1097 -0.2274  0.0108
  689MOL0     C90859   0.798   3.263   2.638  0.0901  0.1952  0.8964
  689MOL0    Cl90860   0.704   3.291   2.493 -0.0537  0.3073  0.2175
  689MOL0     C90861   1.752   3.830   2.521 -0.0675 -0.2072 -0.1447
  689MOL0     C90862   1.881   3.894   2.518 -0.3333 -0.5805 -0.5418
  689MOL0     O90863   2.252   3.725   2.617  0.4585  0.5331 -0.5089
  689MOL0     C90864   2.331   4.049   2.528  0.0002  0.1728 -0.4968
  689MOL0     C90865   2.438   4.134   2.492  0.0348 -0.4627  0.2687
  689MOL0     N90866   2.772   4.535   1.890 -0.4104  1.1056  0.0395
  689MOL0     N90867   2.776   4.648   1.815  0.4715  0.6599 -0.0653
  689MOL0     C90868   3.807   5.388   1.861 -0.2564 -0.3432 -0.1009
  689MOL0     C90869   3.903   5.440   1.775  1.0992 -0.5525 -0.8245
  689MOL0     C90870   4.097   5.729   1.463 -0.7273 -0.9815  0.1464
  689MOL0     C90871   4.199   5.649   1.416 -0.1702 -0.2246  0.3072
  689MOL0     C90872   4.304   5.701   1.332  0.4349  0.4950  0.0390
  689MOL0     C90873   4.306   5.838   1.297  0.6487  0.8330 -1.1205
  689MOL0     O90874   4.410   5.894   1.230  0.3192 -0.5708  0.2841
  689MOL0     C90875   4.446   5.839   1.100 -1.1845 -0.1603 -0.6653
  689MOL0     C90876   4.557   5.919   1.031 -0.6144  0.2320  0.1786
  689MOL0     C90877   4.699   5.893   1.083  0.6180 -0.3098 -0.2792
  689MOL0     C90878   4.798   6.003   1.049  0.2136 -0.0819  0.6199
  689MOL0     C90879   4.934   5.989   1.110  0.2754  0.6383  0.8717
  689MOL0     C90880   5.036   5.969   1.173  0.4656 -0.1409  0.4020
  689MOL0     C90881   4.199   5.917   1.348 -0.4383  0.2304  0.4136
  689MOL0     C90882   4.096   5.863   1.422  0.6337  0.5954  0.0589
  689MOL0     H90883   3.725   5.588   1.546 -0.4348 -1.7101 -0.2203
  689MOL0     H90884   3.534   5.504   1.716 -0.0028 -3.8722  0.0672
  689MOL0     H90885   3.444   5.283   1.798 -0.9671 -0.1102  0.2465
  689MOL0     H90886   3.388   5.436   1.888 -1.2737 -0.4998 -0.7687
  689MOL0     H90887   3.361   5.339   2.088 -3.2822 -0.7613  1.1420
  689MOL0     H90888   3.418   5.182   2.032 -1.8791 -0.9116  1.6895
  689MOL0     H90889   3.219   5.181   1.854 -1.7966  0.6457 -1.0019
  689MOL0     H90890   3.165   5.335   1.917 -0.1507 -0.8499 -0.9221
  689MOL0     H90891   3.165   5.115   2.105 -0.8315 -2.3295 -2.0435
  689MOL0     H90892   3.116   5.285   2.115  1.5342 -0.5322  0.5302
  689MOL0     H90893   2.959   5.206   1.897 -2.2516 -2.4141 -1.5002
  689MOL0     H90894   2.895   5.131   2.037 -2.2572 -2.2339 -2.8355
  689MOL0     H90895   3.002   4.936   2.010  0.3288 -1.2504 -0.5932
  689MOL0     H90896   3.116   4.989   1.888 -1.8283 -1.6579 -2.2536
  689MOL0     H90897   2.812   4.955   1.854  0.9330  1.7743  0.5299
  689MOL0     H90898   2.928   5.028   1.731  0.0561  0.2292  0.2792
  689MOL0     H90899   3.050   4.814   1.752  0.2311  2.4659  1.3153
  689MOL0     H90900   2.899   4.800   1.667  2.4381 -1.5959 -0.3671
  689MOL0     H90901   3.057   4.680   1.979 -0.2528 -0.3464 -0.5785
  689MOL0     H90902   2.921   4.532   2.181 -2.4533  1.5335 -1.1751
  689MOL0     H90903   2.977   4.385   2.086  0.9820  0.2253 -0.5597
  689MOL0     H90904   2.732   4.315   2.077  2.8377 -0.9780 -0.6312
  689MOL0     H90905   2.695   4.467   2.175  1.6591  2.1099 -2.0326
  689MOL0     H90906   2.851   4.233   2.282 -0.2273 -0.1816 -1.0959
  689MOL0     H90907   2.817   4.376   2.376  1.0450 -1.0456  0.6027
  689MOL0     H90908   2.597   4.214   2.243  1.6464 -0.5653 -0.8629
  689MOL0     H90909   2.583   4.332   2.369  0.1601 -0.3249 -0.0984
  689MOL0     H90910   2.691   3.914   2.502  0.1997 -1.1341  0.9569
  689MOL0     H90911   2.495   3.767   2.574  2.6082  0.1002 -0.9112
  689MOL0     H90912   2.051   3.663   2.712 -0.7787  0.6640 -0.1235
  689MOL0     H90913   1.847   3.556   2.721 -0.4686 -2.3555 -1.9709
  689MOL0     H90914   1.522   3.670   2.430 -1.4575  0.2555  0.2934
  689MOL0     H90915   1.492   3.799   2.552  0.7068  1.0595 -2.6965
  689MOL0     H90916   1.346   3.651   2.677  1.4205 -0.0994  0.3954
  689MOL0     H90917   1.410   3.507   2.604 -1.6555  0.0851  1.3422
  689MOL0     H90918   1.312   3.564   2.383 -0.0542 -2.7085  0.8088
  689MOL0     H90919   1.267   3.720   2.445  0.2026 -0.2720 -1.5918
  689MOL0     H90920   1.112   3.596   2.614 -2.3923 -2.3894  1.3151
  689MOL0     H90921   1.061   3.575   2.447 -0.3326  2.2470  1.4835
  689MOL0     H90922   1.204   3.378   2.622  2.4000  1.2160 -1.1625
  689MOL0     H90923   1.209   3.363   2.445 -2.0209 -0.9509 -0.3788
  689MOL0     H90924   1.036   3.220   2.513 -3.5535 -0.8116 -0.0621
  689MOL0     H90925   0.964   3.349   2.423 -0.8464  0.4097  0.4117
  689MOL0     H90926   0.972   3.316   2.727 -3.5355 -2.6385  0.4968
  689MOL0     H90927   0.899   3.462   2.634  0.7332  0.2289  1.0062
  689MOL0     H90928   0.743   3.289   2.729  1.1538 -2.0965  2.3030
  689MOL0     H90929   0.813   3.156   2.651 -2.0393 -0.3005 -0.2289
  689MOL0     H90930   1.676   3.875   2.458  1.7381 -0.3557 -2.5692
  689MOL0     H90931   1.904   3.979   2.455  1.8654 -0.8843 -0.2256
  689MOL0     H90932   2.230   4.088   2.536  0.6360  1.9178 -0.4073
  689MOL0     H90933   2.421   4.240   2.477  1.1900 -0.2648  0.2820
  689MOL0     H90934   3.829   5.319   1.943  0.8491 -0.2093 -0.2646
  689MOL0     H90935   4.008   5.432   1.801  0.6922 -1.1217  0.7083
  689MOL0     H90936   4.210   5.548   1.453  1.4698 -0.1377  0.0996
  689MOL0     H90937   4.393   5.645   1.303  1.5160  0.8181  2.4820
  689MOL0     H90938   4.366   5.842   1.026 -1.2759  0.4816 -0.5454
  689MOL0     H90939   4.481   5.736   1.114  1.0088  0.6740  0.4638
  689MOL0     H90940   4.555   5.878   0.929 -2.6370  1.0233 -0.1403
  689MOL0     H90941   4.526   6.024   1.033  1.0349  0.7607 -0.2269
  689MOL0     H90942   4.755   5.809   1.040  3.8898  2.1868 -1.2804
  689MOL0     H90943   4.691   5.884   1.192  0.1461  1.0409 -0.1810
  689MOL0     H90944   4.817   5.996   0.941  0.8239  0.1589  0.7083
  689MOL0     H90945   4.760   6.100   1.082 -3.2209 -0.3266 -1.9874
  689MOL0     H90946   5.117   5.958   1.241 -1.2995 -0.3342  2.5687
  689MOL0     H90947   4.200   6.024   1.329  0.0367  0.7533  3.0060
  689MOL0     H90948   4.013   5.923   1.459 -1.6314 -2.0365 -0.3906
  690MOL0     O90949   5.503   2.065   1.353  0.4149 -0.3426 -0.5066
  690MOL0     C90950   5.544   2.109   1.248  0.5763 -0.2039 -0.1345
  690MOL0     O90951   5.472   2.182   1.159  0.0985  0.0833 -0.1214
  690MOL0     C90952   5.331   2.205   1.169  0.8816 -0.1760  0.8996
  690MOL0     C90953   5.244   2.154   1.263  0.1591 -0.3688  0.1833
  690MOL0     C90954   5.104   2.189   1.244 -0.0111  0.5505 -0.2915
  690MOL0     C90955   5.058   2.266   1.139 -0.7209 -0.7297 -0.3913
  690MOL0     O90956   4.931   2.304   1.116  0.0245 -0.2279 -0.5602
  690MOL0     C90957   4.826   2.218   1.160 -0.6751 -0.0009  0.1941
  690MOL0     C90958   4.829   2.105   1.058  0.1108  0.9778  0.2022
  690MOL0     C90959   4.683   2.053   1.038 -0.4135  0.2347 -0.5264
  690MOL0     C90960   4.627   1.990   1.166  0.0242 -0.1533 -0.4787
  690MOL0     C90961   4.503   1.900   1.138 -0.4825  0.1183  0.4903
  690MOL0     C90962   4.376   1.975   1.166 -0.7116  0.0535  0.0119
  690MOL0     C90963   4.252   1.890   1.158 -0.4761  0.3443 -0.4479
  690MOL0     C90964   4.128   1.966   1.209  0.0877 -0.1466  0.0989
  690MOL0     N90965   4.001   1.894   1.192 -0.1694  0.0750  0.3769
  690MOL0     C90966   3.939   1.805   1.274  0.7934  0.1038  0.6768
  690MOL0     C90967   3.825   1.777   1.207 -0.1429 -0.3434  0.0792
  690MOL0     C90968   3.734   1.676   1.270  0.5715  0.3329  0.5547
  690MOL0     C90969   3.596   1.646   1.205 -0.2956 -0.2643 -0.0170
  690MOL0     C90970   3.600   1.590   1.064  0.1766 -1.1519  0.7636
  690MOL0     C90971   3.451   1.568   1.015 -0.1435 -0.1612  0.4313
  690MOL0     O90972   3.402   1.463   1.091  0.4997  0.0659 -0.4500
  690MOL0     C90973   3.272   1.414   1.102  0.2071 -0.6782  0.1020
  690MOL0     C90974   3.253   1.316   1.205  0.5270  0.3744  0.8897
  690MOL0     C90975   3.133   1.257   1.228  0.1856 -0.4137  0.2387
  690MOL0     C90976   3.024   1.296   1.147 -0.2934  0.5717  0.1969
  690MOL0     C90977   2.890   1.234   1.157  0.1671  0.3538 -0.2998
  690MOL0     O90978   2.804   1.245   1.057  0.6451  0.6137 -0.0331
  690MOL0     C90979   2.678   1.186   1.060  0.1286  0.6891 -0.6468
  690MOL0     C90980   2.598   1.169   1.174  0.3102 -0.0049 -0.2226
  690MOL0     C90981   2.467   1.116   1.171  0.6034  0.0171 -0.0169
  690MOL0     C90982   2.404   1.094   1.051 -0.3496  0.0376 -0.0999
  690MOL0     O90983   2.274   1.060   1.058 -0.7096  0.0110  0.6084
  690MOL0     C90984   2.183   1.110   0.951  0.2615 -0.5376 -0.3780
  690MOL0     C90985   2.036   1.060   0.957  0.1727 -0.6855 -0.3060
  690MOL0     C90986   1.932   1.135   0.854 -0.3411  0.5619  0.4564
  690MOL0     C90987   1.878   1.270   0.910  0.1004  0.0972 -0.1148
  690MOL0     C90988   1.815   1.368   0.809 -0.0579 -0.1118 -0.3197
  690MOL0     C90989   1.708   1.466   0.867 -0.0515  0.4355 -0.1085
  690MOL0     C90990   1.624   1.529   0.763 -0.3717  0.8303 -0.5940
  690MOL0     C90991   1.545   1.648   0.815 -0.1427 -1.1196 -0.5696
  690MOL0    Cl90992   1.408   1.605   0.923 -0.0666  0.0555  0.4426
  690MOL0     C90993   2.481   1.109   0.933 -0.2847 -0.6003 -0.1494
  690MOL0     C90994   2.617   1.155   0.941  0.0460 -0.1926 -0.4646
  690MOL0     O90995   2.874   1.173   1.262  0.0021  0.4141 -1.1223
  690MOL0     C90996   3.046   1.399   1.051 -1.1876 -0.2939  0.0320
  690MOL0     C90997   3.167   1.459   1.024 -0.7753 -0.1936  0.0759
  690MOL0     N90998   3.812   1.856   1.092 -0.7188  0.3073 -0.0973
  690MOL0     N90999   3.911   1.937   1.093 -0.7952 -0.3231 -0.0890
  690MOL0     C91000   5.150   2.327   1.051 -0.1727  0.5880  0.3563
  690MOL0     C91001   5.283   2.291   1.068 -0.4602  0.3387  0.0251
  690MOL0     C91002   5.683   2.071   1.210  0.4391 -0.6171  0.0130
  690MOL0     C91003   5.756   2.144   1.113 -0.0382  0.5653  0.5911
  690MOL0     C91004   5.873   2.090   1.070 -0.7068  0.4530  0.0450
  690MOL0     C91005   5.936   1.977   1.124 -0.4191  0.1713  0.2367
  690MOL0     O91006   6.062   1.948   1.083 -0.1188 -0.4296  0.5709
  690MOL0     C91007   6.122   1.830   1.118  0.3849 -0.5477  0.0078
  690MOL0     C91008   6.259   1.822   1.045  0.4393 -0.7733  0.2688
  690MOL0     C91009   6.342   1.698   1.069 -0.2842  0.5574  0.6195
  690MOL0     C91010   6.484   1.697   1.000 -0.5654  0.0702 -0.3907
  690MOL0     C91011   6.580   1.785   1.061 -0.2716  0.0114 -0.1680
  690MOL0     C91012   6.646   1.868   1.115 -0.0201 -0.4774  0.6561
  690MOL0     C91013   5.857   1.899   1.220 -0.5739 -0.5140  0.0007
  690MOL0     C91014   5.734   1.949   1.260 -0.0595  0.4821  0.1310
  690MOL0     H91015   5.276   2.082   1.338  0.6333  0.0076  0.3493
  690MOL0     H91016   5.034   2.138   1.310 -0.0096  1.2379  0.2522
  690MOL0     H91017   4.732   2.272   1.143 -0.2006  0.8262  0.1176
  690MOL0     H91018   4.838   2.179   1.261  0.9097 -0.7366 -0.2502
  690MOL0     H91019   4.890   2.017   1.081 -2.4605 -0.8516  0.5135
  690MOL0     H91020   4.872   2.139   0.964 -0.2746  0.4645 -0.1661
  690MOL0     H91021   4.688   1.976   0.961  1.8582  0.6415 -0.8444
  690MOL0     H91022   4.623   2.140   1.006  0.1997  0.8548 -0.0098
  690MOL0     H91023   4.702   1.919   1.203 -1.7595 -1.4759  0.7783
  690MOL0     H91024   4.615   2.064   1.245  1.4497 -0.2753 -0.1157
  690MOL0     H91025   4.501   1.811   1.202  1.9509 -1.5090 -1.4919
  690MOL0     H91026   4.493   1.873   1.033  1.3468  0.7391  0.1138
  690MOL0     H91027   4.359   2.049   1.086  0.0938 -0.9640 -1.1382
  690MOL0     H91028   4.387   2.028   1.261  0.0540  0.8229 -0.4848
  690MOL0     H91029   4.236   1.861   1.053  0.9916  1.0785 -0.9073
  690MOL0     H91030   4.267   1.803   1.222  0.4850  1.4031  0.8113
  690MOL0     H91031   4.120   2.065   1.162  1.1925  0.6481  1.4822
  690MOL0     H91032   4.153   1.987   1.314 -0.2492  2.4182 -0.2708
  690MOL0     H91033   3.972   1.765   1.369  3.1208 -0.0222 -0.1042
  690MOL0     H91034   3.718   1.708   1.374 -0.2497  3.7283 -0.5143
  690MOL0     H91035   3.785   1.579   1.269 -0.9510 -0.5470 -2.2550
  690MOL0     H91036   3.525   1.728   1.214 -3.1660 -2.4348 -1.4796
  690MOL0     H91037   3.558   1.562   1.264  1.6513 -1.9132 -0.9844
  690MOL0     H91038   3.653   1.666   1.006 -0.0956 -1.1749  0.4824
  690MOL0     H91039   3.649   1.493   1.051  0.0196 -1.0676 -0.5474
  690MOL0     H91040   3.454   1.536   0.910 -0.8698 -1.5080  0.7947
  690MOL0     H91041   3.385   1.655   1.023  1.3341  0.9192  1.5840
  690MOL0     H91042   3.344   1.294   1.261  0.6858  1.3205  1.0222
  690MOL0     H91043   3.117   1.178   1.300  0.3354 -0.7247 -0.0678
  690MOL0     H91044   2.648   1.198   1.266  1.5131 -0.9700 -0.5306
  690MOL0     H91045   2.417   1.123   1.267  0.1319  0.8535 -0.3049
  690MOL0     H91046   2.218   1.067   0.857  0.4312  0.4769 -0.7832
  690MOL0     H91047   2.189   1.219   0.958  1.0175 -0.6680  4.0655
  690MOL0     H91048   1.999   1.063   1.060 -1.0977  0.0608 -0.7682
  690MOL0     H91049   2.044   0.954   0.929  0.5715 -0.8291  0.3282
  690MOL0     H91050   1.849   1.066   0.836 -0.8883  0.8290  1.8535
  690MOL0     H91051   1.993   1.160   0.767 -1.1149  1.9993  0.3045
  690MOL0     H91052   1.806   1.247   0.989  1.1402 -2.6645  0.1435
  690MOL0     H91053   1.957   1.324   0.963  1.4901 -0.8373 -1.1733
  690MOL0     H91054   1.757   1.296   0.750  0.1715 -0.6871  0.1556
  690MOL0     H91055   1.891   1.415   0.746  1.4635 -0.3957  1.2332
  690MOL0     H91056   1.766   1.545   0.916  1.5173  0.1932 -1.4920
  690MOL0     H91057   1.643   1.418   0.942  0.9114  0.4817  0.7892
  690MOL0     H91058   1.691   1.562   0.683 -0.3141  0.0652 -0.8627
  690MOL0     H91059   1.558   1.450   0.727  0.6619 -0.0114 -0.7003
  690MOL0     H91060   1.501   1.699   0.729  0.3859 -1.9175 -1.3299
  690MOL0     H91061   1.617   1.712   0.867  0.0863 -0.8641 -1.1913
  690MOL0     H91062   2.441   1.089   0.834 -0.7813  0.4575 -0.1793
  690MOL0     H91063   2.673   1.177   0.851  2.5008 -0.7813  0.8162
  690MOL0     H91064   2.966   1.428   0.984  0.6323  0.6428 -1.8550
  690MOL0     H91065   3.175   1.528   0.940  0.3436  2.0492  1.8792
  690MOL0     H91066   5.123   2.392   0.968  1.5662 -1.5108 -1.9865
  690MOL0     H91067   5.362   2.321   1.001 -1.9488  1.5686 -1.2619
  690MOL0     H91068   5.724   2.237   1.067  0.7232  0.4309 -0.2377
  690MOL0     H91069   5.919   2.145   0.988  1.7536 -0.4621  0.7238
  690MOL0     H91070   6.055   1.750   1.086 -0.1213  0.5394 -1.8077
  690MOL0     H91071   6.130   1.816   1.226 -0.1567  2.7784  0.5745
  690MOL0     H91072   6.231   1.820   0.939 -1.4312  0.5008  0.6863
  690MOL0     H91073   6.315   1.906   1.087 -1.0301 -1.2211  3.4054
  690MOL0     H91074   6.287   1.612   1.030  0.4839  0.0199  0.6906
  690MOL0     H91075   6.363   1.695   1.176 -1.0977 -1.2307  0.7667
  690MOL0     H91076   6.524   1.595   1.002 -1.1923 -0.1880 -0.6879
  690MOL0     H91077   6.465   1.725   0.896 -2.1993 -0.5909 -0.3084
  690MOL0     H91078   6.718   1.934   1.157 -0.6737  0.8945 -0.3070
  690MOL0     H91079   5.888   1.803   1.260  1.6912 -0.0784 -0.5444
  690MOL0     H91080   5.666   1.889   1.319 -1.1860  0.6093 -0.9972
  691MOL0     O91081   5.274   3.290   2.441 -1.4122 -0.0680  0.2908
  691MOL0     C91082   5.355   3.308   2.533 -0.4432  0.3564 -0.0751
  691MOL0     O91083   5.327   3.271   2.666 -0.2115  0.3531  0.4312
  691MOL0     C91084   5.227   3.182   2.679  0.2510 -0.3724  0.8608
  691MOL0     C91085   5.096   3.225   2.665  0.6253 -0.0600  0.0032
  691MOL0     C91086   4.988   3.128   2.674 -0.2465 -0.1351 -0.4922
  691MOL0     C91087   5.019   2.992   2.704  0.9011 -0.9732  0.8825
  691MOL0     O91088   4.918   2.902   2.696 -0.3929 -0.2709  0.2163
  691MOL0     C91089   4.797   2.942   2.762 -0.3243  0.0262  0.0233
  691MOL0     C91090   4.719   2.811   2.791  1.4211 -0.1710  0.1645
  691MOL0     C91091   4.613   2.828   2.894  0.6738  0.0938  0.6233
  691MOL0     C91092   4.494   2.919   2.839  0.8519 -0.0377  0.4499
  691MOL0     C91093   4.408   2.960   2.964  0.6949 -0.2096  0.0145
  691MOL0     C91094   4.350   2.836   3.036  0.6563  0.2477  0.0495
  691MOL0     C91095   4.243   2.872   3.130  0.4555  0.0358  0.1579
  691MOL0     C91096   4.309   2.934   3.253 -0.3572 -0.3442 -0.7601
  691MOL0     N91097   4.199   2.984   3.350  0.7881 -0.5845  0.5162
  691MOL0     C91098   4.186   2.954   3.480 -0.1881  0.5799  0.1811
  691MOL0     C91099   4.068   2.996   3.526 -0.5021  0.2865  0.2024
  691MOL0     C91100   4.042   2.966   3.669 -0.1936 -0.2608  0.4021
  691MOL0     C91101   3.893   2.961   3.696 -0.8991 -0.1801  0.5806
  691MOL0     C91102   3.868   2.933   3.843  0.2217 -0.3477 -0.5998
  691MOL0     C91103   3.725   2.943   3.885 -0.3437 -0.0681  0.0648
  691MOL0     O91104   3.714   2.945   4.024 -0.0364  0.2097  0.0029
  691MOL0     C91105   3.603   2.922   4.098 -0.3839  0.1704  0.6532
  691MOL0     C91106   3.597   2.931   4.240  0.0245 -0.4433 -0.0699
  691MOL0     C91107   3.473   2.916   4.307  0.0903  0.7796  0.0257
  691MOL0     C91108   3.363   2.892   4.238  0.8691  0.6017 -0.0592
  691MOL0     C91109   3.230   2.861   4.312  0.2053  0.7451  0.2077
  691MOL0     O91110   3.235   2.887   4.448  0.1527 -0.2968 -0.1198
  691MOL0     C91111   3.125   2.885   4.529 -0.4274 -1.0967  0.7606
  691MOL0     C91112   3.117   2.822   4.654 -0.7534  0.4431  0.4307
  691MOL0     C91113   3.010   2.840   4.743  0.0527  0.4548 -0.5995
  691MOL0     C91114   2.913   2.941   4.723  0.5508 -0.2191 -0.1434
  691MOL0     O91115   2.803   2.969   4.808  0.1403 -0.2979 -0.6106
  691MOL0     C91116   2.811   2.937   4.948  0.0834  0.5217  1.7057
  691MOL0     C91117   2.690   2.987   5.018 -0.3415  0.6933 -0.0523
  691MOL0     C91118   2.681   2.902   5.143 -0.0638  0.3702  0.7777
  691MOL0     C91119   2.554   2.936   5.223  0.5329  0.6373 -0.3685
  691MOL0     C91120   2.443   2.846   5.168  1.2061  0.1749 -0.0207
  691MOL0     C91121   2.316   2.851   5.256 -0.2181  0.8235  0.0490
  691MOL0     C91122   2.253   2.992   5.262 -0.8007  0.7672 -1.3353
  691MOL0     C91123   2.142   2.984   5.356  0.3654 -0.0265  0.1559
  691MOL0    Cl91124   2.010   2.896   5.280 -0.4345 -0.1554 -0.1438
  691MOL0     C91125   2.930   3.017   4.611 -1.1653  0.4838  0.2587
  691MOL0     C91126   3.025   2.981   4.510 -0.4949 -0.4860  0.1759
  691MOL0     O91127   3.124   2.828   4.254  1.3900  0.0865  0.4341
  691MOL0     C91128   3.358   2.893   4.095 -0.2198  0.6846 -0.3351
  691MOL0     C91129   3.483   2.896   4.033 -0.6806 -0.9760  0.1729
  691MOL0     N91130   4.000   3.053   3.413  0.0251 -0.2733 -0.3440
  691MOL0     N91131   4.077   3.039   3.313 -0.0626 -0.7301  0.3647
  691MOL0     C91132   5.148   2.942   2.708  0.1487  0.3951 -0.2566
  691MOL0     C91133   5.250   3.040   2.699 -0.7064  0.3406  0.6198
  691MOL0     C91134   5.486   3.374   2.517 -0.3945  0.1322  0.7759
  691MOL0     C91135   5.564   3.441   2.616 -0.4689  0.2572  0.8108
  691MOL0     C91136   5.682   3.501   2.578 -0.0881  0.0034  0.0533
  691MOL0     C91137   5.733   3.485   2.448 -0.0663 -0.0649 -0.4392
  691MOL0     O91138   5.847   3.548   2.392  0.1738 -0.0461  0.4027
  691MOL0     C91139   5.934   3.619   2.472 -0.5977  0.4187  0.8462
  691MOL0     C91140   5.892   3.765   2.472 -0.1705  0.0630  0.5103
  691MOL0     C91141   5.942   3.836   2.340  0.0648  0.1749 -0.2268
  691MOL0     C91142   5.901   3.973   2.329  0.5425 -0.2948 -0.0653
  691MOL0     C91143   5.909   4.032   2.189 -0.8687 -0.5767 -0.3776
  691MOL0     C91144   5.904   4.073   2.078 -0.2219  0.1179  0.2814
  691MOL0     C91145   5.656   3.414   2.355  0.4906 -0.4751  0.5300
  691MOL0     C91146   5.532   3.363   2.378 -0.3451  0.7059 -0.8768
  691MOL0     H91147   5.071   3.331   2.659  1.2598  0.1929  1.4373
  691MOL0     H91148   4.889   3.166   2.648  0.3955 -0.2374 -3.4459
  691MOL0     H91149   4.736   3.023   2.720 -0.7411  1.0108  2.3794
  691MOL0     H91150   4.827   2.982   2.859 -1.0731  0.1478  0.2156
  691MOL0     H91151   4.788   2.734   2.826  0.3087 -1.6264 -0.7347
  691MOL0     H91152   4.681   2.770   2.697 -0.7713 -1.1164  1.4017
  691MOL0     H91153   4.660   2.864   2.986  2.6479 -1.8112  0.4463
  691MOL0     H91154   4.577   2.730   2.926  3.0874 -1.2757 -0.5824
  691MOL0     H91155   4.545   3.002   2.789 -0.2050  1.6205  1.9765
  691MOL0     H91156   4.433   2.878   2.758 -0.6010  4.0607 -0.7735
  691MOL0     H91157   4.335   3.034   2.930  1.1863  1.4287  2.2818
  691MOL0     H91158   4.473   3.014   3.033  1.8773 -1.0747 -0.4057
  691MOL0     H91159   4.440   2.787   3.076  1.4911  3.3203  2.3672
  691MOL0     H91160   4.297   2.789   2.953  0.4586  1.2852 -0.4271
  691MOL0     H91161   4.169   2.933   3.078  0.7223 -1.3253 -1.9327
  691MOL0     H91162   4.195   2.781   3.167  0.1486 -0.4679 -1.4053
  691MOL0     H91163   4.366   3.022   3.222  1.1463 -1.9332 -2.8186
  691MOL0     H91164   4.377   2.862   3.302 -1.3638  1.5436  3.9737
  691MOL0     H91165   4.262   2.893   3.529  0.6697  1.1954 -0.3677
  691MOL0     H91166   4.093   3.047   3.723  1.9073 -0.5019 -1.0832
  691MOL0     H91167   4.080   2.866   3.693 -2.5021 -1.7123 -1.5744
  691MOL0     H91168   3.844   2.880   3.643 -0.0729 -0.1996 -0.1772
  691MOL0     H91169   3.846   3.057   3.671 -1.6015 -0.1013  2.0509
  691MOL0     H91170   3.915   2.837   3.867  1.4595  0.3736  0.0148
  691MOL0     H91171   3.916   3.004   3.912 -1.0186 -0.9012  0.8985
  691MOL0     H91172   3.660   2.866   3.841  0.7543 -0.9874 -0.0143
  691MOL0     H91173   3.684   3.031   3.835 -1.7152  0.6323  2.3264
  691MOL0     H91174   3.686   2.955   4.298  0.2137 -0.6733 -0.2647
  691MOL0     H91175   3.480   2.927   4.414  3.0666 -1.1150  0.1457
  691MOL0     H91176   3.193   2.752   4.688 -1.6352 -0.6316  0.2567
  691MOL0     H91177   3.009   2.779   4.833 -0.2456  0.7239 -0.4136
  691MOL0     H91178   2.894   2.985   5.000 -0.3824  1.3655  1.6798
  691MOL0     H91179   2.812   2.828   4.939 -2.7517  0.5613 -1.0211
  691MOL0     H91180   2.604   2.981   4.951 -0.1965  1.6629 -0.3510
  691MOL0     H91181   2.713   3.092   5.042  1.2800  0.1239  1.0149
  691MOL0     H91182   2.764   2.927   5.210 -0.2145 -0.8703  1.4631
  691MOL0     H91183   2.685   2.794   5.124  0.6746  0.1147  2.1985
  691MOL0     H91184   2.560   2.911   5.329  0.3821  1.3433 -0.1846
  691MOL0     H91185   2.536   3.044   5.211 -0.4495  0.5159 -0.0841
  691MOL0     H91186   2.466   2.740   5.177 -1.7477 -0.4032  2.6094
  691MOL0     H91187   2.421   2.871   5.064 -1.5588 -1.0278  0.1751
  691MOL0     H91188   2.346   2.822   5.357  1.1060  0.4621 -0.4275
  691MOL0     H91189   2.242   2.782   5.215  1.0965 -1.1311  0.8254
  691MOL0     H91190   2.323   3.064   5.306 -0.1815 -0.5694 -0.0259
  691MOL0     H91191   2.210   3.026   5.168 -2.6256 -1.2797 -1.3172
  691MOL0     H91192   2.105   3.086   5.371 -2.1620 -0.3406 -2.8961
  691MOL0     H91193   2.172   2.951   5.456  2.3713 -0.1281 -0.4357
  691MOL0     H91194   2.862   3.101   4.604 -2.2233 -0.1483  2.1151
  691MOL0     H91195   3.038   3.032   4.415  4.6176 -0.0364  0.7938
  691MOL0     H91196   3.270   2.880   4.034 -0.0659  2.5360 -1.0161
  691MOL0     H91197   3.467   2.904   3.926  1.8478 -0.2244 -0.2087
  691MOL0     H91198   5.166   2.836   2.718  0.2458  0.4449  0.1064
  691MOL0     H91199   5.356   3.019   2.709 -1.0020 -0.8948  1.4682
  691MOL0     H91200   5.535   3.442   2.721 -1.2086  1.9100  0.6149
  691MOL0     H91201   5.741   3.556   2.651  1.9169 -1.5178 -0.3246
  691MOL0     H91202   6.032   3.600   2.429 -1.3041 -2.4724  0.3451
  691MOL0     H91203   5.929   3.575   2.572  2.0624  0.5867  1.1157
  691MOL0     H91204   5.783   3.776   2.469 -0.1162  0.3512 -1.0632
  691MOL0     H91205   5.926   3.815   2.563 -0.0371  0.9380 -0.0114
  691MOL0     H91206   5.919   3.771   2.256  4.4242 -5.7262  2.4324
  691MOL0     H91207   6.051   3.840   2.354 -0.2777  2.3122  2.9163
  691MOL0     H91208   5.798   3.971   2.366  1.4997  0.5267  2.9895
  691MOL0     H91209   5.964   4.032   2.396 -1.2960  0.7963  0.7788
  691MOL0     H91210   5.909   4.111   1.978  2.5692 -0.6363  0.0410
  691MOL0     H91211   5.689   3.420   2.252 -1.2612  0.1440 -0.0292
  691MOL0     H91212   5.483   3.323   2.290 -0.2609  1.1887 -1.1465
  692MOL0     O91213   1.673   0.141   1.657  0.0479  0.0870  0.2780
  692MOL0     C91214   1.712   0.143   1.771 -0.4460 -0.2623  0.1907
  692MOL0     O91215   1.663   0.075   1.878 -0.9492  0.2766  0.4918
  692MOL0     C91216   1.551  -0.001   1.874 -0.4378  0.3004  0.8820
  692MOL0     C91217   1.433   0.054   1.817 -0.2058 -0.2644  0.1410
  692MOL0     C91218   1.305  -0.020   1.824  0.6254  0.2668  0.5143
  692MOL0     C91219   1.300  -0.141   1.899  0.0992 -0.2843 -0.9110
  692MOL0     O91220   1.178  -0.202   1.927 -0.1633  0.2954  0.1783
  692MOL0     C91221   1.179  -0.340   1.979  0.8293 -0.7542  0.4276
  692MOL0     C91222   1.034  -0.393   1.952  0.0022 -0.3780 -0.0972
  692MOL0     C91223   1.015  -0.528   2.026 -0.1409 -0.2921  0.5667
  692MOL0     C91224   0.870  -0.580   2.009 -0.0074  0.7407  0.7223
  692MOL0     C91225   0.859  -0.726   2.042  0.2779 -0.6478  1.0665
  692MOL0     C91226   0.886  -0.763   2.178 -0.3323 -0.0038 -0.0612
  692MOL0     C91227   0.839  -0.904   2.221 -0.4665 -0.5363 -0.0331
  692MOL0     C91228   0.868  -0.926   2.371  0.7373  0.4604  0.6450
  692MOL0     N91229   0.808  -1.041   2.423  0.3729  1.1130 -0.5067
  692MOL0     C91230   0.860  -1.168   2.424  0.4023  0.0250 -0.8370
  692MOL0     C91231   0.761  -1.252   2.465 -0.4657 -0.5484 -0.0776
  692MOL0     C91232   0.755  -1.395   2.482  0.2217  1.0094  0.1826
  692MOL0     C91233   0.769  -1.461   2.625 -0.2873  0.7578 -0.0412
  692MOL0     C91234   0.670  -1.410   2.728 -0.4003 -0.4877  0.0731
  692MOL0     C91235   0.520  -1.411   2.691  0.2499  0.2476  0.4082
  692MOL0     O91236   0.483  -1.545   2.655 -0.5336  0.3122  0.3710
  692MOL0     C91237   0.356  -1.561   2.600 -0.0564 -0.4313 -0.0439
  692MOL0     C91238   0.249  -1.477   2.645 -0.1609 -0.2034 -0.5499
  692MOL0     C91239   0.119  -1.504   2.596 -0.3661 -0.2453 -0.2545
  692MOL0     C91240   0.093  -1.604   2.501 -0.1006  0.6164  0.6329
  692MOL0     C91241  -0.054  -1.630   2.452  0.1041  0.7630  0.2451
  692MOL0     O91242  -0.151  -1.545   2.493  0.4303  0.4131 -0.0333
  692MOL0     C91243  -0.279  -1.574   2.451  0.1608  0.2739 -0.3504
  692MOL0     C91244  -0.382  -1.605   2.538  0.8090  0.4335 -0.1154
  692MOL0     C91245  -0.516  -1.626   2.498 -0.2466 -0.3786  0.5429
  692MOL0     C91246  -0.553  -1.593   2.367 -0.3925  1.3286 -0.3209
  692MOL0     O91247  -0.682  -1.592   2.322 -0.3706  1.0300 -0.6243
  692MOL0     C91248  -0.787  -1.602   2.414  0.8584  1.0718 -0.3637
  692MOL0     C91249  -0.926  -1.580   2.356  0.2504 -0.0201 -0.1298
  692MOL0     C91250  -1.029  -1.584   2.470 -0.1919 -0.3656  0.3867
  692MOL0     C91251  -1.170  -1.554   2.413 -0.1696 -0.3659 -0.0499
  692MOL0     C91252  -1.275  -1.554   2.534  0.0740 -0.3658  0.8387
  692MOL0     C91253  -1.401  -1.479   2.484  0.4078 -0.0870  0.4676
  692MOL0     C91254  -1.520  -1.476   2.587 -0.5849 -0.2180  0.0847
  692MOL0     C91255  -1.624  -1.368   2.555 -0.1257  0.6674  0.2790
  692MOL0    Cl91256  -1.711  -1.354   2.708  0.0303 -0.1785  0.2655
  692MOL0     C91257  -0.457  -1.562   2.280  0.7298  0.3374 -0.5476
  692MOL0     C91258  -0.326  -1.551   2.322 -0.0581 -0.2497 -0.5723
  692MOL0     O91259  -0.067  -1.734   2.388  0.2711  0.4331 -0.1454
  692MOL0     C91260   0.203  -1.690   2.465 -0.1122  0.6107  0.8985
  692MOL0     C91261   0.331  -1.657   2.509 -0.6778  0.1820  0.2622
  692MOL0     N91262   0.658  -1.168   2.500  0.4355  0.1909  0.0717
  692MOL0     N91263   0.684  -1.046   2.482  0.5541 -0.4408  0.6982
  692MOL0     C91264   1.423  -0.185   1.960  0.1436 -0.3108  1.1117
  692MOL0     C91265   1.549  -0.127   1.935  0.9340 -0.0336 -0.2566
  692MOL0     C91266   1.826   0.237   1.803  0.2129 -0.4679  0.1017
  692MOL0     C91267   1.845   0.337   1.718 -0.8008  0.0673 -0.3582
  692MOL0     C91268   1.944   0.432   1.735 -0.0238 -0.3126  0.5319
  692MOL0     C91269   2.025   0.429   1.846  0.0971 -0.0160 -0.5578
  692MOL0     O91270   2.126   0.527   1.855 -0.0355 -0.4751 -0.4396
  692MOL0     C91271   2.246   0.501   1.931  0.2400  1.1674 -0.0268
  692MOL0     C91272   2.373   0.530   1.847  0.3009 -0.2246 -0.0920
  692MOL0     C91273   2.505   0.497   1.925 -0.0172  0.4379  0.4155
  692MOL0     C91274   2.632   0.587   1.891  1.2231  0.5671 -0.7041
  692MOL0     C91275   2.719   0.534   1.797  0.3153 -0.0681 -0.7244
  692MOL0     C91276   2.788   0.487   1.713  0.2437  0.3215  0.6108
  692MOL0     C91277   1.991   0.325   1.946  0.2204 -0.1326 -0.0270
  692MOL0     C91278   1.882   0.236   1.926 -0.4220 -0.0595  0.4386
  692MOL0     H91279   1.440   0.147   1.762 -0.0194 -0.8296 -0.7932
  692MOL0     H91280   1.220   0.034   1.783  0.8835  1.3459  1.3518
  692MOL0     H91281   1.202  -0.338   2.086  1.0866  3.4005  0.4439
  692MOL0     H91282   1.250  -0.403   1.924  0.8677 -1.7703  1.5798
  692MOL0     H91283   1.017  -0.415   1.846  0.6032 -2.5334  0.2168
  692MOL0     H91284   0.964  -0.317   1.989  0.4588 -1.0954  2.4200
  692MOL0     H91285   1.038  -0.510   2.131  0.1891  0.7570  0.3197
  692MOL0     H91286   1.093  -0.599   1.995 -0.8022  0.1816 -2.4787
  692MOL0     H91287   0.800  -0.507   2.050  0.4518  0.9804  1.0885
  692MOL0     H91288   0.846  -0.582   1.902 -2.3347 -1.1044  1.2143
  692MOL0     H91289   0.928  -0.774   1.972 -1.9294  1.3985 -2.8678
  692MOL0     H91290   0.755  -0.748   2.017  0.9515 -1.9456 -0.7686
  692MOL0     H91291   0.846  -0.689   2.248 -0.9095  1.5455 -1.9335
  692MOL0     H91292   0.995  -0.770   2.182 -0.3560 -0.2950  0.1363
  692MOL0     H91293   0.737  -0.914   2.181 -0.6913  0.5888  0.2339
  692MOL0     H91294   0.900  -0.971   2.160  2.0903  3.5695 -2.4168
  692MOL0     H91295   0.827  -0.843   2.429 -0.1990  0.1617  0.4187
  692MOL0     H91296   0.975  -0.931   2.395  0.4561 -0.4403  1.8019
  692MOL0     H91297   0.957  -1.210   2.402  0.7735 -1.2376  2.5071
  692MOL0     H91298   0.832  -1.426   2.411  0.1098 -0.2800  0.6061
  692MOL0     H91299   0.659  -1.431   2.441  0.5218 -3.5641  2.8314
  692MOL0     H91300   0.873  -1.454   2.661  0.0187 -1.4103 -0.3721
  692MOL0     H91301   0.762  -1.570   2.615  0.2203  0.5001  1.9293
  692MOL0     H91302   0.688  -1.446   2.829 -2.2082 -0.4919  0.4285
  692MOL0     H91303   0.688  -1.302   2.739 -0.8125 -0.3732 -0.3219
  692MOL0     H91304   0.497  -1.341   2.610 -0.7117  0.2702  0.6882
  692MOL0     H91305   0.461  -1.385   2.780 -1.9388  1.5890 -1.3405
  692MOL0     H91306   0.275  -1.407   2.724  4.0981 -0.5529 -1.4071
  692MOL0     H91307   0.033  -1.450   2.636 -1.1161 -1.1558 -0.6139
  692MOL0     H91308  -0.358  -1.615   2.643  3.2117 -2.7529 -0.8218
  692MOL0     H91309  -0.586  -1.668   2.569  0.1214 -2.0657 -0.0599
  692MOL0     H91310  -0.765  -1.531   2.495  3.8925 -1.0521  0.8227
  692MOL0     H91311  -0.783  -1.703   2.455 -2.2281  0.3183 -1.6388
  692MOL0     H91312  -0.940  -1.659   2.283 -0.5734 -2.3175  2.3485
  692MOL0     H91313  -0.938  -1.480   2.312  1.1195  0.1914  0.0953
  692MOL0     H91314  -1.001  -1.510   2.545  2.7272 -0.2326 -0.6979
  692MOL0     H91315  -1.032  -1.686   2.511 -0.6215 -0.3852  0.3180
  692MOL0     H91316  -1.164  -1.453   2.370 -0.9875 -0.6188 -0.7941
  692MOL0     H91317  -1.209  -1.606   2.325  2.3788  3.0111 -3.5142
  692MOL0     H91318  -1.240  -1.494   2.618  0.0626 -0.6819  1.0720
  692MOL0     H91319  -1.310  -1.651   2.572  1.2717 -1.4782 -0.7246
  692MOL0     H91320  -1.439  -1.534   2.398 -1.2332 -1.9018  2.2404
  692MOL0     H91321  -1.371  -1.379   2.451 -2.8879  0.7203 -0.4133
  692MOL0     H91322  -1.573  -1.571   2.582 -0.3907 -0.2769 -1.1817
  692MOL0     H91323  -1.482  -1.453   2.687  2.0000 -3.5802  0.0726
  692MOL0     H91324  -1.695  -1.395   2.477 -2.0140 -0.5299  2.3010
  692MOL0     H91325  -1.585  -1.268   2.532 -0.5945  0.6335 -0.7206
  692MOL0     H91326  -0.497  -1.550   2.179 -1.2789 -0.5798  0.0746
  692MOL0     H91327  -0.254  -1.526   2.245 -2.0662 -0.3611 -2.5981
  692MOL0     H91328   0.187  -1.767   2.391 -2.3241  0.7242  1.2021
  692MOL0     H91329   0.423  -1.698   2.469 -0.9215  0.6495 -0.7972
  692MOL0     H91330   1.416  -0.268   2.031 -2.9998  1.1213  2.6856
  692MOL0     H91331   1.638  -0.165   1.985  1.5239  1.2908 -0.2379
  692MOL0     H91332   1.778   0.353   1.634 -2.1214  0.4426  0.7427
  692MOL0     H91333   1.936   0.522   1.675 -3.4520 -2.0608 -2.0480
  692MOL0     H91334   2.243   0.395   1.959 -0.4902  1.0188 -0.6289
  692MOL0     H91335   2.255   0.558   2.024  0.0403  0.0408  0.7054
  692MOL0     H91336   2.367   0.461   1.762 -2.7784 -1.6002  1.0535
  692MOL0     H91337   2.373   0.633   1.813 -0.5690 -0.0239  0.4701
  692MOL0     H91338   2.536   0.393   1.912  2.8386  1.3731 -1.3056
  692MOL0     H91339   2.481   0.528   2.027  0.2393  1.8575  0.0672
  692MOL0     H91340   2.600   0.688   1.864 -2.5815 -0.1175  0.5727
  692MOL0     H91341   2.689   0.599   1.983  2.8014  1.2874 -1.7504
  692MOL0     H91342   2.872   0.449   1.659  0.8633 -1.2238  2.5651
  692MOL0     H91343   2.034   0.318   2.045  0.1154 -1.5274 -0.0611
  692MOL0     H91344   1.864   0.169   2.010  2.5786  0.3988  1.5654
  693MOL0     O91345   0.467   8.328   9.507  0.5474  0.3173 -0.6176
  693MOL0     C91346   0.429   8.327   9.395  0.1120 -0.0709 -0.5248
  693MOL0     O91347   0.310   8.271   9.349 -0.2295  0.4590 -0.0808
  693MOL0     C91348   0.227   8.203   9.436 -0.4423 -0.1888 -0.0716
  693MOL0     C91349   0.175   8.082   9.406  0.1423  0.1644  0.8806
  693MOL0     C91350   0.090   8.008   9.484 -0.0564 -0.5078  0.8141
  693MOL0     C91351   0.073   8.053   9.613  0.7241  0.7980  0.0579
  693MOL0     O91352  -0.004   7.969   9.693 -0.5505  0.9147  1.1605
  693MOL0     C91353  -0.045   8.024   9.818  0.4100  0.5022 -0.0110
  693MOL0     C91354  -0.126   7.921   9.897 -0.2047 -0.6344  0.6706
  693MOL0     C91355  -0.078   7.919  10.045  0.5222  0.2784  1.6106
  693MOL0     C91356  -0.160   7.808  10.113 -0.4421 -0.6124  0.2473
  693MOL0     C91357  -0.219   7.834  10.250  0.4533 -0.2171 -0.6008
  693MOL0     C91358  -0.328   7.952  10.256  0.2956  0.5832 -0.6204
  693MOL0     C91359  -0.370   7.990  10.405 -0.3034 -0.0696  0.8394
  693MOL0     C91360  -0.292   8.096  10.483  0.9978 -0.1052  0.1064
  693MOL0     N91361  -0.288   8.232  10.432 -0.0717 -0.2570 -0.1705
  693MOL0     C91362  -0.386   8.325  10.449  0.0471 -0.0293  0.4302
  693MOL0     C91363  -0.328   8.433  10.384 -0.8633  0.5297 -0.0035
  693MOL0     C91364  -0.389   8.562  10.340  0.0191  0.5404 -0.6685
  693MOL0     C91365  -0.371   8.666  10.448  0.9330 -0.4998 -0.0328
  693MOL0     C91366  -0.473   8.782  10.430 -0.1619  1.1146  0.0398
  693MOL0     C91367  -0.455   8.895  10.518  0.6886  0.6607 -0.2263
  693MOL0     O91368  -0.483   8.856  10.655 -0.7655  0.2814 -0.7662
  693MOL0     C91369  -0.573   8.924  10.740 -0.0273  0.0475 -0.3003
  693MOL0     C91370  -0.573   8.880  10.872  0.5456  0.3552  0.0679
  693MOL0     C91371  -0.652   8.943  10.971 -0.3478  0.3744 -0.2385
  693MOL0     C91372  -0.738   9.046  10.927 -0.3875  0.3683  0.3183
  693MOL0     C91373  -0.832   9.110  11.017  1.1013 -0.6727  0.2761
  693MOL0     O91374  -0.923   9.195  10.947  0.2881  0.4818  0.0251
  693MOL0     C91375  -1.008   9.277  11.011 -0.2342  0.4095 -0.0242
  693MOL0     C91376  -0.975   9.355  11.124  0.4951 -0.3007 -0.0458
  693MOL0     C91377  -1.073   9.422  11.196 -0.0652  0.5094  0.7580
  693MOL0     C91378  -1.208   9.421  11.144 -0.7283 -0.3909  0.1220
  693MOL0     O91379  -1.308   9.490  11.196 -0.1416 -0.3199 -0.4808
  693MOL0     C91380  -1.271   9.609  11.275 -0.0436 -0.0556 -0.3959
  693MOL0     C91381  -1.399   9.690  11.292  0.0079 -0.1125  0.1592
  693MOL0     C91382  -1.383   9.816  11.380 -0.3532 -0.1395  1.1111
  693MOL0     C91383  -1.513   9.907  11.370  0.0912 -0.2148  0.4682
  693MOL0     C91384  -1.498  10.043  11.437  0.4528 -0.5951 -0.2345
  693MOL0     C91385  -1.637  10.114  11.451 -0.6625  0.0533  0.3919
  693MOL0     C91386  -1.701  10.145  11.323 -0.0535 -0.5822  0.4190
  693MOL0     C91387  -1.846  10.193  11.342 -1.2062  0.2827  0.4477
  693MOL0    Cl91388  -1.911  10.225  11.182  0.2124  0.0114 -0.3073
  693MOL0     C91389  -1.241   9.352  11.030 -0.0603  0.4722 -0.4778
  693MOL0     C91390  -1.138   9.279  10.965  0.0158  0.5299 -0.0159
  693MOL0     O91391  -0.822   9.085  11.140  0.3970  0.0284  0.3946
  693MOL0     C91392  -0.742   9.089  10.788  0.3550  0.1454 -0.0400
  693MOL0     C91393  -0.664   9.025  10.694 -0.8472 -0.6532 -0.4845
  693MOL0     N91394  -0.197   8.415  10.340  0.1185  0.2567  0.2738
  693MOL0     N91395  -0.181   8.288  10.367  0.2043 -0.3419 -0.3133
  693MOL0     C91396   0.120   8.183   9.653 -0.0400  0.9373  0.5146
  693MOL0     C91397   0.199   8.257   9.563 -0.4627  0.2242  0.1111
  693MOL0     C91398   0.507   8.385   9.290  0.9685  0.0914  0.1664
  693MOL0     C91399   0.452   8.450   9.183 -0.5523  0.1919  0.1610
  693MOL0     C91400   0.540   8.503   9.085 -0.0608  0.5521 -0.0233
  693MOL0     C91401   0.681   8.480   9.084  0.0533  0.2987 -0.4953
  693MOL0     O91402   0.758   8.523   8.974  1.0846 -0.2977 -0.3192
  693MOL0     C91403   0.891   8.461   8.951 -0.1203 -0.5747 -0.4475
  693MOL0     C91404   0.944   8.527   8.833  0.1027 -0.1911 -0.0475
  693MOL0     C91405   0.966   8.676   8.856  0.3248  0.4598  0.4839
  693MOL0     C91406   1.029   8.756   8.729  0.5483 -0.0192 -0.0351
  693MOL0     C91407   1.164   8.710   8.718  0.2339  0.4790 -1.0553
  693MOL0     C91408   1.273   8.659   8.722  0.1097 -0.5107  0.1685
  693MOL0     C91409   0.734   8.410   9.190 -0.0956  0.2819  0.7624
  693MOL0     C91410   0.646   8.370   9.293 -0.7484  0.0807  0.4474
  693MOL0     H91411   0.201   8.054   9.305  2.3516  3.1624  0.4534
  693MOL0     H91412   0.055   7.913   9.444  2.2151 -0.3230 -1.9119
  693MOL0     H91413  -0.114   8.108   9.803 -0.3264 -0.1515 -0.4401
  693MOL0     H91414   0.046   8.053   9.870  2.0443 -3.4101 -0.3884
  693MOL0     H91415  -0.114   7.821   9.856  0.5492  0.4655 -1.9683
  693MOL0     H91416  -0.230   7.953   9.901 -0.3496 -1.1059  0.7079
  693MOL0     H91417  -0.100   8.014  10.094 -0.4464  1.8972 -1.6711
  693MOL0     H91418   0.029   7.897  10.054  0.8668  0.8975 -0.4506
  693MOL0     H91419  -0.242   7.771  10.050  1.6746 -3.7419 -0.9184
  693MOL0     H91420  -0.102   7.716  10.116 -1.2100 -1.0782  1.1687
  693MOL0     H91421  -0.141   7.842  10.327  2.0027 -2.6804 -1.7933
  693MOL0     H91422  -0.277   7.743  10.268  0.1182  0.2185  0.6071
  693MOL0     H91423  -0.419   7.928  10.202  0.0499  1.2005 -0.4871
  693MOL0     H91424  -0.287   8.034  10.197 -0.4568  1.2917 -0.1759
  693MOL0     H91425  -0.475   8.021  10.405  0.8015  4.3438  1.6926
  693MOL0     H91426  -0.354   7.893  10.452  2.5760 -0.6115 -0.9997
  693MOL0     H91427  -0.187   8.068  10.489  1.1334  0.4651  0.4560
  693MOL0     H91428  -0.335   8.116  10.582  1.0198  1.0554 -0.1135
  693MOL0     H91429  -0.485   8.321  10.493 -0.4803  2.8957 -0.2385
  693MOL0     H91430  -0.493   8.534  10.323 -0.0350 -0.4491  1.0740
  693MOL0     H91431  -0.341   8.607  10.252  1.6851  0.0405 -0.0704
  693MOL0     H91432  -0.274   8.716  10.446  0.7196 -0.0893 -0.5877
  693MOL0     H91433  -0.380   8.610  10.542 -1.6616 -0.3647 -0.1065
  693MOL0     H91434  -0.472   8.821  10.328 -2.3432  0.1353 -0.4192
  693MOL0     H91435  -0.575   8.741  10.432  0.9326 -1.9715 -0.8703
  693MOL0     H91436  -0.512   8.985  10.496 -2.8375 -0.9572  1.5318
  693MOL0     H91437  -0.349   8.916  10.536  0.7784  0.3820 -0.4365
  693MOL0     H91438  -0.503   8.804  10.903  1.4267  0.9481 -0.4476
  693MOL0     H91439  -0.630   8.927  11.076  0.1873 -1.1289 -0.5556
  693MOL0     H91440  -0.869   9.359  11.146  0.4893 -0.7501  0.0836
  693MOL0     H91441  -1.056   9.478  11.287 -0.0722  3.5084 -0.9676
  693MOL0     H91442  -1.202   9.675  11.222 -0.6055 -0.0379 -1.1241
  693MOL0     H91443  -1.227   9.582  11.371 -0.5509  3.5194  0.9991
  693MOL0     H91444  -1.473   9.629  11.344  0.1675  1.8351  2.9158
  693MOL0     H91445  -1.421   9.720  11.189 -0.2068  0.3201  0.3299
  693MOL0     H91446  -1.296   9.870  11.342 -0.8879  0.5622  0.8697
  693MOL0     H91447  -1.364   9.787  11.484 -0.7229 -0.3529  1.1188
  693MOL0     H91448  -1.532   9.914  11.263 -1.7860 -3.8206  0.4035
  693MOL0     H91449  -1.592   9.846  11.414 -1.1600 -1.8740 -3.5962
  693MOL0     H91450  -1.430  10.104  11.377 -0.6186 -0.5487 -1.4614
  693MOL0     H91451  -1.453  10.040  11.537 -0.1940 -1.9843  0.0328
  693MOL0     H91452  -1.634  10.200  11.519 -3.0039  0.7507 -0.2759
  693MOL0     H91453  -1.702  10.048  11.509 -0.6327  0.7103  1.1874
  693MOL0     H91454  -1.647  10.217  11.262 -0.9665  0.8659  1.2520
  693MOL0     H91455  -1.710  10.065  11.250 -3.6950 -0.7427  0.8797
  693MOL0     H91456  -1.836  10.279  11.408  1.6289 -1.2458  2.2181
  693MOL0     H91457  -1.893  10.108  11.393 -1.5294  0.4979  0.5137
  693MOL0     H91458  -1.342   9.347  10.990 -0.4947  2.8038  0.1826
  693MOL0     H91459  -1.151   9.223  10.873 -2.3613  0.8753  0.0576
  693MOL0     H91460  -0.814   9.165  10.757 -0.8260 -1.3458 -1.0576
  693MOL0     H91461  -0.691   9.070  10.599 -1.1088 -1.6233 -0.8850
  693MOL0     H91462   0.107   8.227   9.751 -2.0671  1.2936  0.1300
  693MOL0     H91463   0.235   8.358   9.579 -1.4597  0.5993  0.0491
  693MOL0     H91464   0.347   8.451   9.157 -0.0993 -3.3189 -2.5158
  693MOL0     H91465   0.494   8.549   8.997  3.4311  1.2813 -1.6155
  693MOL0     H91466   0.893   8.352   8.941  0.0891 -0.6122 -0.0299
  693MOL0     H91467   0.960   8.492   9.030  0.5908  1.7568 -1.8489
  693MOL0     H91468   1.035   8.478   8.797 -0.5288 -2.1595  0.8952
  693MOL0     H91469   0.872   8.525   8.751  0.2969  0.1965 -0.2283
  693MOL0     H91470   1.030   8.671   8.945  3.1081 -0.6883 -1.4552
  693MOL0     H91471   0.866   8.715   8.878  0.1010  0.3858 -0.3686
  693MOL0     H91472   0.975   8.730   8.638  1.8889  0.3199 -0.9354
  693MOL0     H91473   1.024   8.865   8.739  0.4313  0.2791 -2.6855
  693MOL0     H91474   1.364   8.603   8.712 -0.9743 -2.0391 -1.6304
  693MOL0     H91475   0.841   8.393   9.197 -0.0127  0.0986 -0.7904
  693MOL0     H91476   0.676   8.310   9.378 -2.8727 -0.4148  0.9152
  694MOL0     O91477   5.876   8.784   6.436 -0.6726 -0.0218 -0.2798
  694MOL0     C91478   5.854   8.863   6.525  0.2911 -0.0161 -0.0951
  694MOL0     O91479   5.752   8.866   6.608  0.3124 -0.1325  0.4256
  694MOL0     C91480   5.620   8.806   6.582 -0.2934 -0.3097 -0.2898
  694MOL0     C91481   5.572   8.748   6.466  0.0837  0.3209  0.3191
  694MOL0     C91482   5.449   8.683   6.468  0.0541 -0.0095 -0.0292
  694MOL0     C91483   5.365   8.689   6.582  0.1231  0.2945 -0.4921
  694MOL0     O91484   5.232   8.654   6.596 -0.6242  0.4628  0.3121
  694MOL0     C91485   5.157   8.595   6.485  0.2897 -0.0843 -1.2082
  694MOL0     C91486   5.007   8.572   6.529 -0.5801  1.4973 -0.6057
  694MOL0     C91487   4.914   8.687   6.483 -0.9941  0.2430 -0.0306
  694MOL0     C91488   4.765   8.663   6.508 -0.3287 -1.1377  0.8873
  694MOL0     C91489   4.683   8.792   6.488  0.7909  0.4988  0.3210
  694MOL0     C91490   4.543   8.747   6.447  0.2365 -0.0072  0.4589
  694MOL0     C91491   4.439   8.850   6.414  0.0595  0.3879 -0.4479
  694MOL0     C91492   4.404   8.949   6.513 -0.5502 -0.3946 -0.1087
  694MOL0     N91493   4.324   9.069   6.465  0.2919  0.2415 -0.0266
  694MOL0     C91494   4.370   9.189   6.411 -0.3479 -0.3019 -0.0621
  694MOL0     C91495   4.264   9.244   6.354  0.1322 -0.6944 -0.2354
  694MOL0     C91496   4.262   9.388   6.292  0.3037  0.2022 -0.3931
  694MOL0     C91497   4.267   9.492   6.405 -0.4534  0.3260 -0.2499
  694MOL0     C91498   4.131   9.557   6.422  0.4658 -0.0236 -0.0769
  694MOL0     C91499   4.021   9.457   6.459  0.2221 -0.1730 -0.3278
  694MOL0     O91500   3.901   9.527   6.497 -0.4150  0.5833 -0.1418
  694MOL0     C91501   3.797   9.444   6.540 -0.6730  0.2170  0.8296
  694MOL0     C91502   3.664   9.502   6.558  0.5772 -0.4779 -0.8398
  694MOL0     C91503   3.551   9.427   6.616 -0.8266 -0.3754  1.0001
  694MOL0     C91504   3.563   9.291   6.644 -0.4135  0.2203 -0.6707
  694MOL0     C91505   3.444   9.205   6.691 -0.4262  0.2042  1.5911
  694MOL0     O91506   3.334   9.267   6.729 -0.7920  0.1339 -0.2361
  694MOL0     C91507   3.235   9.184   6.782  0.2934 -0.2308  0.7216
  694MOL0     C91508   3.155   9.121   6.687 -0.5718 -0.0046 -0.7939
  694MOL0     C91509   3.041   9.051   6.725 -0.3000 -0.4317  0.1300
  694MOL0     C91510   3.008   9.032   6.865  0.0958 -0.4182 -0.5195
  694MOL0     O91511   2.917   8.946   6.920 -0.5611 -0.6299 -0.7928
  694MOL0     C91512   2.779   8.962   6.864 -0.6216 -0.2558 -1.2287
  694MOL0     C91513   2.677   8.862   6.917  0.0002 -0.2056 -0.1521
  694MOL0     C91514   2.555   8.855   6.842  0.0467  0.3588 -0.5009
  694MOL0     C91515   2.447   8.756   6.908  0.1222 -0.0885  0.2399
  694MOL0     C91516   2.301   8.776   6.858 -0.5806  0.6655 -0.0806
  694MOL0     C91517   2.200   8.690   6.938 -0.5799  0.0828 -0.6511
  694MOL0     C91518   2.052   8.713   6.912  0.8461 -0.5845 -0.1803
  694MOL0     C91519   2.016   8.724   6.767 -0.0560  0.7889  0.3849
  694MOL0    Cl91520   1.835   8.761   6.737 -0.4018 -0.3136 -0.1652
  694MOL0     C91521   3.091   9.098   6.955 -0.4306 -0.1143  0.2144
  694MOL0     C91522   3.194   9.187   6.915  0.0225 -0.0824 -0.3595
  694MOL0     O91523   3.465   9.083   6.715 -0.1677 -0.2940  0.4232
  694MOL0     C91524   3.692   9.233   6.622  0.0242  0.4574 -0.5374
  694MOL0     C91525   3.799   9.309   6.565 -0.1088  0.9548 -0.2966
  694MOL0     N91526   4.150   9.165   6.364  0.2061 -0.1883 -0.3079
  694MOL0     N91527   4.191   9.061   6.438 -0.4324  0.1841  0.4306
  694MOL0     C91528   5.413   8.755   6.692 -0.2582 -0.6329 -0.0240
  694MOL0     C91529   5.541   8.810   6.691  0.2236 -0.3651  0.2500
  694MOL0     C91530   5.956   8.966   6.555  0.5351  0.9595  0.5652
  694MOL0     C91531   6.058   8.990   6.453 -0.1691  0.3389 -0.0396
  694MOL0     C91532   6.160   9.078   6.479  0.6627  1.2349 -1.1142
  694MOL0     C91533   6.168   9.145   6.600  0.2511 -1.1919  0.6298
  694MOL0     O91534   6.272   9.228   6.636  0.0927 -0.0835 -0.2653
  694MOL0     C91535   6.376   9.250   6.544 -0.4833 -0.0338  0.0039
  694MOL0     C91536   6.480   9.348   6.611 -0.2141  0.2666 -0.3892
  694MOL0     C91537   6.528   9.306   6.749 -0.1160 -0.6907  0.2546
  694MOL0     C91538   6.632   9.199   6.729 -0.2462  0.6653 -0.5562
  694MOL0     C91539   6.755   9.209   6.804  1.0155 -0.0463 -0.3766
  694MOL0     C91540   6.864   9.224   6.856  0.5165  0.1396  0.4178
  694MOL0     C91541   6.064   9.123   6.696 -0.4908  0.0747 -0.5512
  694MOL0     C91542   5.963   9.029   6.674  0.3382 -0.4345  0.4028
  694MOL0     H91543   5.621   8.743   6.369 -3.1014 -0.9228 -1.3769
  694MOL0     H91544   5.409   8.634   6.379 -0.4054  1.2658 -0.5467
  694MOL0     H91545   5.204   8.497   6.471  1.6905  0.1552  1.1822
  694MOL0     H91546   5.164   8.657   6.396  0.4556 -1.6566 -2.3292
  694MOL0     H91547   5.002   8.572   6.638  1.9591  0.1654 -0.4277
  694MOL0     H91548   4.986   8.474   6.485  0.7765  1.5377 -1.4228
  694MOL0     H91549   4.928   8.703   6.376  0.5730 -1.4426 -0.1295
  694MOL0     H91550   4.937   8.775   6.544 -0.7189 -1.8970  3.1787
  694MOL0     H91551   4.733   8.591   6.432  1.4500  1.6602 -2.8224
  694MOL0     H91552   4.746   8.611   6.603 -1.7809 -4.7061 -1.1336
  694MOL0     H91553   4.712   8.871   6.419 -0.8273  0.4746 -0.4319
  694MOL0     H91554   4.687   8.838   6.587 -0.6267 -1.1303  1.1900
  694MOL0     H91555   4.509   8.685   6.530  2.1096  0.4832  1.6743
  694MOL0     H91556   4.551   8.677   6.364 -0.0872  3.2381 -2.5366
  694MOL0     H91557   4.467   8.906   6.324  1.5091  0.4505  0.0232
  694MOL0     H91558   4.347   8.795   6.390 -1.3441  1.6676  1.6387
  694MOL0     H91559   4.497   8.971   6.566 -0.6969 -1.9447  0.8411
  694MOL0     H91560   4.338   8.895   6.581 -0.0122  0.1451  0.8546
  694MOL0     H91561   4.466   9.236   6.422 -1.1969  1.3363  0.6950
  694MOL0     H91562   4.171   9.398   6.233 -0.3343 -0.3848  0.4712
  694MOL0     H91563   4.359   9.413   6.248  0.5761  0.4628  0.3224
  694MOL0     H91564   4.347   9.565   6.390 -0.0136 -0.2412 -0.7263
  694MOL0     H91565   4.300   9.452   6.501 -2.2801  0.7276  0.5859
  694MOL0     H91566   4.132   9.641   6.493 -0.6802  0.2743 -0.3993
  694MOL0     H91567   4.108   9.605   6.327 -1.1217 -0.1773  0.2015
  694MOL0     H91568   4.073   9.395   6.533  3.0746  1.4811 -0.7673
  694MOL0     H91569   3.994   9.387   6.380  2.0086 -0.4331 -0.7626
  694MOL0     H91570   3.653   9.609   6.550 -1.6171 -0.3808  1.9106
  694MOL0     H91571   3.459   9.478   6.644 -2.5481 -3.0428  0.6733
  694MOL0     H91572   3.190   9.119   6.584  1.0129  0.3845 -0.2909
  694MOL0     H91573   2.983   9.004   6.647  0.7132 -0.2570 -0.7539
  694MOL0     H91574   2.797   8.931   6.761 -1.9645  0.0283 -1.5820
  694MOL0     H91575   2.742   9.065   6.877 -1.5992 -0.9984  4.4375
  694MOL0     H91576   2.651   8.862   7.023 -1.4554 -0.5463 -0.4918
  694MOL0     H91577   2.736   8.771   6.909  0.7163 -0.0478  2.4398
  694MOL0     H91578   2.580   8.809   6.746  0.0784  1.7707 -1.1845
  694MOL0     H91579   2.520   8.955   6.817  0.3927  0.7205  0.4138
  694MOL0     H91580   2.475   8.651   6.907 -1.8346 -0.6360  0.1521
  694MOL0     H91581   2.452   8.774   7.016  2.6732  0.5428  0.0869
  694MOL0     H91582   2.305   8.759   6.750  2.2492 -0.2610  0.1004
  694MOL0     H91583   2.280   8.879   6.889 -0.5656  0.2636  1.3650
  694MOL0     H91584   2.218   8.692   7.046 -1.4448 -2.2529 -0.3973
  694MOL0     H91585   2.219   8.585   6.915  1.9883  0.0462  1.1776
  694MOL0     H91586   1.984   8.646   6.965 -1.8452  3.0542  1.4095
  694MOL0     H91587   2.035   8.806   6.968  1.0965 -0.6232 -0.0352
  694MOL0     H91588   2.042   8.634   6.712  2.5186  3.0891 -2.5456
  694MOL0     H91589   2.084   8.801   6.727  0.1494  0.1222 -0.5728
  694MOL0     H91590   3.082   9.086   7.062  2.4790  0.4189  0.5927
  694MOL0     H91591   3.243   9.246   6.992 -1.2070  1.8689 -0.9860
  694MOL0     H91592   3.711   9.129   6.645  1.4538  0.6403 -0.8071
  694MOL0     H91593   3.890   9.255   6.542 -1.4384 -1.4322 -0.3229
  694MOL0     H91594   5.348   8.773   6.777 -2.2139  2.1463 -1.9444
  694MOL0     H91595   5.561   8.857   6.787 -1.6325 -1.8717  1.4367
  694MOL0     H91596   6.062   8.925   6.365  1.6295 -1.6010  1.3639
  694MOL0     H91597   6.239   9.085   6.405  0.7320 -2.0786 -1.5190
  694MOL0     H91598   6.331   9.285   6.450  1.1214  0.9608 -0.4251
  694MOL0     H91599   6.434   9.161   6.517 -0.1580 -0.0679  0.7907
  694MOL0     H91600   6.564   9.379   6.549  0.3969 -0.6018 -0.0143
  694MOL0     H91601   6.426   9.443   6.624 -0.8549  0.2087 -2.3096
  694MOL0     H91602   6.446   9.281   6.817  0.2225  0.2197  1.0222
  694MOL0     H91603   6.572   9.390   6.805  0.5337 -1.2363  0.5717
  694MOL0     H91604   6.591   9.099   6.746  1.1267  0.3157  0.9510
  694MOL0     H91605   6.667   9.201   6.625 -1.8862  1.2728 -1.1209
  694MOL0     H91606   6.966   9.223   6.892  0.0804 -0.6972  1.7317
  694MOL0     H91607   6.065   9.197   6.775  0.3067  1.5071 -1.8364
  694MOL0     H91608   5.882   9.013   6.745  2.3228 -1.3262  2.6254
  695MOL0     O91609   8.100   4.186  10.735 -0.2043  0.4314 -0.0332
  695MOL0     C91610   8.037   4.250  10.817  0.1585  0.2051  0.0104
  695MOL0     O91611   8.080   4.351  10.898 -0.0608 -0.1872 -0.7801
  695MOL0     C91612   8.217   4.379  10.910 -0.4779 -0.4843 -0.4397
  695MOL0     C91613   8.306   4.388  10.799  0.3341 -0.4474 -0.8972
  695MOL0     C91614   8.434   4.439  10.824 -0.8719 -0.4930 -0.8453
  695MOL0     C91615   8.468   4.482  10.953 -0.7553 -0.8022  0.2569
  695MOL0     O91616   8.590   4.543  10.967 -0.6113 -0.2437 -0.3489
  695MOL0     C91617   8.702   4.455  10.939 -0.6517  0.7329 -0.6026
  695MOL0     C91618   8.816   4.497  11.034 -0.1628 -0.4960  0.1945
  695MOL0     C91619   8.954   4.488  10.979  0.1199  0.4205  0.3051
  695MOL0     C91620   8.998   4.345  10.942 -0.7845 -0.8565 -0.3590
  695MOL0     C91621   9.142   4.351  10.888 -0.3355 -0.0011 -0.0512
  695MOL0     C91622   9.176   4.225  10.814 -0.0434 -0.7600 -0.2035
  695MOL0     C91623   9.286   4.250  10.703  0.1256  0.1674 -1.0243
  695MOL0     C91624   9.410   4.306  10.775 -0.1783  0.1475 -0.6607
  695MOL0     N91625   9.464   4.217  10.874 -0.6927  0.4231  0.0599
  695MOL0     C91626   9.562   4.127  10.861  0.1295  0.3599 -0.1406
  695MOL0     C91627   9.605   4.089  10.985 -0.0488 -0.0154 -0.4067
  695MOL0     C91628   9.711   3.983  11.023  0.5878  0.5363 -1.0045
  695MOL0     C91629   9.852   4.044  11.033  0.4631  0.3409  0.0036
  695MOL0     C91630   9.943   3.955  11.109 -0.1977  0.9797 -0.5116
  695MOL0     C91631  10.085   4.000  11.129 -0.6112 -0.2899 -0.3645
  695MOL0     O91632  10.127   4.109  11.046  0.5954  0.3729 -0.0807
  695MOL0     C91633  10.244   4.167  11.083  0.1769  0.6723 -0.0653
  695MOL0     C91634  10.265   4.281  10.997  0.7958 -1.1638 -1.0406
  695MOL0     C91635  10.390   4.341  10.998  0.2898 -0.2421 -0.2658
  695MOL0     C91636  10.495   4.299  11.094 -0.4537 -1.0718  0.2823
  695MOL0     C91637  10.618   4.382  11.110 -0.4347  0.3944  0.3744
  695MOL0     O91638  10.706   4.350  11.207 -0.4036  0.3661  0.2739
  695MOL0     C91639  10.850   4.373  11.195  0.2454 -0.7522  0.0132
  695MOL0     C91640  10.920   4.387  11.315  0.6407  0.2286 -0.9041
  695MOL0     C91641  11.063   4.391  11.331 -0.3779 -0.8150  0.4598
  695MOL0     C91642  11.134   4.388  11.212  0.4423 -0.8118  0.1307
  695MOL0     O91643  11.271   4.412  11.226 -0.1420  0.2872 -0.3235
  695MOL0     C91644  11.341   4.441  11.106 -0.4578  0.0767 -0.0099
  695MOL0     C91645  11.487   4.487  11.139 -0.7466 -0.1113  0.2994
  695MOL0     C91646  11.587   4.501  11.032 -1.2274  0.6816  0.8557
  695MOL0     C91647  11.730   4.529  11.080 -1.0257  0.0546  0.3117
  695MOL0     C91648  11.820   4.576  10.968 -0.3022  0.4527 -0.2993
  695MOL0     C91649  11.965   4.607  11.017 -0.2190 -0.6467  0.7415
  695MOL0     C91650  12.065   4.646  10.914  0.7698  0.1788  0.6149
  695MOL0     C91651  12.205   4.659  10.983 -0.0701 -0.4425  0.0779
  695MOL0    Cl91652  12.295   4.502  11.001 -0.5212 -0.2962 -0.2362
  695MOL0     C91653  11.063   4.389  11.088 -0.5582 -1.0989 -0.2458
  695MOL0     C91654  10.923   4.377  11.078  0.3784  0.1848  0.3663
  695MOL0     O91655  10.639   4.458  11.013 -0.2828 -0.1301  0.2508
  695MOL0     C91656  10.472   4.179  11.170 -0.3841 -0.2564  0.0347
  695MOL0     C91657  10.350   4.118  11.159  0.6411  0.0162 -0.0710
  695MOL0     N91658   9.522   4.156  11.074 -0.2814 -0.3176  0.1593
  695MOL0     N91659   9.443   4.242  11.008  0.3658  0.4058 -0.3193
  695MOL0     C91660   8.384   4.478  11.067 -0.4862 -0.5787  0.3524
  695MOL0     C91661   8.256   4.423  11.038  0.0090 -0.6291 -0.4341
  695MOL0     C91662   7.893   4.207  10.835 -0.0860 -0.1957  0.0014
  695MOL0     C91663   7.842   4.116  10.742 -0.5833 -0.2761  0.4630
  695MOL0     C91664   7.713   4.062  10.772 -0.5632  0.7236 -0.7002
  695MOL0     C91665   7.623   4.101  10.873 -0.5696 -0.2773 -0.2201
  695MOL0     O91666   7.493   4.055  10.894  0.2658 -1.2256  0.4070
  695MOL0     C91667   7.434   3.968  10.799  0.8321  0.1275 -0.4278
  695MOL0     C91668   7.457   3.823  10.841  0.5481 -0.3962  0.2153
  695MOL0     C91669   7.406   3.720  10.739  0.8938  0.1223  1.4206
  695MOL0     C91670   7.453   3.582  10.782  0.1164 -0.3680  0.4356
  695MOL0     C91671   7.443   3.479  10.678 -0.4383  0.3048 -0.1764
  695MOL0     C91672   7.439   3.385  10.601 -0.0887  0.1571  0.2411
  695MOL0     C91673   7.682   4.195  10.963 -0.5602 -0.2210  0.5811
  695MOL0     C91674   7.812   4.246  10.939 -0.1693  0.1771  0.0295
  695MOL0     H91675   8.276   4.362  10.698 -1.6581 -2.9384  0.1943
  695MOL0     H91676   8.495   4.463  10.737 -2.8461 -1.3470 -2.5382
  695MOL0     H91677   8.723   4.453  10.832  0.8851  0.1839 -0.3171
  695MOL0     H91678   8.683   4.355  10.980 -0.1138  1.3273  1.2238
  695MOL0     H91679   8.809   4.435  11.124  0.5574 -3.7149 -1.8011
  695MOL0     H91680   8.798   4.601  11.061 -1.5598  0.0977 -2.6571
  695MOL0     H91681   9.021   4.513  11.062  1.2781 -0.2584 -0.3957
  695MOL0     H91682   8.974   4.549  10.890 -0.5728 -0.7539 -0.6832
  695MOL0     H91683   9.000   4.294  11.039  2.6682  1.7738  1.2012
  695MOL0     H91684   8.926   4.293  10.878 -1.1873 -0.3500 -0.3212
  695MOL0     H91685   9.216   4.362  10.968  0.0020  1.0999 -0.5066
  695MOL0     H91686   9.152   4.431  10.815  0.0459 -0.3171 -0.3510
  695MOL0     H91687   9.089   4.188  10.759  1.1797  1.1980 -3.8464
  695MOL0     H91688   9.204   4.137  10.871 -3.4805 -1.9607 -0.1636
  695MOL0     H91689   9.318   4.152  10.667 -0.7167 -0.9874  1.1491
  695MOL0     H91690   9.246   4.313  10.623  0.5645 -0.6276 -1.8902
  695MOL0     H91691   9.387   4.397  10.831  0.7399 -0.4039  0.6605
  695MOL0     H91692   9.488   4.347  10.710 -0.8377  1.7664 -0.4756
  695MOL0     H91693   9.618   4.102  10.772 -0.5560  0.0754 -0.5045
  695MOL0     H91694   9.716   3.903  10.948  0.8060  0.5864 -1.0419
  695MOL0     H91695   9.686   3.934  11.118 -0.8646 -1.4686 -2.3287
  695MOL0     H91696   9.854   4.142  11.083  1.2930  0.3523 -0.0340
  695MOL0     H91697   9.892   4.062  10.933  0.6850  0.0160  0.0353
  695MOL0     H91698   9.907   3.935  11.210  2.0530 -0.4936  0.0662
  695MOL0     H91699   9.956   3.858  11.061  1.7959  0.7038  0.5010
  695MOL0     H91700  10.144   3.912  11.102 -2.8884 -2.4225  1.1964
  695MOL0     H91701  10.096   4.022  11.236 -1.6847 -0.0509 -0.2906
  695MOL0     H91702  10.188   4.312  10.927  0.7784  2.0772  0.2178
  695MOL0     H91703  10.403   4.422  10.927  0.0257  1.5808  1.6911
  695MOL0     H91704  10.854   4.381  11.401  0.0025  1.1932 -1.3040
  695MOL0     H91705  11.119   4.409  11.422  0.1326 -1.9121  0.3812
  695MOL0     H91706  11.283   4.515  11.050 -1.6473  1.7824  3.1576
  695MOL0     H91707  11.349   4.351  11.044  1.4684  0.6300 -0.6420
  695MOL0     H91708  11.518   4.398  11.195 -1.3772 -1.6555 -1.6903
  695MOL0     H91709  11.482   4.573  11.206  2.4620 -0.5478  1.2343
  695MOL0     H91710  11.551   4.584  10.970  1.2131  1.6071  0.5854
  695MOL0     H91711  11.590   4.411  10.970  3.2506  0.8862  0.5002
  695MOL0     H91712  11.722   4.598  11.165 -1.8750 -0.4167  0.6242
  695MOL0     H91713  11.764   4.434  11.121  1.2550  0.2453 -0.9830
  695MOL0     H91714  11.784   4.662  10.910  3.6329  2.4392 -0.1454
  695MOL0     H91715  11.820   4.494  10.895  0.6276  0.3033 -0.1467
  695MOL0     H91716  11.995   4.515  11.067  1.4190 -0.1138  0.7996
  695MOL0     H91717  11.952   4.688  11.089  2.1664 -0.6354  1.2243
  695MOL0     H91718  12.065   4.580  10.826 -0.4499  0.4160  0.4178
  695MOL0     H91719  12.032   4.737  10.863 -0.2969  0.1414  1.2114
  695MOL0     H91720  12.184   4.695  11.084 -0.5164 -0.5483  0.0215
  695MOL0     H91721  12.273   4.728  10.931 -0.6636  0.0556 -0.0424
  695MOL0     H91722  11.114   4.378  10.993 -0.9158 -3.9496 -0.1967
  695MOL0     H91723  10.871   4.383  10.984  1.2934  1.5119 -0.0850
  695MOL0     H91724  10.548   4.140  11.237 -1.3346 -2.7459 -0.2257
  695MOL0     H91725  10.327   4.035  11.225 -0.4330  2.1160  2.3997
  695MOL0     H91726   8.401   4.508  11.169 -1.3413  1.1576  0.0253
  695MOL0     H91727   8.191   4.411  11.124  0.0379 -1.4029 -0.5150
  695MOL0     H91728   7.900   4.093  10.652 -0.0199 -0.2768  0.8230
  695MOL0     H91729   7.680   3.988  10.700  1.3783 -3.1628  2.0788
  695MOL0     H91730   7.465   3.982  10.696 -0.9533  1.0875 -0.8755
  695MOL0     H91731   7.325   3.980  10.797  0.9456  1.1024 -2.1199
  695MOL0     H91732   7.564   3.813  10.857  0.4913 -0.9719  0.2575
  695MOL0     H91733   7.404   3.804  10.935  0.6907  2.8317  1.0802
  695MOL0     H91734   7.444   3.738  10.637  1.5740  1.1864  1.8418
  695MOL0     H91735   7.297   3.725  10.746  0.7475 -0.9902  0.3494
  695MOL0     H91736   7.558   3.598  10.805 -0.6612  2.9231  2.2058
  695MOL0     H91737   7.407   3.546  10.874  3.4913  1.0052  2.8244
  695MOL0     H91738   7.450   3.311  10.524  0.2435 -1.0475  1.4088
  695MOL0     H91739   7.622   4.226  11.048 -0.2222  1.1542  0.3533
  695MOL0     H91740   7.856   4.308  11.017  1.1908 -1.5826  0.7405
  696MOL0     O91741   4.554   1.275   8.356  0.4520  0.7554 -0.0130
  696MOL0     C91742   4.613   1.169   8.338 -0.8309  0.1360 -0.1724
  696MOL0     O91743   4.555   1.051   8.351  0.0423  0.6837 -0.1682
  696MOL0     C91744   4.437   1.039   8.410  0.4519  0.5275  0.7123
  696MOL0     C91745   4.359   0.930   8.367 -0.6688 -0.6540 -0.2607
  696MOL0     C91746   4.228   0.921   8.417 -0.5240 -0.4520  0.5502
  696MOL0     C91747   4.175   1.003   8.510 -0.0283  0.2292  0.2345
  696MOL0     O91748   4.044   0.985   8.559  0.0623 -0.0627 -0.0119
  696MOL0     C91749   3.985   1.092   8.635 -0.4508 -0.7395 -0.0953
  696MOL0     C91750   4.009   1.090   8.789 -1.3160 -0.5138  0.3908
  696MOL0     C91751   3.943   1.202   8.866 -0.5840 -0.1386 -0.3306
  696MOL0     C91752   3.996   1.213   9.009 -0.7115 -0.4616  0.8683
  696MOL0     C91753   3.940   1.109   9.116  0.0767 -0.1363  0.2541
  696MOL0     C91754   3.784   1.092   9.124 -0.3495  0.1606 -0.3268
  696MOL0     C91755   3.736   1.032   9.260 -0.0639 -0.2582 -0.0620
  696MOL0     C91756   3.815   0.910   9.307  0.1383  0.6716 -0.6848
  696MOL0     N91757   3.742   0.852   9.419 -0.8840  0.0576 -0.9399
  696MOL0     C91758   3.651   0.748   9.405 -0.0311  0.0005 -0.3373
  696MOL0     C91759   3.624   0.727   9.536  0.0998 -0.8460 -0.0826
  696MOL0     C91760   3.520   0.624   9.600  0.1389 -1.2606  0.6637
  696MOL0     C91761   3.366   0.658   9.573  0.1163  0.7496  0.2105
  696MOL0     C91762   3.266   0.602   9.687  0.5500  0.3465 -0.0246
  696MOL0     C91763   3.126   0.667   9.680  0.2085  0.9539  0.1457
  696MOL0     O91764   3.049   0.603   9.581  0.5648  0.6566  0.0152
  696MOL0     C91765   2.916   0.651   9.582  0.6096 -0.5670 -0.1720
  696MOL0     C91766   2.869   0.765   9.658  1.1041 -0.1360 -1.0988
  696MOL0     C91767   2.747   0.813   9.647  0.1913 -0.7294  1.0793
  696MOL0     C91768   2.654   0.758   9.562 -0.0374  0.3679  0.5890
  696MOL0     C91769   2.521   0.819   9.556  0.0658 -0.2006 -0.3348
  696MOL0     O91770   2.478   0.905   9.655  0.8561 -0.7358 -0.2186
  696MOL0     C91771   2.352   0.959   9.642 -0.5589  0.3978 -0.2249
  696MOL0     C91772   2.245   0.896   9.715 -0.6550 -0.0917 -0.1880
  696MOL0     C91773   2.117   0.950   9.691 -0.1445 -0.4508 -0.6812
  696MOL0     C91774   2.086   1.041   9.588  0.1077 -0.3197 -0.4571
  696MOL0     O91775   1.948   1.068   9.560  0.0500  0.6509  0.0459
  696MOL0     C91776   1.927   1.209   9.556 -0.0413  0.0722 -0.7149
  696MOL0     C91777   1.780   1.248   9.571  0.3870  0.5995 -0.8844
  696MOL0     C91778   1.699   1.201   9.449 -0.7327 -1.0047  0.8994
  696MOL0     C91779   1.558   1.261   9.458 -0.5584 -0.1563 -0.2161
  696MOL0     C91780   1.471   1.226   9.340  0.5837 -0.3261 -0.0374
  696MOL0     C91781   1.342   1.307   9.341 -0.1019 -0.4310  0.2491
  696MOL0     C91782   1.248   1.271   9.220 -0.5876  0.0219 -0.8981
  696MOL0     C91783   1.147   1.380   9.179 -0.0744  0.7248  0.4695
  696MOL0    Cl91784   1.066   1.450   9.327  0.4184  0.1542  0.0451
  696MOL0     C91785   2.198   1.089   9.513 -0.2803  0.4975 -0.0923
  696MOL0     C91786   2.326   1.063   9.553 -0.7490 -0.0258 -0.5448
  696MOL0     O91787   2.447   0.778   9.466 -0.3041  0.4376 -0.0222
  696MOL0     C91788   2.693   0.643   9.491 -0.5062 -0.1048 -0.0188
  696MOL0     C91789   2.822   0.591   9.505 -0.0586 -0.8111 -0.2358
  696MOL0     N91790   3.699   0.806   9.620 -0.0140 -0.1658  0.0124
  696MOL0     N91791   3.770   0.881   9.547  0.3071  0.3460  0.2525
  696MOL0     C91792   4.265   1.099   8.573  0.0009 -0.1116  1.3507
  696MOL0     C91793   4.391   1.118   8.519  0.1430  0.0112 -0.4850
  696MOL0     C91794   4.765   1.187   8.316  0.5654  0.5648  0.2912
  696MOL0     C91795   4.814   1.302   8.252  0.7745  0.5694  0.5060
  696MOL0     C91796   4.954   1.309   8.222 -0.8945  0.7896  0.2058
  696MOL0     C91797   5.035   1.191   8.231  0.5023 -0.0728  0.3490
  696MOL0     O91798   5.170   1.193   8.193  0.2938 -0.7338  0.1878
  696MOL0     C91799   5.271   1.153   8.289  0.6438 -0.0094 -0.9400
  696MOL0     C91800   5.407   1.182   8.240 -0.3742  0.7992 -0.8774
  696MOL0     C91801   5.522   1.132   8.331 -0.0430  0.6283  0.3532
  696MOL0     C91802   5.658   1.120   8.252  0.5561 -0.1173  0.1495
  696MOL0     C91803   5.733   1.244   8.225 -0.1583  0.7969 -0.6628
  696MOL0     C91804   5.782   1.355   8.207 -0.2064  0.6227 -0.0240
  696MOL0     C91805   4.981   1.082   8.297  0.0609  0.3830  0.8391
  696MOL0     C91806   4.849   1.073   8.339 -0.1175 -1.0228  0.4162
  696MOL0     H91807   4.397   0.861   8.293 -1.2916  0.3516 -1.5677
  696MOL0     H91808   4.168   0.840   8.376  0.8093 -0.2780 -1.9458
  696MOL0     H91809   3.879   1.080   8.611 -0.1225 -1.3697 -1.3080
  696MOL0     H91810   4.012   1.192   8.599 -0.5579 -1.6380 -2.8743
  696MOL0     H91811   4.116   1.105   8.806 -1.6263  1.5467  0.8202
  696MOL0     H91812   3.980   0.989   8.818  3.1480 -2.4764 -1.0250
  696MOL0     H91813   3.837   1.174   8.868 -0.6108  0.0269  0.6588
  696MOL0     H91814   3.946   1.303   8.823  0.3217  0.2152  0.5361
  696MOL0     H91815   4.105   1.208   9.004 -0.6169  1.4133  0.5013
  696MOL0     H91816   3.972   1.313   9.045  2.3522  0.2749  1.1334
  696MOL0     H91817   3.963   1.135   9.220 -1.2713 -3.7243  1.5976
  696MOL0     H91818   3.982   1.015   9.081  1.6857  0.6988 -0.1538
  696MOL0     H91819   3.750   1.025   9.044 -0.1026 -0.1575 -0.1655
  696MOL0     H91820   3.747   1.193   9.107  1.9753  1.0208 -0.6293
  696MOL0     H91821   3.722   1.108   9.338  0.7623  0.2175 -0.3623
  696MOL0     H91822   3.636   0.991   9.244  0.4398 -0.5710 -2.7963
  696MOL0     H91823   3.918   0.941   9.329 -0.0031 -0.8340  2.6880
  696MOL0     H91824   3.816   0.834   9.228 -0.3643  1.0425 -1.0538
  696MOL0     H91825   3.615   0.699   9.315  2.3091 -1.3852 -0.6059
  696MOL0     H91826   3.529   0.626   9.709 -2.6008 -0.3463  0.9596
  696MOL0     H91827   3.541   0.527   9.554 -1.7224 -1.3229 -0.1330
  696MOL0     H91828   3.341   0.640   9.468  0.4845  0.0705  0.2335
  696MOL0     H91829   3.362   0.766   9.582  2.1480  0.9221 -0.4193
  696MOL0     H91830   3.249   0.494   9.675 -2.8083  0.3688  2.7633
  696MOL0     H91831   3.308   0.625   9.786  0.3541 -4.6245  1.5270
  696MOL0     H91832   3.131   0.774   9.657 -0.8143  0.9442 -0.1876
  696MOL0     H91833   3.081   0.650   9.779  2.0860 -1.6429  0.6665
  696MOL0     H91834   2.928   0.820   9.730 -1.5545  1.8403 -0.2727
  696MOL0     H91835   2.719   0.903   9.702 -3.6171 -0.4903 -0.9346
  696MOL0     H91836   2.255   0.823   9.795  0.4912  3.1482  2.9290
  696MOL0     H91837   2.041   0.918   9.763 -1.1738 -0.4128 -1.7275
  696MOL0     H91838   1.963   1.235   9.456 -1.4454 -1.0093 -1.5509
  696MOL0     H91839   1.983   1.257   9.636 -3.1189  2.4408  0.2386
  696MOL0     H91840   1.767   1.353   9.599 -0.9291  0.1908  0.1338
  696MOL0     H91841   1.747   1.190   9.658 -1.6925  2.3383 -0.4159
  696MOL0     H91842   1.694   1.094   9.431 -0.1994 -0.9086  0.1040
  696MOL0     H91843   1.745   1.255   9.365 -1.0942  0.1269  1.3978
  696MOL0     H91844   1.509   1.224   9.549  2.1418 -0.2876  1.2918
  696MOL0     H91845   1.560   1.368   9.480  1.8462 -0.4623  1.4029
  696MOL0     H91846   1.439   1.121   9.343  0.4517 -0.2694  2.3780
  696MOL0     H91847   1.528   1.244   9.248 -0.0016 -1.2388 -0.5961
  696MOL0     H91848   1.373   1.411   9.330  0.8290 -0.6075  1.0901
  696MOL0     H91849   1.291   1.294   9.437 -1.6107 -0.4251 -0.5159
  696MOL0     H91850   1.308   1.237   9.135  1.4070  0.8465  0.1180
  696MOL0     H91851   1.184   1.193   9.261 -0.3168  0.7004  0.9137
  696MOL0     H91852   1.072   1.335   9.113  2.1209 -2.0038 -0.3482
  696MOL0     H91853   1.209   1.455   9.129  1.1402  0.9776  2.2552
  696MOL0     H91854   2.199   1.161   9.432  0.5397  0.4025 -0.1753
  696MOL0     H91855   2.404   1.101   9.487 -2.1687 -0.7389 -2.7626
  696MOL0     H91856   2.628   0.592   9.421  0.0167 -1.1015  0.2097
  696MOL0     H91857   2.853   0.501   9.453 -0.1359 -0.5485 -0.7438
  696MOL0     H91858   4.231   1.175   8.642 -2.1352 -0.9329  1.2829
  696MOL0     H91859   4.459   1.191   8.561 -1.1257  0.9542 -0.0279
  696MOL0     H91860   4.747   1.382   8.223 -2.2958 -0.8847  3.0544
  696MOL0     H91861   5.009   1.395   8.185  3.4298 -2.0317 -0.6995
  696MOL0     H91862   5.266   1.046   8.308 -1.9160 -0.2885 -2.7473
  696MOL0     H91863   5.262   1.206   8.384  0.0327 -0.7491 -0.5840
  696MOL0     H91864   5.421   1.125   8.148 -2.4126  0.3764 -0.9706
  696MOL0     H91865   5.422   1.289   8.221 -0.4825  0.8958 -0.4362
  696MOL0     H91866   5.491   1.034   8.368  1.0987  0.8171  1.9051
  696MOL0     H91867   5.538   1.191   8.422 -4.0944 -0.2143  1.8118
  696MOL0     H91868   5.724   1.052   8.307  2.4508  1.1528 -0.4580
  696MOL0     H91869   5.641   1.066   8.159 -0.8062 -1.1109  0.9405
  696MOL0     H91870   5.827   1.451   8.188  1.0450  0.0804  0.1138
  696MOL0     H91871   5.045   0.995   8.314  0.1553  0.3992  0.5692
  696MOL0     H91872   4.808   0.979   8.373 -3.0852  0.0297  0.0636
  697MOL0     O91873   7.555   3.530   1.628  0.8135 -0.1920  1.0843
  697MOL0     C91874   7.491   3.613   1.566 -0.7734 -0.5640  0.2310
  697MOL0     O91875   7.538   3.689   1.468  0.0151 -0.0972 -0.3527
  697MOL0     C91876   7.668   3.679   1.433  0.8572 -0.3785  0.1361
  697MOL0     C91877   7.769   3.772   1.472  0.2566  0.3041  0.3901
  697MOL0     C91878   7.899   3.765   1.421 -0.1695  0.0882  0.0582
  697MOL0     C91879   7.937   3.659   1.337  0.3488 -0.0720 -0.5563
  697MOL0     O91880   8.062   3.644   1.291 -0.3756  0.4949  0.5627
  697MOL0     C91881   8.161   3.757   1.299 -0.0100  0.3457 -0.5489
  697MOL0     C91882   8.296   3.709   1.231  0.6973 -0.1198  0.1446
  697MOL0     C91883   8.274   3.655   1.087 -0.6507  0.0178  0.4963
  697MOL0     C91884   8.248   3.760   0.977  0.2309  0.7402  0.0828
  697MOL0     C91885   8.206   3.695   0.847 -1.1550  0.3636 -0.0374
  697MOL0     C91886   8.207   3.790   0.728  0.2497 -0.1770 -0.2444
  697MOL0     C91887   8.183   3.711   0.597 -0.1752  0.9283 -0.3762
  697MOL0     C91888   8.122   3.779   0.476 -0.6819 -0.9704 -0.3647
  697MOL0     N91889   7.983   3.817   0.494 -0.8624  0.1402 -0.6232
  697MOL0     C91890   7.875   3.735   0.537  0.6459 -0.6043 -0.8728
  697MOL0     C91891   7.771   3.825   0.548 -0.9932 -0.5366  0.1500
  697MOL0     C91892   7.641   3.788   0.613  0.7148 -0.4990 -0.5842
  697MOL0     C91893   7.553   3.714   0.510 -0.3869 -0.3174 -0.3441
  697MOL0     C91894   7.550   3.781   0.375 -0.0786  0.0143  0.1309
  697MOL0     C91895   7.434   3.736   0.288 -0.0290 -0.4088  0.1623
  697MOL0     O91896   7.446   3.813   0.165  0.5313  0.2157 -0.0292
  697MOL0     C91897   7.329   3.830   0.096  0.6203 -0.4453  0.3574
  697MOL0     C91898   7.200   3.807   0.125 -0.4130 -0.2678 -0.2303
  697MOL0     C91899   7.094   3.851   0.046 -0.1305  0.5165  0.0146
  697MOL0     C91900   7.122   3.899  -0.083  1.2390 -0.5449  0.3252
  697MOL0     C91901   7.016   3.932  -0.183 -0.6482 -0.0582 -0.3877
  697MOL0     O91902   6.889   3.932  -0.139  0.2099 -0.1062  0.0602
  697MOL0     C91903   6.778   3.945  -0.226 -0.1782 -0.4055 -0.5602
  697MOL0     C91904   6.755   3.863  -0.332 -0.3223  0.5740  0.1880
  697MOL0     C91905   6.629   3.853  -0.388 -0.1636 -0.1656  0.9562
  697MOL0     C91906   6.524   3.940  -0.353 -0.4189  0.4912  0.6424
  697MOL0     O91907   6.400   3.944  -0.410  0.4175  0.4667  1.0012
  697MOL0     C91908   6.376   3.865  -0.534 -0.0555 -0.5912  0.4195
  697MOL0     C91909   6.231   3.889  -0.593 -0.0014  0.4845 -0.7754
  697MOL0     C91910   6.120   3.789  -0.541 -0.2858 -0.7979 -0.1404
  697MOL0     C91911   6.085   3.822  -0.391 -1.4341 -0.0705 -0.0851
  697MOL0     C91912   5.996   3.724  -0.305 -0.5311 -0.0538  0.0494
  697MOL0     C91913   5.859   3.698  -0.376 -1.1171  0.5680  0.2813
  697MOL0     C91914   5.783   3.828  -0.425  0.5736 -0.4442  0.4389
  697MOL0     C91915   5.631   3.805  -0.462 -0.2749 -0.2984  0.3264
  697MOL0    Cl91916   5.631   3.693  -0.592 -0.5526 -0.3547  0.2741
  697MOL0     C91917   6.546   4.029  -0.245 -1.2350 -0.1449 -0.1904
  697MOL0     C91918   6.673   4.028  -0.178 -0.9244 -0.9428 -0.0982
  697MOL0     O91919   7.056   3.957  -0.293  0.3351 -0.0891 -0.1515
  697MOL0     C91920   7.254   3.919  -0.116 -0.1090 -0.5266  0.1395
  697MOL0     C91921   7.360   3.891  -0.029  0.3088 -0.0369 -0.7850
  697MOL0     N91922   7.815   3.949   0.501 -0.2496 -0.7295  0.2164
  697MOL0     N91923   7.937   3.942   0.461 -0.3112  0.2781  0.0021
  697MOL0     C91924   7.837   3.567   1.305  0.3395  0.1286  1.0563
  697MOL0     C91925   7.707   3.584   1.340  0.1625  0.6866  0.8191
  697MOL0     C91926   7.353   3.630   1.602 -0.6976 -0.0963 -0.3639
  697MOL0     C91927   7.270   3.705   1.520 -0.3047  0.8738  1.3067
  697MOL0     C91928   7.139   3.711   1.536  0.9221  0.7100  0.2418
  697MOL0     C91929   7.071   3.639   1.640  0.1523 -0.5643 -0.1090
  697MOL0     O91930   6.934   3.640   1.665 -0.4159 -0.0653  0.9140
  697MOL0     C91931   6.846   3.695   1.561  0.2356  0.1710 -0.9144
  697MOL0     C91932   6.696   3.705   1.592  0.1546 -0.5182  0.3218
  697MOL0     C91933   6.624   3.786   1.487  0.7959 -0.4175 -0.0394
  697MOL0     C91934   6.479   3.816   1.530  0.1729  0.4939 -0.7981
  697MOL0     C91935   6.386   3.708   1.535  0.3486  0.3155 -0.6108
  697MOL0     C91936   6.301   3.622   1.544  0.0039 -0.7022 -0.2201
  697MOL0     C91937   7.146   3.561   1.725  0.3947  0.6859  0.0188
  697MOL0     C91938   7.292   3.560   1.706  0.7318 -0.3850 -0.4416
  697MOL0     H91939   7.744   3.853   1.540 -1.7259 -0.5062  0.7110
  697MOL0     H91940   7.974   3.835   1.458  0.2136 -1.3121  2.1472
  697MOL0     H91941   8.193   3.773   1.403 -1.7704 -1.5165  0.3572
  697MOL0     H91942   8.113   3.844   1.253  0.2651  0.4366 -0.6661
  697MOL0     H91943   8.344   3.630   1.288  2.1971 -0.5573 -1.6244
  697MOL0     H91944   8.362   3.796   1.226 -0.1645  0.5372 -0.1847
  697MOL0     H91945   8.190   3.586   1.080 -1.0023  0.4247  0.6755
  697MOL0     H91946   8.365   3.598   1.063 -0.3788  1.4293 -2.2719
  697MOL0     H91947   8.178   3.830   1.023  0.3559 -0.3980  2.1367
  697MOL0     H91948   8.343   3.814   0.971  2.6257 -3.0411 -0.0016
  697MOL0     H91949   8.100   3.670   0.846 -1.3011  0.9625  0.1127
  697MOL0     H91950   8.269   3.606   0.836 -4.1432 -1.9210  0.1180
  697MOL0     H91951   8.304   3.839   0.731  0.5049 -0.7246  0.8962
  697MOL0     H91952   8.121   3.858   0.730 -0.5608 -1.1210  2.8274
  697MOL0     H91953   8.282   3.682   0.561 -0.1737  0.0259  0.3172
  697MOL0     H91954   8.121   3.623   0.614 -0.0670  0.8289 -0.4943
  697MOL0     H91955   8.122   3.723   0.382 -1.9055  0.4189 -1.2409
  697MOL0     H91956   8.183   3.868   0.455 -0.0862 -0.7557  1.9324
  697MOL0     H91957   7.876   3.630   0.563  1.4771 -0.5259 -0.5715
  697MOL0     H91958   7.589   3.882   0.635 -1.2792 -2.0167  1.7442
  697MOL0     H91959   7.654   3.736   0.708  0.8983  2.0746  0.9001
  697MOL0     H91960   7.453   3.706   0.553  0.5398 -0.6612  1.8900
  697MOL0     H91961   7.590   3.613   0.494 -0.4424 -0.3043 -0.5575
  697MOL0     H91962   7.558   3.889   0.390 -0.3729  0.1044 -0.3382
  697MOL0     H91963   7.640   3.764   0.315 -0.3508  1.2626 -0.6773
  697MOL0     H91964   7.340   3.751   0.340 -0.4094 -3.0303  0.3698
  697MOL0     H91965   7.442   3.629   0.263 -0.3262 -0.4153  0.1007
  697MOL0     H91966   7.171   3.765   0.221 -0.6161 -0.1310 -0.2295
  697MOL0     H91967   6.994   3.838   0.085 -0.7263  1.8174 -1.0103
  697MOL0     H91968   6.830   3.799  -0.377 -1.5704  0.3566 -1.7026
  697MOL0     H91969   6.617   3.778  -0.465  0.9953  1.4938 -0.9229
  697MOL0     H91970   6.387   3.758  -0.513  3.4754 -0.4161 -0.0033
  697MOL0     H91971   6.451   3.890  -0.610 -0.9721 -2.2233 -1.1336
  697MOL0     H91972   6.233   3.875  -0.702 -0.0179  0.4386 -0.7694
  697MOL0     H91973   6.196   3.992  -0.582  0.2000  1.7592 -7.5087
  697MOL0     H91974   6.157   3.687  -0.549 -0.5231 -0.7661 -1.9097
  697MOL0     H91975   6.029   3.795  -0.602 -1.2313 -2.3671  1.0253
  697MOL0     H91976   6.179   3.822  -0.334 -1.3534  1.6405 -0.1563
  697MOL0     H91977   6.048   3.924  -0.382 -2.6151 -0.1773 -2.7854
  697MOL0     H91978   5.984   3.758  -0.202  1.4608  0.2068  0.2419
  697MOL0     H91979   6.052   3.629  -0.303  2.2332  1.4773  0.8980
  697MOL0     H91980   5.804   3.641  -0.301  1.0745 -1.3596  0.5609
  697MOL0     H91981   5.873   3.633  -0.463 -0.6416  2.6123 -1.2376
  697MOL0     H91982   5.776   3.895  -0.340  0.6694 -0.6585  0.6174
  697MOL0     H91983   5.841   3.883  -0.500 -1.7615 -0.2369 -1.3527
  697MOL0     H91984   5.583   3.897  -0.496  3.0028  1.4069 -0.1238
  697MOL0     H91985   5.576   3.761  -0.378 -0.2832 -0.2656  0.3376
  697MOL0     H91986   6.459   4.074  -0.199 -0.5675  0.9898 -0.0032
  697MOL0     H91987   6.690   4.085  -0.087  1.0758 -1.0684 -0.3334
  697MOL0     H91988   7.280   3.975  -0.205  2.8672  1.2813  1.9593
  697MOL0     H91989   7.460   3.933  -0.038  0.0162  0.5321 -1.4824
  697MOL0     H91990   7.869   3.479   1.249 -0.8469 -0.4671  1.2844
  697MOL0     H91991   7.639   3.512   1.297  0.2746  1.1068 -0.0906
  697MOL0     H91992   7.309   3.756   1.432  1.1037 -0.7362  0.9457
  697MOL0     H91993   7.096   3.777   1.461 -1.1390 -0.2509  0.4972
  697MOL0     H91994   6.862   3.649   1.464 -2.2737  1.1995 -1.9037
  697MOL0     H91995   6.887   3.795   1.547 -0.2852  0.0455 -4.0737
  697MOL0     H91996   6.657   3.603   1.595 -2.0979  0.3087  2.1424
  697MOL0     H91997   6.696   3.759   1.687 -1.3033 -0.9304  0.5723
  697MOL0     H91998   6.626   3.734   1.390  0.4880 -1.8933  0.7046
  697MOL0     H91999   6.672   3.883   1.473  0.5004 -0.3630 -0.7168
  697MOL0     H92000   6.477   3.851   1.634 -1.4894 -1.9921  0.1152
  697MOL0     H92001   6.429   3.883   1.459 -1.4360  0.6048  0.3760
  697MOL0     H92002   6.226   3.548   1.561  1.3926 -1.9587  0.6920
  697MOL0     H92003   7.115   3.490   1.800 -0.2762  0.3922 -0.5271
  697MOL0     H92004   7.349   3.482   1.756  1.5652 -0.0807 -0.8941
  698MOL0     O92005  10.773  10.949   2.290 -0.5631  0.5418 -0.2425
  698MOL0     C92006  10.712  10.883   2.208  0.2116 -0.4169 -0.2783
  698MOL0     O92007  10.764  10.800   2.123  0.0618  0.1197  0.4989
  698MOL0     C92008  10.901  10.799   2.117  0.5365 -0.2507 -0.8692
  698MOL0     C92009  10.958  10.845   1.998 -0.4668  0.1369  0.9340
  698MOL0     C92010  11.096  10.832   1.982  0.8336 -0.2693  0.4647
  698MOL0     C92011  11.179  10.795   2.090  0.2167  0.4042 -0.2184
  698MOL0     O92012  11.321  10.789   2.085  0.0554 -0.2506 -0.2561
  698MOL0     C92013  11.380  10.790   1.959  0.4518 -0.4251  0.6774
  698MOL0     C92014  11.527  10.769   1.970 -0.9147 -0.9913 -0.2904
  698MOL0     C92015  11.557  10.645   2.046 -0.1892  0.6424 -0.0586
  698MOL0     C92016  11.672  10.561   1.987 -0.4470  0.3297 -0.0745
  698MOL0     C92017  11.704  10.438   2.066  0.1082 -0.4436 -0.7514
  698MOL0     C92018  11.597  10.338   2.066 -0.3078 -0.2507 -0.3145
  698MOL0     C92019  11.596  10.257   1.937  0.5502 -0.3819  0.5069
  698MOL0     C92020  11.465  10.177   1.931 -0.3878 -0.4790 -0.7407
  698MOL0     N92021  11.342  10.252   1.906 -0.0600  0.0258  0.1420
  698MOL0     C92022  11.232  10.253   1.994 -0.5671  0.7161  0.1713
  698MOL0     C92023  11.147  10.343   1.945  0.1381  0.8456 -0.0078
  698MOL0     C92024  11.013  10.391   2.011 -0.1785 -0.6285 -0.2698
  698MOL0     C92025  10.896  10.386   1.914 -1.2293  0.4052 -0.3166
  698MOL0     C92026  10.776  10.458   1.969  0.4179  0.5868 -0.0411
  698MOL0     C92027  10.647  10.428   1.894 -1.3584  0.6593 -0.1163
  698MOL0     O92028  10.609  10.290   1.903  0.0921  0.2075  0.3948
  698MOL0     C92029  10.475  10.270   1.867 -0.2326  0.5916 -0.3127
  698MOL0     C92030  10.440  10.210   1.749 -0.3729  0.4235 -0.7143
  698MOL0     C92031  10.311  10.198   1.714  0.0613 -0.3439  0.4559
  698MOL0     C92032  10.205  10.232   1.799  0.0593 -0.5686 -0.1216
  698MOL0     C92033  10.057  10.226   1.756 -1.0703  1.2645 -0.6039
  698MOL0     O92034   9.971  10.297   1.824  0.3821 -0.0627 -0.5918
  698MOL0     C92035   9.833  10.273   1.821 -0.3648  0.3838  0.1471
  698MOL0     C92036   9.754  10.386   1.822  0.6605  0.1189 -0.0350
  698MOL0     C92037   9.611  10.380   1.829 -0.6425  0.0839 -0.0066
  698MOL0     C92038   9.543  10.248   1.826 -0.0750 -0.3675  1.1892
  698MOL0     O92039   9.409  10.226   1.836  0.6904 -0.1795  0.1652
  698MOL0     C92040   9.321  10.325   1.787  0.4210  0.3043 -0.6057
  698MOL0     C92041   9.180  10.281   1.793 -0.3797 -0.5416 -0.3156
  698MOL0     C92042   9.156  10.136   1.742  1.3661 -0.4745  0.3654
  698MOL0     C92043   9.033  10.085   1.810  0.2308 -0.7302  0.8027
  698MOL0     C92044   8.979   9.947   1.758  0.2654 -0.5080  0.8560
  698MOL0     C92045   8.902   9.958   1.633 -0.0214 -0.5486 -0.4400
  698MOL0     C92046   8.843   9.819   1.607  0.7955 -0.2497  0.7734
  698MOL0     C92047   8.716   9.815   1.524  0.5177 -0.3697 -0.6519
  698MOL0    Cl92048   8.756   9.870   1.359 -0.1573  0.0274  0.0964
  698MOL0     C92049   9.636  10.137   1.822 -0.4051  0.2331  1.0449
  698MOL0     C92050   9.776  10.149   1.810 -0.4274  0.3926 -0.1461
  698MOL0     O92051  10.026  10.155   1.661  0.0210 -0.2113  0.1600
  698MOL0     C92052  10.234  10.279   1.926 -0.3587  0.3280  0.6033
  698MOL0     C92053  10.365  10.306   1.955  0.7339 -0.1869 -0.5105
  698MOL0     N92054  11.200  10.387   1.823 -0.3050 -0.8291 -0.1515
  698MOL0     N92055  11.312  10.334   1.802 -0.4355 -0.0395 -0.2530
  698MOL0     C92056  11.117  10.750   2.210 -0.7422 -0.4176  0.0515
  698MOL0     C92057  10.978  10.750   2.221 -1.1649  0.1410 -0.6873
  698MOL0     C92058  10.568  10.889   2.201 -0.3386  0.7404 -0.5493
  698MOL0     C92059  10.490  10.806   2.117  0.1222 -0.1212 -0.2929
  698MOL0     C92060  10.352  10.831   2.108  0.9313 -0.6172 -0.4202
  698MOL0     C92061  10.294  10.949   2.157 -0.6351  0.4336 -0.7496
  698MOL0     O92062  10.155  10.966   2.126 -0.4341 -0.2497 -0.4003
  698MOL0     C92063  10.073  11.075   2.177  0.6289  0.4165  0.3262
  698MOL0     C92064   9.990  11.137   2.063  0.1492 -0.2502  0.6767
  698MOL0     C92065   9.857  11.203   2.110  0.0461  0.0783 -0.2029
  698MOL0     C92066   9.747  11.111   2.162  0.1636  0.5576  0.3034
  698MOL0     C92067   9.623  11.179   2.185  0.0550 -0.2608 -0.2584
  698MOL0     C92068   9.520  11.238   2.215 -0.4140 -1.5919 -0.2243
  698MOL0     C92069  10.376  11.025   2.240  0.7466  0.3036  0.1263
  698MOL0     C92070  10.505  10.995   2.264  0.6665 -0.8523  0.3120
  698MOL0     H92071  10.893  10.875   1.916 -0.0130  0.4462  0.6835
  698MOL0     H92072  11.137  10.846   1.883  0.6877 -1.2767  0.2454
  698MOL0     H92073  11.353  10.883   1.909  1.4001  0.0964  1.1059
  698MOL0     H92074  11.333  10.705   1.909 -2.3914  2.4649 -1.9666
  698MOL0     H92075  11.574  10.854   2.020 -0.6033 -3.3665  3.9415
  698MOL0     H92076  11.566  10.768   1.868 -2.1228  0.2478 -0.8033
  698MOL0     H92077  11.461  10.593   2.041 -2.6485  4.6108  1.2289
  698MOL0     H92078  11.587  10.666   2.149 -1.1015  0.7074  0.2035
  698MOL0     H92079  11.643  10.521   1.890 -1.1750  0.0114  0.2712
  698MOL0     H92080  11.763  10.622   1.985 -0.2654  0.0475 -1.0694
  698MOL0     H92081  11.731  10.460   2.170 -2.1774  0.6342 -0.3339
  698MOL0     H92082  11.795  10.391   2.028 -0.2239 -0.1163 -1.9909
  698MOL0     H92083  11.498  10.385   2.077 -1.7646 -3.5591  2.6182
  698MOL0     H92084  11.619  10.273   2.151  0.2022  2.6099  1.9107
  698MOL0     H92085  11.605  10.323   1.850 -1.3187 -1.0230 -0.2275
  698MOL0     H92086  11.675  10.182   1.941  2.2440  1.3699  3.4563
  698MOL0     H92087  11.450  10.130   2.029 -0.9485 -2.1485 -1.5845
  698MOL0     H92088  11.483  10.109   1.848 -0.4074 -0.3733 -0.8321
  698MOL0     H92089  11.211  10.180   2.071 -1.6723 -0.9148 -1.5832
  698MOL0     H92090  11.038  10.496   2.031 -0.1569 -1.2266  3.6262
  698MOL0     H92091  10.979  10.339   2.101 -4.5961  1.3640 -0.5112
  698MOL0     H92092  10.881  10.278   1.898 -1.7230  0.8074 -3.0579
  698MOL0     H92093  10.925  10.427   1.817  0.6343 -0.9161 -0.3650
  698MOL0     H92094  10.760  10.429   2.074  0.7385 -2.6310 -0.7743
  698MOL0     H92095  10.796  10.565   1.959  0.5259  0.6089  0.3994
  698MOL0     H92096  10.657  10.451   1.788 -0.8825 -5.8900 -1.9190
  698MOL0     H92097  10.561  10.484   1.934 -0.9300 -0.0659  1.9420
  698MOL0     H92098  10.527  10.176   1.693  0.7248 -0.2769  1.3140
  698MOL0     H92099  10.295  10.151   1.618  0.8492 -0.5267  0.4048
  698MOL0     H92100   9.796  10.486   1.826  3.0502 -0.8001 -0.4566
  698MOL0     H92101   9.551  10.470   1.841  1.5291  1.4471  1.2877
  698MOL0     H92102   9.332  10.347   1.680 -0.8004  2.2082 -0.3778
  698MOL0     H92103   9.331  10.414   1.849 -0.9160  0.3974 -0.4996
  698MOL0     H92104   9.119  10.357   1.744  1.6999  1.9153  0.7254
  698MOL0     H92105   9.171  10.283   1.902  2.6964  0.1470  0.0122
  698MOL0     H92106   9.237  10.065   1.758  1.2142 -0.3267  1.9420
  698MOL0     H92107   9.137  10.128   1.635  0.8415  0.5039  0.3626
  698MOL0     H92108   9.058  10.076   1.917  1.4892  1.0310  0.7045
  698MOL0     H92109   8.960  10.164   1.792  1.6550  0.3570 -0.5011
  698MOL0     H92110   8.911   9.916   1.837  0.0205 -0.7939  0.5383
  698MOL0     H92111   9.062   9.876   1.749  1.3603  0.9153 -1.1881
  698MOL0     H92112   8.962   9.983   1.545 -2.5899 -0.4910 -2.2891
  698MOL0     H92113   8.827  10.037   1.626 -0.7668 -1.2295 -0.3187
  698MOL0     H92114   8.921   9.752   1.570  1.6197  1.4563 -0.7828
  698MOL0     H92115   8.804   9.791   1.705  2.1203  0.5853  1.5712
  698MOL0     H92116   8.640   9.883   1.564  0.2825 -0.3725 -1.0945
  698MOL0     H92117   8.686   9.710   1.513  3.3587 -1.6315  2.0969
  698MOL0     H92118   9.589  10.040   1.820 -0.0204  0.0267  1.6480
  698MOL0     H92119   9.829  10.055   1.799  0.9473  1.2692 -1.3638
  698MOL0     H92120  10.160  10.293   2.004  0.3392  0.8753  1.1799
  698MOL0     H92121  10.378  10.356   2.050 -0.2948  0.6917 -0.8127
  698MOL0     H92122  11.191  10.731   2.287  0.8565  1.0744 -1.0462
  698MOL0     H92123  10.924  10.719   2.310  1.3687  1.6404  1.5037
  698MOL0     H92124  10.527  10.715   2.069  1.5003  1.0314 -1.5240
  698MOL0     H92125  10.287  10.767   2.048 -2.0257  1.1217  0.7243
  698MOL0     H92126  10.136  11.159   2.205 -1.4723  2.1437  0.1107
  698MOL0     H92127  10.011  11.042   2.262  0.1594 -0.8387 -0.4803
  698MOL0     H92128  10.048  11.211   2.008 -1.2828  1.4956  1.3801
  698MOL0     H92129   9.962  11.055   1.997  2.2834 -0.2428 -0.3070
  698MOL0     H92130   9.813  11.262   2.030 -3.9583 -0.4953  1.3401
  698MOL0     H92131   9.886  11.273   2.189 -0.0510  0.5917 -0.6194
  698MOL0     H92132   9.721  11.031   2.092  0.3211  2.5066 -2.1080
  698MOL0     H92133   9.764  11.066   2.260 -0.3412  0.8978  0.5491
  698MOL0     H92134   9.428  11.287   2.238 -0.3429 -1.4250 -0.2913
  698MOL0     H92135  10.338  11.113   2.292  1.0574  0.1652  0.5973
  698MOL0     H92136  10.552  11.064   2.333  1.3582  1.1330 -1.9824
  699MOL0     O92137   4.212  10.326  10.609 -0.8406  0.3046 -0.4113
  699MOL0     C92138   4.255  10.389  10.704 -0.6087  1.2692 -0.1369
  699MOL0     O92139   4.210  10.378  10.838  0.5505 -0.0975  0.3728
  699MOL0     C92140   4.101  10.294  10.866 -0.3658 -0.7753  1.1116
  699MOL0     C92141   4.021  10.341  10.976  0.5940 -0.0950  0.4065
  699MOL0     C92142   3.910  10.273  11.015  0.6005  0.5588 -0.2157
  699MOL0     C92143   3.875  10.150  10.952  0.0909  0.9002  0.5669
  699MOL0     O92144   3.767  10.072  10.992  0.0508 -0.1785 -0.5040
  699MOL0     C92145   3.648  10.144  11.038  0.2076  1.0421  0.4493
  699MOL0     C92146   3.551  10.146  10.916 -0.6563 -0.0331 -0.6758
  699MOL0     C92147   3.509  10.005  10.860  0.2518  0.5568 -0.1438
  699MOL0     C92148   3.438   9.921  10.961 -0.7250  1.0639 -0.1080
  699MOL0     C92149   3.393   9.791  10.896  0.3534  0.5582  0.7389
  699MOL0     C92150   3.289   9.715  10.975 -0.5018  0.4038 -0.9213
  699MOL0     C92151   3.339   9.672  11.118  0.2654  0.5316 -0.3303
  699MOL0     C92152   3.238   9.577  11.177  0.1973 -0.2310 -0.5540
  699MOL0     N92153   3.110   9.638  11.231  0.0873 -0.3990 -0.0800
  699MOL0     C92154   3.102   9.758  11.305  0.3528  0.5069  0.1090
  699MOL0     C92155   2.976   9.764  11.338  0.2461 -0.5230 -1.4939
  699MOL0     C92156   2.920   9.875  11.425  0.2971 -0.7659 -0.6896
  699MOL0     C92157   2.941   9.857  11.576  0.3451 -1.0288 -0.0712
  699MOL0     C92158   2.823   9.779  11.642  0.0722  0.0189  0.1443
  699MOL0     C92159   2.835   9.772  11.796 -0.6103 -0.3256 -0.5317
  699MOL0     O92160   2.710   9.717  11.857 -0.5620 -0.1175 -0.0862
  699MOL0     C92161   2.580   9.765  11.837 -0.1557 -0.8364 -0.4428
  699MOL0     C92162   2.462   9.684  11.833  0.2772 -0.0804 -0.3527
  699MOL0     C92163   2.335   9.734  11.826 -0.0372  0.2117  0.2408
  699MOL0     C92164   2.317   9.876  11.815  0.6388  0.6637  0.2016
  699MOL0     C92165   2.181   9.927  11.786 -0.2939 -0.2984 -0.0513
  699MOL0     O92166   2.088   9.829  11.804 -0.4250 -0.1690  0.7470
  699MOL0     C92167   1.954   9.860  11.831 -0.2213 -0.4903  0.4749
  699MOL0     C92168   1.896   9.981  11.886 -0.1853 -0.3102  0.0335
  699MOL0     C92169   1.754  10.011  11.887 -0.7229 -0.2427 -0.7512
  699MOL0     C92170   1.671   9.916  11.836 -0.2174 -0.2700  0.6103
  699MOL0     O92171   1.536   9.929  11.843  0.5232 -0.2089 -0.1665
  699MOL0     C92172   1.468  10.003  11.753 -0.2985 -1.0483 -0.1282
  699MOL0     C92173   1.446   9.934  11.625 -0.8724 -0.1153 -0.7371
  699MOL0     C92174   1.313   9.951  11.566  1.0199  0.5181 -0.4121
  699MOL0     C92175   1.204   9.870  11.640 -0.4483 -0.0191 -0.0191
  699MOL0     C92176   1.092   9.964  11.680  0.1924  0.5382 -0.4419
  699MOL0     C92177   0.986  10.002  11.572 -0.6633  1.5671  0.1371
  699MOL0     C92178   0.865  10.042  11.651  0.2469 -0.0877 -0.0050
  699MOL0     C92179   0.760  10.107  11.554  0.0686  0.0426 -1.3045
  699MOL0    Cl92180   0.707   9.982  11.445 -0.0196  0.0139  0.3900
  699MOL0     C92181   1.723   9.795  11.792 -0.1286 -0.1453 -0.7080
  699MOL0     C92182   1.859   9.774  11.783  1.1681  0.6652  0.0618
  699MOL0     O92183   2.157  10.046  11.762  0.4246  0.2523  0.4343
  699MOL0     C92184   2.423   9.967  11.817 -0.7960 -0.3636 -0.2701
  699MOL0     C92185   2.554   9.906  11.840  0.9031 -0.4057  0.3217
  699MOL0     N92186   2.910   9.666  11.271  0.1082  0.8211 -0.4033
  699MOL0     N92187   2.991   9.579  11.216 -0.2202  0.2459  0.1650
  699MOL0     C92188   3.958  10.094  10.844 -0.2250  0.1739 -0.2008
  699MOL0     C92189   4.063  10.174  10.802 -0.7697 -0.1780 -0.2684
  699MOL0     C92190   4.363  10.481  10.676 -0.0037 -0.1228 -0.1436
  699MOL0     C92191   4.386  10.599  10.758 -0.5197 -0.2516  0.2486
  699MOL0     C92192   4.493  10.684  10.728  0.0055 -0.3291  0.3635
  699MOL0     C92193   4.576  10.655  10.621  0.4804 -0.8033 -0.4818
  699MOL0     O92194   4.686  10.730  10.581  0.7160 -0.6428 -0.3517
  699MOL0     C92195   4.800  10.711  10.668  0.3742 -0.5738  1.1508
  699MOL0     C92196   4.926  10.672  10.590 -0.0157  0.3039 -0.0442
  699MOL0     C92197   4.987  10.806  10.524  0.9216  0.1612  0.0674
  699MOL0     C92198   5.097  10.776  10.419 -0.4455  0.6234  0.5767
  699MOL0     C92199   5.181  10.897  10.395  0.5742 -0.0926  0.2656
  699MOL0     C92200   5.241  11.003  10.380  0.4076  1.0286  0.0901
  699MOL0     C92201   4.547  10.542  10.544 -0.3240  0.2521 -0.4657
  699MOL0     C92202   4.438  10.460  10.561  0.3732  0.8812 -0.2044
  699MOL0     H92203   4.037  10.441  11.015 -2.7008  1.5558 -2.0759
  699MOL0     H92204   3.860  10.314  11.102  1.9049 -0.5325  1.1080
  699MOL0     H92205   3.663  10.250  11.063 -0.2420  0.7831  1.8820
  699MOL0     H92206   3.611  10.095  11.128 -0.2943  0.9247  0.1777
  699MOL0     H92207   3.605  10.205  10.841 -0.8013  2.2518  0.9124
  699MOL0     H92208   3.459  10.198  10.942 -0.5537 -0.0856 -0.2033
  699MOL0     H92209   3.585   9.944  10.811 -0.2702 -1.5074  1.4423
  699MOL0     H92210   3.428  10.025  10.789  0.0344 -0.1712 -0.1054
  699MOL0     H92211   3.488   9.906  11.057 -2.1522  2.1363  0.8339
  699MOL0     H92212   3.348   9.975  10.991 -1.7561  0.6455 -2.2144
  699MOL0     H92213   3.484   9.732  10.881 -0.2794 -1.3152  3.3903
  699MOL0     H92214   3.340   9.815  10.804 -0.6565 -0.6657  0.9741
  699MOL0     H92215   3.256   9.630  10.914  0.4696  0.6800 -1.8517
  699MOL0     H92216   3.200   9.779  10.981 -3.7587 -3.7644  0.0455
  699MOL0     H92217   3.434   9.619  11.106  0.9907  1.4207  1.0818
  699MOL0     H92218   3.358   9.759  11.183 -1.4485  1.4757 -1.0275
  699MOL0     H92219   3.277   9.531  11.268 -1.1429 -1.0364 -0.3535
  699MOL0     H92220   3.212   9.496  11.108 -0.3262 -2.4300  2.0158
  699MOL0     H92221   3.177   9.830  11.337  0.9951 -0.4214  0.7455
  699MOL0     H92222   2.811   9.876  11.412  0.0599  1.4104  0.9714
  699MOL0     H92223   2.956   9.970  11.385 -0.2042 -1.0788 -1.9718
  699MOL0     H92224   2.943   9.962  11.606 -1.0002 -0.8469 -0.5791
  699MOL0     H92225   3.041   9.824  11.606  1.6212  1.2837 -1.4303
  699MOL0     H92226   2.742   9.850  11.623  0.5875  0.8450  0.9766
  699MOL0     H92227   2.819   9.680  11.595 -1.4901 -1.1040  2.4387
  699MOL0     H92228   2.852   9.875  11.828  0.0845 -1.0847  1.6896
  699MOL0     H92229   2.925   9.712  11.815  0.1886  0.5518 -1.4537
  699MOL0     H92230   2.484   9.578  11.834 -2.5099 -0.8427 -3.0034
  699MOL0     H92231   2.254   9.662  11.836  1.0358 -1.6762 -2.9390
  699MOL0     H92232   1.953  10.063  11.928 -0.9751 -0.8662  2.3621
  699MOL0     H92233   1.727  10.109  11.926  6.3197  1.5224  1.0615
  699MOL0     H92234   1.528  10.089  11.722  0.5100 -2.2489 -2.0989
  699MOL0     H92235   1.371  10.032  11.794  0.7341  0.0107  1.6763
  699MOL0     H92236   1.466   9.827  11.640  1.4171  0.4116  0.5273
  699MOL0     H92237   1.515   9.971  11.549 -1.2856 -1.4751 -1.8000
  699MOL0     H92238   1.308   9.909  11.465 -0.8465  2.4752 -1.2126
  699MOL0     H92239   1.291  10.058  11.555  2.9908  1.3715  2.5238
  699MOL0     H92240   1.170   9.784  11.583 -0.9225  0.3503 -0.2999
  699MOL0     H92241   1.249   9.826  11.729  0.2192 -0.3657 -0.5156
  699MOL0     H92242   1.141  10.057  11.709  1.3244  0.0039 -0.5585
  699MOL0     H92243   1.048   9.909  11.764  2.4480 -0.7512 -0.0169
  699MOL0     H92244   0.965   9.915  11.510 -0.2069  2.2024 -0.9323
  699MOL0     H92245   1.011  10.078  11.498 -0.3258  1.7884  0.4787
  699MOL0     H92246   0.828   9.963  11.717  3.3437 -0.4840  1.4508
  699MOL0     H92247   0.895  10.119  11.723  0.4528  1.7618 -1.9767
  699MOL0     H92248   0.802  10.194  11.503 -0.5380  2.1051  1.4356
  699MOL0     H92249   0.676  10.147  11.613  1.5042 -0.5556  1.3317
  699MOL0     H92250   1.661   9.711  11.763  0.2941 -0.9391  0.6012
  699MOL0     H92251   1.882   9.686  11.725  0.1316 -0.9240  1.9344
  699MOL0     H92252   2.413  10.075  11.826  0.0010 -0.3638  0.7937
  699MOL0     H92253   2.638   9.974  11.853  0.3703  0.1305  1.0197
  699MOL0     H92254   3.935   9.996  10.803 -0.4363  0.0061  0.3094
  699MOL0     H92255   4.127  10.125  10.729 -2.3329 -1.7264 -0.6742
  699MOL0     H92256   4.315  10.622  10.836  0.1741  3.9195 -0.1197
  699MOL0     H92257   4.513  10.776  10.784  0.0711 -0.0857 -0.0590
  699MOL0     H92258   4.786  10.640  10.751 -1.6295 -1.3083  0.2420
  699MOL0     H92259   4.806  10.809  10.714 -3.1215 -0.6504  2.0726
  699MOL0     H92260   5.001  10.644  10.664 -0.3503  1.8712  0.9221
  699MOL0     H92261   4.895  10.591  10.523  0.5862  0.2663 -0.2797
  699MOL0     H92262   5.023  10.864  10.610 -0.4943  1.6827 -0.3135
  699MOL0     H92263   4.897  10.852  10.482 -0.0902 -0.7155  1.1877
  699MOL0     H92264   5.158  10.688  10.442  0.3672  1.0567  0.1115
  699MOL0     H92265   5.046  10.752  10.325  0.2388 -1.5263  0.6996
  699MOL0     H92266   5.298  11.094  10.379  1.7107  0.2425 -0.0678
  699MOL0     H92267   4.623  10.506  10.476 -2.0696 -4.0760 -0.4404
  699MOL0     H92268   4.427  10.375  10.494 -4.8711  0.4467  0.7788
  700MOL0     O92269   3.069   2.748   3.041 -0.1888 -0.2321  0.4046
  700MOL0     C92270   3.096   2.678   3.134 -0.5831  0.4700 -1.2622
  700MOL0     O92271   3.011   2.581   3.187  0.5277 -0.4676  0.2082
  700MOL0     C92272   2.884   2.574   3.136 -0.1455 -0.0293  0.7657
  700MOL0     C92273   2.779   2.655   3.182 -0.5594 -0.3783  1.3230
  700MOL0     C92274   2.650   2.640   3.136 -0.0962  1.4710  0.6079
  700MOL0     C92275   2.618   2.532   3.044  0.0397 -0.4346  0.2126
  700MOL0     O92276   2.489   2.523   2.994  0.2290  0.5248  0.3353
  700MOL0     C92277   2.425   2.394   3.002  0.0139 -0.4307  0.1635
  700MOL0     C92278   2.282   2.388   2.938 -0.5534 -0.2158 -0.9558
  700MOL0     C92279   2.217   2.257   2.961  0.0125 -0.1912  0.2012
  700MOL0     C92280   2.103   2.224   2.859 -0.5193 -0.2037 -0.9655
  700MOL0     C92281   2.012   2.122   2.920  0.2769 -0.4934  0.2233
  700MOL0     C92282   1.941   2.040   2.815  0.7917 -0.4689  0.1070
  700MOL0     C92283   1.789   2.062   2.820  0.0078 -0.0897 -0.1677
  700MOL0     C92284   1.744   2.209   2.799  0.1654  0.7633 -0.1187
  700MOL0     N92285   1.798   2.270   2.675 -0.1165  0.2273  0.0778
  700MOL0     C92286   1.753   2.245   2.549  0.1791  0.3797  0.1466
  700MOL0     C92287   1.818   2.329   2.479  1.1079  0.4933  1.0138
  700MOL0     C92288   1.807   2.339   2.328 -0.0965  0.0490  0.6226
  700MOL0     C92289   1.655   2.355   2.286 -0.2037  0.3426 -0.0405
  700MOL0     C92290   1.650   2.344   2.143 -0.8188 -0.4219  0.0674
  700MOL0     C92291   1.659   2.487   2.097  0.0429 -0.5307 -0.3310
  700MOL0     O92292   1.639   2.500   1.951  0.2026 -0.6297 -1.0872
  700MOL0     C92293   1.509   2.464   1.895 -0.7209 -1.0350  0.0161
  700MOL0     C92294   1.393   2.512   1.957  1.0329 -0.1671  0.5564
  700MOL0     C92295   1.268   2.483   1.899 -0.0358  0.0009 -0.4539
  700MOL0     C92296   1.267   2.436   1.767 -0.0111  0.1449 -0.6389
  700MOL0     C92297   1.138   2.419   1.701 -0.7620  0.2718  0.2505
  700MOL0     O92298   1.031   2.484   1.751 -0.1617  0.0307  0.5518
  700MOL0     C92299   0.904   2.463   1.694 -0.9806  0.6555  0.2649
  700MOL0     C92300   0.812   2.388   1.746  0.6944 -0.2906  0.5584
  700MOL0     C92301   0.687   2.375   1.679  0.4397 -0.2175 -0.6506
  700MOL0     C92302   0.650   2.437   1.555 -0.7163 -0.5100 -0.1010
  700MOL0     O92303   0.543   2.432   1.482  0.3922 -0.0589  0.0150
  700MOL0     C92304   0.431   2.390   1.554  0.0226 -0.4445 -0.4463
  700MOL0     C92305   0.307   2.398   1.461  0.5447  0.5185  0.0181
  700MOL0     C92306   0.170   2.377   1.534 -1.1440 -0.3388 -0.4189
  700MOL0     C92307   0.061   2.474   1.472 -0.8591  0.6289 -0.7268
  700MOL0     C92308  -0.076   2.472   1.524  0.7644  0.4693  0.0077
  700MOL0     C92309  -0.144   2.340   1.505  0.2816 -0.2914  0.1023
  700MOL0     C92310  -0.184   2.309   1.366 -0.0080 -0.5957 -0.1574
  700MOL0     C92311  -0.230   2.161   1.354  0.5350  0.3706 -0.6340
  700MOL0    Cl92312  -0.375   2.138   1.463  0.3974 -0.1074  0.2008
  700MOL0     C92313   0.757   2.515   1.504  0.1430  0.1824 -0.3447
  700MOL0     C92314   0.882   2.529   1.570  0.0107 -0.1709  0.1311
  700MOL0     O92315   1.137   2.337   1.611  0.5392  0.0380  0.2157
  700MOL0     C92316   1.393   2.397   1.708 -0.2124  0.3375  0.0693
  700MOL0     C92317   1.508   2.412   1.772  0.4097  0.1439 -0.3010
  700MOL0     N92318   1.900   2.409   2.546 -0.4620  0.0622 -1.0482
  700MOL0     N92319   1.897   2.358   2.671 -0.0615 -0.0451 -0.1252
  700MOL0     C92320   2.723   2.446   3.010 -0.2513 -0.1931 -0.9444
  700MOL0     C92321   2.849   2.474   3.054  0.3357 -0.5480 -0.0515
  700MOL0     C92322   3.233   2.685   3.193 -0.7090 -0.7672 -0.0529
  700MOL0     C92323   3.253   2.650   3.327 -0.8845  0.1132  0.2622
  700MOL0     C92324   3.368   2.688   3.398 -0.5567  0.1882 -0.1631
  700MOL0     C92325   3.473   2.745   3.326  0.8410 -0.2074  0.2033
  700MOL0     O92326   3.578   2.769   3.399 -0.1274  0.3185 -0.0491
  700MOL0     C92327   3.709   2.781   3.330 -0.8599  1.0524 -0.3649
  700MOL0     C92328   3.774   2.649   3.282  0.2109 -0.0145 -0.6821
  700MOL0     C92329   3.910   2.666   3.199  0.5913 -0.1896 -1.0329
  700MOL0     C92330   3.966   2.524   3.170  0.3783 -0.3243 -0.3720
  700MOL0     C92331   4.105   2.530   3.118  0.2475  0.5718 -0.6565
  700MOL0     C92332   4.219   2.540   3.098 -0.1020 -0.0247  0.5197
  700MOL0     C92333   3.464   2.754   3.184 -0.4062 -1.0196 -0.0229
  700MOL0     C92334   3.344   2.729   3.123  0.2048 -0.0654 -0.6581
  700MOL0     H92335   2.806   2.730   3.255  2.2442 -0.1859  0.2096
  700MOL0     H92336   2.565   2.696   3.172 -1.5269 -0.2071 -0.0346
  700MOL0     H92337   2.416   2.367   3.107  2.1876  0.8717  0.7371
  700MOL0     H92338   2.494   2.321   2.959  1.8014  2.3401 -2.0190
  700MOL0     H92339   2.301   2.414   2.833 -0.2752  0.5619 -0.7163
  700MOL0     H92340   2.218   2.467   2.977 -2.1938 -2.8499  2.1499
  700MOL0     H92341   2.166   2.266   3.057 -0.9490 -0.3186 -0.2848
  700MOL0     H92342   2.294   2.180   2.957 -2.4101 -2.7546  0.4148
  700MOL0     H92343   2.047   2.318   2.851  0.1984  0.1861 -1.5644
  700MOL0     H92344   2.154   2.190   2.768  0.0178 -1.3514 -0.2619
  700MOL0     H92345   1.940   2.175   2.984 -0.7331  0.5855 -1.7099
  700MOL0     H92346   2.050   2.052   2.995 -2.1825 -0.2078  1.8530
  700MOL0     H92347   1.963   1.938   2.846 -1.9215 -0.5200  2.2136
  700MOL0     H92348   1.985   2.058   2.716  1.7517  0.3829  0.6618
  700MOL0     H92349   1.738   2.002   2.743  1.8817 -0.8341 -0.8771
  700MOL0     H92350   1.762   2.028   2.920  1.7643  0.9877  0.7149
  700MOL0     H92351   1.777   2.272   2.883  1.8937  0.9088 -0.8574
  700MOL0     H92352   1.636   2.204   2.782  0.5212  0.7269 -2.7220
  700MOL0     H92353   1.670   2.180   2.521 -0.9773  1.4185  1.0568
  700MOL0     H92354   1.859   2.254   2.283  2.5240  0.8572  1.9048
  700MOL0     H92355   1.861   2.430   2.300 -0.1841 -0.9123 -3.2227
  700MOL0     H92356   1.599   2.441   2.324 -0.8399  0.2444 -0.7251
  700MOL0     H92357   1.606   2.264   2.321  0.5625 -0.3526 -0.7355
  700MOL0     H92358   1.739   2.290   2.108 -0.5110 -1.9184  2.8907
  700MOL0     H92359   1.563   2.290   2.104 -2.4347  0.2999  2.4628
  700MOL0     H92360   1.760   2.520   2.123 -0.0371 -1.5676  1.5130
  700MOL0     H92361   1.588   2.555   2.145 -2.8899 -2.6662 -1.3555
  700MOL0     H92362   1.406   2.571   2.047 -1.5589  1.3526  0.0522
  700MOL0     H92363   1.184   2.497   1.967  0.5451 -1.1971  0.5761
  700MOL0     H92364   0.832   2.349   1.845 -0.9971  1.0028  1.4680
  700MOL0     H92365   0.603   2.317   1.715 -0.7951  1.4168 -0.7519
  700MOL0     H92366   0.410   2.458   1.638 -1.7291  0.7026 -1.7649
  700MOL0     H92367   0.440   2.284   1.583  1.9148 -0.6572 -1.6464
  700MOL0     H92368   0.313   2.334   1.372 -1.4125  0.9268 -0.4485
  700MOL0     H92369   0.314   2.497   1.415  1.3886 -0.1618 -1.3970
  700MOL0     H92370   0.181   2.407   1.639  2.1013 -3.0497  0.1954
  700MOL0     H92371   0.144   2.271   1.524 -3.1513  0.1325 -0.5362
  700MOL0     H92372   0.093   2.579   1.482 -0.5590  0.6293 -1.5930
  700MOL0     H92373   0.066   2.445   1.367  1.0701 -1.2740 -0.1702
  700MOL0     H92374  -0.138   2.546   1.473  0.6449  0.2443 -0.1742
  700MOL0     H92375  -0.092   2.500   1.629  1.7272  0.1090  0.2628
  700MOL0     H92376  -0.231   2.333   1.571 -1.2044  0.2936 -1.6999
  700MOL0     H92377  -0.072   2.263   1.534 -0.3654 -0.5325  1.1056
  700MOL0     H92378  -0.265   2.375   1.333  1.6790  1.4045 -0.4517
  700MOL0     H92379  -0.100   2.328   1.299 -0.0358  2.7994  0.6138
  700MOL0     H92380  -0.154   2.092   1.391 -0.6732 -1.2079 -0.9469
  700MOL0     H92381  -0.257   2.118   1.257 -0.7710  1.7225 -0.9091
  700MOL0     H92382   0.740   2.583   1.421  0.0431 -0.1286 -0.5832
  700MOL0     H92383   0.960   2.595   1.532  0.7398 -1.6221 -1.0255
  700MOL0     H92384   1.400   2.349   1.611  0.1655 -3.2843  1.7201
  700MOL0     H92385   1.603   2.396   1.721  1.7900  0.3170  2.0589
  700MOL0     H92386   2.695   2.361   2.949 -0.3216  0.9637 -2.5931
  700MOL0     H92387   2.935   2.413   3.031  0.0019 -1.3756  0.8529
  700MOL0     H92388   3.168   2.608   3.381 -0.9675 -0.7920 -0.5415
  700MOL0     H92389   3.389   2.668   3.502  2.7026 -0.1634 -0.7818
  700MOL0     H92390   3.780   2.843   3.386  1.7670  1.1152 -3.4710
  700MOL0     H92391   3.689   2.840   3.241  0.8341  0.6399 -1.0616
  700MOL0     H92392   3.783   2.577   3.364 -1.4459 -1.5059 -1.7492
  700MOL0     H92393   3.697   2.602   3.221 -0.5658  0.1157  0.1639
  700MOL0     H92394   3.985   2.711   3.265  2.7649 -1.8511 -2.2526
  700MOL0     H92395   3.890   2.731   3.114  1.5600  1.6256  0.0663
  700MOL0     H92396   3.971   2.469   3.264 -0.1241  0.7357  0.2891
  700MOL0     H92397   3.905   2.469   3.098 -2.0557  1.6136  0.0698
  700MOL0     H92398   4.321   2.553   3.067 -0.5439  0.4347 -0.8186
  700MOL0     H92399   3.542   2.779   3.114 -2.3680 -0.3481 -2.1080
  700MOL0     H92400   3.326   2.763   3.021  1.0254 -1.5039 -1.2987
  701MOL0     O92401   3.931  10.072   9.386  0.8106  0.5074  0.0152
  701MOL0     C92402   3.961  10.144   9.288 -0.2326 -0.4896 -0.1133
  701MOL0     O92403   3.876  10.215   9.206  0.3062 -0.0164 -0.3622
  701MOL0     C92404   3.739  10.183   9.205 -0.4062 -0.0104  0.1704
  701MOL0     C92405   3.683  10.059   9.165 -0.3790  0.5268 -0.2082
  701MOL0     C92406   3.549  10.037   9.165 -1.1259  0.4739  0.2086
  701MOL0     C92407   3.461  10.143   9.189  0.5818  0.9704  0.3508
  701MOL0     O92408   3.329  10.111   9.192  0.4135  0.3652  0.6852
  701MOL0     C92409   3.284  10.043   9.071 -0.9812 -0.4251  0.0019
  701MOL0     C92410   3.141  10.029   9.076  0.4586 -0.2724 -0.0978
  701MOL0     C92411   3.089   9.937   8.963 -0.2704  0.0518  0.5025
  701MOL0     C92412   2.926   9.929   8.941 -0.4660  0.1255 -0.7029
  701MOL0     C92413   2.860  10.046   8.876 -0.3901  1.4192  0.7833
  701MOL0     C92414   2.911  10.062   8.728 -0.5833 -0.0960  0.4589
  701MOL0     C92415   2.850  10.176   8.640 -0.3471 -0.2056  0.3328
  701MOL0     C92416   2.927  10.185   8.505  0.1619 -0.1230 -0.2441
  701MOL0     N92417   2.843  10.286   8.431  0.0706 -0.1789  0.2266
  701MOL0     C92418   2.705  10.266   8.398  0.5987  0.8097  0.2720
  701MOL0     C92419   2.655  10.386   8.357  0.8700 -0.7493  0.0301
  701MOL0     C92420   2.514  10.414   8.314 -1.1942  0.5481 -0.1388
  701MOL0     C92421   2.466  10.565   8.344  0.5443  0.3459  0.2846
  701MOL0     C92422   2.334  10.598   8.273  0.3383  0.1007 -0.4405
  701MOL0     C92423   2.276  10.733   8.309 -0.3639  0.3824 -1.4703
  701MOL0     O92424   2.169  10.745   8.219 -0.0044  0.2207 -0.1355
  701MOL0     C92425   2.081  10.848   8.240  0.5930  0.6887  0.1892
  701MOL0     C92426   2.110  10.960   8.316  0.3508 -0.0385 -0.1685
  701MOL0     C92427   2.013  11.064   8.320  0.3350  0.1919 -1.3177
  701MOL0     C92428   1.890  11.048   8.261  0.5154  0.4788 -0.7574
  701MOL0     C92429   1.782  11.149   8.277  0.1213  0.8913  0.8625
  701MOL0     O92430   1.652  11.104   8.254 -0.1781  0.0448  1.0421
  701MOL0     C92431   1.544  11.184   8.285 -0.1369 -0.0643 -0.6190
  701MOL0     C92432   1.539  11.271   8.390 -0.3179 -0.2697  0.2108
  701MOL0     C92433   1.426  11.358   8.398  0.1391 -0.7028 -0.2573
  701MOL0     C92434   1.313  11.336   8.312  0.1231 -0.8620  0.0517
  701MOL0     O92435   1.190  11.408   8.324 -0.2205  0.5053 -0.1412
  701MOL0     C92436   1.168  11.504   8.417  0.7491  0.9446 -0.4710
  701MOL0     C92437   1.071  11.613   8.368  0.3545  0.4738 -0.2499
  701MOL0     C92438   0.922  11.568   8.347  0.5600 -0.3710  1.1261
  701MOL0     C92439   0.881  11.477   8.464 -0.8426 -0.0129  0.1122
  701MOL0     C92440   0.725  11.463   8.485 -0.5420 -0.3141 -0.0119
  701MOL0     C92441   0.660  11.599   8.540 -1.7210  0.3813 -0.2475
  701MOL0     C92442   0.519  11.571   8.588  0.8177  0.8040 -0.6003
  701MOL0     C92443   0.522  11.530   8.740 -0.2744 -0.2736  0.9607
  701MOL0    Cl92444   0.554  11.665   8.848 -0.3854 -0.0145 -0.3516
  701MOL0     C92445   1.321  11.241   8.207 -0.3422 -0.8400 -0.1168
  701MOL0     C92446   1.437  11.166   8.198  0.5433 -0.1132 -0.0280
  701MOL0     O92447   1.809  11.266   8.279 -0.4821 -0.2783  1.2306
  701MOL0     C92448   1.861  10.923   8.199 -0.3045 -0.8792  0.6064
  701MOL0     C92449   1.961  10.827   8.180  0.1331 -0.3691 -0.4352
  701MOL0     N92450   2.760  10.480   8.368 -0.5236 -0.0476 -0.4598
  701MOL0     N92451   2.868  10.419   8.416  0.3167  0.3098 -0.0883
  701MOL0     C92452   3.508  10.270   9.209  0.8580 -0.3251 -0.2438
  701MOL0     C92453   3.646  10.292   9.222 -0.2908  0.1298  0.3408
  701MOL0     C92454   4.106  10.170   9.263 -0.2804  1.0178  0.5595
  701MOL0     C92455   4.155  10.272   9.177  0.6530  0.4498  0.1222
  701MOL0     C92456   4.298  10.288   9.155  0.4778 -0.9278  0.1738
  701MOL0     C92457   4.377  10.189   9.210 -0.7173  0.0154  0.4452
  701MOL0     O92458   4.517  10.182   9.192 -0.0798 -0.1440  0.1275
  701MOL0     C92459   4.596  10.296   9.205 -0.2303 -0.0998  0.1129
  701MOL0     C92460   4.590  10.353   9.351 -0.6139  0.0546 -0.0617
  701MOL0     C92461   4.636  10.265   9.466 -0.0748 -0.1190  0.0399
  701MOL0     C92462   4.786  10.252   9.486  0.4448  0.5158 -1.0802
  701MOL0     C92463   4.845  10.352   9.577 -0.1972  0.0515 -0.2019
  701MOL0     C92464   4.885  10.441   9.640 -0.2412  0.6193 -0.3780
  701MOL0     C92465   4.330  10.089   9.284  0.3428  0.2655  0.4258
  701MOL0     C92466   4.199  10.076   9.315 -0.5213  0.2368 -0.8056
  701MOL0     H92467   3.758   9.985   9.137  0.9601  0.9686  1.9423
  701MOL0     H92468   3.518   9.934   9.146 -0.8418  0.3264  0.5428
  701MOL0     H92469   3.334   9.947   9.058  1.8460  0.7551  1.3329
  701MOL0     H92470   3.307  10.108   8.985 -1.9219 -1.3223 -0.9638
  701MOL0     H92471   3.088  10.124   9.068 -1.2301 -1.1636  0.0360
  701MOL0     H92472   3.118   9.981   9.172 -0.5815 -0.3401 -0.3668
  701MOL0     H92473   3.136   9.841   8.988  1.9935  1.2705  1.1076
  701MOL0     H92474   3.126   9.964   8.864 -0.4746 -0.4583  0.2808
  701MOL0     H92475   2.895   9.834   8.895 -5.7227  0.4031  1.5662
  701MOL0     H92476   2.899   9.916   9.047  2.0710  2.0350  0.2817
  701MOL0     H92477   2.888  10.135   8.932  0.2809  0.4218  2.0789
  701MOL0     H92478   2.753  10.024   8.877  0.1269 -2.6755 -2.6928
  701MOL0     H92479   2.897   9.967   8.675 -0.4579  0.7453 -1.1355
  701MOL0     H92480   3.019  10.083   8.726 -0.2665 -1.5234  1.0543
  701MOL0     H92481   2.747  10.139   8.626 -0.9419 -0.3937  4.1954
  701MOL0     H92482   2.851  10.278   8.679  2.9265  1.7199 -3.9909
  701MOL0     H92483   2.903  10.088   8.462  0.8416 -1.5478  2.3440
  701MOL0     H92484   3.029  10.226   8.511 -0.1816  1.0181 -1.6942
  701MOL0     H92485   2.645  10.176   8.405  0.3351  0.8404 -1.2563
  701MOL0     H92486   2.447  10.344   8.364 -2.1376  2.3324  1.2128
  701MOL0     H92487   2.510  10.402   8.205 -3.4533  2.3788 -0.3494
  701MOL0     H92488   2.546  10.628   8.304  0.9517 -0.5098 -0.2879
  701MOL0     H92489   2.453  10.559   8.453 -1.1973 -0.3635  0.0679
  701MOL0     H92490   2.356  10.597   8.165 -0.8529  0.5403 -0.7032
  701MOL0     H92491   2.262  10.517   8.290  0.8389 -1.0749 -3.2389
  701MOL0     H92492   2.346  10.816   8.302  2.0943 -0.5542  4.8712
  701MOL0     H92493   2.239  10.723   8.412  0.7351 -1.3869 -1.1984
  701MOL0     H92494   2.205  10.973   8.367  0.9367 -1.3760 -0.8717
  701MOL0     H92495   2.029  11.153   8.379 -1.0354  0.5348 -1.4266
  701MOL0     H92496   1.620  11.273   8.462  1.2716 -0.4394 -1.5099
  701MOL0     H92497   1.428  11.428   8.480 -1.8082 -2.4352  1.3722
  701MOL0     H92498   1.261  11.556   8.443  0.6834 -0.2772  2.5293
  701MOL0     H92499   1.144  11.457   8.512  1.9463 -0.7126 -0.9356
  701MOL0     H92500   1.102  11.659   8.273  0.1121 -0.8921 -1.0237
  701MOL0     H92501   1.075  11.697   8.438  0.9550 -0.6788  1.1568
  701MOL0     H92502   0.898  11.520   8.252  0.2297 -0.3891  1.2155
  701MOL0     H92503   0.852  11.653   8.350 -1.0219 -1.5737 -0.2968
  701MOL0     H92504   0.912  11.373   8.449 -0.2971 -0.1016  1.7501
  701MOL0     H92505   0.921  11.503   8.562  0.1606  0.4937 -0.4159
  701MOL0     H92506   0.726  11.393   8.568 -0.1171  0.2866  0.4999
  701MOL0     H92507   0.664  11.415   8.408  0.4052 -1.4376 -0.0851
  701MOL0     H92508   0.649  11.682   8.469  3.2952  1.0663 -0.5756
  701MOL0     H92509   0.725  11.633   8.621  1.7556  0.4612 -2.8449
  701MOL0     H92510   0.461  11.664   8.578  0.4652  0.5983 -0.4556
  701MOL0     H92511   0.482  11.487   8.530 -0.1742  0.3936  0.5965
  701MOL0     H92512   0.598  11.452   8.752  1.9816  1.0163 -2.9441
  701MOL0     H92513   0.426  11.483   8.761 -0.9949  1.0679  0.7837
  701MOL0     H92514   1.232  11.231   8.146 -0.2072 -4.1417  0.0581
  701MOL0     H92515   1.468  11.102   8.116  3.6898 -1.6996  2.1711
  701MOL0     H92516   1.767  10.899   8.149 -0.4467  0.1821  0.3437
  701MOL0     H92517   1.936  10.743   8.115 -0.9030 -1.6671  1.5469
  701MOL0     H92518   3.430  10.341   9.232 -1.0441 -1.7371 -1.9742
  701MOL0     H92519   3.680  10.393   9.241 -0.2863  0.0243  0.9047
  701MOL0     H92520   4.080  10.332   9.126  3.1252  2.1982 -1.7294
  701MOL0     H92521   4.332  10.373   9.097 -0.8816 -0.0145  0.6607
  701MOL0     H92522   4.556  10.375   9.141 -3.6661 -1.7443 -0.0081
  701MOL0     H92523   4.697  10.266   9.176  0.1739  0.5868  0.7460
  701MOL0     H92524   4.636  10.452   9.359  1.7591 -0.7721 -2.1619
  701MOL0     H92525   4.485  10.355   9.382 -0.2212 -2.2751  1.7328
  701MOL0     H92526   4.592  10.166   9.456 -0.9773  0.2594  0.1738
  701MOL0     H92527   4.587  10.302   9.557  0.4477  1.8949 -0.4431
  701MOL0     H92528   4.803  10.153   9.529 -3.6331  0.8092  1.8297
  701MOL0     H92529   4.839  10.250   9.390 -0.9555  1.2194 -1.9079
  701MOL0     H92530   4.924  10.524   9.696  2.7050 -1.7304  1.3642
  701MOL0     H92531   4.409  10.031   9.332 -0.8104 -1.2986  0.5147
  701MOL0     H92532   4.172  10.006   9.394  2.9941  0.4479  0.7517
  702MOL0     O92533   6.313   0.080   3.340 -0.0705 -0.0754 -0.2261
  702MOL0     C92534   6.375   0.148   3.259  0.1558 -1.4362  0.4193
  702MOL0     O92535   6.327   0.245   3.169 -0.2525 -0.5155 -0.4930
  702MOL0     C92536   6.197   0.279   3.179 -0.4886 -0.4711  0.9187
  702MOL0     C92537   6.133   0.293   3.301 -0.2972  0.7047 -0.6631
  702MOL0     C92538   6.000   0.343   3.309  0.9353  0.1410 -0.0565
  702MOL0     C92539   5.925   0.363   3.197  0.4287  0.2869 -0.4333
  702MOL0     O92540   5.790   0.406   3.202 -0.4125 -0.4453 -0.2466
  702MOL0     C92541   5.702   0.292   3.202 -0.0443  0.0476 -1.1391
  702MOL0     C92542   5.596   0.310   3.309 -0.5624 -0.3245 -0.5923
  702MOL0     C92543   5.506   0.434   3.285 -0.1189 -0.2331 -0.2106
  702MOL0     C92544   5.423   0.469   3.409 -0.0995 -0.1871 -0.6448
  702MOL0     C92545   5.324   0.583   3.378  0.2359  0.9839 -0.3805
  702MOL0     C92546   5.236   0.613   3.496  1.0864  0.1925 -0.9136
  702MOL0     C92547   5.115   0.509   3.511  0.3965 -0.3441 -0.1730
  702MOL0     C92548   4.999   0.529   3.411  0.6733 -0.5149 -0.0938
  702MOL0     N92549   4.907   0.416   3.396 -0.1800  0.6304 -0.0086
  702MOL0     C92550   4.903   0.325   3.285 -0.7428 -0.4424 -0.0508
  702MOL0     C92551   4.845   0.212   3.335  0.1780 -1.4134 -0.1358
  702MOL0     C92552   4.783   0.100   3.262  1.4914 -0.4595  0.2417
  702MOL0     C92553   4.889  -0.007   3.231 -0.0371 -0.4236  0.2203
  702MOL0     C92554   4.824  -0.128   3.142 -0.2800 -0.2740 -0.3657
  702MOL0     C92555   4.952  -0.198   3.093  0.1153 -0.4489  0.6236
  702MOL0     O92556   5.025  -0.126   2.992  0.6157 -0.0656 -0.3913
  702MOL0     C92557   5.137  -0.186   2.933  0.6234 -0.3536 -0.1569
  702MOL0     C92558   5.137  -0.198   2.796 -0.4990 -0.5864  0.8478
  702MOL0     C92559   5.246  -0.263   2.728 -0.2223 -0.6701 -0.5862
  702MOL0     C92560   5.346  -0.326   2.805 -0.2134  0.4581 -0.0733
  702MOL0     C92561   5.446  -0.402   2.729  0.4222 -0.4024  0.2180
  702MOL0     O92562   5.555  -0.443   2.808  0.0129 -0.2693  0.6076
  702MOL0     C92563   5.637  -0.548   2.769 -0.3291  0.6858 -0.1793
  702MOL0     C92564   5.612  -0.661   2.693 -0.0575  0.1520  0.5940
  702MOL0     C92565   5.719  -0.748   2.671 -0.5758  0.1571  0.5182
  702MOL0     C92566   5.848  -0.732   2.720 -0.7615 -0.1874 -0.3571
  702MOL0     O92567   5.937  -0.835   2.700 -0.6993  0.0405  0.6556
  702MOL0     C92568   6.065  -0.830   2.766  0.5832  0.4165  0.7718
  702MOL0     C92569   6.164  -0.933   2.739 -0.8297 -0.1924  0.7509
  702MOL0     C92570   6.318  -0.914   2.784  0.5849 -0.3237  0.8913
  702MOL0     C92571   6.403  -1.041   2.742  0.1019  0.1574 -0.1968
  702MOL0     C92572   6.553  -1.020   2.792  0.4259 -0.3491 -0.0260
  702MOL0     C92573   6.655  -1.112   2.728  0.6792 -0.2825 -0.0591
  702MOL0     C92574   6.790  -1.081   2.796 -0.1605  0.0626  0.5328
  702MOL0     C92575   6.894  -1.154   2.711 -0.3443 -0.5338 -0.5516
  702MOL0    Cl92576   6.871  -1.331   2.715  0.4102 -0.0980  0.3938
  702MOL0     C92577   5.873  -0.621   2.786 -0.4949 -0.1172  0.5519
  702MOL0     C92578   5.766  -0.532   2.818  0.0690  0.0926  0.0445
  702MOL0     O92579   5.428  -0.430   2.610  0.2282 -0.0958  0.3542
  702MOL0     C92580   5.342  -0.315   2.945 -0.6211 -0.3361 -0.1854
  702MOL0     C92581   5.244  -0.234   3.009 -0.5950 -0.2564 -0.0586
  702MOL0     N92582   4.824   0.230   3.470  0.3797  0.3547 -0.4224
  702MOL0     N92583   4.862   0.350   3.499 -0.1842  0.1682 -0.3990
  702MOL0     C92584   5.992   0.349   3.068 -0.7213 -1.0307  0.4828
  702MOL0     C92585   6.122   0.305   3.066 -0.4618 -0.7755 -1.0587
  702MOL0     C92586   6.525   0.137   3.249  0.7337 -0.0436  0.5030
  702MOL0     C92587   6.607   0.224   3.171 -0.0585 -0.3917 -0.1603
  702MOL0     C92588   6.751   0.203   3.160 -0.3822 -0.4141 -1.2652
  702MOL0     C92589   6.810   0.105   3.237  0.5034 -0.0364  0.6558
  702MOL0     O92590   6.947   0.086   3.240  0.1424  1.1111 -0.2792
  702MOL0     C92591   7.034   0.180   3.175  0.2869  0.1016 -0.1249
  702MOL0     C92592   7.178   0.149   3.201 -0.4026  0.2107 -0.3344
  702MOL0     C92593   7.216   0.004   3.184 -0.0367 -0.0916  0.0857
  702MOL0     C92594   7.358  -0.014   3.220  0.1226  0.7269  0.7403
  702MOL0     C92595   7.451   0.013   3.106 -0.5009 -0.1791 -0.2061
  702MOL0     C92596   7.532   0.027   3.020  0.5338  0.0910  0.8513
  702MOL0     C92597   6.731   0.029   3.306  0.4401  1.1327 -0.1253
  702MOL0     C92598   6.590   0.029   3.310 -0.1069  0.5821  0.2625
  702MOL0     H92599   6.177   0.277   3.399  2.6109 -0.2613 -2.0366
  702MOL0     H92600   5.957   0.348   3.409  0.3375 -1.2955 -0.2168
  702MOL0     H92601   5.762   0.201   3.209  0.7824  0.6430 -0.1602
  702MOL0     H92602   5.634   0.293   3.117 -1.9957  0.1443  0.3638
  702MOL0     H92603   5.647   0.313   3.406  2.4845 -1.0775 -2.0435
  702MOL0     H92604   5.533   0.221   3.309 -1.2070 -0.0442  3.0327
  702MOL0     H92605   5.431   0.415   3.208 -1.4650  0.7164  0.8288
  702MOL0     H92606   5.558   0.529   3.271 -0.3160  0.4649  3.0318
  702MOL0     H92607   5.383   0.376   3.451  3.3831 -0.8478  1.6234
  702MOL0     H92608   5.494   0.513   3.480 -1.1719 -1.5726  1.3569
  702MOL0     H92609   5.266   0.558   3.289  3.3538 -1.0858 -2.0308
  702MOL0     H92610   5.390   0.667   3.355  0.1353  0.9693 -0.7314
  702MOL0     H92611   5.209   0.718   3.488  3.7303  1.3377  2.5350
  702MOL0     H92612   5.297   0.612   3.587 -1.0793  1.9708  0.6553
  702MOL0     H92613   5.154   0.408   3.494  0.1009 -0.8119  1.6781
  702MOL0     H92614   5.078   0.518   3.613  1.8471  2.5167  0.2243
  702MOL0     H92615   5.041   0.539   3.311  0.0215  0.9558 -0.2534
  702MOL0     H92616   4.944   0.623   3.425  2.0549  0.3373 -0.2018
  702MOL0     H92617   4.945   0.345   3.187 -0.3360  2.2596  0.5974
  702MOL0     H92618   4.740   0.133   3.167 -3.8277  0.2337  2.5354
  702MOL0     H92619   4.701   0.063   3.324  2.0469  0.6106  1.6785
  702MOL0     H92620   4.930  -0.040   3.327 -0.2832  2.3937  1.4052
  702MOL0     H92621   4.972   0.028   3.170 -0.5063 -0.0171 -0.1968
  702MOL0     H92622   4.773  -0.195   3.212  1.7292  0.0951  1.6001
  702MOL0     H92623   4.753  -0.087   3.070  1.4209  0.5892 -1.6402
  702MOL0     H92624   4.938  -0.300   3.054 -0.3932  0.0226 -0.4726
  702MOL0     H92625   5.015  -0.219   3.179  2.3385 -1.3865 -1.1402
  702MOL0     H92626   5.052  -0.153   2.746 -1.9915 -0.0086  3.6609
  702MOL0     H92627   5.230  -0.270   2.621 -1.8008 -4.8658 -0.2889
  702MOL0     H92628   5.512  -0.678   2.655  0.1852  1.6791 -0.8325
  702MOL0     H92629   5.682  -0.837   2.620 -0.4812  0.0122  0.7011
  702MOL0     H92630   6.060  -0.822   2.875  2.4644 -1.0475  1.0315
  702MOL0     H92631   6.111  -0.735   2.740 -0.3220  0.6519 -0.0048
  702MOL0     H92632   6.168  -0.956   2.632 -0.5665  1.6130  0.3384
  702MOL0     H92633   6.132  -1.027   2.785  1.9187 -2.4884 -1.5969
  702MOL0     H92634   6.332  -0.895   2.890  3.6785 -0.7464  0.6438
  702MOL0     H92635   6.349  -0.828   2.723 -0.8146  0.0955  0.7182
  702MOL0     H92636   6.364  -1.141   2.764 -0.5821 -0.4967 -3.7403
  702MOL0     H92637   6.406  -1.027   2.634 -3.3287  3.9763 -0.0240
  702MOL0     H92638   6.555  -1.036   2.900  1.1163 -0.8636 -0.1089
  702MOL0     H92639   6.588  -0.918   2.775 -0.3467  0.1270  1.1550
  702MOL0     H92640   6.652  -1.099   2.619 -0.6230 -0.7211 -0.0977
  702MOL0     H92641   6.629  -1.215   2.753  0.8870 -0.1085  0.8945
  702MOL0     H92642   6.808  -0.973   2.799 -0.9567  0.3818 -2.5375
  702MOL0     H92643   6.785  -1.116   2.900  1.9136 -1.6951  0.1185
  702MOL0     H92644   6.983  -1.119   2.765 -1.3691  1.7968 -0.2566
  702MOL0     H92645   6.892  -1.124   2.606  2.9505 -1.1956 -0.9130
  702MOL0     H92646   5.968  -0.578   2.814 -1.6196  0.8696  3.1778
  702MOL0     H92647   5.782  -0.442   2.877 -2.6588  0.3059  0.5774
  702MOL0     H92648   5.413  -0.353   3.018  1.9103  1.2785 -1.6484
  702MOL0     H92649   5.242  -0.216   3.116 -1.4608  1.1012 -0.2781
  702MOL0     H92650   5.958   0.371   2.967  1.2492 -1.0899 -0.2386
  702MOL0     H92651   6.167   0.296   2.967  1.1154  2.0252 -0.6974
  702MOL0     H92652   6.567   0.311   3.119  0.8963  0.9535  1.2817
  702MOL0     H92653   6.797   0.278   3.097 -0.7840  0.8035 -0.1590
  702MOL0     H92654   6.998   0.279   3.205  0.1245 -0.3410  1.2277
  702MOL0     H92655   7.010   0.178   3.068  2.0172  0.5821 -0.5505
  702MOL0     H92656   7.241   0.200   3.127  1.0713 -2.1804 -0.8434
  702MOL0     H92657   7.196   0.177   3.305 -2.3979 -0.7333  0.3130
  702MOL0     H92658   7.188  -0.037   3.086 -2.2926 -0.2488  0.7607
  702MOL0     H92659   7.159  -0.059   3.253 -0.7585 -0.2798 -0.6599
  702MOL0     H92660   7.382   0.053   3.304  0.5095  2.1774 -0.4703
  702MOL0     H92661   7.374  -0.119   3.242  2.3277  1.4752  3.2361
  702MOL0     H92662   7.582   0.051   2.928 -1.7402  0.4506 -0.3746
  702MOL0     H92663   6.778  -0.055   3.356 -0.3146 -0.8907 -2.6002
  702MOL0     H92664   6.541  -0.048   3.369 -0.5327  0.2962 -0.4589
  703MOL0     O92665   3.012  10.318   7.333  0.0235  0.0944 -0.7637
  703MOL0     C92666   3.031  10.278   7.449 -0.1671  0.4912 -0.0609
  703MOL0     O92667   2.926  10.246   7.531 -0.3595 -0.4070 -1.0110
  703MOL0     C92668   2.808  10.307   7.506 -0.2356 -0.0041  0.0397
  703MOL0     C92669   2.718  10.255   7.409  0.7635  0.0957  0.0590
  703MOL0     C92670   2.595  10.329   7.391 -0.6535  0.1985  0.1315
  703MOL0     C92671   2.563  10.442   7.473  0.2740 -0.1369 -0.4241
  703MOL0     O92672   2.458  10.514   7.438 -0.3841 -0.3828 -0.6763
  703MOL0     C92673   2.353  10.518   7.527  0.9430  0.0203  0.3087
  703MOL0     C92674   2.223  10.498   7.456 -0.0757  0.2309 -0.3279
  703MOL0     C92675   2.211  10.356   7.403 -0.9076  0.0311  0.2619
  703MOL0     C92676   2.073  10.329   7.339  1.3415 -0.5025  0.2902
  703MOL0     C92677   2.074  10.186   7.305  0.2368 -0.0066 -0.1358
  703MOL0     C92678   2.040  10.083   7.417 -0.3605 -0.0468  0.0897
  703MOL0     C92679   2.012   9.956   7.347  0.7030  0.6277  0.4538
  703MOL0     C92680   1.863   9.941   7.305 -0.1344 -0.0527 -0.1448
  703MOL0     N92681   1.763   9.935   7.421  0.6691  0.6082  0.1227
  703MOL0     C92682   1.798   9.885   7.547 -0.4855  1.0702 -0.5201
  703MOL0     C92683   1.678   9.884   7.615  0.1971 -0.9581  0.6455
  703MOL0     C92684   1.644   9.831   7.756  0.8215 -0.0091  0.6714
  703MOL0     C92685   1.639   9.680   7.773  0.2090  0.3349 -0.1330
  703MOL0     C92686   1.504   9.622   7.740 -0.0671 -0.0026 -1.1449
  703MOL0     C92687   1.496   9.479   7.797  0.0293  0.0669  0.3181
  703MOL0     O92688   1.362   9.439   7.767  0.1138  0.6893 -0.4169
  703MOL0     C92689   1.314   9.322   7.829  0.2346 -0.3421 -0.1294
  703MOL0     C92690   1.182   9.281   7.790  0.4680 -0.2462 -0.6072
  703MOL0     C92691   1.127   9.170   7.856 -0.9541  0.1836  0.1078
  703MOL0     C92692   1.198   9.096   7.952 -0.8912  0.5738 -0.2129
  703MOL0     C92693   1.131   8.980   8.016 -0.2654 -0.3582 -0.3158
  703MOL0     O92694   1.207   8.895   8.093 -0.3018 -0.2725 -0.0160
  703MOL0     C92695   1.161   8.768   8.130 -0.4775 -0.7987 -0.2095
  703MOL0     C92696   1.232   8.703   8.245  0.6544 -0.1496  0.0993
  703MOL0     C92697   1.177   8.594   8.299  0.2592 -0.5459  1.0932
  703MOL0     C92698   1.063   8.529   8.242  0.6687 -0.3380 -0.4972
  703MOL0     O92699   1.016   8.408   8.296  0.1834 -0.3164 -0.6441
  703MOL0     C92700   0.879   8.410   8.344  0.2287  0.0994  0.1733
  703MOL0     C92701   0.839   8.277   8.405 -0.8048  0.2467  1.0313
  703MOL0     C92702   0.924   8.234   8.521 -0.0776 -0.6245  0.3514
  703MOL0     C92703   0.866   8.105   8.584  0.3808 -0.2916  0.6394
  703MOL0     C92704   0.922   8.080   8.722  0.5518 -0.0217 -0.7631
  703MOL0     C92705   0.910   7.935   8.768 -0.0446 -0.3939  0.7855
  703MOL0     C92706   0.986   7.907   8.894 -0.9333 -0.1124 -0.0981
  703MOL0     C92707   0.979   7.752   8.919  0.6387 -1.0685  1.0159
  703MOL0    Cl92708   1.106   7.665   8.815 -0.0636 -0.1449 -0.1528
  703MOL0     C92709   1.011   8.577   8.127  0.4227 -0.8789 -0.2382
  703MOL0     C92710   1.060   8.693   8.075 -0.2951 -1.2503  0.2175
  703MOL0     O92711   1.018   8.962   7.980  0.0384 -0.2252  0.2221
  703MOL0     C92712   1.329   9.131   7.985 -0.5072 -0.0358 -0.2147
  703MOL0     C92713   1.392   9.235   7.919 -0.2581 -0.2717  0.3414
  703MOL0     N92714   1.582   9.914   7.525  0.2628 -0.6264  0.1861
  703MOL0     N92715   1.632   9.957   7.419 -0.0930  0.1572  0.7944
  703MOL0     C92716   2.650  10.480   7.575 -0.4815  0.4398 -0.1771
  703MOL0     C92717   2.773  10.416   7.584 -0.3067  0.3074 -0.5089
  703MOL0     C92718   3.171  10.252   7.486 -0.1346  0.1037  0.0298
  703MOL0     C92719   3.208  10.222   7.617  0.2531 -0.4810  0.7925
  703MOL0     C92720   3.337  10.177   7.638  0.1176 -0.2641 -0.2623
  703MOL0     C92721   3.431  10.177   7.542 -0.7298 -0.1537  0.4562
  703MOL0     O92722   3.560  10.138   7.568  0.0808  0.6186  0.5028
  703MOL0     C92723   3.646  10.077   7.468  0.1528  0.3724  0.3044
  703MOL0     C92724   3.768  10.027   7.551  0.2612  0.0448 -0.5532
  703MOL0     C92725   3.853  10.139   7.616 -0.1499 -0.3107  0.4826
  703MOL0     C92726   3.950  10.076   7.716  0.4995 -0.2477  0.4527
  703MOL0     C92727   3.882  10.051   7.841 -1.0789 -0.2558  0.2327
  703MOL0     C92728   3.816  10.045   7.945 -0.3544  1.1344 -0.4853
  703MOL0     C92729   3.401  10.223   7.409  0.4632  0.6889  0.1374
  703MOL0     C92730   3.265  10.253   7.385  0.6566  0.4194 -0.6764
  703MOL0     H92731   2.739  10.167   7.348 -0.9837 -0.9933  0.9816
  703MOL0     H92732   2.533  10.288   7.312 -0.1198 -1.6501  0.6081
  703MOL0     H92733   2.356  10.617   7.573 -0.8785  0.0245  0.4942
  703MOL0     H92734   2.370  10.451   7.612  1.3557  0.7702  0.8282
  703MOL0     H92735   2.219  10.571   7.374  1.0660  0.2959 -0.3453
  703MOL0     H92736   2.141  10.524   7.523  1.0256 -0.2757  1.2628
  703MOL0     H92737   2.220  10.279   7.480  1.7932 -3.4883 -3.2010
  703MOL0     H92738   2.293  10.338   7.333 -0.2544 -1.4928  1.3729
  703MOL0     H92739   1.993  10.348   7.411  1.0518  0.2149 -0.2126
  703MOL0     H92740   2.046  10.385   7.249  0.7803 -2.2420 -0.6681
  703MOL0     H92741   2.168  10.157   7.257 -1.0012 -0.0467 -2.7150
  703MOL0     H92742   1.997  10.180   7.227  0.0100  1.1121 -0.0153
  703MOL0     H92743   1.941  10.113   7.453 -0.4197  1.3339 -1.1149
  703MOL0     H92744   2.116  10.073   7.495  0.4402 -2.0144 -0.8826
  703MOL0     H92745   2.070   9.935   7.256  0.6541 -2.1112  0.9609
  703MOL0     H92746   2.027   9.868   7.411 -2.6309 -1.4857 -1.3804
  703MOL0     H92747   1.849   9.856   7.239  2.3068 -0.6926  0.0724
  703MOL0     H92748   1.835  10.032   7.251  0.7014  0.7903  0.7829
  703MOL0     H92749   1.887   9.849   7.596 -0.3267  2.4950  0.2938
  703MOL0     H92750   1.548   9.865   7.796 -1.2976 -3.3421 -1.1456
  703MOL0     H92751   1.728   9.880   7.805  1.7373 -1.2825  0.4351
  703MOL0     H92752   1.661   9.666   7.879  0.7445 -0.8575 -0.3867
  703MOL0     H92753   1.717   9.634   7.711  0.8275  2.5178 -1.0760
  703MOL0     H92754   1.436   9.679   7.804  1.3508  2.4200 -1.6728
  703MOL0     H92755   1.485   9.640   7.634 -1.5921  0.8335 -0.7615
  703MOL0     H92756   1.506   9.487   7.906  2.9384 -3.3312  0.4803
  703MOL0     H92757   1.580   9.422   7.756 -1.3070 -2.2628  0.6549
  703MOL0     H92758   1.122   9.335   7.718  0.6814  0.6689 -0.1143
  703MOL0     H92759   1.023   9.150   7.831 -0.3458 -0.3931 -2.1609
  703MOL0     H92760   1.318   8.746   8.297  1.5795 -3.5673  1.6277
  703MOL0     H92761   1.220   8.561   8.393  0.9536 -1.4067  0.4926
  703MOL0     H92762   0.810   8.437   8.263  0.7844 -1.1233 -0.7237
  703MOL0     H92763   0.881   8.485   8.424  3.2442 -0.4203  0.7174
  703MOL0     H92764   0.853   8.207   8.321  1.9749  3.0792 -1.1234
  703MOL0     H92765   0.733   8.274   8.432 -0.7405 -0.8799  1.2311
  703MOL0     H92766   0.933   8.317   8.592  1.4432  0.2118 -0.7763
  703MOL0     H92767   1.025   8.210   8.488 -0.0755  0.1864 -0.2296
  703MOL0     H92768   0.758   8.119   8.584  0.3696 -0.3456  1.2268
  703MOL0     H92769   0.889   8.023   8.516  0.2461  0.8640 -0.8318
  703MOL0     H92770   0.880   8.147   8.798  1.6688 -1.8358  1.5496
  703MOL0     H92771   1.028   8.102   8.712  1.1591 -2.1740  0.4699
  703MOL0     H92772   0.962   7.882   8.689  1.2992 -0.2762  1.5623
  703MOL0     H92773   0.804   7.910   8.758 -0.4694  1.1782  0.9616
  703MOL0     H92774   1.093   7.927   8.890 -0.6770 -1.1660  0.9604
  703MOL0     H92775   0.945   7.962   8.979 -0.1298 -3.2217  2.5093
  703MOL0     H92776   0.879   7.711   8.905 -0.0116  0.7743 -0.0324
  703MOL0     H92777   1.009   7.734   9.023  3.2514 -3.3592  0.0014
  703MOL0     H92778   0.917   8.537   8.090 -0.1165  1.0168 -1.0050
  703MOL0     H92779   1.014   8.736   7.987  0.6753  0.1313  0.3536
  703MOL0     H92780   1.395   9.075   8.052  0.1846  0.1629 -0.7230
  703MOL0     H92781   1.495   9.248   7.949  0.1500  1.4067 -1.5177
  703MOL0     H92782   2.628  10.568   7.635 -0.9405 -1.8724  3.3877
  703MOL0     H92783   2.855  10.456   7.643 -0.1654  1.2936 -1.3399
  703MOL0     H92784   3.134  10.230   7.697 -1.6811  0.1892 -0.9636
  703MOL0     H92785   3.358  10.140   7.738 -0.3501  0.5730  0.1478
  703MOL0     H92786   3.667  10.153   7.393 -0.8000 -1.1239 -1.5586
  703MOL0     H92787   3.590  10.000   7.414 -1.1369  0.3697  1.5784
  703MOL0     H92788   3.728   9.970   7.635 -0.2073 -1.7377 -1.9322
  703MOL0     H92789   3.833   9.959   7.495 -0.4620 -0.2836 -1.0041
  703MOL0     H92790   3.797  10.223   7.658 -1.3014 -0.6025 -0.4275
  703MOL0     H92791   3.922  10.183   7.543  0.0711  2.1797  2.0521
  703MOL0     H92792   3.973   9.976   7.676 -4.8990 -0.0093 -4.6532
  703MOL0     H92793   4.035  10.140   7.740 -0.5739  0.2506  3.3148
  703MOL0     H92794   3.763  10.021   8.035 -2.3348 -2.2820 -2.3282
  703MOL0     H92795   3.470  10.218   7.326  1.1422  0.9694  0.6721
  703MOL0     H92796   3.237  10.271   7.282  4.2323  1.6182 -1.5848
  704MOL0     O92797   1.202   1.025   6.383 -0.3561 -0.3115 -0.0505
  704MOL0     C92798   1.210   1.031   6.268 -0.4367 -0.0864  0.7511
  704MOL0     O92799   1.333   1.040   6.198  0.0197 -0.2566  0.1738
  704MOL0     C92800   1.459   1.051   6.256 -0.2318 -0.4316  0.7536
  704MOL0     C92801   1.565   1.006   6.182 -0.1792 -0.6619  0.1805
  704MOL0     C92802   1.691   1.018   6.240  0.0486  0.2121 -0.7576
  704MOL0     C92803   1.716   1.078   6.364  0.6954  0.8521  0.1655
  704MOL0     O92804   1.847   1.098   6.404  0.2282  0.0061 -0.2717
  704MOL0     C92805   1.919   1.194   6.326  0.7276  1.0352 -0.4862
  704MOL0     C92806   2.056   1.178   6.378  0.1331 -0.2781  0.1831
  704MOL0     C92807   2.147   1.288   6.328  0.3271  0.4885 -0.1951
  704MOL0     C92808   2.292   1.265   6.374 -0.3223 -0.0832  0.5073
  704MOL0     C92809   2.368   1.390   6.367  0.0250 -1.1308 -0.0230
  704MOL0     C92810   2.384   1.466   6.237 -1.0147  0.3734  0.9338
  704MOL0     C92811   2.335   1.610   6.246  0.2176  0.1032  0.5642
  704MOL0     C92812   2.374   1.690   6.122  0.0618 -0.4961 -0.3035
  704MOL0     N92813   2.293   1.646   6.004 -0.0002  1.1300 -0.6896
  704MOL0     C92814   2.178   1.707   5.957  0.0737 -0.3520 -0.5977
  704MOL0     C92815   2.162   1.651   5.837  0.5455  0.0442 -0.6786
  704MOL0     C92816   2.047   1.686   5.750  0.6148  0.0969  1.3406
  704MOL0     C92817   2.063   1.830   5.703  0.3295  0.1641 -0.0866
  704MOL0     C92818   1.948   1.853   5.597  0.5207 -0.0199 -0.8687
  704MOL0     C92819   1.963   1.990   5.535  0.5216 -0.3552  0.7014
  704MOL0     O92820   1.862   2.089   5.578  0.2856 -0.0796 -0.2893
  704MOL0     C92821   1.730   2.064   5.540  0.9983 -0.2349 -0.5583
  704MOL0     C92822   1.683   1.992   5.429  0.5963  0.0599  0.4772
  704MOL0     C92823   1.545   1.977   5.408  0.0337 -0.1519  0.8013
  704MOL0     C92824   1.448   2.035   5.490 -0.0623 -0.1039  0.2576
  704MOL0     C92825   1.301   2.008   5.461 -0.7009 -0.1463  0.5600
  704MOL0     O92826   1.271   1.914   5.367  0.5601  0.1933 -0.2577
  704MOL0     C92827   1.147   1.861   5.363  0.7102  1.2798 -0.0008
  704MOL0     C92828   1.120   1.746   5.449 -0.7886 -0.6168  0.4466
  704MOL0     C92829   1.000   1.684   5.443  0.0547  1.3434 -0.2874
  704MOL0     C92830   0.896   1.731   5.360  0.4273 -1.2442 -0.5847
  704MOL0     O92831   0.776   1.661   5.357  0.4722 -0.7136 -0.3175
  704MOL0     C92832   0.658   1.740   5.314  0.7943  0.9625  1.0614
  704MOL0     C92833   0.543   1.644   5.288 -0.1613  0.1226 -0.2349
  704MOL0     C92834   0.414   1.724   5.253 -0.3167 -0.3585  0.1317
  704MOL0     C92835   0.305   1.625   5.211 -0.0924  0.2479 -0.3435
  704MOL0     C92836   0.168   1.687   5.181 -0.3586  0.1497  0.4479
  704MOL0     C92837   0.164   1.783   5.061 -0.8212 -0.0202  1.0141
  704MOL0     C92838   0.137   1.711   4.927  0.1903  0.1524  0.3150
  704MOL0     C92839   0.242   1.752   4.824  0.8878 -0.2758  0.4335
  704MOL0    Cl92840   0.221   1.681   4.661  0.1077  0.0150  0.9865
  704MOL0     C92841   0.926   1.844   5.280  0.3711 -0.0128 -0.3717
  704MOL0     C92842   1.046   1.912   5.287 -0.1533 -0.2330 -0.0292
  704MOL0     O92843   1.225   2.056   5.541 -0.4735  0.2259 -0.2512
  704MOL0     C92844   1.497   2.113   5.592 -0.0985 -0.6667  0.3298
  704MOL0     C92845   1.635   2.127   5.618 -0.3986  0.3011 -0.2945
  704MOL0     N92846   2.252   1.553   5.816 -0.0400  0.0802  0.0370
  704MOL0     N92847   2.336   1.553   5.908 -0.9370  0.4468 -0.9860
  704MOL0     C92848   1.608   1.110   6.443  0.7814  1.0945  0.8650
  704MOL0     C92849   1.474   1.105   6.386 -0.8157 -0.3062 -0.0258
  704MOL0     C92850   1.082   1.034   6.187 -0.3436  0.3986 -0.3104
  704MOL0     C92851   0.964   1.034   6.258 -0.0033 -0.8626  0.2191
  704MOL0     C92852   0.838   1.024   6.197  0.3958 -0.4491 -0.1281
  704MOL0     C92853   0.830   1.003   6.058 -0.1558  0.0879  0.4034
  704MOL0     O92854   0.724   0.959   5.983 -0.5311 -0.4503 -0.1401
  704MOL0     C92855   0.606   0.902   6.049 -0.5308  0.6822  0.5358
  704MOL0     C92856   0.478   0.967   6.005  0.1452  0.2947 -0.3350
  704MOL0     C92857   0.458   1.111   6.050 -0.9530 -0.1596 -0.1152
  704MOL0     C92858   0.309   1.160   6.039 -0.6678 -0.6901 -0.3720
  704MOL0     C92859   0.215   1.092   6.132 -0.3586 -0.7354 -0.0168
  704MOL0     C92860   0.115   1.063   6.195  0.0857 -0.4592  0.2752
  704MOL0     C92861   0.952   1.008   5.984  0.7937  0.5058 -0.5227
  704MOL0     C92862   1.080   1.029   6.047  0.3623 -0.1560  0.6299
  704MOL0     H92863   1.550   0.965   6.083  2.6819 -0.9418 -0.2256
  704MOL0     H92864   1.771   0.975   6.182 -1.5750 -1.0933 -2.1145
  704MOL0     H92865   1.878   1.294   6.345 -0.8572  0.5524 -1.1913
  704MOL0     H92866   1.910   1.183   6.218 -2.7511  1.3521 -0.3238
  704MOL0     H92867   2.092   1.078   6.351 -1.8101 -1.7945  2.7820
  704MOL0     H92868   2.044   1.189   6.486  1.6513  1.6482  0.2070
  704MOL0     H92869   2.100   1.379   6.367  0.4266  2.2255 -3.7124
  704MOL0     H92870   2.139   1.290   6.219 -0.0541 -1.4682 -0.2391
  704MOL0     H92871   2.292   1.221   6.474  1.9087 -1.7236 -0.1423
  704MOL0     H92872   2.346   1.189   6.317  1.1160  0.1035  1.5784
  704MOL0     H92873   2.469   1.365   6.400  0.5484 -0.6317 -1.2290
  704MOL0     H92874   2.326   1.453   6.446  0.9898 -0.7473  0.1884
  704MOL0     H92875   2.333   1.416   6.154 -0.5129  1.5423 -0.1056
  704MOL0     H92876   2.488   1.478   6.206 -0.7055 -0.7644  1.4488
  704MOL0     H92877   2.228   1.615   6.269  0.0766 -2.3562  0.6959
  704MOL0     H92878   2.390   1.653   6.329 -0.6228  3.3714 -0.4201
  704MOL0     H92879   2.482   1.681   6.107  0.7185  0.1459  3.1939
  704MOL0     H92880   2.357   1.796   6.142 -0.2450 -0.4147 -0.9440
  704MOL0     H92881   2.108   1.773   6.008  0.5224 -1.2955  1.3437
  704MOL0     H92882   1.948   1.677   5.794 -0.0748 -0.6274 -0.2560
  704MOL0     H92883   2.043   1.614   5.668 -0.4308  1.7655 -0.1582
  704MOL0     H92884   2.158   1.846   5.652  1.1408  1.5234  1.7047
  704MOL0     H92885   2.055   1.890   5.794 -4.2291  0.3544 -0.3719
  704MOL0     H92886   1.952   1.775   5.520  0.1922 -2.0560  1.0914
  704MOL0     H92887   1.849   1.843   5.643  0.7606 -1.3534 -0.6279
  704MOL0     H92888   1.969   1.973   5.427  0.2817  2.6741  0.1130
  704MOL0     H92889   2.061   2.034   5.558  0.8662  0.8769 -2.6063
  704MOL0     H92890   1.754   1.928   5.378  1.3304  2.5617 -1.9556
  704MOL0     H92891   1.508   1.926   5.320 -0.7061 -2.1390  2.1970
  704MOL0     H92892   1.203   1.711   5.509 -0.3265 -0.7126 -0.2385
  704MOL0     H92893   0.972   1.598   5.502  0.0588  0.7369 -1.1496
  704MOL0     H92894   0.681   1.790   5.220 -2.6737  2.4687  0.8631
  704MOL0     H92895   0.633   1.814   5.391 -1.0845  0.4027  1.0339
  704MOL0     H92896   0.531   1.600   5.387  0.6835 -0.6831 -0.4828
  704MOL0     H92897   0.561   1.567   5.213  4.0155  1.6645 -1.0557
  704MOL0     H92898   0.423   1.803   5.177 -2.5016  0.0935  0.2905
  704MOL0     H92899   0.385   1.780   5.341  0.8482 -0.2849  0.4911
  704MOL0     H92900   0.327   1.572   5.118 -0.4456 -2.6712  1.1023
  704MOL0     H92901   0.287   1.545   5.284 -0.8877 -0.1813 -0.9953
  704MOL0     H92902   0.134   1.751   5.263  2.1965  1.0437  0.9178
  704MOL0     H92903   0.104   1.600   5.168  0.8527 -1.1505  2.5281
  704MOL0     H92904   0.258   1.839   5.053 -0.6794 -0.5763 -2.4354
  704MOL0     H92905   0.080   1.848   5.087 -1.6702 -0.6909  0.0022
  704MOL0     H92906   0.127   1.602   4.936 -3.0317  0.2669 -0.5413
  704MOL0     H92907   0.039   1.748   4.895  1.0553  1.4767 -0.9584
  704MOL0     H92908   0.341   1.732   4.864  0.2775 -0.0114  2.1408
  704MOL0     H92909   0.246   1.860   4.803  3.6593 -0.6238 -1.3728
  704MOL0     H92910   0.849   1.885   5.215  0.1966  1.0582  0.4803
  704MOL0     H92911   1.066   1.997   5.223 -1.7580  0.1473 -0.0666
  704MOL0     H92912   1.432   2.169   5.658  0.7940  0.8419 -0.0096
  704MOL0     H92913   1.680   2.195   5.690  1.7421  0.8993 -2.0825
  704MOL0     H92914   1.615   1.140   6.547 -0.4102 -0.5310  1.4559
  704MOL0     H92915   1.385   1.138   6.438 -1.6458  0.2884 -1.7218
  704MOL0     H92916   0.967   1.058   6.364 -2.5661 -0.2561  0.2141
  704MOL0     H92917   0.755   1.012   6.266  2.5785 -4.5421  2.1743
  704MOL0     H92918   0.614   0.879   6.156 -0.1609 -0.8852  0.1935
  704MOL0     H92919   0.616   0.805   6.001  1.0795  0.3189  1.5244
  704MOL0     H92920   0.492   0.973   5.896  0.0828  0.3059 -0.3427
  704MOL0     H92921   0.391   0.904   6.026  2.0056 -2.1513  0.5232
  704MOL0     H92922   0.519   1.181   5.993 -0.1182 -0.2623  0.6239
  704MOL0     H92923   0.484   1.123   6.156 -0.9320  1.5868 -0.2761
  704MOL0     H92924   0.309   1.265   6.069  0.3076 -1.3846  2.4230
  704MOL0     H92925   0.281   1.173   5.934 -0.1654  0.9898 -0.3255
  704MOL0     H92926   0.027   1.046   6.255 -0.5372  0.2203 -0.4311
  704MOL0     H92927   0.959   0.987   5.878  4.0118  1.6680 -0.6632
  704MOL0     H92928   1.169   1.038   5.985  0.0040  0.7486  0.2159
  705MOL0     O92929   5.663   0.896   4.661  0.5911 -0.5881 -0.2651
  705MOL0     C92930   5.656   0.771   4.649  0.4089  0.2572  0.3265
  705MOL0     O92931   5.542   0.693   4.632  0.5436  0.1162  0.4669
  705MOL0     C92932   5.418   0.760   4.639 -0.1285 -0.4879  0.4261
  705MOL0     C92933   5.371   0.858   4.736 -0.3669  0.4041  0.2374
  705MOL0     C92934   5.230   0.875   4.737  0.2430 -1.2270  0.0044
  705MOL0     C92935   5.134   0.825   4.653  0.3035 -0.0189  0.1006
  705MOL0     O92936   4.997   0.824   4.670 -0.6634  0.3867  0.0079
  705MOL0     C92937   4.938   0.934   4.734 -0.3520 -0.4088 -0.1075
  705MOL0     C92938   4.787   0.934   4.729  0.5977  0.0064  0.7868
  705MOL0     C92939   4.712   0.883   4.850  0.2028 -0.6606 -1.0745
  705MOL0     C92940   4.738   0.734   4.881  0.5128  0.0935  0.7036
  705MOL0     C92941   4.662   0.701   5.010 -0.7816  0.5986  0.6296
  705MOL0     C92942   4.657   0.543   5.021 -0.6938  0.0644  0.6478
  705MOL0     C92943   4.584   0.492   5.154  0.3212  0.0283 -0.2111
  705MOL0     C92944   4.556   0.348   5.156  0.4484 -0.5209 -0.1956
  705MOL0     N92945   4.447   0.309   5.060 -0.4346 -0.0969  0.2472
  705MOL0     C92946   4.320   0.359   5.063  0.1134 -0.0832 -0.2618
  705MOL0     C92947   4.243   0.283   4.981 -0.0348 -0.0228  0.4494
  705MOL0     C92948   4.099   0.301   4.940  0.5289  0.4707  0.2246
  705MOL0     C92949   4.043   0.187   4.846 -0.0854  0.2264  1.0823
  705MOL0     C92950   3.898   0.204   4.807 -0.4364  0.1720  0.6104
  705MOL0     C92951   3.796   0.152   4.920  0.2702  0.0451  0.2320
  705MOL0     O92952   3.796   0.008   4.936 -0.4083 -0.5977 -0.5567
  705MOL0     C92953   3.689  -0.046   5.002  0.8772  0.2902  0.1769
  705MOL0     C92954   3.702  -0.177   5.038 -0.0056  0.4717 -0.0180
  705MOL0     C92955   3.599  -0.253   5.082  0.6051  0.4276  0.3685
  705MOL0     C92956   3.472  -0.199   5.112 -0.1952  0.6833 -0.2933
  705MOL0     C92957   3.372  -0.289   5.174  0.3856  0.4878 -0.4056
  705MOL0     O92958   3.289  -0.221   5.254  0.0322  0.4105  0.7808
  705MOL0     C92959   3.179  -0.273   5.317 -0.7474 -0.4007 -0.5550
  705MOL0     C92960   3.108  -0.177   5.397 -0.0652 -0.3719  0.7162
  705MOL0     C92961   2.994  -0.216   5.457  0.3606  0.0597  0.5400
  705MOL0     C92962   2.932  -0.347   5.448  0.5154  0.7574  0.6659
  705MOL0     O92963   2.829  -0.388   5.521 -0.3275  0.3219 -0.1873
  705MOL0     C92964   2.717  -0.303   5.535 -0.3846  0.0233  1.0270
  705MOL0     C92965   2.591  -0.375   5.585 -0.6414  0.4157 -0.4090
  705MOL0     C92966   2.517  -0.451   5.475 -0.3180 -0.7568  0.3370
  705MOL0     C92967   2.376  -0.499   5.524 -0.3016 -0.1425 -0.2087
  705MOL0     C92968   2.314  -0.584   5.417 -0.9723  0.2583  0.1128
  705MOL0     C92969   2.166  -0.613   5.453 -0.0463  0.5017  0.3326
  705MOL0     C92970   2.085  -0.486   5.467  0.0692  0.1081  0.0489
  705MOL0     C92971   1.949  -0.522   5.516  0.1185 -0.1490  0.0336
  705MOL0    Cl92972   1.935  -0.528   5.701  0.4765  0.1359 -0.0763
  705MOL0     C92973   3.007  -0.442   5.375  0.3655  0.1366  0.0606
  705MOL0     C92974   3.124  -0.402   5.310 -0.4241 -0.3659  0.1572
  705MOL0     O92975   3.383  -0.410   5.170  0.5693  0.6473  0.1633
  705MOL0     C92976   3.454  -0.059   5.081 -0.0296  0.6713 -0.9184
  705MOL0     C92977   3.564   0.017   5.024  0.0515  0.2017 -0.0525
  705MOL0     N92978   4.323   0.185   4.934 -0.1175  0.8548 -0.1620
  705MOL0     N92979   4.443   0.197   4.981 -0.4554  0.0657  0.8509
  705MOL0     C92980   5.175   0.729   4.567 -0.6490  0.2742 -0.8218
  705MOL0     C92981   5.315   0.691   4.570  0.4324  0.5497  0.2616
  705MOL0     C92982   5.784   0.707   4.646  0.0711 -0.0192  0.5893
  705MOL0     C92983   5.788   0.567   4.627 -0.2570 -0.4359  0.5490
  705MOL0     C92984   5.914   0.503   4.616  0.4221  0.6564  0.2453
  705MOL0     C92985   6.035   0.568   4.617 -0.3502 -0.2469 -1.1137
  705MOL0     O92986   6.154   0.494   4.601  0.1361 -0.0519  0.1945
  705MOL0     C92987   6.285   0.559   4.586 -0.9383 -0.0314 -0.0132
  705MOL0     C92988   6.382   0.455   4.533 -0.7676 -0.9120  0.5035
  705MOL0     C92989   6.420   0.336   4.621 -0.1800  0.9841 -0.2042
  705MOL0     C92990   6.551   0.283   4.573 -0.9224  0.0893 -0.5821
  705MOL0     C92991   6.617   0.196   4.675  0.4400  0.8076 -0.0647
  705MOL0     C92992   6.662   0.126   4.758  0.0883  0.5249 -0.6296
  705MOL0     C92993   6.030   0.705   4.640  0.6992  0.2661 -0.4060
  705MOL0     C92994   5.910   0.770   4.655 -0.0820 -0.1643 -0.1867
  705MOL0     H92995   5.442   0.898   4.806 -0.1831 -0.8295  0.7911
  705MOL0     H92996   5.207   0.919   4.834  0.6404 -0.3555 -0.2931
  705MOL0     H92997   4.967   1.017   4.669 -0.1808 -2.0293 -2.1825
  705MOL0     H92998   4.971   0.936   4.838 -0.4325 -1.0824 -0.0678
  705MOL0     H92999   4.747   0.872   4.648  0.0319  1.7213 -0.2961
  705MOL0     H93000   4.748   1.035   4.716 -1.5202 -0.9727 -1.0737
  705MOL0     H93001   4.605   0.906   4.848  0.1703 -0.8513 -1.9591
  705MOL0     H93002   4.753   0.943   4.932 -0.8322  1.5723 -2.1210
  705MOL0     H93003   4.700   0.678   4.795 -1.7590 -4.1263  4.0199
  705MOL0     H93004   4.842   0.704   4.896 -0.3184 -3.5705  0.0825
  705MOL0     H93005   4.558   0.733   5.006 -1.4762 -1.6567 -1.4369
  705MOL0     H93006   4.715   0.747   5.094  1.3761 -0.1732 -0.2365
  705MOL0     H93007   4.761   0.510   5.018 -0.6751  0.1510  0.3068
  705MOL0     H93008   4.613   0.493   4.934 -2.9671  1.4465  0.9131
  705MOL0     H93009   4.645   0.516   5.242 -0.8094  1.0601  0.3084
  705MOL0     H93010   4.485   0.535   5.168 -0.1105 -0.9726 -0.1347
  705MOL0     H93011   4.526   0.314   5.256 -1.8044  0.2904 -0.5418
  705MOL0     H93012   4.647   0.294   5.128  0.3819 -1.6192  1.4992
  705MOL0     H93013   4.295   0.450   5.117  1.1803 -0.0980  0.2873
  705MOL0     H93014   4.090   0.398   4.891  0.3554  0.8453  0.9706
  705MOL0     H93015   4.056   0.293   5.040  0.4783  1.5855  0.3137
  705MOL0     H93016   4.051   0.084   4.880  2.1186 -1.4155 -3.6187
  705MOL0     H93017   4.103   0.179   4.755 -1.9443 -2.1338 -0.0400
  705MOL0     H93018   3.879   0.308   4.778  2.5603  0.1550 -1.9342
  705MOL0     H93019   3.873   0.136   4.725  1.9133  0.0242 -0.0645
  705MOL0     H93020   3.699   0.190   4.887  0.4892 -1.0134 -1.7729
  705MOL0     H93021   3.828   0.202   5.012  0.9134 -2.2150  1.2966
  705MOL0     H93022   3.801  -0.221   5.040 -0.6220 -1.0045 -0.1103
  705MOL0     H93023   3.606  -0.358   5.108  0.5114  0.2668 -0.2333
  705MOL0     H93024   3.151  -0.078   5.394  1.4881 -1.0371  0.4096
  705MOL0     H93025   2.932  -0.150   5.517  1.5405  0.4731  1.3478
  705MOL0     H93026   2.693  -0.258   5.438 -1.1241 -1.0783  0.6707
  705MOL0     H93027   2.740  -0.224   5.606  2.4055  1.7321 -1.5478
  705MOL0     H93028   2.528  -0.297   5.630  1.7478  1.0597  2.1205
  705MOL0     H93029   2.618  -0.447   5.663 -1.1546  1.3993  0.7115
  705MOL0     H93030   2.594  -0.518   5.435  2.3893  0.8086  2.5527
  705MOL0     H93031   2.497  -0.383   5.392 -1.2019  0.6659  1.6761
  705MOL0     H93032   2.386  -0.550   5.621 -1.1748 -1.0092 -0.5607
  705MOL0     H93033   2.320  -0.407   5.540  0.5103  0.2538  0.4278
  705MOL0     H93034   2.359  -0.683   5.406 -2.4377 -0.3777 -0.4904
  705MOL0     H93035   2.309  -0.532   5.321  0.4577 -0.4576 -0.3905
  705MOL0     H93036   2.165  -0.670   5.547  0.3745  0.0688  0.0797
  705MOL0     H93037   2.116  -0.677   5.380  1.0788 -1.0287  0.8366
  705MOL0     H93038   2.129  -0.423   5.545 -2.5621 -0.0606  1.8127
  705MOL0     H93039   2.080  -0.441   5.368 -2.6995 -0.0205  0.0422
  705MOL0     H93040   1.926  -0.616   5.463  3.4881 -0.3138 -1.4077
  705MOL0     H93041   1.878  -0.447   5.481 -0.9401  0.8240  3.8718
  705MOL0     H93042   2.973  -0.545   5.369  0.5425  0.1526 -1.6703
  705MOL0     H93043   3.168  -0.486   5.257 -2.0412 -1.3664  0.3542
  705MOL0     H93044   3.353  -0.019   5.090  0.2215  0.8920  1.6515
  705MOL0     H93045   3.540   0.113   4.979  1.0467 -0.2271 -1.5763
  705MOL0     H93046   5.103   0.689   4.496 -0.4276 -1.3886 -0.1657
  705MOL0     H93047   5.342   0.603   4.512 -0.6316 -0.5875  1.4402
  705MOL0     H93048   5.697   0.508   4.625  0.9877 -2.4484  0.6094
  705MOL0     H93049   5.925   0.396   4.601  3.6860  0.7774  0.9629
  705MOL0     H93050   6.319   0.593   4.685 -0.8893 -1.1638  0.3704
  705MOL0     H93051   6.281   0.637   4.510  1.6341 -1.8717 -2.2141
  705MOL0     H93052   6.344   0.408   4.442  0.6837 -1.8334  0.3422
  705MOL0     H93053   6.472   0.509   4.503 -1.8606 -0.4741 -2.3566
  705MOL0     H93054   6.339   0.263   4.611 -0.7182  1.7655 -1.8263
  705MOL0     H93055   6.420   0.373   4.724  0.4226  0.5652 -0.0455
  705MOL0     H93056   6.531   0.233   4.477  5.0215  1.3661 -2.9397
  705MOL0     H93057   6.625   0.359   4.544 -2.0993  0.3369 -3.3114
  705MOL0     H93058   6.699   0.051   4.824  2.0279  1.6512 -0.3553
  705MOL0     H93059   6.120   0.765   4.633  1.2197 -0.5444 -0.8271
  705MOL0     H93060   5.916   0.878   4.666 -0.9633  0.0245 -1.3391
  706MOL0     O93061   3.102   5.213   1.567  0.0856 -0.7438 -0.0569
  706MOL0     C93062   3.126   5.216   1.450  0.4573 -0.5965  1.5625
  706MOL0     O93063   3.032   5.213   1.349 -0.5900  0.6988 -0.6360
  706MOL0     C93064   2.906   5.179   1.376  0.2251 -0.0544 -0.9381
  706MOL0     C93065   2.863   5.064   1.447 -0.0147 -0.2892 -0.6520
  706MOL0     C93066   2.733   5.020   1.464  0.2458  0.4566 -0.3472
  706MOL0     C93067   2.631   5.095   1.422 -0.2722 -0.9863  0.8730
  706MOL0     O93068   2.502   5.045   1.445  0.4729 -0.2974  1.3431
  706MOL0     C93069   2.390   5.094   1.363  0.1908 -1.2003 -0.3899
  706MOL0     C93070   2.269   5.023   1.407  0.3084  0.1055  0.2251
  706MOL0     C93071   2.233   5.033   1.561 -0.4484  0.8522  0.3059
  706MOL0     C93072   2.167   5.164   1.597  0.4115 -0.0453  0.5956
  706MOL0     C93073   2.131   5.180   1.749  0.0706  0.0809 -0.6345
  706MOL0     C93074   2.029   5.073   1.798  0.0569 -0.5230  0.0171
  706MOL0     C93075   1.989   5.084   1.942 -0.2474  0.6072 -0.3635
  706MOL0     C93076   1.872   5.182   1.959 -1.2216 -0.1349  0.4281
  706MOL0     N93077   1.742   5.119   1.926  0.0839  0.4082 -0.0229
  706MOL0     C93078   1.669   5.132   1.807  0.0565 -0.8339 -0.3625
  706MOL0     C93079   1.547   5.085   1.847  0.0237 -0.4145  0.2359
  706MOL0     C93080   1.421   5.076   1.766 -0.9452 -0.6764 -0.0208
  706MOL0     C93081   1.361   5.205   1.751  0.5647 -0.2939 -1.1764
  706MOL0     C93082   1.222   5.193   1.696  0.3424  0.1367  0.2654
  706MOL0     C93083   1.132   5.318   1.687  0.5435 -0.5616  0.4696
  706MOL0     O93084   0.998   5.276   1.664 -1.5432  0.1914 -0.3559
  706MOL0     C93085   0.913   5.370   1.623  0.1821 -0.0627 -0.3597
  706MOL0     C93086   0.921   5.505   1.651 -0.1510  0.2676  0.3019
  706MOL0     C93087   0.827   5.590   1.602 -0.3544 -0.2159 -0.3816
  706MOL0     C93088   0.715   5.549   1.529 -0.6105 -0.4470  1.0225
  706MOL0     C93089   0.611   5.635   1.480  0.7773 -0.2082 -0.4793
  706MOL0     O93090   0.515   5.574   1.393  0.1555 -0.3889 -0.3027
  706MOL0     C93091   0.437   5.662   1.329 -0.6448  0.1278 -0.0102
  706MOL0     C93092   0.452   5.699   1.196  0.2426 -0.2099  0.3228
  706MOL0     C93093   0.357   5.783   1.127 -0.3060 -0.1040 -0.8658
  706MOL0     C93094   0.248   5.833   1.201 -0.0928 -0.6087 -0.1894
  706MOL0     O93095   0.168   5.922   1.136 -0.3363 -0.2983 -0.3634
  706MOL0     C93096   0.023   5.910   1.142  0.1414 -0.0696  0.7773
  706MOL0     C93097  -0.025   6.045   1.210 -0.2447 -0.9056  0.6632
  706MOL0     C93098  -0.173   6.076   1.185  0.0642 -0.4790  0.7682
  706MOL0     C93099  -0.216   6.097   1.041 -0.3310 -0.5682  0.1824
  706MOL0     C93100  -0.127   6.198   0.963  0.5452  0.5540 -0.1523
  706MOL0     C93101  -0.175   6.202   0.817  0.4695 -0.2718  0.0365
  706MOL0     C93102  -0.322   6.262   0.815  0.3229  0.2190 -0.3090
  706MOL0     C93103  -0.343   6.299   0.669 -0.0013 -0.0824  0.5208
  706MOL0    Cl93104  -0.506   6.384   0.631 -0.0757  0.3067  0.0465
  706MOL0     C93105   0.225   5.790   1.334  0.0492 -0.0470 -0.5875
  706MOL0     C93106   0.324   5.704   1.399  0.4396  0.2185  0.7413
  706MOL0     O93107   0.622   5.753   1.503 -0.5766 -0.6720  0.1084
  706MOL0     C93108   0.716   5.408   1.495  0.7243  0.1114  0.0684
  706MOL0     C93109   0.811   5.325   1.541 -0.2696  0.4113  0.3242
  706MOL0     N93110   1.545   5.054   1.985 -0.7697 -0.0561  0.2601
  706MOL0     N93111   1.659   5.076   2.024  0.4408 -0.2733  0.6113
  706MOL0     C93112   2.659   5.219   1.350  0.5507 -0.0849  0.3243
  706MOL0     C93113   2.796   5.258   1.333 -0.1010  0.2987 -0.5260
  706MOL0     C93114   3.270   5.223   1.417  0.1373  0.1073  0.1361
  706MOL0     C93115   3.373   5.176   1.499  1.0873 -0.1373 -0.0358
  706MOL0     C93116   3.498   5.167   1.456 -0.8748 -0.7755 -0.4788
  706MOL0     C93117   3.542   5.221   1.337  0.4087  0.3617 -0.1232
  706MOL0     O93118   3.670   5.211   1.297 -0.5885  0.2416  0.1517
  706MOL0     C93119   3.780   5.221   1.384 -0.0533 -0.7629 -0.5014
  706MOL0     C93120   3.912   5.200   1.321  0.3081 -0.1682 -0.0872
  706MOL0     C93121   4.025   5.251   1.406  0.0502 -1.1799 -0.9754
  706MOL0     C93122   4.175   5.208   1.368  0.1576  0.5286 -0.3295
  706MOL0     C93123   4.265   5.264   1.472  0.5492  1.1666  0.1204
  706MOL0     C93124   4.324   5.315   1.560 -0.6089  0.0056 -0.4857
  706MOL0     C93125   3.442   5.278   1.259 -0.1448  0.7342 -0.2807
  706MOL0     C93126   3.308   5.269   1.292 -0.5841 -0.6961 -0.4987
  706MOL0     H93127   2.940   5.000   1.489  0.2752  0.5201  0.0931
  706MOL0     H93128   2.724   4.924   1.513 -1.8961 -0.4602 -2.3332
  706MOL0     H93129   2.405   5.081   1.255  0.4180  1.6284 -0.7674
  706MOL0     H93130   2.386   5.203   1.375  0.0858 -1.4507  2.5991
  706MOL0     H93131   2.282   4.919   1.376  0.1301  0.2011 -0.1802
  706MOL0     H93132   2.190   5.065   1.344  1.6011 -2.0579 -3.1442
  706MOL0     H93133   2.321   5.020   1.624 -0.8161 -3.4621  0.2948
  706MOL0     H93134   2.167   4.949   1.584 -0.3854  0.6121 -0.3610
  706MOL0     H93135   2.224   5.254   1.571 -0.8354  0.6721  0.2638
  706MOL0     H93136   2.074   5.170   1.541  0.3069 -1.1389  0.6206
  706MOL0     H93137   2.074   5.272   1.771 -0.8038 -0.5204 -0.3081
  706MOL0     H93138   2.219   5.187   1.812  0.5801 -1.0437 -1.2031
  706MOL0     H93139   2.078   4.976   1.786 -0.5702 -0.6606 -1.6348
  706MOL0     H93140   1.934   5.071   1.743  0.6329  0.0315 -1.0369
  706MOL0     H93141   1.969   4.986   1.986  1.6139  0.5172  0.4116
  706MOL0     H93142   2.081   5.116   1.992  0.1487  1.9657 -1.8555
  706MOL0     H93143   1.897   5.271   1.901  0.2211 -2.4867 -2.8174
  706MOL0     H93144   1.851   5.212   2.062 -3.1319  1.6293 -0.3843
  706MOL0     H93145   1.704   5.171   1.712 -0.5399 -0.6137 -0.4932
  706MOL0     H93146   1.360   5.002   1.819  0.7407 -0.9361  1.6583
  706MOL0     H93147   1.451   5.037   1.669 -1.6333  2.1353 -1.4664
  706MOL0     H93148   1.430   5.272   1.698  0.7361  0.0897 -0.4841
  706MOL0     H93149   1.342   5.246   1.851 -5.0068  1.4903 -2.5776
  706MOL0     H93150   1.225   5.150   1.595 -0.0660  0.1443  0.2493
  706MOL0     H93151   1.166   5.125   1.761  1.0702 -0.2151  0.5442
  706MOL0     H93152   1.164   5.389   1.610 -0.8953  1.3304  1.5269
  706MOL0     H93153   1.136   5.372   1.782  1.7817 -1.1982  0.8079
  706MOL0     H93154   1.010   5.542   1.701  0.9693  1.7907 -2.5989
  706MOL0     H93155   0.828   5.693   1.635 -2.0883 -0.2827 -0.0423
  706MOL0     H93156   0.531   5.656   1.135  1.1465 -1.7002  2.3750
  706MOL0     H93157   0.389   5.814   1.028  2.0653 -2.2506 -0.8569
  706MOL0     H93158  -0.014   5.823   1.196 -0.2059 -1.6307 -1.8097
  706MOL0     H93159  -0.024   5.897   1.044  0.3653 -2.2475  0.9212
  706MOL0     H93160   0.049   6.123   1.189  0.1254 -1.2987  0.4930
  706MOL0     H93161  -0.008   6.026   1.316  1.4350  1.9669  1.0274
  706MOL0     H93162  -0.198   6.162   1.249 -0.8624 -0.1008 -0.0758
  706MOL0     H93163  -0.230   5.995   1.232  1.7582 -2.0473  0.2172
  706MOL0     H93164  -0.221   6.004   0.984  0.0558 -0.5944  0.1884
  706MOL0     H93165  -0.313   6.144   1.057 -0.0439  0.1743 -0.2201
  706MOL0     H93166  -0.027   6.155   0.961  0.1091 -0.4338 -1.4306
  706MOL0     H93167  -0.121   6.294   1.017  2.1849 -0.4709  1.6219
  706MOL0     H93168  -0.177   6.100   0.777 -2.2505 -0.3115  0.1482
  706MOL0     H93169  -0.104   6.262   0.759 -1.6616  1.5319 -0.8186
  706MOL0     H93170  -0.397   6.186   0.840  0.6965 -0.5009 -1.2928
  706MOL0     H93171  -0.338   6.354   0.872  0.0962 -0.5059  0.8278
  706MOL0     H93172  -0.344   6.210   0.605  3.8381  0.2671 -0.2643
  706MOL0     H93173  -0.265   6.368   0.638 -1.0518  1.4762  1.2180
  706MOL0     H93174   0.137   5.836   1.378 -1.0236 -1.3217 -1.3022
  706MOL0     H93175   0.320   5.674   1.504  0.1763  1.0318  0.9720
  706MOL0     H93176   0.641   5.353   1.439  2.9940 -2.2083 -0.9224
  706MOL0     H93177   0.809   5.218   1.522  0.7435  0.0466  2.0120
  706MOL0     H93178   2.572   5.265   1.303  0.3306 -0.2093  0.6062
  706MOL0     H93179   2.802   5.356   1.287  2.0185  1.1816  1.4372
  706MOL0     H93180   3.341   5.143   1.598 -1.0263 -0.0884 -0.6550
  706MOL0     H93181   3.570   5.116   1.519 -2.6679 -1.5227  1.0258
  706MOL0     H93182   3.771   5.150   1.467 -3.7467 -0.7117 -0.7056
  706MOL0     H93183   3.776   5.319   1.430 -0.3671 -1.7693  1.7374
  706MOL0     H93184   3.943   5.098   1.297  0.7743 -0.1587  0.4310
  706MOL0     H93185   3.917   5.255   1.227 -1.5791  0.5737  0.1879
  706MOL0     H93186   4.009   5.207   1.505 -2.2308  2.0838  0.2445
  706MOL0     H93187   4.008   5.358   1.420  2.9846 -0.7154 -0.2389
  706MOL0     H93188   4.194   5.100   1.364 -0.4965  0.3152  1.3817
  706MOL0     H93189   4.191   5.246   1.267  1.5932 -1.0007 -0.7223
  706MOL0     H93190   4.378   5.357   1.643 -2.4567 -0.2540  0.9330
  706MOL0     H93191   3.482   5.291   1.159  0.4874  0.7889 -0.0205
  706MOL0     H93192   3.237   5.321   1.228  1.3899 -0.4855 -2.6639
  707MOL0     O93193  10.400   6.092  10.695  0.4894 -0.2865  0.2605
  707MOL0     C93194  10.449   6.111  10.589 -0.1952 -0.6309  0.6729
  707MOL0     O93195  10.388   6.170  10.476  0.4077  0.2431 -0.4539
  707MOL0     C93196  10.264   6.224  10.482  0.5099  0.9654 -0.5457
  707MOL0     C93197  10.196   6.226  10.355  0.0786  0.8685 -0.2858
  707MOL0     C93198  10.074   6.282  10.344 -0.1811 -0.4778 -0.3533
  707MOL0     C93199  10.005   6.328  10.456 -0.1713 -0.3389  0.5787
  707MOL0     O93200   9.882   6.397  10.453  0.7607 -0.3470 -0.4315
  707MOL0     C93201   9.795   6.363  10.341  0.0559 -0.0564 -0.4317
  707MOL0     C93202   9.648   6.399  10.380 -1.2983  0.7514  0.2781
  707MOL0     C93203   9.541   6.357  10.267 -0.9102 -1.1733 -0.2776
  707MOL0     C93204   9.406   6.338  10.334  0.3719 -0.4621  0.1101
  707MOL0     C93205   9.286   6.353  10.245 -0.3946  0.1091  0.5535
  707MOL0     C93206   9.158   6.340  10.329  0.3558 -0.6501 -0.2081
  707MOL0     C93207   9.040   6.346  10.239  0.6052  0.0318  0.0432
  707MOL0     C93208   9.049   6.256  10.117 -0.3147 -0.4364 -0.1677
  707MOL0     N93209   8.925   6.258  10.040 -0.4085  0.8784  0.3143
  707MOL0     C93210   8.831   6.161  10.034 -0.0969 -0.1486 -0.7545
  707MOL0     C93211   8.724   6.223   9.989 -0.4706  0.6842  0.0418
  707MOL0     C93212   8.599   6.140   9.957  0.4725  0.1623  0.4612
  707MOL0     C93213   8.471   6.219   9.936 -0.0157 -0.3768  0.1536
  707MOL0     C93214   8.395   6.269  10.064  0.5078 -0.0057 -0.6568
  707MOL0     C93215   8.275   6.356  10.024 -0.0568 -0.7072 -0.0244
  707MOL0     O93216   8.178   6.340  10.126 -0.1554 -0.3664 -0.3792
  707MOL0     C93217   8.063   6.405  10.129 -0.1722  0.1727  1.1491
  707MOL0     C93218   7.962   6.359  10.213 -0.6336 -0.2437 -0.3070
  707MOL0     C93219   7.847   6.431  10.223 -0.5485  0.3526 -0.1831
  707MOL0     C93220   7.818   6.552  10.152 -0.3828  0.6933 -0.2054
  707MOL0     C93221   7.684   6.621  10.167  0.3755 -0.2257  0.6310
  707MOL0     O93222   7.647   6.712  10.068  0.2849  1.0010 -0.1096
  707MOL0     C93223   7.521   6.772  10.065 -0.0465  0.6788  1.1008
  707MOL0     C93224   7.506   6.901  10.006  0.2814  0.2509 -0.4967
  707MOL0     C93225   7.377   6.955   9.992 -0.0188 -0.4071  0.6342
  707MOL0     C93226   7.268   6.877  10.013  0.4757 -0.8408  0.2236
  707MOL0     O93227   7.139   6.928   9.983  0.0661 -0.3883  0.2741
  707MOL0     C93228   7.080   6.998  10.095 -1.5349 -0.2481  0.2163
  707MOL0     C93229   6.936   6.961  10.101  0.1910 -0.2820  0.1224
  707MOL0     C93230   6.887   6.947  10.243 -0.4191 -0.2378  0.6165
  707MOL0     C93231   6.737   6.903  10.235  0.2463 -0.2560 -0.8215
  707MOL0     C93232   6.700   6.885  10.381  0.0745  0.3045  0.1631
  707MOL0     C93233   6.551   6.839  10.395 -0.4779  0.6669 -0.2684
  707MOL0     C93234   6.530   6.689  10.425 -0.0108 -0.1746  0.4387
  707MOL0     C93235   6.585   6.655  10.570  0.6443 -0.6672 -0.6601
  707MOL0    Cl93236   6.466   6.691  10.690 -0.1320 -0.2092 -0.2116
  707MOL0     C93237   7.277   6.746  10.053 -0.2829  0.9387  0.1126
  707MOL0     C93238   7.403   6.696  10.082 -0.3167  0.5637  0.9612
  707MOL0     O93239   7.622   6.598  10.272 -0.5103 -0.1749  0.4661
  707MOL0     C93240   7.915   6.598  10.063  0.7063 -0.1309  0.0138
  707MOL0     C93241   8.036   6.522  10.048  0.5614 -0.4112 -0.5167
  707MOL0     N93242   8.750   6.349   9.955 -0.1444 -0.6287 -0.2305
  707MOL0     N93243   8.869   6.378   9.997 -0.2255 -0.2579 -0.4217
  707MOL0     C93244  10.061   6.319  10.582 -0.5139  0.0375 -0.1450
  707MOL0     C93245  10.196   6.275  10.596 -0.0507  0.6499  1.0084
  707MOL0     C93246  10.579   6.049  10.569 -0.8026  0.0153  0.3530
  707MOL0     C93247  10.614   5.929  10.624 -0.0858  0.1032  0.3889
  707MOL0     C93248  10.742   5.873  10.595  0.2202  0.2386  0.9863
  707MOL0     C93249  10.830   5.949  10.538  0.0626  0.3568  0.7248
  707MOL0     O93250  10.960   5.912  10.558 -0.5212 -0.0095  0.6906
  707MOL0     C93251  11.075   5.981  10.501  0.4517 -0.1396 -0.5614
  707MOL0     C93252  11.162   5.888  10.410 -0.6641  0.3838  0.1208
  707MOL0     C93253  11.316   5.886  10.417  0.1914 -0.4497 -0.2940
  707MOL0     C93254  11.375   5.790  10.518  0.6400  0.5891 -0.5182
  707MOL0     C93255  11.283   5.770  10.634 -0.5034 -1.4316  0.0900
  707MOL0     C93256  11.234   5.773  10.742  0.1206 -0.5629  0.3116
  707MOL0     C93257  10.792   6.072  10.476  0.2486 -0.1681 -0.3805
  707MOL0     C93258  10.669   6.120  10.489  0.8987  0.1710 -0.3999
  707MOL0     H93259  10.255   6.191  10.270  0.7601 -0.1684  0.5967
  707MOL0     H93260  10.039   6.303  10.244 -1.1624  2.3920  0.4902
  707MOL0     H93261   9.811   6.260  10.310  0.7698  0.1285 -0.6928
  707MOL0     H93262   9.825   6.415  10.250 -2.4760 -0.4023 -1.5397
  707MOL0     H93263   9.643   6.508  10.393  0.4236  0.9691 -0.5315
  707MOL0     H93264   9.630   6.343  10.472  0.3385 -1.0884 -0.4508
  707MOL0     H93265   9.563   6.261  10.220 -2.1956 -1.1030 -1.0987
  707MOL0     H93266   9.531   6.435  10.191  1.7915  0.1796  0.6267
  707MOL0     H93267   9.400   6.243  10.386  0.2031 -0.0725  0.8142
  707MOL0     H93268   9.396   6.416  10.410 -0.5746  0.4068 -0.8691
  707MOL0     H93269   9.282   6.274  10.170 -0.7087 -0.4494  1.1468
  707MOL0     H93270   9.292   6.448  10.191  0.0041 -0.8327 -1.1099
  707MOL0     H93271   9.157   6.416  10.408  0.7877 -0.9526  0.0899
  707MOL0     H93272   9.164   6.247  10.385 -0.3782  0.9040  2.6149
  707MOL0     H93273   8.948   6.328  10.295  0.3505 -0.6148 -0.5633
  707MOL0     H93274   9.035   6.447  10.197 -0.5217 -0.2409 -0.5319
  707MOL0     H93275   9.074   6.155  10.152  0.0515 -0.4377 -0.4277
  707MOL0     H93276   9.131   6.286  10.051 -0.1964  0.6958  0.4828
  707MOL0     H93277   8.849   6.064  10.078  0.6740  0.0900 -0.5185
  707MOL0     H93278   8.585   6.058  10.027 -0.9988  0.9299  1.1108
  707MOL0     H93279   8.621   6.090   9.862  0.9242 -0.9130  1.1134
  707MOL0     H93280   8.398   6.154   9.887 -0.2999  0.7362 -0.9343
  707MOL0     H93281   8.483   6.307   9.872  0.3127 -0.8204 -0.4069
  707MOL0     H93282   8.354   6.183  10.119 -0.8662  0.6251 -0.6742
  707MOL0     H93283   8.460   6.318  10.137 -0.4394 -0.9410  0.8782
  707MOL0     H93284   8.226   6.338   9.928 -0.5573  4.5460 -1.0381
  707MOL0     H93285   8.315   6.456  10.008 -0.9613 -0.3151  0.0971
  707MOL0     H93286   7.990   6.276  10.277  0.7895  0.3722 -0.0945
  707MOL0     H93287   7.776   6.387  10.293  0.8492 -2.0005 -0.1370
  707MOL0     H93288   7.590   6.969   9.997 -1.0148  2.1695  1.0702
  707MOL0     H93289   7.368   7.059   9.964  1.7090 -0.8410 -1.9359
  707MOL0     H93290   7.094   7.103  10.068  1.6214 -0.4680  0.6075
  707MOL0     H93291   7.123   6.984  10.194  0.3034 -0.1526 -0.5189
  707MOL0     H93292   6.932   6.865  10.048  1.9022 -0.9336  1.0821
  707MOL0     H93293   6.882   7.037  10.046  1.0758  0.2282 -0.0666
  707MOL0     H93294   6.908   7.035  10.304 -0.9927 -0.8396  1.7211
  707MOL0     H93295   6.942   6.862  10.285 -1.2280  0.0097  2.2343
  707MOL0     H93296   6.677   6.976  10.179 -2.5250 -1.7225  0.0534
  707MOL0     H93297   6.724   6.809  10.181 -2.2555 -0.4353 -0.0221
  707MOL0     H93298   6.726   6.973  10.440 -0.4704  0.4715  0.1642
  707MOL0     H93299   6.755   6.803  10.428 -0.6860  0.2514  0.9945
  707MOL0     H93300   6.496   6.869  10.305 -0.9754  0.4716 -0.0353
  707MOL0     H93301   6.521   6.903  10.479  0.9355  1.0175 -0.0089
  707MOL0     H93302   6.423   6.665  10.426 -0.4428  1.4713 -0.9366
  707MOL0     H93303   6.565   6.627  10.342 -3.5771 -2.5189  0.4990
  707MOL0     H93304   6.675   6.717  10.580  1.9596 -2.5008 -0.6644
  707MOL0     H93305   6.619   6.551  10.575  3.1037  0.0817 -0.2147
  707MOL0     H93306   7.187   6.688  10.066  0.4885 -0.1647  0.6712
  707MOL0     H93307   7.403   6.591  10.110 -3.7740 -0.5462 -2.2722
  707MOL0     H93308   7.889   6.698  10.028 -0.9342  0.2873  2.1795
  707MOL0     H93309   8.111   6.550   9.975 -0.9518  3.0494 -0.9469
  707MOL0     H93310  10.022   6.368  10.671  1.5477  1.1441  0.2206
  707MOL0     H93311  10.234   6.278  10.698  0.2315  0.1085  0.9209
  707MOL0     H93312  10.552   5.874  10.694  2.0628 -1.5853  1.0798
  707MOL0     H93313  10.771   5.781  10.645  0.2262  0.5382  1.5398
  707MOL0     H93314  11.137   6.022  10.580 -0.5423 -1.1014  0.7733
  707MOL0     H93315  11.048   6.071  10.444 -2.4838 -1.6400 -1.8265
  707MOL0     H93316  11.121   5.787  10.422 -0.0428 -0.0963 -1.5372
  707MOL0     H93317  11.136   5.888  10.304 -0.6743 -2.3976  0.0432
  707MOL0     H93318  11.348   5.988  10.438  0.6569 -0.4689 -0.8771
  707MOL0     H93319  11.363   5.845  10.327 -0.6211 -4.1091  0.7913
  707MOL0     H93320  11.401   5.691  10.478 -1.0661  0.1220 -0.5469
  707MOL0     H93321  11.462   5.839  10.562  1.3789  0.3285 -1.6313
  707MOL0     H93322  11.184   5.771  10.837 -1.1531 -0.7221 -0.3421
  707MOL0     H93323  10.856   6.138  10.419  0.8556 -0.2300  0.2166
  707MOL0     H93324  10.639   6.213  10.441 -3.1027 -0.5648  0.3224
  708MOL0     O93325   4.948   9.748   9.269 -0.1997  0.4224  0.7867
  708MOL0     C93326   4.968   9.848   9.333 -0.3911 -0.3134 -0.1757
  708MOL0     O93327   4.874   9.922   9.397 -0.3040 -0.0687  0.1845
  708MOL0     C93328   4.751   9.857   9.384  0.2047 -0.2654 -0.0795
  708MOL0     C93329   4.712   9.761   9.484 -0.2858  0.3165  0.1786
  708MOL0     C93330   4.586   9.696   9.483  0.0857 -0.8991  0.4317
  708MOL0     C93331   4.510   9.725   9.365  0.3232  0.1754  0.0821
  708MOL0     O93332   4.397   9.644   9.353 -0.4833 -0.5592 -0.4512
  708MOL0     C93333   4.321   9.635   9.237  0.4767 -0.0062  0.3030
  708MOL0     C93334   4.186   9.556   9.253  0.3580 -0.8909  0.5453
  708MOL0     C93335   4.204   9.403   9.238 -0.1882  0.1165 -0.1069
  708MOL0     C93336   4.109   9.328   9.331 -0.0871  0.5822  0.0114
  708MOL0     C93337   3.963   9.295   9.281  0.3291  0.2768 -0.3706
  708MOL0     C93338   3.887   9.410   9.207  0.1611  0.2615  0.1683
  708MOL0     C93339   3.754   9.359   9.148 -1.0309 -0.1650 -0.8212
  708MOL0     C93340   3.768   9.245   9.052  0.4856  0.2715  0.4437
  708MOL0     N93341   3.629   9.189   9.017 -0.4109  0.5844  0.3301
  708MOL0     C93342   3.519   9.261   8.977  0.7530  0.4124  0.7703
  708MOL0     C93343   3.410   9.181   8.989  0.0882  0.1622  0.4229
  708MOL0     C93344   3.259   9.219   8.967  0.1492  0.0199  0.4457
  708MOL0     C93345   3.185   9.255   9.096  0.7528  0.1949  0.6550
  708MOL0     C93346   3.026   9.286   9.070  0.1725 -0.5136  0.5659
  708MOL0     C93347   2.947   9.260   9.199 -0.2171 -0.0930 -0.3660
  708MOL0     O93348   2.804   9.277   9.187  0.3124  0.5425  0.8490
  708MOL0     C93349   2.712   9.175   9.183 -0.5506 -0.8511 -0.1349
  708MOL0     C93350   2.738   9.043   9.167  0.1693  0.6747 -0.2108
  708MOL0     C93351   2.638   8.945   9.168  0.1519  0.9353  0.5672
  708MOL0     C93352   2.498   8.986   9.186 -0.6255  0.4249  0.3523
  708MOL0     C93353   2.393   8.879   9.168 -0.0441  0.1616  0.5350
  708MOL0     O93354   2.431   8.768   9.102 -0.3035  0.4775 -0.3158
  708MOL0     C93355   2.330   8.676   9.081  0.3229 -0.9782 -0.2647
  708MOL0     C93356   2.297   8.592   9.183  0.1085  0.5189 -0.3175
  708MOL0     C93357   2.195   8.506   9.171 -0.2514  0.3510 -0.2652
  708MOL0     C93358   2.117   8.505   9.062  0.3136  0.6748 -0.0376
  708MOL0     O93359   2.008   8.426   9.047  0.0949  0.2737 -0.3416
  708MOL0     C93360   1.902   8.460   9.138  0.5776 -0.5958  0.1184
  708MOL0     C93361   1.834   8.330   9.193 -0.1344 -0.3538 -0.1956
  708MOL0     C93362   1.748   8.258   9.087 -0.2992 -0.2992  0.8968
  708MOL0     C93363   1.602   8.310   9.086 -0.0651 -0.3897  0.2716
  708MOL0     C93364   1.516   8.251   8.966  0.1319 -0.0842 -0.2175
  708MOL0     C93365   1.391   8.340   8.936 -0.5502  0.1056  0.1555
  708MOL0     C93366   1.258   8.318   9.017 -0.4665 -0.7896 -0.8418
  708MOL0     C93367   1.204   8.174   9.005 -0.3630  0.1118 -0.2293
  708MOL0    Cl93368   1.045   8.174   9.081  0.0593 -0.1916 -0.2382
  708MOL0     C93369   2.138   8.589   8.957  0.7707 -0.6731  0.0838
  708MOL0     C93370   2.249   8.676   8.970  0.1736  0.3183  0.2734
  708MOL0     O93371   2.277   8.909   9.204 -0.1874 -0.3526 -0.4026
  708MOL0     C93372   2.476   9.127   9.193  0.0097 -0.8256  0.1463
  708MOL0     C93373   2.583   9.215   9.198 -0.3249 -0.0896  0.7423
  708MOL0     N93374   3.451   9.062   9.031  0.9356  0.0942  0.4900
  708MOL0     N93375   3.581   9.073   9.055 -0.4840 -0.2641 -0.3048
  708MOL0     C93376   4.550   9.807   9.260  1.0086 -0.0903  0.2946
  708MOL0     C93377   4.661   9.885   9.278  0.8613 -0.0887  0.1857
  708MOL0     C93378   5.100   9.918   9.341 -1.1960  0.3323  0.2465
  708MOL0     C93379   5.111  10.049   9.390 -0.3399  0.5726 -0.3948
  708MOL0     C93380   5.240  10.106   9.398  0.0872  0.9652  0.1257
  708MOL0     C93381   5.359  10.044   9.355  0.6230  0.2882  0.8140
  708MOL0     O93382   5.469  10.118   9.381  1.0150  0.3488 -0.1690
  708MOL0     C93383   5.600  10.073   9.359  0.2061  1.4326 -0.5692
  708MOL0     C93384   5.698  10.196   9.357  1.4587  0.7284  0.1771
  708MOL0     C93385   5.838  10.178   9.319  0.3129  0.8109  1.0926
  708MOL0     C93386   5.921  10.105   9.428  0.3723 -0.2430 -0.8265
  708MOL0     C93387   5.941  10.204   9.535  0.2612 -0.4880 -0.7826
  708MOL0     C93388   5.970  10.284   9.623 -0.3547  0.4583  0.7696
  708MOL0     C93389   5.346   9.911   9.302 -0.6508 -0.6862  0.2150
  708MOL0     C93390   5.218   9.859   9.289  0.6103 -0.0313 -0.6115
  708MOL0     H93391   4.781   9.738   9.565  0.0320  1.6601  0.3158
  708MOL0     H93392   4.555   9.615   9.548  0.5814 -1.9481 -0.5942
  708MOL0     H93393   4.383   9.588   9.161 -0.1373 -1.6208  0.7594
  708MOL0     H93394   4.291   9.735   9.203 -0.1326 -0.5546 -0.8179
  708MOL0     H93395   4.126   9.582   9.166  1.5755 -0.7445 -0.2677
  708MOL0     H93396   4.128   9.604   9.334 -1.5976 -0.8376 -0.8179
  708MOL0     H93397   4.306   9.372   9.264  0.0756  0.8540 -0.2507
  708MOL0     H93398   4.169   9.372   9.139 -0.2409 -2.7969  0.7156
  708MOL0     H93399   4.153   9.229   9.343 -0.3166  0.7170  2.4391
  708MOL0     H93400   4.101   9.374   9.429 -0.0102 -0.1600  0.3697
  708MOL0     H93401   3.908   9.276   9.374 -0.0607  0.0093 -0.6555
  708MOL0     H93402   3.955   9.198   9.232  0.0633 -0.6335  1.3702
  708MOL0     H93403   3.950   9.443   9.124 -1.1854 -0.2427 -1.1020
  708MOL0     H93404   3.876   9.499   9.269 -1.9297  3.3017 -4.0495
  708MOL0     H93405   3.689   9.326   9.229  2.0343 -3.9673  0.4070
  708MOL0     H93406   3.712   9.441   9.089  1.8280  0.8747 -1.5980
  708MOL0     H93407   3.835   9.171   9.095  3.3429  2.2794 -0.2755
  708MOL0     H93408   3.824   9.268   8.961 -1.4567  0.6087 -0.7464
  708MOL0     H93409   3.522   9.365   8.946  0.4311  0.2440  0.1590
  708MOL0     H93410   3.201   9.137   8.925 -1.8825  1.2606  0.6779
  708MOL0     H93411   3.255   9.299   8.892 -2.3880  1.9683  2.5186
  708MOL0     H93412   3.221   9.342   9.152 -0.5942  0.1611  1.6293
  708MOL0     H93413   3.195   9.171   9.166 -0.5888  1.1954  2.1159
  708MOL0     H93414   3.007   9.392   9.047 -1.5653 -1.0002 -0.4269
  708MOL0     H93415   2.987   9.228   8.985  0.8210 -0.2268  0.0615
  708MOL0     H93416   2.986   9.333   9.271 -0.1522  0.5355 -1.0269
  708MOL0     H93417   2.979   9.165   9.245  0.0885  0.0736 -0.2277
  708MOL0     H93418   2.840   9.009   9.155  0.7733  2.1910  0.3318
  708MOL0     H93419   2.659   8.842   9.144 -1.6192  0.1922  1.9270
  708MOL0     H93420   2.348   8.593   9.279 -0.5797  1.2399  0.0491
  708MOL0     H93421   2.180   8.440   9.256  1.8987  1.0161  0.6866
  708MOL0     H93422   1.835   8.515   9.071  4.5189  0.1191 -3.7322
  708MOL0     H93423   1.942   8.521   9.219 -1.5446 -0.7640  1.3692
  708MOL0     H93424   1.767   8.359   9.274 -1.0715 -0.0135 -1.0757
  708MOL0     H93425   1.911   8.258   9.223  0.5524  0.4141 -0.0899
  708MOL0     H93426   1.742   8.153   9.118  2.8007 -0.0374  2.7958
  708MOL0     H93427   1.787   8.272   8.986 -3.7193  2.2877 -0.2346
  708MOL0     H93428   1.553   8.294   9.183  1.8153 -2.2606  0.9675
  708MOL0     H93429   1.597   8.419   9.073  1.4479  0.3790  4.5282
  708MOL0     H93430   1.492   8.144   8.967 -0.0038 -0.1240 -2.6780
  708MOL0     H93431   1.577   8.261   8.876  0.9594  1.6142  0.4745
  708MOL0     H93432   1.364   8.332   8.831 -2.1208 -1.8943  0.6516
  708MOL0     H93433   1.425   8.443   8.954 -1.3929  0.0238  2.5717
  708MOL0     H93434   1.287   8.337   9.121  0.9486 -0.5172 -1.2674
  708MOL0     H93435   1.194   8.401   8.986  1.3359  1.8273  1.8628
  708MOL0     H93436   1.269   8.096   9.046  1.3713  0.6279 -1.8562
  708MOL0     H93437   1.190   8.164   8.897 -0.0898  0.7981 -0.3350
  708MOL0     H93438   2.077   8.573   8.869  0.4630 -1.3682  0.4193
  708MOL0     H93439   2.264   8.760   8.903  0.2512  0.1330  0.0562
  708MOL0     H93440   2.377   9.170   9.197  0.0622 -0.7258  0.3883
  708MOL0     H93441   2.565   9.322   9.207  1.2562  0.4444 -1.6189
  708MOL0     H93442   4.503   9.810   9.162  0.9846 -1.0281  0.2769
  708MOL0     H93443   4.708   9.944   9.201  2.3905 -2.4483 -0.8103
  708MOL0     H93444   5.028  10.107   9.430  0.1341  1.5672 -0.8301
  708MOL0     H93445   5.248  10.200   9.452 -0.2048  0.9742  0.1516
  708MOL0     H93446   5.614  10.012   9.269 -0.7598  0.1169  0.1381
  708MOL0     H93447   5.619  10.014   9.449  0.0513  1.8974 -0.2323
  708MOL0     H93448   5.656  10.268   9.287 -2.6612 -1.8429 -0.3177
  708MOL0     H93449   5.697  10.241   9.457  1.8947  1.8250 -0.2987
  708MOL0     H93450   5.882  10.278   9.309 -0.9905  1.2485 -1.2148
  708MOL0     H93451   5.861  10.127   9.225 -2.2616  1.1288  0.2071
  708MOL0     H93452   5.875  10.012   9.462  2.6295 -1.4565 -0.9055
  708MOL0     H93453   6.017  10.080   9.381  1.3690  1.9040 -0.1033
  708MOL0     H93454   5.985  10.355   9.702 -2.1068  2.7593 -0.8379
  708MOL0     H93455   5.432   9.857   9.263  0.9270  1.8774 -0.1522
  708MOL0     H93456   5.210   9.771   9.226 -1.4390  1.6826 -2.9210
  709MOL0     O93457   7.795   5.580   3.972 -0.4200 -0.3674  0.4121
  709MOL0     C93458   7.859   5.654   3.896  0.9926  0.4720 -0.5951
  709MOL0     O93459   7.829   5.680   3.771 -0.4924  0.0792  0.3682
  709MOL0     C93460   7.706   5.627   3.722  0.0171 -0.4922 -0.9348
  709MOL0     C93461   7.589   5.704   3.718 -0.2493  0.8681  0.5067
  709MOL0     C93462   7.470   5.648   3.666  0.2112  0.8725 -0.5490
  709MOL0     C93463   7.466   5.513   3.633 -0.3112  0.8078 -0.5876
  709MOL0     O93464   7.356   5.434   3.606 -0.3257 -0.7074 -0.1228
  709MOL0     C93465   7.233   5.472   3.671  0.3826  1.3646 -0.2229
  709MOL0     C93466   7.139   5.354   3.644 -0.2762 -0.3205 -0.4031
  709MOL0     C93467   7.015   5.388   3.732 -0.3742  0.2611 -0.4771
  709MOL0     C93468   6.905   5.285   3.696  0.1744 -0.1484 -0.4898
  709MOL0     C93469   6.784   5.317   3.790  0.1224 -0.3329  0.2069
  709MOL0     C93470   6.673   5.204   3.772  0.0815  0.3463  0.0577
  709MOL0     C93471   6.540   5.239   3.839  0.9791  0.6205  0.2842
  709MOL0     C93472   6.444   5.126   3.800 -0.0547 -0.1369  0.7443
  709MOL0     N93473   6.313   5.127   3.866  0.5153 -0.0510 -0.2081
  709MOL0     C93474   6.275   5.056   3.970  0.3225  0.2011 -1.3078
  709MOL0     C93475   6.167   5.121   4.009  0.5014 -0.0868  0.4605
  709MOL0     C93476   6.076   5.075   4.117 -0.6817  1.0462  0.3153
  709MOL0     C93477   6.020   5.192   4.201  0.4183  0.0314  0.1869
  709MOL0     C93478   5.975   5.141   4.342  0.2268 -0.1896  0.0603
  709MOL0     C93479   5.851   5.052   4.355 -0.9028  0.7417 -0.1454
  709MOL0     O93480   5.736   5.120   4.303  0.1018 -0.1856  0.3010
  709MOL0     C93481   5.607   5.084   4.318  0.2038 -0.5837 -0.1411
  709MOL0     C93482   5.503   5.155   4.254 -0.6159  0.3363  0.3289
  709MOL0     C93483   5.372   5.115   4.270  0.1502 -0.5845  0.6849
  709MOL0     C93484   5.339   5.015   4.355 -0.3903 -0.3732  0.5508
  709MOL0     C93485   5.201   4.988   4.393  0.9852  0.1104 -0.7523
  709MOL0     O93486   5.163   4.875   4.473  0.4954 -0.2225  0.2480
  709MOL0     C93487   5.048   4.805   4.451  0.0617  0.1485 -0.2815
  709MOL0     C93488   4.924   4.858   4.507  0.4818  0.6716 -0.3306
  709MOL0     C93489   4.804   4.793   4.470  0.2894  0.5220  0.1189
  709MOL0     C93490   4.792   4.701   4.370  0.1811 -0.9104  0.1726
  709MOL0     O93491   4.663   4.652   4.363  0.2401 -0.6907  0.8273
  709MOL0     C93492   4.651   4.557   4.252  0.1704 -1.1085 -0.3731
  709MOL0     C93493   4.502   4.510   4.259  0.7487  0.0395 -0.1784
  709MOL0     C93494   4.408   4.630   4.221  0.2095  0.5565 -0.0501
  709MOL0     C93495   4.265   4.594   4.247 -0.4409 -0.3336 -0.7726
  709MOL0     C93496   4.167   4.698   4.200 -0.2110  0.5081  0.4883
  709MOL0     C93497   4.032   4.667   4.251  0.2297 -0.2399 -0.7388
  709MOL0     C93498   3.922   4.756   4.211 -0.9691 -0.2468  0.6264
  709MOL0     C93499   3.927   4.844   4.083  0.7792  0.2910 -1.2020
  709MOL0    Cl93500   3.764   4.883   4.004 -0.1075  0.1088  0.3639
  709MOL0     C93501   4.907   4.660   4.304 -0.3786 -0.0428  0.1742
  709MOL0     C93502   5.032   4.707   4.349  0.2955  0.6833  0.2749
  709MOL0     O93503   5.122   5.049   4.326  0.3087  0.5380 -0.9036
  709MOL0     C93504   5.440   4.938   4.423 -0.7149  0.2867 -0.3813
  709MOL0     C93505   5.572   4.977   4.400  0.6481 -0.0987  0.1265
  709MOL0     N93506   6.142   5.238   3.932 -0.5249 -0.7285  0.1911
  709MOL0     N93507   6.227   5.235   3.841 -0.2427  0.1050  0.2483
  709MOL0     C93508   7.581   5.433   3.648 -0.0327  0.0834 -0.4088
  709MOL0     C93509   7.700   5.492   3.692 -0.4964 -0.6794  0.0560
  709MOL0     C93510   7.972   5.734   3.965 -0.0767 -0.4572 -0.5616
  709MOL0     C93511   8.000   5.713   4.104 -0.3486 -0.2399  0.3856
  709MOL0     C93512   8.121   5.773   4.150 -0.7914  0.3082  0.0340
  709MOL0     C93513   8.200   5.868   4.077 -1.2096  0.1368  0.3093
  709MOL0     O93514   8.313   5.931   4.129 -0.7598  0.8453  0.3739
  709MOL0     C93515   8.318   5.940   4.278  0.6860  0.1360 -0.2303
  709MOL0     C93516   8.426   6.044   4.315  0.8805 -0.4125  0.0829
  709MOL0     C93517   8.560   6.038   4.259 -0.5107 -0.0224  0.8997
  709MOL0     C93518   8.636   5.901   4.239 -0.1575  0.4662 -0.6508
  709MOL0     C93519   8.609   5.804   4.343 -0.0568 -0.3611  0.7850
  709MOL0     C93520   8.568   5.731   4.422  1.0140  0.4179 -0.7068
  709MOL0     C93521   8.159   5.891   3.945 -0.4761  0.5438  0.4114
  709MOL0     C93522   8.046   5.835   3.899 -0.1188 -0.5807 -0.5503
  709MOL0     H93523   7.575   5.799   3.769 -0.2302  1.1593 -0.0222
  709MOL0     H93524   7.383   5.712   3.664 -1.1582 -0.8938 -0.4109
  709MOL0     H93525   7.195   5.567   3.633 -0.5760  1.1281  0.1140
  709MOL0     H93526   7.250   5.473   3.779 -2.9957 -1.4891  0.5235
  709MOL0     H93527   7.184   5.259   3.672 -0.9676 -0.0546  1.8342
  709MOL0     H93528   7.111   5.359   3.539 -0.7210 -0.1215 -0.2806
  709MOL0     H93529   6.979   5.483   3.692  3.3211  1.8488 -0.5135
  709MOL0     H93530   7.045   5.392   3.838 -1.3115  2.1189 -0.2332
  709MOL0     H93531   6.880   5.304   3.591 -1.5185  2.6600  0.3180
  709MOL0     H93532   6.943   5.186   3.720 -0.9193 -0.2675  0.8966
  709MOL0     H93533   6.738   5.411   3.756 -1.9582 -1.0946  0.7443
  709MOL0     H93534   6.808   5.336   3.895  0.9309 -0.4357  0.0424
  709MOL0     H93535   6.704   5.114   3.827  1.5685 -0.5913 -2.1863
  709MOL0     H93536   6.671   5.187   3.664  1.2912  2.2163 -0.3126
  709MOL0     H93537   6.543   5.243   3.948 -2.0726  1.0336  0.4365
  709MOL0     H93538   6.504   5.330   3.789 -0.1584 -0.9311 -1.9238
  709MOL0     H93539   6.486   5.031   3.834 -0.5765 -0.6602 -0.0638
  709MOL0     H93540   6.426   5.131   3.693  0.8346  1.8991  0.6352
  709MOL0     H93541   6.325   4.968   4.008  1.1813  0.9157 -0.7512
  709MOL0     H93542   6.138   5.031   4.196 -1.2187  1.6259  1.0727
  709MOL0     H93543   5.993   5.011   4.087  0.1222 -1.5085  3.0653
  709MOL0     H93544   5.935   5.230   4.144  2.6370  1.6053 -2.3300
  709MOL0     H93545   6.092   5.273   4.214 -1.5510  2.0926 -1.0156
  709MOL0     H93546   6.046   5.082   4.401 -0.5351 -1.6288 -0.4060
  709MOL0     H93547   5.949   5.229   4.401  2.1352 -0.8723  2.0749
  709MOL0     H93548   5.851   5.016   4.459 -0.7084 -0.4781 -0.5586
  709MOL0     H93549   5.868   4.956   4.307  2.3441 -0.3089  2.7426
  709MOL0     H93550   5.530   5.233   4.184  1.6938  0.0577  0.8323
  709MOL0     H93551   5.293   5.165   4.216  0.6495 -0.5515 -0.0277
  709MOL0     H93552   4.921   4.945   4.572  0.9620 -1.4406  2.7184
  709MOL0     H93553   4.712   4.819   4.521  0.6854 -2.1467  2.4650
  709MOL0     H93554   4.720   4.474   4.273  1.3222 -0.0983 -0.0588
  709MOL0     H93555   4.671   4.603   4.154  2.6649 -1.3990 -0.0589
  709MOL0     H93556   4.475   4.476   4.360  0.0004 -0.2274 -0.4582
  709MOL0     H93557   4.501   4.424   4.191  2.6816  0.7958 -1.2263
  709MOL0     H93558   4.427   4.654   4.117  0.4658  2.6517  0.4421
  709MOL0     H93559   4.440   4.719   4.276 -0.5388  1.9417 -1.7802
  709MOL0     H93560   4.232   4.497   4.207 -0.9171 -1.1546  1.4509
  709MOL0     H93561   4.244   4.583   4.354 -1.0115  2.2608 -0.5560
  709MOL0     H93562   4.168   4.685   4.091 -1.3248  0.8581  0.4206
  709MOL0     H93563   4.198   4.799   4.230 -0.2668  0.6197  0.1814
  709MOL0     H93564   4.023   4.657   4.360  0.2936  0.8600 -0.6294
  709MOL0     H93565   3.989   4.573   4.214 -2.3491  0.9669 -1.0291
  709MOL0     H93566   3.834   4.691   4.200 -0.7028 -0.4269 -0.5777
  709MOL0     H93567   3.913   4.827   4.294  0.2450 -0.5095  0.9932
  709MOL0     H93568   3.995   4.792   4.014  0.5012 -0.1505 -1.1470
  709MOL0     H93569   3.993   4.926   4.113  3.0598 -2.1597  1.0672
  709MOL0     H93570   4.903   4.590   4.222 -1.5075  1.3680 -1.0136
  709MOL0     H93571   5.132   4.682   4.315 -0.4685 -1.4515 -0.5864
  709MOL0     H93572   5.438   4.854   4.491  3.0736 -0.0351 -0.4178
  709MOL0     H93573   5.648   4.921   4.453  0.7352  1.6012  1.9061
  709MOL0     H93574   7.573   5.327   3.623 -2.1637  0.2282 -0.5920
  709MOL0     H93575   7.791   5.440   3.721 -0.7396 -1.2553 -0.2086
  709MOL0     H93576   7.935   5.659   4.172 -1.0222 -0.4113 -0.3768
  709MOL0     H93577   8.153   5.745   4.250  0.6532  0.1901 -0.4320
  709MOL0     H93578   8.339   5.847   4.332  1.2745  0.2792 -0.2068
  709MOL0     H93579   8.219   5.973   4.311  1.1632  3.9393 -2.0280
  709MOL0     H93580   8.389   6.145   4.297  4.8057  1.0079 -1.2012
  709MOL0     H93581   8.437   6.034   4.424 -4.1932 -2.0316  0.6930
  709MOL0     H93582   8.622   6.095   4.328 -0.7927 -1.3247  2.3030
  709MOL0     H93583   8.549   6.101   4.170  2.0891  1.7604  1.7442
  709MOL0     H93584   8.593   5.854   4.150 -1.4718 -1.0513  0.7066
  709MOL0     H93585   8.743   5.896   4.216 -0.3337 -0.8802 -1.2951
  709MOL0     H93586   8.543   5.666   4.504 -1.9191  0.0184 -1.7937
  709MOL0     H93587   8.203   5.969   3.884 -0.7818  0.4601  0.0829
  709MOL0     H93588   8.005   5.863   3.803 -0.4931  0.3439 -0.1292
  710MOL0     O93589   9.210   1.913   8.184 -0.2158  0.0297  0.3394
  710MOL0     C93590   9.186   1.827   8.102  0.6499  0.3241  0.4706
  710MOL0     O93591   9.286   1.745   8.055  0.7902 -0.2534  0.3326
  710MOL0     C93592   9.403   1.808   8.030 -0.0242 -0.3313 -0.1228
  710MOL0     C93593   9.439   1.879   7.912  0.1787  0.2783 -0.1111
  710MOL0     C93594   9.573   1.921   7.903 -1.0557  1.0525 -0.0339
  710MOL0     C93595   9.673   1.898   7.990 -0.1835  0.0908 -0.2647
  710MOL0     O93596   9.804   1.927   7.952  0.8280 -0.0545  0.7033
  710MOL0     C93597   9.880   2.014   8.033 -0.1065 -0.5000 -0.2998
  710MOL0     C93598   9.835   2.161   8.037 -0.0382 -0.6776  0.9669
  710MOL0     C93599   9.893   2.243   8.161 -0.5454  1.3008 -0.0823
  710MOL0     C93600   9.825   2.378   8.182 -0.0250 -1.2060 -0.0503
  710MOL0     C93601   9.906   2.485   8.270  0.0928  0.0797  0.0545
  710MOL0     C93602   9.893   2.455   8.422 -0.2654 -0.3718 -0.2482
  710MOL0     C93603   9.750   2.488   8.476  0.4151  0.7867 -0.3032
  710MOL0     C93604   9.734   2.463   8.627 -0.6266  0.0603 -0.8000
  710MOL0     N93605   9.596   2.484   8.674  0.2919 -0.1569  0.3020
  710MOL0     C93606   9.545   2.493   8.804 -1.5738 -0.2617  0.1718
  710MOL0     C93607   9.414   2.500   8.784 -0.6242 -0.1502  0.1862
  710MOL0     C93608   9.301   2.539   8.882  0.4532  0.2586 -0.0671
  710MOL0     C93609   9.274   2.445   8.988 -0.0718  0.7137  0.1226
  710MOL0     C93610   9.236   2.304   8.942  0.4056 -0.1771  0.1650
  710MOL0     C93611   9.121   2.293   8.837  0.5273  0.3811 -0.2674
  710MOL0     O93612   8.992   2.319   8.901 -0.5294 -0.0449 -0.2716
  710MOL0     C93613   8.874   2.336   8.830  0.1001  0.4635  0.1950
  710MOL0     C93614   8.859   2.342   8.687 -0.0567 -0.3618 -0.2772
  710MOL0     C93615   8.724   2.347   8.631 -0.2099  0.3802  0.5746
  710MOL0     C93616   8.611   2.349   8.705 -0.0073 -0.1572 -0.5305
  710MOL0     C93617   8.474   2.355   8.646 -0.0116 -0.4917  0.5206
  710MOL0     O93618   8.472   2.333   8.514 -0.7184 -0.0880 -0.5206
  710MOL0     C93619   8.359   2.305   8.445  0.7928  0.1781 -0.5422
  710MOL0     C93620   8.254   2.235   8.494  0.3573 -0.6687  0.3220
  710MOL0     C93621   8.143   2.219   8.410  0.3125  0.3656 -0.2076
  710MOL0     C93622   8.134   2.258   8.274 -0.3203 -0.2790 -0.7857
  710MOL0     O93623   8.026   2.252   8.186  0.1569  0.4735  0.6731
  710MOL0     C93624   7.906   2.197   8.246 -1.2016  0.3104 -0.4186
  710MOL0     C93625   7.786   2.233   8.162 -0.3698 -0.1570  0.0841
  710MOL0     C93626   7.662   2.155   8.199 -0.1952  0.7982  0.1129
  710MOL0     C93627   7.626   2.160   8.345 -0.5713  0.3393  0.3194
  710MOL0     C93628   7.494   2.102   8.383  0.1354  0.6567 -0.1942
  710MOL0     C93629   7.486   2.079   8.529 -0.0703 -0.0424 -0.5062
  710MOL0     C93630   7.365   2.009   8.569  0.1027 -0.2693  0.3219
  710MOL0     C93631   7.231   2.076   8.579  0.0085  0.1167  0.9145
  710MOL0    Cl93632   7.148   2.080   8.417  0.0938  0.1871  0.0464
  710MOL0     C93633   8.237   2.340   8.233 -0.1914 -1.4258  0.0572
  710MOL0     C93634   8.352   2.357   8.318 -0.2179  0.6764  0.4867
  710MOL0     O93635   8.381   2.371   8.721  0.1623 -0.7663  0.1958
  710MOL0     C93636   8.623   2.353   8.852  0.0148  1.2680 -0.0597
  710MOL0     C93637   8.752   2.345   8.907  0.7240  0.0477 -0.0108
  710MOL0     N93638   9.374   2.479   8.662  0.2995 -0.3289  0.0383
  710MOL0     N93639   9.489   2.460   8.589 -0.0428 -0.6580  0.4487
  710MOL0     C93640   9.639   1.834   8.107 -0.1484  0.4272  0.5099
  710MOL0     C93641   9.504   1.795   8.126  1.2514  0.4504  0.0099
  710MOL0     C93642   9.046   1.795   8.063  0.2438 -0.1101 -0.7237
  710MOL0     C93643   8.947   1.894   8.072 -0.1569  0.1036  0.0310
  710MOL0     C93644   8.821   1.865   8.031 -0.6865 -0.2389 -0.1041
  710MOL0     C93645   8.792   1.738   7.995  0.7243  0.7634 -0.8742
  710MOL0     O93646   8.659   1.713   7.982 -0.1420 -0.1577  0.4801
  710MOL0     C93647   8.605   1.594   7.914 -0.2625  0.8046  0.7336
  710MOL0     C93648   8.453   1.585   7.919  0.0127  0.1868  0.3536
  710MOL0     C93649   8.388   1.630   8.053 -0.3335 -0.4134 -0.4101
  710MOL0     C93650   8.239   1.589   8.073  0.4997  0.5356  0.1280
  710MOL0     C93651   8.214   1.444   8.064  0.4241  1.0504 -0.2360
  710MOL0     C93652   8.178   1.332   8.052 -0.2197  0.0564  0.1049
  710MOL0     C93653   8.890   1.640   7.974 -0.2566 -1.0109  0.0595
  710MOL0     C93654   9.019   1.668   8.005 -0.1255 -0.8589  1.0130
  710MOL0     H93655   9.362   1.902   7.839 -1.0307  0.0496  1.0561
  710MOL0     H93656   9.596   1.985   7.818  0.9935 -0.2579 -0.5419
  710MOL0     H93657   9.982   2.012   7.995  0.0522 -0.3718  0.1166
  710MOL0     H93658   9.892   1.985   8.138 -0.6273  4.0084  1.2368
  710MOL0     H93659   9.726   2.157   8.040 -0.1423 -1.6416 -1.7642
  710MOL0     H93660   9.866   2.217   7.949 -2.7769  3.1598  2.1917
  710MOL0     H93661  10.002   2.248   8.150 -0.2255 -3.3961 -1.3384
  710MOL0     H93662   9.880   2.177   8.248  1.1360 -1.7863 -1.9833
  710MOL0     H93663   9.815   2.425   8.084 -0.8539 -0.2956  0.4528
  710MOL0     H93664   9.724   2.367   8.222 -1.2172  0.8270 -2.2453
  710MOL0     H93665   9.869   2.585   8.245  2.2728  0.1143 -3.7982
  710MOL0     H93666  10.010   2.472   8.239  0.0953 -0.5794  0.3418
  710MOL0     H93667   9.974   2.511   8.469 -0.8330 -0.9942  1.5364
  710MOL0     H93668   9.925   2.355   8.452 -1.7695 -0.3483  1.5813
  710MOL0     H93669   9.741   2.596   8.466 -1.7820  0.8247  1.2339
  710MOL0     H93670   9.683   2.424   8.416 -0.5662  2.1967 -0.7620
  710MOL0     H93671   9.813   2.525   8.670  2.5124 -3.3014 -1.2140
  710MOL0     H93672   9.764   2.360   8.650  1.8509  0.9648  0.4164
  710MOL0     H93673   9.606   2.509   8.892  0.4251 -2.5495 -0.6755
  710MOL0     H93674   9.210   2.569   8.828  0.0861  1.7007  1.2870
  710MOL0     H93675   9.321   2.630   8.939 -0.3764 -0.8513  2.1190
  710MOL0     H93676   9.186   2.491   9.035  0.3684  1.3339  0.3479
  710MOL0     H93677   9.358   2.447   9.057 -0.1190 -0.0589  0.2080
  710MOL0     H93678   9.332   2.271   8.901  1.2417 -0.6185  2.3343
  710MOL0     H93679   9.220   2.242   9.030  1.4299  0.4378  0.7976
  710MOL0     H93680   9.113   2.189   8.802  1.5593 -0.1993  1.0968
  710MOL0     H93681   9.147   2.349   8.747  0.3002 -1.5077 -1.5742
  710MOL0     H93682   8.946   2.335   8.622 -0.1628 -1.3916 -0.3277
  710MOL0     H93683   8.710   2.352   8.524 -3.3364 -1.6482  0.7628
  710MOL0     H93684   8.259   2.190   8.593 -1.1607  1.0497  1.2481
  710MOL0     H93685   8.067   2.159   8.459  0.4956  1.3680  1.3891
  710MOL0     H93686   7.889   2.237   8.347  0.2898 -0.6340  0.2444
  710MOL0     H93687   7.918   2.088   8.245 -1.6027  0.2661 -0.8384
  710MOL0     H93688   7.813   2.223   8.056  2.7496 -1.4956  0.8808
  710MOL0     H93689   7.758   2.338   8.179  2.3862  0.3605  2.2949
  710MOL0     H93690   7.667   2.051   8.164  0.5375  0.5650  0.8691
  710MOL0     H93691   7.576   2.199   8.148 -2.7626 -3.7162  0.0583
  710MOL0     H93692   7.703   2.111   8.405  1.5530 -0.9129 -3.1206
  710MOL0     H93693   7.631   2.265   8.375  3.0885  0.6518 -0.9004
  710MOL0     H93694   7.491   2.006   8.330 -0.9527  0.9366 -0.6744
  710MOL0     H93695   7.409   2.164   8.352 -0.9911 -0.6189  0.2333
  710MOL0     H93696   7.484   2.178   8.576 -1.2860  0.2883 -1.2167
  710MOL0     H93697   7.569   2.018   8.565 -0.3573  0.3320  0.8330
  710MOL0     H93698   7.338   1.926   8.503 -1.3058  1.0739 -0.8380
  710MOL0     H93699   7.380   1.971   8.671  0.4257  2.6039  1.4437
  710MOL0     H93700   7.221   2.179   8.615 -1.4920  0.3690 -0.1711
  710MOL0     H93701   7.169   2.019   8.648 -1.5839 -0.0849 -0.6264
  710MOL0     H93702   8.228   2.387   8.136 -2.0225  1.2176  1.3877
  710MOL0     H93703   8.439   2.412   8.284 -0.0530  1.0875  1.5171
  710MOL0     H93704   8.536   2.368   8.915 -0.5268  1.0461 -0.7391
  710MOL0     H93705   8.754   2.324   9.013  2.7658 -1.5521 -0.3001
  710MOL0     H93706   9.707   1.813   8.188 -0.7715  1.8773  1.4612
  710MOL0     H93707   9.476   1.741   8.215  1.3467 -1.5858 -1.1451
  710MOL0     H93708   8.976   1.992   8.110  1.7691  1.1500 -3.5891
  710MOL0     H93709   8.747   1.945   8.036  1.5337  2.0010 -1.0141
  710MOL0     H93710   8.642   1.513   7.979 -0.3656  1.7546  2.0238
  710MOL0     H93711   8.652   1.595   7.816 -0.4421  0.1743  0.6347
  710MOL0     H93712   8.406   1.646   7.842 -0.5766  1.6369  1.8093
  710MOL0     H93713   8.417   1.483   7.899 -0.4019  0.1169  1.4093
  710MOL0     H93714   8.397   1.737   8.072 -1.3463 -0.6256  1.5163
  710MOL0     H93715   8.439   1.589   8.141  1.6665 -1.1321 -1.8274
  710MOL0     H93716   8.200   1.633   8.165  1.8790  1.7309  0.1699
  710MOL0     H93717   8.177   1.636   7.996  2.0533  1.1134 -0.8022
  710MOL0     H93718   8.137   1.233   8.041  2.1644 -1.2467  2.0700
  710MOL0     H93719   8.867   1.543   7.930  0.9290 -0.7898 -1.1226
  710MOL0     H93720   9.092   1.590   7.987 -1.0373 -1.3041 -0.9222
  711MOL0     O93721  10.192   7.182   7.439 -0.0716  0.3816 -0.4562
  711MOL0     C93722  10.170   7.293   7.494  0.4824 -0.3113  0.2864
  711MOL0     O93723  10.260   7.395   7.512 -0.9663  0.2709  0.0256
  711MOL0     C93724  10.392   7.385   7.484 -0.0370 -0.0474  0.5966
  711MOL0     C93725  10.471   7.267   7.477 -0.2997  0.7874 -0.3453
  711MOL0     C93726  10.602   7.272   7.425  0.7521 -0.0729  0.3016
  711MOL0     C93727  10.666   7.392   7.396 -0.2426 -0.8893 -0.4879
  711MOL0     O93728  10.800   7.396   7.363 -0.2340  0.4958  0.1246
  711MOL0     C93729  10.880   7.515   7.365  0.8829  0.7034 -0.0875
  711MOL0     C93730  11.017   7.465   7.396 -0.0109  0.8515  0.0933
  711MOL0     C93731  11.122   7.573   7.391 -0.0996 -0.0905  0.3657
  711MOL0     C93732  11.263   7.521   7.435  0.1789  0.5861 -0.7138
  711MOL0     C93733  11.354   7.633   7.490  0.0076  0.0211  0.7024
  711MOL0     C93734  11.492   7.573   7.509 -0.1538  0.3232 -0.2214
  711MOL0     C93735  11.604   7.680   7.527  0.3761  0.1295 -0.3497
  711MOL0     C93736  11.627   7.720   7.681 -0.4690 -0.7268  0.1313
  711MOL0     N93737  11.720   7.830   7.684 -0.3992 -0.2826  0.1659
  711MOL0     C93738  11.856   7.818   7.705 -0.2918  0.1985  0.0127
  711MOL0     C93739  11.903   7.943   7.678  0.1874 -0.0785 -0.0971
  711MOL0     C93740  12.045   7.984   7.691  0.0699  0.6924  0.3618
  711MOL0     C93741  12.094   8.071   7.802  0.4789 -0.6136 -0.0786
  711MOL0     C93742  12.242   8.063   7.815  0.3814  0.3646 -0.3590
  711MOL0     C93743  12.282   8.132   7.944  0.6546  0.5207 -0.4727
  711MOL0     O93744  12.415   8.101   7.963  0.3476  0.0619 -0.1451
  711MOL0     C93745  12.506   8.205   7.954  0.5627  0.6865 -0.8911
  711MOL0     C93746  12.483   8.325   8.016  0.1227  0.1366 -0.3335
  711MOL0     C93747  12.578   8.425   8.013  0.0371  0.3330 -0.4580
  711MOL0     C93748  12.699   8.406   7.938  0.6466 -0.8926  0.1239
  711MOL0     C93749  12.797   8.514   7.926  0.4788 -0.7027 -0.1088
  711MOL0     O93750  12.759   8.633   7.989 -0.2166 -0.3614 -0.8075
  711MOL0     C93751  12.854   8.716   8.038  1.3571 -0.3840  0.0134
  711MOL0     C93752  12.997   8.703   8.055  0.2452 -0.0552  0.1790
  711MOL0     C93753  13.074   8.800   8.112  0.5815 -0.4183 -0.3431
  711MOL0     C93754  13.021   8.920   8.169  0.7968  0.3527  0.4869
  711MOL0     O93755  13.102   9.006   8.243 -0.5815  0.1614  0.4238
  711MOL0     C93756  13.166   9.114   8.165  0.3408  0.2722  0.4859
  711MOL0     C93757  13.080   9.241   8.162 -0.2081 -0.3491  0.8926
  711MOL0     C93758  13.101   9.322   8.032 -0.6983 -0.1904  0.0503
  711MOL0     C93759  13.015   9.443   8.026  0.5871  0.1049 -0.3814
  711MOL0     C93760  13.052   9.527   8.144  0.3162 -0.4270  0.4222
  711MOL0     C93761  13.002   9.661   8.130 -0.5031  0.0176 -0.5127
  711MOL0     C93762  13.025   9.738   8.258  0.4483 -0.1661  0.6657
  711MOL0     C93763  13.030   9.894   8.241  0.6332 -0.1850  0.8639
  711MOL0    Cl93764  12.970   9.964   8.399  0.0467  0.6578 -0.1139
  711MOL0     C93765  12.883   8.926   8.165  0.6735 -0.7576 -0.0825
  711MOL0     C93766  12.798   8.825   8.105  0.1360 -0.1085  0.8919
  711MOL0     O93767  12.898   8.500   7.864  0.2690  0.1247 -0.6626
  711MOL0     C93768  12.715   8.280   7.877  0.5241  0.0722 -0.8829
  711MOL0     C93769  12.624   8.177   7.890  0.1242  0.7567 -1.3897
  711MOL0     N93770  11.803   8.026   7.650 -0.0263 -0.7321  0.1373
  711MOL0     N93771  11.695   7.955   7.642 -0.6487 -0.2905  0.0171
  711MOL0     C93772  10.590   7.511   7.402 -0.1991  0.4026 -0.2007
  711MOL0     C93773  10.462   7.508   7.450  0.8223  0.7122 -0.3936
  711MOL0     C93774  10.033   7.330   7.539 -0.8344  0.7555 -0.6344
  711MOL0     C93775   9.917   7.241   7.532 -1.1153 -0.4496 -0.3776
  711MOL0     C93776   9.793   7.289   7.572 -0.3361  0.2822 -0.4210
  711MOL0     C93777   9.766   7.415   7.610  0.4606  0.1150 -0.5436
  711MOL0     O93778   9.630   7.446   7.641  0.5948 -1.4442  0.1846
  711MOL0     C93779   9.601   7.587   7.678 -0.4639  0.6162 -0.5807
  711MOL0     C93780   9.452   7.606   7.696 -0.7365  0.4152 -0.0678
  711MOL0     C93781   9.383   7.597   7.559  0.2791 -0.4721 -0.3325
  711MOL0     C93782   9.226   7.600   7.589 -0.6070 -0.0438 -0.3742
  711MOL0     C93783   9.142   7.571   7.478 -0.8976  0.1899  0.1096
  711MOL0     C93784   9.112   7.535   7.364 -1.0644  0.3055 -0.7338
  711MOL0     C93785   9.874   7.503   7.617 -0.3591 -1.1021 -1.2025
  711MOL0     C93786  10.004   7.458   7.584  0.7548  0.0429  0.2014
  711MOL0     H93787  10.442   7.166   7.503 -0.8249  1.3440  1.3705
  711MOL0     H93788  10.662   7.182   7.417 -1.6357 -1.5818 -3.7511
  711MOL0     H93789  10.848   7.576   7.451 -0.8917  0.0136 -0.2201
  711MOL0     H93790  10.882   7.568   7.270 -0.7324 -3.1342 -2.4619
  711MOL0     H93791  11.039   7.397   7.313 -0.0593  0.7461  0.1662
  711MOL0     H93792  11.017   7.416   7.494  0.1246  1.9527  0.6653
  711MOL0     H93793  11.093   7.656   7.456  1.1068 -0.3929  1.3199
  711MOL0     H93794  11.146   7.605   7.289  0.9583 -1.4029  0.1757
  711MOL0     H93795  11.238   7.446   7.510 -3.2326  1.5450 -0.6961
  711MOL0     H93796  11.314   7.463   7.358  1.7274  2.1462 -0.9249
  711MOL0     H93797  11.312   7.664   7.587  0.1391  1.3387  0.3435
  711MOL0     H93798  11.365   7.717   7.422  3.8212  0.3524  1.5526
  711MOL0     H93799  11.511   7.515   7.418 -0.5983 -0.9210  0.4552
  711MOL0     H93800  11.492   7.501   7.592  4.2061 -0.9887 -1.1097
  711MOL0     H93801  11.693   7.627   7.490  0.3513  0.1786 -0.4816
  711MOL0     H93802  11.577   7.767   7.466  1.1500 -0.7104 -1.9656
  711MOL0     H93803  11.674   7.638   7.737  0.4071  0.8168  1.8024
  711MOL0     H93804  11.535   7.757   7.727  0.9774  1.5607  1.4339
  711MOL0     H93805  11.903   7.725   7.737  0.9003  0.4503 -0.9566
  711MOL0     H93806  12.064   8.045   7.603  3.8504  1.2516  1.3674
  711MOL0     H93807  12.112   7.897   7.687 -2.5836 -1.5012 -0.0215
  711MOL0     H93808  12.044   8.046   7.896  0.9508  3.3083  1.3687
  711MOL0     H93809  12.064   8.170   7.767  3.4231 -0.1989 -1.7657
  711MOL0     H93810  12.282   7.961   7.814 -1.5991 -0.4386 -0.8442
  711MOL0     H93811  12.292   8.122   7.738  3.3610  0.2615  1.3133
  711MOL0     H93812  12.227   8.091   8.029  2.9435 -3.6024 -0.7273
  711MOL0     H93813  12.257   8.238   7.940 -1.2221  0.0669 -2.1947
  711MOL0     H93814  12.388   8.334   8.067 -0.3221  1.5390 -1.3505
  711MOL0     H93815  12.558   8.519   8.063  0.5742  1.1309 -1.6975
  711MOL0     H93816  13.040   8.610   8.019 -3.1026 -1.7106  0.1741
  711MOL0     H93817  13.179   8.780   8.130  0.9133  0.2141 -1.4708
  711MOL0     H93818  13.184   9.096   8.059 -3.2614  2.4785 -0.6420
  711MOL0     H93819  13.268   9.126   8.204  0.7997 -1.9664  0.1534
  711MOL0     H93820  13.105   9.301   8.250  1.4847  1.5029 -0.7512
  711MOL0     H93821  12.977   9.212   8.184 -1.4568  2.2619 -0.9318
  711MOL0     H93822  13.068   9.260   7.949 -1.7296 -0.4318  0.6172
  711MOL0     H93823  13.208   9.344   8.032 -0.0466 -2.5772  2.9944
  711MOL0     H93824  13.040   9.499   7.936  3.5094  1.0234  0.8732
  711MOL0     H93825  12.907   9.424   8.036 -0.2103  4.4307  1.3147
  711MOL0     H93826  13.161   9.529   8.149  0.5660  3.4909 -2.2173
  711MOL0     H93827  13.009   9.483   8.235  0.0905  0.5485  0.7973
  711MOL0     H93828  12.894   9.661   8.111 -0.8883  1.1192  1.3473
  711MOL0     H93829  13.047   9.715   8.047  3.1520 -1.7439  0.1465
  711MOL0     H93830  12.943   9.721   8.327  0.2830 -0.2342  0.4534
  711MOL0     H93831  13.118   9.712   8.310  0.0260  0.5642  1.8133
  711MOL0     H93832  12.960   9.920   8.161  2.2760 -0.2593 -0.6873
  711MOL0     H93833  13.132   9.925   8.217  0.2806  0.7071  0.4985
  711MOL0     H93834  12.835   9.002   8.227 -0.6354 -3.1330  2.0243
  711MOL0     H93835  12.689   8.824   8.102  0.1467 -1.1344 -2.0112
  711MOL0     H93836  12.816   8.261   7.843  0.7748 -0.4550  0.1207
  711MOL0     H93837  12.646   8.081   7.844  0.9955  0.6552 -0.7992
  711MOL0     H93838  10.637   7.603   7.369  0.9749 -1.3249 -3.9607
  711MOL0     H93839  10.404   7.599   7.456 -1.0504 -0.3369 -1.6966
  711MOL0     H93840   9.934   7.135   7.514 -0.3411 -0.4624  0.3522
  711MOL0     H93841   9.713   7.216   7.561  1.9626 -2.4174 -0.3122
  711MOL0     H93842   9.646   7.637   7.592  1.1100 -1.4925 -1.0787
  711MOL0     H93843   9.644   7.605   7.777  1.3650 -1.8193 -0.8100
  711MOL0     H93844   9.429   7.525   7.765 -1.5632 -0.8643 -1.7611
  711MOL0     H93845   9.446   7.709   7.732  2.4152  0.6931 -0.0322
  711MOL0     H93846   9.407   7.504   7.506  0.8852 -1.1443  1.0702
  711MOL0     H93847   9.409   7.685   7.500 -1.9779 -0.9835 -2.2452
  711MOL0     H93848   9.195   7.527   7.665  2.1970 -0.3189  0.6731
  711MOL0     H93849   9.197   7.701   7.619 -0.0708  1.3045 -3.9028
  711MOL0     H93850   9.078   7.503   7.268  0.9319 -0.0673 -1.3585
  711MOL0     H93851   9.865   7.609   7.638 -1.7400 -0.1867 -5.3493
  711MOL0     H93852  10.079   7.536   7.573  1.2791 -0.8094 -3.1241
  712MOL0     O93853   1.843  10.571   4.520  0.1658  0.7185 -0.1189
  712MOL0     C93854   1.921  10.586   4.622 -0.1548 -0.5019  0.5121
  712MOL0     O93855   1.884  10.572   4.761 -0.4376 -0.1057  1.0788
  712MOL0     C93856   1.759  10.532   4.789  0.7716  0.2189  0.5136
  712MOL0     C93857   1.689  10.607   4.893  0.5240 -0.0394 -0.3919
  712MOL0     C93858   1.562  10.556   4.946 -0.2472 -0.2508  0.1695
  712MOL0     C93859   1.502  10.443   4.886  0.6469  0.0352  0.3384
  712MOL0     O93860   1.378  10.414   4.939  0.1389  0.2644 -0.3291
  712MOL0     C93861   1.278  10.350   4.859  0.8416  0.2423 -0.1120
  712MOL0     C93862   1.165  10.304   4.957  0.0573  0.3280  0.1177
  712MOL0     C93863   1.037  10.258   4.885  0.5750 -1.4493 -0.3971
  712MOL0     C93864   0.922  10.369   4.900  0.0085 -0.4735 -0.0170
  712MOL0     C93865   0.792  10.339   4.820 -0.3723 -0.6308 -0.4084
  712MOL0     C93866   0.702  10.469   4.821 -0.2577  0.3856 -0.5089
  712MOL0     C93867   0.658  10.503   4.966 -0.4202  0.6052 -0.8007
  712MOL0     C93868   0.523  10.572   4.973  0.5251  0.0929 -0.3700
  712MOL0     N93869   0.502  10.608   5.116 -1.2156  0.4332  1.3851
  712MOL0     C93870   0.494  10.529   5.226 -0.1115  0.2721  0.3505
  712MOL0     C93871   0.477  10.628   5.324  0.2735 -0.8655 -0.3710
  712MOL0     C93872   0.445  10.586   5.472  0.8220 -0.2194  0.0717
  712MOL0     C93873   0.299  10.613   5.515  0.7773  0.2938  0.3205
  712MOL0     C93874   0.270  10.561   5.654 -0.0227 -0.1856 -0.2540
  712MOL0     C93875   0.123  10.551   5.697  0.6404 -0.1577  1.5046
  712MOL0     O93876   0.055  10.667   5.659 -0.4334  0.2508  0.8614
  712MOL0     C93877  -0.077  10.661   5.623  0.5154  0.7134  0.0740
  712MOL0     C93878  -0.168  10.560   5.663  0.0711  0.0089 -0.2753
  712MOL0     C93879  -0.298  10.552   5.614 -0.0986 -0.6308  0.9652
  712MOL0     C93880  -0.339  10.663   5.534 -0.3506 -0.5348  0.2688
  712MOL0     C93881  -0.487  10.676   5.496  0.4319 -0.7753  0.3570
  712MOL0     O93882  -0.568  10.578   5.541 -0.2318 -0.0322  0.5479
  712MOL0     C93883  -0.708  10.581   5.544  0.0678  0.9825 -0.1447
  712MOL0     C93884  -0.761  10.456   5.541 -0.1699  0.7593  1.1124
  712MOL0     C93885  -0.900  10.438   5.545  0.5354  0.0283 -0.7832
  712MOL0     C93886  -0.985  10.555   5.570 -0.0371 -0.7621  0.6253
  712MOL0     O93887  -1.122  10.555   5.593 -0.3957 -0.6019  0.1733
  712MOL0     C93888  -1.185  10.428   5.614  0.1048  0.0612  0.6272
  712MOL0     C93889  -1.326  10.434   5.660 -0.3523 -0.2551  0.1939
  712MOL0     C93890  -1.371  10.313   5.738 -0.3923 -1.1129  0.5616
  712MOL0     C93891  -1.497  10.343   5.817  0.2625  0.4399  0.3180
  712MOL0     C93892  -1.616  10.374   5.720 -0.9213 -0.5004  0.3771
  712MOL0     C93893  -1.757  10.384   5.776 -0.1165  0.2477  0.1535
  712MOL0     C93894  -1.759  10.501   5.879 -0.3096  0.3162  0.7345
  712MOL0     C93895  -1.862  10.472   5.989  0.1079  0.5818  0.8907
  712MOL0    Cl93896  -1.806  10.323   6.085  0.0251 -0.2266  0.4296
  712MOL0     C93897  -0.926  10.682   5.588  0.3030 -0.0029  0.3558
  712MOL0     C93898  -0.787  10.694   5.565  0.2602  0.1375  0.2061
  712MOL0     O93899  -0.526  10.765   5.422  0.2832 -0.4280 -0.4431
  712MOL0     C93900  -0.245  10.762   5.493  0.3882 -0.2515  1.0008
  712MOL0     C93901  -0.120  10.758   5.536  0.8490 -0.3797 -1.1583
  712MOL0     N93902   0.482  10.754   5.277 -0.0945  0.6021  1.2674
  712MOL0     N93903   0.487  10.743   5.148  0.1335  1.2034 -0.2183
  712MOL0     C93904   1.571  10.377   4.789  0.5063 -0.0164  0.8249
  712MOL0     C93905   1.697  10.417   4.743  0.1866 -0.4735 -0.0687
  712MOL0     C93906   2.069  10.607   4.596 -0.3541  0.1611 -0.4275
  712MOL0     C93907   2.121  10.584   4.475 -0.5205  0.9964  0.3384
  712MOL0     C93908   2.250  10.623   4.441 -0.1250  0.5072  0.4120
  712MOL0     C93909   2.334  10.673   4.545 -0.4041  0.1711  0.7155
  712MOL0     O93910   2.464  10.718   4.529 -0.1681 -0.2198  0.2002
  712MOL0     C93911   2.531  10.705   4.401 -0.4967 -0.6724 -0.7991
  712MOL0     C93912   2.631  10.602   4.389 -0.3337 -0.0535 -1.0044
  712MOL0     C93913   2.704  10.605   4.250 -0.4485  0.4819  0.3757
  712MOL0     C93914   2.699  10.457   4.188 -0.0569 -0.2129  0.3110
  712MOL0     C93915   2.809  10.386   4.262 -0.4715 -0.0864 -0.9905
  712MOL0     C93916   2.898  10.321   4.303 -0.1777  0.4001 -0.1650
  712MOL0     C93917   2.280  10.689   4.669 -0.1331  0.6038 -0.0026
  712MOL0     C93918   2.154  10.650   4.700 -0.2198  0.6974 -0.0331
  712MOL0     H93919   1.736  10.701   4.920  1.7847 -0.4025 -1.2703
  712MOL0     H93920   1.515  10.610   5.027  2.8104  1.3789  1.0145
  712MOL0     H93921   1.313  10.258   4.812 -2.7617 -1.7530  0.7489
  712MOL0     H93922   1.232  10.419   4.787 -0.4328  1.3318  1.6543
  712MOL0     H93923   1.140  10.378   5.035 -1.2890 -1.7872  1.8044
  712MOL0     H93924   1.204  10.217   5.010 -3.9038 -2.1012 -0.5253
  712MOL0     H93925   1.003  10.166   4.933 -3.2848  0.4859  0.9700
  712MOL0     H93926   1.063  10.235   4.781  3.2936 -0.6255  0.0139
  712MOL0     H93927   0.901  10.405   5.001  0.8022 -0.9220  0.3174
  712MOL0     H93928   0.972  10.454   4.852 -0.3759 -0.4148 -0.3174
  712MOL0     H93929   0.738  10.253   4.861  1.1773 -2.6718 -2.4249
  712MOL0     H93930   0.813  10.317   4.715  0.6099  2.0134 -0.8466
  712MOL0     H93931   0.611  10.463   4.760 -0.5096 -2.0531  0.0005
  712MOL0     H93932   0.751  10.549   4.765 -0.7769 -0.4332 -2.2033
  712MOL0     H93933   0.652  10.409   5.022  4.1297  1.1597  1.1103
  712MOL0     H93934   0.726  10.570   5.020  0.9309 -0.1588 -1.5254
  712MOL0     H93935   0.444  10.504   4.941  1.8052 -1.1192 -1.0535
  712MOL0     H93936   0.530  10.654   4.901  0.6120  0.9016  0.5399
  712MOL0     H93937   0.481  10.421   5.231 -1.4868  0.4816  2.2598
  712MOL0     H93938   0.513  10.639   5.538 -0.7909  0.3224  1.3664
  712MOL0     H93939   0.471  10.480   5.481  0.4089 -0.1760  2.3974
  712MOL0     H93940   0.224  10.562   5.454  2.4670 -2.8700  0.7188
  712MOL0     H93941   0.294  10.722   5.502  0.7407  0.2181 -0.3607
  712MOL0     H93942   0.303  10.457   5.660  0.7503  0.0723  0.0917
  712MOL0     H93943   0.325  10.625   5.724  2.1233  0.1813 -2.1824
  712MOL0     H93944   0.110  10.525   5.802  1.2998 -1.2183  1.3363
  712MOL0     H93945   0.088  10.464   5.639  1.0006  0.5521  0.1823
  712MOL0     H93946  -0.132  10.475   5.720  2.3791 -0.0116 -1.6186
  712MOL0     H93947  -0.367  10.471   5.639 -0.1265 -1.9105 -2.6102
  712MOL0     H93948  -0.686  10.384   5.513  0.0732  1.8321 -1.2790
  712MOL0     H93949  -0.940  10.338   5.530  0.7764 -0.1050 -0.5467
  712MOL0     H93950  -1.127  10.366   5.682 -1.8886 -0.9051  1.5299
  712MOL0     H93951  -1.196  10.371   5.521 -3.3699 -0.7136  1.3703
  712MOL0     H93952  -1.384  10.448   5.568  2.7548  2.4936 -1.5731
  712MOL0     H93953  -1.330  10.520   5.728 -0.7977 -1.7933  2.1952
  712MOL0     H93954  -1.299  10.281   5.815  1.3214 -0.4961 -0.7315
  712MOL0     H93955  -1.383  10.236   5.662 -2.4088  1.0833 -1.4996
  712MOL0     H93956  -1.520  10.267   5.892 -2.9679 -0.0145 -0.9820
  712MOL0     H93957  -1.483  10.426   5.886 -1.6416 -0.0806  1.3953
  712MOL0     H93958  -1.616  10.294   5.645 -1.6544 -0.9511  0.8358
  712MOL0     H93959  -1.603  10.474   5.679  0.4135  0.1355  2.2329
  712MOL0     H93960  -1.775  10.281   5.808 -0.8343  0.2250 -0.2961
  712MOL0     H93961  -1.828  10.421   5.700 -0.1951  1.9337  0.9955
  712MOL0     H93962  -1.667  10.510   5.937  0.4607 -1.2281 -0.1759
  712MOL0     H93963  -1.792  10.593   5.830 -0.9185 -1.0070 -1.4834
  712MOL0     H93964  -1.960  10.451   5.944  1.2496  0.2398 -1.6092
  712MOL0     H93965  -1.853  10.560   6.053  1.6176  1.8161 -0.9195
  712MOL0     H93966  -0.988  10.767   5.613  0.6260  1.1262 -2.4021
  712MOL0     H93967  -0.741  10.791   5.581  0.3400  0.3738 -1.3526
  712MOL0     H93968  -0.271  10.834   5.416 -2.1213 -1.1252  0.9547
  712MOL0     H93969  -0.037  10.821   5.503  0.1967  0.5675 -1.0482
  712MOL0     H93970   1.529  10.284   4.750 -2.4376  0.6826  2.0799
  712MOL0     H93971   1.754  10.353   4.677 -0.2970 -0.4380 -0.5359
  712MOL0     H93972   2.058  10.533   4.403 -0.6474  0.1206  1.0508
  712MOL0     H93973   2.271  10.615   4.335 -1.4790  2.0855 -0.0143
  712MOL0     H93974   2.579  10.799   4.373 -0.4781 -1.6296 -4.4368
  712MOL0     H93975   2.455  10.697   4.323 -0.4443 -0.7177 -0.8451
  712MOL0     H93976   2.715  10.620   4.457  0.0715  0.7578 -1.7056
  712MOL0     H93977   2.604  10.499   4.414  1.7815 -0.5044 -0.3276
  712MOL0     H93978   2.807  10.641   4.254 -0.9321  2.4047 -2.0459
  712MOL0     H93979   2.665  10.675   4.175  0.1654 -2.5389 -3.0261
  712MOL0     H93980   2.604  10.409   4.210  0.2370 -1.2682 -0.6618
  712MOL0     H93981   2.720  10.458   4.081 -4.0656  4.3567 -0.7987
  712MOL0     H93982   2.986  10.272   4.339 -0.3430  3.1584  5.0368
  712MOL0     H93983   2.340  10.728   4.751  0.1843  1.1370 -0.4811
  712MOL0     H93984   2.122  10.655   4.804  2.0658 -2.0756  0.9524
  713MOL0     O93985   1.202   6.874   6.122 -0.0391 -0.2018  0.4262
  713MOL0     C93986   1.107   6.825   6.183  0.8709 -0.5445 -0.4495
  713MOL0     O93987   1.110   6.736   6.288  0.0853  0.4252 -0.0628
  713MOL0     C93988   1.217   6.717   6.365 -0.2195  0.5410  0.6224
  713MOL0     C93989   1.311   6.820   6.395 -0.6717 -0.2034  0.9104
  713MOL0     C93990   1.406   6.811   6.504 -0.3408 -0.6428  0.7441
  713MOL0     C93991   1.398   6.690   6.575 -0.3549  0.2007 -0.4807
  713MOL0     O93992   1.477   6.665   6.684 -0.6081 -0.7900  0.1299
  713MOL0     C93993   1.617   6.705   6.676  0.6010  0.2534  0.8501
  713MOL0     C93994   1.688   6.625   6.794  1.3227  0.6932 -0.4243
  713MOL0     C93995   1.836   6.653   6.794 -0.8574 -0.4132 -0.2036
  713MOL0     C93996   1.855   6.804   6.815  0.1917  0.3241  0.6073
  713MOL0     C93997   1.991   6.845   6.869  0.0133 -0.2683  0.6090
  713MOL0     C93998   2.104   6.831   6.767  0.9264 -0.1280  0.2657
  713MOL0     C93999   2.245   6.838   6.824  0.4197  0.5887 -0.1224
  713MOL0     C94000   2.289   6.712   6.913 -0.1665 -0.6098  0.0791
  713MOL0     N94001   2.232   6.582   6.863  0.1131  0.0131  0.0901
  713MOL0     C94002   2.257   6.522   6.744 -0.6393  0.2057 -0.2467
  713MOL0     C94003   2.178   6.412   6.747 -0.4215  1.0868 -0.1886
  713MOL0     C94004   2.156   6.319   6.630  0.2010 -0.6850  0.0686
  713MOL0     C94005   2.011   6.319   6.582 -0.0264 -0.0474  0.2408
  713MOL0     C94006   1.974   6.418   6.475 -0.1194  0.7167  0.1096
  713MOL0     C94007   1.825   6.416   6.437 -0.3332 -0.5256 -0.4815
  713MOL0     O94008   1.789   6.303   6.353 -0.2171 -0.8390 -0.8105
  713MOL0     C94009   1.669   6.315   6.285  0.0113  0.3383  0.4351
  713MOL0     C94010   1.647   6.212   6.200  0.1909  0.3414 -0.0270
  713MOL0     C94011   1.528   6.209   6.132 -0.4378 -0.4888  0.0356
  713MOL0     C94012   1.431   6.310   6.148  0.6714 -0.1816 -0.3056
  713MOL0     C94013   1.301   6.306   6.067  0.2592 -0.6347  0.1231
  713MOL0     O94014   1.211   6.402   6.105 -0.2257 -0.4795  0.0847
  713MOL0     C94015   1.097   6.433   6.030 -0.2220  1.0041  0.5708
  713MOL0     C94016   1.079   6.552   5.959  0.6625  0.2916 -0.5516
  713MOL0     C94017   0.972   6.577   5.884 -0.0594 -0.3436  0.4233
  713MOL0     C94018   0.859   6.487   5.884 -0.5286 -0.8787  0.1078
  713MOL0     O94019   0.749   6.506   5.814 -0.4199  0.5222  0.8604
  713MOL0     C94020   0.710   6.634   5.753 -0.2500  0.0134 -0.7842
  713MOL0     C94021   0.574   6.611   5.695 -0.7635  0.1471  0.0940
  713MOL0     C94022   0.463   6.619   5.795 -0.6538 -0.7259  0.6484
  713MOL0     C94023   0.326   6.606   5.727 -0.4026 -0.7552 -0.6106
  713MOL0     C94024   0.208   6.606   5.826 -0.0101 -0.2158 -0.0443
  713MOL0     C94025   0.063   6.602   5.767 -0.2316 -0.2823  0.0219
  713MOL0     C94026   0.016   6.730   5.699  0.1093  0.0020  0.6171
  713MOL0     C94027  -0.145   6.733   5.720  0.4760  1.2954 -0.2561
  713MOL0    Cl94028  -0.221   6.641   5.583 -0.1776 -0.2420 -0.2359
  713MOL0     C94029   0.868   6.365   5.958 -0.3297 -1.2138  1.0190
  713MOL0     C94030   0.988   6.345   6.025  0.4455 -0.4176  0.6769
  713MOL0     O94031   1.289   6.232   5.964 -0.4696 -0.1534 -0.3124
  713MOL0     C94032   1.452   6.406   6.240  0.4590  0.6288 -0.5158
  713MOL0     C94033   1.570   6.418   6.305 -0.0317  0.3797 -1.1025
  713MOL0     N94034   2.111   6.401   6.866 -0.4479  0.6645  0.0313
  713MOL0     N94035   2.139   6.508   6.927 -0.3806 -0.1046 -1.4821
  713MOL0     C94036   1.310   6.593   6.541  0.8840  0.4521 -0.5286
  713MOL0     C94037   1.217   6.610   6.438  0.3226  1.4852  0.0454
  713MOL0     C94038   0.970   6.854   6.134  0.0324  0.0814  0.7216
  713MOL0     C94039   0.850   6.783   6.152 -0.8401  0.3313  0.5839
  713MOL0     C94040   0.724   6.806   6.085  0.1816  0.2696  0.0745
  713MOL0     C94041   0.709   6.927   6.013  0.1957 -1.1055 -0.1940
  713MOL0     O94042   0.586   6.983   5.966 -0.1211 -0.1459  0.1880
  713MOL0     C94043   0.459   6.958   6.031 -0.1451 -0.6088  0.2294
  713MOL0     C94044   0.425   7.053   6.149  0.1648 -1.2091  0.3749
  713MOL0     C94045   0.534   7.062   6.258 -0.8073  0.2438  0.4024
  713MOL0     C94046   0.516   7.179   6.360  0.3975 -0.6442 -0.1349
  713MOL0     C94047   0.635   7.194   6.445  0.3060  0.3366 -0.6390
  713MOL0     C94048   0.728   7.215   6.518 -0.3588  0.3909  0.5284
  713MOL0     C94049   0.823   7.002   6.000  0.7346 -0.4803  0.5537
  713MOL0     C94050   0.949   6.969   6.048  0.4003 -0.9412  0.3437
  713MOL0     H94051   1.311   6.916   6.345  1.1586  0.5822  2.3018
  713MOL0     H94052   1.477   6.889   6.527  1.0693 -0.9489 -2.0645
  713MOL0     H94053   1.614   6.811   6.702  1.4434  0.0289  1.9644
  713MOL0     H94054   1.663   6.678   6.580 -1.1666 -3.2647  0.8280
  713MOL0     H94055   1.672   6.518   6.780  1.0440  0.5720  0.7440
  713MOL0     H94056   1.640   6.656   6.887  0.2164  4.5967 -2.0750
  713MOL0     H94057   1.883   6.632   6.698  3.8506  1.8229  1.3100
  713MOL0     H94058   1.886   6.597   6.874  0.5778  0.9768 -0.0906
  713MOL0     H94059   1.835   6.856   6.721 -0.6548 -0.1409  0.5199
  713MOL0     H94060   1.786   6.835   6.894 -1.1124  0.8876 -0.7189
  713MOL0     H94061   2.025   6.783   6.952  0.2844 -0.9498  0.0016
  713MOL0     H94062   1.979   6.947   6.907 -0.1024 -0.9847  2.6372
  713MOL0     H94063   2.096   6.908   6.690  0.2690 -1.1237 -0.6997
  713MOL0     H94064   2.088   6.729   6.730 -0.0065  0.0448  0.1436
  713MOL0     H94065   2.314   6.842   6.740  1.6070  1.1884  0.8573
  713MOL0     H94066   2.272   6.934   6.870  3.1729 -0.2395  0.1507
  713MOL0     H94067   2.264   6.728   7.019 -3.4454 -2.1673 -0.3332
  713MOL0     H94068   2.398   6.698   6.912  0.1358  0.8075 -4.1675
  713MOL0     H94069   2.323   6.563   6.669 -3.4270  0.8778 -2.4953
  713MOL0     H94070   2.184   6.216   6.653  3.8217  0.7005  2.7680
  713MOL0     H94071   2.219   6.349   6.546  1.7167  0.7798  1.6307
  713MOL0     H94072   1.939   6.325   6.664  1.3091 -1.7272  1.6128
  713MOL0     H94073   1.995   6.228   6.524  0.0291  1.9491 -3.1724
  713MOL0     H94074   1.999   6.519   6.508 -1.0573  1.4733 -1.3724
  713MOL0     H94075   2.037   6.403   6.386 -0.6146 -0.3178 -0.0735
  713MOL0     H94076   1.811   6.499   6.368 -0.7474 -1.3348 -1.3930
  713MOL0     H94077   1.763   6.424   6.527 -2.7343  2.2779 -2.1888
  713MOL0     H94078   1.721   6.134   6.184  0.1726  0.6620 -1.7773
  713MOL0     H94079   1.516   6.130   6.059  0.6024 -2.6361  2.0859
  713MOL0     H94080   1.162   6.623   5.966  0.9050 -0.1354  1.6172
  713MOL0     H94081   0.962   6.674   5.837  3.9453  0.2269  0.4329
  713MOL0     H94082   0.770   6.667   5.668 -1.1220  1.2341 -0.9462
  713MOL0     H94083   0.707   6.720   5.821 -1.8612  0.9749 -2.0014
  713MOL0     H94084   0.587   6.516   5.642  1.0552  0.4249 -0.0199
  713MOL0     H94085   0.551   6.671   5.606  2.4874 -0.2758 -1.1533
  713MOL0     H94086   0.461   6.720   5.838 -3.3689 -0.5847  0.3733
  713MOL0     H94087   0.488   6.546   5.873 -1.0837 -1.7399 -0.1367
  713MOL0     H94088   0.307   6.681   5.650  2.3897  0.2608 -0.4235
  713MOL0     H94089   0.328   6.513   5.670  0.8315  1.2692 -4.1535
  713MOL0     H94090   0.215   6.688   5.898 -3.6168 -2.2766  3.0589
  713MOL0     H94091   0.221   6.521   5.894  0.7422  0.4157  0.6301
  713MOL0     H94092  -0.010   6.571   5.842 -0.4403 -3.1268 -1.2312
  713MOL0     H94093   0.061   6.524   5.690  2.9848  0.0685 -0.5771
  713MOL0     H94094   0.071   6.814   5.742 -0.6959  2.3707 -2.5513
  713MOL0     H94095   0.039   6.727   5.592  0.0127 -1.3860  0.6108
  713MOL0     H94096  -0.180   6.836   5.710 -0.6034  0.8395 -1.4423
  713MOL0     H94097  -0.172   6.694   5.818  0.1193 -0.4822 -1.0187
  713MOL0     H94098   0.781   6.301   5.971 -1.2075 -0.2113  0.1746
  713MOL0     H94099   1.003   6.248   6.072  1.0493 -0.6299  0.0773
  713MOL0     H94100   1.379   6.486   6.251 -2.9907 -2.3800  0.5054
  713MOL0     H94101   1.571   6.500   6.376 -2.1913 -0.5702  0.1402
  713MOL0     H94102   1.324   6.505   6.604  3.4106  1.1361 -0.0010
  713MOL0     H94103   1.144   6.535   6.411  2.3893  0.4010 -3.0048
  713MOL0     H94104   0.859   6.694   6.214  1.5933  1.2050  1.6400
  713MOL0     H94105   0.644   6.733   6.084 -1.2780  1.7060  2.1637
  713MOL0     H94106   0.463   6.857   6.074 -1.8486 -0.1823  1.4969
  713MOL0     H94107   0.377   6.961   5.958 -0.5820 -2.0502  0.6254
  713MOL0     H94108   0.406   7.156   6.120  3.5273 -0.8656 -1.0294
  713MOL0     H94109   0.330   7.027   6.197 -2.0156  1.4123 -2.2203
  713MOL0     H94110   0.637   7.062   6.221  0.7742 -0.5592  4.3183
  713MOL0     H94111   0.534   6.965   6.308  0.5095 -1.2614 -2.2778
  713MOL0     H94112   0.482   7.273   6.316 -1.6070 -1.2997 -0.1292
  713MOL0     H94113   0.434   7.144   6.423 -1.0320  0.7765 -1.1194
  713MOL0     H94114   0.802   7.243   6.589 -1.0411  2.4867  0.5056
  713MOL0     H94115   0.812   7.094   5.943  2.1932 -1.0644 -0.7537
  713MOL0     H94116   1.021   7.039   6.007 -0.8830  1.4879  2.0550
  714MOL0     O94117   0.369   2.961   1.096 -0.7181 -0.4758 -0.7013
  714MOL0     C94118   0.424   2.967   0.991 -0.3257  0.9432 -0.2283
  714MOL0     O94119   0.370   2.923   0.871  0.3864  0.0059  0.0265
  714MOL0     C94120   0.241   2.893   0.847  0.1863 -0.3329  0.0550
  714MOL0     C94121   0.229   2.827   0.729 -0.5178 -0.3659 -0.0191
  714MOL0     C94122   0.097   2.795   0.674 -0.1977  0.0983 -0.5129
  714MOL0     C94123  -0.014   2.836   0.750 -0.4425 -0.1046 -1.1503
  714MOL0     O94124  -0.141   2.822   0.699  0.2071 -0.2646  0.4323
  714MOL0     C94125  -0.174   2.675   0.685  0.0331  0.1803  0.5436
  714MOL0     C94126  -0.316   2.662   0.636 -0.1027 -0.3229  0.2600
  714MOL0     C94127  -0.418   2.709   0.740 -0.1119 -0.3958 -0.0769
  714MOL0     C94128  -0.566   2.691   0.694  0.4668 -0.2478  0.5382
  714MOL0     C94129  -0.671   2.757   0.803 -1.6226  0.1503  0.9729
  714MOL0     C94130  -0.615   2.737   0.950  0.0947  0.6666  0.2159
  714MOL0     C94131  -0.719   2.783   1.053 -1.0802  0.8944 -0.8561
  714MOL0     C94132  -0.689   2.782   1.205 -0.8148 -0.7463  0.2916
  714MOL0     N94133  -0.813   2.811   1.278 -0.7992  0.6489  0.4259
  714MOL0     C94134  -0.872   2.933   1.286 -0.0949 -0.0162  0.9102
  714MOL0     C94135  -0.978   2.915   1.369 -0.0564  0.9219  0.1227
  714MOL0     C94136  -1.049   3.038   1.427 -0.0885 -0.7060  0.4544
  714MOL0     C94137  -1.146   3.020   1.556 -0.1226 -0.7835 -0.1311
  714MOL0     C94138  -1.236   2.897   1.564  0.7102 -0.8997  0.4707
  714MOL0     C94139  -1.320   2.917   1.694  0.7271  0.0960  0.2979
  714MOL0     O94140  -1.418   3.021   1.681 -0.6089  0.0060 -0.4417
  714MOL0     C94141  -1.516   3.027   1.780 -0.1665  0.0032  0.0062
  714MOL0     C94142  -1.519   2.979   1.906  0.7449 -0.0762  0.1400
  714MOL0     C94143  -1.621   3.002   1.998  0.8633 -0.0402 -0.1753
  714MOL0     C94144  -1.737   3.069   1.955 -0.2613  0.0526 -0.9776
  714MOL0     C94145  -1.850   3.086   2.051  0.5482 -0.2834 -1.2302
  714MOL0     O94146  -1.946   3.173   2.016 -0.2636 -0.0496 -1.0584
  714MOL0     C94147  -2.060   3.177   2.092  0.3402 -0.1502  0.6412
  714MOL0     C94148  -2.138   3.067   2.130  0.4193  0.0554 -0.3543
  714MOL0     C94149  -2.266   3.081   2.188 -0.2991  0.0306  0.2791
  714MOL0     C94150  -2.309   3.209   2.213 -0.2281 -0.4223  0.5311
  714MOL0     O94151  -2.428   3.245   2.266 -1.0041 -0.4657  0.6586
  714MOL0     C94152  -2.504   3.147   2.318  0.6031 -0.0224  0.7923
  714MOL0     C94153  -2.615   3.194   2.401 -0.2639 -0.1618  0.0979
  714MOL0     C94154  -2.582   3.219   2.550 -0.9652 -0.2898  0.4045
  714MOL0     C94155  -2.699   3.252   2.637 -0.4809  0.6568  1.3982
  714MOL0     C94156  -2.832   3.300   2.567 -0.5860 -0.3499 -0.8014
  714MOL0     C94157  -2.950   3.286   2.663 -0.4123  0.0022  0.4743
  714MOL0     C94158  -2.935   3.374   2.782 -0.5054  0.8435  0.2763
  714MOL0     C94159  -3.055   3.352   2.875 -0.3466 -0.8362  0.5383
  714MOL0    Cl94160  -3.204   3.429   2.801 -0.1807 -0.6097 -0.6032
  714MOL0     C94161  -2.227   3.330   2.187 -0.2425  0.6960 -0.6287
  714MOL0     C94162  -2.107   3.305   2.125 -0.4864  0.7060 -0.5670
  714MOL0     O94163  -1.864   3.003   2.149 -0.2972  0.1042  0.6445
  714MOL0     C94164  -1.740   3.124   1.825 -0.6184  0.0478 -0.1431
  714MOL0     C94165  -1.630   3.109   1.740  0.1450  0.0288  0.4178
  714MOL0     N94166  -0.977   2.782   1.404  0.2361  0.3605  1.0059
  714MOL0     N94167  -0.889   2.713   1.347 -0.3248 -0.0247 -0.9878
  714MOL0     C94168  -0.010   2.906   0.868 -0.0193 -0.0877  0.2039
  714MOL0     C94169   0.123   2.938   0.921  0.0733  0.4892  0.1379
  714MOL0     C94170   0.566   3.009   0.993 -0.2074 -1.0004  0.0380
  714MOL0     C94171   0.652   2.942   0.912 -0.4011  0.5703 -0.0163
  714MOL0     C94172   0.787   2.951   0.941 -0.0730 -0.5109  0.6301
  714MOL0     C94173   0.838   3.057   1.023  0.7492 -0.3954  0.3258
  714MOL0     O94174   0.976   3.080   1.035  0.2311  0.2439 -0.4585
  714MOL0     C94175   1.030   3.200   1.092 -0.3776  0.3231 -0.9253
  714MOL0     C94176   1.181   3.202   1.131 -0.2277 -0.5526  0.5119
  714MOL0     C94177   1.216   3.329   1.213 -0.0760 -0.0600  0.0059
  714MOL0     C94178   1.204   3.453   1.123 -0.8456 -0.9396 -0.1844
  714MOL0     C94179   1.261   3.573   1.188 -0.0969 -0.2835 -0.2288
  714MOL0     C94180   1.317   3.673   1.237  0.5788 -0.0950  0.2651
  714MOL0     C94181   0.738   3.134   1.093  0.2949  0.1240 -0.4444
  714MOL0     C94182   0.608   3.102   1.086 -0.4154 -0.1644  0.8252
  714MOL0     H94183   0.318   2.804   0.672  2.0942  2.4248  2.5612
  714MOL0     H94184   0.085   2.730   0.588  1.3725 -2.4721  1.0690
  714MOL0     H94185  -0.150   2.624   0.779  0.6183 -5.0726 -2.1247
  714MOL0     H94186  -0.116   2.624   0.607  3.3352  3.4041  0.6328
  714MOL0     H94187  -0.342   2.559   0.607 -1.3363  1.0379 -4.2845
  714MOL0     H94188  -0.333   2.714   0.541  2.0240 -1.7213 -0.9690
  714MOL0     H94189  -0.398   2.816   0.746 -0.2451 -0.3733 -0.0284
  714MOL0     H94190  -0.390   2.649   0.828  1.7338 -2.6822 -2.0627
  714MOL0     H94191  -0.570   2.743   0.598  3.5493 -0.5381  0.1711
  714MOL0     H94192  -0.592   2.585   0.678  0.1461  0.1341 -1.8121
  714MOL0     H94193  -0.773   2.720   0.794 -1.4176  0.0157 -1.9270
  714MOL0     H94194  -0.660   2.864   0.781  2.4589 -0.4948 -1.2182
  714MOL0     H94195  -0.522   2.794   0.958  0.9676 -0.8647  1.7022
  714MOL0     H94196  -0.595   2.630   0.965 -1.8305  0.2316 -0.0980
  714MOL0     H94197  -0.757   2.882   1.025  1.1543  1.5477 -1.7610
  714MOL0     H94198  -0.794   2.704   1.040  1.1150 -1.3424 -0.5318
  714MOL0     H94199  -0.623   2.865   1.235 -0.1081 -0.8616 -0.8805
  714MOL0     H94200  -0.646   2.688   1.241 -0.5641 -0.7852 -0.0984
  714MOL0     H94201  -0.828   3.029   1.259 -1.4926  0.1159 -1.1286
  714MOL0     H94202  -1.099   3.098   1.351  1.6319  0.7218  0.3720
  714MOL0     H94203  -0.969   3.107   1.458 -0.5492 -1.3005  3.2466
  714MOL0     H94204  -1.206   3.111   1.554 -0.5173 -1.0372 -2.0195
  714MOL0     H94205  -1.082   3.013   1.645  1.1115 -0.2418 -0.9390
  714MOL0     H94206  -1.294   2.883   1.472  0.1965 -3.4156  1.1026
  714MOL0     H94207  -1.174   2.808   1.579  0.1613 -2.1504 -3.4890
  714MOL0     H94208  -1.257   2.943   1.780  0.0342 -1.0447  1.1961
  714MOL0     H94209  -1.374   2.825   1.720 -0.0427  0.4899  0.1276
  714MOL0     H94210  -1.436   2.916   1.938  2.4990  0.4717 -2.8774
  714MOL0     H94211  -1.607   2.940   2.086  1.0203 -0.6629 -0.6292
  714MOL0     H94212  -2.107   2.968   2.099 -2.3387 -0.7040 -0.8963
  714MOL0     H94213  -2.326   2.993   2.212 -1.4386  0.7455  0.1457
  714MOL0     H94214  -2.453   3.079   2.386 -0.3478  1.6055  3.2553
  714MOL0     H94215  -2.533   3.084   2.233  4.9106 -0.8766 -0.2905
  714MOL0     H94216  -2.688   3.113   2.399  1.8820 -2.2564 -2.7025
  714MOL0     H94217  -2.655   3.284   2.353 -1.1389 -0.5186  0.1469
  714MOL0     H94218  -2.502   3.294   2.554 -1.6565  0.4914 -0.0194
  714MOL0     H94219  -2.529   3.136   2.598 -0.7735 -1.2669 -1.4029
  714MOL0     H94220  -2.708   3.159   2.694  1.4663  0.2804  1.1579
  714MOL0     H94221  -2.665   3.330   2.705 -1.2201  0.6373  1.7935
  714MOL0     H94222  -2.848   3.246   2.473 -1.1388  0.9808 -1.4937
  714MOL0     H94223  -2.835   3.408   2.554 -3.7262 -0.2868 -0.2213
  714MOL0     H94224  -2.951   3.179   2.688  0.5608 -1.0092 -3.1735
  714MOL0     H94225  -3.036   3.316   2.603  0.5736  1.7664 -0.1118
  714MOL0     H94226  -2.842   3.353   2.835 -0.1909  1.3988 -0.0387
  714MOL0     H94227  -2.932   3.479   2.752 -0.8660  1.4602  2.2512
  714MOL0     H94228  -3.043   3.406   2.969 -2.3915  2.1008 -0.7391
  714MOL0     H94229  -3.067   3.246   2.902  0.6472 -0.6619  1.7507
  714MOL0     H94230  -2.257   3.433   2.200 -0.8905  0.3317  1.0010
  714MOL0     H94231  -2.062   3.395   2.084  0.2305  0.6874  0.1638
  714MOL0     H94232  -1.834   3.174   1.805 -2.3795 -2.2687  1.6529
  714MOL0     H94233  -1.638   3.152   1.641 -4.8164  1.0631  1.0515
  714MOL0     H94234  -0.101   2.930   0.922  0.0144 -1.4921  0.9506
  714MOL0     H94235   0.132   2.998   1.011  2.0129 -0.1453  0.4262
  714MOL0     H94236   0.612   2.868   0.843 -1.6390 -0.3561  1.6282
  714MOL0     H94237   0.867   2.896   0.893 -0.5401 -0.3091 -0.4196
  714MOL0     H94238   0.978   3.228   1.184 -1.4360  0.7311 -1.6370
  714MOL0     H94239   1.001   3.273   1.016 -0.4339 -0.5973 -1.8093
  714MOL0     H94240   1.191   3.111   1.191 -1.2053  0.9630  3.1899
  714MOL0     H94241   1.246   3.201   1.043 -0.6432  1.7149  0.0984
  714MOL0     H94242   1.320   3.321   1.244 -0.9618 -1.8362  3.0003
  714MOL0     H94243   1.160   3.328   1.307 -3.7736  0.2899 -2.0055
  714MOL0     H94244   1.262   3.438   1.031  0.8009  0.5021  0.5653
  714MOL0     H94245   1.099   3.468   1.098 -0.4780  1.2513 -0.5865
  714MOL0     H94246   1.381   3.751   1.271 -0.8850  0.6800  1.3877
  714MOL0     H94247   0.762   3.211   1.166 -1.8839 -0.9967  1.5722
  714MOL0     H94248   0.538   3.156   1.149 -0.3916 -0.1254  0.8187
  715MOL0     O94249   1.188   6.740   4.376  0.1187 -0.1166 -0.0041
  715MOL0     C94250   1.165   6.741   4.498 -0.0172 -0.3232  1.5758
  715MOL0     O94251   1.048   6.725   4.559  0.2490 -0.4303 -0.4623
  715MOL0     C94252   0.932   6.677   4.501  0.8967 -0.4969 -0.0553
  715MOL0     C94253   0.925   6.606   4.382  0.7324 -0.6835 -0.4459
  715MOL0     C94254   0.796   6.575   4.336  0.5025 -0.8598  0.0228
  715MOL0     C94255   0.680   6.588   4.408  0.6162  0.1623 -0.3727
  715MOL0     O94256   0.560   6.540   4.363  0.1910  0.1748 -0.2380
  715MOL0     C94257   0.439   6.630   4.389 -0.7449  0.1675 -0.2883
  715MOL0     C94258   0.323   6.596   4.297 -0.2000 -0.1922  0.7932
  715MOL0     C94259   0.177   6.632   4.333 -0.5015 -0.2987  0.5367
  715MOL0     C94260   0.118   6.551   4.452 -0.6975 -0.1697 -0.6956
  715MOL0     C94261   0.118   6.389   4.450  0.4274 -0.5008  0.0468
  715MOL0     C94262   0.063   6.347   4.312 -0.6634 -0.2133 -0.4624
  715MOL0     C94263  -0.082   6.410   4.281  1.0546 -0.2947  0.1884
  715MOL0     C94264  -0.148   6.343   4.157 -0.3900 -0.0460  1.0202
  715MOL0     N94265  -0.286   6.385   4.128  0.0866 -0.3719 -0.0351
  715MOL0     C94266  -0.398   6.311   4.162  0.4897  0.3497  0.1464
  715MOL0     C94267  -0.505   6.378   4.109 -0.5042  1.3641 -0.1182
  715MOL0     C94268  -0.647   6.367   4.141  0.0299 -0.3886  0.6646
  715MOL0     C94269  -0.683   6.223   4.096 -0.1139  0.2646 -0.5087
  715MOL0     C94270  -0.687   6.203   3.943  0.3605 -0.6143  0.2141
  715MOL0     C94271  -0.744   6.319   3.855  0.4270 -0.6137 -0.6774
  715MOL0     O94272  -0.877   6.352   3.900 -0.4062 -0.2714 -0.2804
  715MOL0     C94273  -0.986   6.292   3.832  0.5469 -1.0225 -0.3117
  715MOL0     C94274  -1.035   6.345   3.717 -0.4310 -1.1839  0.4082
  715MOL0     C94275  -1.157   6.307   3.662 -0.2070 -0.4700  0.9105
  715MOL0     C94276  -1.239   6.211   3.722  0.3263  0.3593 -0.1504
  715MOL0     C94277  -1.372   6.175   3.675  0.4823  0.1197  0.4434
  715MOL0     O94278  -1.425   6.252   3.583 -0.1492  0.3249  0.2534
  715MOL0     C94279  -1.547   6.241   3.522 -0.3566  0.2475 -0.6187
  715MOL0     C94280  -1.555   6.302   3.397 -0.4173 -0.3149  0.1994
  715MOL0     C94281  -1.672   6.301   3.318 -1.1367 -0.6722 -0.0595
  715MOL0     C94282  -1.781   6.236   3.372  0.7735  0.1957 -0.2282
  715MOL0     O94283  -1.901   6.252   3.307  0.1502  0.3251 -0.4337
  715MOL0     C94284  -2.024   6.235   3.380 -0.0463 -0.3858  0.2958
  715MOL0     C94285  -2.126   6.329   3.320 -0.0288 -0.5144 -0.1090
  715MOL0     C94286  -2.275   6.289   3.334 -0.1742  0.6636  0.3698
  715MOL0     C94287  -2.332   6.269   3.473 -0.1335 -0.4872  0.3685
  715MOL0     C94288  -2.482   6.246   3.479  0.0099 -0.0211 -0.4219
  715MOL0     C94289  -2.530   6.136   3.380 -0.2752 -0.3969 -0.2953
  715MOL0     C94290  -2.676   6.099   3.399  0.1047 -0.8999  0.6861
  715MOL0     C94291  -2.699   5.957   3.335 -0.5077 -0.6907 -0.5163
  715MOL0    Cl94292  -2.715   5.978   3.156  0.0402  0.1682 -0.2275
  715MOL0     C94293  -1.771   6.175   3.502  0.0219 -0.7950 -0.7097
  715MOL0     C94294  -1.655   6.182   3.572  0.4860  0.5323 -0.5155
  715MOL0     O94295  -1.423   6.071   3.721  0.4964  0.6271  0.0092
  715MOL0     C94296  -1.186   6.146   3.836  0.1215  0.4115 -0.0261
  715MOL0     C94297  -1.064   6.191   3.898  0.0370  0.0684 -0.9298
  715MOL0     N94298  -0.461   6.479   4.025  0.2323  0.0571  0.2770
  715MOL0     N94299  -0.326   6.483   4.044  0.1376 -0.5242  0.0483
  715MOL0     C94300   0.691   6.653   4.529 -0.1892  0.0473  0.2398
  715MOL0     C94301   0.809   6.707   4.576 -0.6580  0.9203  0.3771
  715MOL0     C94302   1.283   6.784   4.578  0.4518 -0.4505  0.5420
  715MOL0     C94303   1.264   6.814   4.711 -0.4952  0.4619 -0.0897
  715MOL0     C94304   1.374   6.856   4.794  0.1894 -0.4477  0.7295
  715MOL0     C94305   1.509   6.858   4.734  0.3854 -1.0768 -0.0531
  715MOL0     O94306   1.625   6.894   4.805  0.0157  0.3173  0.1152
  715MOL0     C94307   1.613   6.975   4.918  0.1269  0.4213 -0.5415
  715MOL0     C94308   1.747   6.980   4.986 -0.8427 -0.0165  0.3158
  715MOL0     C94309   1.791   6.863   5.062 -0.1570 -0.4801 -0.4905
  715MOL0     C94310   1.939   6.858   5.076 -1.1747 -0.4584 -0.4580
  715MOL0     C94311   1.982   6.963   5.177 -0.5767 -0.6530  0.5051
  715MOL0     C94312   2.038   7.031   5.261  0.4702  0.5989 -0.5580
  715MOL0     C94313   1.524   6.839   4.599  0.2352 -0.3606 -0.8977
  715MOL0     C94314   1.415   6.808   4.522  0.2819 -0.0078 -0.5528
  715MOL0     H94315   1.010   6.570   4.324  2.0584 -0.7340  1.4629
  715MOL0     H94316   0.792   6.519   4.244  0.6883 -1.5489  0.4273
  715MOL0     H94317   0.465   6.736   4.396 -1.2013  0.3003 -0.5319
  715MOL0     H94318   0.404   6.607   4.491  0.1031 -4.1279 -0.7831
  715MOL0     H94319   0.324   6.490   4.270  1.7394  0.3470 -1.6383
  715MOL0     H94320   0.345   6.645   4.202 -0.2281  0.2222  0.9969
  715MOL0     H94321   0.121   6.604   4.242 -2.0017  4.0379 -0.1173
  715MOL0     H94322   0.166   6.739   4.350  0.6761  0.0273 -0.6109
  715MOL0     H94323   0.163   6.581   4.547 -2.4530 -0.6442  0.3215
  715MOL0     H94324   0.015   6.587   4.459 -0.5274  0.1131  0.5901
  715MOL0     H94325   0.047   6.345   4.521 -1.5950 -3.2568 -3.3381
  715MOL0     H94326   0.220   6.352   4.468  0.9522  0.8507 -0.0087
  715MOL0     H94327   0.058   6.239   4.301  0.1901 -0.2844 -0.1816
  715MOL0     H94328   0.140   6.381   4.242 -0.3637  0.9814  0.4142
  715MOL0     H94329  -0.153   6.387   4.361  0.0298 -0.8131 -0.8393
  715MOL0     H94330  -0.088   6.517   4.261 -3.6302 -0.4714 -0.4140
  715MOL0     H94331  -0.143   6.237   4.180  0.9061  0.5435  3.9167
  715MOL0     H94332  -0.085   6.366   4.070 -1.1899  0.2840  0.5051
  715MOL0     H94333  -0.408   6.242   4.245  4.5365  1.0052  1.4419
  715MOL0     H94334  -0.705   6.444   4.090  1.6627  0.8336  0.6022
  715MOL0     H94335  -0.661   6.376   4.249  2.1546 -3.8580  1.3984
  715MOL0     H94336  -0.783   6.199   4.134  0.4513 -1.9790 -0.3370
  715MOL0     H94337  -0.616   6.154   4.147 -0.5582  1.7186  2.2134
  715MOL0     H94338  -0.585   6.190   3.907 -0.6306  2.6440 -4.8118
  715MOL0     H94339  -0.741   6.108   3.928  1.2278 -1.3345  1.4871
  715MOL0     H94340  -0.746   6.292   3.749 -3.2933  2.4209 -1.5703
  715MOL0     H94341  -0.682   6.409   3.862 -0.3926  0.2740 -3.6007
  715MOL0     H94342  -0.977   6.430   3.682 -0.2818 -1.6521 -0.5243
  715MOL0     H94343  -1.188   6.360   3.572  0.3242 -0.6965  0.5836
  715MOL0     H94344  -1.475   6.355   3.346  0.5760 -2.3172 -0.4446
  715MOL0     H94345  -1.676   6.357   3.225 -0.0441 -0.0017  0.2782
  715MOL0     H94346  -2.010   6.240   3.489  1.5811  0.8202  0.0778
  715MOL0     H94347  -2.063   6.134   3.362 -0.1539  0.1807 -3.2807
  715MOL0     H94348  -2.100   6.341   3.214 -1.1914 -3.0477 -0.7700
  715MOL0     H94349  -2.129   6.430   3.363 -0.7468  0.3409 -2.0267
  715MOL0     H94350  -2.285   6.195   3.278  1.0432  0.4413  0.4852
  715MOL0     H94351  -2.332   6.370   3.290 -1.1996 -0.5189 -0.5606
  715MOL0     H94352  -2.302   6.180   3.530  1.5585  0.8488  1.6835
  715MOL0     H94353  -2.295   6.358   3.525  2.7979 -0.5088 -1.4496
  715MOL0     H94354  -2.524   6.346   3.465 -2.1245 -1.1415 -3.0656
  715MOL0     H94355  -2.506   6.223   3.583 -3.9254  1.3731 -0.8518
  715MOL0     H94356  -2.464   6.050   3.398 -0.7672 -0.3071  2.3013
  715MOL0     H94357  -2.515   6.169   3.277  2.4945 -1.0123 -0.1699
  715MOL0     H94358  -2.695   6.102   3.506  1.1686  2.8918  0.9193
  715MOL0     H94359  -2.744   6.170   3.351  2.3140  0.3122 -0.8336
  715MOL0     H94360  -2.792   5.908   3.367 -0.1939 -2.8632 -2.5781
  715MOL0     H94361  -2.615   5.893   3.364  0.6209  0.7434 -0.5187
  715MOL0     H94362  -1.853   6.121   3.550  1.1600 -1.5128  0.4934
  715MOL0     H94363  -1.647   6.150   3.675 -0.9469  1.4109 -0.1015
  715MOL0     H94364  -1.232   6.059   3.881 -0.1927 -1.1890 -3.1376
  715MOL0     H94365  -1.016   6.159   3.990  1.5553 -1.2571 -2.1113
  715MOL0     H94366   0.599   6.666   4.586 -2.3321 -1.6098 -2.6033
  715MOL0     H94367   0.812   6.748   4.676  2.1048 -0.0642  0.7816
  715MOL0     H94368   1.167   6.805   4.760 -0.4535 -1.8066 -0.3033
  715MOL0     H94369   1.350   6.852   4.900  0.9155  1.1813  0.9780
  715MOL0     H94370   1.553   6.924   4.994  2.2070  1.9372  2.3255
  715MOL0     H94371   1.560   7.068   4.897 -1.3130 -0.0004  0.9379
  715MOL0     H94372   1.821   7.008   4.910 -0.3170 -2.0433 -0.0063
  715MOL0     H94373   1.754   7.062   5.057  2.6464  2.1366 -2.2228
  715MOL0     H94374   1.767   6.768   5.013 -2.1715  0.1992 -0.9243
  715MOL0     H94375   1.747   6.860   5.163  1.4431 -2.6954  0.2173
  715MOL0     H94376   1.982   6.761   5.101  1.1454 -0.1287 -2.7163
  715MOL0     H94377   1.986   6.878   4.979 -1.0080  0.9528 -0.1097
  715MOL0     H94378   2.096   7.080   5.337 -0.8965  2.3798 -0.5922
  715MOL0     H94379   1.625   6.840   4.557  0.6970  1.4922  0.1479
  715MOL0     H94380   1.431   6.804   4.415 -0.3782 -2.2177 -0.6196
  716MOL0     O94381   7.523  10.455   7.650 -0.1984 -0.5335 -0.1938
  716MOL0     C94382   7.564  10.555   7.714  0.4417 -0.3178 -0.0104
  716MOL0     O94383   7.490  10.633   7.801  0.1171  0.0544  0.5614
  716MOL0     C94384   7.356  10.622   7.789  1.0171 -0.5810 -0.2271
  716MOL0     C94385   7.290  10.508   7.832 -0.2654  0.2685 -0.4248
  716MOL0     C94386   7.148  10.497   7.821 -0.3242  0.2095 -0.0339
  716MOL0     C94387   7.072  10.599   7.762 -0.9258 -0.8936  0.1519
  716MOL0     O94388   6.937  10.603   7.753  0.7667 -0.3526  0.4980
  716MOL0     C94389   6.857  10.524   7.840 -0.3587 -0.1538 -0.0802
  716MOL0     C94390   6.720  10.523   7.808  0.5588 -0.4399 -0.8138
  716MOL0     C94391   6.664  10.472   7.671  0.2280 -0.1698 -0.2590
  716MOL0     C94392   6.526  10.523   7.626 -0.6196 -0.2373  0.4704
  716MOL0     C94393   6.411  10.476   7.708  0.5597  0.0431  0.4321
  716MOL0     C94394   6.279  10.522   7.646  0.3971 -0.0197  0.5374
  716MOL0     C94395   6.167  10.490   7.745 -0.2137  0.6964 -0.0261
  716MOL0     C94396   6.117  10.355   7.713  0.7991  0.2553  0.1060
  716MOL0     N94397   5.977  10.329   7.759 -0.0636 -0.1681  0.2591
  716MOL0     C94398   5.895  10.411   7.832  0.2800  0.2480 -0.3673
  716MOL0     C94399   5.777  10.347   7.854 -0.0581  0.0185 -0.4149
  716MOL0     C94400   5.668  10.405   7.946  0.0296  0.0303  1.5895
  716MOL0     C94401   5.520  10.371   7.919  0.4991 -0.3040 -0.0430
  716MOL0     C94402   5.486  10.218   7.937 -0.1194  0.2272  0.1211
  716MOL0     C94403   5.535  10.159   8.071 -1.0516  0.0704 -1.0701
  716MOL0     O94404   5.459  10.041   8.114  0.5532  0.5536 -0.3308
  716MOL0     C94405   5.340  10.065   8.180  0.0436 -0.8983  0.7798
  716MOL0     C94406   5.320  10.169   8.278 -0.0133  0.7469  0.1919
  716MOL0     C94407   5.190  10.195   8.330 -0.6663 -0.1246 -0.1048
  716MOL0     C94408   5.083  10.115   8.301  0.0800 -0.2854 -0.0920
  716MOL0     C94409   4.957  10.125   8.374 -0.5264 -0.1542  0.4984
  716MOL0     O94410   4.948  10.226   8.467 -0.2000  0.3088  0.0754
  716MOL0     C94411   4.822  10.242   8.524  0.3938  0.8242 -0.3501
  716MOL0     C94412   4.711  10.271   8.433  0.4658  0.6624 -0.2193
  716MOL0     C94413   4.580  10.274   8.491 -0.4260  0.5206 -0.4977
  716MOL0     C94414   4.551  10.248   8.623 -0.2775  0.0306  0.3012
  716MOL0     O94415   4.423  10.230   8.661  0.7144 -0.2921  0.0671
  716MOL0     C94416   4.400  10.196   8.796  0.9212 -0.7435  0.7622
  716MOL0     C94417   4.246  10.159   8.807  0.4077  0.6321  0.6052
  716MOL0     C94418   4.152  10.258   8.735  0.3184  0.7935 -0.1363
  716MOL0     C94419   4.007  10.235   8.779 -0.2391  0.1782  0.6194
  716MOL0     C94420   3.953  10.096   8.757  0.3210 -0.7294 -0.1487
  716MOL0     C94421   3.805  10.095   8.805 -1.2588  0.6488 -0.1359
  716MOL0     C94422   3.703  10.178   8.729  0.9422 -0.1313 -0.5224
  716MOL0     C94423   3.565  10.177   8.793  0.7088  1.1134 -0.1016
  716MOL0    Cl94424   3.502  10.008   8.840  0.0669  0.0342  0.8069
  716MOL0     C94425   4.657  10.221   8.709 -0.2549  0.1852  0.0014
  716MOL0     C94426   4.790  10.218   8.661 -0.9764  0.3943  0.5206
  716MOL0     O94427   4.863  10.046   8.349 -0.0618  0.2968  0.0163
  716MOL0     C94428   5.098  10.008   8.213 -1.0971  0.0462 -0.0830
  716MOL0     C94429   5.228   9.989   8.152  0.5061 -0.5199  0.1559
  716MOL0     N94430   5.781  10.233   7.785 -0.2099 -0.1339 -0.3102
  716MOL0     N94431   5.898  10.217   7.729 -0.1418 -0.2139 -0.3401
  716MOL0     C94432   7.144  10.702   7.704  0.5402 -0.1143 -0.5152
  716MOL0     C94433   7.278  10.720   7.725  0.0368 -0.6799 -0.1879
  716MOL0     C94434   7.701  10.596   7.702  0.2025 -0.4141 -0.0171
  716MOL0     C94435   7.745  10.719   7.761  1.0940 -0.4462  1.1268
  716MOL0     C94436   7.875  10.765   7.754 -0.5333 -0.4871  0.0755
  716MOL0     C94437   7.967  10.687   7.690  0.0397  0.6924 -0.3678
  716MOL0     O94438   8.098  10.737   7.697 -0.2581  0.0725  0.5449
  716MOL0     C94439   8.206  10.673   7.644 -0.5346  0.7830  0.5833
  716MOL0     C94440   8.333  10.747   7.675 -1.0235 -0.1912 -0.3235
  716MOL0     C94441   8.455  10.660   7.648 -0.2119 -0.4313 -0.5661
  716MOL0     C94442   8.580  10.739   7.700 -0.7647 -0.0379 -0.1660
  716MOL0     C94443   8.706  10.671   7.671 -0.2959 -0.1690 -0.8367
  716MOL0     C94444   8.815  10.617   7.653  0.6872  0.2371 -0.1303
  716MOL0     C94445   7.924  10.571   7.625  0.5553 -0.3533  0.2615
  716MOL0     C94446   7.790  10.524   7.626 -0.9243  0.3173  0.0658
  716MOL0     H94447   7.357  10.436   7.876  0.1768 -0.5955 -2.3971
  716MOL0     H94448   7.111  10.405   7.865 -0.0270  0.7838  1.4868
  716MOL0     H94449   6.867  10.566   7.941  1.8511 -1.3974  0.2948
  716MOL0     H94450   6.897  10.422   7.850 -0.9633 -0.4306 -0.4423
  716MOL0     H94451   6.684  10.626   7.816 -4.1329 -1.5583 -3.3273
  716MOL0     H94452   6.669  10.472   7.891  0.5364 -0.4743 -0.8475
  716MOL0     H94453   6.677  10.363   7.674  3.2006  0.1447  0.9626
  716MOL0     H94454   6.732  10.512   7.596  1.9911 -3.5356 -0.6476
  716MOL0     H94455   6.539  10.631   7.642  0.1394 -0.3371  0.5547
  716MOL0     H94456   6.513  10.503   7.519 -0.6520  1.7289  0.0590
  716MOL0     H94457   6.413  10.513   7.811 -2.5016 -2.8188  1.6625
  716MOL0     H94458   6.421  10.368   7.708  2.0286  0.1504 -0.6912
  716MOL0     H94459   6.258  10.475   7.549 -3.2737  1.0933  0.6493
  716MOL0     H94460   6.279  10.631   7.638 -1.7813 -0.0992 -1.9473
  716MOL0     H94461   6.191  10.495   7.852 -0.6739 -2.1515  0.2967
  716MOL0     H94462   6.089  10.566   7.732 -0.0730  1.0888  1.2623
  716MOL0     H94463   6.169  10.276   7.767  0.1962 -2.2692 -2.7377
  716MOL0     H94464   6.118  10.335   7.605  0.1685  0.8998 -0.0299
  716MOL0     H94465   5.924  10.503   7.880 -0.1816 -0.6905  1.8467
  716MOL0     H94466   5.678  10.514   7.944 -0.2194  0.0445  1.0365
  716MOL0     H94467   5.684  10.377   8.051 -0.3602  1.5830  2.0914
  716MOL0     H94468   5.495  10.402   7.817 -4.2624 -1.3417  0.5739
  716MOL0     H94469   5.453  10.423   7.988 -2.4914 -3.2072 -0.5099
  716MOL0     H94470   5.378  10.207   7.926  0.2330 -2.0598 -1.8964
  716MOL0     H94471   5.531  10.165   7.853 -0.7714  2.6874 -1.9363
  716MOL0     H94472   5.527  10.245   8.138  1.7752  0.8075 -1.5753
  716MOL0     H94473   5.641  10.133   8.069 -0.4122  0.9160  4.5991
  716MOL0     H94474   5.399  10.229   8.322  0.8851 -0.0186 -0.3404
  716MOL0     H94475   5.183  10.275   8.403 -2.5937  1.0998 -1.5378
  716MOL0     H94476   4.732  10.283   8.327  1.6102 -1.7632 -0.3421
  716MOL0     H94477   4.493  10.287   8.427 -1.6832 -1.8577  0.6088
  716MOL0     H94478   4.420  10.285   8.857 -0.5278 -0.0006  0.2180
  716MOL0     H94479   4.456  10.114   8.840 -0.7183 -1.5649  1.4054
  716MOL0     H94480   4.206  10.160   8.909  0.0816  2.1034  0.4813
  716MOL0     H94481   4.221  10.064   8.759 -1.7920 -0.1983  3.1793
  716MOL0     H94482   4.163  10.235   8.629  0.5403  0.1878  0.0094
  716MOL0     H94483   4.187  10.361   8.746 -1.8773  1.4114  2.0098
  716MOL0     H94484   4.007  10.257   8.886  0.9413 -0.2057  0.7190
  716MOL0     H94485   3.950  10.304   8.717  2.7128  2.2065 -0.0636
  716MOL0     H94486   4.002  10.015   8.811 -2.7897 -2.0745  0.9176
  716MOL0     H94487   3.969  10.064   8.653  1.8522 -1.0417  0.1658
  716MOL0     H94488   3.806  10.143   8.904 -1.2849  0.1290  0.1215
  716MOL0     H94489   3.768   9.992   8.804 -0.6759  0.4139  1.0535
  716MOL0     H94490   3.737  10.280   8.715  1.3513 -0.2701 -0.5525
  716MOL0     H94491   3.687  10.132   8.631 -0.0557  2.3333 -1.5863
  716MOL0     H94492   3.484  10.227   8.738  0.2648  0.9166  0.3599
  716MOL0     H94493   3.567  10.236   8.885 -0.0422 -1.0016  1.3388
  716MOL0     H94494   4.646  10.186   8.811  1.8137  0.9559  0.5599
  716MOL0     H94495   4.860  10.191   8.739  0.7433  2.7801 -0.0646
  716MOL0     H94496   5.023   9.931   8.200  1.6942 -2.9745  0.1447
  716MOL0     H94497   5.243   9.903   8.089  2.8810 -0.4892  0.5670
  716MOL0     H94498   7.083  10.780   7.658 -0.2339 -0.1553  0.3958
  716MOL0     H94499   7.339  10.801   7.686 -2.1575  0.9456 -0.3967
  716MOL0     H94500   7.672  10.776   7.817 -1.8721 -1.7859 -1.1591
  716MOL0     H94501   7.901  10.860   7.801  2.3997 -0.1449 -1.9648
  716MOL0     H94502   8.187  10.675   7.536 -2.0024  3.1248  0.8179
  716MOL0     H94503   8.204  10.571   7.681 -1.8112  0.6091  0.0720
  716MOL0     H94504   8.361  10.828   7.608  1.8893  1.4493  2.5872
  716MOL0     H94505   8.339  10.781   7.779 -0.1488 -0.3714 -0.3085
  716MOL0     H94506   8.462  10.634   7.541  2.1303 -1.2744 -0.2671
  716MOL0     H94507   8.461  10.562   7.697  0.3172  0.1347  0.5229
  716MOL0     H94508   8.578  10.842   7.661  0.1912 -1.0895 -3.2301
  716MOL0     H94509   8.561  10.745   7.808 -1.9987 -0.5219 -0.3388
  716MOL0     H94510   8.914  10.579   7.639  0.7051  0.6799 -1.3426
  716MOL0     H94511   7.998  10.515   7.568  2.0215  0.0550  1.7015
  716MOL0     H94512   7.761  10.434   7.572 -2.1361  0.3190  0.6654
  717MOL0     O94513   0.231   4.806   5.857  0.7909  0.0584 -0.0097
  717MOL0     C94514   0.263   4.891   5.774 -0.5455 -0.2140 -0.6169
  717MOL0     O94515   0.186   4.943   5.678  0.8936  0.0866 -0.5416
  717MOL0     C94516   0.046   4.921   5.661  0.4187  0.1860  0.2155
  717MOL0     C94517  -0.014   4.964   5.538 -0.8282 -0.0183  0.3113
  717MOL0     C94518  -0.146   4.928   5.511  0.4055 -0.6319 -0.0104
  717MOL0     C94519  -0.222   4.846   5.591 -0.1819  0.3808  0.4976
  717MOL0     O94520  -0.331   4.785   5.550  0.9885 -0.3239 -0.6587
  717MOL0     C94521  -0.370   4.764   5.421 -0.2152  0.2817  1.4127
  717MOL0     C94522  -0.492   4.667   5.415  0.0484 -0.8409 -0.1970
  717MOL0     C94523  -0.632   4.745   5.422 -0.1586 -0.0361 -0.1432
  717MOL0     C94524  -0.741   4.651   5.463 -0.2467  0.0442 -0.1840
  717MOL0     C94525  -0.862   4.734   5.516  0.4793 -0.7471  0.1749
  717MOL0     C94526  -0.930   4.810   5.398  0.3192  0.5792 -0.0215
  717MOL0     C94527  -0.977   4.709   5.286 -0.3871  0.7450 -0.4047
  717MOL0     C94528  -1.082   4.762   5.194 -0.1291 -0.4805 -0.2378
  717MOL0     N94529  -1.213   4.744   5.260  0.3435  0.3972  0.0551
  717MOL0     C94530  -1.301   4.845   5.291 -0.1173  0.0961  0.8761
  717MOL0     C94531  -1.414   4.781   5.327  0.1166  0.3085 -1.0458
  717MOL0     C94532  -1.548   4.833   5.355  0.1136 -0.0985  0.8899
  717MOL0     C94533  -1.673   4.765   5.292 -0.5057 -0.3403  0.5317
  717MOL0     C94534  -1.795   4.838   5.335  0.3426 -0.1594  0.0635
  717MOL0     C94535  -1.914   4.801   5.262 -0.1899  0.0276  0.9650
  717MOL0     O94536  -2.008   4.902   5.285 -0.2535 -0.9170 -0.3164
  717MOL0     C94537  -2.114   4.918   5.200  0.3554 -0.0991  0.1554
  717MOL0     C94538  -2.168   4.807   5.130 -1.3076  0.3267  0.6697
  717MOL0     C94539  -2.268   4.827   5.040  0.4977 -0.1836 -0.4449
  717MOL0     C94540  -2.331   4.954   5.029  0.1045  0.0251 -0.3921
  717MOL0     C94541  -2.434   4.973   4.929  0.7212  0.2200 -0.1559
  717MOL0     O94542  -2.530   4.865   4.914 -0.2765  0.0307  0.1104
  717MOL0     C94543  -2.625   4.871   4.822  0.6688  0.0454  1.5116
  717MOL0     C94544  -2.754   4.863   4.857 -0.4202  0.0444  0.6251
  717MOL0     C94545  -2.852   4.868   4.757 -0.1155  0.5835  0.2225
  717MOL0     C94546  -2.824   4.891   4.618  0.2406 -0.2191  0.0494
  717MOL0     O94547  -2.931   4.911   4.528 -0.6343 -0.0108 -0.2555
  717MOL0     C94548  -3.043   4.819   4.545 -0.2228 -0.2611 -0.0142
  717MOL0     C94549  -3.124   4.827   4.421  0.9169 -0.2560 -0.2346
  717MOL0     C94550  -3.225   4.705   4.408 -0.5895  0.2526 -0.0494
  717MOL0     C94551  -3.291   4.709   4.280 -0.5220 -0.0352 -0.0489
  717MOL0     C94552  -3.391   4.581   4.268 -0.8852 -0.6993  0.5440
  717MOL0     C94553  -3.449   4.581   4.119  0.7778 -0.2104  0.3869
  717MOL0     C94554  -3.590   4.520   4.132 -1.1100 -0.5741 -0.2407
  717MOL0     C94555  -3.584   4.372   4.170  0.2047  0.3565 -0.1913
  717MOL0    Cl94556  -3.742   4.291   4.134 -0.0123 -0.1945  0.0555
  717MOL0     C94557  -2.694   4.914   4.582  0.2412 -0.7737 -0.1860
  717MOL0     C94558  -2.597   4.903   4.680  0.2029  0.4919 -1.0747
  717MOL0     O94559  -2.440   5.084   4.876 -0.2131  0.2972 -0.4992
  717MOL0     C94560  -2.279   5.056   5.099  0.5305  0.7315 -0.2435
  717MOL0     C94561  -2.177   5.042   5.196  0.1520  0.3444  0.3332
  717MOL0     N94562  -1.401   4.647   5.325 -0.4282 -0.0870 -0.0140
  717MOL0     N94563  -1.280   4.626   5.284  0.5008  0.8158  0.1612
  717MOL0     C94564  -0.166   4.810   5.710  0.3440 -0.2323  0.0512
  717MOL0     C94565  -0.033   4.850   5.752 -0.2308 -0.2484 -0.2496
  717MOL0     C94566   0.401   4.940   5.783  0.2548  0.0303 -0.3665
  717MOL0     C94567   0.494   4.905   5.898  0.0544 -0.0490  0.0513
  717MOL0     C94568   0.623   4.954   5.901  0.5711  0.3974 -0.0209
  717MOL0     C94569   0.677   5.032   5.796  0.3699  0.1017  0.4671
  717MOL0     O94570   0.809   5.067   5.778  0.1171 -0.2034  0.0142
  717MOL0     C94571   0.911   5.061   5.883  0.2277 -0.3135 -0.4501
  717MOL0     C94572   1.011   4.951   5.879 -0.5452 -0.1587  0.0249
  717MOL0     C94573   1.130   4.986   5.971  0.6331  0.7539 -0.5065
  717MOL0     C94574   1.209   4.861   5.989 -0.1557  0.0916 -0.3695
  717MOL0     C94575   1.288   4.835   5.862  0.0451  0.0231  0.6972
  717MOL0     C94576   1.368   4.825   5.773 -0.7529 -0.4487 -0.2394
  717MOL0     C94577   0.591   5.060   5.692 -0.9043  0.1658  0.1253
  717MOL0     C94578   0.455   5.030   5.692 -0.2234 -0.1940  0.0965
  717MOL0     H94579   0.050   5.017   5.469  1.1231 -2.4303  0.1131
  717MOL0     H94580  -0.190   4.964   5.419  0.5428 -1.6116 -0.4630
  717MOL0     H94581  -0.292   4.718   5.359  1.2793 -0.4514  3.7149
  717MOL0     H94582  -0.394   4.858   5.370  0.7991 -0.9126 -1.5025
  717MOL0     H94583  -0.480   4.598   5.499  1.8841 -0.3383  0.0095
  717MOL0     H94584  -0.490   4.616   5.319  0.0232  2.5542 -2.1714
  717MOL0     H94585  -0.648   4.784   5.321 -1.3392 -0.8996 -0.3126
  717MOL0     H94586  -0.632   4.833   5.487  0.8425  1.1857 -1.7227
  717MOL0     H94587  -0.767   4.577   5.388 -0.6069 -0.7271  0.6770
  717MOL0     H94588  -0.697   4.596   5.547 -2.8426  0.8646  1.8323
  717MOL0     H94589  -0.836   4.802   5.597 -0.3412 -0.3957  0.1584
  717MOL0     H94590  -0.940   4.665   5.549 -1.6048  0.9531 -0.9270
  717MOL0     H94591  -0.864   4.883   5.351 -0.3487  1.2092  0.0036
  717MOL0     H94592  -1.011   4.872   5.439  2.4072  1.8201  2.5967
  717MOL0     H94593  -0.891   4.687   5.222 -1.4412  2.6804 -2.6343
  717MOL0     H94594  -1.004   4.613   5.331  2.4570  0.5764  1.1464
  717MOL0     H94595  -1.078   4.718   5.094  0.1693  2.5386 -1.6692
  717MOL0     H94596  -1.060   4.869   5.186 -4.6572  0.6721  0.2069
  717MOL0     H94597  -1.286   4.953   5.286 -5.6800  1.1146 -1.1947
  717MOL0     H94598  -1.560   4.935   5.316 -0.6168 -0.6490 -0.3760
  717MOL0     H94599  -1.554   4.819   5.463 -0.2687  1.1940  1.0563
  717MOL0     H94600  -1.684   4.660   5.322  6.5385 -2.0635 -0.9348
  717MOL0     H94601  -1.673   4.765   5.182 -1.2486  0.9040  0.5083
  717MOL0     H94602  -1.809   4.825   5.442  0.8135 -2.0829 -0.0654
  717MOL0     H94603  -1.779   4.945   5.316 -1.3333  0.3648  1.3250
  717MOL0     H94604  -1.949   4.708   5.307  1.8976 -2.2547 -1.7427
  717MOL0     H94605  -1.901   4.787   5.154 -0.0556  3.8736  0.3352
  717MOL0     H94606  -2.139   4.704   5.149 -0.7536 -0.1100 -2.1590
  717MOL0     H94607  -2.327   4.750   4.992 -0.8354 -1.2534  2.6560
  717MOL0     H94608  -2.783   4.847   4.960 -2.9175  2.3051  0.3544
  717MOL0     H94609  -2.956   4.869   4.787  0.2241  1.2086  1.4249
  717MOL0     H94610  -3.096   4.848   4.636  0.3343 -0.5426  0.4046
  717MOL0     H94611  -3.018   4.712   4.551  0.0016 -0.2351 -0.4845
  717MOL0     H94612  -3.055   4.821   4.336  0.3728  2.6925 -0.9798
  717MOL0     H94613  -3.180   4.920   4.430 -0.5354 -0.9430 -1.6963
  717MOL0     H94614  -3.310   4.716   4.476 -0.3175  2.0238  0.0716
  717MOL0     H94615  -3.173   4.609   4.410  1.7992  1.4448  1.9932
  717MOL0     H94616  -3.341   4.805   4.264  0.2942  0.3971 -0.0739
  717MOL0     H94617  -3.218   4.700   4.199 -0.8095  2.1808 -0.6150
  717MOL0     H94618  -3.464   4.598   4.347 -0.1997  2.5835  0.6043
  717MOL0     H94619  -3.335   4.487   4.266 -1.1293 -0.9290 -2.9957
  717MOL0     H94620  -3.392   4.528   4.043  1.8324  1.4380 -0.0138
  717MOL0     H94621  -3.459   4.681   4.074  1.5592 -2.1945 -4.9535
  717MOL0     H94622  -3.665   4.578   4.187 -4.2320 -3.5244 -1.0278
  717MOL0     H94623  -3.640   4.536   4.035 -0.5294  0.4083 -0.4022
  717MOL0     H94624  -3.568   4.367   4.278 -2.9537  0.4200  0.3970
  717MOL0     H94625  -3.515   4.315   4.108  1.4223  0.4411  1.0410
  717MOL0     H94626  -2.666   4.940   4.481  2.5951  0.0542  0.6103
  717MOL0     H94627  -2.493   4.921   4.657  0.8636  0.4460  1.5275
  717MOL0     H94628  -2.319   5.155   5.080  2.1821  1.2228 -1.3800
  717MOL0     H94629  -2.139   5.127   5.252 -2.8880  3.7870 -2.3625
  717MOL0     H94630  -0.227   4.757   5.783  0.8257  2.0061  2.1957
  717MOL0     H94631   0.008   4.819   5.848 -0.7922  0.5948  0.2803
  717MOL0     H94632   0.464   4.842   5.981  1.4255 -0.5483  0.1927
  717MOL0     H94633   0.674   4.934   5.994  0.5642  1.8970  0.3304
  717MOL0     H94634   0.864   5.058   5.981  0.3480  1.8032 -0.2810
  717MOL0     H94635   0.975   5.150   5.881  2.2966 -1.6891  0.7867
  717MOL0     H94636   0.957   4.859   5.901 -2.4381  0.4017 -1.9505
  717MOL0     H94637   1.053   4.941   5.778  2.1317 -1.8118  1.1795
  717MOL0     H94638   1.098   5.012   6.073  1.6694 -0.5747  0.1920
  717MOL0     H94639   1.182   5.077   5.941  2.6246  0.6797  2.3415
  717MOL0     H94640   1.288   4.883   6.061  1.5577  0.3508 -2.2364
  717MOL0     H94641   1.147   4.778   6.025  2.8218 -1.2989  2.0479
  717MOL0     H94642   1.444   4.829   5.697  1.6047 -1.9513  1.8733
  717MOL0     H94643   0.633   5.113   5.607  0.2559 -1.7962 -0.5992
  717MOL0     H94644   0.397   5.068   5.608  0.5362  0.6473 -0.0637
  718MOL0     O94645   7.712   6.106  10.968 -0.8600 -0.7249  0.0228
  718MOL0     C94646   7.757   6.080  11.078  0.4322 -0.4197 -0.5531
  718MOL0     O94647   7.689   6.006  11.170  0.1822  0.4034 -0.8125
  718MOL0     C94648   7.572   5.936  11.148 -0.1082  0.1996 -0.4028
  718MOL0     C94649   7.514   5.895  11.028 -0.1471  0.2298 -0.2243
  718MOL0     C94650   7.399   5.814  11.025  0.1414 -0.1583  0.1896
  718MOL0     C94651   7.335   5.775  11.148  0.3665  0.3117 -0.4238
  718MOL0     O94652   7.216   5.709  11.155  0.4047 -0.0290  0.5550
  718MOL0     C94653   7.156   5.658  11.042 -0.4159 -0.1235 -0.0331
  718MOL0     C94654   7.073   5.536  11.077  1.3183 -0.0819 -0.7692
  718MOL0     C94655   6.960   5.559  11.173  1.0416 -0.5056  0.1033
  718MOL0     C94656   6.904   5.424  11.216 -0.5311 -0.3779 -0.0954
  718MOL0     C94657   6.776   5.422  11.303  0.6294  0.4791  0.0993
  718MOL0     C94658   6.735   5.281  11.354 -0.0551 -0.5331  0.5580
  718MOL0     C94659   6.612   5.288  11.442 -0.5701 -0.6682 -0.0127
  718MOL0     C94660   6.490   5.331  11.363  0.2175 -1.3536 -0.1755
  718MOL0     N94661   6.364   5.327  11.443  0.3194 -0.2473  0.0834
  718MOL0     C94662   6.342   5.300  11.581  1.2417 -0.2472  0.1076
  718MOL0     C94663   6.204   5.288  11.586 -0.0294 -0.2788  1.4733
  718MOL0     C94664   6.115   5.294  11.702  0.2873  0.3196 -0.7354
  718MOL0     C94665   6.046   5.164  11.732  0.5938  0.9124 -0.3406
  718MOL0     C94666   5.994   5.146  11.873  0.5357 -0.5091 -0.5698
  718MOL0     C94667   5.895   5.031  11.893 -0.1741  0.1496 -0.1459
  718MOL0     O94668   5.857   5.020  12.026 -0.6057  0.3805  0.0160
  718MOL0     C94669   5.726   5.011  12.075 -0.1327 -1.0869  0.1149
  718MOL0     C94670   5.683   5.080  12.190 -0.5328  0.3810 -0.5832
  718MOL0     C94671   5.550   5.057  12.235 -0.7096 -0.5757  0.1511
  718MOL0     C94672   5.461   4.968  12.183  0.7801 -0.7326  0.3136
  718MOL0     C94673   5.329   4.957  12.246  1.1364  0.0553  0.4456
  718MOL0     O94674   5.287   5.050  12.336 -0.2491  0.2531 -0.8599
  718MOL0     C94675   5.163   5.038  12.392  0.7274  0.5433 -0.3767
  718MOL0     C94676   5.041   5.015  12.324  0.1023  0.0771  0.0202
  718MOL0     C94677   4.920   5.021  12.393  0.1963  0.5833  0.0493
  718MOL0     C94678   4.910   5.032  12.524 -0.0339  0.0015 -0.6183
  718MOL0     O94679   4.791   5.027  12.590 -0.0036 -0.0488  0.7187
  718MOL0     C94680   4.709   5.141  12.579 -0.5851 -0.3984 -0.6584
  718MOL0     C94681   4.567   5.101  12.641 -1.1908 -0.6003  0.0171
  718MOL0     C94682   4.487   4.991  12.567 -0.3723  0.7422 -0.9577
  718MOL0     C94683   4.461   5.026  12.416  0.2747  0.2334  0.3229
  718MOL0     C94684   4.366   4.924  12.360  0.5014  0.1882  0.4700
  718MOL0     C94685   4.335   4.940  12.213 -0.9181 -0.0501 -0.4474
  718MOL0     C94686   4.222   4.845  12.173  0.8790  0.2903  0.0339
  718MOL0     C94687   4.234   4.806  12.031 -0.4371  0.2883  0.3343
  718MOL0    Cl94688   4.118   4.685  11.984  0.4190 -0.3420 -0.4022
  718MOL0     C94689   5.032   5.049  12.585 -0.2254 -0.5836 -0.8971
  718MOL0     C94690   5.156   5.050  12.528  0.3341  0.2486 -0.1871
  718MOL0     O94691   5.260   4.862  12.193  0.0124  0.3903 -0.9757
  718MOL0     C94692   5.502   4.897  12.063 -0.4913 -0.3289 -0.5376
  718MOL0     C94693   5.632   4.929  12.011 -0.3419  0.9774 -0.0917
  718MOL0     N94694   6.157   5.311  11.458  0.4776 -0.7061  0.0068
  718MOL0     N94695   6.248   5.333  11.368  0.0932  0.2262 -0.1215
  718MOL0     C94696   7.381   5.825  11.271 -0.5299 -0.0998  0.2461
  718MOL0     C94697   7.503   5.899  11.264 -0.4680 -0.2722 -0.2557
  718MOL0     C94698   7.901   6.116  11.101 -0.1188 -0.1773  0.7036
  718MOL0     C94699   7.980   6.159  10.998  0.8343 -0.0137  0.6954
  718MOL0     C94700   8.119   6.176  11.018 -0.3393  0.1439  0.5851
  718MOL0     C94701   8.183   6.152  11.141  0.0922 -0.3410  0.9795
  718MOL0     O94702   8.311   6.194  11.155 -0.2119  0.0180  0.6067
  718MOL0     C94703   8.373   6.188  11.286  0.5956  0.0175  0.0504
  718MOL0     C94704   8.518   6.237  11.278 -0.1335 -0.8033  0.0548
  718MOL0     C94705   8.523   6.386  11.257  0.1454 -0.0171 -0.0953
  718MOL0     C94706   8.627   6.448  11.363  0.1966  0.6565 -0.1519
  718MOL0     C94707   8.760   6.422  11.317 -1.2891 -0.2932 -0.5137
  718MOL0     C94708   8.874   6.393  11.281 -0.1453 -0.3042  0.6904
  718MOL0     C94709   8.101   6.102  11.251  0.1234  0.3336 -0.2649
  718MOL0     C94710   7.965   6.089  11.229 -0.0880 -0.4448  0.6625
  718MOL0     H94711   7.547   5.935  10.933  0.4639  3.2870  1.1694
  718MOL0     H94712   7.359   5.795  10.926 -1.1221 -0.4914  0.7525
  718MOL0     H94713   7.234   5.632  10.971 -0.0263 -0.7854  0.6206
  718MOL0     H94714   7.099   5.744  11.005  0.7573  1.0846  0.9152
  718MOL0     H94715   7.138   5.458  11.118 -0.1150 -0.8937 -0.0027
  718MOL0     H94716   7.036   5.499  10.981  1.3206  0.6987 -1.0770
  718MOL0     H94717   6.878   5.621  11.134  1.8349  0.0042 -0.7893
  718MOL0     H94718   7.007   5.604  11.261 -0.6707 -0.3630  0.9928
  718MOL0     H94719   6.882   5.366  11.126  0.1658 -1.3080  0.3211
  718MOL0     H94720   6.982   5.366  11.266  2.8264  2.6761 -1.3824
  718MOL0     H94721   6.699   5.457  11.235 -0.0877  0.3736  0.8347
  718MOL0     H94722   6.797   5.491  11.386 -0.5813  1.6662 -0.5507
  718MOL0     H94723   6.815   5.240  11.417  0.4623 -1.8374 -0.9051
  718MOL0     H94724   6.716   5.216  11.269  0.1482 -0.3413  0.3657
  718MOL0     H94725   6.604   5.194  11.497 -2.1480 -0.5836 -0.0579
  718MOL0     H94726   6.628   5.370  11.514 -1.7745  1.7979 -2.3831
  718MOL0     H94727   6.473   5.270  11.273 -0.3824  2.4329 -2.8731
  718MOL0     H94728   6.500   5.434  11.327  2.4638 -0.8747  1.5847
  718MOL0     H94729   6.410   5.312  11.665 -0.1597 -0.4695  1.3047
  718MOL0     H94730   6.037   5.368  11.686  1.4383  2.0799  1.3008
  718MOL0     H94731   6.168   5.329  11.791  0.0288  3.7851 -1.8140
  718MOL0     H94732   6.125   5.095  11.701 -0.5564 -0.2245 -0.8034
  718MOL0     H94733   5.972   5.134  11.657  1.0571 -1.6236  0.1410
  718MOL0     H94734   6.084   5.131  11.935  0.0738  2.0783  0.8982
  718MOL0     H94735   5.955   5.242  11.908  2.2895 -0.9328  3.1526
  718MOL0     H94736   5.948   4.942  11.860  3.6570  1.9840  0.5366
  718MOL0     H94737   5.810   5.054  11.828  0.4041 -1.6848 -1.6496
  718MOL0     H94738   5.749   5.151  12.239  2.0880 -3.2235  1.4911
  718MOL0     H94739   5.536   5.118  12.324  2.8838  1.9172 -0.7672
  718MOL0     H94740   5.041   5.010  12.215 -0.2127 -1.0427  0.0638
  718MOL0     H94741   4.832   5.014  12.330  0.5544 -3.3667 -0.2602
  718MOL0     H94742   4.710   5.176  12.475 -0.1980 -1.1656 -0.9234
  718MOL0     H94743   4.739   5.232  12.631  2.3507 -1.5771 -0.0814
  718MOL0     H94744   4.508   5.192  12.623 -2.5149 -1.4793 -0.2613
  718MOL0     H94745   4.581   5.084  12.749  1.0876 -0.9828 -0.3030
  718MOL0     H94746   4.392   4.975  12.619  0.0774  1.5430  0.1377
  718MOL0     H94747   4.555   4.906  12.578 -0.2892  1.0063  0.9954
  718MOL0     H94748   4.405   5.119  12.400  0.4775  0.7313  2.2636
  718MOL0     H94749   4.553   5.026  12.356  2.5383  1.2105  3.4987
  718MOL0     H94750   4.268   4.921  12.409  0.8842  3.5725  1.7500
  718MOL0     H94751   4.405   4.822  12.368 -1.5590 -0.6678  0.1690
  718MOL0     H94752   4.430   4.925  12.161  1.0236  2.5795  2.0069
  718MOL0     H94753   4.301   5.040  12.186  1.1488  0.1062 -2.8155
  718MOL0     H94754   4.231   4.751  12.228  1.5411 -2.6322 -4.5559
  718MOL0     H94755   4.122   4.886  12.189  0.7943  1.9017 -3.6886
  718MOL0     H94756   4.330   4.760  12.008 -0.7669 -0.5412  0.5752
  718MOL0     H94757   4.215   4.892  11.968  0.2922  0.0788 -0.1860
  718MOL0     H94758   5.036   5.078  12.690  2.1639  1.3166 -1.3866
  718MOL0     H94759   5.246   5.062  12.588 -0.5323  0.7801  1.0775
  718MOL0     H94760   5.451   4.813  12.016 -1.1844 -0.3663  0.2536
  718MOL0     H94761   5.666   4.882  11.919  0.3330  0.3130  0.4857
  718MOL0     H94762   7.336   5.792  11.364 -0.8740  1.6119  0.7108
  718MOL0     H94763   7.543   5.934  11.359 -0.8075  2.7780 -1.1334
  718MOL0     H94764   7.933   6.181  10.902 -0.8049  1.3958  1.7622
  718MOL0     H94765   8.175   6.221  10.937 -1.0181 -0.5652 -0.3031
  718MOL0     H94766   8.371   6.083  11.317 -1.2310 -0.2039 -0.7240
  718MOL0     H94767   8.316   6.237  11.365  1.5997  1.3259  0.0064
  718MOL0     H94768   8.558   6.221  11.378 -1.6193 -0.5532  0.7047
  718MOL0     H94769   8.580   6.183  11.205  1.1138 -0.4574  0.8254
  718MOL0     H94770   8.424   6.431  11.268  0.2615 -0.0631  1.4961
  718MOL0     H94771   8.568   6.414  11.162  1.3780 -0.8706  0.2063
  718MOL0     H94772   8.625   6.557  11.368  3.6642  0.7944  0.9230
  718MOL0     H94773   8.617   6.405  11.463  2.7919 -0.5701 -0.3272
  718MOL0     H94774   8.974   6.367  11.252 -0.3925  0.9069 -1.4391
  718MOL0     H94775   8.144   6.079  11.347 -0.0080 -1.5969 -0.6317
  718MOL0     H94776   7.912   6.033  11.306 -0.1874 -0.2036  0.7703
  719MOL0     O94777   0.148   6.573   8.346  1.1062  0.1970 -0.1514
  719MOL0     C94778   0.053   6.500   8.344 -1.0214 -0.2052 -0.4791
  719MOL0     O94779  -0.058   6.522   8.286 -0.0596 -0.5197  0.8210
  719MOL0     C94780  -0.076   6.637   8.211 -0.5611  0.1362 -0.3177
  719MOL0     C94781  -0.091   6.764   8.268 -0.1969 -0.3431 -0.4462
  719MOL0     C94782  -0.127   6.873   8.182 -0.4395  0.4171  0.2552
  719MOL0     C94783  -0.137   6.856   8.049 -0.0787  0.3802  0.0507
  719MOL0     O94784  -0.189   6.968   7.981  0.2897 -0.0640  0.3832
  719MOL0     C94785  -0.232   6.957   7.844 -0.2430  0.3788  0.0874
  719MOL0     C94786  -0.365   6.882   7.806  0.5184 -0.7039  0.6520
  719MOL0     C94787  -0.482   6.991   7.812 -0.3410 -0.0200  0.1677
  719MOL0     C94788  -0.619   6.924   7.773 -0.5612 -1.0603 -0.4812
  719MOL0     C94789  -0.737   7.022   7.796 -0.1680 -0.8082 -0.2748
  719MOL0     C94790  -0.859   6.934   7.810  0.1679 -0.5228 -0.0898
  719MOL0     C94791  -0.974   7.027   7.850  0.7810  0.7592  0.0600
  719MOL0     C94792  -1.095   6.942   7.919  0.3987  0.1187 -0.4290
  719MOL0     N94793  -1.197   7.039   7.969 -0.0197  0.5069  0.8384
  719MOL0     C94794  -1.295   7.100   7.895 -0.3256  0.4291  0.6091
  719MOL0     C94795  -1.368   7.179   7.979 -0.3707 -0.7613 -0.6138
  719MOL0     C94796  -1.489   7.249   7.953 -0.8915 -0.6802  1.0170
  719MOL0     C94797  -1.617   7.173   7.972  0.4223  0.1171  0.1452
  719MOL0     C94798  -1.725   7.266   7.929 -0.7049  0.6514  0.2854
  719MOL0     C94799  -1.861   7.207   7.956 -0.0397 -0.1558  0.6517
  719MOL0     O94800  -1.937   7.252   7.846  0.8866 -0.1924 -0.6307
  719MOL0     C94801  -2.056   7.204   7.824  0.5358  0.1308  0.5886
  719MOL0     C94802  -2.149   7.141   7.916 -1.3788  0.6611  0.4227
  719MOL0     C94803  -2.277   7.087   7.883 -0.1282  0.0771  0.8271
  719MOL0     C94804  -2.321   7.110   7.749  0.5859  0.5484 -0.9137
  719MOL0     C94805  -2.450   7.058   7.716 -0.2385 -0.9502 -0.3918
  719MOL0     O94806  -2.535   7.033   7.820  0.6037 -1.4213  0.1278
  719MOL0     C94807  -2.664   6.986   7.809  0.2067  0.5330 -0.0883
  719MOL0     C94808  -2.724   6.915   7.701 -0.2898 -0.2188 -0.2842
  719MOL0     C94809  -2.863   6.887   7.706  0.7037 -0.7435 -0.8963
  719MOL0     C94810  -2.946   6.921   7.809  0.6430 -0.1872  1.2477
  719MOL0     O94811  -3.088   6.897   7.818 -0.8807  0.2554  1.0183
  719MOL0     C94812  -3.166   6.953   7.714 -0.0622  0.0797  1.2758
  719MOL0     C94813  -3.190   6.860   7.598  0.9181  1.2420  0.1348
  719MOL0     C94814  -3.325   6.879   7.527  0.2265  0.2781  0.1612
  719MOL0     C94815  -3.367   7.018   7.497  0.9424 -0.2306  0.0029
  719MOL0     C94816  -3.504   7.010   7.427 -0.3409  0.0780 -0.6096
  719MOL0     C94817  -3.568   7.147   7.401  0.2933 -0.9560 -0.2096
  719MOL0     C94818  -3.673   7.151   7.294  0.0428 -0.1946 -0.3910
  719MOL0     C94819  -3.619   7.119   7.155  0.8395 -0.9384 -0.2205
  719MOL0    Cl94820  -3.496   7.244   7.113  0.2487 -0.1293  0.3790
  719MOL0     C94821  -2.883   6.980   7.926  0.8488 -0.4958 -0.1257
  719MOL0     C94822  -2.742   7.014   7.925 -0.5865  0.1441 -0.4275
  719MOL0     O94823  -2.464   7.031   7.601  0.1351 -0.7988  0.6907
  719MOL0     C94824  -2.236   7.178   7.658  0.2163  0.1115 -0.0208
  719MOL0     C94825  -2.112   7.227   7.699 -0.8714 -0.6303 -0.4705
  719MOL0     N94826  -1.323   7.154   8.106  0.7568  0.3311  1.0753
  719MOL0     N94827  -1.226   7.073   8.097 -0.0209  0.7380  0.4028
  719MOL0     C94828  -0.116   6.723   7.989  0.4286  0.0573 -0.1273
  719MOL0     C94829  -0.091   6.615   8.066 -0.4611  1.3545 -0.1415
  719MOL0     C94830   0.070   6.369   8.411 -1.6112  0.3311 -0.0611
  719MOL0     C94831  -0.024   6.271   8.385  0.5410 -0.0158  0.2693
  719MOL0     C94832  -0.007   6.146   8.453 -1.0384  0.3561  0.2872
  719MOL0     C94833   0.103   6.119   8.537 -0.0348  1.0830 -0.9018
  719MOL0     O94834   0.136   5.989   8.590  0.6691 -0.5624 -0.4218
  719MOL0     C94835   0.072   5.869   8.545 -0.2870  0.7463 -0.0695
  719MOL0     C94836   0.150   5.745   8.607  0.7559 -0.0726  0.3123
  719MOL0     C94837   0.276   5.724   8.523  0.3985  0.0584 -0.3062
  719MOL0     C94838   0.390   5.813   8.557 -0.9447  0.0967  0.4210
  719MOL0     C94839   0.500   5.769   8.479 -0.2545  1.1551  0.0087
  719MOL0     C94840   0.602   5.735   8.429 -0.4952 -0.1889 -1.2595
  719MOL0     C94841   0.197   6.215   8.550  0.2166 -1.2168 -0.2797
  719MOL0     C94842   0.181   6.338   8.492 -0.8025 -0.4634  0.3042
  719MOL0     H94843  -0.079   6.789   8.373  1.0479 -1.3061 -0.3275
  719MOL0     H94844  -0.140   6.974   8.219  0.6566  0.5224  0.4032
  719MOL0     H94845  -0.154   6.907   7.785  0.0375  0.5741  0.2924
  719MOL0     H94846  -0.246   7.058   7.804 -0.7201 -0.9987 -3.6684
  719MOL0     H94847  -0.388   6.798   7.872 -1.7798 -1.3706 -0.8762
  719MOL0     H94848  -0.355   6.833   7.709 -1.7918 -0.0011 -0.0112
  719MOL0     H94849  -0.463   7.075   7.744 -1.0656 -0.1394 -0.1928
  719MOL0     H94850  -0.485   7.030   7.914 -0.3953  0.0586  0.1364
  719MOL0     H94851  -0.620   6.892   7.669 -1.1420 -1.2810 -0.4132
  719MOL0     H94852  -0.634   6.839   7.841  0.1411  0.0324  1.1145
  719MOL0     H94853  -0.735   7.098   7.718 -0.0355 -0.0471  0.4565
  719MOL0     H94854  -0.728   7.071   7.893  1.0307 -1.8368  0.1665
  719MOL0     H94855  -0.830   6.868   7.893 -0.5591 -0.9664 -0.1789
  719MOL0     H94856  -0.883   6.883   7.716  3.9696  0.6623 -1.9312
  719MOL0     H94857  -0.940   7.097   7.927 -0.1199  0.7638  0.4699
  719MOL0     H94858  -1.018   7.078   7.764  1.9488  3.0414  0.7418
  719MOL0     H94859  -1.052   6.886   8.003 -1.6251 -0.5788  0.1865
  719MOL0     H94860  -1.135   6.872   7.846 -1.0890 -1.0633  1.4448
  719MOL0     H94861  -1.308   7.105   7.787 -1.8000  0.1044  0.7569
  719MOL0     H94862  -1.480   7.283   7.849 -3.8857 -1.4747  0.4216
  719MOL0     H94863  -1.481   7.340   8.013 -2.4674  0.6123 -0.6286
  719MOL0     H94864  -1.631   7.145   8.077  0.5997  1.7773  0.6418
  719MOL0     H94865  -1.614   7.087   7.905  1.3769 -1.1391  1.7354
  719MOL0     H94866  -1.715   7.366   7.972 -1.0985 -0.0754  2.1452
  719MOL0     H94867  -1.720   7.290   7.822  0.3948  2.8263  0.7611
  719MOL0     H94868  -1.907   7.251   8.045  0.1932 -0.2786  0.8349
  719MOL0     H94869  -1.859   7.098   7.966 -0.1957 -0.2134  0.0812
  719MOL0     H94870  -2.119   7.129   8.019 -0.6771 -1.5782  0.0160
  719MOL0     H94871  -2.335   7.039   7.960  0.4639 -3.0110 -0.5292
  719MOL0     H94872  -2.660   6.886   7.618 -0.2553  0.6065 -0.5598
  719MOL0     H94873  -2.914   6.840   7.623 -1.3547 -1.0104  0.4322
  719MOL0     H94874  -3.122   7.046   7.677  1.6661 -1.3223 -0.3244
  719MOL0     H94875  -3.268   6.972   7.751  0.4063  0.1315  2.5995
  719MOL0     H94876  -3.191   6.755   7.629 -3.6459  1.1934  0.4534
  719MOL0     H94877  -3.110   6.865   7.523 -1.0999  2.2477 -2.0857
  719MOL0     H94878  -3.398   6.836   7.596  0.0254 -0.9200 -0.7726
  719MOL0     H94879  -3.316   6.818   7.436  1.3094  0.2344  0.2840
  719MOL0     H94880  -3.378   7.081   7.585 -2.7213 -4.0288  2.6517
  719MOL0     H94881  -3.288   7.061   7.435  1.4159 -0.1004  0.6915
  719MOL0     H94882  -3.568   6.953   7.495  0.6785 -0.3399  0.0094
  719MOL0     H94883  -3.496   6.947   7.338 -2.8312  1.9928 -2.3423
  719MOL0     H94884  -3.499   7.228   7.377 -1.1468  0.5785  0.5983
  719MOL0     H94885  -3.623   7.181   7.489  1.4766 -3.2319  1.5066
  719MOL0     H94886  -3.751   7.078   7.319  1.9219 -2.3625 -0.4830
  719MOL0     H94887  -3.712   7.252   7.303  0.7468  0.0120  0.6613
  719MOL0     H94888  -3.697   7.103   7.080 -0.9445  0.7323  1.1934
  719MOL0     H94889  -3.561   7.026   7.165  2.1545  0.0578  2.0428
  719MOL0     H94890  -2.948   6.999   8.011 -2.5044 -1.9993 -2.1518
  719MOL0     H94891  -2.694   7.063   8.009 -1.2530  0.0967 -0.0126
  719MOL0     H94892  -2.270   7.200   7.558  1.1858 -0.6797 -0.5442
  719MOL0     H94893  -2.054   7.280   7.624 -2.6539 -0.1701 -1.5885
  719MOL0     H94894  -0.121   6.703   7.882  2.3953  0.8041 -0.3910
  719MOL0     H94895  -0.058   6.519   8.028 -0.0086  0.1508  3.0037
  719MOL0     H94896  -0.117   6.281   8.330  0.8147 -2.2000 -0.7025
  719MOL0     H94897  -0.087   6.072   8.448 -0.5952 -0.0968 -0.1753
  719MOL0     H94898   0.073   5.861   8.436 -1.2492  2.0718 -0.2007
  719MOL0     H94899  -0.030   5.872   8.584  0.2258 -0.0282  1.3966
  719MOL0     H94900   0.165   5.752   8.716  0.5001 -0.3713  0.3649
  719MOL0     H94901   0.088   5.656   8.600  0.6426  0.1189 -1.4500
  719MOL0     H94902   0.256   5.728   8.416  0.1784  0.9399 -0.2349
  719MOL0     H94903   0.306   5.621   8.548  1.0822  0.9844  3.3022
  719MOL0     H94904   0.368   5.916   8.526 -2.0429 -1.1606 -3.5806
  719MOL0     H94905   0.411   5.810   8.664 -1.7398 -0.5017  0.5681
  719MOL0     H94906   0.694   5.689   8.401  1.5552  0.2657  3.7528
  719MOL0     H94907   0.275   6.202   8.625 -0.0989  2.6300  0.9053
  719MOL0     H94908   0.265   6.407   8.492 -1.3660  0.2611 -1.1470
  720MOL0     O94909   6.955   3.556   4.962 -0.6705  0.1524 -0.2386
  720MOL0     C94910   6.947   3.670   4.909 -0.7171  0.5854  0.5161
  720MOL0     O94911   6.857   3.768   4.950 -0.2405  0.2221 -0.6059
  720MOL0     C94912   6.780   3.733   5.061  0.5136 -0.3638  0.7988
  720MOL0     C94913   6.827   3.756   5.194 -1.0478 -0.1623  0.6033
  720MOL0     C94914   6.752   3.722   5.305 -0.2150  1.2513 -0.4432
  720MOL0     C94915   6.628   3.664   5.291  0.9090  0.2603 -0.4380
  720MOL0     O94916   6.550   3.606   5.391 -0.2254 -0.3291 -0.4872
  720MOL0     C94917   6.530   3.677   5.510  0.1219 -0.3539 -0.2235
  720MOL0     C94918   6.562   3.596   5.637  0.2751 -0.2259  0.2410
  720MOL0     C94919   6.509   3.662   5.773  0.2062 -0.9177 -0.0362
  720MOL0     C94920   6.530   3.553   5.879  0.6058 -0.2335  0.4130
  720MOL0     C94921   6.491   3.609   6.019  0.6944  0.4695 -0.4524
  720MOL0     C94922   6.548   3.513   6.128  0.5046 -0.1813 -0.4402
  720MOL0     C94923   6.510   3.550   6.267  0.3280  0.6906 -0.0077
  720MOL0     C94924   6.556   3.472   6.385  0.7206  0.1625  0.2951
  720MOL0     N94925   6.513   3.332   6.388 -0.5540 -0.0977 -0.4269
  720MOL0     C94926   6.405   3.267   6.450 -0.1528  0.3151  0.1463
  720MOL0     C94927   6.421   3.135   6.432 -0.0975 -0.5153 -0.3835
  720MOL0     C94928   6.334   3.031   6.488 -0.7236  0.6304 -0.0463
  720MOL0     C94929   6.244   2.968   6.381  0.4341 -0.5697  0.0512
  720MOL0     C94930   6.158   3.072   6.301 -0.7206 -0.0015 -0.3465
  720MOL0     C94931   6.045   3.106   6.391 -0.2654 -0.5324 -0.5497
  720MOL0     O94932   5.957   3.197   6.327  0.8275 -0.6957  0.3767
  720MOL0     C94933   5.824   3.219   6.381 -0.2403  0.5409  1.0169
  720MOL0     C94934   5.786   3.175   6.509 -0.0931 -0.2376 -0.1133
  720MOL0     C94935   5.650   3.178   6.553  0.9310 -0.2783  0.3824
  720MOL0     C94936   5.560   3.253   6.470  0.7129 -0.1472  0.0962
  720MOL0     C94937   5.426   3.287   6.528  0.1251  0.1842 -0.3393
  720MOL0     O94938   5.358   3.383   6.468 -0.8102 -0.4584 -0.1175
  720MOL0     C94939   5.230   3.412   6.510 -0.2689 -0.3700 -0.6845
  720MOL0     C94940   5.193   3.550   6.504  1.0276  0.0308  0.3421
  720MOL0     C94941   5.058   3.587   6.515  0.2847 -0.7082  0.4089
  720MOL0     C94942   4.956   3.496   6.560  0.2216 -0.1395  0.5392
  720MOL0     O94943   4.825   3.541   6.591 -1.2245  0.0881  0.7506
  720MOL0     C94944   4.719   3.452   6.545  0.4059 -0.2584 -0.3149
  720MOL0     C94945   4.589   3.533   6.516 -0.6340  0.6015  0.0801
  720MOL0     C94946   4.472   3.460   6.445 -0.4873 -0.2473 -0.3521
  720MOL0     C94947   4.364   3.573   6.425  0.1259 -0.8073  0.7952
  720MOL0     C94948   4.237   3.514   6.378 -0.2959  0.3214  0.1163
  720MOL0     C94949   4.121   3.613   6.374 -0.0406 -1.0425 -0.3120
  720MOL0     C94950   4.001   3.563   6.294 -0.2998  0.0569  0.0382
  720MOL0     C94951   3.892   3.671   6.305 -0.2439  0.2330 -0.6082
  720MOL0    Cl94952   3.745   3.616   6.218 -0.0749  0.0163  0.0893
  720MOL0     C94953   4.997   3.357   6.567 -0.4948 -0.1522 -0.0379
  720MOL0     C94954   5.128   3.318   6.541  0.4603 -0.4629  0.9892
  720MOL0     O94955   5.383   3.223   6.619 -0.4159  0.9342 -0.4365
  720MOL0     C94956   5.605   3.302   6.346  0.8242  0.4560 -0.6284
  720MOL0     C94957   5.733   3.278   6.301  0.3196  1.1426  0.7376
  720MOL0     N94958   6.537   3.110   6.361  0.1342 -0.3422 -0.4807
  720MOL0     N94959   6.585   3.233   6.326  0.1171  0.1366  0.5699
  720MOL0     C94960   6.569   3.655   5.160  1.0435  0.1327 -0.2002
  720MOL0     C94961   6.647   3.695   5.053  0.1648 -0.0258 -0.4901
  720MOL0     C94962   7.038   3.712   4.806 -0.2335  0.1473  0.7695
  720MOL0     C94963   7.158   3.632   4.769  0.9962  0.0009 -0.4437
  720MOL0     C94964   7.248   3.672   4.666  0.1045 -0.2985  0.2886
  720MOL0     C94965   7.211   3.778   4.582  0.0399 -0.1237  0.1111
  720MOL0     O94966   7.286   3.809   4.472  0.0573 -0.1594 -0.1186
  720MOL0     C94967   7.322   3.703   4.370 -0.3960  0.2891 -0.0379
  720MOL0     C94968   7.217   3.683   4.261  0.5824 -0.5827 -1.2001
  720MOL0     C94969   7.094   3.591   4.296 -0.3757 -1.1629  0.0089
  720MOL0     C94970   7.003   3.598   4.177  0.3263 -0.0882 -0.2086
  720MOL0     C94971   6.863   3.594   4.214 -0.6101 -0.6122 -0.7352
  720MOL0     C94972   6.752   3.597   4.259 -0.4375 -1.0501 -0.0490
  720MOL0     C94973   7.096   3.860   4.619  0.3172  0.9824 -0.3998
  720MOL0     C94974   7.014   3.822   4.727  0.6522  0.1659  0.7136
  720MOL0     H94975   6.932   3.786   5.199  0.0396 -2.5136 -3.4072
  720MOL0     H94976   6.784   3.730   5.408  1.8045 -1.2988 -0.7584
  720MOL0     H94977   6.422   3.698   5.506  0.0605 -0.0080  2.0126
  720MOL0     H94978   6.588   3.770   5.506  3.3626 -2.2614 -0.4867
  720MOL0     H94979   6.665   3.560   5.642  0.9228  0.3119 -4.5724
  720MOL0     H94980   6.500   3.508   5.615 -1.0346  0.9843 -1.1665
  720MOL0     H94981   6.403   3.685   5.756  0.0585  2.8178  4.2365
  720MOL0     H94982   6.558   3.757   5.797 -2.0499  0.2493  0.2821
  720MOL0     H94983   6.466   3.469   5.851  2.3871 -1.2721 -0.7615
  720MOL0     H94984   6.630   3.514   5.900  1.9875  2.4300 -0.6866
  720MOL0     H94985   6.382   3.625   6.022  0.4206 -1.4032  0.4803
  720MOL0     H94986   6.520   3.713   6.035  0.0052  0.9662 -2.1663
  720MOL0     H94987   6.658   3.516   6.121  0.7258  2.7002  1.9779
  720MOL0     H94988   6.511   3.412   6.112 -1.1513  0.3312 -0.0132
  720MOL0     H94989   6.532   3.656   6.280 -0.8272  0.9581 -0.0486
  720MOL0     H94990   6.401   3.536   6.266  0.3801  0.2104 -1.2772
  720MOL0     H94991   6.523   3.522   6.477  1.4709  1.7205 -0.2502
  720MOL0     H94992   6.663   3.494   6.387  0.3907  1.9214  1.3476
  720MOL0     H94993   6.320   3.304   6.506 -1.3514 -1.7069 -0.2180
  720MOL0     H94994   6.275   3.081   6.565  2.7708  2.3909  1.7512
  720MOL0     H94995   6.396   2.957   6.540 -0.9237 -0.3494 -1.1532
  720MOL0     H94996   6.183   2.885   6.418  3.1602 -1.6430  2.5200
  720MOL0     H94997   6.316   2.924   6.313  3.3110  0.4623  2.2135
  720MOL0     H94998   6.221   3.155   6.268  0.3878 -0.0190  1.5927
  720MOL0     H94999   6.115   3.026   6.212 -2.6373 -4.3126  2.4881
  720MOL0     H95000   6.084   3.157   6.479 -0.0820  2.0672 -2.0501
  720MOL0     H95001   5.986   3.017   6.414 -1.7398  0.7982  1.1204
  720MOL0     H95002   5.863   3.132   6.572 -0.8994 -1.1357  0.2805
  720MOL0     H95003   5.626   3.141   6.652  4.3839 -1.3806  0.9402
  720MOL0     H95004   5.261   3.629   6.473  0.5463  0.0163 -0.8184
  720MOL0     H95005   5.026   3.690   6.505 -0.7918 -0.9906  0.8909
  720MOL0     H95006   4.704   3.371   6.617 -1.1614 -0.4537 -0.8312
  720MOL0     H95007   4.740   3.408   6.447 -0.0796 -0.1091 -0.4889
  720MOL0     H95008   4.616   3.615   6.448  3.4264 -1.6423 -1.3598
  720MOL0     H95009   4.548   3.580   6.606 -0.4808 -0.2087  0.5796
  720MOL0     H95010   4.428   3.377   6.500  2.8810 -0.7242  1.9365
  720MOL0     H95011   4.499   3.421   6.346  1.7580 -1.6743  0.7461
  720MOL0     H95012   4.349   3.635   6.514 -0.4896 -2.4561  1.8925
  720MOL0     H95013   4.399   3.640   6.346 -0.2305 -2.9711 -1.2907
  720MOL0     H95014   4.228   3.427   6.443  2.0463 -0.0384  0.0602
  720MOL0     H95015   4.239   3.482   6.273 -1.8966  0.7614 -0.0724
  720MOL0     H95016   4.143   3.694   6.304 -1.4731  1.1859  1.6515
  720MOL0     H95017   4.106   3.663   6.470 -0.4122  0.2397 -1.0207
  720MOL0     H95018   4.025   3.547   6.188 -1.7531  0.7111 -0.4162
  720MOL0     H95019   3.963   3.470   6.339 -0.1677 -0.5202 -0.9930
  720MOL0     H95020   3.925   3.768   6.266 -1.2927  0.9910  0.2975
  720MOL0     H95021   3.850   3.679   6.406 -0.6150 -0.5662 -0.6904
  720MOL0     H95022   4.923   3.277   6.571  1.8545 -2.5433 -1.5001
  720MOL0     H95023   5.154   3.215   6.522  1.5567  0.2845 -2.2699
  720MOL0     H95024   5.537   3.357   6.283  1.4065 -0.4883 -2.1242
  720MOL0     H95025   5.763   3.313   6.203  2.5977  0.3435  1.0932
  720MOL0     H95026   6.471   3.609   5.147  0.8626 -0.6695  3.0216
  720MOL0     H95027   6.612   3.680   4.952  2.0223  0.0965 -1.1826
  720MOL0     H95028   7.189   3.552   4.835 -3.6220 -0.6642  1.3036
  720MOL0     H95029   7.337   3.611   4.650 -0.7697 -0.6993 -4.6953
  720MOL0     H95030   7.337   3.605   4.415 -2.1082  0.4643  1.0281
  720MOL0     H95031   7.421   3.727   4.331  0.3244 -0.1666  1.4549
  720MOL0     H95032   7.175   3.778   4.229 -1.2116 -0.3021  1.5812
  720MOL0     H95033   7.272   3.644   4.175  0.6420 -2.0214 -0.5459
  720MOL0     H95034   7.060   3.627   4.394  1.3305  0.5389  0.0452
  720MOL0     H95035   7.143   3.495   4.312  1.3434 -0.5982 -1.5317
  720MOL0     H95036   7.025   3.677   4.105  1.7409 -1.4285 -1.3262
  720MOL0     H95037   7.010   3.514   4.107  3.3823  1.9425 -2.6333
  720MOL0     H95038   6.659   3.611   4.311  0.2558  1.2379  0.7026
  720MOL0     H95039   7.068   3.932   4.542 -1.3017 -0.6916 -1.4836
  720MOL0     H95040   6.916   3.868   4.738 -0.0787 -1.2512  0.3564
  721MOL0     O95041   2.274   1.852   9.286 -0.6623 -0.0666  0.5359
  721MOL0     C95042   2.252   1.748   9.229  0.4821 -0.4938  0.5896
  721MOL0     O95043   2.168   1.727   9.125 -0.2699 -0.8698 -0.0842
  721MOL0     C95044   2.089   1.835   9.081 -0.0065  0.3311 -0.3415
  721MOL0     C95045   2.011   1.916   9.166 -0.2227  0.2159 -0.6293
  721MOL0     C95046   1.921   2.012   9.116  0.3655  0.4630  0.1991
  721MOL0     C95047   1.935   2.049   8.982 -0.7751  0.5114 -0.1193
  721MOL0     O95048   1.860   2.155   8.935  0.2679  0.6294 -0.3335
  721MOL0     C95049   1.721   2.121   8.920  0.1952  0.4216 -0.1234
  721MOL0     C95050   1.625   2.243   8.941 -0.4924  0.4988 -0.4861
  721MOL0     C95051   1.614   2.327   8.811  0.3207 -0.3077 -0.8235
  721MOL0     C95052   1.522   2.256   8.707  0.4450  0.2318  0.0626
  721MOL0     C95053   1.454   2.364   8.607 -0.0117  0.7360 -1.1295
  721MOL0     C95054   1.395   2.286   8.484 -0.2819 -0.4762  0.3828
  721MOL0     C95055   1.317   2.385   8.389  0.4266 -0.3511 -0.2056
  721MOL0     C95056   1.193   2.463   8.438 -0.7823  1.1881  0.2292
  721MOL0     N95057   1.093   2.377   8.497 -0.1898  0.2247 -1.3213
  721MOL0     C95058   1.010   2.293   8.429 -0.5157 -0.5375 -0.4097
  721MOL0     C95059   0.921   2.251   8.522 -0.7218 -0.6285 -0.3338
  721MOL0     C95060   0.814   2.158   8.500  0.1851  0.2355  0.0982
  721MOL0     C95061   0.671   2.227   8.503 -0.5749 -0.5694 -0.3446
  721MOL0     C95062   0.563   2.131   8.471  0.1452  0.1371 -0.3945
  721MOL0     C95063   0.441   2.201   8.416  0.2977 -0.6113  0.4005
  721MOL0     O95064   0.341   2.099   8.391  0.0526 -1.0744 -0.4281
  721MOL0     C95065   0.206   2.120   8.388  0.0815  0.3151 -0.4839
  721MOL0     C95066   0.148   2.244   8.413 -0.9376 -1.1856  0.4645
  721MOL0     C95067   0.010   2.265   8.391  0.3365 -0.5933 -1.0411
  721MOL0     C95068  -0.071   2.161   8.332  0.0298 -1.2950 -0.6059
  721MOL0     C95069  -0.210   2.184   8.307 -0.7811  0.1651 -0.3181
  721MOL0     O95070  -0.280   2.252   8.400  1.6747  0.1756 -0.0530
  721MOL0     C95071  -0.417   2.258   8.407 -0.1082 -1.0830 -0.6188
  721MOL0     C95072  -0.497   2.141   8.415 -0.6091 -0.4192  0.0249
  721MOL0     C95073  -0.636   2.158   8.444 -0.3011  0.2266 -0.0886
  721MOL0     C95074  -0.693   2.283   8.439 -0.1914 -0.1241 -0.2806
  721MOL0     O95075  -0.831   2.287   8.425 -0.1328  0.5172  0.0652
  721MOL0     C95076  -0.908   2.407   8.464  0.1987 -0.4784  0.5659
  721MOL0     C95077  -0.917   2.480   8.329 -1.2008 -0.5430  0.3203
  721MOL0     C95078  -0.934   2.632   8.341 -0.4571 -0.2209  0.3267
  721MOL0     C95079  -1.058   2.684   8.408 -0.7326  0.5163 -0.2438
  721MOL0     C95080  -1.046   2.839   8.436 -0.6355 -0.0776  0.3554
  721MOL0     C95081  -1.180   2.888   8.492 -0.4570 -1.2892  0.6116
  721MOL0     C95082  -1.179   3.047   8.467  0.4263  0.6585  0.5648
  721MOL0     C95083  -1.296   3.116   8.529 -0.4231  0.0166 -0.2236
  721MOL0    Cl95084  -1.265   3.299   8.530  0.4909  0.3488 -0.5158
  721MOL0     C95085  -0.614   2.397   8.428 -0.4164 -0.7765 -0.7100
  721MOL0     C95086  -0.473   2.384   8.417 -0.8320 -0.0530  0.1219
  721MOL0     O95087  -0.263   2.122   8.214 -0.3466 -0.1529  0.9333
  721MOL0     C95088  -0.014   2.040   8.302  0.0460  0.1294 -0.3548
  721MOL0     C95089   0.122   2.025   8.331  1.3361 -0.1808  0.7274
  721MOL0     N95090   0.958   2.297   8.640  0.6190 -0.6174 -0.1427
  721MOL0     N95091   1.058   2.374   8.626 -0.2683 -0.0070 -0.1015
  721MOL0     C95092   2.017   1.972   8.889 -0.3052 -0.2985 -0.8327
  721MOL0     C95093   2.088   1.861   8.942  0.3507 -0.3065  0.1773
  721MOL0     C95094   2.320   1.636   9.284 -0.8353  0.3910 -0.2157
  721MOL0     C95095   2.393   1.650   9.405  0.0430  0.2525 -0.2754
  721MOL0     C95096   2.473   1.551   9.449  0.2040 -0.4857 -0.0047
  721MOL0     C95097   2.478   1.425   9.394 -0.6148 -0.0880  0.7545
  721MOL0     O95098   2.558   1.323   9.447  0.5628 -0.1649 -0.6155
  721MOL0     C95099   2.618   1.236   9.359 -0.8027 -0.1558  0.0364
  721MOL0     C95100   2.760   1.206   9.412  0.5137 -0.3258 -0.0475
  721MOL0     C95101   2.812   1.084   9.332  0.4344 -0.0125  0.1022
  721MOL0     C95102   2.955   1.028   9.374  0.7723 -0.1009  0.6206
  721MOL0     C95103   2.998   0.928   9.278 -0.4362 -0.1983  0.3480
  721MOL0     C95104   3.025   0.838   9.200 -0.7631  0.3842  0.1973
  721MOL0     C95105   2.414   1.408   9.269  0.2832  0.2867  0.2408
  721MOL0     C95106   2.346   1.520   9.212 -0.5293  0.3205  1.0544
  721MOL0     H95107   2.008   1.895   9.273  1.0584  1.3386 -0.3399
  721MOL0     H95108   1.853   2.076   9.172  0.0812  1.2500 -0.9979
  721MOL0     H95109   1.697   2.043   8.992  1.1105  2.3958  2.4912
  721MOL0     H95110   1.709   2.082   8.819 -4.2454 -1.6863  0.9736
  721MOL0     H95111   1.665   2.310   9.019  1.3504 -1.3755  0.2839
  721MOL0     H95112   1.526   2.206   8.969 -2.1235  2.0039 -3.8347
  721MOL0     H95113   1.715   2.345   8.773  0.0063  2.2802 -0.5827
  721MOL0     H95114   1.569   2.422   8.839  0.6131 -0.4260  0.0998
  721MOL0     H95115   1.585   2.191   8.646  1.9605  0.2112  1.5815
  721MOL0     H95116   1.446   2.185   8.742  0.4912  0.5705  0.8761
  721MOL0     H95117   1.527   2.436   8.570 -0.3559  2.0052  0.5355
  721MOL0     H95118   1.377   2.417   8.665  1.8007 -0.7289  2.9322
  721MOL0     H95119   1.320   2.219   8.527 -0.6979  0.7454  1.6458
  721MOL0     H95120   1.477   2.234   8.435  2.0795  2.6606  0.6986
  721MOL0     H95121   1.396   2.450   8.349  0.0181  1.0884  1.2067
  721MOL0     H95122   1.277   2.320   8.310  0.0144  0.4043 -0.6331
  721MOL0     H95123   1.144   2.533   8.369 -0.5598  1.3243  0.2103
  721MOL0     H95124   1.225   2.529   8.519 -0.0125  0.7696  0.2745
  721MOL0     H95125   1.013   2.262   8.325 -3.0090  1.7695 -1.2797
  721MOL0     H95126   0.825   2.095   8.589  0.2329 -0.0090 -0.0814
  721MOL0     H95127   0.828   2.092   8.414  0.5277  1.9950 -1.2621
  721MOL0     H95128   0.671   2.308   8.430  0.4161  0.5717  0.8602
  721MOL0     H95129   0.659   2.263   8.606  0.0016 -1.5019  0.0621
  721MOL0     H95130   0.603   2.069   8.390 -0.5640 -0.0832 -0.5820
  721MOL0     H95131   0.529   2.065   8.550  1.4558 -0.7539 -0.5423
  721MOL0     H95132   0.457   2.263   8.327 -0.6600 -1.4341 -0.3698
  721MOL0     H95133   0.399   2.257   8.501  0.2675 -1.3323  0.8648
  721MOL0     H95134   0.210   2.318   8.462 -1.2201 -0.8948  0.3891
  721MOL0     H95135  -0.034   2.364   8.403  1.1617 -0.5198  1.9717
  721MOL0     H95136  -0.464   2.037   8.407 -1.4230 -0.6025 -1.3660
  721MOL0     H95137  -0.700   2.071   8.458 -1.3236  0.4401 -2.7509
  721MOL0     H95138  -0.874   2.473   8.545  0.8919  0.3335 -0.3655
  721MOL0     H95139  -1.003   2.369   8.503  1.0692 -2.0133  1.2856
  721MOL0     H95140  -0.995   2.440   8.263 -1.7095  0.6431  0.1896
  721MOL0     H95141  -0.827   2.468   8.268 -0.5305 -1.4050  1.4313
  721MOL0     H95142  -0.920   2.673   8.240  2.2671 -2.7885 -0.5213
  721MOL0     H95143  -0.844   2.662   8.396  1.0941 -2.7039 -0.6497
  721MOL0     H95144  -1.139   2.665   8.336 -1.0130  0.7065  0.0150
  721MOL0     H95145  -1.079   2.626   8.498  0.8732 -0.7284 -0.6352
  721MOL0     H95146  -1.033   2.864   8.330 -0.1339  1.6249  0.7794
  721MOL0     H95147  -0.960   2.870   8.495 -1.4591  0.9743  1.0533
  721MOL0     H95148  -1.180   2.856   8.596  1.6700 -1.6242  0.5602
  721MOL0     H95149  -1.268   2.855   8.436  0.7902 -1.7659 -1.1591
  721MOL0     H95150  -1.093   3.104   8.505 -0.2913  1.6977  0.6570
  721MOL0     H95151  -1.179   3.068   8.360  0.1543 -0.2148  0.3860
  721MOL0     H95152  -1.314   3.080   8.631  0.4385  2.0297  0.6990
  721MOL0     H95153  -1.388   3.112   8.470 -1.6480  1.2695  1.4655
  721MOL0     H95154  -0.660   2.492   8.403 -0.4654 -0.9319 -1.2145
  721MOL0     H95155  -0.403   2.466   8.429  1.3478 -1.6770 -0.9847
  721MOL0     H95156  -0.074   1.967   8.248  1.4539 -2.9602  1.9493
  721MOL0     H95157   0.175   1.946   8.279 -0.6203 -0.4546 -1.0125
  721MOL0     H95158   2.024   2.015   8.790  1.1418  1.9063  0.1645
  721MOL0     H95159   2.155   1.798   8.885  0.3826 -0.3827  0.2965
  721MOL0     H95160   2.402   1.744   9.459 -2.1374  1.0962 -1.3022
  721MOL0     H95161   2.536   1.574   9.535  0.2346 -0.7283  0.0366
  721MOL0     H95162   2.632   1.279   9.259 -1.0660 -0.8674 -0.3071
  721MOL0     H95163   2.564   1.141   9.355  0.8027 -1.3050  2.9631
  721MOL0     H95164   2.829   1.291   9.403  0.1829 -0.0062  0.3586
  721MOL0     H95165   2.747   1.176   9.516 -1.7363  2.4977  0.6372
  721MOL0     H95166   2.811   1.113   9.227 -2.0363  2.2057  0.6220
  721MOL0     H95167   2.741   1.003   9.352 -1.1789  0.8856 -1.6220
  721MOL0     H95168   3.032   1.106   9.383  0.1406  0.9238 -2.0925
  721MOL0     H95169   2.937   0.975   9.468 -2.4026  0.7420  0.5957
  721MOL0     H95170   3.055   0.763   9.130  0.9604  2.2904 -1.2312
  721MOL0     H95171   2.416   1.307   9.229 -0.2149  0.4164 -0.1189
  721MOL0     H95172   2.297   1.515   9.115 -1.7273 -1.6947  1.7047
  722MOL0     O95173   0.414   0.601   7.084 -0.0205 -0.7443  0.1815
  722MOL0     C95174   0.500   0.523   7.119 -0.0402  0.4108  0.2828
  722MOL0     O95175   0.480   0.406   7.189  0.0785 -0.1056 -0.6526
  722MOL0     C95176   0.363   0.347   7.234 -0.2032  0.5146  1.2629
  722MOL0     C95177   0.237   0.413   7.245 -0.0890 -0.1272 -0.5802
  722MOL0     C95178   0.117   0.346   7.274  0.1342  0.3218 -0.3710
  722MOL0     C95179   0.112   0.203   7.286  0.2991 -0.0623 -1.1871
  722MOL0     O95180   0.001   0.123   7.298  0.5143 -0.5575 -0.4914
  722MOL0     C95181  -0.122   0.189   7.282  0.3261 -0.8904 -0.1515
  722MOL0     C95182  -0.234   0.090   7.267  0.1797  0.1763 -0.2806
  722MOL0     C95183  -0.300   0.061   7.405  0.2073  0.2302  0.5846
  722MOL0     C95184  -0.422  -0.041   7.392  0.0058 -0.0201 -0.5594
  722MOL0     C95185  -0.387  -0.182   7.352 -0.4790 -0.0130 -0.2401
  722MOL0     C95186  -0.518  -0.258   7.380  0.0463 -0.6959  0.4065
  722MOL0     C95187  -0.510  -0.416   7.360  0.5210 -0.3725 -0.9271
  722MOL0     C95188  -0.645  -0.484   7.352 -0.1126  0.9615  0.5556
  722MOL0     N95189  -0.724  -0.467   7.482 -0.3430  0.9630 -0.2475
  722MOL0     C95190  -0.724  -0.572   7.574  0.5393 -0.0058  1.0308
  722MOL0     C95191  -0.833  -0.546   7.649  0.5984  0.0813  0.5549
  722MOL0     C95192  -0.884  -0.631   7.756 -0.5154 -0.1451  0.3080
  722MOL0     C95193  -0.922  -0.766   7.701 -0.2193 -0.2810 -0.2956
  722MOL0     C95194  -1.017  -0.843   7.792 -0.0932 -0.5137  0.0643
  722MOL0     C95195  -1.161  -0.802   7.782  0.0345  1.3793 -0.2594
  722MOL0     O95196  -1.241  -0.891   7.860  0.6585 -0.1984 -0.4038
  722MOL0     C95197  -1.372  -0.923   7.838  0.1823 -0.3743  0.0020
  722MOL0     C95198  -1.442  -0.848   7.736  0.4020 -0.2815  1.2043
  722MOL0     C95199  -1.573  -0.883   7.712  0.2486  0.4802 -0.3369
  722MOL0     C95200  -1.629  -0.999   7.780  0.7016 -0.2967  0.2048
  722MOL0     C95201  -1.774  -1.039   7.759  0.0109  0.7644 -0.0809
  722MOL0     O95202  -1.822  -1.146   7.825 -0.7618  0.2585 -0.1733
  722MOL0     C95203  -1.941  -1.206   7.811 -0.0047 -0.1111 -0.1750
  722MOL0     C95204  -2.066  -1.142   7.657 -1.0473  0.2202  0.3057
  722MOL0     C95205  -2.261  -1.217   7.641 -0.4601 -0.4614  0.5907
  722MOL0     C95206  -2.329  -1.360   7.782  0.5920 -1.4697 -0.4526
  722MOL0     O95207  -2.453  -1.402   7.766  0.2592  0.2851  0.6165
  722MOL0     C95208  -2.527  -1.465   7.873 -0.8126 -0.2414  0.5985
  722MOL0     C95209  -2.539  -1.386   7.999 -0.5071  0.5629 -0.0076
  722MOL0     C95210  -2.647  -1.452   8.100  0.1115  0.0494 -0.3295
  722MOL0     C95211  -2.693  -1.351   8.198 -0.1408 -0.7170 -0.6290
  722MOL0     C95212  -2.586  -1.278   8.286 -0.8368 -0.5099  1.2929
  722MOL0     C95213  -2.649  -1.187   8.386  0.1078  0.6352  0.3795
  722MOL0     C95214  -2.556  -1.086   8.473 -0.5137 -0.2869 -0.4069
  722MOL0     C95215  -2.627  -0.972   8.548  0.1601 -0.4676 -1.0636
  722MOL0    Cl95216  -2.729  -1.038   8.678  0.1269  0.2321 -0.0077
  722MOL0     C95217  -2.204  -1.421   7.943  0.1300  0.3213  0.1175
  722MOL0     C95218  -2.012  -1.343   7.956  0.1960  0.6254  0.3559
  722MOL0     O95219  -1.835  -0.974   7.678  0.4320 -0.5799  0.6893
  722MOL0     C95220  -1.562  -1.061   7.880  0.0744 -0.6178 -0.2607
  722MOL0     C95221  -1.428  -1.024   7.911  0.4714 -0.1507  0.0738
  722MOL0     N95222  -0.899  -0.436   7.598 -0.4799 -0.7384  0.5720
  722MOL0     N95223  -0.832  -0.382   7.499  0.2228  0.5457 -0.5520
  722MOL0     C95224   0.239   0.143   7.293 -0.3217  0.0975  0.7079
  722MOL0     C95225   0.361   0.208   7.254  0.1098  0.0388  0.5612
  722MOL0     C95226   0.639   0.574   7.129 -0.0380  0.1045 -0.0194
  722MOL0     C95227   0.737   0.491   7.190 -0.9671 -1.0900  0.2882
  722MOL0     C95228   0.871   0.550   7.209 -0.3300 -0.4211 -0.6012
  722MOL0     C95229   0.909   0.677   7.162  0.5030  0.1496  0.5081
  722MOL0     O95230   1.037   0.719   7.185  0.7204 -0.1107 -0.1393
  722MOL0     C95231   1.038   0.862   7.191  0.4321  1.0940 -0.1255
  722MOL0     C95232   1.181   0.889   7.233 -0.0594 -1.0890 -0.0295
  722MOL0     C95233   1.210   0.860   7.380 -0.7675  0.7916  0.9980
  722MOL0     C95234   1.361   0.894   7.404 -0.4473 -0.1297 -0.5598
  722MOL0     C95235   1.389   0.900   7.548  0.3419  0.1689 -0.4632
  722MOL0     C95236   1.418   0.893   7.662 -0.8631 -0.3374 -0.5434
  722MOL0     C95237   0.808   0.746   7.091  0.1566  0.0159  0.4011
  722MOL0     C95238   0.677   0.707   7.088  0.4025  0.2392  0.4572
  722MOL0     H95239   0.228   0.520   7.231 -2.4313 -0.2082 -0.1784
  722MOL0     H95240   0.021   0.395   7.289 -0.7939 -1.3138 -0.7075
  722MOL0     H95241  -0.124   0.254   7.194 -1.8296 -0.3589  0.2161
  722MOL0     H95242  -0.153   0.239   7.374 -2.6441 -1.9526 -0.4458
  722MOL0     H95243  -0.183  -0.000   7.231 -1.6994 -1.2225  0.4173
  722MOL0     H95244  -0.311   0.119   7.195 -1.9419 -0.3284  1.6805
  722MOL0     H95245  -0.331   0.162   7.432  3.4031  1.9651 -1.5565
  722MOL0     H95246  -0.226   0.017   7.472 -0.6731 -0.2279  1.2716
  722MOL0     H95247  -0.459  -0.044   7.495  1.6107 -3.2347  0.0774
  722MOL0     H95248  -0.504   0.004   7.337  1.2586  0.9452 -1.6850
  722MOL0     H95249  -0.311  -0.225   7.418 -0.1603  0.1570 -0.4944
  722MOL0     H95250  -0.352  -0.186   7.249  1.5866 -0.6757  0.4309
  722MOL0     H95251  -0.596  -0.229   7.309  1.6605  3.2699  0.0115
  722MOL0     H95252  -0.561  -0.229   7.476 -2.8669  0.3178 -1.0884
  722MOL0     H95253  -0.457  -0.430   7.265 -0.7166 -3.0949 -1.3162
  722MOL0     H95254  -0.447  -0.465   7.435 -0.9264 -0.6901  0.1283
  722MOL0     H95255  -0.627  -0.591   7.336  3.1064  0.4679  5.3780
  722MOL0     H95256  -0.695  -0.458   7.258 -0.3030 -2.4279 -0.4129
  722MOL0     H95257  -0.651  -0.652   7.580 -2.0119 -2.6631 -0.7996
  722MOL0     H95258  -0.970  -0.594   7.813 -2.2402 -0.4292 -1.9638
  722MOL0     H95259  -0.802  -0.643   7.827 -0.6149 -0.7397  0.3247
  722MOL0     H95260  -0.835  -0.832   7.695  1.5763  1.3904  3.7891
  722MOL0     H95261  -0.966  -0.764   7.601  0.0544 -0.1445 -0.4121
  722MOL0     H95262  -1.023  -0.944   7.750 -1.5148 -0.2876 -0.3437
  722MOL0     H95263  -0.990  -0.841   7.898 -2.3607 -0.4893  0.7042
  722MOL0     H95264  -1.195  -0.805   7.678  0.9271 -0.2969 -0.5204
  722MOL0     H95265  -1.177  -0.699   7.818  1.7273  0.6856  2.8052
  722MOL0     H95266  -1.400  -0.764   7.681 -1.9334  0.9710  1.2100
  722MOL0     H95267  -1.626  -0.822   7.639  2.0256  2.5187 -0.0116
  722MOL0     H95268  -2.029  -1.076   7.580  0.1196  1.0144  1.5015
  722MOL0     H95269  -2.319  -1.185   7.556 -0.3071 -2.6122 -0.3896
  722MOL0     H95270  -2.485  -1.565   7.889 -2.0731 -1.2354 -1.7493
  722MOL0     H95271  -2.627  -1.472   7.831 -1.0676 -0.7316  1.2733
  722MOL0     H95272  -2.572  -1.284   7.975 -1.8574 -0.2092 -1.7219
  722MOL0     H95273  -2.449  -1.381   8.061 -1.8637  1.6503  1.9941
  722MOL0     H95274  -2.596  -1.529   8.159  1.7628  2.6293  1.8284
  722MOL0     H95275  -2.733  -1.484   8.040 -2.4440  1.2836  2.4662
  722MOL0     H95276  -2.746  -1.272   8.143  0.9510  0.2210 -0.3711
  722MOL0     H95277  -2.765  -1.389   8.271  0.5193  0.6386  0.7819
  722MOL0     H95278  -2.515  -1.232   8.216  1.0299 -4.4502  0.2647
  722MOL0     H95279  -2.512  -1.348   8.326 -0.2581 -1.4487 -1.2007
  722MOL0     H95280  -2.699  -1.254   8.457 -0.9130  2.0077  1.0167
  722MOL0     H95281  -2.721  -1.119   8.339  0.4773 -0.5091 -1.9711
  722MOL0     H95282  -2.492  -1.143   8.541  3.2747  2.7847 -1.0685
  722MOL0     H95283  -2.485  -1.035   8.408 -0.8002  0.7892  0.0997
  722MOL0     H95284  -2.706  -0.937   8.480 -1.0188  1.2415  1.0470
  722MOL0     H95285  -2.557  -0.894   8.579 -0.2690 -0.3376 -0.3983
  722MOL0     H95286  -2.242  -1.500   8.006 -1.5696 -0.9440 -2.3046
  722MOL0     H95287  -1.948  -1.372   8.039 -2.4064  1.0350  2.6767
  722MOL0     H95288  -1.618  -1.126   7.947 -1.3023 -1.2391 -1.9580
  722MOL0     H95289  -1.364  -1.068   7.987  1.6613 -1.3934 -1.5830
  722MOL0     H95290   0.255   0.040   7.322 -1.8234 -1.2900 -2.8057
  722MOL0     H95291   0.447   0.146   7.230  0.8085  1.3259 -0.4065
  722MOL0     H95292   0.723   0.396   7.241 -1.3083 -1.1943  0.0022
  722MOL0     H95293   0.945   0.485   7.255 -2.8934 -3.1564 -0.0406
  722MOL0     H95294   0.964   0.905   7.260  0.6415  0.5942  0.4106
  722MOL0     H95295   1.026   0.907   7.092 -2.1361  1.1339  0.1200
  722MOL0     H95296   1.243   0.829   7.167  0.0985 -0.7499 -0.1938
  722MOL0     H95297   1.205   0.993   7.207  2.7901 -2.0566 -1.6674
  722MOL0     H95298   1.192   0.754   7.397 -1.7384  1.0961  2.0174
  722MOL0     H95299   1.139   0.920   7.437 -2.8180 -0.5803  0.0002
  722MOL0     H95300   1.430   0.828   7.352 -1.5154 -0.8527 -1.1049
  722MOL0     H95301   1.384   0.994   7.366 -0.0788  0.2172  0.5388
  722MOL0     H95302   1.444   0.895   7.766 -0.4983  1.5587 -0.6480
  722MOL0     H95303   0.830   0.837   7.037  0.5410  0.4912  1.3427
  722MOL0     H95304   0.600   0.776   7.055  0.2883  1.0486  2.2613
  723MOL0     O95305   8.717  10.235   5.303  0.2973  0.2842 -0.1461
  723MOL0     C95306   8.826  10.215   5.356 -0.2910  0.3778 -1.1986
  723MOL0     O95307   8.850  10.140   5.466 -0.2634  0.9727 -0.6750
  723MOL0     C95308   8.744  10.069   5.525  0.8174 -0.2402 -0.3875
  723MOL0     C95309   8.755  10.034   5.660 -0.1484  0.4380 -0.2343
  723MOL0     C95310   8.670   9.947   5.715 -0.1491  0.4194 -0.2631
  723MOL0     C95311   8.570   9.879   5.642 -0.0512 -0.2910  0.0282
  723MOL0     O95312   8.489   9.798   5.715  0.0371 -0.2141 -0.4013
  723MOL0     C95313   8.405   9.706   5.643 -0.1271  0.3346 -0.0316
  723MOL0     C95314   8.367   9.592   5.740 -0.3812  0.0394  0.8441
  723MOL0     C95315   8.466   9.566   5.853 -1.0339 -0.0595 -0.2137
  723MOL0     C95316   8.423   9.443   5.933 -1.3377 -0.0863  0.3200
  723MOL0     C95317   8.529   9.406   6.036  0.0037  0.1414 -0.3763
  723MOL0     C95318   8.527   9.496   6.159  0.5491  0.0074  0.0120
  723MOL0     C95319   8.600   9.422   6.279  0.4897  0.3388 -0.2000
  723MOL0     C95320   8.497   9.408   6.390  0.4165  0.3704 -0.3695
  723MOL0     N95321   8.473   9.533   6.462 -0.4162  0.4447 -1.0428
  723MOL0     C95322   8.542   9.586   6.570  0.0258  0.5218 -0.8280
  723MOL0     C95323   8.482   9.704   6.601  0.4349 -0.1488  0.1262
  723MOL0     C95324   8.528   9.791   6.711 -0.0698  0.1829  0.7040
  723MOL0     C95325   8.668   9.844   6.690 -0.2429  0.6434  0.6808
  723MOL0     C95326   8.718   9.900   6.829  0.4635  0.5330  0.3853
  723MOL0     C95327   8.852   9.957   6.830 -0.3415  0.9657 -0.6688
  723MOL0     O95328   8.947   9.878   6.755  0.3963  0.1401 -0.2578
  723MOL0     C95329   9.081   9.894   6.787  0.3788  0.3484 -0.7297
  723MOL0     C95330   9.138   9.988   6.868 -0.3028  0.1216  0.1844
  723MOL0     C95331   9.274   9.993   6.888  0.3616 -0.4224 -0.6083
  723MOL0     C95332   9.353   9.903   6.832 -0.2654 -0.3290 -0.1994
  723MOL0     C95333   9.500   9.910   6.850 -0.3981  0.7837  0.1837
  723MOL0     O95334   9.538  10.036   6.875 -0.1563  0.2721 -0.3005
  723MOL0     C95335   9.674  10.060   6.893  0.4283  0.3901 -0.0909
  723MOL0     C95336   9.740  10.163   6.816  1.0184  0.0757 -0.2956
  723MOL0     C95337   9.868  10.195   6.843 -0.8473 -0.4241 -0.6510
  723MOL0     C95338   9.946  10.128   6.942 -0.9173 -0.4190  0.1780
  723MOL0     O95339  10.075  10.167   6.950 -0.9351 -0.2740  0.1712
  723MOL0     C95340  10.174  10.109   7.038  0.1027 -0.4333  0.2497
  723MOL0     C95341  10.311  10.164   7.019 -0.1440  0.1642  0.6013
  723MOL0     C95342  10.359  10.159   6.869  0.3036  0.3564 -0.3181
  723MOL0     C95343  10.509  10.129   6.841 -0.1626  0.0512 -0.1818
  723MOL0     C95344  10.609  10.198   6.934  0.2919  0.2436 -0.9010
  723MOL0     C95345  10.748  10.158   6.890  0.0129 -0.1122 -0.0947
  723MOL0     C95346  10.844  10.221   6.995 -0.3985 -0.2524  0.2415
  723MOL0     C95347  10.989  10.183   6.973  0.0485 -0.1357  0.1807
  723MOL0    Cl95348  10.996  10.005   6.981  0.2769  0.1545  0.2196
  723MOL0     C95349   9.882  10.020   7.010  0.3443  0.0968  0.4669
  723MOL0     C95350   9.744   9.988   6.990 -0.7224 -1.2308 -0.6858
  723MOL0     O95351   9.570   9.804   6.846 -0.2998  0.5608  0.1582
  723MOL0     C95352   9.303   9.806   6.750  0.9822 -0.0930  0.1891
  723MOL0     C95353   9.167   9.798   6.730  0.3958  0.0121 -0.3415
  723MOL0     N95354   8.364   9.709   6.521 -0.3271 -0.1745 -0.3955
  723MOL0     N95355   8.359   9.604   6.448  0.1915  0.0509 -0.4430
  723MOL0     C95356   8.556   9.914   5.510 -1.1242  0.1954 -0.1405
  723MOL0     C95357   8.635  10.012   5.455  0.1940  0.0529  0.5384
  723MOL0     C95358   8.949  10.260   5.279 -0.1486  0.3513 -0.3835
  723MOL0     C95359   8.928  10.303   5.144 -0.6302  0.7113  0.7506
  723MOL0     C95360   9.032  10.335   5.052 -0.0486  0.6593 -0.5437
  723MOL0     C95361   9.164  10.318   5.092  0.0943 -0.8261  0.0498
  723MOL0     O95362   9.258  10.347   4.998  0.0857 -0.0867 -0.4866
  723MOL0     C95363   9.363  10.428   5.046 -0.3535 -0.5879 -0.0299
  723MOL0     C95364   9.482  10.443   4.956  0.4678  0.6992 -0.7100
  723MOL0     C95365   9.574  10.318   4.948 -0.5323  0.0434 -0.5442
  723MOL0     C95366   9.691  10.332   4.843  0.2012 -0.1778 -1.1945
  723MOL0     C95367   9.736  10.207   4.791  0.5592  0.2000  0.0547
  723MOL0     C95368   9.752  10.097   4.734 -0.5488 -0.1003 -0.8724
  723MOL0     C95369   9.187  10.275   5.222  0.3352 -0.0265  0.5402
  723MOL0     C95370   9.084  10.241   5.315 -0.0025 -0.7089 -0.0646
  723MOL0     H95371   8.834  10.079   5.720  1.7627  2.2097 -3.7567
  723MOL0     H95372   8.679   9.927   5.822 -1.0681  3.1865  0.4279
  723MOL0     H95373   8.459   9.668   5.556  2.3893 -0.9043  1.9345
  723MOL0     H95374   8.318   9.765   5.612 -0.3386 -0.3072 -0.6872
  723MOL0     H95375   8.321   9.503   5.696 -0.0936 -0.8005  2.1491
  723MOL0     H95376   8.279   9.626   5.795 -0.9370  0.2148 -0.1492
  723MOL0     H95377   8.468   9.652   5.920  2.4996  0.4850 -0.8344
  723MOL0     H95378   8.570   9.546   5.826 -1.1371 -1.5159  0.3270
  723MOL0     H95379   8.324   9.455   5.978 -0.6074 -0.4320  2.0841
  723MOL0     H95380   8.409   9.362   5.860 -1.0273  0.9970 -0.9717
  723MOL0     H95381   8.629   9.406   5.993  1.4825 -2.9317  2.5571
  723MOL0     H95382   8.514   9.303   6.070 -1.5606 -0.4929 -2.7643
  723MOL0     H95383   8.425   9.524   6.186  0.0448  1.8748 -3.2585
  723MOL0     H95384   8.580   9.590   6.139  0.3122 -0.2158 -1.8340
  723MOL0     H95385   8.629   9.320   6.253 -0.1444  0.1612 -0.2179
  723MOL0     H95386   8.697   9.463   6.310  0.9895  0.3038 -1.6599
  723MOL0     H95387   8.530   9.340   6.469 -1.5087 -2.3971 -1.8043
  723MOL0     H95388   8.409   9.357   6.351  0.1105  0.0631  0.6939
  723MOL0     H95389   8.625   9.537   6.620 -2.4141 -1.8282  1.3035
  723MOL0     H95390   8.522   9.724   6.797 -2.0881  0.3038  0.7025
  723MOL0     H95391   8.455   9.871   6.726 -0.3139  1.2402 -4.3531
  723MOL0     H95392   8.661   9.908   6.601 -0.4675 -0.7929 -0.3730
  723MOL0     H95393   8.738   9.762   6.673 -0.1331  0.8513  0.1031
  723MOL0     H95394   8.651   9.985   6.847  0.4227  0.8001 -0.9074
  723MOL0     H95395   8.708   9.818   6.901  1.0614  0.8828  0.8796
  723MOL0     H95396   8.878   9.980   6.933  1.3983 -0.6220 -0.7087
  723MOL0     H95397   8.844  10.055   6.781  1.1121 -0.5751 -4.3648
  723MOL0     H95398   9.074  10.067   6.907 -1.0356 -0.0078 -0.7151
  723MOL0     H95399   9.312  10.074   6.949 -1.1631 -0.4946  0.5059
  723MOL0     H95400   9.675  10.221   6.751 -1.4054 -2.5270 -0.4134
  723MOL0     H95401   9.911  10.283   6.796  1.0822 -0.5455  0.7830
  723MOL0     H95402  10.171  10.002   7.017  1.3461 -0.6106  0.8862
  723MOL0     H95403  10.139  10.121   7.141  0.3060  1.1803  0.1514
  723MOL0     H95404  10.371  10.087   7.069 -1.5575 -1.3302  0.0929
  723MOL0     H95405  10.331  10.266   7.054  1.3229  0.2101 -0.2897
  723MOL0     H95406  10.322  10.254   6.829  0.4340  1.1183  1.3054
  723MOL0     H95407  10.305  10.081   6.814 -1.4489 -0.9744  2.9897
  723MOL0     H95408  10.522  10.021   6.855 -1.3341  0.0937  1.5132
  723MOL0     H95409  10.535  10.163   6.740  0.4246  1.4785  0.4292
  723MOL0     H95410  10.600  10.170   7.039  1.5817 -0.1837 -0.8897
  723MOL0     H95411  10.592  10.306   6.921  0.1820  0.4136  0.5134
  723MOL0     H95412  10.765  10.212   6.796  0.1186  0.2491  0.1308
  723MOL0     H95413  10.776  10.053   6.880  2.2654  0.4837 -0.4434
  723MOL0     H95414  10.833  10.330   7.004  0.3319 -0.1894  0.3998
  723MOL0     H95415  10.803  10.193   7.093  1.5969  3.9301  2.5446
  723MOL0     H95416  11.057  10.231   7.044 -1.4512 -0.0036  1.5954
  723MOL0     H95417  11.016  10.210   6.871  1.9060  0.1855  0.7095
  723MOL0     H95418   9.946   9.968   7.081  0.1605  0.4280  0.8858
  723MOL0     H95419   9.679   9.913   7.034 -2.9401 -0.4591 -2.3951
  723MOL0     H95420   9.365   9.734   6.697  1.4491  0.8578 -0.6005
  723MOL0     H95421   9.125   9.734   6.654  0.5872 -2.6832  1.6751
  723MOL0     H95422   8.484   9.857   5.452  0.5663 -0.9516 -1.1874
  723MOL0     H95423   8.615  10.027   5.349 -1.3251  1.2603  0.9565
  723MOL0     H95424   8.824  10.312   5.114 -0.7672  2.4000  1.6144
  723MOL0     H95425   9.010  10.377   4.955 -0.8828  1.0612 -0.1851
  723MOL0     H95426   9.408  10.391   5.139  2.6216  0.2556 -1.0205
  723MOL0     H95427   9.327  10.530   5.063 -0.0225 -0.5850  0.7485
  723MOL0     H95428   9.441  10.457   4.855  1.2871 -0.5909 -1.2527
  723MOL0     H95429   9.541  10.532   4.984  0.5291  1.0091 -1.7749
  723MOL0     H95430   9.513  10.233   4.916 -1.0470  0.3611 -0.4146
  723MOL0     H95431   9.618  10.290   5.044 -1.9065 -1.1056 -0.2258
  723MOL0     H95432   9.662  10.401   4.764 -0.5690  0.9106 -0.0002
  723MOL0     H95433   9.769  10.370   4.909  0.8453  0.8648 -2.5160
  723MOL0     H95434   9.768   9.997   4.698  0.2492 -2.0940  4.1756
  723MOL0     H95435   9.287  10.246   5.253  1.0619 -3.5248 -4.0193
  723MOL0     H95436   9.114  10.201   5.412  0.8540 -1.8500 -0.7775
  724MOL0     O95437   0.459  11.150   3.143  0.2034  0.5691  0.3070
  724MOL0     C95438   0.536  11.216   3.071 -0.3893 -0.9829  0.5653
  724MOL0     O95439   0.495  11.319   2.984  0.0632  0.1371 -0.0632
  724MOL0     C95440   0.363  11.342   2.968 -0.6319  1.1624 -0.7722
  724MOL0     C95441   0.289  11.264   2.884  0.0997  0.1542 -0.0922
  724MOL0     C95442   0.153  11.287   2.858 -0.0981 -0.2778  0.0706
  724MOL0     C95443   0.088  11.386   2.929 -0.1173 -0.1836  0.2717
  724MOL0     O95444  -0.046  11.426   2.894 -0.0678  0.6088 -0.1031
  724MOL0     C95445  -0.114  11.372   2.780 -0.3783  0.5863 -0.1765
  724MOL0     C95446  -0.175  11.238   2.809  0.2624 -0.3424 -0.2042
  724MOL0     C95447  -0.292  11.201   2.716 -0.0438  0.4087 -0.0542
  724MOL0     C95448  -0.316  11.059   2.699  0.5828  0.1717  0.3483
  724MOL0     C95449  -0.455  11.025   2.629 -0.0995  0.6217 -0.5236
  724MOL0     C95450  -0.575  11.020   2.742  0.3536  0.2553 -0.1960
  724MOL0     C95451  -0.718  11.075   2.697  0.9074  1.0573 -0.3007
  724MOL0     C95452  -0.710  11.223   2.647 -0.7329  0.2044  0.2026
  724MOL0     N95453  -0.839  11.276   2.608  0.2753  0.2279 -0.1449
  724MOL0     C95454  -0.942  11.293   2.700  0.1344  0.8746 -0.3840
  724MOL0     C95455  -1.037  11.354   2.627 -0.6691 -0.1732  0.5038
  724MOL0     C95456  -1.184  11.392   2.667 -0.1345  0.4174 -0.1588
  724MOL0     C95457  -1.292  11.318   2.592 -0.3751  0.3920  0.3902
  724MOL0     C95458  -1.430  11.335   2.665  0.0161 -0.3148 -0.1502
  724MOL0     C95459  -1.549  11.301   2.580 -0.2631  0.5038 -0.0539
  724MOL0     O95460  -1.664  11.337   2.649  0.4107  0.2775 -0.1154
  724MOL0     C95461  -1.785  11.369   2.594  0.0433 -0.0950 -0.4422
  724MOL0     C95462  -1.895  11.352   2.676 -0.3635 -0.5019  0.0819
  724MOL0     C95463  -2.020  11.398   2.626  0.4183  0.1752 -0.1871
  724MOL0     C95464  -2.037  11.472   2.508 -0.8370  0.3565 -0.7553
  724MOL0     C95465  -2.168  11.519   2.478  0.8359 -0.7710  0.2993
  724MOL0     O95466  -2.265  11.489   2.573 -0.4247  0.1771  0.5236
  724MOL0     C95467  -2.388  11.528   2.542  0.6057  0.5373  0.7311
  724MOL0     C95468  -2.482  11.431   2.534  0.6724  0.0302  0.2916
  724MOL0     C95469  -2.621  11.464   2.532  0.3498 -0.3324  0.0363
  724MOL0     C95470  -2.659  11.603   2.526 -0.4993 -0.4198 -0.7386
  724MOL0     O95471  -2.797  11.625   2.513 -0.8435 -0.1907  0.1744
  724MOL0     C95472  -2.859  11.720   2.606 -0.0307 -1.1635  0.0278
  724MOL0     C95473  -3.015  11.709   2.610 -0.7321  0.1781 -0.2090
  724MOL0     C95474  -3.088  11.836   2.641 -0.6639  0.5440 -0.7031
  724MOL0     C95475  -3.244  11.829   2.638  0.3741  0.1868 -0.3728
  724MOL0     C95476  -3.316  11.969   2.665  0.2526 -0.8013  0.1190
  724MOL0     C95477  -3.298  12.053   2.540 -0.0725 -0.6089 -0.6317
  724MOL0     C95478  -3.392  12.176   2.546  1.0174  0.0530  0.0940
  724MOL0     C95479  -3.388  12.252   2.413  0.3789 -0.2974 -0.3395
  724MOL0    Cl95480  -3.500  12.400   2.410  0.2863 -0.0510 -0.3583
  724MOL0     C95481  -2.560  11.699   2.535 -0.6150 -0.4687  0.1076
  724MOL0     C95482  -2.431  11.657   2.540 -0.3648  0.0179 -0.4150
  724MOL0     O95483  -2.187  11.584   2.374  0.3605  0.2441  0.1533
  724MOL0     C95484  -1.922  11.489   2.429 -0.0344  0.8368  0.2180
  724MOL0     C95485  -1.798  11.439   2.471 -0.7112  0.2261 -0.7244
  724MOL0     N95486  -0.987  11.351   2.493 -0.4847  0.1591  0.0016
  724MOL0     N95487  -0.869  11.313   2.479 -0.8160 -0.2840 -0.4486
  724MOL0     C95488   0.161  11.468   3.017 -0.0906 -0.4099 -0.4812
  724MOL0     C95489   0.300  11.444   3.042  0.4269 -0.6818 -0.0024
  724MOL0     C95490   0.677  11.200   3.082 -0.7125 -0.4847  0.0189
  724MOL0     C95491   0.723  11.077   3.124  0.3358  1.2053  0.6605
  724MOL0     C95492   0.863  11.069   3.145  0.2248 -0.8190 -0.2701
  724MOL0     C95493   0.949  11.172   3.126  0.6525 -0.1028  0.4354
  724MOL0     O95494   1.076  11.137   3.134 -0.1713  0.5565 -0.0291
  724MOL0     C95495   1.176  11.243   3.115  0.2419  0.5920  1.2582
  724MOL0     C95496   1.321  11.183   3.126  0.0613 -0.2516 -0.3744
  724MOL0     C95497   1.434  11.297   3.105 -0.6787  0.8639 -0.0978
  724MOL0     C95498   1.568  11.244   3.159  0.9563  0.5404  0.2137
  724MOL0     C95499   1.683  11.313   3.104 -0.3279 -0.8290  0.0709
  724MOL0     C95500   1.779  11.370   3.060 -0.5560 -0.4242  0.4419
  724MOL0     C95501   0.891  11.295   3.082  0.2259  0.2794 -0.2042
  724MOL0     C95502   0.757  11.305   3.053 -0.9190 -1.1992 -0.2903
  724MOL0     H95503   0.354  11.182   2.855  2.8135  1.1197  2.8001
  724MOL0     H95504   0.112  11.229   2.776 -1.7860  0.9781 -0.0207
  724MOL0     H95505  -0.041  11.378   2.698 -0.3017 -2.3116 -0.4200
  724MOL0     H95506  -0.199  11.439   2.769 -1.5571 -0.7710  0.3273
  724MOL0     H95507  -0.208  11.244   2.913 -1.2180 -2.3928 -0.4989
  724MOL0     H95508  -0.101  11.158   2.804  0.4584 -0.3036  1.3767
  724MOL0     H95509  -0.283  11.248   2.618  2.8251  2.2060  0.9472
  724MOL0     H95510  -0.384  11.246   2.756 -1.2538 -0.8142 -1.3348
  724MOL0     H95511  -0.236  11.026   2.632 -0.3723  1.3886 -1.4883
  724MOL0     H95512  -0.312  11.008   2.796 -0.0066  0.1784  0.3831
  724MOL0     H95513  -0.448  10.922   2.593 -0.9995  0.4855 -0.3515
  724MOL0     H95514  -0.459  11.094   2.545 -2.1814 -1.0694 -1.9112
  724MOL0     H95515  -0.542  11.067   2.835 -3.6583  1.7368  0.7239
  724MOL0     H95516  -0.577  10.912   2.753 -0.0995 -0.1629 -3.3580
  724MOL0     H95517  -0.752  11.003   2.622 -0.8015 -2.1211  3.2235
  724MOL0     H95518  -0.784  11.074   2.784  1.4419 -0.7951  0.1259
  724MOL0     H95519  -0.650  11.240   2.557 -2.1349  2.8786 -0.3360
  724MOL0     H95520  -0.664  11.286   2.723 -0.4177 -1.6302  1.5895
  724MOL0     H95521  -0.942  11.266   2.806  0.3636  1.8474 -0.1261
  724MOL0     H95522  -1.197  11.500   2.653  0.9437  0.4559 -1.0077
  724MOL0     H95523  -1.189  11.369   2.774 -0.7044  2.5111  0.3096
  724MOL0     H95524  -1.276  11.211   2.601 -0.6746  0.4975  3.0823
  724MOL0     H95525  -1.292  11.352   2.488  2.8116 -1.4875 -0.3234
  724MOL0     H95526  -1.445  11.280   2.758 -1.5904  0.7424  0.2389
  724MOL0     H95527  -1.438  11.443   2.683 -1.5041 -0.3026 -0.7335
  724MOL0     H95528  -1.543  11.193   2.563  2.5102  0.5856 -0.1135
  724MOL0     H95529  -1.543  11.352   2.483 -1.0569 -0.5446 -0.6821
  724MOL0     H95530  -1.902  11.300   2.771 -0.5848  1.0471  0.9457
  724MOL0     H95531  -2.100  11.371   2.694  0.5730  2.0381  0.8006
  724MOL0     H95532  -2.446  11.329   2.533  2.8781  0.7226  1.7246
  724MOL0     H95533  -2.702  11.393   2.529 -1.4368  1.5986 -0.2101
  724MOL0     H95534  -2.838  11.823   2.574  1.5056 -1.5416 -0.2849
  724MOL0     H95535  -2.811  11.710   2.703  1.5713  1.1232 -0.4432
  724MOL0     H95536  -3.035  11.634   2.687 -2.0875  0.1501 -0.5694
  724MOL0     H95537  -3.037  11.677   2.508  2.2005  2.4198 -1.6940
  724MOL0     H95538  -3.052  11.914   2.573  1.8654  1.4248  1.4730
  724MOL0     H95539  -3.059  11.875   2.739  0.8923 -0.9924 -0.5107
  724MOL0     H95540  -3.260  11.781   2.541  2.0837  1.8992 -1.5956
  724MOL0     H95541  -3.287  11.765   2.715 -0.1043 -1.8074 -2.1952
  724MOL0     H95542  -3.264  12.023   2.745  1.2264 -0.4106 -0.7494
  724MOL0     H95543  -3.422  11.956   2.686 -0.1305  1.6836  0.0102
  724MOL0     H95544  -3.325  11.998   2.450 -2.8010  0.0909 -0.3325
  724MOL0     H95545  -3.192  12.081   2.539 -0.0055 -0.8657 -0.9235
  724MOL0     H95546  -3.492  12.134   2.562  0.0725  2.5832  1.3550
  724MOL0     H95547  -3.377  12.242   2.632  3.3563  0.1786 -0.3301
  724MOL0     H95548  -3.417  12.178   2.338 -0.1524 -1.4988  0.9961
  724MOL0     H95549  -3.286  12.283   2.392  0.0518 -0.1499 -1.7590
  724MOL0     H95550  -2.570  11.807   2.528  2.1478 -0.1756 -0.3576
  724MOL0     H95551  -2.361  11.740   2.533 -1.4437  0.8973 -1.2488
  724MOL0     H95552  -1.930  11.544   2.336  2.0407  1.8901  0.6160
  724MOL0     H95553  -1.710  11.461   2.411 -2.9226 -1.0859 -4.8197
  724MOL0     H95554   0.105  11.550   3.061  0.0505  0.1418 -1.3026
  724MOL0     H95555   0.368  11.511   3.093  0.6988  1.4105 -2.8218
  724MOL0     H95556   0.660  10.991   3.146  0.7643  0.3327 -1.3433
  724MOL0     H95557   0.899  10.969   3.168  2.6912 -0.6579 -2.8022
  724MOL0     H95558   1.167  11.325   3.186 -2.0579  2.7068 -1.2417
  724MOL0     H95559   1.148  11.290   3.020  1.2640 -1.8162 -0.3183
  724MOL0     H95560   1.320  11.149   3.231 -0.3505  1.3343  0.1589
  724MOL0     H95561   1.329  11.099   3.056  1.0952  0.1911 -0.8033
  724MOL0     H95562   1.425  11.388   3.164  1.9071 -0.2123  2.1781
  724MOL0     H95563   1.432  11.314   2.997 -0.2799 -4.5297 -1.2858
  724MOL0     H95564   1.564  11.261   3.267 -2.3963  0.7118  0.1737
  724MOL0     H95565   1.580  11.137   3.142  0.9366 -0.0008  3.1123
  724MOL0     H95566   1.860  11.434   3.032 -0.7010  0.2821  1.5537
  724MOL0     H95567   0.949  11.380   3.046 -0.9956  0.4673 -1.8478
  724MOL0     H95568   0.728  11.402   3.017  0.7011 -0.7661 -0.5213
  725MOL0     O95569   2.843   1.264   8.365  0.1820 -0.5754  0.3159
  725MOL0     C95570   2.839   1.171   8.446 -0.6182  0.0965  0.0832
  725MOL0     O95571   2.751   1.164   8.555 -0.0742  0.1777  0.7476
  725MOL0     C95572   2.655   1.250   8.555 -0.2432 -0.9607 -0.2331
  725MOL0     C95573   2.533   1.218   8.494  0.7093  0.1206 -0.0376
  725MOL0     C95574   2.428   1.314   8.505  0.6550 -0.3047 -0.2801
  725MOL0     C95575   2.432   1.432   8.569  0.1985  0.0416  0.4047
  725MOL0     O95576   2.316   1.500   8.576 -0.1908 -0.4806  0.4856
  725MOL0     C95577   2.314   1.639   8.599 -0.1666  0.2168  0.2376
  725MOL0     C95578   2.178   1.692   8.545  0.6183  0.1346 -0.2522
  725MOL0     C95579   2.176   1.847   8.537  0.2363 -0.0512 -0.3561
  725MOL0     C95580   2.034   1.893   8.502  1.0043  0.0566  0.3144
  725MOL0     C95581   2.015   2.048   8.493 -0.6181  0.1021  0.3946
  725MOL0     C95582   1.865   2.085   8.472  0.3517  0.2754 -0.4397
  725MOL0     C95583   1.834   2.227   8.423  0.2517 -0.2956  0.9366
  725MOL0     C95584   1.774   2.228   8.280 -0.6798  1.1885  0.4842
  725MOL0     N95585   1.747   2.364   8.229 -0.3680 -0.5021 -0.2977
  725MOL0     C95586   1.727   2.395   8.101 -0.6674 -1.4618  0.6088
  725MOL0     C95587   1.663   2.518   8.101 -0.0707 -0.0667 -0.2271
  725MOL0     C95588   1.613   2.587   7.981  0.0946 -0.5253 -0.1826
  725MOL0     C95589   1.482   2.512   7.943  0.1560 -0.3062 -0.4177
  725MOL0     C95590   1.371   2.545   8.042 -0.6012 -0.8381  0.1073
  725MOL0     C95591   1.237   2.481   7.997 -0.2687 -0.9589 -0.3656
  725MOL0     O95592   1.140   2.521   8.095  1.0157 -0.4208  1.0501
  725MOL0     C95593   1.008   2.493   8.075 -0.2577  0.3885 -1.1405
  725MOL0     C95594   0.954   2.414   7.966  0.5670  0.3027 -0.4818
  725MOL0     C95595   0.822   2.391   7.945 -0.9584  0.5887 -0.3858
  725MOL0     C95596   0.732   2.437   8.035 -0.1253 -0.0965  0.1864
  725MOL0     C95597   0.582   2.407   8.017 -0.3044  0.8622 -0.1717
  725MOL0     O95598   0.505   2.506   8.081  0.2902  0.1664 -0.8262
  725MOL0     C95599   0.371   2.507   8.063  1.1885 -0.5045  0.5401
  725MOL0     C95600   0.284   2.401   8.082 -0.0050  0.3937  0.0050
  725MOL0     C95601   0.144   2.408   8.067 -0.2172  0.0425 -0.5519
  725MOL0     C95602   0.092   2.526   8.022 -0.2617 -0.6045 -1.0836
  725MOL0     O95603  -0.039   2.553   7.987  0.2548  0.0067 -0.7242
  725MOL0     C95604  -0.143   2.490   8.064  0.3896 -0.0777  0.2577
  725MOL0     C95605  -0.279   2.541   8.009 -0.3952  0.0650 -0.1120
  725MOL0     C95606  -0.398   2.483   8.082 -0.3698 -0.4733  0.3642
  725MOL0     C95607  -0.529   2.495   8.004  0.8859 -0.0427 -0.5189
  725MOL0     C95608  -0.635   2.397   8.059 -0.3504  0.6364 -0.5955
  725MOL0     C95609  -0.766   2.412   7.988  0.4660  1.1157  0.0407
  725MOL0     C95610  -0.859   2.294   8.005  0.1711 -0.0687 -0.4028
  725MOL0     C95611  -0.987   2.310   7.919  0.1691  0.4109  0.0344
  725MOL0    Cl95612  -1.082   2.451   7.972  0.3151  0.0211 -0.3302
  725MOL0     C95613   0.177   2.633   7.985  0.4468 -0.6734  0.0565
  725MOL0     C95614   0.316   2.630   8.018  0.4217 -0.0892 -0.5827
  725MOL0     O95615   0.544   2.315   7.949  0.0825  0.9257  0.3892
  725MOL0     C95616   0.776   2.519   8.141 -0.2451  0.6368  0.1722
  725MOL0     C95617   0.913   2.544   8.166  0.0859 -0.0019 -0.6558
  725MOL0     N95618   1.660   2.567   8.234  0.4013 -0.5451 -0.1619
  725MOL0     N95619   1.713   2.470   8.309  0.3064 -1.0724 -0.3871
  725MOL0     C95620   2.549   1.472   8.625  0.0879  0.8807 -0.8041
  725MOL0     C95621   2.663   1.384   8.611 -1.0226  0.3933  0.2226
  725MOL0     C95622   2.934   1.061   8.421 -0.1367 -0.1242 -1.0512
  725MOL0     C95623   2.918   0.936   8.476 -0.4266  0.1725 -0.0633
  725MOL0     C95624   3.007   0.830   8.445 -0.6301 -0.3234  0.3207
  725MOL0     C95625   3.109   0.852   8.352 -1.2015 -0.0534  0.1584
  725MOL0     O95626   3.205   0.757   8.325 -0.5207 -0.2757 -0.1689
  725MOL0     C95627   3.339   0.783   8.291 -0.5981 -0.7725 -0.6292
  725MOL0     C95628   3.420   0.663   8.320 -0.0788 -0.8349 -0.6328
  725MOL0     C95629   3.385   0.563   8.221  0.7399  1.0486  0.2102
  725MOL0     C95630   3.476   0.452   8.210  0.2104  1.0172  0.5535
  725MOL0     C95631   3.612   0.490   8.164  0.0885 -1.2472  0.1735
  725MOL0     C95632   3.714   0.549   8.135  0.0411  0.4229  0.3634
  725MOL0     C95633   3.132   0.980   8.303  1.0877  0.0579  0.9050
  725MOL0     C95634   3.047   1.085   8.335  0.6935 -0.0283 -0.2224
  725MOL0     H95635   2.515   1.123   8.444 -2.9286  1.6151 -1.9766
  725MOL0     H95636   2.333   1.294   8.457  0.0114 -0.6531  1.0818
  725MOL0     H95637   2.399   1.687   8.552  0.4048 -2.0556 -1.2064
  725MOL0     H95638   2.314   1.659   8.707  0.8071 -0.9187  0.4590
  725MOL0     H95639   2.096   1.661   8.612  0.6129 -0.6277 -0.6018
  725MOL0     H95640   2.167   1.648   8.446  3.3833  2.2721 -1.6249
  725MOL0     H95641   2.241   1.882   8.457 -2.1711  0.9921 -1.9945
  725MOL0     H95642   2.202   1.880   8.638 -0.7969 -0.2442 -0.0120
  725MOL0     H95643   2.004   1.853   8.405  1.1715 -0.5075  0.4924
  725MOL0     H95644   1.959   1.865   8.576 -0.2576 -1.2433 -1.3838
  725MOL0     H95645   2.075   2.097   8.416 -0.0022  2.5830  2.3167
  725MOL0     H95646   2.047   2.098   8.585  1.7734  1.5478 -1.1251
  725MOL0     H95647   1.824   2.082   8.573  0.3873  2.1136 -0.3486
  725MOL0     H95648   1.820   2.012   8.403  3.0242 -2.7073  0.7163
  725MOL0     H95649   1.764   2.271   8.495 -2.1496 -0.4686 -1.1480
  725MOL0     H95650   1.925   2.286   8.440  1.2364 -1.4224 -0.1766
  725MOL0     H95651   1.673   2.185   8.278 -0.7266  1.2546  1.1450
  725MOL0     H95652   1.843   2.170   8.219 -0.4914  0.6642  1.1767
  725MOL0     H95653   1.736   2.337   8.010 -3.5787  2.1873 -2.3146
  725MOL0     H95654   1.686   2.581   7.900 -1.1908 -1.0904 -1.3383
  725MOL0     H95655   1.606   2.695   7.993 -1.5569 -0.5182 -0.8691
  725MOL0     H95656   1.502   2.405   7.946 -2.0605 -0.7808 -1.0045
  725MOL0     H95657   1.465   2.551   7.842  0.6015  2.7943  0.5770
  725MOL0     H95658   1.397   2.495   8.136 -0.1701 -0.5104  0.1603
  725MOL0     H95659   1.364   2.652   8.063  3.1211 -0.1527 -1.3652
  725MOL0     H95660   1.239   2.372   7.989  3.1768 -0.8771 -5.4399
  725MOL0     H95661   1.209   2.519   7.899  2.0909  0.5910 -0.5220
  725MOL0     H95662   1.024   2.392   7.885  1.6212  0.1422  0.4441
  725MOL0     H95663   0.796   2.322   7.865 -1.4036 -0.4061  0.5730
  725MOL0     H95664   0.339   2.313   8.113  0.4825  0.8153  0.3689
  725MOL0     H95665   0.081   2.321   8.080 -0.0324  0.1285  1.2213
  725MOL0     H95666  -0.132   2.515   8.170  2.8806 -0.9594  0.2725
  725MOL0     H95667  -0.148   2.382   8.048 -1.0649  0.2136 -1.6305
  725MOL0     H95668  -0.290   2.512   7.904  0.2663 -2.4003  0.4473
  725MOL0     H95669  -0.279   2.650   8.021  1.9311  0.0479  0.4660
  725MOL0     H95670  -0.421   2.545   8.169  1.4186  3.5389 -1.7221
  725MOL0     H95671  -0.370   2.384   8.117  0.5181 -0.8592 -1.3065
  725MOL0     H95672  -0.573   2.595   8.001 -2.8143 -1.4806 -3.2069
  725MOL0     H95673  -0.515   2.461   7.900 -0.7244 -4.3784  0.4605
  725MOL0     H95674  -0.645   2.404   8.167 -0.0073 -1.3347 -0.4025
  725MOL0     H95675  -0.605   2.299   8.021  3.8678  2.0708 -1.4833
  725MOL0     H95676  -0.742   2.427   7.882  0.0195  0.3760 -0.1692
  725MOL0     H95677  -0.809   2.508   8.016  1.3106  0.8071  2.6684
  725MOL0     H95678  -0.819   2.199   7.970 -0.5800 -0.3943 -0.3927
  725MOL0     H95679  -0.883   2.274   8.109  1.8983 -5.6680 -0.7620
  725MOL0     H95680  -1.048   2.221   7.940  2.3481 -1.1386  0.1079
  725MOL0     H95681  -0.960   2.314   7.813 -0.8498  0.1805 -0.2475
  725MOL0     H95682   0.139   2.723   7.937  0.1465 -0.1276  1.2893
  725MOL0     H95683   0.388   2.707   7.991 -0.2832  0.3329 -1.3032
  725MOL0     H95684   0.698   2.567   8.200  1.1413  0.0165  2.6785
  725MOL0     H95685   0.943   2.621   8.236 -0.5668  1.3067 -1.7617
  725MOL0     H95686   2.561   1.558   8.690  1.4368 -2.2125  3.4333
  725MOL0     H95687   2.764   1.415   8.636 -1.1750 -0.0314  1.4126
  725MOL0     H95688   2.828   0.923   8.536  1.1327  1.5525  2.7374
  725MOL0     H95689   2.995   0.728   8.480 -1.2301  0.7794  3.7550
  725MOL0     H95690   3.387   0.861   8.351  0.8140 -1.3022 -1.0412
  725MOL0     H95691   3.340   0.811   8.185  1.8764  2.0857  0.0153
  725MOL0     H95692   3.526   0.690   8.313 -0.2900 -0.3495 -2.7273
  725MOL0     H95693   3.398   0.621   8.418  2.1281  1.9209  1.1774
  725MOL0     H95694   3.374   0.610   8.123 -1.6202 -0.0359 -0.1039
  725MOL0     H95695   3.284   0.525   8.238  1.1245 -0.0691  0.0737
  725MOL0     H95696   3.484   0.408   8.309 -1.3725 -0.8308 -0.0865
  725MOL0     H95697   3.423   0.378   8.148  0.9449 -0.5794  1.7692
  725MOL0     H95698   3.809   0.596   8.115  0.2527 -1.1165 -2.7249
  725MOL0     H95699   3.215   1.002   8.236  0.6829 -1.9557 -0.3616
  725MOL0     H95700   3.064   1.180   8.285 -0.8477  1.1699  1.4233
  726MOL0     O95701   2.513   6.166  10.160 -0.8194  1.1665  0.1995
  726MOL0     C95702   2.570   6.077  10.229 -0.6450 -0.4550 -0.8214
  726MOL0     O95703   2.515   5.952  10.267  0.1786 -0.0488  0.7690
  726MOL0     C95704   2.380   5.923  10.264 -0.4171 -0.2897  1.3652
  726MOL0     C95705   2.329   5.832  10.356  0.0963  0.5777  0.5562
  726MOL0     C95706   2.192   5.810  10.361  0.1585  1.1317  0.0265
  726MOL0     C95707   2.101   5.876  10.274 -0.4547 -0.0419 -0.6312
  726MOL0     O95708   1.970   5.844  10.297  0.2018  0.2040 -1.0997
  726MOL0     C95709   1.878   5.872  10.193 -0.1859  0.3338 -0.0491
  726MOL0     C95710   1.736   5.848  10.245  0.1121  0.2553  0.3300
  726MOL0     C95711   1.641   5.819  10.131  0.1928 -0.4623 -0.9801
  726MOL0     C95712   1.508   5.753  10.178 -0.7642  0.2538 -0.7383
  726MOL0     C95713   1.415   5.721  10.064 -0.6156 -0.3390  0.1687
  726MOL0     C95714   1.275   5.694  10.120 -0.3541 -0.2528 -0.3009
  726MOL0     C95715   1.165   5.662  10.011  0.5568  0.6010  0.2965
  726MOL0     C95716   1.041   5.609  10.087  0.1956 -0.9996 -0.3751
  726MOL0     N95717   0.944   5.571   9.985  0.2007 -0.0181  0.1856
  726MOL0     C95718   0.921   5.442   9.953 -0.9682 -0.9724  0.2217
  726MOL0     C95719   0.836   5.451   9.851 -0.2625 -0.5974  0.2463
  726MOL0     C95720   0.767   5.335   9.789  1.0856  0.1494  1.3854
  726MOL0     C95721   0.618   5.351   9.832 -0.0163  0.1195 -0.0844
  726MOL0     C95722   0.540   5.239   9.775 -0.1284 -0.3927  0.4305
  726MOL0     C95723   0.400   5.257   9.833  0.4471 -0.1656 -0.1843
  726MOL0     O95724   0.321   5.136   9.813 -0.4864  0.5639 -0.3124
  726MOL0     C95725   0.180   5.136   9.807 -0.0347  0.9667 -1.2064
  726MOL0     C95726   0.107   5.240   9.858 -0.5974  0.1476 -0.5561
  726MOL0     C95727  -0.025   5.249   9.837 -1.1263 -0.3906  0.1432
  726MOL0     C95728  -0.098   5.145   9.775  0.5348 -0.1218  0.6892
  726MOL0     C95729  -0.251   5.153   9.747 -0.8440  0.3341 -0.2828
  726MOL0     O95730  -0.301   5.064   9.656 -0.0678  0.0699  0.0150
  726MOL0     C95731  -0.429   5.074   9.629  0.3966  0.0313  0.6822
  726MOL0     C95732  -0.451   5.090   9.493 -1.1923  0.2683 -0.0582
  726MOL0     C95733  -0.587   5.099   9.447  0.1041  0.0172  0.3055
  726MOL0     C95734  -0.691   5.096   9.543 -0.9648 -0.2033  0.8499
  726MOL0     O95735  -0.824   5.117   9.498 -0.0602  0.7088  0.5296
  726MOL0     C95736  -0.936   5.073   9.587 -0.1354 -0.4967 -0.1061
  726MOL0     C95737  -1.061   5.094   9.509 -0.2856 -0.3863  0.1692
  726MOL0     C95738  -1.074   5.254   9.479  0.6467 -1.1404  0.9413
  726MOL0     C95739  -1.215   5.289   9.422 -0.2732  1.6350  0.2126
  726MOL0     C95740  -1.262   5.430   9.423 -0.5403 -0.5714 -0.1725
  726MOL0     C95741  -1.163   5.515   9.351 -0.1737 -0.2796 -0.1271
  726MOL0     C95742  -1.183   5.662   9.375  0.6575  0.1656  0.2924
  726MOL0     C95743  -1.118   5.715   9.507  0.3380  0.3899 -0.5088
  726MOL0    Cl95744  -1.203   5.847   9.567  0.2671  0.0456  0.1922
  726MOL0     C95745  -0.655   5.075   9.683 -0.2393  0.6349 -0.3756
  726MOL0     C95746  -0.526   5.068   9.724 -0.0911  0.3694 -0.5970
  726MOL0     O95747  -0.304   5.248   9.796  0.4713 -0.3473  0.3150
  726MOL0     C95748  -0.030   5.031   9.731  0.0336  0.0507  0.3208
  726MOL0     C95749   0.110   5.035   9.737  0.4218  0.4452  0.0936
  726MOL0     N95750   0.809   5.587   9.825  0.4901  0.5306 -0.0812
  726MOL0     N95751   0.874   5.656   9.909  0.7022  0.5907 -0.3134
  726MOL0     C95752   2.152   5.974  10.186  0.3940  0.5649 -0.3565
  726MOL0     C95753   2.289   5.990  10.178  0.9341  0.8735 -0.1694
  726MOL0     C95754   2.710   6.101  10.270  0.0851  0.1616 -0.8219
  726MOL0     C95755   2.760   6.231  10.280  0.1433  0.5212 -0.3393
  726MOL0     C95756   2.890   6.255  10.316  0.5377 -0.8811 -0.2366
  726MOL0     C95757   2.978   6.148  10.328 -0.8380 -0.4676 -0.9710
  726MOL0     O95758   3.112   6.182  10.345 -0.3957  0.3860  0.0171
  726MOL0     C95759   3.207   6.080  10.352  1.0178  0.2457 -0.2725
  726MOL0     C95760   3.356   6.122  10.357  0.0691  0.6728 -0.0633
  726MOL0     C95761   3.386   6.180  10.488 -0.8901  0.0185  0.2249
  726MOL0     C95762   3.535   6.217  10.494  0.7355  0.0414 -0.1588
  726MOL0     C95763   3.614   6.095  10.491  0.0627 -0.5878  0.1177
  726MOL0     C95764   3.673   5.987  10.514  0.4847  0.3130 -1.0071
  726MOL0     C95765   2.927   6.019  10.337 -0.5563 -0.2401  0.0495
  726MOL0     C95766   2.791   6.000  10.308 -0.6074  0.1696 -0.2756
  726MOL0     H95767   2.391   5.785  10.433 -1.4957 -1.7447  0.5096
  726MOL0     H95768   2.151   5.748  10.440 -0.5380  1.5797  0.0241
  726MOL0     H95769   1.897   5.797  10.115  2.7458  1.6786 -0.7741
  726MOL0     H95770   1.882   5.975  10.158  0.7884  0.9082  1.6555
  726MOL0     H95771   1.709   5.930  10.312 -3.2946 -2.0832  2.0825
  726MOL0     H95772   1.736   5.754  10.300  3.0793 -0.0486 -0.0485
  726MOL0     H95773   1.693   5.754  10.061 -1.0734 -1.6411 -0.8679
  726MOL0     H95774   1.618   5.919  10.092 -1.5681  1.0654  3.2715
  726MOL0     H95775   1.521   5.653  10.220  0.0908 -0.2256 -2.0912
  726MOL0     H95776   1.463   5.817  10.255  3.1855 -1.1203  3.1828
  726MOL0     H95777   1.447   5.634  10.007 -0.1347  1.0610 -1.7819
  726MOL0     H95778   1.412   5.801   9.990 -0.5747  0.7108  1.2694
  726MOL0     H95779   1.240   5.776  10.184  0.9651 -0.4611  0.7395
  726MOL0     H95780   1.299   5.614  10.192  1.6961  1.1369  0.6636
  726MOL0     H95781   1.135   5.757   9.965  0.3171  1.0797  1.4011
  726MOL0     H95782   1.201   5.598   9.930  0.5679  0.6693  0.2473
  726MOL0     H95783   1.000   5.687  10.153  1.3773 -2.1442  1.8148
  726MOL0     H95784   1.052   5.522  10.152 -1.3659 -1.5815 -0.8467
  726MOL0     H95785   0.947   5.351  10.005 -2.9209 -0.2731  2.5773
  726MOL0     H95786   0.815   5.248   9.835  4.1857  1.9887  1.9100
  726MOL0     H95787   0.780   5.330   9.681 -0.9807 -2.3849  1.1748
  726MOL0     H95788   0.579   5.449   9.802  1.5304  0.0701 -2.5868
  726MOL0     H95789   0.602   5.357   9.940 -0.6719 -1.8244 -0.0184
  726MOL0     H95790   0.533   5.232   9.666 -0.4019 -1.6218  0.5132
  726MOL0     H95791   0.591   5.146   9.797  0.3257 -0.9403 -2.4600
  726MOL0     H95792   0.357   5.349   9.792 -1.3122 -1.1005 -0.5233
  726MOL0     H95793   0.409   5.278   9.940  0.7712 -0.6780 -0.1076
  726MOL0     H95794   0.163   5.317   9.911 -1.3063 -0.9206  1.8627
  726MOL0     H95795  -0.066   5.344   9.868  1.7230  0.2080  2.4294
  726MOL0     H95796  -0.368   5.086   9.424  0.2067 -0.7212  1.5980
  726MOL0     H95797  -0.609   5.110   9.341 -0.2069  2.4426  0.5580
  726MOL0     H95798  -0.937   5.127   9.682 -1.3754 -0.0958 -0.3220
  726MOL0     H95799  -0.927   4.970   9.622 -1.7437 -0.2704  1.1193
  726MOL0     H95800  -1.148   5.042   9.552 -2.1101 -1.2316 -3.9945
  726MOL0     H95801  -1.060   5.053   9.407 -0.7285 -1.0425  0.4174
  726MOL0     H95802  -1.002   5.285   9.403  0.7460  1.1939  1.9179
  726MOL0     H95803  -1.066   5.311   9.572  1.4153  0.3073  0.0179
  726MOL0     H95804  -1.215   5.251   9.319  3.0060 -0.8392  0.9766
  726MOL0     H95805  -1.285   5.224   9.476  1.2931  0.1941  0.6127
  726MOL0     H95806  -1.253   5.456   9.529 -1.3105  1.4636 -0.5701
  726MOL0     H95807  -1.367   5.439   9.394 -0.7104 -0.7437  0.3840
  726MOL0     H95808  -1.180   5.507   9.244 -1.0395  0.6372 -0.0728
  726MOL0     H95809  -1.057   5.501   9.377 -0.8407 -0.6066  2.7883
  726MOL0     H95810  -1.141   5.719   9.291 -0.0367 -0.5594 -0.5673
  726MOL0     H95811  -1.289   5.689   9.378  0.7655  0.5488  2.6968
  726MOL0     H95812  -1.011   5.733   9.495  0.6279 -0.7464  0.2761
  726MOL0     H95813  -1.127   5.628   9.573  0.1617  0.3788 -0.5463
  726MOL0     H95814  -0.735   5.087   9.755 -0.7069 -1.1108 -0.5730
  726MOL0     H95815  -0.504   5.042   9.826  2.8354  0.2614 -1.1925
  726MOL0     H95816  -0.066   4.933   9.700  0.1465  0.2528 -0.4839
  726MOL0     H95817   0.163   4.947   9.701 -1.3444 -0.8414  0.5003
  726MOL0     H95818   2.081   6.038  10.134 -1.3852  0.5636  1.8744
  726MOL0     H95819   2.316   6.066  10.105  0.8930 -0.5751 -1.7385
  726MOL0     H95820   2.687   6.308  10.257 -0.9358  0.0654  1.3754
  726MOL0     H95821   2.919   6.359  10.308  0.9792 -1.0154 -0.4501
  726MOL0     H95822   3.197   6.016  10.264 -2.8723 -1.7682  1.3653
  726MOL0     H95823   3.177   6.021  10.439  1.0192  1.2221  0.4110
  726MOL0     H95824   3.401   6.027  10.325  1.7657  2.4371 -3.4972
  726MOL0     H95825   3.386   6.192  10.278  0.7783  2.8487  2.0348
  726MOL0     H95826   3.361   6.108  10.567  0.1301 -1.6789 -0.9188
  726MOL0     H95827   3.333   6.275  10.500 -0.0303  0.6863 -1.0171
  726MOL0     H95828   3.561   6.291  10.418 -0.4535  1.3024  0.6337
  726MOL0     H95829   3.555   6.259  10.593 -1.6036  2.3722 -0.5993
  726MOL0     H95830   3.719   5.894  10.540 -0.5786  0.4712  1.7384
  726MOL0     H95831   2.983   5.930  10.363 -0.4049  0.1836  1.2188
  726MOL0     H95832   2.752   5.901  10.330  0.3001  0.0274  0.7777
  727MOL0     O95833   0.096   3.886   0.928 -0.2866 -0.0590  0.1076
  727MOL0     C95834   0.125   3.848   0.814 -0.2679  0.3144 -0.5869
  727MOL0     O95835   0.050   3.768   0.733  0.7766  0.4458 -0.5044
  727MOL0     C95836  -0.074   3.743   0.790 -0.6719  0.2830 -0.1409
  727MOL0     C95837  -0.187   3.826   0.772 -1.0005 -0.5580  0.6841
  727MOL0     C95838  -0.304   3.792   0.834  0.3448 -0.3446 -0.1456
  727MOL0     C95839  -0.313   3.678   0.916  0.7266 -0.8000 -0.7219
  727MOL0     O95840  -0.431   3.636   0.977 -0.7389  0.5039 -0.7899
  727MOL0     C95841  -0.526   3.576   0.887 -0.5168 -0.2654 -0.6491
  727MOL0     C95842  -0.619   3.474   0.950  0.3482 -0.3235  0.1276
  727MOL0     C95843  -0.731   3.449   0.855 -0.2478  1.1068 -0.0831
  727MOL0     C95844  -0.830   3.349   0.913  0.4237  0.0167 -0.1656
  727MOL0     C95845  -0.949   3.317   0.816  0.1433 -0.4338  0.5729
  727MOL0     C95846  -1.060   3.244   0.878  0.9482 -0.4398 -0.3604
  727MOL0     C95847  -1.188   3.234   0.786 -0.2787  0.1727 -0.7399
  727MOL0     C95848  -1.154   3.206   0.635 -0.8929 -0.1558  0.0597
  727MOL0     N95849  -1.265   3.159   0.558  0.2210 -0.3670  0.3484
  727MOL0     C95850  -1.308   3.029   0.551  0.6764  0.0595  0.2351
  727MOL0     C95851  -1.397   3.034   0.452 -0.0423 -1.1724  0.2964
  727MOL0     C95852  -1.490   2.920   0.407 -0.6801 -0.7299  0.1016
  727MOL0     C95853  -1.526   2.919   0.265 -0.8499 -0.3913  1.0391
  727MOL0     C95854  -1.644   2.842   0.227  0.1232 -0.5932 -0.0555
  727MOL0     C95855  -1.763   2.933   0.265  0.2012 -0.0524 -0.0385
  727MOL0     O95856  -1.827   2.887   0.389  0.9117  0.5982  0.3431
  727MOL0     C95857  -1.967   2.912   0.379  0.4243  0.7643 -0.0671
  727MOL0     C95858  -2.054   2.827   0.430 -0.8455  0.3386 -0.0273
  727MOL0     C95859  -2.190   2.849   0.421  0.7682 -0.4442 -0.2578
  727MOL0     C95860  -2.248   2.959   0.353 -0.6674  0.4747  0.2569
  727MOL0     C95861  -2.392   2.978   0.333 -0.0352  0.2981  0.3844
  727MOL0     O95862  -2.434   3.091   0.263  0.2780 -0.6269 -0.3359
  727MOL0     C95863  -2.569   3.127   0.274  0.2946  0.4630  0.2060
  727MOL0     C95864  -2.592   3.260   0.302 -0.4333  0.2251  0.8855
  727MOL0     C95865  -2.723   3.311   0.318 -1.5074 -0.1651 -0.5774
  727MOL0     C95866  -2.831   3.223   0.298  0.6656  0.0637 -0.1846
  727MOL0     O95867  -2.961   3.274   0.317 -0.5006 -0.1929  0.0202
  727MOL0     C95868  -3.070   3.199   0.267  1.0976  0.7094 -1.2034
  727MOL0     C95869  -3.201   3.265   0.316 -1.0015  0.4195  0.5864
  727MOL0     C95870  -3.224   3.392   0.236  1.0198  0.4155 -0.4712
  727MOL0     C95871  -3.350   3.461   0.304 -0.2366  0.2962 -0.0402
  727MOL0     C95872  -3.376   3.601   0.241 -0.3702 -0.1190  0.1644
  727MOL0     C95873  -3.422   3.607   0.094  0.3871 -1.2105  0.7495
  727MOL0     C95874  -3.449   3.753   0.037  0.2891  0.6165 -0.1228
  727MOL0     C95875  -3.468   3.752  -0.114  0.4287  0.1537  0.5307
  727MOL0    Cl95876  -3.575   3.620  -0.157 -0.1381  0.5535  0.2027
  727MOL0     C95877  -2.803   3.085   0.257 -0.0901  0.2746 -0.3037
  727MOL0     C95878  -2.670   3.047   0.242  0.6351 -0.0766  0.1450
  727MOL0     O95879  -2.471   2.904   0.386 -0.2553  0.2694 -0.2230
  727MOL0     C95880  -2.147   3.054   0.321  0.2282 -1.6839  0.0235
  727MOL0     C95881  -2.013   3.035   0.331  0.6076  0.2972  0.8973
  727MOL0     N95882  -1.424   3.168   0.424  0.3183 -0.6803  0.6356
  727MOL0     N95883  -1.343   3.243   0.484  0.2754 -0.9735 -0.2055
  727MOL0     C95884  -0.196   3.604   0.936  0.3045  0.6163  0.0215
  727MOL0     C95885  -0.076   3.630   0.874  0.0421 -1.2637  0.4216
  727MOL0     C95886   0.269   3.858   0.774 -1.0121  0.3566 -0.3812
  727MOL0     C95887   0.357   3.950   0.834  0.2721  0.2346  0.0478
  727MOL0     C95888   0.494   3.959   0.800  0.0770 -0.0236 -0.5784
  727MOL0     C95889   0.543   3.877   0.701 -0.4640 -0.2167 -0.0465
  727MOL0     O95890   0.684   3.886   0.685 -0.6215 -0.2848  0.0936
  727MOL0     C95891   0.746   3.771   0.626 -0.2980 -0.2999 -0.5862
  727MOL0     C95892   0.902   3.782   0.646  0.9397  0.5442  0.4496
  727MOL0     C95893   0.952   3.897   0.553 -0.4564  0.4317 -0.3858
  727MOL0     C95894   1.097   3.916   0.571  0.0292 -0.6999 -0.1272
  727MOL0     C95895   1.143   4.026   0.476 -0.4168 -0.0904 -0.0766
  727MOL0     C95896   1.162   4.101   0.379  0.3101 -0.1600 -0.2224
  727MOL0     C95897   0.458   3.785   0.634 -0.3629 -0.8638 -0.1866
  727MOL0     C95898   0.328   3.775   0.673  0.5060 -0.0946  0.6906
  727MOL0     H95899  -0.184   3.900   0.692 -1.9682 -2.2102 -0.9466
  727MOL0     H95900  -0.391   3.853   0.810 -1.3577 -2.4193  0.5053
  727MOL0     H95901  -0.479   3.537   0.797 -0.3168 -0.1964 -0.5754
  727MOL0     H95902  -0.594   3.656   0.854 -0.9201 -1.9548 -4.3327
  727MOL0     H95903  -0.665   3.515   1.041 -3.2963 -2.9904 -0.3024
  727MOL0     H95904  -0.575   3.378   0.976 -2.7393 -1.9062 -0.0955
  727MOL0     H95905  -0.695   3.415   0.757  0.5267  3.0562 -0.5219
  727MOL0     H95906  -0.780   3.543   0.828 -1.2611  0.7928  0.6222
  727MOL0     H95907  -0.780   3.253   0.926  1.1224  0.5459  1.2094
  727MOL0     H95908  -0.867   3.384   1.010 -3.1939  0.2298 -1.4750
  727MOL0     H95909  -0.922   3.256   0.730 -1.4560  0.7172 -0.8062
  727MOL0     H95910  -0.986   3.411   0.775  1.4060  0.2212  0.8957
  727MOL0     H95911  -1.098   3.283   0.973  1.4420 -2.1273  0.5746
  727MOL0     H95912  -1.030   3.142   0.903 -0.8483 -0.6639  1.1340
  727MOL0     H95913  -1.257   3.153   0.810 -0.7289 -0.2797 -3.2627
  727MOL0     H95914  -1.235   3.331   0.801  1.3233  1.2518 -2.2694
  727MOL0     H95915  -1.078   3.131   0.611 -1.3673 -0.8593  0.6746
  727MOL0     H95916  -1.130   3.301   0.586  3.0885 -2.1868 -2.4907
  727MOL0     H95917  -1.264   2.948   0.608 -0.0559 -1.6869 -1.5481
  727MOL0     H95918  -1.575   2.921   0.476 -1.3762 -0.6757 -0.7422
  727MOL0     H95919  -1.444   2.823   0.430  0.7000 -0.8536 -2.8179
  727MOL0     H95920  -1.438   2.884   0.212 -2.0920  0.0305 -1.4410
  727MOL0     H95921  -1.529   3.022   0.227  0.7926 -1.2171 -1.5254
  727MOL0     H95922  -1.644   2.837   0.118 -1.9409 -1.7807 -0.0610
  727MOL0     H95923  -1.658   2.740   0.264 -0.2218 -0.1208  1.1593
  727MOL0     H95924  -1.825   2.923   0.176  1.6264 -0.7864 -0.9892
  727MOL0     H95925  -1.745   3.041   0.274 -1.4657  0.1590  1.1319
  727MOL0     H95926  -2.007   2.742   0.479  1.3078  0.7374 -1.3247
  727MOL0     H95927  -2.260   2.780   0.467 -0.0827  2.0557  2.5686
  727MOL0     H95928  -2.508   3.326   0.324 -1.4231  2.9253 -2.5779
  727MOL0     H95929  -2.735   3.414   0.349  0.3907 -0.3157  0.8550
  727MOL0     H95930  -3.060   3.102   0.316  0.8005  1.3102  0.0775
  727MOL0     H95931  -3.071   3.177   0.160  0.8451 -3.7639 -0.4670
  727MOL0     H95932  -3.192   3.280   0.424 -0.6031 -2.9571  1.1234
  727MOL0     H95933  -3.286   3.197   0.309 -0.9512  0.2998  1.1005
  727MOL0     H95934  -3.245   3.365   0.132  0.6778 -2.3238  0.2269
  727MOL0     H95935  -3.136   3.457   0.238  1.7876 -0.5892 -0.3562
  727MOL0     H95936  -3.440   3.402   0.288 -0.1582  0.7448 -2.4216
  727MOL0     H95937  -3.327   3.464   0.411 -2.4815 -2.4208  0.6238
  727MOL0     H95938  -3.286   3.660   0.262  0.9642 -1.9939  0.0112
  727MOL0     H95939  -3.465   3.633   0.294 -1.1107 -0.7434 -0.6685
  727MOL0     H95940  -3.508   3.540   0.091  1.2861 -2.4163  1.1094
  727MOL0     H95941  -3.347   3.556   0.033  0.5749  0.4117 -0.4501
  727MOL0     H95942  -3.545   3.771   0.086  1.1354 -1.1442  2.3752
  727MOL0     H95943  -3.375   3.823   0.077  0.8613 -1.3970  2.6309
  727MOL0     H95944  -3.370   3.741  -0.160  0.8473  0.7594  1.2545
  727MOL0     H95945  -3.527   3.843  -0.131 -1.8384 -1.0344  1.6088
  727MOL0     H95946  -2.885   3.017   0.236 -2.2024  1.9961  1.8067
  727MOL0     H95947  -2.644   2.950   0.202  3.1794 -0.3951  2.2975
  727MOL0     H95948  -2.188   3.147   0.283  0.1852 -2.4866 -2.0355
  727MOL0     H95949  -1.943   3.111   0.297 -1.6673  1.1262 -2.4001
  727MOL0     H95950  -0.201   3.512   0.993 -4.8521  0.6616  0.1139
  727MOL0     H95951   0.014   3.572   0.892  1.8954  0.9591 -1.0502
  727MOL0     H95952   0.309   4.018   0.904 -2.1206  0.8173 -2.0184
  727MOL0     H95953   0.559   4.034   0.843  0.2554  0.8084 -2.2212
  727MOL0     H95954   0.717   3.755   0.522 -2.1697  2.3448 -0.5530
  727MOL0     H95955   0.710   3.683   0.680 -3.1462  2.1125  1.8123
  727MOL0     H95956   0.919   3.818   0.748  0.8946  0.0779  0.6217
  727MOL0     H95957   0.960   3.693   0.621  1.3570  0.3384  2.0551
  727MOL0     H95958   0.903   3.994   0.572 -1.8137 -0.6542  2.2362
  727MOL0     H95959   0.927   3.878   0.448  0.6131  0.2824 -0.6226
  727MOL0     H95960   1.123   3.933   0.676 -0.2169  0.9808 -0.3066
  727MOL0     H95961   1.155   3.831   0.535  0.5064 -0.9604  1.1922
  727MOL0     H95962   1.181   4.171   0.300  3.5073 -1.6074 -0.9277
  727MOL0     H95963   0.494   3.729   0.548  1.5744 -0.1661  0.1167
  727MOL0     H95964   0.270   3.703   0.616 -0.6085 -0.5890  2.3789
  728MOL0     O95965  10.483   7.969   9.241 -0.2275 -0.0389 -0.4077
  728MOL0     C95966  10.580   8.011   9.178 -0.7948 -0.9048  0.2200
  728MOL0     O95967  10.578   8.119   9.099 -0.5175 -0.1933 -0.4046
  728MOL0     C95968  10.463   8.185   9.098  0.9198 -0.2303  0.0203
  728MOL0     C95969  10.373   8.187   8.982  0.4207 -0.8945 -1.1409
  728MOL0     C95970  10.259   8.264   8.993  0.0414  0.3204  0.6035
  728MOL0     C95971  10.214   8.321   9.109 -0.1187 -0.4457  0.3263
  728MOL0     O95972  10.106   8.407   9.104  0.8233 -0.4309 -0.7020
  728MOL0     C95973  10.012   8.407   9.215  0.0826  0.4106  0.9296
  728MOL0     C95974   9.904   8.504   9.208  0.0500  0.6959  0.1862
  728MOL0     C95975   9.973   8.645   9.215 -0.2637 -0.0383 -0.0254
  728MOL0     C95976   9.867   8.747   9.197  0.1948 -0.0262 -0.3388
  728MOL0     C95977   9.924   8.888   9.186  0.2552 -0.3269 -0.3878
  728MOL0     C95978   9.983   8.944   9.313  0.0767  0.5014 -0.1474
  728MOL0     C95979  10.018   9.090   9.293  0.0553 -0.4003  0.3608
  728MOL0     C95980   9.930   9.189   9.373  0.4774  0.1541  0.7569
  728MOL0     N95981   9.782   9.180   9.359  0.0188 -0.2324 -0.4416
  728MOL0     C95982   9.695   9.108   9.449  0.2466  0.2914  1.6344
  728MOL0     C95983   9.570   9.131   9.399  1.0138 -0.0255  0.4430
  728MOL0     C95984   9.440   9.062   9.450  1.1003  0.3343 -0.5841
  728MOL0     C95985   9.306   9.106   9.366 -0.4525  0.0003 -0.0171
  728MOL0     C95986   9.321   9.045   9.233 -1.3610 -0.1199 -0.0969
  728MOL0     C95987   9.185   9.062   9.168  0.3175  0.3213  0.5491
  728MOL0     O95988   9.112   8.954   9.220 -0.1192 -0.1769 -0.2885
  728MOL0     C95989   8.980   8.953   9.198 -0.3021 -0.7372  0.3823
  728MOL0     C95990   8.925   8.832   9.203  0.3073  0.0277  0.2761
  728MOL0     C95991   8.793   8.810   9.165 -0.3936  0.3695  0.1020
  728MOL0     C95992   8.713   8.922   9.123 -0.7747  0.5650  0.0027
  728MOL0     C95993   8.564   8.900   9.103  0.2936 -0.1395 -0.0638
  728MOL0     O95994   8.480   9.011   9.079  0.3249 -0.2907  0.1320
  728MOL0     C95995   8.348   8.991   9.079 -0.2674 -0.6432 -0.8900
  728MOL0     C95996   8.256   9.070   9.154  0.2858  0.2470 -0.1984
  728MOL0     C95997   8.120   9.062   9.131  0.2428 -0.1696 -0.4814
  728MOL0     C95998   8.070   8.976   9.033  0.2498  0.8043  0.4985
  728MOL0     O95999   7.938   8.970   9.002  0.0823 -0.9109 -0.7796
  728MOL0     C96000   7.875   8.851   9.005 -0.0528  0.4219 -0.0158
  728MOL0     C96001   7.727   8.880   8.962 -0.8093 -0.5936 -0.0654
  728MOL0     C96002   7.704   8.896   8.817 -0.6031  0.2597  0.9139
  728MOL0     C96003   7.722   8.784   8.726  1.0176  0.1016  0.8190
  728MOL0     C96004   7.690   8.822   8.578 -1.3241  0.1326 -0.4600
  728MOL0     C96005   7.665   8.688   8.495 -0.5723  0.3442  0.1286
  728MOL0     C96006   7.791   8.598   8.482 -0.0015 -0.2685  0.0692
  728MOL0     C96007   7.794   8.526   8.347  0.7800 -0.8810 -0.4527
  728MOL0    Cl96008   7.914   8.399   8.337 -0.0894  0.0717  0.1940
  728MOL0     C96009   8.155   8.888   8.967 -0.2358  0.1632 -0.1436
  728MOL0     C96010   8.291   8.907   8.979  0.4908  0.7244 -0.8858
  728MOL0     O96011   8.529   8.782   9.103  0.3567 -0.3506  0.1670
  728MOL0     C96012   8.769   9.048   9.114 -0.4135 -0.6636 -0.6245
  728MOL0     C96013   8.907   9.060   9.147  0.7670 -1.0703 -0.4555
  728MOL0     N96014   9.576   9.237   9.310 -0.0159 -0.1240  0.3031
  728MOL0     N96015   9.701   9.259   9.281 -1.3199 -0.0325 -0.7753
  728MOL0     C96016  10.298   8.325   9.218  0.7396 -0.2468  0.6556
  728MOL0     C96017  10.419   8.254   9.213 -0.1327 -0.0716 -0.4261
  728MOL0     C96018  10.711   7.950   9.194  0.1370 -0.8696  0.2183
  728MOL0     C96019  10.741   7.856   9.298  0.4581 -0.2977 -0.3932
  728MOL0     C96020  10.857   7.780   9.285 -0.4149  0.4609 -0.7056
  728MOL0     C96021  10.965   7.815   9.204  0.8752  0.6158 -0.4512
  728MOL0     O96022  11.091   7.758   9.209  0.6138  0.3516  0.2553
  728MOL0     C96023  11.118   7.713   9.340 -0.7733  0.6810 -0.7514
  728MOL0     C96024  11.266   7.653   9.332 -0.1151  0.3135  0.3959
  728MOL0     C96025  11.320   7.612   9.475 -0.4939  0.2315 -0.1913
  728MOL0     C96026  11.467   7.575   9.455  0.6617 -0.6914 -0.9455
  728MOL0     C96027  11.547   7.702   9.459  0.4044 -0.2939 -0.1476
  728MOL0     C96028  11.611   7.808   9.470  0.0532  0.6591 -0.3742
  728MOL0     C96029  10.942   7.916   9.114 -0.2835  0.2957  0.3018
  728MOL0     C96030  10.814   7.976   9.105  0.3188 -0.3501 -0.4997
  728MOL0     H96031  10.401   8.139   8.889  0.0742 -1.8966 -0.7423
  728MOL0     H96032  10.198   8.269   8.904 -1.0092 -0.0347  1.2882
  728MOL0     H96033  10.068   8.432   9.306  2.7006 -0.9740 -0.1769
  728MOL0     H96034   9.969   8.307   9.212 -0.5984  0.7183 -1.0119
  728MOL0     H96035   9.825   8.487   9.281 -2.4371  1.3709 -2.1658
  728MOL0     H96036   9.865   8.494   9.106 -0.2816  0.6153  0.3209
  728MOL0     H96037  10.049   8.665   9.139  0.2294  1.3658  0.7770
  728MOL0     H96038  10.013   8.656   9.317 -2.5083 -1.1882  1.0469
  728MOL0     H96039   9.806   8.722   9.110 -0.6991 -1.9013  0.7584
  728MOL0     H96040   9.799   8.739   9.282  0.5055 -2.3263 -0.2332
  728MOL0     H96041   9.845   8.959   9.160 -1.6762 -1.9588  0.7689
  728MOL0     H96042  10.006   8.889   9.113  2.9308 -0.3500  2.3905
  728MOL0     H96043  10.070   8.887   9.347 -0.7602 -0.2324  0.8122
  728MOL0     H96044   9.911   8.932   9.394 -0.2574  0.0297 -0.5120
  728MOL0     H96045  10.122   9.114   9.316  0.3345 -1.6820  0.4928
  728MOL0     H96046  10.014   9.121   9.188  0.9146  1.8236  0.9317
  728MOL0     H96047   9.960   9.288   9.337 -0.6370 -0.1535 -1.1932
  728MOL0     H96048   9.953   9.188   9.479  1.7349  2.3092  0.5774
  728MOL0     H96049   9.728   9.034   9.522  2.0418 -0.7298 -0.1061
  728MOL0     H96050   9.424   9.094   9.553  1.3745  1.1780 -0.7969
  728MOL0     H96051   9.451   8.954   9.459  1.5724  0.4101 -0.2499
  728MOL0     H96052   9.299   9.213   9.348  4.1037  0.3181 -1.3265
  728MOL0     H96053   9.213   9.069   9.409 -0.4418 -2.6606 -2.0190
  728MOL0     H96054   9.397   9.086   9.166 -1.2663  2.3412  1.4123
  728MOL0     H96055   9.340   8.938   9.242  0.6372  0.3169  1.4707
  728MOL0     H96056   9.195   9.052   9.059  0.2371 -1.9063  0.7153
  728MOL0     H96057   9.135   9.157   9.191 -3.0506 -0.7570 -1.5433
  728MOL0     H96058   8.980   8.745   9.237 -1.2586 -0.7521  0.8877
  728MOL0     H96059   8.753   8.708   9.164 -2.2571  1.0509 -1.2061
  728MOL0     H96060   8.280   9.150   9.223 -2.1790 -0.2959  1.4263
  728MOL0     H96061   8.053   9.117   9.196  1.3157  0.6238 -0.0117
  728MOL0     H96062   7.885   8.816   9.109  0.4527  1.4656  0.2979
  728MOL0     H96063   7.914   8.770   8.941  1.7112 -0.4118  1.9857
  728MOL0     H96064   7.705   8.975   9.012 -1.7346 -0.7518 -0.1394
  728MOL0     H96065   7.662   8.799   8.996 -1.2850  0.2781  1.1725
  728MOL0     H96066   7.761   8.979   8.775 -0.7730 -0.1252 -0.0900
  728MOL0     H96067   7.604   8.940   8.814 -0.4513  0.5675  0.3171
  728MOL0     H96068   7.826   8.752   8.738  0.0396 -2.8852  2.4905
  728MOL0     H96069   7.647   8.710   8.757 -0.3638  1.6981  1.3918
  728MOL0     H96070   7.769   8.877   8.527 -0.2424  0.2035  1.1872
  728MOL0     H96071   7.592   8.870   8.572 -1.8580 -0.8984 -0.3458
  728MOL0     H96072   7.647   8.709   8.389  0.9459  0.6958 -0.0812
  728MOL0     H96073   7.583   8.635   8.544  1.3828 -0.7678  2.3771
  728MOL0     H96074   7.887   8.651   8.488 -1.6471  3.3609 -2.0207
  728MOL0     H96075   7.785   8.521   8.559 -0.1112  0.5933  0.9520
  728MOL0     H96076   7.807   8.604   8.272 -0.1122 -0.0464  0.2246
  728MOL0     H96077   7.697   8.477   8.334  1.6557 -2.3782 -1.5098
  728MOL0     H96078   8.126   8.815   8.892 -2.5077 -0.0116  0.8075
  728MOL0     H96079   8.357   8.842   8.921 -0.6523  1.4987 -3.1809
  728MOL0     H96080   8.716   9.136   9.077 -0.5735 -1.0461 -1.3310
  728MOL0     H96081   8.960   9.154   9.135  0.3813 -0.8190 -0.2055
  728MOL0     H96082  10.260   8.387   9.299 -1.8017  0.9444 -1.3039
  728MOL0     H96083  10.478   8.250   9.304 -0.1667 -2.2523 -0.4550
  728MOL0     H96084  10.656   7.826   9.358 -1.1765  0.7523 -2.1069
  728MOL0     H96085  10.851   7.691   9.346 -0.1365  0.4230 -0.7306
  728MOL0     H96086  11.060   7.627   9.377  1.3899 -0.9677 -0.9972
  728MOL0     H96087  11.118   7.800   9.405  1.2179  0.0473  0.1848
  728MOL0     H96088  11.282   7.560   9.278  1.5402  0.0198  1.3127
  728MOL0     H96089  11.335   7.724   9.285 -1.4116  0.5346 -1.2286
  728MOL0     H96090  11.275   7.517   9.502 -0.0319 -0.8526 -2.9280
  728MOL0     H96091  11.298   7.685   9.554 -1.3575 -1.3217  1.0558
  728MOL0     H96092  11.497   7.508   9.536 -1.2656 -3.9793 -2.7228
  728MOL0     H96093  11.484   7.525   9.359  0.6230 -1.0079 -0.7892
  728MOL0     H96094  11.680   7.890   9.461  2.4418 -1.3107 -1.2370
  728MOL0     H96095  11.023   7.945   9.048 -1.5923  0.5025 -1.3088
  728MOL0     H96096  10.785   8.040   9.022 -2.1010 -2.4117 -1.3870
  729MOL0     O96097  10.736   4.976   7.443  0.5218 -0.3143  1.0444
  729MOL0     C96098  10.794   4.985   7.329 -0.0363 -0.1046 -0.4701
  729MOL0     O96099  10.747   5.051   7.225 -0.1519 -0.1227  0.7542
  729MOL0     C96100  10.641   5.137   7.234  0.3007  0.9099  0.9520
  729MOL0     C96101  10.542   5.133   7.130 -0.7220  0.1718  0.1646
  729MOL0     C96102  10.424   5.204   7.154 -0.1281 -0.6590  0.3688
  729MOL0     C96103  10.404   5.293   7.252  0.1186 -0.1135  0.8093
  729MOL0     O96104  10.288   5.364   7.266 -0.0240  0.2572 -0.5745
  729MOL0     C96105  10.174   5.314   7.194  0.4375  0.1298 -0.2607
  729MOL0     C96106  10.041   5.372   7.232 -0.7916 -0.5144 -0.1047
  729MOL0     C96107  10.031   5.528   7.224  0.2039  0.5932  0.3168
  729MOL0     C96108   9.899   5.587   7.287  0.1838 -0.4271 -0.3068
  729MOL0     C96109   9.873   5.718   7.210  0.5036  0.7811 -1.1536
  729MOL0     C96110   9.772   5.795   7.299  1.0049 -0.5337  0.2711
  729MOL0     C96111   9.686   5.894   7.220 -0.3202 -0.2109 -0.1698
  729MOL0     C96112   9.769   6.003   7.159 -1.2275  0.1442 -0.0018
  729MOL0     N96113   9.697   6.096   7.078  0.3171 -1.0582  0.4062
  729MOL0     C96114   9.654   6.095   6.948 -0.4295  0.0065  1.2041
  729MOL0     C96115   9.584   6.208   6.922  0.2974  1.2444  0.5845
  729MOL0     C96116   9.505   6.243   6.792 -0.9984 -0.6380 -0.6347
  729MOL0     C96117   9.348   6.204   6.815  0.6988 -0.8686 -0.5262
  729MOL0     C96118   9.325   6.060   6.770  0.0442 -0.0690  0.4392
  729MOL0     C96119   9.185   6.011   6.802  0.0726 -0.4253  0.5552
  729MOL0     O96120   9.100   6.093   6.710  0.2282 -0.2871 -0.0498
  729MOL0     C96121   8.958   6.075   6.709  0.2365  0.0670  0.0223
  729MOL0     C96122   8.884   5.970   6.765 -0.0158 -0.2196  0.1764
  729MOL0     C96123   8.740   5.954   6.756 -0.2633  0.6712 -1.3826
  729MOL0     C96124   8.667   6.047   6.698 -0.1546 -0.3398  1.2066
  729MOL0     C96125   8.514   6.040   6.682 -0.0039 -0.5126 -0.0177
  729MOL0     O96126   8.454   5.943   6.758 -0.8947  0.8264  0.7549
  729MOL0     C96127   8.317   5.945   6.763 -0.2737 -0.2927 -0.0959
  729MOL0     C96128   8.254   6.041   6.857 -0.9746  0.5546  0.3930
  729MOL0     C96129   8.116   6.048   6.854 -0.3011 -0.0657 -0.2264
  729MOL0     C96130   8.034   5.971   6.770 -0.1456  1.3426 -0.3450
  729MOL0     O96131   7.899   5.978   6.759  0.2449 -0.1735 -0.0424
  729MOL0     C96132   7.826   6.016   6.874  0.0794 -0.0444  0.5839
  729MOL0     C96133   7.677   5.981   6.854 -0.3371  0.2782 -0.0982
  729MOL0     C96134   7.649   5.834   6.837  0.1802 -0.0255  0.4383
  729MOL0     C96135   7.505   5.796   6.804  0.5330 -0.3034  0.7111
  729MOL0     C96136   7.398   5.848   6.911 -0.7316  0.6052 -0.2192
  729MOL0     C96137   7.262   5.786   6.901  0.0276 -0.2702 -0.8655
  729MOL0     C96138   7.180   5.874   6.808 -1.0522  0.6052  0.4304
  729MOL0     C96139   7.043   5.806   6.776  0.4086 -0.4757  0.2892
  729MOL0    Cl96140   6.928   5.810   6.913 -0.1653 -0.4386  0.3023
  729MOL0     C96141   8.096   5.875   6.680  0.4133 -0.1944  0.0318
  729MOL0     C96142   8.236   5.869   6.676  0.4800 -0.1854  0.4640
  729MOL0     O96143   8.453   6.138   6.632 -0.5744 -0.3314  0.3285
  729MOL0     C96144   8.738   6.160   6.645  0.5655  1.0886 -0.5084
  729MOL0     C96145   8.881   6.174   6.660  0.0494  0.8065  0.5905
  729MOL0     N96146   9.580   6.276   7.038  0.0048 -0.9937 -0.2094
  729MOL0     N96147   9.651   6.219   7.127 -0.2039  0.2258  0.7257
  729MOL0     C96148  10.503   5.305   7.343 -0.5060  0.0998 -0.4486
  729MOL0     C96149  10.621   5.231   7.335 -0.3406  0.0989 -0.3101
  729MOL0     C96150  10.910   4.894   7.300 -0.5546  0.0294 -0.8467
  729MOL0     C96151  10.956   4.806   7.406 -0.0357  0.7293  0.0080
  729MOL0     C96152  11.046   4.704   7.379 -0.5003  0.5090 -0.8910
  729MOL0     C96153  11.107   4.695   7.253 -0.1996  1.2173  0.0103
  729MOL0     O96154  11.203   4.603   7.213  0.0366  0.2225 -0.3078
  729MOL0     C96155  11.248   4.501   7.300  0.0508  0.1686  0.2518
  729MOL0     C96156  11.382   4.446   7.240 -0.2760  0.2491  0.4307
  729MOL0     C96157  11.486   4.563   7.230 -0.1660 -0.0394 -0.5343
  729MOL0     C96158  11.548   4.583   7.080 -0.2633  0.6249  0.1190
  729MOL0     C96159  11.439   4.614   6.987 -0.5907  0.9409 -0.2462
  729MOL0     C96160  11.343   4.623   6.916 -0.4965  0.5482 -0.2280
  729MOL0     C96161  11.055   4.781   7.154  0.5501 -0.3268  0.1546
  729MOL0     C96162  10.967   4.884   7.176 -1.0430 -0.3998 -0.1983
  729MOL0     H96163  10.554   5.049   7.062  4.9860 -1.8655  3.0622
  729MOL0     H96164  10.339   5.177   7.091 -0.7065  0.5486  0.5967
  729MOL0     H96165  10.171   5.207   7.217 -1.3638  0.0966 -0.4947
  729MOL0     H96166  10.184   5.326   7.086 -0.1907 -0.8223 -0.4314
  729MOL0     H96167  10.025   5.344   7.336 -2.1015  0.6417  0.0234
  729MOL0     H96168   9.963   5.325   7.172  2.4925 -2.9953 -2.8720
  729MOL0     H96169  10.040   5.546   7.117 -0.1680 -1.1906 -0.0428
  729MOL0     H96170  10.120   5.570   7.272  1.0502 -1.8142  1.0458
  729MOL0     H96171   9.815   5.518   7.275 -1.8828  1.4107  2.3359
  729MOL0     H96172   9.907   5.601   7.395 -0.3558  1.5384 -0.4823
  729MOL0     H96173   9.837   5.693   7.109  0.3074 -0.3483 -0.8246
  729MOL0     H96174   9.968   5.769   7.196  2.7602 -2.7070  0.1458
  729MOL0     H96175   9.824   5.842   7.383  1.9557  0.2452 -0.7278
  729MOL0     H96176   9.698   5.725   7.339  0.8450 -0.8763 -0.6122
  729MOL0     H96177   9.636   5.840   7.139 -0.2014  1.4799 -1.4206
  729MOL0     H96178   9.621   5.940   7.294  0.8965 -1.9428  2.1272
  729MOL0     H96179   9.841   5.969   7.085  0.4322  1.3126  0.9956
  729MOL0     H96180   9.838   6.044   7.234  0.1733 -0.1579 -1.0819
  729MOL0     H96181   9.678   6.013   6.881  1.4641  0.6202  1.0641
  729MOL0     H96182   9.550   6.189   6.709  0.7550  2.0122 -1.5534
  729MOL0     H96183   9.519   6.351   6.774 -2.0317 -0.5363 -0.8634
  729MOL0     H96184   9.290   6.260   6.741 -0.1503 -0.8080  0.1821
  729MOL0     H96185   9.320   6.229   6.917 -2.5347 -0.6209 -1.3887
  729MOL0     H96186   9.344   6.039   6.665 -1.8833 -0.0624  0.0390
  729MOL0     H96187   9.395   6.001   6.830  1.4822  1.3729  0.2251
  729MOL0     H96188   9.161   6.031   6.907  0.0498 -1.2727  0.7166
  729MOL0     H96189   9.170   5.905   6.778 -1.5909  0.4916 -3.3395
  729MOL0     H96190   8.935   5.890   6.818 -0.1355 -0.2259  0.2829
  729MOL0     H96191   8.696   5.860   6.789 -0.8808  1.1674 -0.7521
  729MOL0     H96192   8.324   6.094   6.921 -0.6894 -0.0780  0.6136
  729MOL0     H96193   8.081   6.122   6.925  0.7498  0.8494 -0.6197
  729MOL0     H96194   7.850   6.118   6.905 -1.5756  0.8424 -0.8908
  729MOL0     H96195   7.865   5.946   6.949  0.5204 -0.1739  0.2370
  729MOL0     H96196   7.654   6.041   6.766  3.8789  0.9097 -0.9389
  729MOL0     H96197   7.629   6.027   6.942  2.9387  0.9846  1.4931
  729MOL0     H96198   7.681   5.793   6.933  0.0667  0.7904  0.8319
  729MOL0     H96199   7.714   5.795   6.758  2.0700 -1.0624  2.3689
  729MOL0     H96200   7.485   5.836   6.704  1.5559 -3.7196 -1.0286
  729MOL0     H96201   7.494   5.690   6.778 -0.8650  0.0821 -0.3844
  729MOL0     H96202   7.402   5.957   6.919 -1.1515  0.5812  0.3470
  729MOL0     H96203   7.429   5.807   7.007 -2.5436  0.3230  0.2793
  729MOL0     H96204   7.210   5.787   6.997 -3.0529  1.2804 -2.4071
  729MOL0     H96205   7.269   5.683   6.865  0.3508 -0.9606  1.0528
  729MOL0     H96206   7.152   5.968   6.858 -2.0113 -0.1601  1.3889
  729MOL0     H96207   7.232   5.905   6.717  0.3020 -0.3681  0.8496
  729MOL0     H96208   7.050   5.701   6.745 -3.5618 -0.2564 -2.0923
  729MOL0     H96209   6.995   5.862   6.695  0.3559 -0.4601  0.3320
  729MOL0     H96210   8.035   5.820   6.610  0.1877 -0.5268  0.4801
  729MOL0     H96211   8.284   5.798   6.610 -0.7928  0.3390 -1.0747
  729MOL0     H96212   8.677   6.230   6.590 -2.5466 -0.3754  0.8461
  729MOL0     H96213   8.939   6.254   6.616  2.0306 -0.6841  0.3661
  729MOL0     H96214  10.477   5.371   7.425 -0.2039  1.3393 -1.3128
  729MOL0     H96215  10.698   5.257   7.406 -0.3185 -1.0523  0.1125
  729MOL0     H96216  10.928   4.835   7.507 -1.2115 -1.3773  0.3347
  729MOL0     H96217  11.073   4.643   7.465 -0.0125  1.4615 -0.3542
  729MOL0     H96218  11.170   4.424   7.301  0.3280 -0.1182 -0.0089
  729MOL0     H96219  11.268   4.538   7.402 -2.2845 -2.9013  2.0013
  729MOL0     H96220  11.411   4.362   7.304  2.4007  0.5083 -0.3034
  729MOL0     H96221  11.369   4.395   7.144 -0.7667  0.6902  0.2546
  729MOL0     H96222  11.556   4.533   7.309 -1.8644 -1.9334  0.3386
  729MOL0     H96223  11.443   4.655   7.269 -0.7391 -0.6638  0.3548
  729MOL0     H96224  11.626   4.659   7.081 -0.2049  0.5693 -0.3289
  729MOL0     H96225  11.595   4.489   7.049  2.1557  2.1117 -1.0097
  729MOL0     H96226  11.270   4.627   6.839  0.0242 -4.4074 -1.3253
  729MOL0     H96227  11.096   4.748   7.059 -0.5884 -1.4267  0.0231
  729MOL0     H96228  10.939   4.946   7.091  0.0687  1.4808  0.7481
  730MOL0     O96229   8.313   9.465   5.265 -0.3739  0.8463  0.6929
  730MOL0     C96230   8.325   9.413   5.375 -0.3384  0.9139  0.1927
  730MOL0     O96231   8.218   9.384   5.464 -0.1199  0.0611 -0.0486
  730MOL0     C96232   8.090   9.387   5.416  0.4859 -1.1485 -0.0489
  730MOL0     C96233   8.024   9.263   5.389  0.1411  0.3948 -0.6238
  730MOL0     C96234   7.889   9.261   5.354 -0.1230 -0.4990 -0.5582
  730MOL0     C96235   7.809   9.379   5.338  0.2096 -0.0738  0.2680
  730MOL0     O96236   7.681   9.363   5.288 -0.6481 -0.1049  0.0832
  730MOL0     C96237   7.590   9.472   5.305  0.5320 -0.8448  1.0207
  730MOL0     C96238   7.529   9.482   5.447 -0.1962 -0.8823  1.1689
  730MOL0     C96239   7.430   9.360   5.480 -0.0602 -0.5022  0.6915
  730MOL0     C96240   7.352   9.374   5.609 -0.2733 -0.8671  0.9597
  730MOL0     C96241   7.307   9.235   5.660  1.0815  0.3426  0.3415
  730MOL0     C96242   7.228   9.251   5.788 -0.2088  0.0366 -0.2363
  730MOL0     C96243   7.199   9.116   5.851  0.3461 -0.3013  0.1413
  730MOL0     C96244   7.102   9.121   5.966  0.1322 -0.3450  0.6588
  730MOL0     N96245   7.071   8.987   6.018  0.0717  0.6494  0.2411
  730MOL0     C96246   7.180   8.909   6.047  0.4964  0.3231 -0.2227
  730MOL0     C96247   7.119   8.814   6.127 -0.0032 -0.1703 -0.2188
  730MOL0     C96248   7.185   8.707   6.215 -0.4803  0.2183 -0.6848
  730MOL0     C96249   7.333   8.722   6.236 -0.8355  0.7593  0.9188
  730MOL0     C96250   7.376   8.651   6.363  0.5060  0.0299  0.0475
  730MOL0     C96251   7.522   8.671   6.382  0.4526  0.0303 -0.4585
  730MOL0     O96252   7.555   8.794   6.444  0.5002 -0.5351  0.3176
  730MOL0     C96253   7.676   8.816   6.503 -0.2065  0.0666  0.7793
  730MOL0     C96254   7.704   8.944   6.539 -0.5382  0.3469 -0.9432
  730MOL0     C96255   7.820   8.973   6.607 -1.3491  0.1980  0.1585
  730MOL0     C96256   7.926   8.875   6.620 -0.8779 -0.3975 -0.0171
  730MOL0     C96257   8.063   8.915   6.674 -0.3858  0.0210 -0.0019
  730MOL0     O96258   8.159   8.818   6.669 -0.0504  0.5497  0.4599
  730MOL0     C96259   8.282   8.851   6.715 -0.3898 -0.1798  0.1649
  730MOL0     C96260   8.361   8.739   6.716  0.8635  0.5333 -1.1113
  730MOL0     C96261   8.499   8.741   6.744 -0.1465  0.1717 -0.0853
  730MOL0     C96262   8.557   8.866   6.777 -0.6263  1.2142  0.4675
  730MOL0     O96263   8.688   8.878   6.818  0.0627 -0.0686  0.2855
  730MOL0     C96264   8.764   8.760   6.834 -0.6445  0.3312 -0.2861
  730MOL0     C96265   8.902   8.793   6.887 -0.0954  0.7436 -0.4872
  730MOL0     C96266   8.997   8.832   6.774 -0.4162 -0.6230  0.2914
  730MOL0     C96267   9.041   8.719   6.682 -0.2730 -0.3586 -0.3142
  730MOL0     C96268   9.152   8.760   6.584 -0.0760 -0.0575 -0.1317
  730MOL0     C96269   9.214   8.636   6.517 -0.0374 -0.2288  1.0292
  730MOL0     C96270   9.303   8.658   6.386 -0.1400  0.2176  0.3533
  730MOL0     C96271   9.349   8.535   6.303 -0.6067 -1.0499 -0.0296
  730MOL0    Cl96272   9.452   8.422   6.403 -0.0847 -0.0923  0.1519
  730MOL0     C96273   8.485   8.986   6.763 -0.6353  0.4786 -0.2952
  730MOL0     C96274   8.345   8.979   6.734 -0.3113  0.3806  0.2457
  730MOL0     O96275   8.068   9.020   6.742  0.2886 -0.6860 -0.1798
  730MOL0     C96276   7.909   8.747   6.565  0.1845 -0.1743 -0.0949
  730MOL0     C96277   7.781   8.720   6.512  0.2476 -0.6143 -0.0044
  730MOL0     N96278   6.986   8.835   6.135 -0.4511 -0.2948  0.2073
  730MOL0     N96279   6.960   8.938   6.060 -0.4994 -0.3507 -0.2147
  730MOL0     C96280   7.875   9.497   5.366  0.1515  0.1189 -0.3981
  730MOL0     C96281   8.008   9.504   5.415 -0.1666  0.7438 -0.3081
  730MOL0     C96282   8.459   9.389   5.423 -0.5292  0.5153 -0.3525
  730MOL0     C96283   8.490   9.321   5.542 -0.2696 -0.5505 -0.8002
  730MOL0     C96284   8.621   9.306   5.589  0.0787  0.0948 -1.3120
  730MOL0     C96285   8.722   9.353   5.513  0.4528 -0.0514  0.1545
  730MOL0     O96286   8.848   9.318   5.556  0.4648 -0.3243 -0.8477
  730MOL0     C96287   8.966   9.372   5.490 -0.1175  0.4306 -0.2211
  730MOL0     C96288   8.993   9.528   5.491 -0.1297  0.4232  0.2995
  730MOL0     C96289   9.004   9.579   5.632 -0.9515  0.3342  0.7307
  730MOL0     C96290   8.860   9.623   5.675 -0.2746  0.3449 -0.7400
  730MOL0     C96291   8.845   9.628   5.823 -0.3159  0.2234 -0.8127
  730MOL0     C96292   8.829   9.628   5.945 -0.3468  1.0789 -0.3762
  730MOL0     C96293   8.703   9.417   5.392  0.4091 -0.6430 -0.2955
  730MOL0     C96294   8.570   9.440   5.348  0.1576 -0.6546 -0.6541
  730MOL0     H96295   8.075   9.167   5.389 -4.0528 -2.1419  2.2070
  730MOL0     H96296   7.842   9.171   5.317 -1.0180 -0.3665  0.2004
  730MOL0     H96297   7.503   9.468   5.239  0.4718  1.0916  0.9366
  730MOL0     H96298   7.642   9.567   5.293  2.1538 -1.7522  0.6202
  730MOL0     H96299   7.476   9.578   5.455  0.2930 -0.5853  0.8915
  730MOL0     H96300   7.607   9.469   5.523  1.8552  0.0940 -0.6745
  730MOL0     H96301   7.487   9.267   5.483 -0.6035 -0.9198 -1.2130
  730MOL0     H96302   7.365   9.356   5.392 -1.1798 -0.1908  1.4848
  730MOL0     H96303   7.398   9.425   5.694 -0.2115 -0.1836  0.5240
  730MOL0     H96304   7.267   9.434   5.575  1.8847  1.1712 -1.3048
  730MOL0     H96305   7.403   9.189   5.686  0.6450 -2.7517 -2.7740
  730MOL0     H96306   7.260   9.163   5.593 -0.5401  1.0089  0.7317
  730MOL0     H96307   7.134   9.302   5.768  1.4196  4.4931  1.9416
  730MOL0     H96308   7.288   9.314   5.855  2.9766 -0.1893 -2.6560
  730MOL0     H96309   7.167   9.033   5.787  2.5994 -1.5812  0.5733
  730MOL0     H96310   7.295   9.082   5.890  1.0842 -1.2698 -2.3151
  730MOL0     H96311   7.009   9.167   5.931  0.1061 -0.8204  0.1084
  730MOL0     H96312   7.138   9.184   6.048  0.8495  2.4753 -1.6778
  730MOL0     H96313   7.283   8.913   6.013  0.1087  0.9558 -1.3900
  730MOL0     H96314   7.160   8.615   6.161 -1.8579 -1.0112  1.8996
  730MOL0     H96315   7.140   8.699   6.314  0.6928 -1.0289 -0.2256
  730MOL0     H96316   7.354   8.829   6.231 -1.7220  0.8912 -2.4937
  730MOL0     H96317   7.390   8.674   6.155  0.5351  0.9471  1.7485
  730MOL0     H96318   7.311   8.688   6.442 -1.3641  0.2169 -1.4934
  730MOL0     H96319   7.355   8.544   6.353  0.5923 -0.2456  2.3937
  730MOL0     H96320   7.575   8.671   6.286 -1.7204  0.2074 -1.7116
  730MOL0     H96321   7.554   8.590   6.448 -1.0646 -0.3353 -0.1376
  730MOL0     H96322   7.629   9.021   6.526 -2.2010 -1.1388 -0.5661
  730MOL0     H96323   7.831   9.068   6.657  0.5223  0.5745 -0.8881
  730MOL0     H96324   8.324   8.636   6.710  1.9410  0.0706 -0.0510
  730MOL0     H96325   8.548   8.645   6.755 -1.6644 -0.6438 -0.1161
  730MOL0     H96326   8.777   8.687   6.753  1.4212  0.7763 -0.4019
  730MOL0     H96327   8.712   8.698   6.907  1.2719 -0.8657  0.1180
  730MOL0     H96328   8.930   8.700   6.939 -3.4109 -0.7424 -1.1280
  730MOL0     H96329   8.894   8.873   6.961 -2.5799 -0.1816  0.3290
  730MOL0     H96330   9.081   8.862   6.837 -1.9685  0.3843  1.9806
  730MOL0     H96331   8.974   8.927   6.724 -0.8414 -1.1593 -0.5522
  730MOL0     H96332   9.070   8.631   6.741  1.6372  0.7450  0.4950
  730MOL0     H96333   8.956   8.691   6.620 -0.1772 -2.6511  0.5050
  730MOL0     H96334   9.230   8.813   6.638 -1.2870 -1.4285  3.2420
  730MOL0     H96335   9.101   8.820   6.508  0.6485 -0.5776 -1.0522
  730MOL0     H96336   9.127   8.572   6.496  0.2782 -0.8360  1.5229
  730MOL0     H96337   9.276   8.583   6.590 -0.9570 -0.8313  1.4039
  730MOL0     H96338   9.249   8.723   6.316 -0.5200  0.6722  1.0634
  730MOL0     H96339   9.387   8.720   6.421 -0.9939  0.6372  1.7459
  730MOL0     H96340   9.412   8.571   6.221  1.7667  1.3304  2.6341
  730MOL0     H96341   9.256   8.503   6.254 -0.8981 -0.1081 -0.1222
  730MOL0     H96342   8.533   9.083   6.772  0.4420 -0.0218 -0.4767
  730MOL0     H96343   8.317   9.078   6.700  3.0895  0.0767 -4.3920
  730MOL0     H96344   7.991   8.676   6.571  0.3290  0.1158  3.6199
  730MOL0     H96345   7.761   8.622   6.472 -1.6395  0.6127 -2.3322
  730MOL0     H96346   7.826   9.594   5.372  2.3663  1.2455  0.7360
  730MOL0     H96347   8.058   9.594   5.449  0.8444 -0.2638  0.9867
  730MOL0     H96348   8.415   9.281   5.610  1.6727  1.0113  2.4632
  730MOL0     H96349   8.637   9.258   5.685 -0.7206  0.4298 -1.0016
  730MOL0     H96350   8.966   9.342   5.385  1.5591  6.8848 -2.5344
  730MOL0     H96351   9.049   9.328   5.548 -2.1085 -3.5855 -0.0485
  730MOL0     H96352   9.070   9.559   5.420 -3.5515  0.7335 -3.6983
  730MOL0     H96353   8.905   9.577   5.447  1.3923  1.7920 -1.3342
  730MOL0     H96354   9.073   9.663   5.639  1.0702 -1.0538 -1.3400
  730MOL0     H96355   9.048   9.505   5.699 -0.7292 -0.6176 -0.4346
  730MOL0     H96356   8.842   9.726   5.645 -2.6437 -0.1185 -1.1119
  730MOL0     H96357   8.780   9.557   5.640  0.2989 -1.2005  0.6936
  730MOL0     H96358   8.822   9.649   6.050  1.5538 -0.4534  0.1186
  730MOL0     H96359   8.792   9.434   5.332  3.0775  1.6254  3.8098
  730MOL0     H96360   8.569   9.498   5.257 -0.4049  0.7845  0.2387
  731MOL0     O96361   4.874   9.512   1.202 -0.6987 -0.3795 -0.7135
  731MOL0     C96362   4.918   9.624   1.185  0.4122 -0.1023 -0.0711
  731MOL0     O96363   4.875   9.743   1.229  0.6235  0.0618 -0.1381
  731MOL0     C96364   4.745   9.744   1.281  0.6309  0.4865  1.0014
  731MOL0     C96365   4.637   9.666   1.235 -0.0931  0.1053  0.1871
  731MOL0     C96366   4.502   9.686   1.278 -0.0370 -0.5812 -0.1902
  731MOL0     C96367   4.476   9.778   1.373  0.0152  0.0843  0.6540
  731MOL0     O96368   4.350   9.776   1.425 -0.0455 -0.1021 -0.1617
  731MOL0     C96369   4.342   9.740   1.560  0.9155  0.4082 -0.1450
  731MOL0     C96370   4.207   9.664   1.593 -1.1070  0.0164  0.4554
  731MOL0     C96371   4.085   9.760   1.592  0.1228  0.8658 -0.2897
  731MOL0     C96372   3.955   9.683   1.633 -0.3051 -0.2407 -0.4845
  731MOL0     C96373   3.837   9.777   1.651  0.3889  0.2619  0.2042
  731MOL0     C96374   3.705   9.711   1.622 -0.8988  0.6196  0.1095
  731MOL0     C96375   3.657   9.613   1.728  0.7577 -0.0744 -0.5080
  731MOL0     C96376   3.611   9.675   1.865  0.3479  0.1265  0.4216
  731MOL0     N96377   3.565   9.573   1.958 -0.0408 -0.0967 -0.2140
  731MOL0     C96378   3.431   9.548   1.971  0.8468  0.0780  1.1167
  731MOL0     C96379   3.432   9.442   2.052  0.5945 -0.8628  0.2164
  731MOL0     C96380   3.315   9.360   2.090  0.2523  0.3226 -0.3772
  731MOL0     C96381   3.252   9.304   1.970  0.2244  0.6044  0.7902
  731MOL0     C96382   3.140   9.400   1.917 -0.0396  0.0600  0.4821
  731MOL0     C96383   3.054   9.338   1.808  0.9860 -1.0184  0.2519
  731MOL0     O96384   2.922   9.351   1.863  0.5381  0.6311 -0.0809
  731MOL0     C96385   2.816   9.302   1.786  0.1508  0.1700  0.9546
  731MOL0     C96386   2.840   9.246   1.658  1.2861 -1.4401  0.3329
  731MOL0     C96387   2.726   9.231   1.570 -0.4053  0.3681 -0.7836
  731MOL0     C96388   2.597   9.257   1.620 -0.1681  0.8810 -0.4820
  731MOL0     C96389   2.473   9.253   1.536  0.3424  0.2719  0.7355
  731MOL0     O96390   2.478   9.183   1.414  0.5861 -0.4612  0.1485
  731MOL0     C96391   2.363   9.171   1.338 -0.2295 -0.2831 -0.6657
  731MOL0     C96392   2.247   9.117   1.388  0.6017  0.2952 -0.3645
  731MOL0     C96393   2.130   9.106   1.314 -0.9735  0.8103 -0.6549
  731MOL0     C96394   2.119   9.163   1.183  0.3027 -1.1145  0.2867
  731MOL0     O96395   2.003   9.171   1.099  0.2395  0.0297 -0.7817
  731MOL0     C96396   1.882   9.110   1.140 -0.1127  0.8911 -0.6326
  731MOL0     C96397   1.769   9.138   1.036 -0.1022 -0.3317 -0.3819
  731MOL0     C96398   1.651   9.057   1.074 -0.1122  0.4897  0.5185
  731MOL0     C96399   1.536   9.112   0.991 -0.8952 -0.3474 -0.1626
  731MOL0     C96400   1.393   9.072   1.040 -0.0641 -0.2046 -0.1703
  731MOL0     C96401   1.285   9.138   0.952  0.5701 -0.7667  0.6270
  731MOL0     C96402   1.153   9.064   0.961 -0.0949 -0.0864  0.8639
  731MOL0     C96403   1.060   9.118   0.850  0.2424 -0.1060 -0.6182
  731MOL0    Cl96404   0.891   9.103   0.887 -0.1828 -0.3497 -0.0320
  731MOL0     C96405   2.232   9.227   1.136 -0.8478 -0.7562 -0.4711
  731MOL0     C96406   2.355   9.231   1.210  0.3124 -0.1031 -0.5454
  731MOL0     O96407   2.370   9.303   1.580 -0.5062 -0.2610 -0.0988
  731MOL0     C96408   2.576   9.293   1.753 -0.3335  0.0493 -0.2476
  731MOL0     C96409   2.684   9.321   1.836 -0.2880  0.7071 -0.2829
  731MOL0     N96410   3.561   9.402   2.079 -0.5312 -0.0888 -0.5623
  731MOL0     N96411   3.641   9.494   2.037  0.2090 -0.2655  0.2960
  731MOL0     C96412   4.581   9.866   1.414  0.9480 -0.4946 -0.6271
  731MOL0     C96413   4.709   9.856   1.368  0.6434  0.6895  0.1403
  731MOL0     C96414   5.049   9.626   1.106  0.3341  0.1433  0.4860
  731MOL0     C96415   5.067   9.530   1.008  0.0454  0.5895  0.5629
  731MOL0     C96416   5.181   9.527   0.931  0.2292  0.0163 -0.5988
  731MOL0     C96417   5.282   9.623   0.946 -0.7549  0.1536 -0.3392
  731MOL0     O96418   5.404   9.594   0.883  0.4355  0.3660  0.4886
  731MOL0     C96419   5.471   9.704   0.823 -0.0763 -0.2328 -0.4321
  731MOL0     C96420   5.590   9.657   0.744 -0.4548 -0.3602  0.2033
  731MOL0     C96421   5.549   9.602   0.607  0.5220 -0.5446 -0.3435
  731MOL0     C96422   5.480   9.456   0.620 -0.3208  0.1948 -0.7678
  731MOL0     C96423   5.434   9.412   0.490 -0.3150 -0.3262  0.1647
  731MOL0     C96424   5.403   9.363   0.383 -0.0328  0.9678 -0.7081
  731MOL0     C96425   5.271   9.724   1.039 -0.7627 -0.1899  0.2169
  731MOL0     C96426   5.153   9.725   1.121  0.1032 -0.8062  0.2806
  731MOL0     H96427   4.653   9.591   1.159 -2.5535 -0.3358  0.0320
  731MOL0     H96428   4.423   9.629   1.230  0.2760  0.0539 -1.5153
  731MOL0     H96429   4.334   9.831   1.621 -3.7735  0.6055 -0.7060
  731MOL0     H96430   4.427   9.679   1.592  0.6150  1.1798  2.3311
  731MOL0     H96431   4.220   9.610   1.687 -0.8751  1.2641  1.1527
  731MOL0     H96432   4.193   9.586   1.517 -0.1283 -1.7939  2.0262
  731MOL0     H96433   4.080   9.813   1.496 -0.7371 -0.2606 -0.8964
  731MOL0     H96434   4.104   9.831   1.672  2.7028  0.0640 -0.1008
  731MOL0     H96435   3.939   9.628   1.540  3.1330 -3.5915  0.6387
  731MOL0     H96436   3.973   9.623   1.723 -1.3365 -0.9732 -0.7539
  731MOL0     H96437   3.845   9.869   1.593  0.1844 -0.6330 -1.3099
  731MOL0     H96438   3.834   9.814   1.754  2.4375  1.8254 -0.2326
  731MOL0     H96439   3.707   9.669   1.521 -0.9212  0.4945  0.1615
  731MOL0     H96440   3.626   9.787   1.618 -0.5016  1.0334 -0.1219
  731MOL0     H96441   3.573   9.558   1.685 -0.6136  1.4805  0.0587
  731MOL0     H96442   3.727   9.535   1.758 -0.3258 -0.7217  0.4497
  731MOL0     H96443   3.524   9.738   1.846 -0.6343 -1.3795 -0.2914
  731MOL0     H96444   3.685   9.746   1.902 -1.8919  1.5586  2.4119
  731MOL0     H96445   3.345   9.604   1.938 -1.4631 -4.6861 -1.9922
  731MOL0     H96446   3.241   9.407   2.156 -1.0271 -0.8905 -0.8814
  731MOL0     H96447   3.362   9.286   2.155 -0.7720  1.1002  1.3279
  731MOL0     H96448   3.199   9.214   2.004  0.0527  0.2449 -0.3890
  731MOL0     H96449   3.319   9.271   1.891 -0.9557  2.4258 -1.0802
  731MOL0     H96450   3.086   9.444   2.002 -0.5453 -1.3872  0.9408
  731MOL0     H96451   3.186   9.488   1.872 -2.5185  1.6602  0.8854
  731MOL0     H96452   3.078   9.233   1.787  0.5493 -1.1168  0.2511
  731MOL0     H96453   3.072   9.404   1.722  0.2422 -1.8411 -0.5568
  731MOL0     H96454   2.940   9.219   1.625  1.3385 -0.4946 -0.3253
  731MOL0     H96455   2.745   9.183   1.475 -1.4528  0.4291 -1.0380
  731MOL0     H96456   2.249   9.087   1.493 -0.1455 -0.2963 -0.5153
  731MOL0     H96457   2.044   9.070   1.371 -3.4828  2.1049 -3.3714
  731MOL0     H96458   1.842   9.142   1.237  2.6407  3.7932 -0.2828
  731MOL0     H96459   1.894   9.003   1.158 -1.2885  0.7138 -0.8545
  731MOL0     H96460   1.812   9.114   0.939 -0.9460  1.4035 -1.2313
  731MOL0     H96461   1.757   9.247   1.038  2.7199  0.0652 -0.7967
  731MOL0     H96462   1.630   9.069   1.181  1.1389  0.1863  0.8110
  731MOL0     H96463   1.656   8.950   1.051  0.2360 -0.4221  4.1470
  731MOL0     H96464   1.543   9.221   0.997  0.0429 -0.4519  0.9413
  731MOL0     H96465   1.546   9.083   0.886  3.0401 -2.5832  0.6364
  731MOL0     H96466   1.379   9.099   1.145 -2.6012  0.6405 -0.6493
  731MOL0     H96467   1.376   8.964   1.029  0.1542 -0.4341  1.4885
  731MOL0     H96468   1.319   9.141   0.848  0.4650  2.4721  0.5846
  731MOL0     H96469   1.273   9.243   0.980 -1.4123 -0.4323 -1.1901
  731MOL0     H96470   1.163   8.955   0.960 -2.4623 -0.3856  1.7657
  731MOL0     H96471   1.115   9.092   1.059  1.4003  3.1826  0.6440
  731MOL0     H96472   1.097   9.071   0.759 -1.2260 -2.4066 -0.0958
  731MOL0     H96473   1.067   9.227   0.846  2.1000 -0.0966  1.3217
  731MOL0     H96474   2.232   9.273   1.038  0.2726 -0.3178 -0.2693
  731MOL0     H96475   2.445   9.267   1.162  1.8501  1.1663  2.9190
  731MOL0     H96476   2.477   9.317   1.790  0.6116  0.5413  2.1545
  731MOL0     H96477   2.672   9.367   1.934 -0.0149  0.1306  0.0271
  731MOL0     H96478   4.550   9.945   1.481  0.7386  0.0275 -1.3254
  731MOL0     H96479   4.779   9.932   1.401  1.8112  0.1260 -0.9721
  731MOL0     H96480   4.991   9.454   0.993 -0.7160  1.5455 -0.6792
  731MOL0     H96481   5.189   9.443   0.863  0.8588 -0.0407 -0.4635
  731MOL0     H96482   5.520   9.754   0.907  2.1018 -0.6883 -1.3776
  731MOL0     H96483   5.409   9.778   0.771  1.5764  0.3884 -1.6171
  731MOL0     H96484   5.671   9.731   0.745 -0.6539 -0.1449  0.3479
  731MOL0     H96485   5.629   9.563   0.785 -2.4637 -1.2573  0.1438
  731MOL0     H96486   5.635   9.592   0.539  1.3499  0.6144  0.4818
  731MOL0     H96487   5.476   9.673   0.567  1.5848  0.1392 -1.1266
  731MOL0     H96488   5.544   9.380   0.665 -0.2368  0.3576 -0.6057
  731MOL0     H96489   5.396   9.443   0.689 -0.7748 -1.8826 -1.6529
  731MOL0     H96490   5.377   9.335   0.283  0.9989  1.0028 -1.0064
  731MOL0     H96491   5.356   9.790   1.055 -0.5561  0.0561 -1.6725
  731MOL0     H96492   5.142   9.786   1.209  0.8112 -0.9204  0.4507
  732MOL0     O96493   0.380   5.183   8.515 -0.0599 -0.2126 -0.3861
  732MOL0     C96494   0.393   5.286   8.447 -0.5910 -0.5820  0.2060
  732MOL0     O96495   0.505   5.351   8.431  0.1489  0.2078  0.1301
  732MOL0     C96496   0.617   5.288   8.475 -0.6513 -0.0035 -0.3223
  732MOL0     C96497   0.690   5.195   8.393 -0.5856 -0.5192  0.3176
  732MOL0     C96498   0.796   5.128   8.438  0.5499  0.7479 -0.9430
  732MOL0     C96499   0.842   5.145   8.571 -0.3447 -0.0872  0.5728
  732MOL0     O96500   0.952   5.069   8.599 -0.4383 -0.4373  0.6031
  732MOL0     C96501   1.026   5.103   8.719 -0.2240 -0.6939 -0.9061
  732MOL0     C96502   1.173   5.068   8.709 -0.8273  0.4583  0.0559
  732MOL0     C96503   1.211   4.946   8.629  0.4729 -0.8911 -0.4464
  732MOL0     C96504   1.151   4.814   8.676  0.2614 -0.5242 -0.4923
  732MOL0     C96505   1.226   4.703   8.598 -0.7387 -0.3412  0.2222
  732MOL0     C96506   1.164   4.562   8.585  0.3642  0.1756 -0.3211
  732MOL0     C96507   1.014   4.580   8.541  0.0006 -0.5907 -0.4357
  732MOL0     C96508   0.985   4.653   8.414 -0.9891  0.1701  0.8492
  732MOL0     N96509   0.840   4.678   8.406  0.5502 -0.6187 -0.0948
  732MOL0     C96510   0.772   4.771   8.481 -0.2352 -0.9426  0.6354
  732MOL0     C96511   0.641   4.742   8.453 -0.4488 -0.3918 -0.1155
  732MOL0     C96512   0.519   4.824   8.484  1.0254 -0.1277  0.3790
  732MOL0     C96513   0.387   4.745   8.465 -0.2127  0.2831 -0.4978
  732MOL0     C96514   0.268   4.839   8.478 -0.5415  0.3488 -0.6175
  732MOL0     C96515   0.156   4.769   8.554  0.5605 -0.5836  0.1143
  732MOL0     O96516   0.051   4.869   8.558 -0.1864  1.0660  0.2639
  732MOL0     C96517  -0.061   4.842   8.628 -1.0184 -0.6411 -0.4891
  732MOL0     C96518  -0.145   4.951   8.649 -0.4273 -0.9458  0.1933
  732MOL0     C96519  -0.260   4.935   8.725 -0.8242  0.1210 -0.9160
  732MOL0     C96520  -0.289   4.807   8.793 -0.1144 -1.2732  0.0070
  732MOL0     C96521  -0.417   4.791   8.866  0.2180  0.4091 -0.0319
  732MOL0     O96522  -0.490   4.911   8.868  0.2539  0.4584  0.0790
  732MOL0     C96523  -0.618   4.909   8.922 -0.3132  0.1381  0.3396
  732MOL0     C96524  -0.721   4.886   8.836 -0.8335  0.0407 -0.3418
  732MOL0     C96525  -0.854   4.910   8.876 -0.1218  0.4519 -0.4186
  732MOL0     C96526  -0.881   4.957   9.011  0.6447  0.0535 -0.4707
  732MOL0     O96527  -1.004   4.992   9.061 -0.7780  0.5221 -0.1493
  732MOL0     C96528  -1.104   5.024   8.969  0.0587  1.0206 -1.1688
  732MOL0     C96529  -1.227   5.062   9.050  0.4235 -0.0154 -0.8006
  732MOL0     C96530  -1.283   4.945   9.133 -0.5013  0.5589 -0.6564
  732MOL0     C96531  -1.410   4.972   9.207 -0.8584 -0.0071 -0.0676
  732MOL0     C96532  -1.455   4.839   9.275 -0.0698  0.5089 -0.2140
  732MOL0     C96533  -1.571   4.859   9.374 -0.4620  0.0408  0.5833
  732MOL0     C96534  -1.591   4.745   9.478  0.2114 -0.9716  0.4153
  732MOL0     C96535  -1.641   4.812   9.608 -0.6749  0.7308  0.1256
  732MOL0    Cl96536  -1.664   4.668   9.720 -0.1467  0.2663 -0.0320
  732MOL0     C96537  -0.780   4.974   9.093 -0.3295 -0.2686  0.1874
  732MOL0     C96538  -0.648   4.948   9.054 -0.5321 -1.1175 -0.0546
  732MOL0     O96539  -0.445   4.692   8.924 -0.5926 -0.1418 -0.3755
  732MOL0     C96540  -0.204   4.699   8.766 -0.5022 -0.7670 -0.7776
  732MOL0     C96541  -0.093   4.720   8.686  0.8948 -0.1045 -0.4311
  732MOL0     N96542   0.633   4.635   8.373  0.3286 -0.1135  1.1101
  732MOL0     N96543   0.750   4.594   8.344 -0.1304 -0.0465  0.3874
  732MOL0     C96544   0.776   5.243   8.648 -0.3046  0.4031  0.6492
  732MOL0     C96545   0.666   5.318   8.599  0.3361 -0.1977 -0.6243
  732MOL0     C96546   0.264   5.334   8.379 -0.8980  0.0988 -0.2123
  732MOL0     C96547   0.266   5.461   8.305 -0.1307  1.0876 -0.3245
  732MOL0     C96548   0.143   5.506   8.252  0.0949  0.2849 -0.6043
  732MOL0     C96549   0.022   5.460   8.283  0.2938 -0.0473 -0.2871
  732MOL0     O96550  -0.085   5.528   8.232  0.5527 -0.1622 -0.0640
  732MOL0     C96551  -0.216   5.509   8.300 -0.9406 -0.0814  0.2893
  732MOL0     C96552  -0.304   5.634   8.310 -0.8751  1.2852  0.0825
  732MOL0     C96553  -0.261   5.722   8.427 -0.2121 -0.4768  0.9872
  732MOL0     C96554  -0.353   5.853   8.443  0.1340 -0.2464 -0.0481
  732MOL0     C96555  -0.346   5.954   8.338  0.8273 -0.2046  0.6097
  732MOL0     C96556  -0.326   6.008   8.236 -0.4847 -0.2007  0.5587
  732MOL0     C96557   0.025   5.333   8.347 -0.3595  0.2929  0.5376
  732MOL0     C96558   0.143   5.271   8.394  0.2789 -0.2233 -0.1021
  732MOL0     H96559   0.651   5.183   8.292  0.4975 -2.4400  0.0861
  732MOL0     H96560   0.852   5.059   8.376  2.0984  0.2564  0.9135
  732MOL0     H96561   0.988   5.048   8.805 -1.4826  0.3532 -0.7695
  732MOL0     H96562   1.026   5.208   8.747  0.1541 -0.9566  0.1533
  732MOL0     H96563   1.233   5.067   8.800  1.7157  0.3230 -1.5371
  732MOL0     H96564   1.218   5.156   8.662 -1.0032  0.8615  0.6278
  732MOL0     H96565   1.319   4.932   8.637  0.3385 -2.6405 -1.2523
  732MOL0     H96566   1.171   4.964   8.529  0.5371  4.6516  0.2091
  732MOL0     H96567   1.175   4.807   8.783 -1.4308  1.1949  0.0684
  732MOL0     H96568   1.043   4.809   8.663  0.2271 -3.1088  0.2916
  732MOL0     H96569   1.332   4.692   8.623 -0.7110 -2.7327 -0.7241
  732MOL0     H96570   1.226   4.739   8.495  3.6636 -1.4138 -0.3299
  732MOL0     H96571   1.170   4.508   8.680 -0.7460 -0.2551 -0.4789
  732MOL0     H96572   1.226   4.509   8.512  0.4554  2.6311 -2.1405
  732MOL0     H96573   0.963   4.484   8.536 -3.9409  1.1279  2.1108
  732MOL0     H96574   0.961   4.627   8.624  0.1406  0.3901 -0.8848
  732MOL0     H96575   1.022   4.593   8.329  3.3054  1.9501  1.2060
  732MOL0     H96576   1.037   4.749   8.413 -3.0425  1.4564 -2.5668
  732MOL0     H96577   0.802   4.861   8.532  1.7032  0.6956 -2.9580
  732MOL0     H96578   0.522   4.896   8.402  0.2641 -0.3551  0.1480
  732MOL0     H96579   0.522   4.875   8.581  0.1790  0.3641  0.1532
  732MOL0     H96580   0.380   4.676   8.550 -1.1120  2.4921  1.3374
  732MOL0     H96581   0.390   4.698   8.366  0.2078  0.8064 -0.7368
  732MOL0     H96582   0.290   4.938   8.520 -1.5356  1.6061 -2.8358
  732MOL0     H96583   0.240   4.861   8.374  1.6489 -0.0474 -1.3423
  732MOL0     H96584   0.191   4.734   8.652 -1.6608  0.0246  1.1755
  732MOL0     H96585   0.128   4.687   8.487 -1.4932 -1.7967  2.3044
  732MOL0     H96586  -0.122   5.037   8.587 -4.1931 -2.3486 -3.6494
  732MOL0     H96587  -0.320   5.025   8.736 -2.2755 -1.0820  2.7253
  732MOL0     H96588  -0.704   4.874   8.729  1.8580  1.6737 -0.1828
  732MOL0     H96589  -0.932   4.905   8.801 -0.1689 -1.7116 -0.2820
  732MOL0     H96590  -1.123   4.940   8.901  0.5887  0.3827 -0.5439
  732MOL0     H96591  -1.070   5.112   8.915  0.2814  2.4915  1.2400
  732MOL0     H96592  -1.312   5.090   8.987 -0.3460 -1.9958 -0.7116
  732MOL0     H96593  -1.219   5.145   9.120 -2.4217 -0.3544  0.0563
  732MOL0     H96594  -1.208   4.903   9.200  1.3635 -0.1681 -3.0645
  732MOL0     H96595  -1.298   4.867   9.058  0.7410  1.1214 -1.5300
  732MOL0     H96596  -1.406   5.059   9.274 -2.2504  0.8498 -1.0424
  732MOL0     H96597  -1.490   4.989   9.135  2.4342  1.1826 -3.8389
  732MOL0     H96598  -1.371   4.805   9.337  0.1099  1.1577 -0.0922
  732MOL0     H96599  -1.486   4.768   9.198 -2.6941  1.4819 -0.1405
  732MOL0     H96600  -1.660   4.886   9.317  1.0562 -0.6930 -2.3174
  732MOL0     H96601  -1.539   4.946   9.433  2.3748 -0.2622 -0.3454
  732MOL0     H96602  -1.656   4.661   9.452 -1.4886 -0.9621  4.0894
  732MOL0     H96603  -1.496   4.699   9.508  1.9136  1.4094 -0.9850
  732MOL0     H96604  -1.724   4.883   9.597  0.4982  2.0405 -0.7417
  732MOL0     H96605  -1.561   4.875   9.649 -0.1052 -0.8949  1.5990
  732MOL0     H96606  -0.796   5.007   9.196  1.2440 -0.6376  0.5809
  732MOL0     H96607  -0.562   4.967   9.118  1.2579 -0.5035 -2.5010
  732MOL0     H96608  -0.217   4.604   8.816  0.3490 -1.0119 -1.0005
  732MOL0     H96609  -0.039   4.628   8.665  0.1939  0.0704 -3.3893
  732MOL0     H96610   0.818   5.255   8.747 -0.2272  0.0535  0.6585
  732MOL0     H96611   0.621   5.396   8.659  1.5204  2.2293 -2.7292
  732MOL0     H96612   0.360   5.512   8.283 -0.2084  1.2273 -0.3358
  732MOL0     H96613   0.147   5.596   8.191 -0.6594  0.7399  0.0002
  732MOL0     H96614  -0.207   5.465   8.399 -1.9358 -0.2492  0.3163
  732MOL0     H96615  -0.277   5.440   8.240 -3.0861  1.5688  0.4506
  732MOL0     H96616  -0.303   5.690   8.216 -2.2571 -0.6123 -1.1254
  732MOL0     H96617  -0.406   5.601   8.332 -1.4179  0.0440 -3.5205
  732MOL0     H96618  -0.158   5.758   8.436 -1.5571  3.4666  3.7257
  732MOL0     H96619  -0.270   5.658   8.515 -1.0438  0.9998  2.0415
  732MOL0     H96620  -0.455   5.817   8.460  0.3437 -0.6832  0.3230
  732MOL0     H96621  -0.322   5.902   8.536  1.2441 -0.9833 -0.0096
  732MOL0     H96622  -0.309   6.067   8.147 -0.3972  1.5185  1.6713
  732MOL0     H96623  -0.070   5.282   8.361 -0.8603  0.5854 -1.4419
  732MOL0     H96624   0.141   5.182   8.455  1.7139  1.1702  2.1174
  733MOL0     O96625   3.267  11.118   3.236  0.7425  0.1123 -0.1857
  733MOL0     C96626   3.318  11.028   3.161 -1.3923 -0.9090 -0.7533
  733MOL0     O96627   3.254  10.920   3.112 -0.2377 -0.3139  0.5611
  733MOL0     C96628   3.128  10.897   3.151 -0.6293  0.0514 -0.0043
  733MOL0     C96629   3.024  10.973   3.096 -0.3176 -0.5007  0.9425
  733MOL0     C96630   2.889  10.949   3.127 -0.2936 -0.3254 -0.3091
  733MOL0     C96631   2.859  10.868   3.236  0.3491  0.5242  0.4243
  733MOL0     O96632   2.731  10.872   3.285  0.5628  0.5087 -0.2307
  733MOL0     C96633   2.665  10.755   3.322 -0.6079 -0.1847 -0.0406
  733MOL0     C96634   2.519  10.794   3.362  0.9367 -0.0734 -0.1440
  733MOL0     C96635   2.432  10.670   3.384  0.4179 -0.0076 -0.4399
  733MOL0     C96636   2.282  10.712   3.364  0.0177 -0.0950  0.0814
  733MOL0     C96637   2.200  10.581   3.364 -0.1170 -0.1020 -0.0517
  733MOL0     C96638   2.048  10.611   3.339  0.5530  0.0104 -0.1250
  733MOL0     C96639   1.959  10.501   3.378 -0.4103  1.1976  0.4049
  733MOL0     C96640   1.813  10.555   3.374  0.2943 -0.3677  0.1173
  733MOL0     N96641   1.702  10.462   3.404  0.3640 -0.1429 -1.0537
  733MOL0     C96642   1.597  10.421   3.317  1.0094 -0.4234  0.2493
  733MOL0     C96643   1.543  10.319   3.379 -0.4913  0.2696 -0.0042
  733MOL0     C96644   1.417  10.256   3.334  0.0159  0.6896 -0.4918
  733MOL0     C96645   1.292  10.298   3.414  0.6821  0.3640  0.4162
  733MOL0     C96646   1.150  10.247   3.349  0.9778 -0.0600 -0.3993
  733MOL0     C96647   1.033  10.330   3.412  0.6502 -0.3400  0.3597
  733MOL0     O96648   0.919  10.251   3.384  0.9722  0.0663  0.4832
  733MOL0     C96649   0.795  10.296   3.414 -0.1384  0.1870 -0.3094
  733MOL0     C96650   0.683  10.206   3.408  0.3599  0.7735  0.6810
  733MOL0     C96651   0.558  10.248   3.454 -0.1074 -0.7249  0.4073
  733MOL0     C96652   0.538  10.372   3.507 -0.0275  0.2730 -0.6255
  733MOL0     C96653   0.404  10.419   3.537  0.8385 -0.2697  0.6899
  733MOL0     O96654   0.384  10.531   3.615  0.1291  0.3817  0.0988
  733MOL0     C96655   0.260  10.556   3.661  0.6187 -0.1406  0.5630
  733MOL0     C96656   0.144  10.583   3.582  0.6554 -0.4766  0.1630
  733MOL0     C96657   0.026  10.624   3.655 -0.1143 -0.3545  0.0769
  733MOL0     C96658   0.015  10.617   3.796  1.0764  0.6508 -0.0219
  733MOL0     O96659  -0.103  10.664   3.867 -0.4922 -0.2579  0.1023
  733MOL0     C96660  -0.223  10.701   3.797 -0.7173 -0.5442  0.2592
  733MOL0     C96661  -0.327  10.762   3.885 -0.2421  0.3689 -2.0358
  733MOL0     C96662  -0.466  10.776   3.811 -0.0757  0.7618 -0.7550
  733MOL0     C96663  -0.585  10.839   3.886 -0.4900 -0.5410  0.5646
  733MOL0     C96664  -0.643  10.732   3.989 -0.3128  0.2163 -0.0377
  733MOL0     C96665  -0.776  10.781   4.044 -0.0494 -1.2997  0.2962
  733MOL0     C96666  -0.815  10.733   4.187  0.7408 -0.2967 -0.5515
  733MOL0     C96667  -0.876  10.591   4.185  0.2910  0.3083  0.1189
  733MOL0    Cl96668  -1.049  10.590   4.123 -0.3373 -0.0727  0.5497
  733MOL0     C96669   0.134  10.584   3.871 -0.7392  0.1675  0.1369
  733MOL0     C96670   0.251  10.559   3.800 -0.9795 -0.2174  0.7732
  733MOL0     O96671   0.314  10.353   3.489 -0.3696 -0.3823 -0.7475
  733MOL0     C96672   0.641  10.467   3.502 -0.4702  0.0749  0.6357
  733MOL0     C96673   0.765  10.434   3.442  0.9615 -0.1717  0.5186
  733MOL0     N96674   1.620  10.280   3.493 -0.0830 -0.1009  0.2889
  733MOL0     N96675   1.717  10.363   3.499  0.3699  0.6038  0.7477
  733MOL0     C96676   2.960  10.793   3.293 -0.4990 -0.0752  0.1745
  733MOL0     C96677   3.092  10.796   3.242 -0.3768  0.5243  0.0528
  733MOL0     C96678   3.450  11.046   3.110 -0.6357  0.6807  0.5883
  733MOL0     C96679   3.529  10.940   3.063  0.1985 -0.3065  1.3710
  733MOL0     C96680   3.646  10.972   2.997  0.2205 -0.3153  0.0444
  733MOL0     C96681   3.686  11.108   2.972 -0.2329  0.3408  0.0324
  733MOL0     O96682   3.792  11.149   2.896  0.6633  0.0081 -0.0789
  733MOL0     C96683   3.862  11.044   2.840 -0.4466  0.0211  0.3017
  733MOL0     C96684   3.990  11.106   2.782 -0.2408 -0.2545 -0.0197
  733MOL0     C96685   4.089  11.172   2.882  0.6237 -0.5369  0.5432
  733MOL0     C96686   4.211  11.231   2.815 -0.9806 -0.2967 -0.2626
  733MOL0     C96687   4.291  11.285   2.926 -0.6437  0.0165  0.0487
  733MOL0     C96688   4.367  11.332   3.011 -0.2597 -0.5285 -0.3922
  733MOL0     C96689   3.623  11.208   3.049  0.4318  0.2264  0.1137
  733MOL0     C96690   3.510  11.167   3.114 -0.1508  0.1212  0.6706
  733MOL0     H96691   3.036  11.042   3.013 -1.3116 -1.9618 -0.4908
  733MOL0     H96692   2.826  11.009   3.063  4.2980  1.8618 -3.3812
  733MOL0     H96693   2.717  10.713   3.409  0.8331  1.3138 -0.1397
  733MOL0     H96694   2.658  10.679   3.244  1.2826 -3.0858  2.3614
  733MOL0     H96695   2.476  10.853   3.281 -2.8355 -1.8091  0.3934
  733MOL0     H96696   2.511  10.852   3.455 -1.9370  0.6828 -0.7876
  733MOL0     H96697   2.452  10.626   3.482  0.1385 -0.1915 -0.4649
  733MOL0     H96698   2.454  10.589   3.314  2.3449  0.7971 -0.8124
  733MOL0     H96699   2.245  10.765   3.453 -2.2091 -1.9421  0.3378
  733MOL0     H96700   2.272  10.771   3.273  0.1823 -3.1886 -2.0942
  733MOL0     H96701   2.218  10.519   3.452  5.3178  1.0563  0.0087
  733MOL0     H96702   2.240  10.520   3.283 -1.4031 -2.0060  0.6982
  733MOL0     H96703   2.039  10.629   3.231  0.2397  3.0771  0.3302
  733MOL0     H96704   2.018  10.706   3.383 -2.0105 -0.2794 -1.0984
  733MOL0     H96705   1.967  10.419   3.307 -0.3632 -0.4616  2.2422
  733MOL0     H96706   1.995  10.462   3.474  0.2117  0.7248 -0.0156
  733MOL0     H96707   1.801  10.587   3.270  2.5869  1.9724  0.4706
  733MOL0     H96708   1.805  10.645   3.437  2.3550  1.5212 -2.1131
  733MOL0     H96709   1.556  10.453   3.222  1.0021  0.4900  0.5480
  733MOL0     H96710   1.416  10.147   3.342  0.8130  0.8215  3.6454
  733MOL0     H96711   1.407  10.277   3.227 -1.8506 -0.0435 -0.4825
  733MOL0     H96712   1.295  10.407   3.413 -0.8250  0.4122 -0.4706
  733MOL0     H96713   1.300  10.272   3.520 -0.5525 -0.7493  0.2576
  733MOL0     H96714   1.159  10.269   3.242  2.2035 -0.7361 -0.4549
  733MOL0     H96715   1.120  10.145   3.373 -1.1606  0.6671  0.2287
  733MOL0     H96716   1.033  10.426   3.359  0.4780 -0.1563  0.6904
  733MOL0     H96717   1.040  10.343   3.520 -0.4738  1.5622  0.2490
  733MOL0     H96718   0.699  10.110   3.360 -0.4648  1.2447 -0.5947
  733MOL0     H96719   0.475  10.179   3.457 -0.0836 -0.7698  0.0396
  733MOL0     H96720   0.149  10.580   3.474  2.6639 -0.4867  0.2163
  733MOL0     H96721  -0.059  10.647   3.591 -1.9857 -1.2141  2.1360
  733MOL0     H96722  -0.264  10.615   3.743  1.3171 -0.9397 -0.7763
  733MOL0     H96723  -0.201  10.781   3.726  2.2059 -1.7395 -0.3589
  733MOL0     H96724  -0.299  10.860   3.925 -2.7492  0.0654  0.7756
  733MOL0     H96725  -0.348  10.696   3.970 -1.3450 -1.3308 -3.5644
  733MOL0     H96726  -0.497  10.674   3.788  0.3722  0.2238  0.8658
  733MOL0     H96727  -0.449  10.827   3.716 -0.5668  0.2013 -1.1521
  733MOL0     H96728  -0.542  10.918   3.948 -3.2110  0.2795  1.5590
  733MOL0     H96729  -0.660  10.878   3.817  2.1585 -2.5473 -3.8476
  733MOL0     H96730  -0.576  10.712   4.073 -1.9285  1.3826  1.5944
  733MOL0     H96731  -0.660  10.635   3.942 -2.1138  1.1137 -1.3625
  733MOL0     H96732  -0.859  10.752   3.978 -0.3676 -1.3450  0.7157
  733MOL0     H96733  -0.771  10.890   4.046 -0.4922 -1.2774  0.3263
  733MOL0     H96734  -0.723  10.724   4.246  2.0864 -0.4018 -2.5332
  733MOL0     H96735  -0.884  10.797   4.241  1.5093  0.4657 -0.4539
  733MOL0     H96736  -0.884  10.559   4.290 -3.0446  1.8540  0.4479
  733MOL0     H96737  -0.808  10.530   4.125  0.8658  0.5772  0.4869
  733MOL0     H96738   0.120  10.593   3.978 -0.3279 -0.5692  0.2623
  733MOL0     H96739   0.342  10.528   3.851  1.0005  0.2134 -2.2569
  733MOL0     H96740   0.618  10.571   3.525  1.4710 -0.0048  3.4787
  733MOL0     H96741   0.826  10.524   3.437 -0.8985  1.5614  4.4108
  733MOL0     H96742   2.948  10.725   3.377  1.2198 -1.1824 -0.4038
  733MOL0     H96743   3.169  10.726   3.274 -0.3390  0.5864  0.0988
  733MOL0     H96744   3.487  10.840   3.070  0.9898 -1.0377 -2.4129
  733MOL0     H96745   3.702  10.892   2.950 -0.1837 -0.5503 -0.0387
  733MOL0     H96746   3.812  10.996   2.755  1.9892 -0.4972 -0.9242
  733MOL0     H96747   3.899  10.971   2.913 -0.9395  0.2620  0.8009
  733MOL0     H96748   4.048  11.028   2.732  0.9038  0.0873  0.7262
  733MOL0     H96749   3.953  11.165   2.698 -0.4206 -2.3843 -1.5199
  733MOL0     H96750   4.128  11.097   2.952 -0.9731  0.1330  2.2064
  733MOL0     H96751   4.037  11.246   2.943 -0.1114 -0.4209 -0.2135
  733MOL0     H96752   4.272  11.152   2.769  0.9530  0.2291  1.2556
  733MOL0     H96753   4.180  11.308   2.744  1.0161  0.5931 -0.2230
  733MOL0     H96754   4.420  11.386   3.087  0.5776  0.0267 -1.3449
  733MOL0     H96755   3.648  11.313   3.051  0.8864  0.1084  1.4405
  733MOL0     H96756   3.447  11.249   3.148  1.5894  1.5144  0.6979
  734MOL0     O96757   8.931   7.320   5.527  0.3706  0.1145 -0.3578
  734MOL0     C96758   9.006   7.333   5.623 -0.0596  0.1621 -0.9350
  734MOL0     O96759   8.968   7.351   5.754  0.3061 -0.1962 -0.0557
  734MOL0     C96760   8.825   7.349   5.781 -0.0380 -0.0559  0.0488
  734MOL0     C96761   8.765   7.460   5.834  0.1441 -0.2540 -0.3473
  734MOL0     C96762   8.634   7.462   5.872  0.5417 -0.4992  0.0486
  734MOL0     C96763   8.552   7.355   5.851  0.0119 -0.0588 -0.7783
  734MOL0     O96764   8.423   7.371   5.880  0.1239  0.4239  0.5898
  734MOL0     C96765   8.342   7.262   5.914 -0.9983  0.2524  0.5826
  734MOL0     C96766   8.201   7.309   5.921  0.6086  0.1025 -0.5247
  734MOL0     C96767   8.095   7.192   5.946  0.6800 -0.9820  0.3406
  734MOL0     C96768   7.959   7.248   5.983  0.9931  0.6811  0.2592
  734MOL0     C96769   7.853   7.145   6.014  0.4485  0.1768  0.1301
  734MOL0     C96770   7.747   7.197   6.110 -0.3052 -0.1574 -0.3899
  734MOL0     C96771   7.622   7.109   6.111 -0.2224 -0.7190 -0.4184
  734MOL0     C96772   7.540   7.140   5.980 -0.5338  1.0238  0.4312
  734MOL0     N96773   7.410   7.074   5.993 -0.1980  0.2097  0.2294
  734MOL0     C96774   7.371   6.944   5.978  0.7762 -0.6482  0.1362
  734MOL0     C96775   7.240   6.939   6.013 -0.5859  0.7205  0.0193
  734MOL0     C96776   7.167   6.809   6.037  0.7077 -0.2581 -0.0625
  734MOL0     C96777   7.055   6.778   5.943  0.0314 -0.1560 -0.4798
  734MOL0     C96778   7.011   6.633   5.960 -0.1059  0.8454 -1.3994
  734MOL0     C96779   6.874   6.614   5.899 -0.2844 -0.0460 -0.4812
  734MOL0     O96780   6.891   6.613   5.757  0.1632  0.0613 -0.5282
  734MOL0     C96781   6.774   6.626   5.683  0.3856  0.0023  0.7700
  734MOL0     C96782   6.644   6.681   5.721  0.8890 -0.3177 -0.5236
  734MOL0     C96783   6.534   6.703   5.629  0.3642 -0.2757  0.2938
  734MOL0     C96784   6.562   6.660   5.498  0.0518 -0.5750 -0.2449
  734MOL0     C96785   6.461   6.688   5.392  0.6186 -0.7745 -0.8942
  734MOL0     O96786   6.496   6.661   5.262 -0.2012 -0.2920  0.9082
  734MOL0     C96787   6.406   6.689   5.165 -0.3439 -0.0611  0.1244
  734MOL0     C96788   6.322   6.588   5.117  0.4363  0.6105  0.2091
  734MOL0     C96789   6.231   6.622   5.010 -0.3598  0.5443  0.3980
  734MOL0     C96790   6.227   6.756   4.962 -0.4979 -1.1374 -0.5123
  734MOL0     O96791   6.144   6.792   4.864  0.4529  0.9727  0.2389
  734MOL0     C96792   6.007   6.749   4.869  0.9204 -0.5969  0.0273
  734MOL0     C96793   5.939   6.813   4.736 -0.5853  0.6716 -0.3494
  734MOL0     C96794   5.803   6.749   4.719  0.1657 -0.4788 -0.2786
  734MOL0     C96795   5.714   6.780   4.829 -0.0284 -0.2424 -0.0879
  734MOL0     C96796   5.566   6.737   4.813  0.2352  0.1243  0.1926
  734MOL0     C96797   5.499   6.764   4.957 -0.1544  0.8525 -0.1470
  734MOL0     C96798   5.345   6.781   4.952 -0.2074 -0.5436 -0.9418
  734MOL0     C96799   5.297   6.812   5.096 -0.2063 -0.5702 -0.3593
  734MOL0    Cl96800   5.136   6.887   5.099 -0.2803  0.1930  0.3715
  734MOL0     C96801   6.324   6.841   5.005 -0.1072 -0.4683 -0.1454
  734MOL0     C96802   6.412   6.811   5.101  0.8594 -0.6106 -0.3437
  734MOL0     O96803   6.344   6.706   5.435 -0.3927 -0.2360 -0.4481
  734MOL0     C96804   6.690   6.602   5.456 -0.1287 -0.5094  0.0164
  734MOL0     C96805   6.788   6.589   5.549  0.3381 -0.3911  0.2436
  734MOL0     N96806   7.204   7.060   6.051  0.2157 -0.3440 -0.1149
  734MOL0     N96807   7.304   7.142   6.034  0.5294 -0.5812 -0.8045
  734MOL0     C96808   8.608   7.242   5.792 -0.4087  0.0019 -0.4350
  734MOL0     C96809   8.750   7.232   5.766 -0.3393 -1.4650  0.5011
  734MOL0     C96810   9.148   7.326   5.602 -0.0037 -0.7989 -0.3903
  734MOL0     C96811   9.243   7.363   5.704 -0.0065  0.2635  1.0889
  734MOL0     C96812   9.381   7.377   5.667  0.0951  0.0521 -0.0203
  734MOL0     C96813   9.427   7.354   5.537 -0.1010  0.2609 -0.3254
  734MOL0     O96814   9.563   7.356   5.513  0.4123 -0.2615 -0.6363
  734MOL0     C96815   9.621   7.302   5.390  0.6991  1.3242  0.2073
  734MOL0     C96816   9.769   7.329   5.389 -0.0136 -0.0317  0.4180
  734MOL0     C96817   9.846   7.230   5.470 -0.2587 -0.0444  0.1734
  734MOL0     C96818   9.993   7.264   5.476 -0.6280  0.1461 -0.2714
  734MOL0     C96819  10.045   7.184   5.586 -0.7287 -0.0286  0.3894
  734MOL0     C96820  10.090   7.106   5.668  0.9540 -0.8207 -0.2799
  734MOL0     C96821   9.334   7.320   5.440  0.7270  0.9996 -0.3744
  734MOL0     C96822   9.193   7.308   5.476 -0.3069  0.6582  1.0371
  734MOL0     H96823   8.804   7.560   5.848 -2.1122  0.7995 -1.1142
  734MOL0     H96824   8.600   7.544   5.936  1.2650 -0.5870  0.5549
  734MOL0     H96825   8.375   7.231   6.013  2.9243  2.1005  0.0628
  734MOL0     H96826   8.338   7.170   5.855 -0.8118 -1.0779  2.5386
  734MOL0     H96827   8.172   7.368   5.834  1.2770 -2.1592 -2.4043
  734MOL0     H96828   8.191   7.377   6.006  0.6658 -0.8795  0.2953
  734MOL0     H96829   8.132   7.126   6.026  3.6321  1.0131  0.7996
  734MOL0     H96830   8.083   7.127   5.859 -1.1118  0.4329 -0.5212
  734MOL0     H96831   7.976   7.314   6.068 -1.3023  1.9699 -0.2047
  734MOL0     H96832   7.917   7.310   5.903  1.2189  0.5026  0.0019
  734MOL0     H96833   7.897   7.060   6.066 -1.0387 -0.3513  0.5708
  734MOL0     H96834   7.807   7.111   5.920  0.3924  0.5751  0.0095
  734MOL0     H96835   7.719   7.299   6.083 -0.9014 -0.8325 -2.5240
  734MOL0     H96836   7.793   7.192   6.209 -0.7325 -2.9057 -0.2532
  734MOL0     H96837   7.642   7.002   6.120  1.0672 -0.6009 -1.5162
  734MOL0     H96838   7.576   7.124   6.209  1.2312  1.8169 -0.0531
  734MOL0     H96839   7.591   7.096   5.894 -1.4635 -2.6900  1.5946
  734MOL0     H96840   7.520   7.247   5.971 -2.7546  0.7304  1.3152
  734MOL0     H96841   7.431   6.854   5.968 -0.9932 -1.9025  0.4178
  734MOL0     H96842   7.109   6.815   6.130 -0.5414 -2.1099 -0.6795
  734MOL0     H96843   7.240   6.731   6.062  1.0728  0.2396  0.4677
  734MOL0     H96844   7.081   6.800   5.839 -2.4020 -2.3631 -1.6830
  734MOL0     H96845   6.972   6.840   5.979 -0.5139 -1.8319  1.3623
  734MOL0     H96846   7.089   6.567   5.920 -0.2823 -1.2794  1.4169
  734MOL0     H96847   6.995   6.605   6.064 -0.3466  0.3666 -1.5617
  734MOL0     H96848   6.817   6.698   5.940  2.3793  0.9271  1.5240
  734MOL0     H96849   6.822   6.527   5.942  0.2685  1.1559  2.9888
  734MOL0     H96850   6.635   6.713   5.824  0.8693  1.4626 -1.0475
  734MOL0     H96851   6.435   6.725   5.667 -0.8826 -4.1405 -0.3337
  734MOL0     H96852   6.341   6.489   5.157 -1.6565  0.1182  0.0978
  734MOL0     H96853   6.160   6.549   4.973  0.7820 -2.2998  3.3501
  734MOL0     H96854   5.965   6.788   4.962 -1.6456  0.9820 -1.6552
  734MOL0     H96855   5.997   6.640   4.876  1.3702 -0.6321  0.1206
  734MOL0     H96856   5.994   6.786   4.646  4.1462 -0.3153  2.5060
  734MOL0     H96857   5.934   6.922   4.739 -0.4227  0.7217 -1.4704
  734MOL0     H96858   5.810   6.640   4.704 -1.9033 -0.5801 -0.8170
  734MOL0     H96859   5.758   6.786   4.627 -2.0567  1.1730  1.3705
  734MOL0     H96860   5.754   6.724   4.914 -3.7752 -0.2227  1.8793
  734MOL0     H96861   5.718   6.887   4.851 -0.6243  0.4075 -2.8238
  734MOL0     H96862   5.559   6.636   4.773  2.0790 -0.0144  0.1179
  734MOL0     H96863   5.525   6.798   4.732  4.3931  1.2165 -1.3354
  734MOL0     H96864   5.539   6.853   5.005 -0.7997  0.2505  1.5928
  734MOL0     H96865   5.526   6.676   5.017  0.8013 -0.6625 -2.6333
  734MOL0     H96866   5.312   6.861   4.886  1.3839  2.9259  2.0799
  734MOL0     H96867   5.301   6.686   4.922  1.0697 -1.0102 -1.3933
  734MOL0     H96868   5.377   6.866   5.147 -2.1392  1.1866  0.9390
  734MOL0     H96869   5.286   6.720   5.155 -0.5446 -0.6490 -0.5421
  734MOL0     H96870   6.332   6.934   4.949  0.8951 -0.5670 -0.2011
  734MOL0     H96871   6.459   6.899   5.146  2.4745 -1.6290  0.0429
  734MOL0     H96872   6.715   6.572   5.355  6.7885  0.3136  0.9794
  734MOL0     H96873   6.883   6.544   5.522  0.2535  0.7624 -2.1593
  734MOL0     H96874   8.537   7.166   5.760 -1.4656  1.2700 -1.1894
  734MOL0     H96875   8.789   7.145   5.713 -1.3697 -0.6300 -1.7430
  734MOL0     H96876   9.209   7.391   5.803  0.4891  3.5706  0.4276
  734MOL0     H96877   9.450   7.395   5.749 -2.1535 -0.6633  2.1203
  734MOL0     H96878   9.580   7.352   5.301 -0.8566 -0.5153 -0.1651
  734MOL0     H96879   9.604   7.195   5.379  2.2872  1.0819 -0.0929
  734MOL0     H96880   9.794   7.319   5.283  0.1474  1.5024  0.2887
  734MOL0     H96881   9.785   7.433   5.418 -1.7940  0.6289 -0.7981
  734MOL0     H96882   9.835   7.128   5.433  1.2634  0.0505 -0.6133
  734MOL0     H96883   9.813   7.239   5.574  0.2452  0.4228  0.3012
  734MOL0     H96884  10.050   7.239   5.386  2.1678 -4.6019  2.4467
  734MOL0     H96885  10.008   7.364   5.519  0.8679 -1.7394  4.0989
  734MOL0     H96886  10.118   7.046   5.753 -0.6944 -0.5388  0.4950
  734MOL0     H96887   9.369   7.280   5.345 -3.1182 -3.3743 -0.2934
  734MOL0     H96888   9.131   7.281   5.391 -0.5749  2.9014  0.4678
  735MOL0     O96889   3.958   1.106  10.738 -0.6876  0.3756 -0.0143
  735MOL0     C96890   4.032   1.055  10.653  0.9214 -0.3404  0.5614
  735MOL0     O96891   3.992   0.976  10.549 -0.2071  0.2407 -0.0566
  735MOL0     C96892   3.859   0.963  10.531  0.6157  0.5571 -0.1627
  735MOL0     C96893   3.791   0.869  10.613  0.3877  0.7149 -0.1474
  735MOL0     C96894   3.652   0.850  10.606 -0.5785 -0.5459 -0.1673
  735MOL0     C96895   3.573   0.916  10.511  0.6334 -0.0719  0.0406
  735MOL0     O96896   3.440   0.896  10.497  0.3311  0.3867  0.1475
  735MOL0     C96897   3.366   0.844  10.603 -0.3928 -0.2675 -0.0074
  735MOL0     C96898   3.224   0.880  10.567 -0.4209  0.4471  0.3537
  735MOL0     C96899   3.118   0.809  10.661 -0.2840 -0.1222 -0.8445
  735MOL0     C96900   3.006   0.903  10.714  0.4457  0.2540  1.0016
  735MOL0     C96901   2.901   0.928  10.605 -0.6852 -0.4307  0.0794
  735MOL0     C96902   2.781   0.835  10.608 -0.0116 -0.6725 -0.4307
  735MOL0     C96903   2.700   0.892  10.491  1.0713 -0.3688 -0.2192
  735MOL0     C96904   2.592   0.793  10.460 -0.2012  0.4116 -0.0608
  735MOL0     N96905   2.491   0.774  10.568 -0.4472 -0.1994 -0.3514
  735MOL0     C96906   2.389   0.857  10.600 -0.5442 -0.5949  0.1018
  735MOL0     C96907   2.362   0.834  10.729 -0.3715 -0.0438 -0.0227
  735MOL0     C96908   2.256   0.895  10.816 -0.4508  0.7094 -0.1402
  735MOL0     C96909   2.256   1.049  10.813 -0.2494 -0.0709  0.0421
  735MOL0     C96910   2.354   1.118  10.913 -0.0021 -0.0435  0.6378
  735MOL0     C96911   2.360   1.274  10.895 -0.0896  0.8255 -0.9741
  735MOL0     O96912   2.442   1.284  10.776  0.3441  0.5053 -0.0092
  735MOL0     C96913   2.583   1.286  10.790 -0.3474  0.2950  0.4152
  735MOL0     C96914   2.659   1.256  10.901 -0.4042 -0.2363  0.9432
  735MOL0     C96915   2.801   1.259  10.900  0.1819  0.2013 -0.1292
  735MOL0     C96916   2.870   1.293  10.784  1.4770  0.4160  0.2489
  735MOL0     C96917   3.020   1.288  10.787  0.4515  0.0837  0.0780
  735MOL0     O96918   3.086   1.316  10.672  0.6775  0.2475  1.2521
  735MOL0     C96919   3.217   1.339  10.680 -0.4033 -0.2357  0.1907
  735MOL0     C96920   3.293   1.251  10.598  0.1099  0.6745 -0.6192
  735MOL0     C96921   3.430   1.261  10.605  0.1866 -0.8394  0.7875
  735MOL0     C96922   3.491   1.360  10.689 -0.2904 -0.7834  0.7615
  735MOL0     O96923   3.626   1.380  10.711  0.3171 -0.1573  0.0652
  735MOL0     C96924   3.696   1.428  10.595  0.1682  0.2022  0.3058
  735MOL0     C96925   3.846   1.393  10.613  0.2217  0.3459 -0.0828
  735MOL0     C96926   3.938   1.519  10.582 -0.1951  0.4588  0.1382
  735MOL0     C96927   4.082   1.486  10.615 -0.1198 -0.5776  0.8158
  735MOL0     C96928   4.180   1.583  10.547 -0.0680 -0.0070 -0.0631
  735MOL0     C96929   4.327   1.564  10.589 -0.5691 -0.4104  0.5687
  735MOL0     C96930   4.433   1.663  10.531 -0.9302 -0.3458 -0.2383
  735MOL0     C96931   4.405   1.811  10.556  0.4588  0.0384 -0.5580
  735MOL0    Cl96932   4.538   1.906  10.497 -0.1654  0.0034 -0.4794
  735MOL0     C96933   3.410   1.439  10.762 -0.2383 -0.5497  0.2747
  735MOL0     C96934   3.279   1.432  10.761 -0.2627 -0.1206  0.4916
  735MOL0     O96935   3.070   1.269  10.896 -1.4667  1.2271 -0.3536
  735MOL0     C96936   2.797   1.334  10.672 -0.1501 -0.1769 -0.3615
  735MOL0     C96937   2.654   1.328  10.673 -1.1136  0.3055  1.2853
  735MOL0     N96938   2.430   0.721  10.771 -0.4496  0.5406 -0.3372
  735MOL0     N96939   2.514   0.704  10.680 -0.8591  0.5168 -0.6520
  735MOL0     C96940   3.637   1.013  10.435  0.1218 -0.2804  0.7568
  735MOL0     C96941   3.777   1.033  10.443  0.3604  0.1787  0.8347
  735MOL0     C96942   4.172   1.088  10.651  1.0796  0.8059 -0.4025
  735MOL0     C96943   4.222   1.195  10.714  0.4210 -0.4898 -0.5205
  735MOL0     C96944   4.361   1.214  10.737 -0.9061 -0.0083  0.9000
  735MOL0     C96945   4.447   1.128  10.669  0.6179 -0.1118 -0.9662
  735MOL0     O96946   4.584   1.130  10.683 -0.0054  0.1332 -0.9374
  735MOL0     C96947   4.660   1.224  10.759  0.1331  0.9487 -0.7569
  735MOL0     C96948   4.814   1.199  10.749  0.3237  0.4171 -0.3563
  735MOL0     C96949   4.847   1.087  10.847 -0.7650 -0.0801 -0.3507
  735MOL0     C96950   5.001   1.040  10.860  0.4457 -0.0947  0.0537
  735MOL0     C96951   5.094   1.133  10.935 -0.0391  0.4797 -0.2711
  735MOL0     C96952   5.161   1.208  11.001  0.3322 -0.2046 -0.3806
  735MOL0     C96953   4.401   1.018  10.596 -0.0334 -0.0199  0.1158
  735MOL0     C96954   4.260   0.999  10.588 -0.6011 -0.0502  0.4329
  735MOL0     H96955   3.846   0.808  10.683  0.1925  0.4807 -0.1979
  735MOL0     H96956   3.615   0.777  10.677 -1.7166  0.7389  0.5987
  735MOL0     H96957   3.411   0.881  10.695 -0.3498 -2.6157  0.9865
  735MOL0     H96958   3.386   0.737  10.594  2.3655  0.0907  0.7595
  735MOL0     H96959   3.198   0.859  10.463 -2.5018 -1.1866  1.1290
  735MOL0     H96960   3.214   0.987  10.588  1.9647  0.0553  4.4602
  735MOL0     H96961   3.182   0.780  10.745 -2.1357  0.2120  0.7537
  735MOL0     H96962   3.075   0.719  10.617 -0.4007 -1.0088  1.0166
  735MOL0     H96963   2.961   0.847  10.796  3.0211  0.3262  2.6050
  735MOL0     H96964   3.044   0.998  10.753 -0.4401  0.3533  1.6425
  735MOL0     H96965   2.950   0.928  10.507  0.6298  4.4603  0.4341
  735MOL0     H96966   2.868   1.031  10.626  0.9296 -0.0699  1.0479
  735MOL0     H96967   2.724   0.849  10.700  1.8734 -5.8444  1.8639
  735MOL0     H96968   2.823   0.736  10.592 -1.6238 -1.9079  2.3337
  735MOL0     H96969   2.651   0.987  10.513 -3.4892 -1.9859 -2.1746
  735MOL0     H96970   2.762   0.893  10.401  1.6072  3.9434  0.0118
  735MOL0     H96971   2.643   0.700  10.435  0.2993 -0.3679  3.3077
  735MOL0     H96972   2.541   0.821  10.367 -0.6288  0.6569  0.2404
  735MOL0     H96973   2.353   0.932  10.530 -3.0178  1.3958  3.2350
  735MOL0     H96974   2.267   0.860  10.919  0.0755  0.9063 -0.1264
  735MOL0     H96975   2.161   0.852  10.781 -1.4660  2.7483 -0.0751
  735MOL0     H96976   2.150   1.064  10.837 -0.9424 -1.4014 -1.9058
  735MOL0     H96977   2.271   1.090  10.712 -0.9647  1.0181  0.3622
  735MOL0     H96978   2.314   1.091  11.011 -0.9192 -1.3699 -0.0729
  735MOL0     H96979   2.448   1.062  10.911 -0.6049 -1.0633 -0.0771
  735MOL0     H96980   2.395   1.323  10.986 -0.9284 -2.3766  1.2614
  735MOL0     H96981   2.259   1.310  10.875 -0.8629 -1.3894 -1.3067
  735MOL0     H96982   2.604   1.239  10.993  1.3443 -0.8513  1.9155
  735MOL0     H96983   2.859   1.230  10.987  3.1674 -1.1241 -2.3848
  735MOL0     H96984   3.238   1.188  10.529  1.2672 -0.0078 -0.9447
  735MOL0     H96985   3.505   1.196  10.560  0.3877 -1.0777  1.4456
  735MOL0     H96986   3.676   1.536  10.589 -1.0401  0.1050  1.8932
  735MOL0     H96987   3.653   1.386  10.503  4.1054 -0.7336 -1.2854
  735MOL0     H96988   3.871   1.310  10.546  1.1877  0.0329  0.6322
  735MOL0     H96989   3.861   1.360  10.716  2.7500 -2.2698 -1.1676
  735MOL0     H96990   3.904   1.597  10.651 -1.0606  1.9193 -1.8619
  735MOL0     H96991   3.921   1.556  10.481 -1.6610 -0.2252  0.1081
  735MOL0     H96992   4.104   1.475  10.721  0.8508  1.6258  0.8825
  735MOL0     H96993   4.111   1.390  10.570  3.0909 -2.6250  6.2909
  735MOL0     H96994   4.156   1.688  10.561  2.7888  1.0730 -2.2340
  735MOL0     H96995   4.173   1.576  10.438 -1.4529 -1.7322  0.0784
  735MOL0     H96996   4.348   1.462  10.556  0.9951  0.4056 -1.0535
  735MOL0     H96997   4.327   1.569  10.699 -3.8530  0.4938  0.6559
  735MOL0     H96998   4.526   1.643  10.585 -1.8912  0.2758  1.7374
  735MOL0     H96999   4.438   1.649  10.422 -2.4467 -0.7120 -0.2827
  735MOL0     H97000   4.387   1.821  10.664  2.0225 -0.3507 -0.2341
  735MOL0     H97001   4.308   1.832  10.510  0.8796 -0.7144 -1.8256
  735MOL0     H97002   3.452   1.515  10.827 -0.4715 -0.2810  0.1138
  735MOL0     H97003   3.223   1.499  10.825  1.3776  1.2175  0.6112
  735MOL0     H97004   2.854   1.373  10.588  1.3548  0.8269  1.0776
  735MOL0     H97005   2.610   1.352  10.576 -3.7680 -3.7089  1.2323
  735MOL0     H97006   3.578   1.074  10.367 -0.0763 -0.1117  1.0749
  735MOL0     H97007   3.821   1.100  10.370  0.6356 -0.3355  0.5150
  735MOL0     H97008   4.159   1.273  10.756 -0.3465 -1.6110  0.4719
  735MOL0     H97009   4.396   1.289  10.807  1.0007  1.1899 -1.1894
  735MOL0     H97010   4.629   1.225  10.864 -0.5761  0.9641 -0.9618
  735MOL0     H97011   4.646   1.323  10.716 -1.6510  0.8817 -0.3976
  735MOL0     H97012   4.836   1.173  10.645  0.3613 -2.3382  0.2743
  735MOL0     H97013   4.871   1.289  10.777  0.5633  0.5509 -1.2558
  735MOL0     H97014   4.789   0.997  10.825  0.7310 -1.5331  1.3331
  735MOL0     H97015   4.821   1.123  10.947  2.2143 -1.7180  1.1504
  735MOL0     H97016   5.007   0.943  10.909  0.1570  0.1512  0.5920
  735MOL0     H97017   5.030   1.026  10.756 -0.9147  0.1148 -0.3811
  735MOL0     H97018   5.211   1.276  11.067  2.5246 -0.1828 -1.9554
  735MOL0     H97019   4.464   0.944  10.548 -0.2886  1.0781 -2.0580
  735MOL0     H97020   4.223   0.905  10.547 -0.3099  0.0937 -0.1814
  736MOL0     O97021   4.940   9.010   5.344  0.2022 -0.0263  0.4978
  736MOL0     C97022   4.977   9.100   5.411  0.4185 -0.4729 -0.3068
  736MOL0     O97023   4.891   9.196   5.465  0.2877 -0.6731 -0.5560
  736MOL0     C97024   4.752   9.193   5.445 -0.1355  0.3111  0.1632
  736MOL0     C97025   4.673   9.303   5.485 -0.1227  0.6990 -0.6333
  736MOL0     C97026   4.537   9.310   5.469 -0.6920 -0.0442  0.4882
  736MOL0     C97027   4.466   9.202   5.420  0.4284  0.4673 -0.2876
  736MOL0     O97028   4.332   9.188   5.430  0.3983 -0.2079  0.2483
  736MOL0     C97029   4.257   9.310   5.453 -0.3477  0.1186 -0.0086
  736MOL0     C97030   4.103   9.276   5.466 -0.1127  0.3234  0.8174
  736MOL0     C97031   4.016   9.402   5.499  0.0836 -0.0360  0.6718
  736MOL0     C97032   3.875   9.349   5.489  0.6417 -0.3347 -1.0395
  736MOL0     C97033   3.761   9.453   5.520  0.5016 -1.2421 -1.3861
  736MOL0     C97034   3.771   9.509   5.658  0.0530 -0.4671 -0.2695
  736MOL0     C97035   3.654   9.611   5.684 -0.4629 -0.2938 -0.6455
  736MOL0     C97036   3.666   9.673   5.822 -0.1297 -0.4168  0.7583
  736MOL0     N97037   3.585   9.799   5.830 -0.0123  0.8888 -0.2644
  736MOL0     C97038   3.458   9.807   5.870 -0.6033 -0.0372 -0.0821
  736MOL0     C97039   3.443   9.941   5.899 -0.3169 -0.0733 -1.0022
  736MOL0     C97040   3.327  10.012   5.966 -0.4382 -0.1303 -0.0860
  736MOL0     C97041   3.194   9.964   5.911 -1.1356 -0.1836 -0.2221
  736MOL0     C97042   3.083  10.027   5.998  0.5186 -0.8229  0.2570
  736MOL0     C97043   2.945  10.033   5.934 -0.4256 -0.4355 -0.6450
  736MOL0     O97044   2.844  10.061   6.039 -0.2553  0.4750  0.3343
  736MOL0     C97045   2.709  10.067   5.995 -0.0402 -0.0117 -0.3236
  736MOL0     C97046   2.619  10.095   6.097  0.7642 -0.2452 -0.3834
  736MOL0     C97047   2.486  10.098   6.071 -0.2225 -0.3948 -1.0630
  736MOL0     C97048   2.435  10.059   5.940  0.6285  0.3816 -0.0127
  736MOL0     C97049   2.291  10.053   5.908  0.7500  0.9618 -0.4251
  736MOL0     O97050   2.205  10.110   6.001 -0.7972 -0.3933  0.4805
  736MOL0     C97051   2.073  10.081   5.984  0.8690  0.3047  0.4273
  736MOL0     C97052   2.030   9.947   5.988  0.5578  0.1645 -0.1498
  736MOL0     C97053   1.892   9.918   5.977  0.6830  0.1122 -0.5661
  736MOL0     C97054   1.799  10.020   5.952  0.8256 -0.7342 -0.2369
  736MOL0     O97055   1.669   9.979   5.930  0.4201 -0.2506 -0.2435
  736MOL0     C97056   1.584  10.073   5.861 -0.3113  0.6954 -0.1868
  736MOL0     C97057   1.437  10.022   5.882 -0.3455 -0.5093  0.6321
  736MOL0     C97058   1.427   9.875   5.836 -0.6510 -0.3099 -0.4942
  736MOL0     C97059   1.277   9.830   5.846  0.5513 -0.0883 -0.2664
  736MOL0     C97060   1.216   9.852   5.987 -0.0544 -0.1738 -0.5135
  736MOL0     C97061   1.072   9.790   5.991  0.0570  0.8192 -0.3737
  736MOL0     C97062   0.998   9.815   6.123 -0.6137 -1.0069  0.1178
  736MOL0     C97063   1.019   9.711   6.229 -0.6037 -1.4945  0.1316
  736MOL0    Cl97064   0.871   9.717   6.330  0.3337  0.0790  0.2717
  736MOL0     C97065   1.845  10.151   5.937 -0.2404  0.7930 -0.4564
  736MOL0     C97066   1.978  10.182   5.960 -0.3056 -0.1578 -0.1900
  736MOL0     O97067   2.257   9.998   5.802  0.3496 -0.6280  0.5349
  736MOL0     C97068   2.529  10.032   5.839 -0.0329  1.4417 -0.0683
  736MOL0     C97069   2.670  10.034   5.863 -0.2934  0.3733 -0.7565
  736MOL0     N97070   3.555  10.008   5.862 -0.1890 -0.4875 -0.3500
  736MOL0     N97071   3.641   9.921   5.819 -0.2165 -1.0059  0.0635
  736MOL0     C97072   4.536   9.088   5.392  0.1521 -0.5456  0.4331
  736MOL0     C97073   4.678   9.081   5.405 -0.0593 -0.0559 -0.5271
  736MOL0     C97074   5.119   9.122   5.426 -0.4693 -0.1019  0.6684
  736MOL0     C97075   5.173   9.232   5.508  0.8784 -0.0084 -0.0097
  736MOL0     C97076   5.307   9.239   5.526 -0.0140 -0.2411  0.2106
  736MOL0     C97077   5.403   9.159   5.458 -0.2076 -0.2382 -0.2013
  736MOL0     O97078   5.545   9.164   5.468  0.4204 -0.8309  0.5111
  736MOL0     C97079   5.594   9.246   5.571  0.0561 -0.6300  0.9979
  736MOL0     C97080   5.747   9.209   5.602 -0.0745 -0.2459  0.3649
  736MOL0     C97081   5.836   9.177   5.477  0.0190 -1.5933  0.3664
  736MOL0     C97082   5.980   9.143   5.513  0.0533 -0.1819 -0.2696
  736MOL0     C97083   6.049   9.265   5.549  0.0844 -0.4751 -0.0086
  736MOL0     C97084   6.108   9.369   5.594 -0.4904  0.1236 -0.2274
  736MOL0     C97085   5.354   9.057   5.378 -0.5641 -0.1413 -0.3384
  736MOL0     C97086   5.214   9.034   5.361  0.2890 -0.5935  0.2305
  736MOL0     H97087   4.724   9.391   5.522 -0.0698 -0.5625  2.6186
  736MOL0     H97088   4.489   9.393   5.518  0.7638  0.8350  0.4869
  736MOL0     H97089   4.272   9.368   5.361 -1.0902  3.2567  1.7145
  736MOL0     H97090   4.289   9.373   5.536 -1.1906  2.6416 -1.4713
  736MOL0     H97091   4.094   9.200   5.544 -0.3748 -1.4590 -0.8908
  736MOL0     H97092   4.071   9.232   5.372 -0.1806  1.9675  0.0248
  736MOL0     H97093   4.031   9.485   5.430  1.1023 -1.2051 -0.5504
  736MOL0     H97094   4.040   9.435   5.601 -1.7784 -1.3061  1.5649
  736MOL0     H97095   3.855   9.309   5.389  1.8718 -1.2285 -0.9605
  736MOL0     H97096   3.859   9.259   5.548 -0.2849  1.3269  1.4214
  736MOL0     H97097   3.664   9.403   5.509  0.4170 -1.2311 -0.7248
  736MOL0     H97098   3.767   9.535   5.448  1.8929 -0.9113 -0.9344
  736MOL0     H97099   3.870   9.553   5.667  0.8027 -1.7312 -1.6453
  736MOL0     H97100   3.768   9.418   5.719  0.2019 -2.7307 -3.3602
  736MOL0     H97101   3.665   9.687   5.606  1.2475  0.3287  0.1292
  736MOL0     H97102   3.560   9.556   5.682 -0.6776 -0.2499  2.6829
  736MOL0     H97103   3.772   9.692   5.835 -0.2385  0.1491  0.8296
  736MOL0     H97104   3.648   9.603   5.905  0.0063 -1.3083  0.0565
  736MOL0     H97105   3.377   9.737   5.887 -0.5644  0.2451  1.4205
  736MOL0     H97106   3.338  10.119   5.944  0.0914  0.1287  1.3359
  736MOL0     H97107   3.336   9.990   6.073  3.8705  0.6373 -0.1376
  736MOL0     H97108   3.187   9.856   5.902 -1.2550  0.0148 -5.8470
  736MOL0     H97109   3.184  10.003   5.809  3.2985  3.7409  0.4971
  736MOL0     H97110   3.086   9.974   6.093  2.4983  0.1853  0.8209
  736MOL0     H97111   3.109  10.127   6.033 -0.4810 -0.9834  1.5250
  736MOL0     H97112   2.923   9.932   5.899 -0.1830 -0.5038 -0.6040
  736MOL0     H97113   2.942  10.107   5.853  1.6452 -0.1697 -0.5265
  736MOL0     H97114   2.665  10.109   6.194  0.7432  1.6809 -0.6170
  736MOL0     H97115   2.428  10.126   6.158 -0.0949  0.9769 -1.3815
  736MOL0     H97116   2.094   9.862   6.008  1.0303  0.4811 -0.2930
  736MOL0     H97117   1.861   9.815   5.998 -0.7314  0.4612 -0.8193
  736MOL0     H97118   1.617  10.074   5.756 -1.0888  1.2382 -0.4317
  736MOL0     H97119   1.581  10.172   5.907  1.1074  0.1538  1.1548
  736MOL0     H97120   1.366  10.086   5.829 -1.6292 -0.8143  1.9247
  736MOL0     H97121   1.411  10.032   5.988 -2.8273  0.0202  0.0259
  736MOL0     H97122   1.501   9.817   5.892 -1.0781  0.5446  1.0133
  736MOL0     H97123   1.459   9.867   5.731  1.6638 -0.9211  0.2006
  736MOL0     H97124   1.220   9.871   5.763 -0.3640  0.1916  0.4836
  736MOL0     H97125   1.269   9.722   5.832  0.3997 -0.1840  0.5252
  736MOL0     H97126   1.213   9.960   6.004  1.6845 -0.1203 -0.3704
  736MOL0     H97127   1.278   9.804   6.063 -3.3548 -2.0203  1.2406
  736MOL0     H97128   1.079   9.683   5.971  1.1284  1.2793 -2.8070
  736MOL0     H97129   1.002   9.833   5.918 -1.5660 -2.4023 -0.9045
  736MOL0     H97130   1.033   9.913   6.158  0.5137 -1.5736  0.6126
  736MOL0     H97131   0.891   9.827   6.101 -0.7888  0.2970  1.4312
  736MOL0     H97132   1.115   9.732   6.277 -1.1067  0.7009  0.2585
  736MOL0     H97133   1.011   9.611   6.185 -0.1574 -1.8820  0.9051
  736MOL0     H97134   1.784  10.236   5.910 -0.4147  0.8797  0.2018
  736MOL0     H97135   2.016  10.282   5.942 -3.7722  0.9959 -2.1407
  736MOL0     H97136   2.500  10.006   5.738  1.4179  0.0628 -0.1868
  736MOL0     H97137   2.747   9.997   5.795  2.2677  1.0721  1.5792
  736MOL0     H97138   4.489   8.993   5.365 -3.7339  1.5520 -0.9415
  736MOL0     H97139   4.719   8.982   5.386 -1.9794 -0.9362 -0.2258
  736MOL0     H97140   5.103   9.297   5.559 -0.2320 -2.0232  1.1953
  736MOL0     H97141   5.333   9.301   5.611  0.8462 -0.6416  0.2524
  736MOL0     H97142   5.533   9.234   5.661  0.4367 -0.1734  1.3234
  736MOL0     H97143   5.578   9.353   5.550  1.6964 -0.5767 -0.1604
  736MOL0     H97144   5.791   9.292   5.659  1.4806  0.1247 -1.2968
  736MOL0     H97145   5.742   9.121   5.667 -0.7128  0.7473  1.7279
  736MOL0     H97146   5.835   9.263   5.411 -0.8766 -0.6371  1.5652
  736MOL0     H97147   5.790   9.092   5.426 -1.7404 -1.3064  1.3856
  736MOL0     H97148   5.984   9.068   5.592  1.0100  2.0304  1.9059
  736MOL0     H97149   6.026   9.094   5.427  1.7248  0.3761  0.2771
  736MOL0     H97150   6.159   9.454   5.635 -0.2397 -0.0668 -0.1423
  736MOL0     H97151   5.423   8.996   5.320  0.5793 -0.6102  1.4291
  736MOL0     H97152   5.176   8.951   5.304 -1.4967 -0.0316  0.5449
  737MOL0     O97153   9.972   0.333   8.043  0.2672 -0.0152 -0.1278
  737MOL0     C97154  10.042   0.231   8.056 -0.4291 -0.7910  0.0403
  737MOL0     O97155  10.007   0.111   8.010  0.0850  0.1327 -0.4665
  737MOL0     C97156   9.874   0.088   8.006 -0.4426  0.7524 -0.5797
  737MOL0     C97157   9.845  -0.020   7.927  0.0297 -0.8419 -0.6070
  737MOL0     C97158   9.716  -0.064   7.904 -0.4450  0.0724 -0.0298
  737MOL0     C97159   9.604  -0.003   7.965  0.0002 -0.3276 -0.0739
  737MOL0     O97160   9.471  -0.043   7.933  0.0218  0.1293  0.1078
  737MOL0     C97161   9.366   0.004   8.021 -1.0465  0.8750  0.1733
  737MOL0     C97162   9.238  -0.070   7.973  0.6708 -1.0779 -1.2358
  737MOL0     C97163   9.115   0.009   8.013 -0.0038  0.2431  0.3800
  737MOL0     C97164   9.088   0.017   8.166  0.8875  0.3425  0.4455
  737MOL0     C97165   8.939   0.023   8.190 -0.8634  0.4573 -0.7036
  737MOL0     C97166   8.871   0.148   8.141 -0.6391 -0.0506  0.4190
  737MOL0     C97167   8.746   0.194   8.206 -0.4256 -0.3284 -0.0287
  737MOL0     C97168   8.645   0.082   8.224  0.0474 -0.6009 -0.2415
  737MOL0     N97169   8.509   0.141   8.244  0.3213  0.2542  0.6468
  737MOL0     C97170   8.478   0.247   8.317  0.0898  0.3776 -0.4867
  737MOL0     C97171   8.349   0.264   8.314  0.1042 -0.4742  0.5296
  737MOL0     C97172   8.264   0.373   8.378  0.7026  0.2972  0.0450
  737MOL0     C97173   8.130   0.315   8.434 -0.3144 -0.1293 -0.0830
  737MOL0     C97174   8.012   0.321   8.339 -0.5356  0.0038  0.2626
  737MOL0     C97175   7.918   0.210   8.339 -0.2830  0.8417  1.4709
  737MOL0     O97176   7.885   0.159   8.469 -0.0657 -0.3555 -0.9474
  737MOL0     C97177   7.798   0.223   8.553 -0.1600 -0.0278  0.5944
  737MOL0     C97178   7.800   0.179   8.687  0.1723 -0.5129  0.9993
  737MOL0     C97179   7.700   0.221   8.774  0.0584 -0.6861  0.7442
  737MOL0     C97180   7.612   0.321   8.738  0.1006  0.3783 -0.3942
  737MOL0     C97181   7.508   0.355   8.841  0.6468 -0.4123  0.7593
  737MOL0     O97182   7.487   0.489   8.861 -0.2539  0.1360  0.3401
  737MOL0     C97183   7.419   0.531   8.978 -0.9436 -0.8487  0.6862
  737MOL0     C97184   7.407   0.469   9.107  0.7057  0.1972  1.5523
  737MOL0     C97185   7.345   0.527   9.214 -0.0416  0.1207 -0.7302
  737MOL0     C97186   7.293   0.655   9.196  0.4781  0.2384 -0.4467
  737MOL0     O97187   7.251   0.724   9.310  0.8027 -0.4692  0.4327
  737MOL0     C97188   7.125   0.792   9.305  0.0594  1.4310 -1.9754
  737MOL0     C97189   7.020   0.703   9.374  0.7590 -0.5036  0.7273
  737MOL0     C97190   6.887   0.779   9.362  0.1531  0.4062  0.2228
  737MOL0     C97191   6.774   0.688   9.416 -0.0555 -0.0887 -0.6722
  737MOL0     C97192   6.653   0.765   9.455 -0.3021  0.1967 -0.6154
  737MOL0     C97193   6.522   0.676   9.464  0.4254 -1.3110  0.2820
  737MOL0     C97194   6.394   0.756   9.497  0.2521 -0.0524  0.3604
  737MOL0     C97195   6.331   0.854   9.397  0.2871  0.0987  0.2358
  737MOL0    Cl97196   6.315   0.782   9.235  0.2857  0.1548  0.1178
  737MOL0     C97197   7.298   0.712   9.071  0.2172  0.1673 -0.6039
  737MOL0     C97198   7.359   0.654   8.958 -0.2088 -0.9602 -0.8800
  737MOL0     O97199   7.449   0.266   8.897 -0.4594  0.5253  0.1868
  737MOL0     C97200   7.629   0.379   8.616 -0.3476 -0.3427  0.0592
  737MOL0     C97201   7.704   0.319   8.519  0.0985 -0.3335  0.1794
  737MOL0     N97202   8.298   0.171   8.230  0.2470  0.3612 -1.1284
  737MOL0     N97203   8.395   0.098   8.183 -0.0182 -0.7438  0.0787
  737MOL0     C97204   9.630   0.105   8.047  0.3217  0.1127 -0.7682
  737MOL0     C97205   9.767   0.142   8.075 -0.1280 -0.8348  0.3045
  737MOL0     C97206  10.176   0.247   8.127  0.2119 -0.2984 -0.5973
  737MOL0     C97207  10.201   0.352   8.205 -0.3598 -0.1166 -0.3387
  737MOL0     C97208  10.327   0.374   8.261 -0.0333 -0.0802 -0.1385
  737MOL0     C97209  10.429   0.289   8.234 -0.9383 -0.0715 -0.3537
  737MOL0     O97210  10.549   0.319   8.299  0.3995 -0.1093  0.7199
  737MOL0     C97211  10.663   0.244   8.257 -0.3423  0.0624  0.4539
  737MOL0     C97212  10.785   0.310   8.318  0.3965  0.5458 -0.1439
  737MOL0     C97213  10.790   0.309   8.472 -0.1191 -0.8280  0.6948
  737MOL0     C97214  10.830   0.171   8.502 -0.1347  0.7929 -0.2456
  737MOL0     C97215  10.825   0.155   8.645  0.7124 -0.4601  0.6622
  737MOL0     C97216  10.833   0.150   8.768  0.3001 -0.1263  0.1554
  737MOL0     C97217  10.401   0.178   8.153 -0.0553 -0.0272  0.9113
  737MOL0     C97218  10.278   0.154   8.100  0.2924 -0.0683 -0.6677
  737MOL0     H97219   9.929  -0.071   7.881  0.3207  0.1923 -1.2566
  737MOL0     H97220   9.703  -0.156   7.848  0.0119  0.2713 -0.4685
  737MOL0     H97221   9.352   0.112   8.010 -0.9735  0.7712 -1.1213
  737MOL0     H97222   9.398  -0.030   8.120 -0.1011 -1.1390 -0.7565
  737MOL0     H97223   9.223  -0.172   8.011  2.4727 -0.3545  1.7652
  737MOL0     H97224   9.235  -0.067   7.864  0.1848  2.8194 -1.2414
  737MOL0     H97225   9.042  -0.039   7.946  1.7781  1.7861 -2.9117
  737MOL0     H97226   9.133   0.108   7.970  1.5023 -0.4320 -0.6155
  737MOL0     H97227   9.120  -0.074   8.218  4.9416  0.6501 -1.1324
  737MOL0     H97228   9.146   0.099   8.208 -0.5827  2.4041 -1.3298
  737MOL0     H97229   8.928   0.009   8.298  2.5838 -0.9338 -0.3857
  737MOL0     H97230   8.884  -0.061   8.146 -0.6755 -0.2077  0.2862
  737MOL0     H97231   8.845   0.135   8.035 -3.3234  0.9953  0.8671
  737MOL0     H97232   8.947   0.227   8.137  0.4606 -1.1031 -0.1379
  737MOL0     H97233   8.780   0.229   8.304 -1.6662 -0.3080  0.4038
  737MOL0     H97234   8.700   0.284   8.164 -0.0334 -0.2238 -0.2411
  737MOL0     H97235   8.676   0.010   8.300  0.1459 -1.1762 -0.8195
  737MOL0     H97236   8.642   0.024   8.131  0.3340 -0.1888 -0.5097
  737MOL0     H97237   8.557   0.304   8.365  0.2544 -0.4140  0.2021
  737MOL0     H97238   8.244   0.457   8.312 -0.1370  0.6166  0.6866
  737MOL0     H97239   8.319   0.422   8.459 -0.8696  2.9517 -0.3540
  737MOL0     H97240   8.107   0.376   8.522 -1.5911 -0.2538 -0.3093
  737MOL0     H97241   8.155   0.213   8.464  0.4751 -0.6847 -2.4309
  737MOL0     H97242   7.957   0.412   8.362 -2.8350  0.9614 -6.7002
  737MOL0     H97243   8.059   0.331   8.240  1.5259  0.4266  1.2462
  737MOL0     H97244   7.948   0.121   8.283 -1.7033  0.2493  1.6092
  737MOL0     H97245   7.828   0.243   8.288  0.6518  0.3413 -0.6113
  737MOL0     H97246   7.867   0.102   8.726 -0.1173 -0.1205  2.3333
  737MOL0     H97247   7.706   0.184   8.876 -0.0255 -1.5945  0.4362
  737MOL0     H97248   7.451   0.372   9.124 -2.4300 -1.9442 -1.2337
  737MOL0     H97249   7.345   0.479   9.311  2.2322 -0.0824 -0.7818
  737MOL0     H97250   7.083   0.821   9.208 -1.6576 -0.0261 -1.7095
  737MOL0     H97251   7.139   0.876   9.374 -2.4899  0.9380 -0.7612
  737MOL0     H97252   7.043   0.673   9.477  4.4100 -0.4926  0.0438
  737MOL0     H97253   7.016   0.614   9.311  1.8677 -0.6496  0.8505
  737MOL0     H97254   6.860   0.805   9.259 -0.6006  0.1609  0.3519
  737MOL0     H97255   6.896   0.874   9.416 -0.0546  1.3919 -1.4111
  737MOL0     H97256   6.754   0.612   9.340  0.2223 -1.0403  0.1934
  737MOL0     H97257   6.806   0.636   9.507  1.5454 -1.1185 -1.7671
  737MOL0     H97258   6.622   0.845   9.387 -0.7155  0.9152  0.4014
  737MOL0     H97259   6.678   0.814   9.549  1.1387 -0.6929 -0.5035
  737MOL0     H97260   6.543   0.602   9.542 -0.3130 -2.6833 -0.7605
  737MOL0     H97261   6.497   0.632   9.367 -3.4171  2.4983 -0.7374
  737MOL0     H97262   6.313   0.689   9.528 -0.9092  1.5732  0.9733
  737MOL0     H97263   6.419   0.827   9.576  2.2094  2.9645 -2.7077
  737MOL0     H97264   6.399   0.936   9.373  1.0788  0.5058  3.5091
  737MOL0     H97265   6.242   0.903   9.437  1.1026  3.2213 -1.4495
  737MOL0     H97266   7.260   0.813   9.059  2.6294  0.8798 -2.9643
  737MOL0     H97267   7.371   0.716   8.870  1.8818  3.7408  2.3161
  737MOL0     H97268   7.559   0.457   8.589 -1.2326  0.1065  3.2220
  737MOL0     H97269   7.699   0.358   8.418 -1.9181 -0.6623  0.1131
  737MOL0     H97270   9.559   0.165   8.103 -1.0810 -0.9961 -1.3066
  737MOL0     H97271   9.770   0.222   8.148 -0.9395 -1.1818  0.7348
  737MOL0     H97272  10.117   0.419   8.221 -0.9097 -0.9692  0.4966
  737MOL0     H97273  10.348   0.459   8.325 -0.7810 -1.9257  2.7513
  737MOL0     H97274  10.668   0.235   8.148 -1.1633 -2.5774  0.5573
  737MOL0     H97275  10.665   0.142   8.295  0.8421  0.9205  2.9107
  737MOL0     H97276  10.871   0.252   8.283 -0.8165 -1.5834  0.2499
  737MOL0     H97277  10.791   0.413   8.281  1.1492  0.7901  0.6257
  737MOL0     H97278  10.700   0.339   8.527 -0.3227 -1.1392  0.5328
  737MOL0     H97279  10.860   0.391   8.490 -1.7340  1.2242 -1.6174
  737MOL0     H97280  10.762   0.094   8.465  0.6268  0.5490 -1.1766
  737MOL0     H97281  10.935   0.157   8.473  0.0812  1.5708  0.1482
  737MOL0     H97282  10.845   0.136   8.874  1.1891 -1.3213 -0.0787
  737MOL0     H97283  10.467   0.101   8.116  0.9130  0.6386  1.2066
  737MOL0     H97284  10.260   0.070   8.034  0.4556 -1.6340  1.1967
  738MOL0     O97285  10.794   8.797  10.012 -0.4945 -0.3829  0.1873
  738MOL0     C97286  10.759   8.878   9.935  0.6280 -0.3396  0.6558
  738MOL0     O97287  10.755   9.014   9.957 -0.2511  0.2569 -0.5552
  738MOL0     C97288  10.783   9.069  10.086  0.4810 -0.8408 -0.1037
  738MOL0     C97289  10.886   9.029  10.165  0.1774 -0.1347 -0.4200
  738MOL0     C97290  10.907   9.092  10.287  0.5200 -0.3739  0.3881
  738MOL0     C97291  10.821   9.190  10.339 -0.2405  0.8604 -0.1544
  738MOL0     O97292  10.858   9.231  10.466  0.2512 -0.0465 -0.0181
  738MOL0     C97293  10.776   9.330  10.531 -0.4719 -0.0230 -0.2413
  738MOL0     C97294  10.821   9.354  10.673 -0.4117  0.1629 -0.2008
  738MOL0     C97295  10.714   9.410  10.776  0.6970  0.6078 -0.0805
  738MOL0     C97296  10.631   9.532  10.730  0.5728  0.4935  1.1860
  738MOL0     C97297  10.524   9.580  10.830 -0.4223 -0.4990  0.1191
  738MOL0     C97298  10.568   9.618  10.970  0.1889 -0.1870  0.1778
  738MOL0     C97299  10.452   9.698  11.051 -0.1736 -0.4691 -0.6931
  738MOL0     C97300  10.514   9.766  11.172 -0.2520 -0.8457 -0.8365
  738MOL0     N97301  10.410   9.828  11.259 -0.4606  0.6666 -0.4690
  738MOL0     C97302  10.414   9.942  11.327  0.1334  0.6843 -0.3967
  738MOL0     C97303  10.306   9.944  11.406  0.3647  0.0448 -0.4566
  738MOL0     C97304  10.258  10.055  11.496  0.4288 -0.2021 -0.5428
  738MOL0     C97305  10.239  10.006  11.643 -0.2671 -0.9531 -0.5010
  738MOL0     C97306  10.199  10.112  11.743 -0.0560 -0.3483 -0.2814
  738MOL0     C97307  10.192  10.080  11.893 -0.3518  0.4960 -0.0629
  738MOL0     O97308  10.111   9.969  11.917 -0.1940 -0.0303  0.0453
  738MOL0     C97309   9.975   9.994  11.901 -0.2734  0.4438 -0.5365
  738MOL0     C97310   9.905  10.119  11.871 -0.2488  0.0767 -0.0865
  738MOL0     C97311   9.770  10.130  11.863 -0.4155 -0.5732  1.1315
  738MOL0     C97312   9.689  10.018  11.882 -0.8505 -0.1369  0.2006
  738MOL0     C97313   9.546  10.029  11.833 -0.3364 -0.9400  0.9169
  738MOL0     O97314   9.482   9.915  11.846  0.1218  0.0449  0.5714
  738MOL0     C97315   9.350   9.935  11.824  0.3830  0.1630 -0.6516
  738MOL0     C97316   9.277   9.993  11.930  0.2865 -0.3317 -0.7056
  738MOL0     C97317   9.143  10.022  11.921  0.1328  1.3701  0.8676
  738MOL0     C97318   9.080  10.010  11.794  0.7023 -0.2395 -0.9969
  738MOL0     O97319   8.965  10.061  11.747  0.5650  0.6106  0.6434
  738MOL0     C97320   8.907  10.168  11.815  0.2562 -0.4810  0.0010
  738MOL0     C97321   8.764  10.188  11.771  1.4229  0.1679 -0.4970
  738MOL0     C97322   8.669  10.063  11.799 -0.1166  0.2355 -0.1351
  738MOL0     C97323   8.521  10.074  11.757  0.3783 -0.4535  0.3856
  738MOL0     C97324   8.448   9.954  11.789 -0.0718 -0.3345 -0.1142
  738MOL0     C97325   8.307   9.975  11.742  0.6035  0.3621  0.1929
  738MOL0     C97326   8.240   9.842  11.781  0.5313 -0.4846 -0.3517
  738MOL0     C97327   8.092   9.826  11.726 -0.5293 -0.2010 -0.7095
  738MOL0    Cl97328   7.970   9.906  11.831 -0.1877 -0.2700 -0.1998
  738MOL0     C97329   9.153   9.952  11.686  1.1325 -0.0231  0.1060
  738MOL0     C97330   9.277   9.905  11.706 -0.6037 -0.4835 -0.0409
  738MOL0     O97331   9.506  10.136  11.781 -0.2416  0.4059 -0.1311
  738MOL0     C97332   9.749   9.892  11.925 -0.1539 -0.4422 -0.7889
  738MOL0     C97333   9.889   9.893  11.941 -0.3562  0.0987 -0.0204
  738MOL0     N97334  10.237   9.817  11.389 -0.2600 -0.3947 -0.4797
  738MOL0     N97335  10.306   9.749  11.302  0.5887 -0.2687  0.5327
  738MOL0     C97336  10.718   9.236  10.253 -0.1927 -0.1820  0.1126
  738MOL0     C97337  10.711   9.180  10.125 -0.3368  0.4992 -0.5856
  738MOL0     C97338  10.713   8.830   9.800  1.1515  0.2669  0.2817
  738MOL0     C97339  10.693   8.913   9.691  0.1227  0.5585 -0.2835
  738MOL0     C97340  10.629   8.871   9.567  0.7863 -0.0559 -0.5151
  738MOL0     C97341  10.585   8.739   9.556 -0.3838 -0.0114  0.0315
  738MOL0     O97342  10.528   8.684   9.448 -0.2990 -0.3088  0.0400
  738MOL0     C97343  10.568   8.734   9.318 -0.5016  0.3100 -0.1691
  738MOL0     C97344  10.499   8.674   9.197 -0.2153 -0.5765 -0.2414
  738MOL0     C97345  10.350   8.720   9.183 -0.0149 -0.0989  0.7915
  738MOL0     C97346  10.335   8.869   9.152 -0.3927  0.2810 -0.3826
  738MOL0     C97347  10.431   8.929   9.057 -0.4373  0.6650 -0.2432
  738MOL0     C97348  10.517   8.975   8.977  0.0883  0.8656  0.0439
  738MOL0     C97349  10.598   8.656   9.674  0.0596  0.0777 -0.0488
  738MOL0     C97350  10.659   8.694   9.789  0.1163 -1.3490 -0.4360
  738MOL0     H97351  10.951   8.951  10.130 -1.1695 -0.2804 -2.7905
  738MOL0     H97352  10.994   9.080  10.352  1.9214  3.1436 -0.5744
  738MOL0     H97353  10.672   9.298  10.528  0.0505 -2.4045  2.8491
  738MOL0     H97354  10.790   9.420  10.470 -1.9062 -0.4557 -1.2550
  738MOL0     H97355  10.905   9.424  10.673 -0.5312  0.4606  3.1932
  738MOL0     H97356  10.880   9.274  10.719 -0.7161  1.2344  2.1963
  738MOL0     H97357  10.762   9.439  10.869  1.7324  3.1519 -1.2907
  738MOL0     H97358  10.640   9.333  10.800  1.0418  0.2403 -0.1937
  738MOL0     H97359  10.697   9.618  10.716  1.5968 -0.5009 -0.3367
  738MOL0     H97360  10.571   9.519  10.640  0.1678  0.8938  1.3974
  738MOL0     H97361  10.458   9.493  10.841  0.5403 -1.9431 -3.9199
  738MOL0     H97362  10.463   9.656  10.780 -1.2249 -0.9814  0.3499
  738MOL0     H97363  10.661   9.675  10.969  1.1181 -1.5404 -2.8836
  738MOL0     H97364  10.600   9.531  11.028  1.0919  0.6886  1.0273
  738MOL0     H97365  10.407   9.777  10.990 -0.6420 -0.0830  0.1371
  738MOL0     H97366  10.378   9.625  11.086  1.9390 -1.1954  2.7097
  738MOL0     H97367  10.587   9.840  11.140  0.8989 -2.0968 -1.1936
  738MOL0     H97368  10.570   9.690  11.226 -0.8345 -0.4899  0.2892
  738MOL0     H97369  10.487  10.021  11.316  1.0310  0.2828  2.0145
  738MOL0     H97370  10.159  10.094  11.468  1.3438  0.7800 -2.6127
  738MOL0     H97371  10.324  10.140  11.479 -0.7075  0.1530 -3.9656
  738MOL0     H97372  10.332   9.954  11.667 -0.8343 -2.2447 -0.9906
  738MOL0     H97373  10.166   9.925  11.643  1.5208 -2.6368 -0.7813
  738MOL0     H97374  10.276  10.190  11.737 -0.5682  0.1618 -0.3402
  738MOL0     H97375  10.102  10.151  11.712 -1.8954 -3.3897  1.1937
  738MOL0     H97376  10.164  10.168  11.951  0.9425  1.1699 -0.4398
  738MOL0     H97377  10.291  10.052  11.930 -0.6233  1.0375  1.1070
  738MOL0     H97378   9.967  10.206  11.853 -0.7911  0.0635 -2.3205
  738MOL0     H97379   9.727  10.218  11.816  0.2397 -2.0910 -2.6539
  738MOL0     H97380   9.332  10.014  12.021 -0.1894 -1.4898 -0.1360
  738MOL0     H97381   9.082  10.063  12.000 -1.6529  2.4056 -0.9661
  738MOL0     H97382   8.967  10.259  11.807  0.1731 -0.1252  2.5782
  738MOL0     H97383   8.903  10.147  11.923  0.0162 -2.2925 -0.3272
  738MOL0     H97384   8.763  10.203  11.663 -0.1776  1.0867 -0.3897
  738MOL0     H97385   8.727  10.284  11.808 -1.3113  1.6122 -5.9478
  738MOL0     H97386   8.673  10.049  11.907 -0.8753  1.1584  0.0327
  738MOL0     H97387   8.712   9.982  11.740  0.5258  1.0674 -0.8271
  738MOL0     H97388   8.483  10.170  11.795  0.3308  0.3119 -1.5164
  738MOL0     H97389   8.528  10.089  11.649  0.6459 -0.4997  0.3947
  738MOL0     H97390   8.448   9.952  11.898  0.2961  1.3544 -0.0603
  738MOL0     H97391   8.484   9.862  11.740 -0.0593 -1.1622  1.4016
  738MOL0     H97392   8.291   9.995  11.636 -0.5578  1.4872  0.5516
  738MOL0     H97393   8.266  10.063  11.793  0.6735 -0.0458  0.9832
  738MOL0     H97394   8.298   9.761  11.737 -0.5158  0.5806 -4.0858
  738MOL0     H97395   8.222   9.825  11.887 -0.3394 -1.4286 -0.6338
  738MOL0     H97396   8.071   9.719  11.722  0.1279 -0.4069  0.6178
  738MOL0     H97397   8.081   9.862  11.623 -3.7415  1.4724  0.0732
  738MOL0     H97398   9.101   9.939  11.592 -0.6148 -3.8925  1.3945
  738MOL0     H97399   9.326   9.849  11.626 -1.1021  2.4213 -2.5747
  738MOL0     H97400   9.688   9.805  11.947  0.8101 -0.4315  2.4169
  738MOL0     H97401   9.940   9.803  11.977 -0.4944  0.0505  0.0540
  738MOL0     H97402  10.653   9.323  10.266  0.0608  0.1272 -0.5892
  738MOL0     H97403  10.635   9.208  10.052  1.2988  1.7272 -1.9175
  738MOL0     H97404  10.726   9.016   9.703  2.9234 -0.5026  2.8488
  738MOL0     H97405  10.588   8.935   9.490 -3.0886 -2.7511 -0.9786
  738MOL0     H97406  10.675   8.716   9.308 -0.2958  0.7423  1.0220
  738MOL0     H97407  10.535   8.838   9.309 -0.5687  0.0883 -3.5915
  738MOL0     H97408  10.553   8.719   9.114 -2.3207  0.1613 -1.2955
  738MOL0     H97409  10.513   8.566   9.189 -1.4860 -0.7964  0.1754
  738MOL0     H97410  10.297   8.681   9.270  1.4182 -1.9671  0.8839
  738MOL0     H97411  10.297   8.663   9.105  0.0980  0.0309  0.6188
  738MOL0     H97412  10.231   8.876   9.118 -0.9498  0.1748  1.2457
  738MOL0     H97413  10.349   8.926   9.244  0.5353 -0.2608 -0.1767
  738MOL0     H97414  10.597   9.025   8.927  0.6163 -1.1990 -1.3084
  738MOL0     H97415  10.562   8.554   9.671 -0.0940  0.1128  0.5803
  738MOL0     H97416  10.671   8.634   9.879  0.0569  2.7386  2.6275
  739MOL0     O97417   8.994  11.151   2.592 -0.2243  0.2438  0.3511
  739MOL0     C97418   9.002  11.028   2.561  0.2529 -0.2974 -0.1794
  739MOL0     O97419   8.904  10.952   2.538  0.1471  0.2628  0.3381
  739MOL0     C97420   8.777  10.993   2.564  1.1781  0.4197 -0.6611
  739MOL0     C97421   8.719  11.093   2.481 -0.3168  0.0491  0.0186
  739MOL0     C97422   8.582  11.120   2.494  0.6261 -0.1577  0.2783
  739MOL0     C97423   8.503  11.058   2.586  0.1796 -0.6215 -0.7141
  739MOL0     O97424   8.366  11.067   2.594 -0.6382 -0.0321 -0.3748
  739MOL0     C97425   8.309  11.139   2.491 -0.4964 -0.6692 -0.4726
  739MOL0     C97426   8.160  11.141   2.506  0.2303  0.5137 -0.3763
  739MOL0     C97427   8.127  11.238   2.616  0.5605 -0.8651  0.2637
  739MOL0     C97428   7.975  11.274   2.583  0.8809  0.5341 -0.0962
  739MOL0     C97429   7.930  11.374   2.681 -0.8516  0.2215  0.2794
  739MOL0     C97430   7.785  11.397   2.643  0.8211 -0.3795 -0.1729
  739MOL0     C97431   7.751  11.557   2.654  0.7939  0.6948 -0.3258
  739MOL0     C97432   7.595  11.569   2.646 -0.7670  1.5531 -0.0421
  739MOL0     N97433   7.541  11.690   2.580  0.7359 -0.0850 -0.5051
  739MOL0     C97434   7.594  11.749   2.476 -0.3619  0.2193  0.2762
  739MOL0     C97435   7.525  11.860   2.454 -0.2191 -0.3355  0.4358
  739MOL0     C97436   7.576  11.973   2.362  0.0694 -0.4782  0.1211
  739MOL0     C97437   7.468  12.053   2.303 -0.1948 -0.7109 -0.5143
  739MOL0     C97438   7.524  12.140   2.196 -0.3065 -0.4749 -0.3145
  739MOL0     C97439   7.432  12.255   2.162  0.2610  0.7441  0.2677
  739MOL0     O97440   7.340  12.192   2.070 -0.4216 -0.3057 -0.4001
  739MOL0     C97441   7.202  12.186   2.094 -0.3778 -0.7434  0.6445
  739MOL0     C97442   7.137  12.211   2.222 -1.3709  0.2141  0.2429
  739MOL0     C97443   7.004  12.216   2.231  0.2548  0.1923 -0.1909
  739MOL0     C97444   6.917  12.212   2.121  0.7889 -0.0025  0.5803
  739MOL0     C97445   6.770  12.234   2.146  0.6722  0.6312 -0.3862
  739MOL0     O97446   6.677  12.186   2.053  1.0387 -0.1579  0.3876
  739MOL0     C97447   6.541  12.204   2.071  0.3615 -0.2000 -0.8316
  739MOL0     C97448   6.483  12.315   2.133  0.6040 -0.3052 -0.0664
  739MOL0     C97449   6.341  12.318   2.143  0.0864  0.5848 -0.3182
  739MOL0     C97450   6.266  12.217   2.092 -0.0189 -0.9950  0.0219
  739MOL0     O97451   6.128  12.206   2.114 -1.7512 -0.0223 -0.2299
  739MOL0     C97452   6.060  12.279   2.212 -0.5341 -0.0852 -0.3459
  739MOL0     C97453   5.921  12.217   2.224 -0.9500  0.2700 -0.4699
  739MOL0     C97454   5.823  12.301   2.308 -0.5444  1.2059  1.3240
  739MOL0     C97455   5.693  12.215   2.329 -0.5309 -0.2809  0.2425
  739MOL0     C97456   5.585  12.298   2.387 -0.5906 -0.0035 -0.7756
  739MOL0     C97457   5.452  12.229   2.424 -0.3966  0.0861 -0.0883
  739MOL0     C97458   5.344  12.328   2.492 -0.6188  0.1189 -0.0809
  739MOL0     C97459   5.223  12.249   2.540 -0.2799  0.8748  0.1317
  739MOL0    Cl97460   5.105  12.376   2.608  0.0692  0.3416 -0.4174
  739MOL0     C97461   6.318  12.110   2.023 -0.0291  0.9285  0.1541
  739MOL0     C97462   6.458  12.101   2.016 -0.4064  0.1256  0.4984
  739MOL0     O97463   6.748  12.295   2.246 -0.3449  0.0582 -0.9650
  739MOL0     C97464   6.976  12.197   1.989 -0.1248 -0.0629 -0.6820
  739MOL0     C97465   7.118  12.188   1.985  1.0911 -0.2643  0.5565
  739MOL0     N97466   7.419  11.859   2.539 -0.5342 -0.0958  0.5292
  739MOL0     N97467   7.433  11.755   2.616  0.3309  0.0829 -0.3294
  739MOL0     C97468   8.573  10.987   2.686  0.1478 -0.2113  1.3389
  739MOL0     C97469   8.703  10.950   2.676  0.1791 -0.2171  0.6549
  739MOL0     C97470   9.134  10.964   2.539  0.0485 -0.1283 -0.2239
  739MOL0     C97471   9.240  11.041   2.511 -0.1838  0.2169 -0.6238
  739MOL0     C97472   9.365  10.983   2.488 -0.3194 -0.7764  0.2306
  739MOL0     C97473   9.388  10.845   2.503  0.4512  0.0968 -0.4940
  739MOL0     O97474   9.509  10.779   2.484 -0.8562 -0.3873  0.0072
  739MOL0     C97475   9.624  10.865   2.468 -0.6799 -0.2412 -0.5131
  739MOL0     C97476   9.748  10.780   2.455  0.0217 -0.1579  0.0249
  739MOL0     C97477   9.873  10.858   2.492  0.1509  1.0552 -0.9920
  739MOL0     C97478   9.999  10.759   2.475 -0.2680 -0.3867 -0.2809
  739MOL0     C97479  10.118  10.839   2.514 -0.6039 -0.2669 -0.9550
  739MOL0     C97480  10.214  10.898   2.556  0.0899  0.1687  0.3761
  739MOL0     C97481   9.280  10.764   2.539  0.0182 -0.4883  0.3047
  739MOL0     C97482   9.151  10.827   2.555  0.1543 -0.8671 -0.7927
  739MOL0     H97483   8.788  11.145   2.416 -1.0235 -0.9842 -1.6248
  739MOL0     H97484   8.542  11.186   2.417  0.5575  0.4823  0.8472
  739MOL0     H97485   8.339  11.100   2.393  0.2589  1.0327 -0.9547
  739MOL0     H97486   8.345  11.242   2.498  2.4417 -1.5914 -0.5137
  739MOL0     H97487   8.117  11.041   2.510 -2.6794  1.6039 -1.1651
  739MOL0     H97488   8.116  11.185   2.416  2.7118  2.8925 -0.5519
  739MOL0     H97489   8.187  11.329   2.608  0.8171 -0.8924  1.6478
  739MOL0     H97490   8.147  11.197   2.715  4.9312 -2.6692 -1.1255
  739MOL0     H97491   7.966  11.320   2.485 -2.5027 -1.4227 -0.8469
  739MOL0     H97492   7.908  11.187   2.591 -2.3044  2.8264  0.0111
  739MOL0     H97493   7.981  11.470   2.672 -1.2075  0.3856  0.0246
  739MOL0     H97494   7.940  11.328   2.780  2.6068  0.3817  0.1483
  739MOL0     H97495   7.721  11.337   2.707 -2.0822 -2.0716 -4.2422
  739MOL0     H97496   7.760  11.366   2.541 -0.6738  1.1741 -0.3220
  739MOL0     H97497   7.775  11.606   2.749 -4.1770  2.8656  0.1288
  739MOL0     H97498   7.799  11.611   2.571  2.1642  1.6233  1.0138
  739MOL0     H97499   7.568  11.586   2.751  0.9550  2.6941  0.2675
  739MOL0     H97500   7.548  11.481   2.600 -0.2500 -0.7522  3.4743
  739MOL0     H97501   7.691  11.721   2.434  1.5779  0.7196  4.0187
  739MOL0     H97502   7.639  11.921   2.289 -1.0483 -1.3098 -0.2830
  739MOL0     H97503   7.645  12.049   2.398 -0.0111 -0.3018 -0.0909
  739MOL0     H97504   7.425  12.112   2.384  0.3748 -0.1068 -0.6519
  739MOL0     H97505   7.393  11.991   2.252  0.8255 -0.7523 -2.0196
  739MOL0     H97506   7.621  12.179   2.227 -1.3966  1.1211  1.3288
  739MOL0     H97507   7.536  12.076   2.108  4.1212 -0.4521  0.0648
  739MOL0     H97508   7.494  12.330   2.111  1.2093 -0.4846 -0.4506
  739MOL0     H97509   7.385  12.295   2.252 -2.8191  2.1894 -1.8042
  739MOL0     H97510   7.191  12.217   2.316 -0.5078 -0.2626 -0.2155
  739MOL0     H97511   6.961  12.237   2.329  1.1050  2.0681 -0.1785
  739MOL0     H97512   6.537  12.403   2.166  1.7083 -0.6311 -0.9193
  739MOL0     H97513   6.289  12.401   2.191 -1.6136 -1.2485  1.1570
  739MOL0     H97514   6.050  12.377   2.165 -2.1707  0.3432  0.7694
  739MOL0     H97515   6.119  12.296   2.303 -1.2383  3.6362 -0.4403
  739MOL0     H97516   5.933  12.119   2.270  3.6140  0.8542  0.0777
  739MOL0     H97517   5.886  12.196   2.123  0.4531 -5.1296 -0.1250
  739MOL0     H97518   5.809  12.390   2.245  0.8327  0.2322 -0.4549
  739MOL0     H97519   5.883  12.321   2.397  2.9804  0.2022 -0.6121
  739MOL0     H97520   5.664  12.166   2.235  0.4172  1.9225 -1.2957
  739MOL0     H97521   5.702  12.134   2.402 -3.7073  0.0851  1.2090
  739MOL0     H97522   5.572  12.388   2.326 -2.4423  1.6202  1.7676
  739MOL0     H97523   5.618  12.337   2.484 -3.1048 -1.1514  0.6656
  739MOL0     H97524   5.476  12.149   2.494  0.0002 -0.6276 -1.0038
  739MOL0     H97525   5.414  12.188   2.330 -1.8698 -0.9949  0.9446
  739MOL0     H97526   5.389  12.386   2.574  0.5505 -1.2932  0.3299
  739MOL0     H97527   5.313  12.404   2.420  0.2604  0.2143 -0.3727
  739MOL0     H97528   5.260  12.180   2.617 -2.0879 -0.4781 -0.1514
  739MOL0     H97529   5.181  12.197   2.454  2.0169 -1.4191  0.2595
  739MOL0     H97530   6.259  12.028   1.982  0.8585 -0.8349  2.1783
  739MOL0     H97531   6.514  12.025   1.962 -0.3643 -1.3753  2.4983
  739MOL0     H97532   6.917  12.198   1.898 -1.2278  0.1254  0.0126
  739MOL0     H97533   7.160  12.188   1.884 -0.7805 -0.6160 -0.2627
  739MOL0     H97534   8.516  10.947   2.769 -0.3182 -1.3452  0.4961
  739MOL0     H97535   8.759  10.888   2.746  0.5340 -1.2433 -0.5081
  739MOL0     H97536   9.229  11.149   2.506 -0.7332  0.1055 -3.0922
  739MOL0     H97537   9.436  11.056   2.451  0.7172 -1.3623  1.0165
  739MOL0     H97538   9.630  10.938   2.549  0.2683  0.3001 -1.0560
  739MOL0     H97539   9.615  10.927   2.378  1.0864 -1.4485 -1.5951
  739MOL0     H97540   9.733  10.694   2.521  0.1203  1.2801  2.0189
  739MOL0     H97541   9.762  10.740   2.354  0.6422 -3.1265  1.2026
  739MOL0     H97542   9.873  10.899   2.593  1.1783  1.2325 -1.0597
  739MOL0     H97543   9.889  10.945   2.429  1.0686  0.6933 -1.2733
  739MOL0     H97544   9.989  10.663   2.527 -1.5951  0.9783  2.1808
  739MOL0     H97545  10.015  10.733   2.370  0.3757 -0.2521 -0.2187
  739MOL0     H97546  10.270  10.985   2.583 -1.8436  0.9956  1.9726
  739MOL0     H97547   9.295  10.660   2.563  0.6207 -0.7128 -0.9545
  739MOL0     H97548   9.062  10.770   2.582 -2.6593  2.4763 -2.2273
  740MOL0     O97549   0.365   9.951   5.013  0.2581  0.2401  0.3647
  740MOL0     C97550   0.369   9.979   4.896  0.9309 -0.3890  0.0165
  740MOL0     O97551   0.259   9.991   4.822 -0.2428 -0.3157 -0.1371
  740MOL0     C97552   0.133   9.986   4.881 -0.0034 -0.0918  0.1982
  740MOL0     C97553   0.075  10.105   4.935  0.8764 -0.3047 -0.3413
  740MOL0     C97554  -0.065  10.107   4.964 -0.6324 -0.0660 -0.0328
  740MOL0     C97555  -0.140   9.996   4.943  0.8363  0.4035 -0.2584
  740MOL0     O97556  -0.268  10.000   4.989  0.2331  0.2604  0.1194
  740MOL0     C97557  -0.353  10.116   4.973 -0.3420 -0.1831 -0.2250
  740MOL0     C97558  -0.489  10.058   4.929 -0.5043  0.2787 -0.4230
  740MOL0     C97559  -0.588  10.169   4.900 -0.8725 -0.6311  0.4699
  740MOL0     C97560  -0.727  10.128   4.855  0.2348 -0.4131  0.5216
  740MOL0     C97561  -0.835  10.234   4.886  0.2981 -0.1376 -0.6633
  740MOL0     C97562  -0.976  10.204   4.823  0.3375 -0.3632 -0.4367
  740MOL0     C97563  -1.043  10.086   4.901  1.1343 -0.1056 -0.1922
  740MOL0     C97564  -1.191  10.074   4.857 -0.3999 -0.4642 -0.4288
  740MOL0     N97565  -1.260   9.961   4.926 -1.0943 -0.7006  0.5250
  740MOL0     C97566  -1.348   9.985   5.027  0.7664  0.8000 -0.1204
  740MOL0     C97567  -1.429   9.880   5.024 -0.2522  1.2909  0.6853
  740MOL0     C97568  -1.541   9.863   5.122 -0.3416  0.0009  0.6764
  740MOL0     C97569  -1.673   9.827   5.058  0.6382  1.0004  0.1998
  740MOL0     C97570  -1.736   9.949   4.985  0.2887 -0.1282 -0.4837
  740MOL0     C97571  -1.894   9.938   4.967 -0.5558 -0.1075 -0.7299
  740MOL0     O97572  -1.951   9.981   5.086 -0.4397  0.0367 -0.7532
  740MOL0     C97573  -2.080   9.943   5.106  0.0611  0.9047 -0.5621
  740MOL0     C97574  -2.180   9.962   5.016  0.1378  0.9683 -0.0708
  740MOL0     C97575  -2.316   9.946   5.049  0.4629 -0.2034 -0.3185
  740MOL0     C97576  -2.355   9.875   5.166 -0.1479  0.1304  0.8600
  740MOL0     C97577  -2.489   9.808   5.177  0.2069 -1.0154 -0.2666
  740MOL0     O97578  -2.578   9.840   5.064 -0.3042  0.4007 -0.1877
  740MOL0     C97579  -2.713   9.838   5.076  0.4293 -0.7753 -0.0381
  740MOL0     C97580  -2.785   9.907   4.971 -0.6371 -0.0199 -0.3297
  740MOL0     C97581  -2.922   9.910   4.970 -0.2758 -0.7669 -0.3496
  740MOL0     C97582  -2.994   9.836   5.068 -1.0402  0.5084 -0.4818
  740MOL0     O97583  -3.131   9.829   5.064  0.1475 -0.6584  0.1444
  740MOL0     C97584  -3.196   9.707   5.088 -0.3438 -0.5727 -0.3260
  740MOL0     C97585  -3.314   9.697   4.995  0.4232 -0.3968 -0.0822
  740MOL0     C97586  -3.367   9.556   4.985 -0.5770 -0.2425  0.0733
  740MOL0     C97587  -3.485   9.546   4.885  0.2162  0.1577 -0.6487
  740MOL0     C97588  -3.592   9.449   4.936 -0.1494 -0.2972  0.0655
  740MOL0     C97589  -3.551   9.297   4.962  0.1743  0.2909  0.1567
  740MOL0     C97590  -3.675   9.203   4.989 -1.1593  0.3852 -0.7912
  740MOL0     C97591  -3.758   9.188   4.862 -0.0918 -0.7355 -0.7074
  740MOL0    Cl97592  -3.862   9.040   4.876 -0.5174 -0.0013  0.3017
  740MOL0     C97593  -2.925   9.779   5.173 -0.3700 -0.0179 -0.4819
  740MOL0     C97594  -2.788   9.776   5.177  0.0717 -0.4304 -0.4093
  740MOL0     O97595  -2.510   9.734   5.276  0.4577  0.0029  0.7789
  740MOL0     C97596  -2.251   9.843   5.254  0.4571 -0.8520  0.3795
  740MOL0     C97597  -2.114   9.886   5.232 -0.0375  0.2512  0.3053
  740MOL0     N97598  -1.391   9.794   4.925  0.9327  1.1971  0.5838
  740MOL0     N97599  -1.290   9.841   4.859  0.1790 -0.1471  0.3156
  740MOL0     C97600  -0.088   9.874   4.893  0.1522 -0.0557 -0.2696
  740MOL0     C97601   0.049   9.869   4.870 -0.2080  0.1468  0.4072
  740MOL0     C97602   0.500   9.992   4.831 -0.4457  0.1533 -0.8513
  740MOL0     C97603   0.524  10.004   4.698 -0.2758 -0.6428  0.2392
  740MOL0     C97604   0.655   9.996   4.640 -0.2370 -0.8918  0.1445
  740MOL0     C97605   0.766   9.985   4.718 -0.7081  0.4943  0.2565
  740MOL0     O97606   0.898   9.988   4.684  0.1167  0.1690 -0.4364
  740MOL0     C97607   0.940   9.989   4.548  0.1077  0.1638 -0.1502
  740MOL0     C97608   0.925  10.129   4.482  0.2615 -0.4523  0.7451
  740MOL0     C97609   0.963  10.151   4.338  0.4304 -0.7937  0.2620
  740MOL0     C97610   1.072  10.062   4.279  0.3757  0.7837  0.0677
  740MOL0     C97611   1.198  10.112   4.327  0.3731 -0.3496  0.2602
  740MOL0     C97612   1.298  10.174   4.351 -0.4799  0.4713  0.7847
  740MOL0     C97613   0.743   9.987   4.858  0.2714  0.3743  0.0844
  740MOL0     C97614   0.614   9.991   4.915 -0.7058  0.1276 -0.9319
  740MOL0     H97615   0.123  10.202   4.933 -0.0251  0.1500 -0.5713
  740MOL0     H97616  -0.092  10.205   5.002  2.0508  3.0341 -4.9764
  740MOL0     H97617  -0.312  10.179   4.893  1.5768 -2.2414 -0.9653
  740MOL0     H97618  -0.347  10.165   5.070 -1.9397  0.4180 -0.3958
  740MOL0     H97619  -0.522  10.011   5.022  1.8858  0.2535  0.4809
  740MOL0     H97620  -0.480   9.990   4.844  0.1213  1.3145 -1.2053
  740MOL0     H97621  -0.547  10.234   4.823  1.4904 -0.4381  1.8047
  740MOL0     H97622  -0.580  10.229   4.992 -2.2102 -1.3892  1.1110
  740MOL0     H97623  -0.718  10.105   4.749  0.9481  3.7233 -0.5020
  740MOL0     H97624  -0.751  10.034   4.906  0.0187  0.0969  1.3880
  740MOL0     H97625  -0.798  10.331   4.851  0.1658 -0.6039 -2.1724
  740MOL0     H97626  -0.847  10.236   4.995 -1.5361 -1.9318 -0.7566
  740MOL0     H97627  -0.962  10.172   4.719  0.7375 -4.2397  0.6611
  740MOL0     H97628  -1.035  10.297   4.816 -1.0952 -1.2681 -0.7963
  740MOL0     H97629  -0.992   9.992   4.880  0.4421 -0.3253 -0.9655
  740MOL0     H97630  -1.044  10.105   5.009 -0.6463 -4.6994  0.8465
  740MOL0     H97631  -1.196  10.063   4.749  0.9958  0.8952 -0.6797
  740MOL0     H97632  -1.240  10.171   4.867  0.6976  0.5384 -3.4691
  740MOL0     H97633  -1.365  10.067   5.096 -4.1938  0.2716 -0.3662
  740MOL0     H97634  -1.557   9.947   5.191  0.2959 -1.0255  2.1105
  740MOL0     H97635  -1.511   9.788   5.195  0.7245  1.9393  2.3383
  740MOL0     H97636  -1.747   9.789   5.129 -1.3023  0.1534 -2.1316
  740MOL0     H97637  -1.675   9.739   4.993  0.5299 -0.0550  1.5849
  740MOL0     H97638  -1.716  10.042   5.037  4.7485 -1.7017  1.0164
  740MOL0     H97639  -1.694   9.951   4.884  1.5144  1.6673  0.0221
  740MOL0     H97640  -1.917   9.831   4.958 -1.5779 -0.1640  1.6579
  740MOL0     H97641  -1.928   9.994   4.880  3.8733 -0.7273 -3.1079
  740MOL0     H97642  -2.156  10.021   4.928  1.5690  1.6441  0.7396
  740MOL0     H97643  -2.390   9.978   4.976 -0.8897 -1.3918  0.4869
  740MOL0     H97644  -2.735   9.972   4.899 -0.5502  0.4630  0.1549
  740MOL0     H97645  -2.956   9.958   4.879 -1.6695 -1.9338 -0.4729
  740MOL0     H97646  -3.236   9.702   5.190 -0.1160  1.1947 -0.1115
  740MOL0     H97647  -3.127   9.624   5.077 -0.3073 -0.7984  1.3481
  740MOL0     H97648  -3.294   9.736   4.895 -0.5423 -0.8138 -0.4461
  740MOL0     H97649  -3.389   9.758   5.046 -0.2002 -3.8829  3.6794
  740MOL0     H97650  -3.392   9.519   5.084 -1.1106 -1.3922 -0.4760
  740MOL0     H97651  -3.283   9.497   4.948  1.6249  3.6734 -1.8473
  740MOL0     H97652  -3.526   9.646   4.867  2.6016  1.8150  2.2003
  740MOL0     H97653  -3.453   9.514   4.785  0.2068  2.3957 -1.4440
  740MOL0     H97654  -3.679   9.456   4.871 -3.0571 -1.8294  3.4534
  740MOL0     H97655  -3.633   9.480   5.032 -2.0025 -1.4799 -0.2970
  740MOL0     H97656  -3.479   9.289   5.044  1.0008 -1.0225 -0.6567
  740MOL0     H97657  -3.492   9.259   4.878  0.2834 -0.4193  0.5445
  740MOL0     H97658  -3.643   9.102   5.019 -2.2313  1.1495  3.6636
  740MOL0     H97659  -3.734   9.230   5.077  1.3023 -2.1533  1.8694
  740MOL0     H97660  -3.680   9.182   4.785  2.9990  2.3624  1.8675
  740MOL0     H97661  -3.815   9.279   4.844  2.7603  1.3923  0.2804
  740MOL0     H97662  -2.986   9.724   5.245  1.2709 -2.4552 -0.8403
  740MOL0     H97663  -2.733   9.714   5.247  1.5032 -0.3457 -1.4112
  740MOL0     H97664  -2.285   9.796   5.346 -0.6896  2.3346  1.7293
  740MOL0     H97665  -2.028   9.882   5.298  1.8106 -1.2272 -2.0213
  740MOL0     H97666  -0.154   9.788   4.879  1.1356 -1.0422  0.8777
  740MOL0     H97667   0.096   9.786   4.819  4.6276  3.2785 -0.9650
  740MOL0     H97668   0.441  10.013   4.628 -1.7545  0.8943  2.0765
  740MOL0     H97669   0.659  10.005   4.532 -0.5717  3.9249  0.2984
  740MOL0     H97670   0.895   9.916   4.479 -4.3099  2.1566  0.2802
  740MOL0     H97671   1.048   9.968   4.551  0.3678  1.4902  2.8517
  740MOL0     H97672   0.829  10.178   4.495  0.8516  0.4822  1.8102
  740MOL0     H97673   0.997  10.190   4.539 -1.4484  0.1058  2.3962
  740MOL0     H97674   0.992  10.256   4.326  0.8302 -1.1878 -3.1232
  740MOL0     H97675   0.869  10.130   4.286 -0.0281 -1.4397  1.3143
  740MOL0     H97676   1.051   9.957   4.301 -2.7155  1.4239  0.5785
  740MOL0     H97677   1.071  10.072   4.170  1.7848  1.2987  0.0780
  740MOL0     H97678   1.390  10.220   4.380 -0.6817  0.3967  1.5681
  740MOL0     H97679   0.831   9.989   4.922  0.4033 -0.0142 -0.0766
  740MOL0     H97680   0.614   9.991   5.023  0.1368 -3.7333 -0.8062
  741MOL0     O97681   1.480  10.539  10.467  0.1683 -0.5709  0.5350
  741MOL0     C97682   1.565  10.507  10.389 -0.8484 -0.7588  1.5397
  741MOL0     O97683   1.566  10.547  10.256 -0.0856  0.2489  0.6115
  741MOL0     C97684   1.465  10.624  10.205  0.2448 -0.5521  0.3738
  741MOL0     C97685   1.328  10.586  10.204 -0.4733 -0.0910  0.1582
  741MOL0     C97686   1.231  10.650  10.132 -0.2102 -0.3145 -0.3622
  741MOL0     C97687   1.265  10.771  10.063 -0.5676  0.2259  0.9502
  741MOL0     O97688   1.176  10.846  10.000 -0.8475 -0.6880  0.3765
  741MOL0     C97689   1.048  10.852  10.079 -0.4934 -0.5987  0.1297
  741MOL0     C97690   0.951  10.964  10.034 -0.7403 -0.0543  0.0387
  741MOL0     C97691   0.810  10.976  10.104 -1.0250  0.0833 -0.2108
  741MOL0     C97692   0.814  11.046  10.233  0.3273 -0.6874  0.1114
  741MOL0     C97693   0.680  11.091  10.282  0.4554  0.4676  0.4741
  741MOL0     C97694   0.634  11.224  10.222 -0.0493 -0.1424  0.3352
  741MOL0     C97695   0.507  11.287  10.290 -1.0049  0.4602  0.6398
  741MOL0     C97696   0.380  11.195  10.287 -0.3735 -0.4956  0.1138
  741MOL0     N97697   0.270  11.250  10.361  0.2067 -0.1061  0.2738
  741MOL0     C97698   0.224  11.383  10.351 -0.4972  0.3807  0.1942
  741MOL0     C97699   0.125  11.386  10.440 -0.7176  0.8428 -0.2863
  741MOL0     C97700   0.039  11.503  10.455 -0.0050 -0.2732 -1.0081
  741MOL0     C97701  -0.095  11.494  10.396 -0.1321 -0.2699  0.1635
  741MOL0     C97702  -0.160  11.629  10.395  0.1047 -0.9545 -0.1074
  741MOL0     C97703  -0.313  11.619  10.374  0.5979 -0.0092  0.7380
  741MOL0     O97704  -0.378  11.539  10.472 -0.2337 -0.7073 -0.4409
  741MOL0     C97705  -0.516  11.552  10.474  0.4588 -0.3783  0.4064
  741MOL0     C97706  -0.585  11.544  10.600  0.3181  0.1325 -0.1856
  741MOL0     C97707  -0.717  11.571  10.604  0.0004 -0.4155 -0.8284
  741MOL0     C97708  -0.796  11.598  10.494 -0.6641  0.4523 -0.0451
  741MOL0     C97709  -0.952  11.594  10.498  0.0561  0.3865 -0.5222
  741MOL0     O97710  -1.004  11.569  10.627 -0.3042  0.5136 -0.3241
  741MOL0     C97711  -1.141  11.584  10.640 -0.4707  0.6184  0.9059
  741MOL0     C97712  -1.197  11.500  10.741 -0.0899 -0.1813 -0.5022
  741MOL0     C97713  -1.326  11.514  10.780  0.6499 -0.4544  0.1246
  741MOL0     C97714  -1.416  11.604  10.721  0.2435 -0.6024  0.3125
  741MOL0     O97715  -1.541  11.619  10.765 -0.2808 -0.2377  1.0256
  741MOL0     C97716  -1.641  11.596  10.666 -0.2799  0.2269 -0.0477
  741MOL0     C97717  -1.735  11.715  10.658  0.0454  0.0719  0.2838
  741MOL0     C97718  -1.842  11.686  10.552  0.5312 -0.0585 -0.1124
  741MOL0     C97719  -1.939  11.806  10.518  0.1908 -0.3891  0.2367
  741MOL0     C97720  -2.050  11.767  10.415 -0.3163 -0.1771  0.1732
  741MOL0     C97721  -2.123  11.642  10.449 -0.2131  0.3623  0.3682
  741MOL0     C97722  -2.233  11.617  10.341 -0.3856  0.0290  0.0366
  741MOL0     C97723  -2.163  11.560  10.221 -0.2954  0.1734  0.3981
  741MOL0    Cl97724  -2.099  11.393  10.258  0.2442  0.1404  0.5017
  741MOL0     C97725  -1.364  11.677  10.615 -0.3337 -0.1468  0.4763
  741MOL0     C97726  -1.229  11.673  10.579  0.4632 -0.1551 -0.4414
  741MOL0     O97727  -1.010  11.600  10.394  0.5051 -0.1056  0.3521
  741MOL0     C97728  -0.725  11.606  10.368  0.1680 -1.0262 -0.4078
  741MOL0     C97729  -0.589  11.586  10.359  0.0148 -0.0088 -0.4925
  741MOL0     N97730   0.098  11.264  10.489  0.2447 -0.0122  0.6994
  741MOL0     N97731   0.185  11.186  10.452  0.3571  0.1507  0.3902
  741MOL0     C97732   1.404  10.807  10.057  0.3441  0.6634  0.2027
  741MOL0     C97733   1.503  10.744  10.141 -0.1543 -0.4062 -0.1290
  741MOL0     C97734   1.684  10.424  10.429 -0.1516 -0.6750 -0.0031
  741MOL0     C97735   1.708  10.375  10.556 -0.9587 -0.1927 -0.7368
  741MOL0     C97736   1.825  10.307  10.593  0.2985 -0.2231 -0.2915
  741MOL0     C97737   1.915  10.270  10.489 -0.2423  0.1167 -1.1470
  741MOL0     O97738   2.034  10.203  10.509 -0.5338 -0.8670 -0.9712
  741MOL0     C97739   2.105  10.167  10.629  0.4923  0.3645 -0.0256
  741MOL0     C97740   2.214  10.060  10.619 -0.9371 -0.2163 -0.1123
  741MOL0     C97741   2.322  10.108  10.519 -0.2350  0.3360  0.1382
  741MOL0     C97742   2.448  10.019  10.531 -0.4737 -0.0054  0.7862
  741MOL0     C97743   2.539  10.053  10.641  0.4795  1.1079  0.0319
  741MOL0     C97744   2.604  10.063  10.747  0.4705 -0.6407 -0.2013
  741MOL0     C97745   1.889  10.301  10.362 -0.8985  0.5294  0.2902
  741MOL0     C97746   1.781  10.389  10.338 -0.2737 -0.4837  1.1586
  741MOL0     H97747   1.308  10.494  10.260 -0.6853  1.7435  3.3446
  741MOL0     H97748   1.127  10.618  10.138 -0.1180 -0.6473 -0.4609
  741MOL0     H97749   1.053  10.875  10.186 -0.1970 -0.9099  0.1818
  741MOL0     H97750   1.007  10.752  10.065  2.9336 -2.1323  0.1053
  741MOL0     H97751   0.940  10.951   9.926  0.6246 -1.6374  0.0559
  741MOL0     H97752   1.009  11.056  10.049 -0.7180 -0.1973  0.9237
  741MOL0     H97753   0.755  10.883  10.120  2.3218 -1.9822  0.2719
  741MOL0     H97754   0.741  11.036  10.043 -0.8066 -0.9499 -1.5334
  741MOL0     H97755   0.858  10.978  10.307  1.0691  0.7621  1.0553
  741MOL0     H97756   0.874  11.136  10.216 -0.0731 -0.3810  0.3092
  741MOL0     H97757   0.696  11.101  10.390 -3.8890 -1.8717  1.5608
  741MOL0     H97758   0.606  11.011  10.274 -2.2897  2.8629  0.0671
  741MOL0     H97759   0.598  11.219  10.119 -3.2436 -0.2304  1.3596
  741MOL0     H97760   0.711  11.302  10.225  1.1843 -1.3046  0.0315
  741MOL0     H97761   0.541  11.316  10.389 -0.2064  0.6527  0.3179
  741MOL0     H97762   0.480  11.381  10.239  0.0608  0.9714  0.9962
  741MOL0     H97763   0.396  11.097  10.332 -0.7537 -0.4417  0.3678
  741MOL0     H97764   0.343  11.184  10.185 -0.9521 -1.5064  0.4210
  741MOL0     H97765   0.261  11.472  10.300  3.1942 -1.0323  0.0888
  741MOL0     H97766   0.095  11.580  10.402  1.8339 -1.4490 -0.8461
  741MOL0     H97767   0.040  11.542  10.557 -1.2234 -0.5060 -0.8892
  741MOL0     H97768  -0.157  11.417  10.444 -0.8946 -0.7579 -1.4966
  741MOL0     H97769  -0.090  11.460  10.292  1.8053 -0.4752  0.2851
  741MOL0     H97770  -0.144  11.686  10.486  2.6952 -0.1867 -0.9546
  741MOL0     H97771  -0.126  11.676  10.302  1.1711 -1.6343 -0.0822
  741MOL0     H97772  -0.323  11.564  10.280  0.5203 -0.2834  0.9044
  741MOL0     H97773  -0.373  11.710  10.364 -0.9932 -0.9944  0.9337
  741MOL0     H97774  -0.521  11.509  10.680 -1.7035  0.6319  1.7626
  741MOL0     H97775  -0.754  11.561  10.706  0.7182  2.0567 -0.2571
  741MOL0     H97776  -1.140  11.425  10.794 -0.3002 -1.2804 -1.7922
  741MOL0     H97777  -1.373  11.448  10.852 -0.0679  1.2468  1.2630
  741MOL0     H97778  -1.695  11.506  10.697 -0.9159  0.9246  0.9095
  741MOL0     H97779  -1.600  11.580  10.566 -0.9259  1.4767 -0.5295
  741MOL0     H97780  -1.671  11.798  10.629  2.8329 -1.2688  2.0907
  741MOL0     H97781  -1.778  11.739  10.756 -1.9739  0.0946 -0.5521
  741MOL0     H97782  -1.911  11.608  10.587  0.5722 -0.6378 -1.2743
  741MOL0     H97783  -1.788  11.656  10.462  1.1385  3.1864 -0.9684
  741MOL0     H97784  -1.989  11.842  10.608 -3.4103  0.4064 -1.8593
  741MOL0     H97785  -1.876  11.886  10.478  0.1182 -0.8287 -0.8001
  741MOL0     H97786  -2.003  11.757  10.317  0.4984  1.5911  0.3551
  741MOL0     H97787  -2.122  11.847  10.401  0.3204  0.7603  1.9259
  741MOL0     H97788  -2.176  11.659  10.543 -0.5840 -1.0496  0.4299
  741MOL0     H97789  -2.054  11.557  10.457  1.3764  1.6248  0.6735
  741MOL0     H97790  -2.303  11.541  10.376  1.1262 -1.5216 -0.2066
  741MOL0     H97791  -2.279  11.715  10.326 -0.5627  0.1097  1.0809
  741MOL0     H97792  -2.086  11.621  10.173 -1.6342  0.1811 -1.9103
  741MOL0     H97793  -2.236  11.548  10.141  0.2136  0.6081 -0.1429
  741MOL0     H97794  -1.424  11.749  10.561 -1.0518 -3.4438 -3.6081
  741MOL0     H97795  -1.179  11.745  10.514  3.3868  1.2822  2.9866
  741MOL0     H97796  -0.777  11.621  10.274  1.5510 -1.3531 -1.2372
  741MOL0     H97797  -0.537  11.594  10.264  1.4603 -0.3216  0.2359
  741MOL0     H97798   1.432  10.894   9.999  2.2323 -0.2729 -0.3580
  741MOL0     H97799   1.604  10.782  10.141 -0.1971 -0.2818  0.2287
  741MOL0     H97800   1.631  10.392  10.630 -0.4745 -0.1416 -0.2384
  741MOL0     H97801   1.849  10.267  10.691  1.2520  1.8730  0.3687
  741MOL0     H97802   2.031  10.126  10.698  0.6505  0.3547  0.1358
  741MOL0     H97803   2.150  10.255  10.676 -1.1384  0.6631  1.0492
  741MOL0     H97804   2.247  10.037  10.721 -1.0530 -1.0762 -0.2553
  741MOL0     H97805   2.162   9.972  10.580 -2.1165  0.5641 -0.3651
  741MOL0     H97806   2.353  10.212  10.533  3.5436 -0.6032 -0.0131
  741MOL0     H97807   2.285  10.079  10.420  0.0329 -3.2330  0.9693
  741MOL0     H97808   2.424   9.912  10.533 -2.4750  0.3998  0.4104
  741MOL0     H97809   2.510  10.046  10.444 -0.0550  0.3182  1.1796
  741MOL0     H97810   2.641  10.077  10.846 -0.8455 -4.4025  1.0059
  741MOL0     H97811   1.968  10.271  10.294 -0.3917  1.2266  0.5507
  741MOL0     H97812   1.792  10.447  10.247  0.6590 -0.1857  1.4438
  742MOL0     O97813   0.876   0.326   6.604 -0.0657 -0.4345  0.4375
  742MOL0     C97814   0.879   0.449   6.631 -0.0955  0.1895 -0.8308
  742MOL0     O97815   0.771   0.530   6.649 -0.1532 -0.0168  0.3508
  742MOL0     C97816   0.652   0.454   6.679 -0.5366  0.1080 -0.5897
  742MOL0     C97817   0.543   0.453   6.600 -0.2068 -0.1776  0.5284
  742MOL0     C97818   0.427   0.382   6.630 -0.5491 -0.3210  0.7248
  742MOL0     C97819   0.417   0.324   6.754 -0.4510  0.3004  0.1321
  742MOL0     O97820   0.290   0.269   6.787  0.0446 -0.1149  0.0644
  742MOL0     C97821   0.248   0.291   6.925  0.2893  0.0227  0.1586
  742MOL0     C97822   0.092   0.306   6.926  0.0934 -0.0789 -1.2900
  742MOL0     C97823   0.030   0.176   6.885  1.1173  0.5935  0.1175
  742MOL0     C97824  -0.130   0.189   6.867  0.4100  0.0408 -0.1464
  742MOL0     C97825  -0.176   0.044   6.823 -0.1573  0.5850 -1.0705
  742MOL0     C97826  -0.326   0.042   6.784 -0.0348 -0.7643 -0.4567
  742MOL0     C97827  -0.384  -0.099   6.768 -0.6624 -0.1590 -1.0645
  742MOL0     C97828  -0.387  -0.189   6.886 -0.2878 -0.2464  0.0689
  742MOL0     N97829  -0.510  -0.192   6.958 -0.5415  0.0239  0.3777
  742MOL0     C97830  -0.603  -0.091   7.007  0.2601 -0.2659  0.6305
  742MOL0     C97831  -0.690  -0.157   7.082  0.1051  0.1965 -0.5649
  742MOL0     C97832  -0.785  -0.106   7.167  0.0347 -0.1381  0.1496
  742MOL0     C97833  -0.923  -0.092   7.105  0.3475 -0.4463  0.1895
  742MOL0     C97834  -1.003  -0.219   7.089  0.3562  0.0276 -0.1682
  742MOL0     C97835  -1.130  -0.187   7.014 -1.2376 -0.4322 -0.2146
  742MOL0     O97836  -1.229  -0.291   7.046  0.5508  0.0684 -0.3081
  742MOL0     C97837  -1.365  -0.266   7.016  0.2642  0.8420 -0.2082
  742MOL0     C97838  -1.446  -0.380   7.032 -0.1031  0.4225  0.1553
  742MOL0     C97839  -1.577  -0.382   7.001  0.3059 -0.1553  0.4018
  742MOL0     C97840  -1.642  -0.261   6.959  0.6029 -1.2837 -1.0004
  742MOL0     C97841  -1.785  -0.252   6.946 -0.0845 -0.6168  0.2542
  742MOL0     O97842  -1.854  -0.370   6.955 -0.0396  0.2787  0.0242
  742MOL0     C97843  -1.983  -0.382   6.914  0.3048  0.6361 -0.5595
  742MOL0     C97844  -2.033  -0.324   6.788 -0.1867  0.2062  0.6357
  742MOL0     C97845  -2.163  -0.362   6.744 -0.6439  0.0967  0.0767
  742MOL0     C97846  -2.246  -0.431   6.821  0.2608 -0.5174  0.7732
  742MOL0     O97847  -2.372  -0.449   6.767  0.2074 -0.5121 -0.0311
  742MOL0     C97848  -2.466  -0.528   6.841 -0.1060  1.6236  0.0873
  742MOL0     C97849  -2.572  -0.593   6.754 -0.7666  0.2600  0.2648
  742MOL0     C97850  -2.685  -0.641   6.847  0.4619 -0.0950 -0.2246
  742MOL0     C97851  -2.812  -0.684   6.766 -0.8788  0.1500 -0.4820
  742MOL0     C97852  -2.929  -0.737   6.849 -0.4705  0.9697  0.5301
  742MOL0     C97853  -3.059  -0.721   6.777 -0.4119  0.4765 -0.3378
  742MOL0     C97854  -3.179  -0.766   6.859 -0.4687  0.6528 -0.4370
  742MOL0     C97855  -3.303  -0.756   6.771 -0.2897  0.2118 -0.1004
  742MOL0    Cl97856  -3.448  -0.830   6.839 -0.2813 -0.3569 -0.0732
  742MOL0     C97857  -2.205  -0.473   6.949 -0.2621  0.0125 -0.9735
  742MOL0     C97858  -2.077  -0.454   6.997  0.1917 -0.3119 -0.4014
  742MOL0     O97859  -1.837  -0.141   6.932  0.1049 -0.4790 -0.0475
  742MOL0     C97860  -1.561  -0.153   6.931 -1.2390 -0.0332  0.4504
  742MOL0     C97861  -1.421  -0.153   6.955  0.5617  0.1747  1.0794
  742MOL0     N97862  -0.661  -0.290   7.067  0.2046  0.2989  0.3941
  742MOL0     N97863  -0.557  -0.310   7.003  0.5998  0.3084 -0.0744
  742MOL0     C97864   0.526   0.328   6.843  0.0356  0.7469 -0.6482
  742MOL0     C97865   0.641   0.388   6.801 -0.5025 -1.0385 -0.1014
  742MOL0     C97866   1.012   0.509   6.666 -0.0583  0.3934 -0.0341
  742MOL0     C97867   1.025   0.619   6.745 -0.5458  0.1985 -0.6016
  742MOL0     C97868   1.148   0.662   6.795 -0.0310  0.5883  0.2901
  742MOL0     C97869   1.265   0.603   6.744  0.7341  0.0359 -0.3766
  742MOL0     O97870   1.383   0.655   6.789 -0.1515 -0.0897  0.3548
  742MOL0     C97871   1.511   0.601   6.752 -0.6965 -0.3371  0.2949
  742MOL0     C97872   1.617   0.713   6.770 -0.5988  0.9142 -0.5008
  742MOL0     C97873   1.764   0.661   6.738  1.0456  0.7023 -0.0665
  742MOL0     C97874   1.817   0.706   6.599  0.4694 -0.2731 -0.9689
  742MOL0     C97875   1.942   0.645   6.560  0.2350  0.3827 -0.1545
  742MOL0     C97876   2.047   0.602   6.520 -0.0799  0.1471  0.1546
  742MOL0     C97877   1.259   0.493   6.657 -0.6787  0.1741 -0.3728
  742MOL0     C97878   1.130   0.448   6.616 -0.6031 -0.2387 -0.0765
  742MOL0     H97879   0.556   0.505   6.505  0.7117 -1.6116 -0.1670
  742MOL0     H97880   0.355   0.381   6.549  1.5335 -0.5396 -1.2320
  742MOL0     H97881   0.294   0.374   6.979  3.5267 -0.3870 -1.7185
  742MOL0     H97882   0.257   0.201   6.987 -3.5277 -1.1306 -0.6873
  742MOL0     H97883   0.067   0.390   6.861 -0.0222 -0.1557 -1.3439
  742MOL0     H97884   0.054   0.337   7.024  0.3203  0.1594 -1.2764
  742MOL0     H97885   0.056   0.093   6.952 -0.9636 -0.4714 -0.3301
  742MOL0     H97886   0.069   0.146   6.787  0.2553  1.2810 -0.4477
  742MOL0     H97887  -0.170   0.213   6.965 -0.9334  0.1812 -0.7101
  742MOL0     H97888  -0.155   0.276   6.806  0.2634  1.0601  1.3253
  742MOL0     H97889  -0.168  -0.026   6.907 -0.7746  1.3547 -0.3523
  742MOL0     H97890  -0.118  -0.006   6.745  1.1750 -0.0452  0.2541
  742MOL0     H97891  -0.337   0.097   6.691 -0.5172 -0.7320 -0.3815
  742MOL0     H97892  -0.394   0.091   6.854  0.5046 -0.6779  0.0197
  742MOL0     H97893  -0.483  -0.089   6.722 -1.8186 -1.7801  0.9004
  742MOL0     H97894  -0.317  -0.145   6.695  0.2798 -0.5500 -0.0003
  742MOL0     H97895  -0.301  -0.168   6.951  1.3638 -1.7278 -1.5372
  742MOL0     H97896  -0.357  -0.288   6.850  1.0332 -0.5268  1.8076
  742MOL0     H97897  -0.592   0.016   6.993 -0.0275 -0.4250 -1.0908
  742MOL0     H97898  -0.755  -0.013   7.216 -1.6995 -0.6818  2.4148
  742MOL0     H97899  -0.799  -0.179   7.248 -1.7883  0.0891  0.0895
  742MOL0     H97900  -0.908  -0.044   7.008 -0.6108 -0.4172  0.0463
  742MOL0     H97901  -0.975  -0.031   7.180 -1.2653  0.0555 -1.2804
  742MOL0     H97902  -0.947  -0.302   7.044  2.3451  1.8426 -1.1881
  742MOL0     H97903  -1.028  -0.254   7.190  0.6317 -2.6381 -0.9311
  742MOL0     H97904  -1.116  -0.171   6.907  4.4823 -0.8507  0.1396
  742MOL0     H97905  -1.158  -0.095   7.067 -3.5832 -2.7702  2.9569
  742MOL0     H97906  -1.407  -0.471   7.076 -2.7902  0.0991  2.1268
  742MOL0     H97907  -1.630  -0.476   7.017  1.0706 -1.1244 -2.2715
  742MOL0     H97908  -1.969  -0.263   6.725 -0.3639  1.3737  1.5427
  742MOL0     H97909  -2.178  -0.337   6.639  2.6144  0.5970 -0.3795
  742MOL0     H97910  -2.518  -0.463   6.912 -1.2485  0.3450  0.4575
  742MOL0     H97911  -2.421  -0.606   6.903 -1.0260 -0.5809 -1.8548
  742MOL0     H97912  -2.534  -0.675   6.691  1.0888  1.9228 -0.9059
  742MOL0     H97913  -2.604  -0.510   6.692 -0.2739  0.1303 -0.1735
  742MOL0     H97914  -2.718  -0.560   6.913 -2.0300 -0.0998 -1.3705
  742MOL0     H97915  -2.643  -0.721   6.908 -2.0654 -2.4972 -1.4324
  742MOL0     H97916  -2.843  -0.593   6.712 -1.6200 -1.0276 -2.1357
  742MOL0     H97917  -2.783  -0.757   6.690  2.3502 -0.9671  1.6154
  742MOL0     H97918  -2.938  -0.687   6.946 -0.7606  0.4702  0.7673
  742MOL0     H97919  -2.927  -0.842   6.881  0.2942  0.6969 -0.3715
  742MOL0     H97920  -3.042  -0.788   6.692  2.8814 -1.1658  1.4070
  742MOL0     H97921  -3.074  -0.618   6.745 -0.6815  0.3003 -0.7883
  742MOL0     H97922  -3.172  -0.870   6.894 -0.3633 -1.3122 -5.5281
  742MOL0     H97923  -3.202  -0.691   6.936  2.2887  3.6627 -2.3007
  742MOL0     H97924  -3.281  -0.800   6.673 -1.8685 -2.2137  0.5562
  742MOL0     H97925  -3.317  -0.652   6.740 -0.1281 -0.9419 -4.8852
  742MOL0     H97926  -2.263  -0.531   7.020  1.8583  0.8273  1.6285
  742MOL0     H97927  -2.044  -0.503   7.088  1.0080  0.1713 -0.4232
  742MOL0     H97928  -1.601  -0.057   6.897  1.2354  1.7961  2.3297
  742MOL0     H97929  -1.360  -0.063   6.950 -1.7396  1.7279 -1.2534
  742MOL0     H97930   0.525   0.287   6.944 -1.8273 -0.6221 -1.1741
  742MOL0     H97931   0.722   0.405   6.872 -2.4478  0.1618  1.9324
  742MOL0     H97932   0.940   0.668   6.793 -0.5137  0.7273 -1.0741
  742MOL0     H97933   1.147   0.737   6.874  0.7383  0.6240  0.2751
  742MOL0     H97934   1.501   0.571   6.648 -2.7618 -0.1298  0.3796
  742MOL0     H97935   1.547   0.513   6.806  0.8696 -1.1787 -2.0107
  742MOL0     H97936   1.601   0.795   6.700  2.3666  0.1897 -2.2242
  742MOL0     H97937   1.621   0.754   6.871  2.5317  0.6981 -0.4433
  742MOL0     H97938   1.755   0.552   6.746 -1.4890  0.8370 -0.1599
  742MOL0     H97939   1.839   0.698   6.808  0.9965  0.2873  0.2111
  742MOL0     H97940   1.738   0.685   6.526 -1.3775  1.0155  0.5609
  742MOL0     H97941   1.835   0.814   6.602  1.0921 -0.3907 -0.2597
  742MOL0     H97942   2.137   0.565   6.475  0.6564  0.9605  0.9135
  742MOL0     H97943   1.349   0.449   6.615 -0.9671  0.1975 -1.0369
  742MOL0     H97944   1.136   0.372   6.539  0.6912  0.2478 -0.4876
  743MOL0     O97945   1.859   7.858   1.059 -0.2698  0.3582 -0.6218
  743MOL0     C97946   1.913   7.789   1.143  0.2881  0.3088 -0.3381
  743MOL0     O97947   1.854   7.688   1.207 -0.1652  0.0032  0.2966
  743MOL0     C97948   1.730   7.653   1.173 -0.1310  0.1587 -1.0656
  743MOL0     C97949   1.696   7.619   1.046  0.1688  0.9462 -0.1227
  743MOL0     C97950   1.569   7.567   1.021  0.1854 -0.7183 -0.0541
  743MOL0     C97951   1.471   7.566   1.121 -0.0772  0.3549  0.9657
  743MOL0     O97952   1.352   7.508   1.082 -0.0532 -0.2219  0.3056
  743MOL0     C97953   1.249   7.499   1.183 -0.6913  0.4244  0.8579
  743MOL0     C97954   1.132   7.420   1.136 -0.6982 -0.4946  0.0816
  743MOL0     C97955   1.032   7.510   1.060  0.4834  0.1474  0.4811
  743MOL0     C97956   0.917   7.426   1.002 -0.8083 -0.2184 -0.3695
  743MOL0     C97957   0.820   7.501   0.908 -0.0075  0.2061 -0.0728
  743MOL0     C97958   0.699   7.404   0.889 -0.4204 -0.0940  0.0542
  743MOL0     C97959   0.625   7.459   0.770 -0.3913  0.4329  0.5215
  743MOL0     C97960   0.520   7.356   0.723 -0.3674 -0.1108  0.4063
  743MOL0     N97961   0.426   7.311   0.833  0.0941 -0.6058  0.7587
  743MOL0     C97962   0.334   7.391   0.899 -0.3846 -1.2078 -0.4409
  743MOL0     C97963   0.294   7.314   1.006  0.4027 -0.1446 -0.0930
  743MOL0     C97964   0.191   7.358   1.101  0.7544 -0.2760 -0.1752
  743MOL0     C97965   0.056   7.403   1.037  0.1585  1.0292  0.5651
  743MOL0     C97966  -0.055   7.427   1.137  0.0630  0.4007 -0.1702
  743MOL0     C97967  -0.175   7.471   1.053 -0.1317 -1.0159  0.3156
  743MOL0     O97968  -0.276   7.506   1.135  0.1264 -0.1856 -0.4350
  743MOL0     C97969  -0.383   7.582   1.097 -0.2005  0.6337  0.8864
  743MOL0     C97970  -0.460   7.569   0.982  0.3604  0.4729  0.0803
  743MOL0     C97971  -0.579   7.639   0.957 -0.4391  0.1766  0.0301
  743MOL0     C97972  -0.616   7.740   1.045  0.1658 -0.0515  0.0497
  743MOL0     C97973  -0.736   7.836   1.029  0.2077  0.1909  0.1361
  743MOL0     O97974  -0.833   7.796   0.939 -0.2270  0.2195  0.3338
  743MOL0     C97975  -0.960   7.849   0.946  0.1928 -0.3196  0.0308
  743MOL0     C97976  -1.026   7.876   1.068  0.2470 -0.1711 -0.0662
  743MOL0     C97977  -1.165   7.921   1.070  0.0654 -0.5322 -1.2670
  743MOL0     C97978  -1.235   7.924   0.948  0.1393  0.9770 -0.0493
  743MOL0     O97979  -1.366   7.957   0.938 -0.4098 -0.2517 -0.0396
  743MOL0     C97980  -1.449   7.869   1.015 -0.3219  0.6693 -0.0121
  743MOL0     C97981  -1.595   7.884   0.972  0.6724 -0.1734 -0.7807
  743MOL0     C97982  -1.628   7.883   0.820 -0.0795 -0.6046 -0.4635
  743MOL0     C97983  -1.786   7.904   0.793  0.0293 -0.4462  0.1387
  743MOL0     C97984  -1.838   7.867   0.649 -0.4304  0.4130 -0.5703
  743MOL0     C97985  -1.987   7.911   0.639 -1.1065  0.5191  0.0794
  743MOL0     C97986  -2.040   7.871   0.502  0.1516 -0.5522  0.3030
  743MOL0     C97987  -2.189   7.899   0.492 -0.1868 -0.0725  0.3683
  743MOL0    Cl97988  -2.253   7.811   0.348 -0.2802 -0.0621  0.1028
  743MOL0     C97989  -1.170   7.898   0.826  0.4250  0.0772  0.6123
  743MOL0     C97990  -1.032   7.863   0.827 -0.4596  0.1916  0.0899
  743MOL0     O97991  -0.743   7.928   1.107 -0.1907 -0.2039 -0.4069
  743MOL0     C97992  -0.541   7.758   1.164  0.7301  0.0407 -0.5445
  743MOL0     C97993  -0.435   7.665   1.195 -0.1251 -0.4608  0.2218
  743MOL0     N97994   0.350   7.192   0.998  0.8149  0.4649 -0.1764
  743MOL0     N97995   0.418   7.188   0.889  0.0292 -0.3095  0.0350
  743MOL0     C97996   1.502   7.615   1.245 -0.8710 -0.1417 -0.2387
  743MOL0     C97997   1.634   7.640   1.275 -0.0751 -0.0265  0.1349
  743MOL0     C97998   2.057   7.821   1.185 -0.1472  0.4122  0.0508
  743MOL0     C97999   2.141   7.906   1.115  0.6419 -0.6307  0.5455
  743MOL0     C98000   2.266   7.935   1.155 -0.3866  0.3867 -0.1504
  743MOL0     C98001   2.318   7.866   1.264 -0.9215  0.2176 -0.5414
  743MOL0     O98002   2.442   7.905   1.304 -0.3366  0.2991  0.3356
  743MOL0     C98003   2.459   7.931   1.444  0.1999  0.3410  0.1616
  743MOL0     C98004   2.566   8.032   1.452 -0.3972 -0.0220 -1.1656
  743MOL0     C98005   2.636   8.031   1.596  0.0950 -0.4555 -0.9603
  743MOL0     C98006   2.758   8.126   1.586  0.5727 -0.7868  0.2192
  743MOL0     C98007   2.715   8.272   1.577  0.0492  0.3549  0.3748
  743MOL0     C98008   2.678   8.386   1.576 -0.3688 -0.0883 -0.2456
  743MOL0     C98009   2.245   7.768   1.333 -0.3468 -0.2017  0.2593
  743MOL0     C98010   2.116   7.753   1.298  1.2367 -0.3599  0.4670
  743MOL0     H98011   1.756   7.637   0.957  0.7009 -0.0555  0.0227
  743MOL0     H98012   1.558   7.513   0.927 -0.4342 -0.4477 -0.1417
  743MOL0     H98013   1.220   7.598   1.220 -0.9596  0.3738  0.7838
  743MOL0     H98014   1.301   7.454   1.269  0.4281 -1.2603 -0.6243
  743MOL0     H98015   1.085   7.391   1.231 -0.4025  0.2780  0.4777
  743MOL0     H98016   1.164   7.327   1.088 -1.2631 -0.7677  0.2193
  743MOL0     H98017   1.082   7.552   0.972  0.3642  0.8406  0.7351
  743MOL0     H98018   0.989   7.595   1.114 -1.3611 -0.2746 -0.2467
  743MOL0     H98019   0.971   7.350   0.944  2.1592  1.2195  0.3288
  743MOL0     H98020   0.851   7.383   1.078 -3.1907  3.0299 -0.4148
  743MOL0     H98021   0.864   7.532   0.813  0.7102 -0.8700 -0.1092
  743MOL0     H98022   0.783   7.595   0.951  3.4025  1.7440 -0.2192
  743MOL0     H98023   0.637   7.406   0.979  1.7075  1.7846  1.6162
  743MOL0     H98024   0.731   7.300   0.872  2.1477  0.8081 -1.3057
  743MOL0     H98025   0.560   7.543   0.796  1.0659  1.5825  0.5571
  743MOL0     H98026   0.697   7.479   0.690 -0.0673 -3.3073 -0.3029
  743MOL0     H98027   0.568   7.269   0.677  0.5222  0.2257  0.6759
  743MOL0     H98028   0.457   7.398   0.645 -1.8233 -1.1118  1.0084
  743MOL0     H98029   0.313   7.496   0.885  0.9523 -0.8167  0.3471
  743MOL0     H98030   0.232   7.438   1.164 -0.2967 -0.4252  0.7152
  743MOL0     H98031   0.174   7.273   1.167  0.0006 -1.1788 -1.4788
  743MOL0     H98032   0.023   7.336   0.957  0.6743  0.7490  0.5807
  743MOL0     H98033   0.072   7.499   0.987  1.4807 -0.5116 -2.2607
  743MOL0     H98034  -0.075   7.339   1.199  0.9874  0.8663  0.8389
  743MOL0     H98035  -0.024   7.498   1.215 -0.8571 -0.7741  1.3300
  743MOL0     H98036  -0.216   7.386   0.997  0.8439 -1.8894  0.8925
  743MOL0     H98037  -0.143   7.555   0.992  0.3187 -0.8746  0.7388
  743MOL0     H98038  -0.421   7.500   0.908 -2.8530  0.2601 -1.5776
  743MOL0     H98039  -0.646   7.629   0.872  2.1617 -1.9880 -1.9233
  743MOL0     H98040  -0.973   7.864   1.161 -0.7817  0.0095  0.5606
  743MOL0     H98041  -1.222   7.934   1.162  1.7574 -0.2410 -0.2221
  743MOL0     H98042  -1.434   7.902   1.118  3.3833  2.5996 -0.9702
  743MOL0     H98043  -1.410   7.769   0.996  0.9586  1.1133  0.1729
  743MOL0     H98044  -1.634   7.977   1.014  2.2416 -0.0720  0.5537
  743MOL0     H98045  -1.652   7.802   1.016  0.5567 -1.1473 -2.6474
  743MOL0     H98046  -1.575   7.803   0.767  2.3909  0.0957  0.8089
  743MOL0     H98047  -1.582   7.973   0.778 -2.8363 -0.5398 -3.7693
  743MOL0     H98048  -1.834   7.842   0.869 -0.1049 -1.1700 -0.5262
  743MOL0     H98049  -1.814   8.007   0.815 -1.9773 -0.5800 -1.5065
  743MOL0     H98050  -1.811   7.763   0.629 -0.1808  0.4419 -0.3986
  743MOL0     H98051  -1.770   7.914   0.578  2.2590 -1.6413  0.4807
  743MOL0     H98052  -2.000   8.018   0.656  0.3150  0.4613  1.7224
  743MOL0     H98053  -2.048   7.856   0.711 -1.1405  0.6149  0.1248
  743MOL0     H98054  -1.983   7.929   0.429 -0.3200 -1.9228 -1.2041
  743MOL0     H98055  -2.017   7.767   0.477 -0.3470 -0.5415 -0.2098
  743MOL0     H98056  -2.208   8.006   0.487  0.2282 -0.0496 -2.1278
  743MOL0     H98057  -2.238   7.853   0.578 -1.1244 -2.7005 -1.4514
  743MOL0     H98058  -1.227   7.909   0.734 -1.9956  0.3279  2.0462
  743MOL0     H98059  -0.978   7.864   0.733 -3.2665  1.0194 -1.6480
  743MOL0     H98060  -0.559   7.843   1.228 -3.4134 -1.2268  0.2792
  743MOL0     H98061  -0.381   7.662   1.289 -2.5182  0.4547  1.7107
  743MOL0     H98062   1.419   7.629   1.314 -0.3131 -0.8584  0.5936
  743MOL0     H98063   1.651   7.663   1.380 -0.8051  1.1977  0.0122
  743MOL0     H98064   2.101   7.952   1.025  0.3391 -4.3282 -1.3694
  743MOL0     H98065   2.320   8.008   1.094 -2.8974  0.7730 -2.1156
  743MOL0     H98066   2.477   7.839   1.499  1.1553  0.5776  0.2698
  743MOL0     H98067   2.365   7.969   1.485  0.0345 -1.5784  1.6322
  743MOL0     H98068   2.636   8.012   1.370  0.8128 -0.3973 -0.0671
  743MOL0     H98069   2.517   8.130   1.443 -2.0826 -0.8664 -1.5565
  743MOL0     H98070   2.663   7.928   1.623 -1.6044 -0.7147 -0.0879
  743MOL0     H98071   2.565   8.074   1.667  0.0047 -2.8375  0.5140
  743MOL0     H98072   2.809   8.120   1.683 -1.4092  1.7548  1.5783
  743MOL0     H98073   2.825   8.107   1.502  1.0344  0.3610  0.3109
  743MOL0     H98074   2.624   8.477   1.559 -0.1261  0.3827  1.3904
  743MOL0     H98075   2.283   7.708   1.415 -0.3471 -0.7855 -0.1546
  743MOL0     H98076   2.058   7.678   1.351  0.9826 -2.0458 -2.0057
  744MOL0     O98077   1.040   9.870   2.271 -0.0896 -0.8102  0.1558
  744MOL0     C98078   1.134   9.799   2.241  0.2454 -0.4515  0.0645
  744MOL0     O98079   1.122   9.665   2.223  0.1460 -0.2071  0.4036
  744MOL0     C98080   0.990   9.613   2.229 -0.5784 -0.5495 -0.4743
  744MOL0     C98081   0.966   9.533   2.349  0.1247 -0.3999 -0.8352
  744MOL0     C98082   0.848   9.465   2.365 -0.5298  0.9891 -0.0433
  744MOL0     C98083   0.743   9.476   2.276 -0.3222  0.4464  0.4214
  744MOL0     O98084   0.635   9.395   2.293 -0.1911  0.1807 -0.1292
  744MOL0     C98085   0.537   9.409   2.192  1.0023 -0.0732  1.3052
  744MOL0     C98086   0.410   9.347   2.242 -0.7513  0.0607  0.0401
  744MOL0     C98087   0.377   9.210   2.181  0.7198 -0.2382 -0.4964
  744MOL0     C98088   0.478   9.104   2.211  0.9204 -0.3601  0.4199
  744MOL0     C98089   0.541   9.047   2.089 -0.2345 -0.1614  0.4244
  744MOL0     C98090   0.431   8.986   1.993  0.1721  0.0244  0.3801
  744MOL0     C98091   0.495   8.890   1.888 -0.3740  0.1765 -0.1536
  744MOL0     C98092   0.457   8.918   1.740  0.5620  0.0317  0.7766
  744MOL0     N98093   0.312   8.883   1.724 -0.3150 -0.0073 -0.1829
  744MOL0     C98094   0.271   8.768   1.678  0.9768 -0.0179  0.2683
  744MOL0     C98095   0.131   8.779   1.663 -0.5380 -0.3278 -0.0210
  744MOL0     C98096   0.028   8.675   1.629 -0.6805 -0.1414  0.7884
  744MOL0     C98097   0.066   8.540   1.689 -0.2018 -0.0356 -0.5525
  744MOL0     C98098  -0.021   8.428   1.624  0.5193  0.3606 -0.2339
  744MOL0     C98099  -0.173   8.427   1.668 -0.5622 -0.5545  0.4259
  744MOL0     O98100  -0.196   8.362   1.790 -0.0590 -0.0950  0.5880
  744MOL0     C98101  -0.326   8.385   1.840  0.2605 -0.0770 -0.7512
  744MOL0     C98102  -0.354   8.437   1.968  0.2942 -0.0961 -0.2892
  744MOL0     C98103  -0.479   8.441   2.018  0.4844 -0.2308 -0.2696
  744MOL0     C98104  -0.592   8.393   1.947 -0.6848  1.1551 -0.1713
  744MOL0     C98105  -0.732   8.398   2.006 -0.8745  0.1138 -0.2200
  744MOL0     O98106  -0.832   8.335   1.941  0.2357 -0.0732  0.3436
  744MOL0     C98107  -0.955   8.350   1.991  0.6696  0.3661 -1.1503
  744MOL0     C98108  -1.009   8.292   2.121  0.0885 -0.4603  0.0229
  744MOL0     C98109  -1.144   8.306   2.159  0.2372 -0.0530 -0.8725
  744MOL0     C98110  -1.231   8.383   2.076  0.0117 -0.2336  0.3340
  744MOL0     O98111  -1.366   8.404   2.093 -0.0511 -0.4077  0.8064
  744MOL0     C98112  -1.429   8.357   2.210  0.0973  0.3479 -0.3255
  744MOL0     C98113  -1.567   8.426   2.222  0.1574  0.2937 -0.7363
  744MOL0     C98114  -1.647   8.377   2.348 -0.5877  0.3022  0.0703
  744MOL0     C98115  -1.727   8.251   2.319 -1.1758  0.1012  0.8385
  744MOL0     C98116  -1.787   8.193   2.443  0.3116  0.1964 -0.4181
  744MOL0     C98117  -1.898   8.093   2.421  0.0903 -0.1504  0.8616
  744MOL0     C98118  -1.972   8.054   2.552 -0.0890 -0.1838  0.1201
  744MOL0     C98119  -2.123   8.032   2.554 -0.7556 -0.3071 -0.9834
  744MOL0    Cl98120  -2.207   8.187   2.523  0.2548 -0.1555 -0.3289
  744MOL0     C98121  -1.180   8.439   1.959  0.5387  0.0861  0.1309
  744MOL0     C98122  -1.046   8.423   1.912 -0.4826  0.5474  0.1956
  744MOL0     O98123  -0.738   8.459   2.115 -0.1371  0.4994  0.6241
  744MOL0     C98124  -0.557   8.346   1.814 -0.8438 -0.0479 -0.4313
  744MOL0     C98125  -0.430   8.346   1.763 -0.2935  0.6235  0.0530
  744MOL0     N98126   0.104   8.912   1.698 -0.3528 -0.8764 -0.9349
  744MOL0     N98127   0.207   8.970   1.746 -0.0876  0.4597 -0.6911
  744MOL0     C98128   0.771   9.547   2.156 -0.1243  0.0233 -0.0707
  744MOL0     C98129   0.893   9.619   2.138  0.7994  0.0592  0.6473
  744MOL0     C98130   1.266   9.865   2.212 -0.9927  0.4725 -0.0467
  744MOL0     C98131   1.372   9.794   2.159 -0.1542 -1.1796 -1.2115
  744MOL0     C98132   1.487   9.858   2.120 -0.0141  0.9266 -0.4030
  744MOL0     C98133   1.506   9.998   2.129  0.1615 -0.8756  0.1550
  744MOL0     O98134   1.617  10.066   2.070 -0.8113 -0.2983  0.2032
  744MOL0     C98135   1.748  10.001   2.095  0.8456  0.3776 -0.2546
  744MOL0     C98136   1.859  10.087   2.039 -0.1390  0.2962  0.4031
  744MOL0     C98137   1.855  10.107   1.883 -0.8583 -0.2068 -0.5863
  744MOL0     C98138   1.934  10.232   1.830 -0.3018  0.5289  0.4314
  744MOL0     C98139   2.070  10.215   1.849 -0.2349  0.0902 -0.0829
  744MOL0     C98140   2.195  10.214   1.874  0.4830 -0.3335  0.9574
  744MOL0     C98141   1.391  10.068   2.157  0.1241  0.2886  0.3979
  744MOL0     C98142   1.280  10.007   2.205  0.2429 -0.0493 -0.7660
  744MOL0     H98143   1.037   9.543   2.431 -2.2619  1.2848  1.1895
  744MOL0     H98144   0.845   9.404   2.455  2.2224 -1.9634 -1.7479
  744MOL0     H98145   0.557   9.377   2.089 -0.3498  1.5736  0.4880
  744MOL0     H98146   0.507   9.513   2.181  0.0668 -0.5586 -1.6127
  744MOL0     H98147   0.328   9.414   2.214 -0.8888 -0.2170 -0.2234
  744MOL0     H98148   0.410   9.337   2.351  2.7477  1.6133  0.3293
  744MOL0     H98149   0.351   9.223   2.075 -1.7257  0.8039  0.1554
  744MOL0     H98150   0.281   9.170   2.216  1.1863 -1.0304 -0.1021
  744MOL0     H98151   0.561   9.146   2.268  0.1255  2.9038 -0.5918
  744MOL0     H98152   0.421   9.023   2.257  1.6932 -1.1316  0.0404
  744MOL0     H98153   0.607   8.969   2.127  1.1622  0.3995 -0.7714
  744MOL0     H98154   0.599   9.119   2.031  1.7271 -1.1011  1.1439
  744MOL0     H98155   0.402   9.077   1.939  2.5972  0.4780 -0.2709
  744MOL0     H98156   0.351   8.936   2.048 -0.3056  0.1767 -0.1671
  744MOL0     H98157   0.604   8.893   1.890 -0.3381 -0.7875  0.0988
  744MOL0     H98158   0.477   8.787   1.922 -1.6814  0.0704 -1.0927
  744MOL0     H98159   0.527   8.862   1.678  0.4309  0.6868  0.0167
  744MOL0     H98160   0.480   9.023   1.717 -0.5173  0.0524 -0.2791
  744MOL0     H98161   0.332   8.680   1.658 -1.1915 -0.9999 -2.7728
  744MOL0     H98162   0.020   8.681   1.520 -1.2890  3.8451  0.9045
  744MOL0     H98163  -0.068   8.710   1.670 -1.8919 -1.3424 -0.8678
  744MOL0     H98164   0.069   8.527   1.798  0.8870 -0.9298 -0.6664
  744MOL0     H98165   0.171   8.518   1.668 -0.7069 -2.4957 -0.8338
  744MOL0     H98166  -0.012   8.430   1.515 -2.2041  1.2393 -0.5274
  744MOL0     H98167   0.014   8.328   1.652 -1.0939 -0.2216 -0.1697
  744MOL0     H98168  -0.233   8.370   1.596 -0.3724 -1.2569  0.8181
  744MOL0     H98169  -0.202   8.532   1.670 -1.0861 -0.5551 -2.4905
  744MOL0     H98170  -0.275   8.478   2.030  0.4795 -1.0848  0.1406
  744MOL0     H98171  -0.492   8.493   2.112 -0.2572  0.0032 -0.4985
  744MOL0     H98172  -0.961   8.238   2.201 -2.0106  0.7172  2.2154
  744MOL0     H98173  -1.166   8.261   2.255 -2.1173 -1.2171 -1.8730
  744MOL0     H98174  -1.370   8.377   2.300  0.6453  1.8479 -0.9888
  744MOL0     H98175  -1.449   8.249   2.210  2.1641 -0.1198 -2.2744
  744MOL0     H98176  -1.617   8.397   2.129  0.8653 -0.5309 -0.8795
  744MOL0     H98177  -1.545   8.533   2.223 -1.9723  0.7774  0.8728
  744MOL0     H98178  -1.710   8.452   2.397  1.9378  1.3507  1.9176
  744MOL0     H98179  -1.572   8.351   2.423  0.6126 -0.1679 -1.2514
  744MOL0     H98180  -1.800   8.268   2.240  0.2990  2.1193 -0.1674
  744MOL0     H98181  -1.655   8.185   2.269 -2.2786  0.3036 -1.1100
  744MOL0     H98182  -1.839   8.278   2.490  0.8144  0.2418  0.0679
  744MOL0     H98183  -1.707   8.152   2.505 -0.9595  0.3437  1.4157
  744MOL0     H98184  -1.864   8.007   2.363 -0.0591  1.6554 -2.0816
  744MOL0     H98185  -1.987   8.133   2.371  0.2398 -0.7259  0.1269
  744MOL0     H98186  -1.912   7.967   2.580  2.0593  0.4782 -2.1021
  744MOL0     H98187  -1.940   8.128   2.627  0.0531 -0.7131  0.5878
  744MOL0     H98188  -2.153   7.992   2.651 -1.6123  0.7680 -0.7873
  744MOL0     H98189  -2.146   7.962   2.473  1.2454 -0.6068 -1.3502
  744MOL0     H98190  -1.250   8.492   1.896 -1.9993 -3.4896 -0.3730
  744MOL0     H98191  -1.007   8.475   1.825  0.9826  1.0195  1.0998
  744MOL0     H98192  -0.637   8.324   1.743 -2.1895  1.2726  0.6179
  744MOL0     H98193  -0.420   8.295   1.668 -0.9008  0.7345 -0.0738
  744MOL0     H98194   0.696   9.564   2.080 -2.0405  1.4940  2.0240
  744MOL0     H98195   0.904   9.672   2.044  0.3587  0.0990  0.6137
  744MOL0     H98196   1.352   9.688   2.152  3.2457 -1.8347 -3.3541
  744MOL0     H98197   1.556   9.795   2.066 -2.3285 -0.8405 -1.4867
  744MOL0     H98198   1.748   9.901   2.050 -2.3050  0.4722 -0.6854
  744MOL0     H98199   1.755   9.991   2.204 -1.0034  0.6996 -0.0687
  744MOL0     H98200   1.858  10.183   2.092 -1.6049  0.5858 -0.1086
  744MOL0     H98201   1.948  10.030   2.067 -0.8830 -0.7147  0.7939
  744MOL0     H98202   1.749  10.117   1.857 -0.6597  1.9776 -0.7123
  744MOL0     H98203   1.893  10.017   1.834 -1.1425 -0.4020 -0.4449
  744MOL0     H98204   1.915  10.243   1.723  1.8034  2.9959  0.2161
  744MOL0     H98205   1.894  10.322   1.876 -0.9630 -0.2135  1.3675
  744MOL0     H98206   2.296  10.212   1.909  1.1099  0.2439 -0.7517
  744MOL0     H98207   1.404  10.176   2.159  3.0719  0.0038  0.7007
  744MOL0     H98208   1.196  10.063   2.246 -2.3055 -1.2751 -3.9279
  745MOL0     O98209   8.554  10.477   0.166  0.2653  0.1112  0.3794
  745MOL0     C98210   8.602  10.535   0.067 -1.5001  0.0456  0.0589
  745MOL0     O98211   8.556  10.522  -0.063  0.3768 -0.3786 -0.2900
  745MOL0     C98212   8.494  10.400  -0.106 -0.0840  0.3644  0.6055
  745MOL0     C98213   8.502  10.279  -0.040 -0.2848 -0.1921 -0.0266
  745MOL0     C98214   8.440  10.164  -0.094  0.0617  0.2417 -0.8998
  745MOL0     C98215   8.368  10.174  -0.216  0.3412 -0.7420 -0.2705
  745MOL0     O98216   8.295  10.062  -0.253 -0.8379 -0.0689  0.6175
  745MOL0     C98217   8.166  10.084  -0.302  0.4163  0.0431 -0.1006
  745MOL0     C98218   8.089   9.960  -0.326  0.0375  1.1254  0.2260
  745MOL0     C98219   7.948  10.012  -0.359  0.1565  0.6661  0.8520
  745MOL0     C98220   7.866   9.889  -0.412  0.1279 -0.6830 -0.1789
  745MOL0     C98221   7.729   9.929  -0.474  1.2341 -0.2505  0.3821
  745MOL0     C98222   7.643   9.803  -0.505 -0.6518  0.3706  0.1113
  745MOL0     C98223   7.512   9.857  -0.567 -0.3336  0.0924 -0.4829
  745MOL0     C98224   7.409   9.922  -0.476 -0.0951  0.3655  0.2884
  745MOL0     N98225   7.286   9.935  -0.550 -0.1672 -0.2234  0.8193
  745MOL0     C98226   7.171   9.855  -0.538 -0.0022  0.3978  0.9799
  745MOL0     C98227   7.076   9.901  -0.626 -0.4750  0.6955 -0.6627
  745MOL0     C98228   6.932   9.850  -0.639 -0.4905 -1.3616 -0.3324
  745MOL0     C98229   6.841   9.932  -0.741 -0.3775 -0.0926 -0.3940
  745MOL0     C98230   6.702   9.870  -0.751 -0.4620  0.4566  0.2265
  745MOL0     C98231   6.609   9.889  -0.640  0.6079 -0.3081 -0.8275
  745MOL0     O98232   6.589  10.025  -0.598 -0.2343 -0.4058 -0.2129
  745MOL0     C98233   6.451  10.052  -0.615  0.1135 -0.4597 -0.8472
  745MOL0     C98234   6.364  10.030  -0.510  0.3521  0.7375 -0.1082
  745MOL0     C98235   6.225  10.061  -0.521 -1.1507 -0.8076  0.5546
  745MOL0     C98236   6.162  10.109  -0.640 -1.3048  0.9494 -0.7095
  745MOL0     C98237   6.026  10.151  -0.646  0.1041  0.4104 -0.1527
  745MOL0     O98238   5.957  10.111  -0.537  0.4626  0.6259  0.4706
  745MOL0     C98239   5.820  10.091  -0.533  0.1269  0.4472  0.0223
  745MOL0     C98240   5.723  10.179  -0.591 -0.4255  0.8123  0.7828
  745MOL0     C98241   5.588  10.132  -0.597 -0.2896  0.0871 -0.0026
  745MOL0     C98242   5.554  10.024  -0.525 -0.5925 -0.0190  0.4319
  745MOL0     O98243   5.427   9.974  -0.524  0.5304 -1.1435 -0.4973
  745MOL0     C98244   5.332  10.027  -0.617  0.5236 -0.3639  1.0135
  745MOL0     C98245   5.217   9.933  -0.607 -0.0545  0.1700 -0.2562
  745MOL0     C98246   5.152   9.904  -0.476 -0.8254  0.3878  0.8589
  745MOL0     C98247   5.025   9.814  -0.512 -0.5165  0.1649  0.1475
  745MOL0     C98248   4.972   9.734  -0.392  0.1048  0.2364  0.5950
  745MOL0     C98249   4.823   9.692  -0.406 -1.0716 -0.7250 -0.6851
  745MOL0     C98250   4.766   9.592  -0.306  0.6177 -1.1191 -0.4629
  745MOL0     C98251   4.860   9.524  -0.207 -0.3789 -0.6349  0.0299
  745MOL0    Cl98252   4.755   9.470  -0.072  0.4639  0.2792 -0.3913
  745MOL0     C98253   5.645   9.943  -0.460  0.0548  0.0637 -0.1182
  745MOL0     C98254   5.780   9.976  -0.467  0.5520 -0.7488 -0.2352
  745MOL0     O98255   5.985  10.226  -0.729  1.0753 -0.0516  0.3399
  745MOL0     C98256   6.247  10.114  -0.751 -0.1459 -0.0126 -0.4913
  745MOL0     C98257   6.389  10.090  -0.734 -0.8518  1.3828  0.4680
  745MOL0     N98258   7.142  10.002  -0.694 -0.4599  0.3563 -0.1787
  745MOL0     N98259   7.268  10.023  -0.653  0.2261 -0.0751  0.5250
  745MOL0     C98260   8.362  10.300  -0.286 -0.5990 -0.1368 -0.3383
  745MOL0     C98261   8.432  10.411  -0.228 -0.4302 -0.5891  0.3161
  745MOL0     C98262   8.691  10.652   0.110  0.1247  0.4462  0.1757
  745MOL0     C98263   8.731  10.751   0.017  0.2818  0.1043 -0.2087
  745MOL0     C98264   8.828  10.851   0.047  0.3307  0.7812 -0.5699
  745MOL0     C98265   8.872  10.850   0.183 -0.0656  0.1267  0.6484
  745MOL0     O98266   8.948  10.958   0.215 -0.0497 -0.2242 -0.0990
  745MOL0     C98267   9.078  10.919   0.264  0.6467 -1.2197  1.0061
  745MOL0     C98268   9.121  11.034   0.353 -0.1472  0.4294 -0.1927
  745MOL0     C98269   9.042  11.048   0.486  0.3435 -0.4517  0.3807
  745MOL0     C98270   9.024  11.192   0.518 -0.0417 -0.5043  0.4481
  745MOL0     C98271   9.162  11.259   0.531 -0.8234  0.8091  0.5876
  745MOL0     C98272   9.278  11.293   0.556  0.1767  0.1308 -0.3600
  745MOL0     C98273   8.822  10.772   0.278  0.6778  0.0750  0.7909
  745MOL0     C98274   8.740  10.664   0.240  0.4166  0.2341 -0.7614
  745MOL0     H98275   8.548  10.270   0.057  0.7676 -2.3326 -0.6529
  745MOL0     H98276   8.464  10.067  -0.050 -1.6214 -0.0825 -0.5973
  745MOL0     H98277   8.180  10.136  -0.398  3.8689  0.5807  0.5567
  745MOL0     H98278   8.123  10.154  -0.230  3.2457  2.4565 -0.5782
  745MOL0     H98279   8.088   9.898  -0.237 -0.0793 -3.7634 -2.8301
  745MOL0     H98280   8.130   9.896  -0.405 -0.3120  0.4069  0.6247
  745MOL0     H98281   7.948  10.085  -0.441  0.5385  1.0332  1.1790
  745MOL0     H98282   7.898  10.048  -0.268  1.1095 -1.3137  2.2103
  745MOL0     H98283   7.931   9.827  -0.475 -0.8812  1.1153 -3.2483
  745MOL0     H98284   7.840   9.834  -0.322 -2.4831 -0.1180 -0.5298
  745MOL0     H98285   7.737   9.988  -0.566  2.1550 -2.8667 -1.3286
  745MOL0     H98286   7.679  10.001  -0.408 -0.5281 -1.6827  0.6960
  745MOL0     H98287   7.633   9.735  -0.420  0.8599  1.1545  0.9474
  745MOL0     H98288   7.690   9.734  -0.577 -3.4633 -0.3800 -1.1566
  745MOL0     H98289   7.541   9.924  -0.649  0.1097 -1.2809 -1.4728
  745MOL0     H98290   7.463   9.770  -0.612  0.9248 -1.4429  0.9860
  745MOL0     H98291   7.439  10.019  -0.434 -0.9411  1.2564 -1.0789
  745MOL0     H98292   7.394   9.855  -0.391  2.2576  1.5379  1.7523
  745MOL0     H98293   7.152   9.778  -0.465 -2.2760  0.2548  0.3137
  745MOL0     H98294   6.884   9.868  -0.543  2.1576  0.3200  0.7938
  745MOL0     H98295   6.934   9.743  -0.661 -2.5412 -1.5184  0.0736
  745MOL0     H98296   6.898   9.932  -0.834  2.5076  4.7316  1.0367
  745MOL0     H98297   6.844  10.037  -0.708  2.2681 -0.4929  0.8796
  745MOL0     H98298   6.659   9.909  -0.844 -0.7029  0.0857  0.1824
  745MOL0     H98299   6.716   9.764  -0.772  0.7892  1.0820 -2.5737
  745MOL0     H98300   6.634   9.829  -0.553 -0.6368  0.1985 -0.0941
  745MOL0     H98301   6.514   9.849  -0.675 -0.5504  3.1727 -2.0383
  745MOL0     H98302   6.394   9.984  -0.417  1.1029  0.9028 -0.2625
  745MOL0     H98303   6.167  10.054  -0.429  0.7609  1.4509  2.0582
  745MOL0     H98304   5.750  10.275  -0.632 -2.7198  0.6987 -1.2944
  745MOL0     H98305   5.519  10.193  -0.654  1.0363  0.3798 -1.3744
  745MOL0     H98306   5.360  10.023  -0.723 -0.0876 -1.0110  0.8699
  745MOL0     H98307   5.297  10.128  -0.596  1.7468  0.1152  0.8247
  745MOL0     H98308   5.236   9.833  -0.647 -2.0972  0.7632 -2.9967
  745MOL0     H98309   5.133   9.984  -0.654  0.0262  1.1805  0.6533
  745MOL0     H98310   5.126  10.001  -0.432 -0.0051  0.9929  0.0579
  745MOL0     H98311   5.221   9.849  -0.411  1.2545  0.0283 -1.5089
  745MOL0     H98312   4.951   9.882  -0.554  1.3092  0.9162 -2.0064
  745MOL0     H98313   5.046   9.755  -0.601  0.2738 -0.3342  0.6514
  745MOL0     H98314   4.977   9.801  -0.306 -0.7002  0.1220  0.7432
  745MOL0     H98315   5.039   9.647  -0.391 -0.4511 -0.2791 -1.3979
  745MOL0     H98316   4.807   9.651  -0.506  0.6799 -0.2290 -1.2103
  745MOL0     H98317   4.763   9.783  -0.394  0.8323  0.6141 -0.8297
  745MOL0     H98318   4.682   9.626  -0.244  1.2533  0.4783 -0.4493
  745MOL0     H98319   4.711   9.519  -0.366 -1.3846 -0.0069 -0.0670
  745MOL0     H98320   4.938   9.589  -0.164 -3.3982  1.7188  2.4617
  745MOL0     H98321   4.915   9.452  -0.268  0.6710  0.1127  0.0537
  745MOL0     H98322   5.613   9.865  -0.391 -1.4038 -1.2303 -2.1466
  745MOL0     H98323   5.849   9.907  -0.420 -0.1643 -2.6129 -1.8041
  745MOL0     H98324   6.207  10.133  -0.850 -0.2054 -4.3806 -1.5094
  745MOL0     H98325   6.455  10.106  -0.818 -0.3294 -3.2466 -0.2560
  745MOL0     H98326   8.316  10.304  -0.384 -0.9871 -3.3395 -0.4051
  745MOL0     H98327   8.441  10.494  -0.298  2.7881 -2.0336 -1.2068
  745MOL0     H98328   8.687  10.743  -0.082 -2.6163  0.3690  0.9746
  745MOL0     H98329   8.873  10.927  -0.016  1.7159  1.0062  0.6378
  745MOL0     H98330   9.148  10.905   0.181 -0.8169  1.1551 -0.7616
  745MOL0     H98331   9.064  10.830   0.325  1.1795 -0.7708  1.7962
  745MOL0     H98332   9.220  11.008   0.393 -1.3647 -0.5422  2.4641
  745MOL0     H98333   9.118  11.124   0.291 -0.4199  0.6665  0.1579
  745MOL0     H98334   9.094  10.993   0.565  2.0508 -1.8648 -1.6104
  745MOL0     H98335   8.940  11.010   0.481 -1.2891  3.2466  1.7200
  745MOL0     H98336   8.953  11.237   0.449 -0.1451  0.2136  1.0191
  745MOL0     H98337   8.970  11.191   0.613 -0.8178 -2.2844  0.0244
  745MOL0     H98338   9.378  11.317   0.587  0.4429 -1.6343  0.2506
  745MOL0     H98339   8.854  10.785   0.381  0.0269 -0.4074  1.0606
  745MOL0     H98340   8.710  10.584   0.306  0.7053 -1.0300 -2.1166
  746MOL0     O98341   7.101   4.860   8.169 -0.4371 -0.1917  0.3344
  746MOL0     C98342   7.090   4.839   8.047 -0.5811  0.4363  0.1308
  746MOL0     O98343   6.978   4.838   7.973  0.1668 -0.5853  0.1335
  746MOL0     C98344   6.859   4.856   8.037 -0.2187  1.3528 -0.7503
  746MOL0     C98345   6.808   4.752   8.126 -0.2208  0.4717  0.3541
  746MOL0     C98346   6.697   4.776   8.204  0.2340 -0.2216 -0.4816
  746MOL0     C98347   6.617   4.894   8.204 -0.0574 -1.1753 -0.2968
  746MOL0     O98348   6.515   4.899   8.294 -0.3698  0.2351  0.2798
  746MOL0     C98349   6.409   4.976   8.260  0.6027 -0.6222 -0.2752
  746MOL0     C98350   6.281   4.946   8.345 -0.6439  0.9263  0.2480
  746MOL0     C98351   6.302   4.970   8.499 -0.2315  0.5365  0.7331
  746MOL0     C98352   6.188   4.903   8.573 -0.1678  0.0834 -0.5020
  746MOL0     C98353   6.194   4.897   8.725 -0.4810  0.4275 -0.3552
  746MOL0     C98354   6.173   5.043   8.773 -0.5019 -0.0490 -0.2700
  746MOL0     C98355   6.155   5.045   8.936  0.0552  0.6764 -0.4589
  746MOL0     C98356   6.197   5.174   9.001 -0.1660  0.0573 -0.3719
  746MOL0     N98357   6.161   5.289   8.922  0.6647 -0.3766 -0.5532
  746MOL0     C98358   6.035   5.339   8.907 -0.0510 -0.5650  0.2466
  746MOL0     C98359   6.046   5.446   8.826  0.3699  0.8796  0.0725
  746MOL0     C98360   5.931   5.552   8.800  0.3736  0.0415 -0.0326
  746MOL0     C98361   5.869   5.515   8.660 -0.2208  0.2235  0.5055
  746MOL0     C98362   5.741   5.602   8.630  0.0875 -0.5846  0.3914
  746MOL0     C98363   5.685   5.557   8.503  0.3348  0.3150 -0.0657
  746MOL0     O98364   5.574   5.644   8.487 -0.1313 -0.0543  0.0670
  746MOL0     C98365   5.453   5.592   8.439  0.7713  0.5883  0.1482
  746MOL0     C98366   5.333   5.649   8.485  0.4185  0.1202 -0.5604
  746MOL0     C98367   5.207   5.594   8.446 -0.0170 -0.0042  0.3201
  746MOL0     C98368   5.200   5.491   8.350  0.4054 -0.4365 -0.0158
  746MOL0     C98369   5.069   5.434   8.311  0.1262 -0.4964 -1.0118
  746MOL0     O98370   4.958   5.502   8.355  0.2346  0.7467  0.1044
  746MOL0     C98371   4.835   5.450   8.308  0.0561  0.1252 -0.0854
  746MOL0     C98372   4.752   5.355   8.364 -0.0350 -0.4653 -0.0493
  746MOL0     C98373   4.633   5.313   8.299 -0.5019  0.7420 -0.2161
  746MOL0     C98374   4.592   5.366   8.178  0.2017  0.1895  1.4282
  746MOL0     O98375   4.470   5.319   8.134  0.5968 -0.0095  0.0441
  746MOL0     C98376   4.448   5.324   7.990 -0.2033  0.1740 -0.3469
  746MOL0     C98377   4.303   5.292   7.948 -0.7625 -0.2320  0.5889
  746MOL0     C98378   4.198   5.369   8.023 -0.2966  0.7526 -0.4980
  746MOL0     C98379   4.140   5.300   8.151  0.3576 -0.2874 -0.7320
  746MOL0     C98380   3.991   5.336   8.181 -0.0719  0.4698  0.2115
  746MOL0     C98381   3.950   5.265   8.309 -0.0415  0.5156 -0.0698
  746MOL0     C98382   3.815   5.308   8.364 -0.1178 -0.9172 -0.3459
  746MOL0     C98383   3.802   5.459   8.401  0.5165  0.7678 -0.9731
  746MOL0    Cl98384   3.949   5.509   8.491  0.0577  0.0986 -0.0068
  746MOL0     C98385   4.666   5.466   8.114  0.3895 -0.4636 -0.7520
  746MOL0     C98386   4.791   5.503   8.178  0.0624 -0.4167  0.2894
  746MOL0     O98387   5.063   5.333   8.241 -0.7260  0.1268 -0.9269
  746MOL0     C98388   5.314   5.432   8.306 -0.0973 -0.5270  0.1612
  746MOL0     C98389   5.441   5.477   8.355 -0.5674 -0.1322  0.5040
  746MOL0     N98390   6.175   5.465   8.792 -0.5024  0.6584  0.3082
  746MOL0     N98391   6.240   5.374   8.855 -0.9195 -0.6660  0.5797
  746MOL0     C98392   6.666   4.999   8.118 -0.2668 -0.2058 -0.2182
  746MOL0     C98393   6.784   4.974   8.039  0.0242  0.0027  0.1250
  746MOL0     C98394   7.218   4.825   7.980  0.9735  0.6428  0.6110
  746MOL0     C98395   7.212   4.798   7.845  0.0716 -0.1954  0.2397
  746MOL0     C98396   7.331   4.801   7.772  0.2826  0.3089  0.1102
  746MOL0     C98397   7.461   4.807   7.837  1.0257  0.2444  1.1223
  746MOL0     O98398   7.568   4.805   7.756 -0.2412  0.3648  0.5556
  746MOL0     C98399   7.685   4.736   7.798 -0.8573  0.6652 -0.4280
  746MOL0     C98400   7.685   4.583   7.753 -0.5601 -0.2596  0.0526
  746MOL0     C98401   7.832   4.526   7.760 -0.1924 -0.5470 -0.1168
  746MOL0     C98402   7.830   4.376   7.731 -1.0556  0.3754 -0.0638
  746MOL0     C98403   7.870   4.350   7.591  0.6753  0.0710  0.0669
  746MOL0     C98404   7.918   4.324   7.486 -0.0161 -0.9304  0.1774
  746MOL0     C98405   7.457   4.826   7.975  0.0207  0.0518  0.4747
  746MOL0     C98406   7.341   4.843   8.037  0.5946  0.2354 -0.3967
  746MOL0     H98407   6.866   4.661   8.141 -0.4718  0.2661  0.0883
  746MOL0     H98408   6.656   4.699   8.269 -0.9333  1.8313  1.3690
  746MOL0     H98409   6.389   4.960   8.154  0.9201 -0.2273 -0.3973
  746MOL0     H98410   6.435   5.082   8.260 -1.5321  0.0799  2.9524
  746MOL0     H98411   6.267   4.839   8.327 -1.0135  0.4083  3.2225
  746MOL0     H98412   6.190   4.999   8.318 -1.0445 -0.5215 -1.4513
  746MOL0     H98413   6.311   5.076   8.522  2.9404  0.2971  0.9632
  746MOL0     H98414   6.396   4.930   8.538 -0.6595 -2.5254 -1.0187
  746MOL0     H98415   6.095   4.957   8.555 -0.2722  0.2810  0.5656
  746MOL0     H98416   6.165   4.801   8.540  2.6933 -1.2643  1.2383
  746MOL0     H98417   6.285   4.852   8.766 -1.9691 -2.3305  0.1417
  746MOL0     H98418   6.101   4.849   8.758 -0.9138 -1.0968 -3.4528
  746MOL0     H98419   6.092   5.092   8.719 -0.4726 -1.6186 -1.8331
  746MOL0     H98420   6.266   5.098   8.754 -0.7682  0.6078  0.2998
  746MOL0     H98421   6.055   5.012   8.963  1.2112 -0.2373  3.1495
  746MOL0     H98422   6.227   4.967   8.962  1.7183  0.2343 -5.2549
  746MOL0     H98423   6.305   5.175   9.014 -0.0764  1.8382 -0.9568
  746MOL0     H98424   6.156   5.190   9.101  2.4658  3.2786  0.3852
  746MOL0     H98425   5.947   5.309   8.962  0.9181 -0.9251  1.6403
  746MOL0     H98426   5.984   5.648   8.792 -1.6214  1.2675  0.8253
  746MOL0     H98427   5.855   5.540   8.877  1.2502 -0.5082  0.7642
  746MOL0     H98428   5.842   5.409   8.650 -2.6794  0.9393 -1.8078
  746MOL0     H98429   5.942   5.521   8.579  0.3751 -3.7393  0.5252
  746MOL0     H98430   5.665   5.598   8.709 -0.0617 -0.4082  0.2559
  746MOL0     H98431   5.776   5.705   8.622 -0.4339 -0.5304 -1.6110
  746MOL0     H98432   5.658   5.453   8.519  2.5283 -0.1090  1.2056
  746MOL0     H98433   5.753   5.567   8.417 -0.8243 -1.0211 -1.1935
  746MOL0     H98434   5.339   5.732   8.554  2.6615 -1.3527  1.1550
  746MOL0     H98435   5.111   5.632   8.480  0.4090  0.7998  0.6529
  746MOL0     H98436   4.768   5.326   8.468 -2.3930  1.8986  1.0942
  746MOL0     H98437   4.577   5.234   8.346 -0.7663  1.7450  1.2138
  746MOL0     H98438   4.522   5.264   7.936 -0.1890  0.3101 -0.4785
  746MOL0     H98439   4.455   5.422   7.942  1.1167 -0.5573 -1.7308
  746MOL0     H98440   4.300   5.183   7.961  2.4019 -0.4543  0.4443
  746MOL0     H98441   4.296   5.320   7.843 -1.4147 -0.1176  0.6649
  746MOL0     H98442   4.115   5.384   7.953  0.3539  1.1371 -1.2001
  746MOL0     H98443   4.224   5.472   8.050 -1.6768  1.1127 -0.4887
  746MOL0     H98444   4.150   5.192   8.135  1.6474  0.0880 -2.7879
  746MOL0     H98445   4.199   5.333   8.237 -3.1993 -2.5966  2.9963
  746MOL0     H98446   3.925   5.298   8.102  0.0245 -0.4668  0.5694
  746MOL0     H98447   3.987   5.443   8.202 -0.5710  0.3502  0.7669
  746MOL0     H98448   4.022   5.270   8.391 -0.6607 -0.6161  0.5708
  746MOL0     H98449   3.931   5.161   8.284 -0.5165  0.6944 -0.4756
  746MOL0     H98450   3.733   5.267   8.304 -1.2098 -0.8348  1.0371
  746MOL0     H98451   3.807   5.242   8.451 -2.7483  1.4232  1.3326
  746MOL0     H98452   3.713   5.480   8.460  0.9575  1.2790 -0.4722
  746MOL0     H98453   3.794   5.513   8.306 -1.9924  0.4591 -0.9901
  746MOL0     H98454   4.636   5.523   8.027 -0.4629  0.2119 -0.0372
  746MOL0     H98455   4.834   5.594   8.136 -1.4223 -0.0122 -0.4117
  746MOL0     H98456   5.303   5.355   8.231 -3.3264 -0.1756  0.1373
  746MOL0     H98457   5.533   5.424   8.336 -1.2767 -0.8916 -0.9897
  746MOL0     H98458   6.637   5.103   8.129  0.1132 -0.2275  1.3124
  746MOL0     H98459   6.828   5.053   7.980 -1.0821 -0.7066 -1.7032
  746MOL0     H98460   7.116   4.796   7.795  0.0335 -2.9860  0.2726
  746MOL0     H98461   7.330   4.788   7.664 -0.6664  1.4303 -0.0422
  746MOL0     H98462   7.705   4.754   7.904  0.9163 -0.7054 -0.4807
  746MOL0     H98463   7.771   4.795   7.765  1.7413 -0.4651  3.6883
  746MOL0     H98464   7.619   4.528   7.821  0.0414 -0.0081  0.8518
  746MOL0     H98465   7.653   4.566   7.650  3.1515  1.2267 -1.5303
  746MOL0     H98466   7.873   4.554   7.857  1.0598  0.3096 -0.8651
  746MOL0     H98467   7.889   4.580   7.684 -1.1227 -0.4108 -0.7389
  746MOL0     H98468   7.904   4.328   7.797  1.3022  1.4960 -1.7216
  746MOL0     H98469   7.735   4.334   7.763 -0.4754  0.1122  1.3898
  746MOL0     H98470   7.949   4.308   7.385 -1.0513  0.4922 -0.4014
  746MOL0     H98471   7.550   4.842   8.028  1.1817  1.2630 -1.7745
  746MOL0     H98472   7.350   4.855   8.145  0.0527  0.3027 -0.3548
  747MOL0     O98473  10.132   2.195   9.760  0.2557  0.5255  0.3926
  747MOL0     C98474  10.151   2.314   9.725 -0.5696  1.1381  0.9940
  747MOL0     O98475  10.058   2.419   9.728 -0.0781  0.6269  0.0147
  747MOL0     C98476   9.924   2.382   9.750 -0.4235  0.8024 -0.0004
  747MOL0     C98477   9.864   2.301   9.652 -0.1729  0.9614 -0.1521
  747MOL0     C98478   9.732   2.248   9.682 -0.3912  0.3654  0.7555
  747MOL0     C98479   9.672   2.275   9.804  0.2285  0.2358 -0.2315
  747MOL0     O98480   9.543   2.218   9.843 -0.1434 -0.3063 -0.8086
  747MOL0     C98481   9.480   2.126   9.753 -0.9016 -0.7439 -0.6078
  747MOL0     C98482   9.333   2.114   9.805 -0.4421 -0.7588 -0.1514
  747MOL0     C98483   9.313   2.095   9.958 -0.7010 -0.3123 -0.3302
  747MOL0     C98484   9.168   2.069   9.995  0.6286  0.3496 -0.1583
  747MOL0     C98485   9.155   2.071  10.145 -0.0824  0.2849  0.5374
  747MOL0     C98486   9.005   2.029  10.162  0.5669 -0.5679  0.2467
  747MOL0     C98487   8.979   2.042  10.314 -0.0574  0.2749  0.5709
  747MOL0     C98488   8.842   1.963  10.351  0.0531 -0.0202  0.1095
  747MOL0     N98489   8.721   2.027  10.303  0.3870  1.1649  0.2031
  747MOL0     C98490   8.658   2.001  10.187 -0.2577  0.3127  0.9197
  747MOL0     C98491   8.569   2.106  10.182  0.5843  0.0772  0.1623
  747MOL0     C98492   8.474   2.129  10.066  0.8053 -0.3456 -0.2015
  747MOL0     C98493   8.553   2.139   9.930 -0.4735 -0.1689 -0.1041
  747MOL0     C98494   8.468   2.173   9.810 -0.4967  0.4640  0.4458
  747MOL0     C98495   8.356   2.065   9.788 -0.2267 -0.3930  0.4683
  747MOL0     O98496   8.397   1.939   9.733 -0.4122 -0.2856  0.1423
  747MOL0     C98497   8.310   1.838   9.704  1.3699 -0.2802  0.1490
  747MOL0     C98498   8.356   1.716   9.657 -0.3209  0.3464 -0.4624
  747MOL0     C98499   8.275   1.604   9.642  0.4144  0.5548 -0.2786
  747MOL0     C98500   8.136   1.611   9.672  0.3232 -0.7873  0.8298
  747MOL0     C98501   8.049   1.501   9.645 -0.6177  0.0808  0.0064
  747MOL0     O98502   7.916   1.509   9.665  0.5719  0.3169 -0.3386
  747MOL0     C98503   7.843   1.394   9.672 -0.0164  0.2607  0.5465
  747MOL0     C98504   7.714   1.394   9.609  0.8247  0.1240 -0.7450
  747MOL0     C98505   7.629   1.282   9.621 -0.3299 -0.2276  0.2058
  747MOL0     C98506   7.674   1.175   9.692  1.2828 -0.2250  0.0663
  747MOL0     O98507   7.591   1.060   9.697 -0.4745 -0.5085 -0.6622
  747MOL0     C98508   7.620   0.966   9.593 -0.4125  0.3608  0.6305
  747MOL0     C98509   7.525   0.853   9.557 -0.2387 -0.1850 -0.4178
  747MOL0     C98510   7.513   0.763   9.681 -0.4212  0.2641  0.3348
  747MOL0     C98511   7.406   0.657   9.660  0.5100 -1.1582  0.2651
  747MOL0     C98512   7.407   0.535   9.759 -0.1897  0.5181 -0.3465
  747MOL0     C98513   7.308   0.417   9.717 -0.3105 -0.7135  0.2251
  747MOL0     C98514   7.160   0.456   9.752 -0.3478 -0.4449  0.1008
  747MOL0     C98515   7.108   0.372   9.869  0.5276  0.2453  0.1018
  747MOL0    Cl98516   7.096   0.209   9.852 -0.2452 -0.2557  0.0562
  747MOL0     C98517   7.801   1.175   9.757  0.1422 -0.5362 -0.2772
  747MOL0     C98518   7.886   1.285   9.749 -0.5421  0.3696 -0.3884
  747MOL0     O98519   8.104   1.396   9.604 -0.3604 -0.5801  0.0383
  747MOL0     C98520   8.088   1.725   9.739 -0.0071  0.8744  0.1661
  747MOL0     C98521   8.172   1.842   9.747  0.2453 -0.5430 -0.6830
  747MOL0     N98522   8.552   2.161  10.307 -0.2884  0.0591 -0.1926
  747MOL0     N98523   8.644   2.113  10.380  0.2268  1.3156  0.1017
  747MOL0     C98524   9.728   2.367   9.895 -0.6978 -0.9597 -0.6544
  747MOL0     C98525   9.854   2.421   9.873 -0.7328  0.2017  0.7261
  747MOL0     C98526  10.294   2.354   9.688  0.0722 -0.1241 -0.2125
  747MOL0     C98527  10.342   2.486   9.700 -0.1989  0.1445 -0.1027
  747MOL0     C98528  10.470   2.523   9.654 -0.5849 -0.6239  0.2690
  747MOL0     C98529  10.553   2.415   9.603  0.0671  0.4631  0.0333
  747MOL0     O98530  10.668   2.435   9.531 -0.0882  0.0120 -0.2808
  747MOL0     C98531  10.754   2.550   9.561 -0.4218  0.4839 -0.0098
  747MOL0     C98532  10.896   2.498   9.560 -0.6608  0.5630 -0.0712
  747MOL0     C98533  11.005   2.614   9.600 -0.0778 -0.5821  0.5857
  747MOL0     C98534  11.145   2.556   9.572 -0.0033  0.0305  0.2107
  747MOL0     C98535  11.261   2.623   9.643  0.3396 -0.8742 -0.0702
  747MOL0     C98536  11.351   2.690   9.688 -0.5526 -0.3189  0.2050
  747MOL0     C98537  10.501   2.285   9.602 -0.5689 -0.9452  0.3852
  747MOL0     C98538  10.380   2.253   9.645 -0.4407 -0.2875 -0.4236
  747MOL0     H98539   9.904   2.265   9.558 -0.9287 -1.6817  0.4600
  747MOL0     H98540   9.701   2.182   9.602 -0.6565  0.6721  0.6048
  747MOL0     H98541   9.515   2.024   9.768  0.7643 -0.0654  0.4565
  747MOL0     H98542   9.482   2.165   9.651  0.1774  2.7874  0.5846
  747MOL0     H98543   9.287   2.033   9.748 -0.7366 -0.8054  0.1483
  747MOL0     H98544   9.268   2.200   9.791  1.4053  0.7282 -0.0701
  747MOL0     H98545   9.342   2.188  10.007  0.7388 -0.2926 -1.1700
  747MOL0     H98546   9.372   2.013  10.001 -0.9272 -0.2963  0.0165
  747MOL0     H98547   9.107   2.151   9.955  1.4161  1.3588  0.6562
  747MOL0     H98548   9.140   1.971   9.955 -0.1517 -0.9717  3.2998
  747MOL0     H98549   9.157   2.176  10.178  1.0333  0.7930 -1.0605
  747MOL0     H98550   9.233   2.013  10.196 -0.3534 -1.3597 -0.8466
  747MOL0     H98551   8.969   1.933  10.123 -1.4710  0.9502 -1.9247
  747MOL0     H98552   8.951   2.108  10.109  2.8817  0.6138 -0.4553
  747MOL0     H98553   9.066   2.011  10.372  0.6544  1.3204  0.0912
  747MOL0     H98554   8.965   2.146  10.346  1.6828  0.0488  2.2703
  747MOL0     H98555   8.831   1.955  10.459  1.2924  1.4615  0.3758
  747MOL0     H98556   8.843   1.861  10.313 -2.0374  0.2799 -0.8908
  747MOL0     H98557   8.690   1.935  10.107  1.9347  0.1170  1.8854
  747MOL0     H98558   8.405   2.213  10.083  0.2893 -0.9442  0.7641
  747MOL0     H98559   8.404   2.045  10.063 -1.1536  1.2039 -1.9307
  747MOL0     H98560   8.598   2.041   9.909  1.6835  0.6963  0.2768
  747MOL0     H98561   8.636   2.210   9.935  1.0244 -1.8940  0.5609
  747MOL0     H98562   8.410   2.264   9.832 -1.0524 -0.0570  1.2014
  747MOL0     H98563   8.526   2.182   9.718 -2.8737  0.4741 -1.1490
  747MOL0     H98564   8.277   2.102   9.721  0.3672 -1.1105 -0.6621
  747MOL0     H98565   8.319   2.038   9.887 -0.9392  1.9406  0.8931
  747MOL0     H98566   8.462   1.698   9.637  0.3719  4.8992 -2.0736
  747MOL0     H98567   8.326   1.509   9.632 -0.0032  0.2879  0.1024
  747MOL0     H98568   7.684   1.477   9.546 -1.0326 -0.5663 -0.8236
  747MOL0     H98569   7.531   1.259   9.582 -0.5029  2.2740 -1.0298
  747MOL0     H98570   7.715   0.921   9.622 -1.2740 -1.1764  1.1896
  747MOL0     H98571   7.639   1.017   9.498  4.8258 -1.3948  0.4437
  747MOL0     H98572   7.564   0.818   9.460  1.4133  2.4675 -0.8361
  747MOL0     H98573   7.425   0.891   9.536  0.1545  0.8484 -0.5030
  747MOL0     H98574   7.482   0.818   9.770  0.1447  0.8628  0.1699
  747MOL0     H98575   7.611   0.722   9.708 -0.5295 -0.3059 -0.1296
  747MOL0     H98576   7.305   0.699   9.656  1.3433  0.8300 -1.2305
  747MOL0     H98577   7.425   0.606   9.565  2.5197 -0.9380  0.5217
  747MOL0     H98578   7.382   0.554   9.864  1.8359  0.6274  0.1588
  747MOL0     H98579   7.511   0.503   9.764  0.3783  2.1487 -1.2175
  747MOL0     H98580   7.334   0.331   9.779 -2.4307 -0.9889  0.8000
  747MOL0     H98581   7.324   0.397   9.611 -1.6834 -2.2171  0.2792
  747MOL0     H98582   7.163   0.559   9.788 -0.3040 -0.7083  0.8814
  747MOL0     H98583   7.089   0.446   9.669 -0.5853 -3.5446  0.5570
  747MOL0     H98584   7.004   0.396   9.895 -0.0220 -1.2078 -0.6182
  747MOL0     H98585   7.174   0.376   9.956  1.2359 -5.7506  0.2803
  747MOL0     H98586   7.816   1.083   9.814  0.5475 -0.8362 -0.8689
  747MOL0     H98587   7.983   1.289   9.797 -1.2577  2.0476  1.0361
  747MOL0     H98588   7.986   1.731   9.777 -0.1543 -4.1123  1.1958
  747MOL0     H98589   8.138   1.923   9.810 -1.8138 -3.0748  1.6781
  747MOL0     H98590   9.689   2.386   9.995 -0.8772  2.5582 -1.2486
  747MOL0     H98591   9.894   2.483   9.952 -1.7635 -0.3060  1.6820
  747MOL0     H98592  10.280   2.564   9.742 -1.4384 -1.2472  0.7526
  747MOL0     H98593  10.501   2.627   9.656 -3.6845  0.4622 -1.1816
  747MOL0     H98594  10.725   2.601   9.653 -0.4110 -0.7247  0.6833
  747MOL0     H98595  10.742   2.621   9.479 -1.2329  0.6590  0.2527
  747MOL0     H98596  10.912   2.413   9.628  2.1150  0.5883 -0.5719
  747MOL0     H98597  10.924   2.453   9.464  2.6840  2.7525 -0.2762
  747MOL0     H98598  11.002   2.638   9.707 -0.3043  1.8713  0.0892
  747MOL0     H98599  10.978   2.700   9.539  1.6622 -0.3552  0.1150
  747MOL0     H98600  11.151   2.455   9.613 -0.1382  0.3869  1.1366
  747MOL0     H98601  11.155   2.553   9.463 -0.4583 -2.5528  0.1763
  747MOL0     H98602  11.443   2.743   9.706 -0.6189  0.5561 -1.7191
  747MOL0     H98603  10.570   2.212   9.561 -0.7001 -0.4886 -0.6997
  747MOL0     H98604  10.355   2.148   9.637  0.4004 -0.5529  0.2332
  748MOL0     O98605   0.246  11.025   9.011 -0.1569 -0.3226 -0.3158
  748MOL0     C98606   0.295  11.117   9.068  0.7407 -0.2990 -0.4000
  748MOL0     O98607   0.243  11.183   9.171 -0.1556 -0.0096  0.2111
  748MOL0     C98608   0.145  11.134   9.241 -0.3295  0.4286  0.4755
  748MOL0     C98609   0.018  11.205   9.265  0.0518  0.4532 -0.3240
  748MOL0     C98610  -0.080  11.139   9.343  0.5856 -0.0958 -0.3995
  748MOL0     C98611  -0.061  11.019   9.403 -0.2228  0.6864  0.5849
  748MOL0     O98612  -0.167  10.959   9.456  0.0817 -0.0366  0.0895
  748MOL0     C98613  -0.152  10.839   9.529 -0.1565 -0.3253 -0.6998
  748MOL0     C98614  -0.270  10.810   9.613  0.4117 -0.1324 -0.2167
  748MOL0     C98615  -0.311  10.934   9.696  0.3079  0.1724  0.5121
  748MOL0     C98616  -0.438  10.908   9.781  0.6432  1.4521 -0.1556
  748MOL0     C98617  -0.503  11.041   9.829  0.1600 -0.7013  0.9456
  748MOL0     C98618  -0.415  11.123   9.932 -0.5765  0.3301 -0.2921
  748MOL0     C98619  -0.464  11.269   9.932 -0.0166 -0.7465 -0.3909
  748MOL0     C98620  -0.370  11.349  10.024  0.1255  0.2160  0.0615
  748MOL0     N98621  -0.246  11.391   9.954  0.3010 -0.5997 -0.1201
  748MOL0     C98622  -0.182  11.338   9.841 -0.9214 -0.7385  0.0338
  748MOL0     C98623  -0.078  11.412   9.816  0.2211 -0.3919  0.0384
  748MOL0     C98624   0.029  11.380   9.715 -0.2130 -0.6702 -0.4646
  748MOL0     C98625   0.144  11.297   9.780  0.2756 -0.2476 -0.4299
  748MOL0     C98626   0.210  11.356   9.902  0.1166 -0.4901 -0.3839
  748MOL0     C98627   0.318  11.459   9.872 -0.3762  0.2697 -0.1964
  748MOL0     O98628   0.390  11.486   9.990 -1.3743 -0.3078 -0.2293
  748MOL0     C98629   0.353  11.586  10.081 -0.6145  0.6620  0.1771
  748MOL0     C98630   0.232  11.649  10.071 -0.2999 -0.2020 -0.9787
  748MOL0     C98631   0.181  11.729  10.174  0.4887  0.2734 -0.9518
  748MOL0     C98632   0.263  11.770  10.278  0.2210 -0.0416 -0.3514
  748MOL0     C98633   0.207  11.845  10.388  0.5668 -0.3791 -0.3895
  748MOL0     O98634   0.263  11.839  10.508 -0.5744 -1.4561 -0.2221
  748MOL0     C98635   0.257  11.934  10.603  0.2416  0.2164  1.6599
  748MOL0     C98636   0.298  12.062  10.573  0.5388 -0.4467  0.3372
  748MOL0     C98637   0.285  12.168  10.663 -0.7169 -0.1750 -0.1494
  748MOL0     C98638   0.243  12.143  10.798  0.9177  0.0806  0.2301
  748MOL0     O98639   0.227  12.241  10.891 -0.3033  0.9048 -0.1581
  748MOL0     C98640   0.289  12.365  10.869 -1.1684  0.0777 -0.4149
  748MOL0     C98641   0.279  12.456  10.991 -0.1403  0.2186 -0.7162
  748MOL0     C98642   0.173  12.566  10.986  0.8780  0.0529  0.5131
  748MOL0     C98643   0.157  12.624  11.127  0.0159  0.4645  0.3809
  748MOL0     C98644   0.031  12.701  11.158 -0.5096 -0.5045 -0.3650
  748MOL0     C98645  -0.101  12.658  11.117  0.6196  0.7255  0.6834
  748MOL0     C98646  -0.216  12.722  11.197 -0.0894 -0.4628  0.1891
  748MOL0     C98647  -0.343  12.647  11.148  0.1958 -0.5700  0.7023
  748MOL0    Cl98648  -0.351  12.467  11.183 -0.3357 -0.3882 -0.5629
  748MOL0     C98649   0.203  12.013  10.832  0.2032  0.5964 -0.0244
  748MOL0     C98650   0.208  11.911  10.732 -0.0716 -0.4373  0.2343
  748MOL0     O98651   0.116  11.921  10.357 -0.4852 -0.1183 -0.6509
  748MOL0     C98652   0.398  11.721  10.280 -0.0786 -0.0369  0.1211
  748MOL0     C98653   0.443  11.626  10.183 -0.2801  0.3932  0.2071
  748MOL0     N98654  -0.082  11.526   9.896 -0.2322 -0.2379 -0.6544
  748MOL0     N98655  -0.170  11.498   9.991 -0.5233  0.4826 -0.7672
  748MOL0     C98656   0.067  10.955   9.382 -0.0658 -0.3856 -0.8893
  748MOL0     C98657   0.160  11.013   9.300 -0.6501  0.3414 -0.5576
  748MOL0     C98658   0.428  11.151   9.017  0.1818 -0.4854 -0.2674
  748MOL0     C98659   0.476  11.271   9.046 -1.1663 -0.3832  0.2463
  748MOL0     C98660   0.610  11.307   9.007  1.0230 -0.4467  0.3246
  748MOL0     C98661   0.665  11.241   8.900 -0.3037 -0.4808  0.8553
  748MOL0     O98662   0.789  11.277   8.838  0.5878  0.2029 -0.2002
  748MOL0     C98663   0.903  11.236   8.916 -0.4288 -0.0917  0.0867
  748MOL0     C98664   0.999  11.351   8.948 -0.1994  0.6412  0.2332
  748MOL0     C98665   0.932  11.466   9.015  0.0761  0.6028  0.7197
  748MOL0     C98666   1.018  11.592   9.021  0.1520  0.2198  1.0523
  748MOL0     C98667   1.001  11.655   8.889 -0.2200 -0.0976 -0.7870
  748MOL0     C98668   0.971  11.696   8.777 -0.0404  0.4258  0.1978
  748MOL0     C98669   0.616  11.122   8.869 -0.1521  0.5806 -0.4151
  748MOL0     C98670   0.506  11.068   8.929  0.0889 -0.7071 -0.0488
  748MOL0     H98671   0.002  11.301   9.217  0.9463  0.0492 -1.4552
  748MOL0     H98672  -0.179  11.183   9.354  1.2854  1.3025  0.6263
  748MOL0     H98673  -0.065  10.846   9.596 -0.4898  3.1405 -0.4557
  748MOL0     H98674  -0.135  10.760   9.455  1.4353  0.0485 -0.7856
  748MOL0     H98675  -0.248  10.742   9.696  0.4527  0.0633 -0.0685
  748MOL0     H98676  -0.357  10.773   9.557  1.7862 -0.8009 -2.0032
  748MOL0     H98677  -0.326  11.022   9.632 -0.1657 -2.0186 -2.6111
  748MOL0     H98678  -0.215  10.945   9.749  2.7860 -4.9470 -2.1733
  748MOL0     H98679  -0.523  10.864   9.728 -0.5188  2.7617  0.5656
  748MOL0     H98680  -0.417  10.849   9.870  1.5710  0.0578 -1.2596
  748MOL0     H98681  -0.600  11.024   9.875 -0.8318 -1.1122 -1.1760
  748MOL0     H98682  -0.520  11.103   9.741  2.0433  0.3248  1.2444
  748MOL0     H98683  -0.308  11.115   9.911 -0.0097 -0.8464  2.5322
  748MOL0     H98684  -0.428  11.075  10.029  3.6662 -0.5840  0.0123
  748MOL0     H98685  -0.457  11.316   9.833 -1.8631 -1.6304 -0.9701
  748MOL0     H98686  -0.567  11.276   9.968  0.0045 -1.3967 -0.2030
  748MOL0     H98687  -0.350  11.290  10.114  0.0303 -0.5068 -0.3810
  748MOL0     H98688  -0.418  11.442  10.055  1.2645  0.1480  2.1948
  748MOL0     H98689  -0.203  11.251   9.780 -1.7931 -0.7019  0.2801
  748MOL0     H98690   0.086  11.473   9.699 -0.4078 -0.4308  0.1924
  748MOL0     H98691  -0.006  11.339   9.619 -0.1944  0.6939 -1.0823
  748MOL0     H98692   0.215  11.280   9.698  0.5102 -1.4967  0.0173
  748MOL0     H98693   0.111  11.198   9.810  1.0656 -0.5698 -0.6098
  748MOL0     H98694   0.144  11.406   9.973 -1.5334 -0.2998 -1.9646
  748MOL0     H98695   0.243  11.268   9.957 -1.6824 -3.5728 -3.7838
  748MOL0     H98696   0.272  11.551   9.833  1.6614  1.0336 -0.8983
  748MOL0     H98697   0.388  11.425   9.795 -1.9187  0.8360 -1.9199
  748MOL0     H98698   0.157  11.645   9.993 -0.2370  4.2671 -1.5349
  748MOL0     H98699   0.082  11.772  10.165  0.8180  1.5151  0.7912
  748MOL0     H98700   0.316  12.090  10.470 -3.8340 -0.8541 -0.7371
  748MOL0     H98701   0.302  12.271  10.633  0.3923 -0.6650 -1.3216
  748MOL0     H98702   0.238  12.421  10.791 -0.2797  2.0869  0.3951
  748MOL0     H98703   0.397  12.352  10.861 -0.9719 -0.1804  1.8884
  748MOL0     H98704   0.379  12.501  10.992 -1.1247  2.5689 -1.4354
  748MOL0     H98705   0.265  12.392  11.078  1.9315  2.6834  1.5822
  748MOL0     H98706   0.084  12.522  10.942  0.8094 -0.3347  1.0223
  748MOL0     H98707   0.216  12.641  10.919  2.8837 -0.9621  0.5730
  748MOL0     H98708   0.158  12.533  11.187  1.6456  0.5390  0.5206
  748MOL0     H98709   0.249  12.671  11.163  1.7919 -2.7642  0.4092
  748MOL0     H98710   0.037  12.800  11.111 -3.9329 -0.1507 -0.2969
  748MOL0     H98711   0.018  12.708  11.267 -1.8063 -0.0267 -0.5309
  748MOL0     H98712  -0.123  12.551  11.128 -1.6549  1.0823  0.0989
  748MOL0     H98713  -0.111  12.688  11.012  0.7101  2.4051  1.1378
  748MOL0     H98714  -0.202  12.705  11.304  0.6190  0.5359  0.2702
  748MOL0     H98715  -0.226  12.830  11.182 -0.3160 -0.5779 -0.5217
  748MOL0     H98716  -0.355  12.643  11.040  3.1457 -1.9348  0.3308
  748MOL0     H98717  -0.434  12.692  11.189  0.0939  1.6888 -1.7565
  748MOL0     H98718   0.169  11.987  10.932  3.0264  0.3260  0.9600
  748MOL0     H98719   0.171  11.811  10.756 -0.4412 -0.1223  1.0140
  748MOL0     H98720   0.465  11.755  10.359  2.6232 -3.1101 -0.6002
  748MOL0     H98721   0.547  11.594  10.180 -0.8903 -1.8242  0.6724
  748MOL0     H98722   0.082  10.859   9.431  2.3287  1.7134  3.0748
  748MOL0     H98723   0.252  10.958   9.280 -0.7642 -1.4529  3.0413
  748MOL0     H98724   0.418  11.345   9.100  0.0601  2.1664 -1.7254
  748MOL0     H98725   0.657  11.394   9.052 -1.7453  1.1036  0.4621
  748MOL0     H98726   0.962  11.155   8.871  2.9660  1.0885  2.1080
  748MOL0     H98727   0.869  11.183   9.005 -0.1843  1.4646  1.1325
  748MOL0     H98728   1.080  11.308   9.007 -0.0530  1.3550  0.5655
  748MOL0     H98729   1.045  11.385   8.855  0.8297  1.8012  1.1246
  748MOL0     H98730   0.898  11.441   9.116 -0.6951  1.3578  0.6564
  748MOL0     H98731   0.845  11.480   8.951  0.9945 -2.2760 -1.3674
  748MOL0     H98732   0.971  11.655   9.097 -0.0523  0.9760  0.3141
  748MOL0     H98733   1.123  11.580   9.048  1.2974  4.9015 -0.4858
  748MOL0     H98734   0.955  11.730   8.677  1.2925 -2.1408 -0.9910
  748MOL0     H98735   0.667  11.059   8.797 -1.4081  0.6017 -1.3536
  748MOL0     H98736   0.474  10.967   8.905  3.5027 -1.4813 -1.8407
  749MOL0     O98737  11.129  10.609   9.206  0.1316  0.2359 -0.2702
  749MOL0     C98738  11.136  10.682   9.108 -0.4077 -0.2496  1.1932
  749MOL0     O98739  11.035  10.774   9.072  0.0509 -0.8308  0.0332
  749MOL0     C98740  10.930  10.804   9.164 -0.4743 -0.1313 -0.4549
  749MOL0     C98741  10.844  10.718   9.219 -0.0178  1.5598  1.2643
  749MOL0     C98742  10.724  10.757   9.282 -0.7606  0.1766  0.3674
  749MOL0     C98743  10.708  10.888   9.328 -0.1615 -0.6065  0.0156
  749MOL0     O98744  10.598  10.908   9.406 -0.2319 -0.6109  0.0768
  749MOL0     C98745  10.559  11.045   9.440  0.4536 -0.1165  0.3526
  749MOL0     C98746  10.426  11.037   9.515  0.4433 -1.3257 -0.5747
  749MOL0     C98747  10.423  10.929   9.621  0.3546  0.7675  0.9575
  749MOL0     C98748  10.291  10.920   9.688  0.9792 -0.2858  0.1563
  749MOL0     C98749  10.285  10.822   9.811 -0.0330  0.2994  0.1989
  749MOL0     C98750  10.157  10.831   9.893  0.1221  0.2042 -0.3746
  749MOL0     C98751  10.162  10.754  10.028  0.6631  0.3665  0.2920
  749MOL0     C98752  10.035  10.677  10.059 -0.1375 -0.5326  0.9833
  749MOL0     N98753   9.935  10.767  10.115 -0.3314 -0.7698 -0.7481
  749MOL0     C98754   9.896  10.780  10.240  0.7740 -0.6002 -0.1652
  749MOL0     C98755   9.774  10.844  10.224  0.2118 -0.4634 -0.7451
  749MOL0     C98756   9.683  10.893  10.337  0.2097  0.1929  0.4198
  749MOL0     C98757   9.693  10.796  10.453  0.1424  0.8895 -0.7112
  749MOL0     C98758   9.637  10.653  10.424  0.0437  0.0440  0.1644
  749MOL0     C98759   9.493  10.665  10.371  0.1531 -0.6400  0.2735
  749MOL0     O98760   9.436  10.534  10.334  0.6954  0.2381 -0.0818
  749MOL0     C98761   9.303  10.520  10.300  0.4578 -0.1697 -0.3764
  749MOL0     C98762   9.253  10.394  10.267  0.3475  0.1126  1.1769
  749MOL0     C98763   9.115  10.381  10.221  0.6244  0.2299 -0.7097
  749MOL0     C98764   9.032  10.493  10.218  0.3952  0.7323  0.1783
  749MOL0     C98765   8.891  10.483  10.181  0.2599  0.1191 -0.2342
  749MOL0     O98766   8.845  10.363  10.146  1.3073  0.7470  0.9019
  749MOL0     C98767   8.720  10.344  10.089 -0.3545 -0.9480 -0.6050
  749MOL0     C98768   8.665  10.218  10.120  0.0529 -0.2686 -0.3619
  749MOL0     C98769   8.538  10.184  10.075  0.0123  0.7990  0.2758
  749MOL0     C98770   8.455  10.281  10.015 -0.4604 -0.9779 -0.0339
  749MOL0     O98771   8.328  10.238   9.971  0.0286 -0.7930 -0.7441
  749MOL0     C98772   8.220  10.329   9.980  0.0795 -0.5254 -0.7653
  749MOL0     C98773   8.089  10.253   9.968 -0.1128  0.3319  0.2767
  749MOL0     C98774   8.047  10.150  10.075 -0.1587  0.2616  0.3956
  749MOL0     C98775   7.905  10.097  10.043  0.0170  1.2812 -0.0960
  749MOL0     C98776   7.887  10.039   9.904 -0.3567  0.4023 -0.2805
  749MOL0     C98777   7.750   9.994   9.895  0.7295  0.0445 -0.1543
  749MOL0     C98778   7.710   9.929   9.766 -0.4589  0.4757 -0.6916
  749MOL0     C98779   7.562   9.937   9.743  0.1159 -0.4532 -0.5074
  749MOL0    Cl98780   7.444   9.875   9.866  0.4026 -0.3381  0.0185
  749MOL0     C98781   8.499  10.413   9.994 -0.1001 -0.5513 -0.1731
  749MOL0     C98782   8.630  10.444  10.032 -0.1264 -0.2999  0.4763
  749MOL0     O98783   8.824  10.583  10.199 -0.1081 -0.6012  0.6596
  749MOL0     C98784   9.090  10.617  10.240 -1.1142  1.5741 -0.1439
  749MOL0     C98785   9.218  10.626  10.281 -0.4016 -0.3048  0.8415
  749MOL0     N98786   9.754  10.869  10.089  0.4021 -0.7617 -0.5474
  749MOL0     N98787   9.850  10.818  10.021 -0.6024  1.0231 -0.0117
  749MOL0     C98788  10.805  10.985   9.288  0.0739  0.4151 -0.0524
  749MOL0     C98789  10.908  10.938   9.201  0.1050  0.1156 -0.0543
  749MOL0     C98790  11.255  10.655   9.022  0.8997 -0.2546  0.8206
  749MOL0     C98791  11.298  10.759   8.935  0.3570 -0.2300 -0.8970
  749MOL0     C98792  11.405  10.740   8.847 -0.3002  0.1617 -0.7412
  749MOL0     C98793  11.494  10.633   8.871  0.7672  0.0925  0.1577
  749MOL0     O98794  11.612  10.626   8.808 -0.1239 -0.7904 -0.1863
  749MOL0     C98795  11.690  10.745   8.789 -0.4666  0.0738 -0.6234
  749MOL0     C98796  11.807  10.707   8.703 -0.6383  0.3655 -0.0791
  749MOL0     C98797  11.914  10.620   8.770  0.5383  0.6218 -0.2130
  749MOL0     C98798  11.998  10.700   8.881  0.8165 -0.3003  0.0583
  749MOL0     C98799  12.104  10.773   8.814 -0.1240 -0.0789 -0.1696
  749MOL0     C98800  12.191  10.837   8.743  0.5564  0.0301 -0.7411
  749MOL0     C98801  11.452  10.526   8.957 -0.3401 -0.2718 -0.3717
  749MOL0     C98802  11.334  10.541   9.031  0.1650 -0.4567  0.3660
  749MOL0     H98803  10.868  10.613   9.205  1.1750  1.6459  2.5045
  749MOL0     H98804  10.646  10.686   9.309 -0.0187  0.0307  2.2777
  749MOL0     H98805  10.554  11.120   9.360  0.6959  1.8337  2.0805
  749MOL0     H98806  10.637  11.081   9.509 -0.8315 -0.7794  2.2067
  749MOL0     H98807  10.346  11.031   9.441 -0.9478  0.0131  0.7345
  749MOL0     H98808  10.423  11.131   9.571  1.2339 -0.6676 -1.6022
  749MOL0     H98809  10.505  10.943   9.693  1.8525  1.1802 -0.7417
  749MOL0     H98810  10.453  10.835   9.574  1.2031 -0.2704  3.3859
  749MOL0     H98811  10.279  11.022   9.728  1.8853 -0.7379  1.6618
  749MOL0     H98812  10.218  10.888   9.613 -0.1018  0.7239  0.7374
  749MOL0     H98813  10.368  10.826   9.882  0.0955  1.4384 -0.0009
  749MOL0     H98814  10.300  10.722   9.769  0.9535  0.5418 -0.0471
  749MOL0     H98815  10.074  10.794   9.831 -1.1181 -2.4890  2.6015
  749MOL0     H98816  10.130  10.936   9.909 -1.8936 -0.5745  1.9417
  749MOL0     H98817  10.246  10.684  10.021 -0.5969 -1.6447  3.1716
  749MOL0     H98818  10.185  10.827  10.107 -0.6307  2.4659 -1.1758
  749MOL0     H98819  10.056  10.590  10.122 -0.2396 -0.9783  0.4118
  749MOL0     H98820   9.999  10.625   9.969  0.4038 -0.8717  0.9568
  749MOL0     H98821   9.950  10.741  10.326  1.4706  0.8192  0.0720
  749MOL0     H98822   9.585  10.897  10.288  0.5313 -0.5872 -0.3032
  749MOL0     H98823   9.713  10.996  10.361 -1.2590  0.9279 -0.7650
  749MOL0     H98824   9.641  10.842  10.537  1.9426  0.7885  0.5004
  749MOL0     H98825   9.798  10.788  10.481 -0.2618 -0.7125  0.5070
  749MOL0     H98826   9.695  10.611  10.341 -0.0787  0.0308  0.0865
  749MOL0     H98827   9.652  10.584  10.508  0.1895  0.1600  0.2343
  749MOL0     H98828   9.484  10.727  10.282 -0.6789  1.3315  1.6728
  749MOL0     H98829   9.429  10.701  10.452  0.0833 -2.3541  1.0251
  749MOL0     H98830   9.316  10.312  10.300  0.9383 -0.3837 -0.9943
  749MOL0     H98831   9.074  10.280  10.218 -0.6429  0.5022  2.6326
  749MOL0     H98832   8.733  10.152  10.173  1.2872  1.0990 -0.1948
  749MOL0     H98833   8.500  10.083  10.077  3.6390 -0.6845  0.4468
  749MOL0     H98834   8.237  10.399   9.897 -0.4856 -1.2638 -1.5172
  749MOL0     H98835   8.219  10.388  10.072  1.2140 -1.6796  0.0136
  749MOL0     H98836   8.112  10.199   9.876 -0.0020  3.4512 -1.6694
  749MOL0     H98837   8.009  10.327   9.969 -0.8378 -0.4236  1.7617
  749MOL0     H98838   8.057  10.186  10.177  4.2132  3.7146 -0.9401
  749MOL0     H98839   8.107  10.058  10.076 -1.2269 -0.4597  1.0709
  749MOL0     H98840   7.867  10.025  10.116 -0.5689  0.9676 -0.7013
  749MOL0     H98841   7.844  10.187  10.053  1.1578  2.0199  0.4162
  749MOL0     H98842   7.952   9.952   9.893  0.2065  0.0504  4.1589
  749MOL0     H98843   7.898  10.126   9.839 -1.7603  2.0792  1.6231
  749MOL0     H98844   7.678  10.076   9.901 -1.4769 -1.5647 -2.4388
  749MOL0     H98845   7.718   9.928   9.975 -1.3431 -0.7775 -1.5673
  749MOL0     H98846   7.763   9.968   9.679  1.4044 -1.6010 -0.5615
  749MOL0     H98847   7.746   9.827   9.775  1.2636  0.9519 -1.7586
  749MOL0     H98848   7.534   9.873   9.659 -1.4085 -1.9613  1.0441
  749MOL0     H98849   7.537  10.041   9.725 -0.8269 -0.4393  0.7169
  749MOL0     H98850   8.434  10.478   9.936  1.4516  1.4727  0.2271
  749MOL0     H98851   8.677  10.540  10.011  1.3849 -0.3522  3.0859
  749MOL0     H98852   9.032  10.709  10.247 -0.0818  2.2646 -0.3840
  749MOL0     H98853   9.250  10.726  10.310  1.2218 -0.5243 -0.0626
  749MOL0     H98854  10.798  11.089   9.318 -1.4345  0.5718 -0.8185
  749MOL0     H98855  10.979  11.002   9.151 -1.0134  0.3277 -1.4467
  749MOL0     H98856  11.237  10.844   8.906 -2.2960 -2.9239 -4.0628
  749MOL0     H98857  11.411  10.817   8.772 -0.4153  1.9707  1.0227
  749MOL0     H98858  11.713  10.758   8.895 -2.0683 -1.3294 -0.0695
  749MOL0     H98859  11.639  10.836   8.754 -0.3075  1.3268  2.1640
  749MOL0     H98860  11.762  10.660   8.615  0.9713 -1.8551  0.1989
  749MOL0     H98861  11.855  10.801   8.672 -1.1366  1.1374  1.4227
  749MOL0     H98862  11.965  10.571   8.686 -0.6729  2.6545 -2.2648
  749MOL0     H98863  11.863  10.535   8.814  0.4315  0.2124 -1.0986
  749MOL0     H98864  11.939  10.780   8.925  1.2821  0.9746 -1.5211
  749MOL0     H98865  12.036  10.624   8.949  2.0247  0.3614  0.1425
  749MOL0     H98866  12.261  10.889   8.681  1.4744 -1.2001 -0.7684
  749MOL0     H98867  11.510  10.438   8.985 -1.0032 -0.3416  0.8358
  749MOL0     H98868  11.296  10.464   9.096 -0.7577 -0.1657  0.1848
  750MOL0     O98869   1.413   4.193   5.740 -0.0448  0.0013 -0.0929
  750MOL0     C98870   1.410   4.294   5.669  0.4523 -0.6009 -0.0678
  750MOL0     O98871   1.305   4.336   5.600  0.0982  0.9597 -0.0513
  750MOL0     C98872   1.196   4.251   5.597  0.5970  0.4770 -1.2035
  750MOL0     C98873   1.068   4.304   5.621 -0.5306 -0.0843  0.2403
  750MOL0     C98874   0.952   4.232   5.601 -0.2827 -0.7909 -0.6582
  750MOL0     C98875   0.957   4.101   5.573  0.7532  0.6252  0.1522
  750MOL0     O98876   0.842   4.024   5.544 -0.6788 -0.2918  0.0477
  750MOL0     C98877   0.722   4.048   5.618 -0.4516  0.1382  0.8491
  750MOL0     C98878   0.641   3.928   5.567 -0.1841 -0.3820 -0.4485
  750MOL0     C98879   0.491   3.937   5.620  0.2581  1.0639  0.3515
  750MOL0     C98880   0.411   3.831   5.534 -0.7697 -0.5056 -0.5625
  750MOL0     C98881   0.275   3.817   5.599  0.9391 -0.9028  0.1902
  750MOL0     C98882   0.187   3.697   5.555 -0.3938 -0.7180 -0.7365
  750MOL0     C98883   0.041   3.713   5.598  0.0091  0.2871  0.5355
  750MOL0     C98884   0.014   3.725   5.749  0.2526  0.4662  0.2566
  750MOL0     N98885  -0.129   3.712   5.788  0.0490  0.1334  0.2795
  750MOL0     C98886  -0.223   3.797   5.742  0.3964 -0.0887  0.3144
  750MOL0     C98887  -0.333   3.724   5.744 -0.0436  0.1878  0.5493
  750MOL0     C98888  -0.472   3.761   5.694 -0.3504  0.3303  0.2437
  750MOL0     C98889  -0.539   3.857   5.794  0.3169  0.2759 -0.5789
  750MOL0     C98890  -0.680   3.887   5.750  0.3041 -0.0246  0.7225
  750MOL0     C98891  -0.787   3.783   5.801  0.1496  0.6638 -0.7854
  750MOL0     O98892  -0.773   3.649   5.744 -0.1541 -0.3483 -0.6261
  750MOL0     C98893  -0.869   3.562   5.755 -0.2509  0.7350  0.1979
  750MOL0     C98894  -0.991   3.572   5.823 -0.2837  0.6835 -0.2916
  750MOL0     C98895  -1.092   3.465   5.828  0.7636 -0.0638 -0.0584
  750MOL0     C98896  -1.063   3.345   5.759  1.3362  0.2488  0.1046
  750MOL0     C98897  -1.151   3.231   5.764  0.7547  0.1478  0.2236
  750MOL0     O98898  -1.246   3.232   5.868  0.4967  0.3454 -0.4594
  750MOL0     C98899  -1.342   3.133   5.867  0.6644 -0.3909 -0.1196
  750MOL0     C98900  -1.451   3.143   5.778 -0.3443 -0.3163 -0.3255
  750MOL0     C98901  -1.554   3.043   5.769 -0.4085  0.0119  0.3133
  750MOL0     C98902  -1.534   2.924   5.851  0.4322  0.3451  0.4810
  750MOL0     O98903  -1.630   2.819   5.857  0.3512 -0.2508 -1.2645
  750MOL0     C98904  -1.754   2.859   5.921 -0.1428 -0.1957  0.0507
  750MOL0     C98905  -1.880   2.842   5.828  0.4025  0.1158 -0.3423
  750MOL0     C98906  -1.881   2.929   5.708  0.2758  0.9968 -0.1996
  750MOL0     C98907  -2.016   2.907   5.635 -0.3449 -0.8384 -0.8871
  750MOL0     C98908  -2.011   2.974   5.497 -0.1491 -0.1671  0.4673
  750MOL0     C98909  -2.007   3.125   5.496 -0.3570  0.4164  0.6552
  750MOL0     C98910  -1.953   3.183   5.363  0.1986 -0.3168  0.5264
  750MOL0     C98911  -1.925   3.336   5.375  0.0973 -0.1157  0.5314
  750MOL0    Cl98912  -2.081   3.403   5.414  0.0396 -0.1630 -0.4249
  750MOL0     C98913  -1.412   2.909   5.921 -0.8351  0.4450 -0.5934
  750MOL0     C98914  -1.318   3.014   5.935  0.0951 -0.1545  0.3674
  750MOL0     O98915  -1.138   3.143   5.681 -0.3816  0.6843  0.1234
  750MOL0     C98916  -0.934   3.336   5.696  0.6277 -0.1931  0.9540
  750MOL0     C98917  -0.838   3.443   5.694 -0.0225  0.2373  0.3506
  750MOL0     N98918  -0.309   3.605   5.796 -0.3349 -0.0920 -0.5352
  750MOL0     N98919  -0.187   3.588   5.822  0.4974 -1.3348  0.3563
  750MOL0     C98920   1.087   4.043   5.544 -0.1374 -0.5211 -0.4496
  750MOL0     C98921   1.204   4.118   5.555 -0.5518  0.2087 -0.6326
  750MOL0     C98922   1.530   4.374   5.652  0.5440  0.5125  0.1114
  750MOL0     C98923   1.653   4.334   5.713  0.8524  0.1812  0.2133
  750MOL0     C98924   1.773   4.394   5.691 -0.2234  0.3336 -0.4211
  750MOL0     C98925   1.780   4.516   5.629 -0.4207  0.0451 -0.7347
  750MOL0     O98926   1.889   4.596   5.615 -0.6429 -0.4826 -0.2197
  750MOL0     C98927   1.971   4.561   5.502 -0.5004 -0.2754  0.3037
  750MOL0     C98928   2.038   4.690   5.437 -0.0697  0.9484 -0.3026
  750MOL0     C98929   2.150   4.742   5.525  0.2501  0.1080 -0.2269
  750MOL0     C98930   2.272   4.634   5.522  0.0967 -0.0298 -0.1101
  750MOL0     C98931   2.394   4.701   5.553 -0.2591 -0.2924  0.1576
  750MOL0     C98932   2.502   4.756   5.574 -0.5312  0.3322 -0.4268
  750MOL0     C98933   1.666   4.566   5.573  0.6065  0.8712 -1.0640
  750MOL0     C98934   1.538   4.490   5.578 -0.1628 -0.3753  0.2427
  750MOL0     H98935   1.069   4.408   5.651  1.4465  0.5872 -1.8586
  750MOL0     H98936   0.860   4.285   5.620  0.0040 -0.8148  0.9404
  750MOL0     H98937   0.674   4.144   5.595 -1.8268 -0.5127  0.9248
  750MOL0     H98938   0.739   4.029   5.724 -3.0505 -1.1397  1.1115
  750MOL0     H98939   0.692   3.840   5.608  0.9372  0.5852  0.2771
  750MOL0     H98940   0.645   3.940   5.458  4.5344  3.1228 -0.1696
  750MOL0     H98941   0.444   4.035   5.605 -1.8499  0.4123  2.1608
  750MOL0     H98942   0.489   3.907   5.725 -0.7422  0.9917  0.3280
  750MOL0     H98943   0.393   3.848   5.427 -3.2552 -0.0600 -0.1406
  750MOL0     H98944   0.464   3.736   5.546  0.8648  0.6504  2.1875
  750MOL0     H98945   0.228   3.908   5.562 -0.3114 -1.9153 -0.7831
  750MOL0     H98946   0.281   3.811   5.708 -0.9301  0.6296  0.4281
  750MOL0     H98947   0.225   3.602   5.593  1.9876  0.9451  1.2624
  750MOL0     H98948   0.198   3.684   5.447  0.1094  1.6008 -1.0108
  750MOL0     H98949  -0.000   3.798   5.543 -0.1052  2.1824  3.3275
  750MOL0     H98950  -0.003   3.620   5.562  3.1336 -0.2045 -2.5952
  750MOL0     H98951   0.043   3.829   5.768 -1.4591  1.3010 -1.3535
  750MOL0     H98952   0.074   3.655   5.808  2.7487  2.2837  0.0800
  750MOL0     H98953  -0.189   3.892   5.701 -0.6387  0.8128  1.4503
  750MOL0     H98954  -0.529   3.668   5.692 -0.0902  0.1853 -0.4886
  750MOL0     H98955  -0.471   3.811   5.597 -0.7869  2.2981  1.1924
  750MOL0     H98956  -0.490   3.954   5.786  1.3592 -0.1637  0.1774
  750MOL0     H98957  -0.523   3.821   5.896 -0.0786  2.0962  0.1708
  750MOL0     H98958  -0.711   3.987   5.783  0.9073 -0.3377  2.3298
  750MOL0     H98959  -0.681   3.890   5.640 -2.0532 -1.1707  0.6556
  750MOL0     H98960  -0.889   3.821   5.791 -1.7693 -4.2527 -3.6558
  750MOL0     H98961  -0.767   3.767   5.907  4.2598  0.3853 -1.4121
  750MOL0     H98962  -1.011   3.658   5.886  0.9613  1.3425 -0.7499
  750MOL0     H98963  -1.179   3.482   5.890  0.9960  3.1492 -0.4465
  750MOL0     H98964  -1.449   3.235   5.720  1.4917  0.5995  1.1059
  750MOL0     H98965  -1.628   3.063   5.692  2.2429  2.1174 -1.9079
  750MOL0     H98966  -1.752   2.962   5.960 -0.9124 -0.9897  2.3197
  750MOL0     H98967  -1.767   2.790   6.004  1.0891  0.1573  0.5590
  750MOL0     H98968  -1.969   2.849   5.891  0.4233  0.0499 -0.3046
  750MOL0     H98969  -1.873   2.741   5.786 -4.3123 -0.6295  0.1923
  750MOL0     H98970  -1.793   2.918   5.644  0.0243  0.6917 -0.4938
  750MOL0     H98971  -1.882   3.030   5.752  0.2878  0.9134 -0.0086
  750MOL0     H98972  -2.020   2.798   5.625  1.7041 -1.1816  1.1853
  750MOL0     H98973  -2.106   2.938   5.687  0.9916  3.1342 -0.6079
  750MOL0     H98974  -2.095   2.950   5.430  1.4834  1.4944 -2.3941
  750MOL0     H98975  -1.922   2.937   5.445  0.3801  1.3649  0.2257
  750MOL0     H98976  -1.954   3.161   5.585  0.7921 -0.4996  0.3751
  750MOL0     H98977  -2.112   3.156   5.501 -1.3264 -1.6279 -3.2160
  750MOL0     H98978  -1.860   3.139   5.326  1.4955  3.2968 -0.9421
  750MOL0     H98979  -2.037   3.174   5.293 -1.7013 -2.3069  2.8712
  750MOL0     H98980  -1.897   3.363   5.273 -1.2748  4.3493  1.1306
  750MOL0     H98981  -1.847   3.364   5.446  1.8317 -1.1178 -0.8972
  750MOL0     H98982  -1.395   2.815   5.972  3.2923  2.4780  2.3372
  750MOL0     H98983  -1.218   3.024   5.976 -0.2823  1.9604  0.9115
  750MOL0     H98984  -0.910   3.252   5.632  0.9248  2.1192 -2.2499
  750MOL0     H98985  -0.755   3.423   5.627  0.2382 -1.7488  1.2050
  750MOL0     H98986   1.095   3.941   5.508  0.6353  0.2608 -2.6826
  750MOL0     H98987   1.302   4.079   5.530 -0.1613  2.5050 -3.0657
  750MOL0     H98988   1.657   4.241   5.768 -1.0918 -1.0251 -1.5315
  750MOL0     H98989   1.864   4.352   5.732 -0.3931  0.8638  0.5274
  750MOL0     H98990   1.920   4.509   5.421 -2.8017  2.5968 -0.2968
  750MOL0     H98991   2.037   4.484   5.541 -1.8076 -1.3782  0.4225
  750MOL0     H98992   2.079   4.664   5.338 -2.7590  0.7401 -1.4551
  750MOL0     H98993   1.970   4.773   5.417 -1.3190 -0.0153 -0.1847
  750MOL0     H98994   2.113   4.752   5.627  0.7725 -1.2300  0.1004
  750MOL0     H98995   2.176   4.839   5.481  1.1112 -0.0100  0.0050
  750MOL0     H98996   2.249   4.552   5.590 -1.9439 -1.8495 -2.8081
  750MOL0     H98997   2.285   4.597   5.420  1.8504  1.4443 -0.4784
  750MOL0     H98998   2.596   4.802   5.597 -0.4144 -0.1975  0.1654
  750MOL0     H98999   1.669   4.657   5.515  1.2007  0.6622 -1.3755
  750MOL0     H99000   1.454   4.532   5.524 -0.9787 -2.3343 -0.1122
  751MOL0     O99001   6.403   3.603   9.423 -0.4589 -0.7052 -0.0167
  751MOL0     C99002   6.401   3.497   9.486 -0.0432 -0.1394 -0.4924
  751MOL0     O99003   6.311   3.399   9.466 -0.0079 -0.4309  0.1756
  751MOL0     C99004   6.200   3.433   9.406  0.6485 -0.3661  0.2492
  751MOL0     C99005   6.079   3.412   9.478 -0.7324 -0.1321  0.0546
  751MOL0     C99006   5.961   3.420   9.405  0.0235  0.7053  0.1914
  751MOL0     C99007   5.953   3.459   9.269 -0.3247 -0.7811  0.0502
  751MOL0     O99008   5.830   3.489   9.214 -0.0526  0.0541 -0.2072
  751MOL0     C99009   5.818   3.471   9.072  0.0988 -0.1833 -1.3555
  751MOL0     C99010   5.667   3.461   9.041  0.7069  0.0936  0.0142
  751MOL0     C99011   5.597   3.346   9.116 -0.4144 -0.2368 -0.1776
  751MOL0     C99012   5.453   3.342   9.096  0.6458 -0.6473 -0.3208
  751MOL0     C99013   5.386   3.238   9.179 -0.3173 -0.4062 -0.0332
  751MOL0     C99014   5.235   3.261   9.179  0.0766 -0.2831 -0.4997
  751MOL0     C99015   5.151   3.143   9.243 -1.1562 -0.2243  0.4457
  751MOL0     C99016   5.004   3.170   9.294 -0.3638 -0.3125 -0.5719
  751MOL0     N99017   4.959   3.057   9.380 -0.1586 -0.7232 -0.1643
  751MOL0     C99018   5.027   3.037   9.505 -0.6903 -0.6664  1.1622
  751MOL0     C99019   4.966   2.926   9.547 -0.0874 -0.2865  0.2684
  751MOL0     C99020   5.008   2.862   9.678 -0.7048 -0.3068 -0.0503
  751MOL0     C99021   4.895   2.772   9.745 -0.5326 -0.3159  0.5180
  751MOL0     C99022   4.764   2.850   9.782 -0.9041  0.7184  1.0350
  751MOL0     C99023   4.654   2.745   9.801  0.6058 -1.4572  0.0327
  751MOL0     O99024   4.518   2.796   9.800  0.3686  0.3545 -0.2327
  751MOL0     C99025   4.458   2.841   9.681  0.3364  0.3563 -0.8412
  751MOL0     C99026   4.323   2.875   9.692  0.5698 -0.5017 -0.2031
  751MOL0     C99027   4.243   2.922   9.575  0.5317  0.4545 -0.6954
  751MOL0     C99028   4.310   2.928   9.458  0.7984 -0.4134  0.5186
  751MOL0     C99029   4.243   2.967   9.331  1.0191  0.2474 -0.0973
  751MOL0     O99030   4.313   2.947   9.211 -0.1632  0.3326  0.4194
  751MOL0     C99031   4.248   2.984   9.103 -0.7055  0.5347 -0.5476
  751MOL0     C99032   4.197   2.887   9.014 -0.0776  0.5471 -0.2323
  751MOL0     C99033   4.149   2.917   8.891  0.1161 -0.2872 -0.1841
  751MOL0     C99034   4.153   3.050   8.844  0.5678 -0.0231 -0.0668
  751MOL0     O99035   4.105   3.079   8.716  0.0621  0.1454  0.1570
  751MOL0     C99036   4.016   3.194   8.701 -0.7912 -0.3762 -0.9448
  751MOL0     C99037   3.918   3.167   8.596  0.1167  0.2463 -0.5157
  751MOL0     C99038   3.803   3.272   8.602 -0.5903  0.2372  1.0261
  751MOL0     C99039   3.717   3.267   8.481  0.6670  0.9049  0.5688
  751MOL0     C99040   3.624   3.146   8.457 -0.0939  0.5965  0.5168
  751MOL0     C99041   3.485   3.157   8.527  0.6033 -0.3407 -0.7558
  751MOL0     C99042   3.382   3.041   8.510 -0.2781  0.3470 -0.4637
  751MOL0     C99043   3.307   3.054   8.380  0.5004  0.0077  0.3216
  751MOL0    Cl99044   3.176   2.933   8.397  0.0530  0.0236  0.2012
  751MOL0     C99045   4.202   3.147   8.931 -0.2337 -0.3633 -0.6143
  751MOL0     C99046   4.242   3.122   9.062 -0.2459  1.2626 -0.6382
  751MOL0     O99047   4.138   3.030   9.343 -0.1841 -0.3909 -0.1209
  751MOL0     C99048   4.449   2.892   9.453  0.2414  0.2170  0.4811
  751MOL0     C99049   4.525   2.852   9.563  0.3095 -0.1639  0.4778
  751MOL0     N99050   4.874   2.871   9.460 -0.2672  0.1994  0.2571
  751MOL0     N99051   4.873   2.955   9.357  0.0510  0.6467 -0.0789
  751MOL0     C99052   6.073   3.496   9.205  0.6818  0.5051 -0.0043
  751MOL0     C99053   6.193   3.475   9.264 -0.1445  0.2296 -0.0915
  751MOL0     C99054   6.513   3.458   9.573 -0.3449  0.2599 -0.6478
  751MOL0     C99055   6.646   3.506   9.565  0.4092 -0.0450  0.1802
  751MOL0     C99056   6.737   3.473   9.668  0.7174  0.7076  0.5966
  751MOL0     C99057   6.701   3.399   9.778 -0.4580  0.2275 -0.4630
  751MOL0     O99058   6.772   3.380   9.888  0.2359 -0.0703 -0.4607
  751MOL0     C99059   6.901   3.444   9.884 -0.0098  0.8000  0.5597
  751MOL0     C99060   7.012   3.352   9.822 -0.1829 -0.3237 -0.1304
  751MOL0     C99061   7.158   3.402   9.816  0.1586  0.5910  0.1092
  751MOL0     C99062   7.187   3.484   9.689  0.2462  0.1755  0.3773
  751MOL0     C99063   7.132   3.613   9.702 -1.0461 -0.1917  1.0042
  751MOL0     C99064   7.090   3.723   9.718  0.7113  0.2415 -0.5940
  751MOL0     C99065   6.578   3.340   9.780  0.4552  0.8551  0.3496
  751MOL0     C99066   6.489   3.364   9.675 -0.6778  0.4048  0.0090
  751MOL0     H99067   6.087   3.377   9.580  0.3382  1.0765  0.4140
  751MOL0     H99068   5.872   3.395   9.460  1.3398 -1.6085  1.4048
  751MOL0     H99069   5.866   3.384   9.027 -0.2307 -1.9501  1.4874
  751MOL0     H99070   5.852   3.562   9.022 -2.0589  1.8927  0.6477
  751MOL0     H99071   5.654   3.463   8.933 -1.0502 -0.0580  0.2012
  751MOL0     H99072   5.613   3.553   9.068 -2.0982 -0.5953 -2.6891
  751MOL0     H99073   5.618   3.360   9.223 -0.7767  0.1549 -0.1558
  751MOL0     H99074   5.636   3.246   9.097 -0.6048 -0.7711  1.9507
  751MOL0     H99075   5.405   3.434   9.128  0.5175 -0.6526 -0.4951
  751MOL0     H99076   5.429   3.328   8.990 -1.6695 -1.2735  0.2264
  751MOL0     H99077   5.425   3.231   9.282 -1.8991 -1.9664  0.5066
  751MOL0     H99078   5.413   3.135   9.152  2.1940  0.0053  0.6365
  751MOL0     H99079   5.205   3.280   9.076 -0.4668  2.8412  0.1347
  751MOL0     H99080   5.218   3.355   9.233 -2.4182  0.8811 -3.0565
  751MOL0     H99081   5.156   3.046   9.193  1.4446 -0.1694  0.4349
  751MOL0     H99082   5.201   3.119   9.337 -2.4935 -1.9681  0.7528
  751MOL0     H99083   4.930   3.174   9.214 -0.1945 -1.4606 -0.8057
  751MOL0     H99084   4.999   3.266   9.346 -0.1102 -2.2085  3.3369
  751MOL0     H99085   5.096   3.101   9.560 -2.8478  1.6614  1.3820
  751MOL0     H99086   5.025   2.947   9.745 -0.8552  1.2642 -1.8889
  751MOL0     H99087   5.096   2.799   9.663  0.5641  1.5343 -0.8040
  751MOL0     H99088   4.934   2.717   9.832 -3.1519 -4.7870 -0.8329
  751MOL0     H99089   4.870   2.694   9.673  0.6688  0.0387 -0.3142
  751MOL0     H99090   4.771   2.900   9.879 -2.4313  2.0261  0.5088
  751MOL0     H99091   4.734   2.930   9.714  1.0550  2.0062  1.5865
  751MOL0     H99092   4.667   2.699   9.899 -2.3532  0.4054  1.4343
  751MOL0     H99093   4.661   2.672   9.720  0.8552 -4.3614  2.5080
  751MOL0     H99094   4.262   2.865   9.781 -2.1466  0.9498 -1.7598
  751MOL0     H99095   4.139   2.946   9.597  1.1429  1.5161  1.2623
  751MOL0     H99096   4.211   2.783   9.042  3.6249  1.6717  2.9508
  751MOL0     H99097   4.109   2.847   8.819 -3.8783  1.3526  0.1455
  751MOL0     H99098   4.077   3.283   8.682 -0.8833  0.4216  2.0392
  751MOL0     H99099   3.970   3.205   8.799 -0.9353 -2.0439 -0.7947
  751MOL0     H99100   3.869   3.071   8.614 -1.5945  1.1595 -0.1444
  751MOL0     H99101   3.963   3.158   8.497  1.1655  1.3267 -0.1651
  751MOL0     H99102   3.842   3.374   8.610  2.4590 -0.7786  0.2804
  751MOL0     H99103   3.741   3.246   8.688 -0.0793 -2.4781  0.6815
  751MOL0     H99104   3.660   3.359   8.465  0.1136  1.0793  3.0554
  751MOL0     H99105   3.794   3.257   8.404 -3.1813 -1.2058 -3.4657
  751MOL0     H99106   3.686   3.060   8.484  1.4444  1.4904 -0.0366
  751MOL0     H99107   3.597   3.143   8.351 -2.1028 -2.7347  0.9689
  751MOL0     H99108   3.441   3.256   8.512  1.2845  0.6243  2.7704
  751MOL0     H99109   3.501   3.165   8.634 -1.8499  2.8797 -0.4659
  751MOL0     H99110   3.432   2.944   8.513  2.4739  1.6297 -1.3465
  751MOL0     H99111   3.307   3.060   8.587  0.4418  1.6245 -0.0426
  751MOL0     H99112   3.368   3.021   8.295 -1.5759  1.0789 -1.6872
  751MOL0     H99113   3.268   3.155   8.364  1.5448  0.4424  0.4392
  751MOL0     H99114   4.215   3.243   8.881  1.5065 -0.0952  0.2766
  751MOL0     H99115   4.279   3.193   9.135 -2.1789  0.1768  1.5249
  751MOL0     H99116   4.504   2.907   9.361  0.1910 -0.6868  0.2913
  751MOL0     H99117   4.632   2.837   9.553  0.4557  1.8136 -1.7419
  751MOL0     H99118   6.058   3.531   9.103 -1.8838 -0.0757  0.1100
  751MOL0     H99119   6.276   3.488   9.196  1.4140  0.2663  1.7533
  751MOL0     H99120   6.678   3.570   9.483 -3.8984 -0.7312 -2.3480
  751MOL0     H99121   6.842   3.496   9.659  2.1024 -2.9788  4.4123
  751MOL0     H99122   6.938   3.445   9.987  1.2266 -1.8380  0.2378
  751MOL0     H99123   6.894   3.547   9.850 -1.6821  0.1533 -1.2417
  751MOL0     H99124   7.019   3.258   9.876  3.6950 -1.1269 -1.6635
  751MOL0     H99125   6.988   3.324   9.719 -1.8471  1.2228 -0.2177
  751MOL0     H99126   7.235   3.324   9.821 -0.4683 -0.4930 -3.8715
  751MOL0     H99127   7.170   3.459   9.909 -3.3969  1.6508  0.0676
  751MOL0     H99128   7.294   3.499   9.678  0.2444  0.3539  0.5862
  751MOL0     H99129   7.163   3.439   9.592  0.8014 -1.7983  1.1290
  751MOL0     H99130   7.051   3.822   9.706  2.7893  1.3987  1.4108
  751MOL0     H99131   6.557   3.273   9.863 -1.7181  0.9904 -0.0345
  751MOL0     H99132   6.393   3.315   9.687 -0.1506 -0.6527  0.0214
  752MOL0     O99133   0.569   5.399   7.309 -0.3531  0.8619 -1.0104
  752MOL0     C99134   0.666   5.467   7.283  0.5162 -0.0094  0.0564
  752MOL0     O99135   0.693   5.518   7.160  0.1642 -0.4165 -0.1403
  752MOL0     C99136   0.594   5.501   7.063 -0.2193  0.1830 -0.3913
  752MOL0     C99137   0.634   5.436   6.946  0.0708 -0.6310 -0.4202
  752MOL0     C99138   0.551   5.423   6.835 -0.1473 -0.3581 -0.0525
  752MOL0     C99139   0.421   5.476   6.838  0.6650 -0.3328 -0.1995
  752MOL0     O99140   0.344   5.464   6.730  0.0379  0.3047 -1.2797
  752MOL0     C99141   0.208   5.414   6.740  0.1306 -0.7852 -0.5663
  752MOL0     C99142   0.161   5.384   6.604 -0.4085 -0.3602 -0.0490
  752MOL0     C99143   0.008   5.384   6.591 -0.1816  0.3747  1.0203
  752MOL0     C99144  -0.041   5.295   6.477 -0.1615  0.7677 -0.8564
  752MOL0     C99145  -0.192   5.292   6.443  0.3737 -0.5124 -0.0388
  752MOL0     C99146  -0.209   5.249   6.303  0.4854  0.4640  0.4990
  752MOL0     C99147  -0.353   5.221   6.265  0.1175  1.0186  0.2548
  752MOL0     C99148  -0.420   5.360   6.267  0.1437  0.1450  1.2110
  752MOL0     N99149  -0.564   5.359   6.233  0.7757  0.4774 -0.1449
  752MOL0     C99150  -0.645   5.256   6.261 -0.0017  0.0731 -0.1638
  752MOL0     C99151  -0.767   5.294   6.229 -0.1274 -0.1696 -0.5604
  752MOL0     C99152  -0.870   5.204   6.237 -0.2414  0.0008  0.4992
  752MOL0     C99153  -1.010   5.267   6.219 -0.3356  0.5957 -0.1050
  752MOL0     C99154  -1.054   5.350   6.342  0.8305  0.4579 -0.2476
  752MOL0     C99155  -1.109   5.270   6.458  0.2069  0.3118 -0.5811
  752MOL0     O99156  -1.215   5.334   6.542 -0.0349 -0.0385  0.2705
  752MOL0     C99157  -1.341   5.317   6.499 -0.1123  0.3732 -0.3349
  752MOL0     C99158  -1.388   5.245   6.379 -0.8145  0.2621  0.7985
  752MOL0     C99159  -1.522   5.233   6.355  0.2868  0.2387 -0.1737
  752MOL0     C99160  -1.619   5.293   6.438  0.7623  0.7287 -0.3935
  752MOL0     C99161  -1.759   5.282   6.405  0.2368 -0.0823 -1.6384
  752MOL0     O99162  -1.791   5.246   6.287 -0.2283 -0.6087  0.6844
  752MOL0     C99163  -1.915   5.267   6.230 -0.2130 -0.2260  0.0044
  752MOL0     C99164  -1.939   5.191   6.125 -0.8470 -0.4081  0.2974
  752MOL0     C99165  -2.054   5.199   6.048  0.6398 -0.3009 -1.0791
  752MOL0     C99166  -2.161   5.283   6.087 -0.9651  0.2066  0.9872
  752MOL0     O99167  -2.273   5.262   6.016 -0.0097 -0.1714 -0.1141
  752MOL0     C99168  -2.378   5.362   6.026  0.0529 -0.3413  0.2746
  752MOL0     C99169  -2.489   5.316   5.941  0.2214 -0.0944 -0.0864
  752MOL0     C99170  -2.604   5.432   5.923 -0.6929  0.0406  0.5642
  752MOL0     C99171  -2.645   5.479   6.063  0.5704  0.0856  0.0030
  752MOL0     C99172  -2.759   5.573   6.071 -0.2113 -1.0138  0.2876
  752MOL0     C99173  -2.898   5.531   6.026  0.4695 -0.2839 -0.8409
  752MOL0     C99174  -3.015   5.637   6.046  0.2707  0.3929 -0.9117
  752MOL0     C99175  -3.155   5.585   6.016  1.2707 -1.0035 -0.1605
  752MOL0    Cl99176  -3.290   5.698   6.010  0.0775 -0.0070  0.6968
  752MOL0     C99177  -2.139   5.368   6.197  0.9830 -1.2402 -0.3811
  752MOL0     C99178  -2.012   5.363   6.264  0.8993  0.3200 -0.0583
  752MOL0     O99179  -1.839   5.307   6.493  0.1238 -0.2523  0.0900
  752MOL0     C99180  -1.578   5.355   6.552 -0.5970 -0.4900 -0.0856
  752MOL0     C99181  -1.438   5.369   6.582  0.2498 -0.3747  0.1930
  752MOL0     N99182  -0.766   5.416   6.168  0.1055  0.3211  0.1638
  752MOL0     N99183  -0.641   5.458   6.176  0.1667 -0.2584 -0.8696
  752MOL0     C99184   0.375   5.543   6.961  0.0051  0.1372  0.8576
  752MOL0     C99185   0.461   5.558   7.069 -1.0574  0.5265  0.0312
  752MOL0     C99186   0.764   5.480   7.392  0.0370 -0.2149  0.3163
  752MOL0     C99187   0.881   5.547   7.356 -0.4592 -0.2852 -0.2649
  752MOL0     C99188   0.977   5.573   7.451 -0.0540  0.1304 -0.4108
  752MOL0     C99189   0.955   5.521   7.584 -0.0769  0.3659  0.4109
  752MOL0     O99190   1.051   5.540   7.683  0.8484 -0.5464  0.0770
  752MOL0     C99191   1.164   5.623   7.659  0.2747  1.0656 -0.8757
  752MOL0     C99192   1.239   5.655   7.791 -0.3596  0.9327  0.1933
  752MOL0     C99193   1.232   5.812   7.814 -0.8731  0.2420 -0.6684
  752MOL0     C99194   1.310   5.861   7.944  0.0729 -0.1906 -0.6099
  752MOL0     C99195   1.359   5.751   8.025 -0.3345  0.3950 -0.8433
  752MOL0     C99196   1.400   5.658   8.096  0.3182  0.5404 -0.0700
  752MOL0     C99197   0.835   5.454   7.621  0.0149 -0.4075  0.6069
  752MOL0     C99198   0.739   5.446   7.524  0.7403 -0.3377 -0.0395
  752MOL0     H99199   0.736   5.401   6.939  0.5735  0.5425  0.5561
  752MOL0     H99200   0.585   5.372   6.746  3.0588  1.2140  0.1197
  752MOL0     H99201   0.138   5.487   6.783  0.7458  0.0601 -0.9813
  752MOL0     H99202   0.208   5.328   6.809  0.5037 -0.0024  0.4340
  752MOL0     H99203   0.196   5.283   6.582 -2.6647 -0.8428 -1.9061
  752MOL0     H99204   0.200   5.464   6.539  4.6748 -1.4872  1.1764
  752MOL0     H99205  -0.025   5.484   6.561  0.2762  1.2623  3.2294
  752MOL0     H99206  -0.031   5.363   6.692  1.5078  0.0500  1.6384
  752MOL0     H99207   0.006   5.333   6.386 -3.4588 -1.2737 -3.7165
  752MOL0     H99208   0.006   5.197   6.495  2.5608  1.9557 -1.0895
  752MOL0     H99209  -0.218   5.398   6.455  1.2597 -0.3783  0.7464
  752MOL0     H99210  -0.246   5.229   6.514  0.1738 -0.6032 -0.2664
  752MOL0     H99211  -0.136   5.170   6.282  2.6518  2.7190 -1.0028
  752MOL0     H99212  -0.180   5.330   6.236 -1.4016  2.4192  1.9235
  752MOL0     H99213  -0.361   5.174   6.166  0.4293  1.2297  0.1275
  752MOL0     H99214  -0.399   5.156   6.339  0.5998  1.0272  0.5655
  752MOL0     H99215  -0.374   5.420   6.188 -0.4282 -1.8630 -0.7289
  752MOL0     H99216  -0.409   5.410   6.364 -0.3066  1.1709  0.7515
  752MOL0     H99217  -0.609   5.162   6.302  3.1451  1.4726  0.6275
  752MOL0     H99218  -0.864   5.145   6.329  0.8861 -1.0966 -0.2494
  752MOL0     H99219  -0.865   5.126   6.160  1.3224 -0.9446  1.5240
  752MOL0     H99220  -1.079   5.187   6.189  1.3852 -0.9295 -0.2055
  752MOL0     H99221  -1.010   5.339   6.137 -0.1770  0.2106 -0.4434
  752MOL0     H99222  -0.964   5.398   6.383  0.3218 -0.5954  2.2626
  752MOL0     H99223  -1.134   5.419   6.312  2.2302  1.8002 -1.0677
  752MOL0     H99224  -1.020   5.246   6.518  0.6041  1.0662 -0.8685
  752MOL0     H99225  -1.147   5.174   6.421  0.6532  0.9552 -2.8029
  752MOL0     H99226  -1.321   5.181   6.322 -1.3547 -0.2715  0.7483
  752MOL0     H99227  -1.551   5.179   6.265 -2.0962 -2.3389  1.9392
  752MOL0     H99228  -1.863   5.123   6.089  0.2096  1.0525 -0.3167
  752MOL0     H99229  -2.060   5.140   5.957 -3.0697  0.8229 -1.6962
  752MOL0     H99230  -2.336   5.458   5.995  0.5544 -0.6351  0.0211
  752MOL0     H99231  -2.406   5.367   6.132 -0.2997  3.3178  0.1497
  752MOL0     H99232  -2.527   5.223   5.985 -0.4103  1.5025  3.0716
  752MOL0     H99233  -2.442   5.304   5.843 -0.3801  0.7190 -0.4941
  752MOL0     H99234  -2.681   5.378   5.868  1.3851 -1.5283 -0.9650
  752MOL0     H99235  -2.571   5.511   5.854  1.2871  0.6948  2.1550
  752MOL0     H99236  -2.682   5.393   6.120  1.1854  1.3459  2.4589
  752MOL0     H99237  -2.564   5.520   6.123 -0.6245  0.2567  1.5860
  752MOL0     H99238  -2.726   5.659   6.011 -3.5074  2.6748  3.2333
  752MOL0     H99239  -2.769   5.616   6.171 -1.3387  0.8107 -0.5523
  752MOL0     H99240  -2.930   5.441   6.081  3.2001 -0.3697  0.7944
  752MOL0     H99241  -2.890   5.507   5.920  0.7209  0.0737 -0.9046
  752MOL0     H99242  -3.015   5.676   6.148  2.1650  0.0765 -0.7511
  752MOL0     H99243  -2.997   5.727   5.987  0.6710  1.9534  1.4773
  752MOL0     H99244  -3.193   5.519   6.094 -3.8414  0.9861 -0.6111
  752MOL0     H99245  -3.150   5.543   5.915  0.5700  2.9473 -2.0311
  752MOL0     H99246  -2.215   5.430   6.244 -0.4144 -3.7507  0.8962
  752MOL0     H99247  -2.008   5.428   6.352  1.7574 -1.7890  1.5524
  752MOL0     H99248  -1.640   5.396   6.631  1.7832 -2.9676  3.3984
  752MOL0     H99249  -1.403   5.417   6.673  0.9123  1.3711 -0.9344
  752MOL0     H99250   0.280   5.596   6.958  0.1768  0.5727  2.2854
  752MOL0     H99251   0.427   5.599   7.163  0.6053  1.2518  0.3454
  752MOL0     H99252   0.887   5.586   7.255 -0.7131  0.1219 -0.1259
  752MOL0     H99253   1.074   5.612   7.422 -0.7949  0.4309 -2.6759
  752MOL0     H99254   1.128   5.718   7.617  2.1381  1.3191 -2.0446
  752MOL0     H99255   1.242   5.584   7.593  1.6312  0.7393  0.8665
  752MOL0     H99256   1.194   5.594   7.870  0.4190 -2.4774 -1.7585
  752MOL0     H99257   1.343   5.624   7.781 -0.2281  1.0723  1.0948
  752MOL0     H99258   1.128   5.844   7.822 -1.3783 -1.4932  0.0013
  752MOL0     H99259   1.274   5.867   7.728 -0.9443 -0.3192 -1.0653
  752MOL0     H99260   1.400   5.916   7.915  1.3953 -3.8463 -4.4270
  752MOL0     H99261   1.255   5.942   7.993  2.8948  1.1123  0.6553
  752MOL0     H99262   1.449   5.583   8.154  1.5856 -1.3733 -3.3533
  752MOL0     H99263   0.804   5.413   7.717 -2.5625  1.6563  0.7737
  752MOL0     H99264   0.639   5.413   7.552 -1.2579  2.9502 -2.6307
  753MOL0     O99265   9.213  10.632   1.863 -0.3774  0.7135  0.8055
  753MOL0     C99266   9.116  10.679   1.800  0.4624  0.8509 -0.4411
  753MOL0     O99267   9.124  10.746   1.686  0.4926 -0.4332 -0.3346
  753MOL0     C99268   9.245  10.783   1.639  0.7358  0.0281 -0.9055
  753MOL0     C99269   9.278  10.926   1.635  0.4671  0.0670 -1.0514
  753MOL0     C99270   9.408  10.972   1.595 -1.4172 -0.0031  0.2857
  753MOL0     C99271   9.495  10.887   1.528  0.0652 -0.6140  0.0999
  753MOL0     O99272   9.620  10.933   1.486  0.6403 -0.6168 -0.6379
  753MOL0     C99273   9.637  11.055   1.413  0.2068 -0.2140  0.1834
  753MOL0     C99274   9.686  11.032   1.267 -0.0721  0.0909 -0.6669
  753MOL0     C99275   9.829  10.963   1.258 -0.2853 -0.3245  0.3933
  753MOL0     C99276   9.867  10.939   1.112 -0.3008  0.7594  0.3468
  753MOL0     C99277  10.003  10.874   1.117  0.8150 -0.1542  0.0252
  753MOL0     C99278  10.064  10.864   0.977  0.0069 -0.7483  0.6291
  753MOL0     C99279  10.217  10.844   0.970 -0.2977  0.6081  0.6000
  753MOL0     C99280  10.257  10.714   1.035 -0.1330  0.4716  1.0321
  753MOL0     N99281  10.170  10.601   0.983 -0.0191 -1.7556 -0.3366
  753MOL0     C99282  10.073  10.527   1.043  0.4478  0.5773 -0.2985
  753MOL0     C99283  10.011  10.452   0.943  0.5940 -0.3227 -0.5447
  753MOL0     C99284   9.886  10.367   0.957  0.2266  0.1259 -0.2602
  753MOL0     C99285   9.764  10.449   0.991  1.0692 -0.1401  0.4394
  753MOL0     C99286   9.644  10.367   1.031 -0.5868 -0.7717 -0.0702
  753MOL0     C99287   9.589  10.286   0.911  0.4351  0.1013  0.0265
  753MOL0     O99288   9.486  10.204   0.973  0.0077  0.1813  0.3036
  753MOL0     C99289   9.353  10.218   0.950 -0.2374 -0.1666 -0.9359
  753MOL0     C99290   9.290  10.308   0.857 -0.4929  0.6537 -1.1711
  753MOL0     C99291   9.147  10.320   0.866 -0.6549  0.6782  1.1245
  753MOL0     C99292   9.064  10.251   0.951  0.4056 -0.3139 -0.1425
  753MOL0     C99293   8.913  10.273   0.961 -1.2857  0.0851 -0.0958
  753MOL0     O99294   8.848  10.208   1.066 -0.0262 -0.1286  0.3513
  753MOL0     C99295   8.705  10.202   1.065  0.2319  0.1028  0.5679
  753MOL0     C99296   8.635  10.149   0.952 -0.6997  0.3544 -1.0887
  753MOL0     C99297   8.494  10.115   0.955 -0.5018  0.2938 -0.3072
  753MOL0     C99298   8.428  10.126   1.079  0.4120 -0.0394  0.6270
  753MOL0     O99299   8.295  10.089   1.093 -0.0216  0.2064  0.7119
  753MOL0     C99300   8.196  10.189   1.088  0.4109 -0.4206  0.5028
  753MOL0     C99301   8.055  10.139   1.082 -0.2055  0.3236  0.4001
  753MOL0     C99302   8.035  10.018   0.989 -0.1116  0.4224 -0.9661
  753MOL0     C99303   7.897   9.960   1.006  0.6781  0.4392 -0.1316
  753MOL0     C99304   7.851   9.858   0.905 -0.3236 -0.1404  0.3593
  753MOL0     C99305   7.918   9.724   0.921 -0.0215  0.3716 -0.4667
  753MOL0     C99306   7.895   9.616   0.800  0.5786 -0.0522 -0.8153
  753MOL0     C99307   7.808   9.505   0.838  0.6521 -0.1759 -0.0076
  753MOL0    Cl99308   7.782   9.398   0.703  0.0920 -0.2217 -0.0000
  753MOL0     C99309   8.497  10.186   1.191 -0.6687  0.2316 -0.3249
  753MOL0     C99310   8.632  10.216   1.187  0.1518  0.0142  0.5003
  753MOL0     O99311   8.858  10.337   0.869  0.7476  0.4268 -0.5717
  753MOL0     C99312   9.129  10.169   1.037 -0.0799  0.4253 -0.0289
  753MOL0     C99313   9.267  10.151   1.044 -0.0524 -0.8229 -0.3589
  753MOL0     N99314  10.090  10.466   0.833 -0.2356  0.0747 -0.8122
  753MOL0     N99315  10.185  10.556   0.860 -0.6285  0.3539  0.8734
  753MOL0     C99316   9.467  10.748   1.542  0.5211 -0.5168  0.3375
  753MOL0     C99317   9.346  10.694   1.588  0.0436 -1.0087  0.0520
  753MOL0     C99318   8.977  10.649   1.852 -0.4593  0.3927 -0.8212
  753MOL0     C99319   8.862  10.680   1.766 -0.4761 -0.3259  0.3256
  753MOL0     C99320   8.732  10.644   1.808 -0.1288  1.2427 -0.7870
  753MOL0     C99321   8.715  10.569   1.935  0.2425 -1.1489  0.7389
  753MOL0     O99322   8.600  10.523   1.985 -0.1116  0.4723 -0.1185
  753MOL0     C99323   8.471  10.583   1.949 -0.7299 -0.1548  0.4797
  753MOL0     C99324   8.431  10.697   2.039 -0.7925 -0.2172 -0.8697
  753MOL0     C99325   8.431  10.649   2.191 -0.3163 -0.0530  0.0193
  753MOL0     C99326   8.374  10.759   2.292 -0.0640 -0.1137  0.3867
  753MOL0     C99327   8.234  10.798   2.264  0.0379  0.0791  0.8075
  753MOL0     C99328   8.119  10.832   2.263  0.0889 -0.8433 -0.9472
  753MOL0     C99329   8.822  10.539   2.002 -1.1143 -0.4569 -0.3430
  753MOL0     C99330   8.958  10.573   1.965  0.7988  0.5157 -0.6195
  753MOL0     H99331   9.205  10.989   1.685  0.4794 -1.3612  0.8996
  753MOL0     H99332   9.427  11.079   1.603 -0.6612  0.1753 -2.8339
  753MOL0     H99333   9.694  11.125   1.475 -1.0840  0.3310  0.7987
  753MOL0     H99334   9.538  11.102   1.405  1.3592  2.5057  0.8433
  753MOL0     H99335   9.683  11.130   1.218  3.9344  0.9295  0.3526
  753MOL0     H99336   9.615  10.966   1.216  0.0126 -0.7489  0.2632
  753MOL0     H99337   9.829  10.867   1.310  2.2326 -1.3489 -1.2860
  753MOL0     H99338   9.903  11.032   1.300 -1.0302  0.5488  0.3011
  753MOL0     H99339   9.786  10.884   1.064 -0.8680  1.8907 -0.0233
  753MOL0     H99340   9.864  11.031   1.053 -3.0124 -0.6953 -2.0483
  753MOL0     H99341   9.981  10.772   1.148  2.4658 -0.2801  0.8939
  753MOL0     H99342  10.061  10.916   1.200 -1.2482  0.0475  1.4392
  753MOL0     H99343  10.039  10.960   0.930 -2.1397  0.3151  3.6163
  753MOL0     H99344  10.012  10.794   0.911 -1.3100  2.5259 -2.1129
  753MOL0     H99345  10.254  10.855   0.868 -0.0284  3.9516  0.9214
  753MOL0     H99346  10.268  10.933   1.008  0.4423  0.0162  1.0004
  753MOL0     H99347  10.232  10.717   1.141 -1.8588  0.2831  0.6582
  753MOL0     H99348  10.364  10.705   1.012 -0.2159 -0.9409  1.1659
  753MOL0     H99349  10.035  10.538   1.144  1.0084  0.6705 -0.0919
  753MOL0     H99350   9.900  10.295   1.039  1.3465  1.3220  0.6533
  753MOL0     H99351   9.871  10.305   0.869  2.7983 -2.0443  0.6698
  753MOL0     H99352   9.743  10.506   0.899 -0.3623  1.6854  1.8211
  753MOL0     H99353   9.777  10.520   1.073  0.7256  2.2504 -1.4252
  753MOL0     H99354   9.671  10.290   1.104 -0.3110  0.1564  0.8119
  753MOL0     H99355   9.574  10.434   1.081  0.5577 -0.7255  1.5178
  753MOL0     H99356   9.659  10.209   0.876  1.1071  1.0783 -0.8014
  753MOL0     H99357   9.554  10.336   0.820  0.1965 -0.7627 -0.3687
  753MOL0     H99358   9.355  10.364   0.791  3.1511  0.2311  1.7440
  753MOL0     H99359   9.105  10.398   0.804 -1.3859 -0.8139 -0.3183
  753MOL0     H99360   8.681  10.146   0.854  0.1911  5.1799 -1.0490
  753MOL0     H99361   8.443  10.084   0.864  1.4630  2.2320 -2.2110
  753MOL0     H99362   8.226  10.252   1.004 -0.1321  0.2897  0.8280
  753MOL0     H99363   8.199  10.258   1.172  0.2436  0.4994 -0.2212
  753MOL0     H99364   7.986  10.217   1.049 -1.4715 -0.4032  1.2448
  753MOL0     H99365   8.035  10.129   1.189 -0.8222  0.8206  0.3393
  753MOL0     H99366   8.117   9.950   1.014  0.8484  1.8483 -0.1713
  753MOL0     H99367   8.062  10.052   0.888  1.6855  3.6518  0.4744
  753MOL0     H99368   7.893   9.912   1.104 -3.3870  0.0774 -0.3006
  753MOL0     H99369   7.828  10.045   1.011  1.4003  0.9806  1.4102
  753MOL0     H99370   7.877   9.899   0.807 -0.7162  2.0791  1.1270
  753MOL0     H99371   7.745   9.835   0.889 -0.2559  0.7339 -1.6800
  753MOL0     H99372   7.873   9.682   1.012 -0.4247  0.0145 -0.8248
  753MOL0     H99373   8.024   9.730   0.946 -0.4411  0.8734  1.4048
  753MOL0     H99374   7.834   9.667   0.725 -2.1580 -0.5932  0.8912
  753MOL0     H99375   7.987   9.568   0.766  0.9172 -1.9350  2.3539
  753MOL0     H99376   7.710   9.541   0.870 -0.1711 -1.6477 -0.7882
  753MOL0     H99377   7.847   9.449   0.924 -2.6481  2.4195  3.5098
  753MOL0     H99378   8.440  10.187   1.283 -0.0402  0.6491  0.0597
  753MOL0     H99379   8.680  10.251   1.278  0.4971  0.0857  0.2918
  753MOL0     H99380   9.074  10.114   1.114 -0.6001 -0.0025 -0.6948
  753MOL0     H99381   9.314  10.085   1.116 -1.2150 -0.7804  0.4674
  753MOL0     H99382   9.551  10.689   1.506 -0.3175 -0.2789 -2.2367
  753MOL0     H99383   9.331  10.587   1.591 -0.6169 -0.9778 -1.3346
  753MOL0     H99384   8.875  10.730   1.671  1.3499 -0.4323  0.4786
  753MOL0     H99385   8.647  10.657   1.741 -0.6720 -2.1664 -0.9052
  753MOL0     H99386   8.398  10.502   1.959  1.2647 -2.0353  0.7727
  753MOL0     H99387   8.474  10.629   1.850 -0.1896 -0.1264  0.5048
  753MOL0     H99388   8.506  10.776   2.031  0.2443 -0.8864  1.3785
  753MOL0     H99389   8.333  10.738   2.016  0.9990  4.1963 -1.5311
  753MOL0     H99390   8.536  10.627   2.209  0.3921  0.8146 -2.6469
  753MOL0     H99391   8.375  10.555   2.199  1.0499 -0.9854 -1.0367
  753MOL0     H99392   8.382  10.713   2.391  1.8468 -1.6612 -0.4216
  753MOL0     H99393   8.448  10.840   2.302 -0.9988  0.5875  2.0328
  753MOL0     H99394   8.024  10.880   2.277  1.0479  0.4558  1.9405
  753MOL0     H99395   8.811  10.489   2.097  0.1575  0.0888  0.1089
  753MOL0     H99396   9.038  10.534   2.028 -0.3781  1.5659  1.6773
  754MOL0     O99397   0.693   5.743  10.919 -0.2663  0.6958  0.3528
  754MOL0     C99398   0.714   5.759  11.039  0.4300 -1.3691  0.2740
  754MOL0     O99399   0.617   5.770  11.132 -0.6828 -0.0685  0.7595
  754MOL0     C99400   0.491   5.728  11.088 -0.2471 -0.1138  0.3328
  754MOL0     C99401   0.415   5.784  10.989  0.1091  0.1272 -1.0156
  754MOL0     C99402   0.290   5.727  10.969  0.3992  1.1692  0.0560
  754MOL0     C99403   0.243   5.609  11.037  1.4190 -0.4731  0.1507
  754MOL0     O99404   0.121   5.555  10.996  0.4637  0.0429  0.4639
  754MOL0     C99405   0.021   5.535  11.104 -0.3972  0.5544  0.2576
  754MOL0     C99406  -0.125   5.544  11.051  0.7708 -0.3150  0.7170
  754MOL0     C99407  -0.150   5.455  10.934  0.1511 -0.1488  0.3729
  754MOL0     C99408  -0.291   5.477  10.892  0.0350  0.5503  1.0599
  754MOL0     C99409  -0.332   5.380  10.780 -0.5871  0.1771  0.7246
  754MOL0     C99410  -0.492   5.369  10.777  0.0703 -0.4406 -1.1181
  754MOL0     C99411  -0.537   5.312  10.648 -0.0784  0.2784  0.2284
  754MOL0     C99412  -0.682   5.286  10.650 -1.3315  0.3243 -0.0562
  754MOL0     N99413  -0.766   5.400  10.664 -0.6538 -0.3155 -0.2436
  754MOL0     C99414  -0.788   5.512  10.580 -0.5576  0.2953  0.9904
  754MOL0     C99415  -0.881   5.582  10.639 -0.2946 -0.8468  0.8465
  754MOL0     C99416  -0.917   5.725  10.596 -0.3202  0.4691  0.0434
  754MOL0     C99417  -1.068   5.745  10.550  0.5284 -0.0145  0.2042
  754MOL0     C99418  -1.062   5.805  10.407  0.2479 -0.7341 -0.2781
  754MOL0     C99419  -1.200   5.785  10.340 -0.0001 -0.5953  0.4684
  754MOL0     O99420  -1.308   5.847  10.419  0.1103 -0.1931  0.9195
  754MOL0     C99421  -1.429   5.865  10.361  0.1890  0.0129 -0.1375
  754MOL0     C99422  -1.467   5.794  10.246  0.3056  0.3063  1.5146
  754MOL0     C99423  -1.578   5.817  10.184  0.3249 -0.0217  0.9362
  754MOL0     C99424  -1.682   5.891  10.249 -0.2715  0.3788  0.3452
  754MOL0     C99425  -1.819   5.898  10.193 -0.0284 -0.2654  0.4146
  754MOL0     O99426  -1.841   5.824  10.082  0.0759 -0.2376  0.0959
  754MOL0     C99427  -1.952   5.837  10.000 -0.0954 -0.5756  0.0631
  754MOL0     C99428  -2.013   5.957   9.971  0.1189 -0.1028 -0.1527
  754MOL0     C99429  -2.138   5.956   9.899  0.3728  0.0385 -0.7309
  754MOL0     C99430  -2.183   5.846   9.829 -0.5214  0.5749 -0.3124
  754MOL0     O99431  -2.284   5.844   9.738  0.0127 -0.1724  0.4276
  754MOL0     C99432  -2.355   5.962   9.698  0.3687  0.2458 -0.1970
  754MOL0     C99433  -2.457   5.921   9.597  0.4440 -0.1186 -0.0869
  754MOL0     C99434  -2.403   5.848   9.476  0.8616 -0.3982  0.3755
  754MOL0     C99435  -2.490   5.875   9.347 -0.3590  0.5406  0.0831
  754MOL0     C99436  -2.481   5.764   9.245  0.3806  0.0083  0.1224
  754MOL0     C99437  -2.538   5.814   9.111  0.6335 -0.3163 -0.2385
  754MOL0     C99438  -2.512   5.706   9.001 -0.1205 -0.3789  0.7290
  754MOL0     C99439  -2.555   5.754   8.860 -0.0128  1.0729  0.3915
  754MOL0    Cl99440  -2.727   5.786   8.874  0.2710 -0.0687  0.0254
  754MOL0     C99441  -2.108   5.731   9.848  0.0095 -1.0010 -0.1956
  754MOL0     C99442  -1.996   5.720   9.933 -0.8333 -0.3866  0.4821
  754MOL0     O99443  -1.906   5.972  10.248 -0.0545  0.6992  0.2473
  754MOL0     C99444  -1.655   5.953  10.370 -0.5953 -0.1343 -0.2302
  754MOL0     C99445  -1.524   5.942  10.419 -0.3868  0.0498 -0.2998
  754MOL0     N99446  -0.938   5.517  10.748 -0.1339 -1.1845 -0.7576
  754MOL0     N99447  -0.864   5.411  10.756  0.1020 -0.7793  0.4234
  754MOL0     C99448   0.319   5.562  11.145  0.4647  0.2673  0.2754
  754MOL0     C99449   0.442   5.614  11.166  0.0130  0.1171 -0.1843
  754MOL0     C99450   0.852   5.772  11.083 -0.9125  0.3169 -0.0086
  754MOL0     C99451   0.884   5.762  11.218 -0.4455  0.0735 -0.1431
  754MOL0     C99452   1.015   5.758  11.257 -0.9197  0.5651 -0.5350
  754MOL0     C99453   1.119   5.751  11.166 -0.2418  0.7676  0.2787
  754MOL0     O99454   1.250   5.722  11.199 -0.7960 -0.1801  0.7814
  754MOL0     C99455   1.287   5.712  11.331 -0.0604 -0.1508 -1.2032
  754MOL0     C99456   1.438   5.685  11.348 -0.3304  0.1686  0.9087
  754MOL0     C99457   1.482   5.709  11.485  1.3079 -0.2235 -0.7638
  754MOL0     C99458   1.623   5.654  11.512  1.0956  0.0722  0.7251
  754MOL0     C99459   1.642   5.643  11.660  0.3212 -0.5258 -0.0962
  754MOL0     C99460   1.667   5.637  11.777 -0.3660 -0.1941  0.0683
  754MOL0     C99461   1.090   5.761  11.029 -0.4286 -0.3994  0.4303
  754MOL0     C99462   0.959   5.785  10.983 -0.1824  0.8588 -0.3696
  754MOL0     H99463   0.457   5.860  10.923  0.5082  3.2054  2.4412
  754MOL0     H99464   0.224   5.761  10.890 -0.8944  0.9743  1.0413
  754MOL0     H99465   0.036   5.604  11.188 -0.9163 -0.4152  1.1697
  754MOL0     H99466   0.014   5.433  11.143 -1.3592  0.8506  0.9135
  754MOL0     H99467  -0.159   5.644  11.023 -0.6568 -1.1950 -0.9195
  754MOL0     H99468  -0.189   5.513  11.134  0.6798  1.1409  1.2108
  754MOL0     H99469  -0.139   5.347  10.947 -0.9108 -0.3311 -0.0952
  754MOL0     H99470  -0.078   5.481  10.856  1.6834  1.1749  2.1251
  754MOL0     H99471  -0.352   5.458  10.981  2.9118 -2.9663  2.5468
  754MOL0     H99472  -0.317   5.580  10.866  2.5055  1.0953  0.5580
  754MOL0     H99473  -0.288   5.282  10.802  1.8155  0.4016 -2.3743
  754MOL0     H99474  -0.284   5.404  10.684  0.0453  0.0603  1.0021
  754MOL0     H99475  -0.537   5.464  10.807 -1.1819 -1.9259  2.1921
  754MOL0     H99476  -0.511   5.300  10.860  2.1190  0.0450 -0.1674
  754MOL0     H99477  -0.525   5.381  10.564 -1.2523 -0.3196 -0.4609
  754MOL0     H99478  -0.479   5.220  10.635 -0.1426  0.0329  1.5402
  754MOL0     H99479  -0.711   5.218  10.730  0.3786 -1.3029 -0.7519
  754MOL0     H99480  -0.712   5.237  10.557 -0.2771 -0.3084 -0.0727
  754MOL0     H99481  -0.730   5.531  10.491  1.6761 -0.4463  2.2146
  754MOL0     H99482  -0.858   5.739  10.505  4.6241 -3.2223  2.1886
  754MOL0     H99483  -0.886   5.788  10.680  0.4352 -1.8259  1.5740
  754MOL0     H99484  -1.108   5.807  10.631  2.8536  0.3151  1.1833
  754MOL0     H99485  -1.132   5.657  10.545 -0.4728  0.7306 -0.7938
  754MOL0     H99486  -1.040   5.912  10.415  0.2827 -0.6506 -1.3588
  754MOL0     H99487  -0.997   5.753  10.337 -0.0618 -1.4692 -0.0286
  754MOL0     H99488  -1.221   5.681  10.313 -0.2980 -0.1365 -1.1702
  754MOL0     H99489  -1.180   5.840  10.248  5.1664  1.8741  2.6790
  754MOL0     H99490  -1.401   5.719  10.203 -0.9456  0.7994 -1.6038
  754MOL0     H99491  -1.605   5.761  10.094 -1.8407 -0.4707  1.7907
  754MOL0     H99492  -1.959   6.039  10.017  1.7241 -0.5284 -1.1974
  754MOL0     H99493  -2.203   6.041   9.883 -0.8022 -0.6608  0.1986
  754MOL0     H99494  -2.284   6.031   9.651  1.6574 -0.9880 -0.1321
  754MOL0     H99495  -2.397   5.998   9.793  0.8831  0.2077  0.0486
  754MOL0     H99496  -2.510   6.010   9.563 -0.9713 -1.1364 -0.6168
  754MOL0     H99497  -2.535   5.862   9.644 -1.1895 -0.6923 -3.2603
  754MOL0     H99498  -2.394   5.742   9.501  2.2823 -0.3932 -0.0675
  754MOL0     H99499  -2.305   5.887   9.447  0.1222  0.9001 -0.4900
  754MOL0     H99500  -2.595   5.895   9.369 -0.9610 -1.7338 -0.4719
  754MOL0     H99501  -2.447   5.968   9.308 -0.6867  0.6216 -0.0860
  754MOL0     H99502  -2.530   5.679   9.293  2.9434 -1.5348  0.2490
  754MOL0     H99503  -2.379   5.727   9.230  0.6402  0.6693  0.2467
  754MOL0     H99504  -2.484   5.905   9.082  3.3925 -0.5618  3.4484
  754MOL0     H99505  -2.646   5.827   9.118  0.8726  1.4498  0.8620
  754MOL0     H99506  -2.405   5.684   8.992 -0.2969 -0.7743 -0.5665
  754MOL0     H99507  -2.560   5.610   9.022  0.2663  0.0611  4.0605
  754MOL0     H99508  -2.526   5.676   8.790 -1.4831 -1.7738  2.6882
  754MOL0     H99509  -2.514   5.850   8.830 -2.5291  2.3309  0.6872
  754MOL0     H99510  -2.144   5.645   9.793 -0.8491 -1.6606  1.3177
  754MOL0     H99511  -1.942   5.628   9.953  2.6084  1.3139 -0.3274
  754MOL0     H99512  -1.726   6.016  10.423 -0.2000  0.9700 -0.9860
  754MOL0     H99513  -1.497   5.998  10.508  2.0846 -0.8159 -0.4171
  754MOL0     H99514   0.289   5.474  11.202 -0.9781  1.4800  1.4956
  754MOL0     H99515   0.499   5.579  11.252  1.1876  1.5839 -0.3205
  754MOL0     H99516   0.799   5.755  11.285  1.1849 -0.1510  1.9905
  754MOL0     H99517   1.032   5.749  11.364 -2.1280 -1.5459 -0.4481
  754MOL0     H99518   1.230   5.637  11.388  0.6869  0.5965  0.6095
  754MOL0     H99519   1.275   5.809  11.379  0.0471 -1.3000  1.3319
  754MOL0     H99520   1.443   5.577  11.334  0.2628 -0.0728  2.7039
  754MOL0     H99521   1.499   5.745  11.279 -0.4751 -0.5164  0.1726
  754MOL0     H99522   1.404   5.661  11.545  0.5944 -1.5902 -2.6762
  754MOL0     H99523   1.491   5.815  11.509 -0.3969  0.0994 -1.3866
  754MOL0     H99524   1.633   5.550  11.480 -0.6431  0.1596 -0.2385
  754MOL0     H99525   1.693   5.711  11.450 -1.7777  0.0908 -2.8659
  754MOL0     H99526   1.678   5.618  11.882 -1.1533  1.9317  0.6047
  754MOL0     H99527   1.178   5.752  10.966 -0.7606  2.3493 -0.5413
  754MOL0     H99528   0.954   5.803  10.876  0.6515 -2.3514 -1.0439
  755MOL0     O99529   9.158   3.355   0.132  0.1180  0.5200 -0.5742
  755MOL0     C99530   9.199   3.291   0.040  0.1529  0.3327  0.0003
  755MOL0     O99531   9.122   3.228  -0.053 -0.1150  0.3636 -0.8173
  755MOL0     C99532   8.985   3.248  -0.059 -0.6441 -0.7833  0.0676
  755MOL0     C99533   8.911   3.142  -0.086  0.2567  0.1610  0.5575
  755MOL0     C99534   8.772   3.147  -0.116  0.2197  0.8942 -0.7135
  755MOL0     C99535   8.705   3.273  -0.100  0.3580  0.4361  0.1666
  755MOL0     O99536   8.567   3.294  -0.119  0.4232 -0.0871 -0.5031
  755MOL0     C99537   8.491   3.180  -0.104 -0.3814 -0.0540 -0.4314
  755MOL0     C99538   8.345   3.221  -0.082  0.2745 -1.3322  0.3139
  755MOL0     C99539   8.282   3.270  -0.219  0.1053 -0.3605  0.1936
  755MOL0     C99540   8.130   3.274  -0.195 -0.4562  0.4757 -0.0979
  755MOL0     C99541   8.057   3.321  -0.327  0.7035 -0.0047 -0.7116
  755MOL0     C99542   7.917   3.354  -0.282  0.1397 -0.8257 -0.0652
  755MOL0     C99543   7.819   3.239  -0.308  0.0709  0.0644 -0.2665
  755MOL0     C99544   7.676   3.282  -0.304  0.2352  0.0614  0.9540
  755MOL0     N99545   7.593   3.164  -0.321  0.9307 -0.4721 -0.6296
  755MOL0     C99546   7.603   3.058  -0.236 -0.2910 -0.4134  0.0358
  755MOL0     C99547   7.554   2.946  -0.298 -0.1425  0.0929 -0.2420
  755MOL0     C99548   7.540   2.819  -0.219 -0.6971  0.2187 -0.2720
  755MOL0     C99549   7.661   2.722  -0.215  0.0516 -0.4625 -0.2783
  755MOL0     C99550   7.712   2.669  -0.351  0.0047  0.4705 -0.2334
  755MOL0     C99551   7.829   2.577  -0.342 -0.1156  0.0273 -0.2242
  755MOL0     O99552   7.813   2.475  -0.243  0.5246 -0.0533  0.3386
  755MOL0     C99553   7.936   2.416  -0.220  0.9801  0.1867 -0.1416
  755MOL0     C99554   7.985   2.309  -0.301 -0.2796 -0.5473  0.3438
  755MOL0     C99555   8.111   2.250  -0.277 -0.0831 -0.0814  0.3345
  755MOL0     C99556   8.198   2.310  -0.190 -0.0336  0.1840  0.6051
  755MOL0     C99557   8.327   2.259  -0.180  0.0692 -0.3272  0.1703
  755MOL0     O99558   8.384   2.245  -0.059 -0.6992  0.0315 -0.0981
  755MOL0     C99559   8.515   2.194  -0.047 -0.0003 -0.3107  0.0957
  755MOL0     C99560   8.623   2.276  -0.076 -0.2332  0.1710 -0.0376
  755MOL0     C99561   8.753   2.222  -0.075  0.1617  0.0101  0.3478
  755MOL0     C99562   8.779   2.092  -0.023  0.1749  0.1271 -0.7067
  755MOL0     O99563   8.911   2.044  -0.005  0.5416 -0.8112  0.6774
  755MOL0     C99564   9.018   2.114  -0.070  0.7039  0.2801  0.0110
  755MOL0     C99565   9.148   2.037  -0.066  0.3818  1.2496  0.1068
  755MOL0     C99566   9.262   2.068  -0.154 -0.1704 -0.0509 -0.5671
  755MOL0     C99567   9.376   1.972  -0.136 -0.1524  0.6270 -0.6577
  755MOL0     C99568   9.501   1.994  -0.222  0.4651 -1.7567 -0.3216
  755MOL0     C99569   9.629   1.917  -0.185 -0.4088 -0.0609  0.5910
  755MOL0     C99570   9.690   1.976  -0.060  0.8434 -0.2367 -0.2542
  755MOL0     C99571   9.750   1.873   0.037  0.7251 -1.0284  0.0069
  755MOL0    Cl99572   9.635   1.754   0.086  0.0937  0.1447 -0.0737
  755MOL0     C99573   8.677   2.017   0.018 -0.3793 -0.6500  0.0448
  755MOL0     C99574   8.546   2.066  -0.001  0.6343 -0.0117 -0.0114
  755MOL0     O99575   8.381   2.215  -0.285 -0.3817 -0.5641  0.2311
  755MOL0     C99576   8.156   2.423  -0.117 -0.3536  0.1987  0.0514
  755MOL0     C99577   8.024   2.471  -0.128 -0.1702 -0.2631  0.5883
  755MOL0     N99578   7.530   2.982  -0.428  0.7813 -0.2624  0.2889
  755MOL0     N99579   7.544   3.109  -0.438 -0.0153 -0.6604  0.4694
  755MOL0     C99580   8.785   3.386  -0.070 -0.2129  0.7523  0.9400
  755MOL0     C99581   8.924   3.378  -0.067  0.2534  0.3277 -0.9775
  755MOL0     C99582   9.352   3.282   0.031  0.3218 -0.8723 -0.1651
  755MOL0     C99583   9.436   3.345   0.128  0.1178  0.3311 -0.1971
  755MOL0     C99584   9.573   3.325   0.122 -0.3323  0.0569 -0.3255
  755MOL0     C99585   9.631   3.249   0.022  0.2969 -0.7753 -0.4752
  755MOL0     O99586   9.765   3.235   0.006 -0.4930  0.4421  0.7666
  755MOL0     C99587   9.860   3.312   0.080  0.1276  0.2587  0.2659
  755MOL0     C99588   9.863   3.461   0.054 -0.3644  0.3138  0.0829
  755MOL0     C99589   9.949   3.541   0.158  0.0255 -0.1407  0.0972
  755MOL0     C99590   9.990   3.677   0.113  0.1265 -0.4172 -0.4315
  755MOL0     C99591  10.130   3.666   0.073 -0.5731  0.1899  0.0470
  755MOL0     C99592  10.247   3.662   0.034  0.9577  0.9693 -0.1535
  755MOL0     C99593   9.548   3.202  -0.076 -0.0494  0.1272  0.4865
  755MOL0     C99594   9.410   3.214  -0.076 -0.1813 -0.4428  0.1338
  755MOL0     H99595   8.965   3.050  -0.106  0.1115  0.1123  0.3809
  755MOL0     H99596   8.727   3.055  -0.152 -2.6363  2.4676 -1.4278
  755MOL0     H99597   8.519   3.130  -0.011 -1.5680  1.4219  0.7972
  755MOL0     H99598   8.493   3.117  -0.193 -0.1101  0.8434 -1.0759
  755MOL0     H99599   8.340   3.307  -0.014  2.7155  0.6511 -1.7738
  755MOL0     H99600   8.288   3.139  -0.039 -2.9207  1.5999  2.2528
  755MOL0     H99601   8.310   3.199  -0.297 -0.0255 -0.1832 -0.0184
  755MOL0     H99602   8.326   3.366  -0.250  0.6128 -0.1384  1.5373
  755MOL0     H99603   8.086   3.180  -0.161  0.9727 -0.2062 -0.0205
  755MOL0     H99604   8.120   3.352  -0.120  1.8093  1.9216 -1.1976
  755MOL0     H99605   8.056   3.248  -0.409 -2.4989 -2.2542  1.0943
  755MOL0     H99606   8.107   3.414  -0.353 -1.8855  1.4583 -0.7834
  755MOL0     H99607   7.890   3.433  -0.352  1.1209 -0.4222  0.0039
  755MOL0     H99608   7.898   3.384  -0.178 -0.4913  1.8749 -0.8786
  755MOL0     H99609   7.831   3.195  -0.407 -0.1598 -3.4314  1.1164
  755MOL0     H99610   7.847   3.154  -0.246  2.4426  0.3850 -0.7948
  755MOL0     H99611   7.651   3.357  -0.379 -0.5450 -0.2191  0.9218
  755MOL0     H99612   7.648   3.322  -0.206 -0.7203  0.1996  0.6352
  755MOL0     H99613   7.644   3.057  -0.135  2.1192  2.0180 -0.8193
  755MOL0     H99614   7.452   2.768  -0.259 -1.8470  0.0071  2.3272
  755MOL0     H99615   7.514   2.831  -0.113  0.9450 -1.1278  0.3264
  755MOL0     H99616   7.621   2.640  -0.155 -2.1966  1.4613  1.0477
  755MOL0     H99617   7.739   2.772  -0.157 -0.1565  0.9711 -1.1748
  755MOL0     H99618   7.636   2.610  -0.404 -0.4704 -0.2842  1.2211
  755MOL0     H99619   7.734   2.759  -0.408  0.9776  1.6177  1.8287
  755MOL0     H99620   7.907   2.642  -0.303 -2.5153  2.2560  1.2222
  755MOL0     H99621   7.859   2.525  -0.433 -1.1621 -1.5762  0.3004
  755MOL0     H99622   7.926   2.274  -0.385 -3.2505  1.2415  1.5142
  755MOL0     H99623   8.134   2.164  -0.340 -0.8257 -0.6022  0.7557
  755MOL0     H99624   8.593   2.377  -0.101 -1.3322 -0.3349 -0.8530
  755MOL0     H99625   8.823   2.292  -0.121 -1.3326  0.4362 -1.4236
  755MOL0     H99626   9.032   2.207  -0.015 -1.0862  0.1847  0.7081
  755MOL0     H99627   9.001   2.140  -0.175  2.8290  1.7936 -0.0347
  755MOL0     H99628   9.116   1.938  -0.100  2.9658  0.4596 -0.2207
  755MOL0     H99629   9.178   2.028   0.039 -1.2007  0.2315  0.5089
  755MOL0     H99630   9.290   2.173  -0.137  0.0215  0.1059 -1.7462
  755MOL0     H99631   9.239   2.066  -0.261 -1.9274  0.7789 -0.2304
  755MOL0     H99632   9.405   1.975  -0.030 -1.6645  0.7482 -0.2286
  755MOL0     H99633   9.337   1.875  -0.169  1.8634  0.3741 -2.5597
  755MOL0     H99634   9.531   2.099  -0.231  0.9757 -2.0425 -2.7251
  755MOL0     H99635   9.471   1.975  -0.326 -4.0229  1.4292  0.1203
  755MOL0     H99636   9.699   1.919  -0.269  0.8810 -0.8358  1.6164
  755MOL0     H99637   9.611   1.810  -0.176 -0.1320 -0.2434 -0.8505
  755MOL0     H99638   9.774   2.036  -0.094  0.4926 -0.2410 -1.1502
  755MOL0     H99639   9.609   2.034  -0.016  0.0120 -1.1333 -0.5623
  755MOL0     H99640   9.781   1.945   0.114  2.0964  0.6905 -2.0352
  755MOL0     H99641   9.828   1.819  -0.016  1.1038 -2.5863  2.0283
  755MOL0     H99642   8.713   1.924   0.060  3.2893  0.4150 -0.4424
  755MOL0     H99643   8.473   1.994   0.034  1.6803  0.1604  2.7003
  755MOL0     H99644   8.215   2.472  -0.041 -0.2135 -2.4083  1.7355
  755MOL0     H99645   7.993   2.560  -0.074 -0.3548 -0.6805  1.1815
  755MOL0     H99646   8.742   3.485  -0.061 -0.7451  0.4398  2.0409
  755MOL0     H99647   8.970   3.474  -0.049 -0.4644  0.8918 -2.0298
  755MOL0     H99648   9.392   3.404   0.208 -0.5614  1.4144 -1.3344
  755MOL0     H99649   9.626   3.371   0.205 -0.1299 -1.4825  0.4413
  755MOL0     H99650   9.963   3.284   0.057  0.5438  1.5662  0.4494
  755MOL0     H99651   9.840   3.292   0.185  0.8549 -0.9713  0.1936
  755MOL0     H99652   9.903   3.485  -0.045  0.2049 -1.6143 -0.1947
  755MOL0     H99653   9.762   3.505   0.052  0.7081  3.0768  1.3723
  755MOL0     H99654  10.039   3.485   0.184  2.7524  3.5745 -0.5146
  755MOL0     H99655   9.884   3.550   0.246  2.0653 -0.5447  1.7150
  755MOL0     H99656   9.912   3.702   0.041 -0.7698  0.1693  0.7063
  755MOL0     H99657   9.988   3.754   0.191 -0.1880  0.5346 -1.3609
  755MOL0     H99658  10.352   3.666   0.014  1.1602  2.8988  0.9619
  755MOL0     H99659   9.591   3.168  -0.170 -0.5398 -1.5784  0.8506
  755MOL0     H99660   9.361   3.161  -0.158  0.8891 -0.4412 -0.5256
  756MOL0     O99661   9.844   0.646   6.837  0.2179 -0.9862  0.3197
  756MOL0     C99662   9.872   0.755   6.886 -0.0811  0.1536  0.4451
  756MOL0     O99663   9.793   0.850   6.943 -0.3335 -0.1081 -1.1650
  756MOL0     C99664   9.658   0.852   6.926  0.0299 -0.2199 -0.4016
  756MOL0     C99665   9.597   0.935   7.017  0.6074 -0.0339 -1.1361
  756MOL0     C99666   9.458   0.940   7.027 -0.4261 -0.1222  0.7681
  756MOL0     C99667   9.379   0.860   6.941 -0.2575 -0.0271 -0.3617
  756MOL0     O99668   9.239   0.858   6.956  0.4079 -0.9518 -0.1053
  756MOL0     C99669   9.148   0.819   6.841  0.4940  0.0611  0.5743
  756MOL0     C99670   9.009   0.882   6.867 -0.6787  0.6730 -0.2092
  756MOL0     C99671   8.893   0.826   6.782 -0.8795 -0.1476 -0.7719
  756MOL0     C99672   8.775   0.916   6.813 -0.2942 -0.1415  0.3928
  756MOL0     C99673   8.637   0.852   6.767  0.0227 -0.0002  0.0268
  756MOL0     C99674   8.537   0.965   6.758  0.1707  0.0110 -0.5513
  756MOL0     C99675   8.398   0.921   6.710  0.6769 -0.5667  1.0383
  756MOL0     C99676   8.317   1.041   6.661  0.1938 -0.5580 -0.6894
  756MOL0     N99677   8.338   1.167   6.740  0.5658  0.9570  0.3605
  756MOL0     C99678   8.284   1.186   6.863 -0.9888  0.2277 -0.2082
  756MOL0     C99679   8.310   1.315   6.887  0.8665  0.5503 -0.4808
  756MOL0     C99680   8.284   1.383   7.011 -0.2724  0.4013 -0.1232
  756MOL0     C99681   8.379   1.501   7.037  0.2836  0.0955  0.4846
  756MOL0     C99682   8.362   1.588   7.154  0.3432  0.4231  0.2676
  756MOL0     C99683   8.401   1.515   7.282  0.0060 -0.8663 -0.0717
  756MOL0     O99684   8.325   1.398   7.312 -0.0304  0.7281  0.0327
  756MOL0     C99685   8.240   1.401   7.421  0.6746 -0.0811  1.0553
  756MOL0     C99686   8.125   1.317   7.426 -0.0433  0.3776 -0.4528
  756MOL0     C99687   8.038   1.319   7.544 -0.2249 -0.4505  0.4057
  756MOL0     C99688   8.057   1.420   7.640 -0.0938 -0.2540  0.6585
  756MOL0     C99689   7.959   1.420   7.754  0.3927  0.0248 -0.4789
  756MOL0     O99690   7.850   1.344   7.747 -0.2601  0.9602 -0.1182
  756MOL0     C99691   7.787   1.296   7.858  0.2400 -0.1102 -0.0466
  756MOL0     C99692   7.668   1.365   7.903 -0.4831  0.1122 -1.0149
  756MOL0     C99693   7.598   1.318   8.008  0.0116  0.2457  0.1955
  756MOL0     C99694   7.641   1.215   8.086 -0.4817  0.7022 -0.2289
  756MOL0     O99695   7.576   1.198   8.203  0.8379  0.3325 -0.4245
  756MOL0     C99696   7.611   1.106   8.305  0.5505  0.6042 -0.6018
  756MOL0     C99697   7.539   1.132   8.436 -0.3033  0.3828  0.3686
  756MOL0     C99698   7.388   1.102   8.436 -0.0667 -0.3168  1.8095
  756MOL0     C99699   7.319   1.117   8.577 -0.4955  1.1028  0.1268
  756MOL0     C99700   7.179   1.057   8.576 -1.6875  0.1687 -1.1290
  756MOL0     C99701   7.107   1.062   8.713 -0.7939  0.1603  0.3382
  756MOL0     C99702   7.128   0.941   8.799 -0.5011  0.8743  0.3431
  756MOL0     C99703   7.030   0.825   8.767 -0.3588 -0.2611  0.2026
  756MOL0    Cl99704   7.027   0.705   8.901  0.0958  0.2108  0.0293
  756MOL0     C99705   7.761   1.149   8.044  0.4873 -0.2839 -0.1014
  756MOL0     C99706   7.835   1.193   7.935 -0.8313 -0.2507  0.0468
  756MOL0     O99707   7.984   1.494   7.847 -0.3550  0.3135  0.0939
  756MOL0     C99708   8.175   1.493   7.642  0.0026 -0.2975  0.3718
  756MOL0     C99709   8.271   1.471   7.540  0.0533  0.5486 -0.8040
  756MOL0     N99710   8.365   1.370   6.769  0.4275  0.2563 -0.3441
  756MOL0     N99711   8.391   1.276   6.690  0.2719 -0.3278 -0.9405
  756MOL0     C99712   9.441   0.793   6.834  0.7254 -0.0033 -0.1659
  756MOL0     C99713   9.578   0.780   6.834  0.3442 -0.7936  0.3381
  756MOL0     C99714  10.015   0.782   6.907 -0.7135 -0.0486  0.2640
  756MOL0     C99715  10.117   0.681   6.897 -0.3506  0.0462 -0.4090
  756MOL0     C99716  10.250   0.708   6.940  1.0302  1.1298  0.0261
  756MOL0     C99717  10.288   0.840   6.968 -0.4917  0.6449  0.1882
  756MOL0     O99718  10.408   0.886   7.007  0.4515 -0.3413  0.1277
  756MOL0     C99719  10.527   0.812   6.967  0.1131  0.0350 -0.5246
  756MOL0     C99720  10.594   0.742   7.087  0.3094 -0.4434  0.1933
  756MOL0     C99721  10.736   0.689   7.040  1.1279 -0.1364 -0.2585
  756MOL0     C99722  10.832   0.795   7.000  0.3948 -0.7229  0.2604
  756MOL0     C99723  10.965   0.747   6.965 -0.6140 -0.2866 -0.3355
  756MOL0     C99724  11.079   0.710   6.945 -0.1730 -0.2936 -0.2370
  756MOL0     C99725  10.187   0.935   6.974 -0.0033  0.3753  0.5955
  756MOL0     C99726  10.053   0.911   6.949  0.2397 -0.2758 -0.2598
  756MOL0     H99727   9.660   0.983   7.091  0.4269  1.1920 -1.7423
  756MOL0     H99728   9.408   1.008   7.096  0.4596  0.5500  0.7741
  756MOL0     H99729   9.140   0.710   6.846  1.9216 -0.0147  2.4477
  756MOL0     H99730   9.187   0.860   6.748 -1.5034  1.9728  0.5108
  756MOL0     H99731   9.022   0.990   6.861  2.8946  0.2857 -2.3315
  756MOL0     H99732   8.993   0.845   6.969  2.2784 -0.1213  0.0552
  756MOL0     H99733   8.881   0.720   6.807  1.2549 -0.0051  1.1907
  756MOL0     H99734   8.924   0.827   6.677 -1.3253  1.3369 -0.9188
  756MOL0     H99735   8.754   0.927   6.920 -2.8114 -0.9717  0.0618
  756MOL0     H99736   8.790   1.012   6.763  2.9014 -2.1914 -3.1951
  756MOL0     H99737   8.602   0.766   6.826  0.8337 -2.6682 -3.0962
  756MOL0     H99738   8.647   0.812   6.666 -3.2687  2.7661 -1.6268
  756MOL0     H99739   8.570   1.040   6.687  3.5604 -0.3284  0.4833
  756MOL0     H99740   8.530   1.020   6.852  3.1616 -1.6411  0.8033
  756MOL0     H99741   8.417   0.858   6.623  0.9971 -2.6750  2.5602
  756MOL0     H99742   8.335   0.866   6.780  1.7667 -4.9733 -1.0634
  756MOL0     H99743   8.210   1.025   6.644 -0.1488 -0.7189  1.2861
  756MOL0     H99744   8.357   1.056   6.561 -0.8712 -3.7139 -1.7062
  756MOL0     H99745   8.237   1.118   6.933  0.1181 -0.5955 -0.2378
  756MOL0     H99746   8.276   1.311   7.094 -2.0408  0.7884  0.0888
  756MOL0     H99747   8.184   1.426   7.004  0.0385  1.3712  1.1355
  756MOL0     H99748   8.380   1.570   6.952  0.2174  1.3017  1.4459
  756MOL0     H99749   8.483   1.466   7.034  0.4076  0.4889 -1.1557
  756MOL0     H99750   8.431   1.668   7.125  3.7433 -2.2484  0.2975
  756MOL0     H99751   8.258   1.621   7.156  0.8255  2.1563 -0.8486
  756MOL0     H99752   8.410   1.591   7.361  1.5225 -3.1976  2.1547
  756MOL0     H99753   8.506   1.486   7.273  0.3708  0.4831 -0.3476
  756MOL0     H99754   8.110   1.256   7.338 -0.1993  1.0370 -0.8893
  756MOL0     H99755   7.952   1.253   7.544 -0.2324 -0.4800  2.1114
  756MOL0     H99756   7.626   1.442   7.840 -2.7172  1.3626  1.7578
  756MOL0     H99757   7.510   1.378   8.027 -1.2117 -1.1999 -0.6883
  756MOL0     H99758   7.718   1.112   8.324  0.3396 -0.3516  1.0555
  756MOL0     H99759   7.590   1.001   8.283 -0.6450  1.2394 -2.8758
  756MOL0     H99760   7.565   1.233   8.468  0.4647 -0.4707  2.6504
  756MOL0     H99761   7.588   1.071   8.513 -2.3999 -1.2611  0.4989
  756MOL0     H99762   7.362   1.003   8.398  1.2870  0.0678 -0.3495
  756MOL0     H99763   7.354   1.178   8.365 -0.2837  0.1463  2.4037
  756MOL0     H99764   7.372   1.072   8.661 -0.2082  1.1049 -0.0523
  756MOL0     H99765   7.317   1.224   8.597  0.9017  0.6972  2.8276
  756MOL0     H99766   7.169   0.956   8.534 -0.5181 -1.2456  1.6835
  756MOL0     H99767   7.120   1.127   8.516 -2.2220  0.3799 -0.3623
  756MOL0     H99768   7.003   1.087   8.694 -1.3456 -0.3147  2.4789
  756MOL0     H99769   7.141   1.154   8.762 -0.6777 -0.1914  0.9341
  756MOL0     H99770   7.233   0.912   8.791 -1.2394 -1.4849 -3.0178
  756MOL0     H99771   7.105   0.960   8.904  0.6577  1.9386  0.4311
  756MOL0     H99772   7.047   0.770   8.675  2.8140 -0.5525  0.8583
  756MOL0     H99773   6.930   0.870   8.759 -0.9813 -1.9401 -2.7844
  756MOL0     H99774   7.802   1.076   8.113 -1.6660 -1.9064 -0.4673
  756MOL0     H99775   7.918   1.128   7.907 -1.2896 -1.3533  1.1468
  756MOL0     H99776   8.206   1.575   7.706  2.9920 -0.3563 -0.8316
  756MOL0     H99777   8.372   1.506   7.556 -0.3035  0.9632  0.7354
  756MOL0     H99778   9.375   0.737   6.768 -0.7680  0.1702  1.1396
  756MOL0     H99779   9.624   0.713   6.763  0.9747 -2.3663  2.1340
  756MOL0     H99780  10.086   0.580   6.873  1.0188 -0.7235  0.8941
  756MOL0     H99781  10.321   0.625   6.941  0.4126  0.5901  0.9529
  756MOL0     H99782  10.594   0.886   6.921 -0.0446 -1.0759 -2.6898
  756MOL0     H99783  10.520   0.740   6.885  1.8844  0.8470 -1.4667
  756MOL0     H99784  10.584   0.803   7.177  0.8841  1.1426 -0.7845
  756MOL0     H99785  10.528   0.655   7.095 -3.2813  1.6691 -2.9378
  756MOL0     H99786  10.723   0.627   6.951  2.1631 -2.4265  1.0876
  756MOL0     H99787  10.780   0.634   7.124 -0.4335  1.2959  1.5981
  756MOL0     H99788  10.788   0.854   6.919 -0.6799 -3.5746 -1.3848
  756MOL0     H99789  10.828   0.859   7.088 -0.8254  0.4277 -0.5851
  756MOL0     H99790  11.183   0.686   6.942  0.1857  1.2840 -2.3107
  756MOL0     H99791  10.202   1.037   7.007 -1.4178  0.0290  2.4632
  756MOL0     H99792   9.983   0.993   6.957 -0.2187 -0.8364  2.5682
  757MOL0     O99793   2.049   2.918   2.248 -0.8879 -0.2578  0.4440
  757MOL0     C99794   2.059   3.020   2.183  0.9144  0.2477 -0.9037
  757MOL0     O99795   1.962   3.078   2.118 -0.2502  0.0027  0.5068
  757MOL0     C99796   1.841   3.017   2.099 -1.2017 -0.2279 -0.2150
  757MOL0     C99797   1.735   3.055   2.170  0.1065  0.2147 -0.4131
  757MOL0     C99798   1.611   3.004   2.155  0.6221  0.0137  0.7765
  757MOL0     C99799   1.594   2.893   2.074 -1.1884 -0.5474 -0.3389
  757MOL0     O99800   1.479   2.822   2.073 -0.3224  0.0097 -0.2633
  757MOL0     C99801   1.352   2.900   2.085 -0.6430  0.8010 -0.2858
  757MOL0     C99802   1.252   2.829   2.001 -0.2577  0.3697 -0.6764
  757MOL0     C99803   1.122   2.900   1.994  0.9072 -0.5204  0.1228
  757MOL0     C99804   1.030   2.816   1.898 -0.3577 -0.1492 -0.1553
  757MOL0     C99805   0.906   2.910   1.869 -0.6996  0.4737  0.1188
  757MOL0     C99806   0.822   2.951   1.987  0.0214  0.3939 -0.8904
  757MOL0     C99807   0.676   2.989   1.953 -0.1538 -0.3035  0.3457
  757MOL0     C99808   0.584   2.860   1.919  0.1051  0.6328 -0.1949
  757MOL0     N99809   0.468   2.892   1.834 -0.5969  0.4151 -1.0252
  757MOL0     C99810   0.460   2.889   1.697 -0.7147 -0.1856 -0.0078
  757MOL0     C99811   0.327   2.913   1.676  0.2372 -0.2819  0.7328
  757MOL0     C99812   0.276   2.942   1.542 -0.6184  0.1164  0.2706
  757MOL0     C99813   0.140   2.921   1.522  0.2209  0.6774 -0.0479
  757MOL0     C99814   0.098   2.934   1.379  0.0473  0.5794  0.2515
  757MOL0     C99815  -0.051   2.887   1.352  0.5396 -0.3521  0.3126
  757MOL0     O99816  -0.101   2.892   1.218  0.1066  0.6777 -0.5960
  757MOL0     C99817  -0.125   2.764   1.155 -0.5019  0.5118  0.4050
  757MOL0     C99818  -0.261   2.734   1.120 -0.7069  0.0384 -0.0557
  757MOL0     C99819  -0.292   2.599   1.074  0.4470  0.1611 -0.9002
  757MOL0     C99820  -0.198   2.507   1.060 -0.3127  0.2017  0.1640
  757MOL0     C99821  -0.227   2.377   0.998  0.1301 -0.1471 -0.8279
  757MOL0     O99822  -0.359   2.344   1.001  0.5123 -0.1027  0.3498
  757MOL0     C99823  -0.403   2.235   0.934 -0.0124 -0.8790  0.2368
  757MOL0     C99824  -0.488   2.152   0.997  0.0650  0.4674  0.1365
  757MOL0     C99825  -0.522   2.037   0.920  0.1553  0.3382 -0.4933
  757MOL0     C99826  -0.477   2.007   0.787  0.0711  0.3224 -0.8823
  757MOL0     O99827  -0.518   1.887   0.743 -0.6653 -0.1480  0.3470
  757MOL0     C99828  -0.521   1.869   0.604  0.3954 -0.2236  0.1095
  757MOL0     C99829  -0.514   1.713   0.577  0.2954  0.6047 -0.5427
  757MOL0     C99830  -0.378   1.653   0.611 -0.2377 -0.5378  0.8318
  757MOL0     C99831  -0.271   1.690   0.500  0.6621 -0.4175 -0.2709
  757MOL0     C99832  -0.162   1.586   0.523  0.3994 -1.2480 -0.4154
  757MOL0     C99833  -0.035   1.610   0.432  0.4895 -0.2432  0.4773
  757MOL0     C99834  -0.072   1.651   0.283 -0.4440  0.0273 -0.7433
  757MOL0     C99835   0.046   1.723   0.208 -0.1752 -0.6108  0.1636
  757MOL0    Cl99836   0.172   1.597   0.164  0.3534  0.0286 -0.2759
  757MOL0     C99837  -0.414   2.110   0.727 -0.6324  0.2866 -0.4584
  757MOL0     C99838  -0.371   2.220   0.799 -0.0017  1.0622 -0.4256
  757MOL0     O99839  -0.128   2.312   0.952 -0.8422  0.2877  0.2963
  757MOL0     C99840  -0.069   2.542   1.099  0.4816  0.2777  0.5841
  757MOL0     C99841  -0.030   2.660   1.150 -0.1291 -0.6468  0.6244
  757MOL0     N99842   0.258   2.942   1.795 -0.4946  0.5299 -0.4701
  757MOL0     N99843   0.343   2.926   1.889 -0.8177 -0.3081  0.5438
  757MOL0     C99844   1.705   2.840   2.006 -0.4997  0.4905 -0.7257
  757MOL0     C99845   1.832   2.905   2.016 -0.0298 -0.4902  0.0902
  757MOL0     C99846   2.194   3.074   2.186 -0.2365  1.0431 -0.8741
  757MOL0     C99847   2.258   3.112   2.065  0.1228  0.1083 -0.0092
  757MOL0     C99848   2.391   3.159   2.070 -0.6095 -0.2248 -0.0840
  757MOL0     C99849   2.460   3.142   2.189 -0.3137 -1.4313  0.1764
  757MOL0     O99850   2.583   3.201   2.184 -1.0885  0.0705  0.3327
  757MOL0     C99851   2.618   3.255   2.309  0.3962  0.0679 -0.2786
  757MOL0     C99852   2.768   3.300   2.329  0.4340  0.0762 -0.6482
  757MOL0     C99853   2.863   3.175   2.301 -0.5071 -0.4393 -0.4301
  757MOL0     C99854   3.015   3.195   2.342 -0.4925  0.8241  0.5821
  757MOL0     C99855   3.066   3.294   2.249 -0.0314 -0.8340 -0.7145
  757MOL0     C99856   3.122   3.373   2.171 -0.2861 -0.0724  0.4171
  757MOL0     C99857   2.394   3.091   2.300  0.6547  0.4900 -0.3165
  757MOL0     C99858   2.263   3.061   2.302  0.4098  0.4182 -0.1157
  757MOL0     H99859   1.752   3.138   2.238  0.2698  0.9930 -1.3857
  757MOL0     H99860   1.532   3.045   2.217  1.9544  2.6093  0.9246
  757MOL0     H99861   1.382   2.997   2.045  2.6166  0.2611  0.6013
  757MOL0     H99862   1.318   2.895   2.188 -0.9339 -0.2098 -0.4153
  757MOL0     H99863   1.231   2.730   2.043 -0.9129 -0.1476 -2.1439
  757MOL0     H99864   1.300   2.823   1.903  0.2043  0.9353 -0.4895
  757MOL0     H99865   1.143   2.993   1.941  1.6252 -1.3898 -1.1814
  757MOL0     H99866   1.061   2.914   2.084 -1.9803  3.0132 -2.1040
  757MOL0     H99867   1.087   2.796   1.806 -1.2808  0.4225 -0.8677
  757MOL0     H99868   1.012   2.724   1.954  1.4370 -1.1151 -1.0782
  757MOL0     H99869   0.860   2.846   1.793  0.7195 -2.5629  1.6256
  757MOL0     H99870   0.936   3.006   1.828  0.0001  0.2468  0.0942
  757MOL0     H99871   0.883   3.031   2.029 -2.4872  0.7892  2.3167
  757MOL0     H99872   0.820   2.862   2.050  2.5835  2.1358  1.9172
  757MOL0     H99873   0.630   3.045   2.035 -0.4937 -1.7368  1.1791
  757MOL0     H99874   0.676   3.057   1.867 -2.0306  1.1186  1.3887
  757MOL0     H99875   0.545   2.815   2.011 -0.0752 -0.6721 -0.8873
  757MOL0     H99876   0.643   2.783   1.868 -0.9320  0.6216 -1.4201
  757MOL0     H99877   0.538   2.880   1.623  0.8898 -0.8508  1.6855
  757MOL0     H99878   0.329   2.877   1.473 -1.1901  0.2937 -0.3431
  757MOL0     H99879   0.305   3.045   1.522  1.4313  0.1051  2.6524
  757MOL0     H99880   0.086   2.998   1.578 -0.0384  1.6481 -1.5761
  757MOL0     H99881   0.116   2.824   1.568  0.0483  1.1932  0.9795
  757MOL0     H99882   0.104   3.042   1.360 -0.6146  0.1697 -2.8007
  757MOL0     H99883   0.162   2.871   1.316  1.2271  0.1122  1.8570
  757MOL0     H99884  -0.118   2.945   1.416 -0.1029 -1.4239  0.6313
  757MOL0     H99885  -0.046   2.783   1.383  0.5767  0.1806  2.2035
  757MOL0     H99886  -0.331   2.816   1.133  0.7665  1.3828 -0.3068
  757MOL0     H99887  -0.396   2.586   1.046 -0.0954  1.7665  0.2118
  757MOL0     H99888  -0.544   2.164   1.089  0.3587 -1.8196  0.6575
  757MOL0     H99889  -0.588   1.968   0.971  2.6390 -1.8373 -0.0050
  757MOL0     H99890  -0.452   1.934   0.549 -4.0165  3.7634 -1.3676
  757MOL0     H99891  -0.616   1.901   0.559  0.8262 -0.1620 -0.7834
  757MOL0     H99892  -0.548   1.697   0.474 -1.9362 -0.8258  0.3310
  757MOL0     H99893  -0.595   1.675   0.641 -0.3557  1.6732 -0.7110
  757MOL0     H99894  -0.388   1.544   0.616 -0.1219 -0.8828 -3.1351
  757MOL0     H99895  -0.344   1.700   0.704  0.1733 -0.0419  0.4412
  757MOL0     H99896  -0.321   1.690   0.402  0.1370  1.0218 -0.0351
  757MOL0     H99897  -0.223   1.788   0.511  0.3805 -0.0917 -1.6743
  757MOL0     H99898  -0.195   1.484   0.503  0.2929 -1.1720 -0.6303
  757MOL0     H99899  -0.143   1.605   0.629 -2.6069 -1.5558  0.2653
  757MOL0     H99900   0.040   1.531   0.438  0.7351  0.0765  1.8892
  757MOL0     H99901   0.019   1.695   0.474 -1.3242  1.1578  0.0736
  757MOL0     H99902  -0.108   1.563   0.230 -0.3107 -2.3232  2.7138
  757MOL0     H99903  -0.161   1.714   0.275 -1.4899 -1.1594  0.9015
  757MOL0     H99904   0.091   1.796   0.276 -1.5651 -1.8075  2.5089
  757MOL0     H99905   0.002   1.777   0.123  0.7362 -0.1134 -0.0028
  757MOL0     H99906  -0.385   2.099   0.623 -0.6591  1.7191 -0.6397
  757MOL0     H99907  -0.303   2.283   0.742  1.5137 -2.2590 -2.5910
  757MOL0     H99908  -0.000   2.458   1.101  0.1914  0.0192 -0.2403
  757MOL0     H99909   0.067   2.677   1.196  0.2376  2.4938 -1.0341
  757MOL0     H99910   1.696   2.756   1.938  0.7028  0.8432 -1.3642
  757MOL0     H99911   1.922   2.875   1.962  1.3987  3.3958 -0.0284
  757MOL0     H99912   2.191   3.104   1.979  0.4505 -0.0183 -0.2538
  757MOL0     H99913   2.451   3.215   1.999 -0.0748  0.3960  0.8349
  757MOL0     H99914   2.606   3.180   2.387  1.2522  0.2821  0.0652
  757MOL0     H99915   2.559   3.346   2.326  0.2267 -0.2505  0.8952
  757MOL0     H99916   2.794   3.388   2.269 -0.2890 -1.4231 -3.3804
  757MOL0     H99917   2.773   3.327   2.434  1.2796  0.1040 -0.6956
  757MOL0     H99918   2.861   3.133   2.200 -0.0829 -2.9748  0.5248
  757MOL0     H99919   2.835   3.098   2.373  0.5028  0.7134  1.2788
  757MOL0     H99920   3.027   3.226   2.446 -3.6223  0.5263  1.1352
  757MOL0     H99921   3.072   3.102   2.330  1.8122  2.4025 -2.0159
  757MOL0     H99922   3.151   3.437   2.090  0.4300 -1.4859 -0.4876
  757MOL0     H99923   2.450   3.079   2.392 -0.3584 -1.4466  0.0959
  757MOL0     H99924   2.216   3.034   2.396 -0.1649 -1.0168 -0.7895
  758MOL0     O99925   5.753   2.652   3.422 -0.1595  0.1210  0.5474
  758MOL0     C99926   5.697   2.701   3.325 -0.4090 -0.7256 -0.3013
  758MOL0     O99927   5.755   2.761   3.222  0.5453  0.6066 -0.1244
  758MOL0     C99928   5.887   2.749   3.195 -0.1902  1.1597 -0.0265
  758MOL0     C99929   5.926   2.738   3.059  0.3969 -0.4880 -0.0515
  758MOL0     C99930   6.055   2.760   3.020  0.0756 -0.5642 -1.0161
  758MOL0     C99931   6.158   2.783   3.115 -1.3314 -0.6727  0.3820
  758MOL0     O99932   6.284   2.796   3.076 -0.0668  0.1768  0.3151
  758MOL0     C99933   6.376   2.719   3.161  0.5467  0.4432  0.2174
  758MOL0     C99934   6.516   2.744   3.100  0.1475  0.8488 -0.2991
  758MOL0     C99935   6.565   2.644   2.999  0.0104  0.4480 -0.1507
  758MOL0     C99936   6.685   2.680   2.913 -0.1977 -0.2735  0.0413
  758MOL0     C99937   6.742   2.561   2.842  0.2473 -0.0810  0.0130
  758MOL0     C99938   6.658   2.504   2.728  0.0960 -0.4327  0.2135
  758MOL0     C99939   6.733   2.441   2.612 -0.1923 -0.6740 -0.4414
  758MOL0     C99940   6.636   2.413   2.495  0.1430  0.5526  0.7495
  758MOL0     N99941   6.528   2.311   2.518  0.3756  1.0661 -1.0418
  758MOL0     C99942   6.403   2.347   2.569  0.2510 -0.0154  0.1770
  758MOL0     C99943   6.328   2.232   2.566  0.4205  0.0705  0.1011
  758MOL0     C99944   6.189   2.211   2.608 -0.5095 -0.0158 -0.2179
  758MOL0     C99945   6.191   2.127   2.735 -0.7803  0.6342  0.9377
  758MOL0     C99946   6.049   2.067   2.750  1.2719 -0.2054 -0.6048
  758MOL0     C99947   6.031   2.014   2.889  0.5634 -0.1108 -1.3877
  758MOL0     O99948   5.944   1.897   2.898 -0.2558 -0.3032 -0.0155
  758MOL0     C99949   5.805   1.914   2.876 -0.2206  0.1695  0.5117
  758MOL0     C99950   5.742   2.036   2.855 -0.6636 -1.0206  0.1930
  758MOL0     C99951   5.605   2.052   2.847  0.4964  0.1818  0.4937
  758MOL0     C99952   5.515   1.944   2.838  0.5490  0.0054  0.1324
  758MOL0     C99953   5.370   1.965   2.806  0.5268 -0.1517 -0.0527
  758MOL0     O99954   5.315   2.091   2.826  0.0611 -0.0050 -0.0695
  758MOL0     C99955   5.182   2.099   2.802  0.2083  0.4744 -0.1446
  758MOL0     C99956   5.128   2.114   2.677 -0.1255  0.1328  0.6957
  758MOL0     C99957   4.995   2.117   2.663  0.3030 -0.4908  0.3641
  758MOL0     C99958   4.904   2.118   2.771  0.2885 -0.2713  0.1200
  758MOL0     O99959   4.767   2.103   2.759 -0.1387  0.0607 -0.7419
  758MOL0     C99960   4.713   2.090   2.631  0.0297  0.0115 -0.3410
  758MOL0     C99961   4.570   2.046   2.624 -0.5473 -0.3586 -0.6039
  758MOL0     C99962   4.534   1.943   2.732  0.3355  0.0728 -0.0047
  758MOL0     C99963   4.383   1.901   2.724 -0.1484  0.3941 -0.6780
  758MOL0     C99964   4.337   1.822   2.847 -1.0166 -1.0914 -0.2120
  758MOL0     C99965   4.196   1.822   2.860 -0.9014 -0.2801  0.4970
  758MOL0     C99966   4.148   1.725   2.962 -0.3193  0.2643 -0.6423
  758MOL0     C99967   3.998   1.722   2.973 -0.7081  0.6728  0.6190
  758MOL0    Cl99968   3.938   1.636   2.821 -0.0569 -0.2011 -0.3032
  758MOL0     C99969   4.959   2.110   2.897  0.0623 -0.7058 -0.2506
  758MOL0     C99970   5.098   2.096   2.913 -0.8744 -0.6424 -0.0357
  758MOL0     O99971   5.304   1.862   2.775  0.3280  0.5897  0.0184
  758MOL0     C99972   5.580   1.816   2.846  0.1351  0.3038 -0.6890
  758MOL0     C99973   5.722   1.802   2.869  0.6554 -0.2170 -0.8374
  758MOL0     N99974   6.417   2.130   2.512 -0.7267  0.1614  0.0421
  758MOL0     N99975   6.537   2.179   2.491  0.4034  0.4276 -0.3143
  758MOL0     C99976   6.124   2.785   3.253  0.2957  0.8269 -0.1544
  758MOL0     C99977   5.990   2.767   3.287  0.2766  0.2591 -0.5803
  758MOL0     C99978   5.553   2.699   3.330 -0.0357 -0.1336 -1.1748
  758MOL0     C99979   5.489   2.781   3.232 -0.0277  0.4128 -1.1961
  758MOL0     C99980   5.352   2.787   3.228  0.5909 -0.0386 -0.4934
  758MOL0     C99981   5.277   2.727   3.325  0.1755  0.5875 -0.5078
  758MOL0     O99982   5.138   2.739   3.331  0.6488  0.2831 -0.4196
  758MOL0     C99983   5.071   2.844   3.272 -0.6961  0.2848 -0.5875
  758MOL0     C99984   4.942   2.845   3.345 -0.7447  0.3951 -0.5838
  758MOL0     C99985   4.838   2.949   3.296  0.6847 -0.5650 -0.6146
  758MOL0     C99986   4.691   2.887   3.299 -0.1186 -0.1206 -0.1379
  758MOL0     C99987   4.649   2.838   3.432 -0.2283 -0.1088  0.0206
  758MOL0     C99988   4.611   2.802   3.536  0.1231  0.7057  0.0634
  758MOL0     C99989   5.339   2.655   3.427  0.7148 -0.7234  0.0026
  758MOL0     C99990   5.479   2.637   3.429  0.0523  0.2329  0.0052
  758MOL0     H99991   5.851   2.715   2.984 -0.8902 -1.3214  1.4209
  758MOL0     H99992   6.069   2.769   2.913  1.8220  0.3081 -0.7429
  758MOL0     H99993   6.354   2.612   3.163  4.9301 -0.6747 -0.8371
  758MOL0     H99994   6.383   2.765   3.260  0.3174  0.4928  0.2112
  758MOL0     H99995   6.583   2.738   3.187 -0.0287 -0.9240 -0.2483
  758MOL0     H99996   6.524   2.845   3.058 -2.6055  1.3070  0.0912
  758MOL0     H99997   6.480   2.641   2.929  1.8433 -0.6144 -2.4936
  758MOL0     H99998   6.586   2.551   3.052 -1.8018 -0.3326 -0.7196
  758MOL0     H99999   6.658   2.761   2.844 -0.1486  0.2353  0.6062
  758MOL0     H    0   6.762   2.720   2.981  2.5177 -0.9277 -2.4613
  758MOL0     H    1   6.767   2.488   2.920 -1.8804  0.0180  0.8675
  758MOL0     H    2   6.833   2.605   2.800 -0.4125  2.2722  0.8920
  758MOL0     H    3   6.586   2.579   2.694  1.7700  1.6998  1.2022
  758MOL0     H    4   6.591   2.426   2.764 -0.9228  0.3418  0.0493
  758MOL0     H    5   6.807   2.518   2.586 -1.4433  2.4619  4.1500
  758MOL0     H    6   6.780   2.347   2.642 -0.1942 -0.8283 -0.9143
  758MOL0     H    7   6.696   2.368   2.415 -2.7989 -2.5168  0.0172
  758MOL0     H    8   6.594   2.504   2.451  0.9182  1.4318  1.7814
  758MOL0     H    9   6.375   2.448   2.596 -1.8811  0.4629 -3.1717
  758MOL0     H   10   6.132   2.169   2.524 -1.1313 -0.6786  0.5191
  758MOL0     H   11   6.139   2.305   2.631 -1.3045 -0.3833 -0.4020
  758MOL0     H   12   6.214   2.196   2.817 -2.5324  2.2625  0.1380
  758MOL0     H   13   6.255   2.039   2.724  2.1113  2.8296 -2.4759
  758MOL0     H   14   5.973   2.142   2.730  0.7129 -1.0466 -1.7506
  758MOL0     H   15   6.044   1.985   2.678  2.6699 -0.0174 -0.9462
  758MOL0     H   16   5.981   2.088   2.953 -0.6036 -1.5638 -0.5476
  758MOL0     H   17   6.125   1.995   2.942  0.3504  0.8883 -0.6162
  758MOL0     H   18   5.802   2.125   2.838  0.4148 -1.7324  0.1484
  758MOL0     H   19   5.573   2.155   2.850  0.2404  0.1571 -0.7838
  758MOL0     H   20   5.193   2.129   2.591 -0.9333 -2.8663 -0.5610
  758MOL0     H   21   4.952   2.144   2.567  0.8195 -0.8015  0.0443
  758MOL0     H   22   4.761   2.012   2.570 -0.2428  0.9437 -1.7871
  758MOL0     H   23   4.725   2.186   2.581 -1.0251 -0.6416 -1.9229
  758MOL0     H   24   4.551   1.999   2.527  0.1085  0.2466 -1.0395
  758MOL0     H   25   4.499   2.129   2.631  0.1610  0.4278 -2.2120
  758MOL0     H   26   4.543   1.997   2.827  0.7494  2.0694 -1.1342
  758MOL0     H   27   4.608   1.863   2.721  0.6496 -0.3347  3.7675
  758MOL0     H   28   4.332   1.997   2.721 -2.0171 -0.3938  2.1473
  758MOL0     H   29   4.368   1.839   2.635  1.1212 -1.0377  0.0513
  758MOL0     H   30   4.373   1.866   2.940 -0.3341 -0.0247 -0.9583
  758MOL0     H   31   4.377   1.721   2.837 -3.1028 -1.8365 -1.9377
  758MOL0     H   32   4.153   1.781   2.769 -0.3222 -0.9755  0.5330
  758MOL0     H   33   4.161   1.925   2.873  0.6826  0.2751  0.5626
  758MOL0     H   34   4.188   1.625   2.949 -0.2272  0.2417 -0.2134
  758MOL0     H   35   4.201   1.757   3.053  0.6333  0.5168 -1.2703
  758MOL0     H   36   3.959   1.822   2.995 -0.7667  1.0809 -1.2356
  758MOL0     H   37   3.973   1.656   3.057 -0.1224  0.1878  0.4259
  758MOL0     H   38   4.901   2.103   2.989  2.6465 -0.7135  1.4944
  758MOL0     H   39   5.144   2.097   3.011 -2.0272  1.1415  0.5348
  758MOL0     H   40   5.522   1.726   2.828 -1.6144  1.0777  0.8091
  758MOL0     H   41   5.767   1.703   2.872 -1.2140 -1.0724  1.8255
  758MOL0     H   42   6.196   2.814   3.329  3.0387  0.4313 -2.4214
  758MOL0     H   43   5.961   2.775   3.391 -1.0504 -0.2131 -0.9001
  758MOL0     H   44   5.546   2.857   3.180 -1.1243  3.4905  1.6824
  758MOL0     H   45   5.297   2.845   3.155 -0.2919 -0.4635 -0.1845
  758MOL0     H   46   5.059   2.830   3.164 -0.0515  1.0733 -0.7759
  758MOL0     H   47   5.128   2.938   3.278  3.9534 -2.3227  2.6761
  758MOL0     H   48   4.899   2.745   3.333  1.0170 -0.4224 -0.4030
  758MOL0     H   49   4.957   2.859   3.453 -1.7133  1.2949 -0.5573
  758MOL0     H   50   4.863   2.977   3.193  1.0071  1.5271 -0.0093
  758MOL0     H   51   4.839   3.041   3.355 -0.9270 -0.6620 -0.4059
  758MOL0     H   52   4.621   2.962   3.262 -0.7938 -1.9246 -2.7632
  758MOL0     H   53   4.694   2.814   3.218 -2.1710 -0.7913  0.3106
  758MOL0     H   54   4.568   2.773   3.629 -2.9725  1.7008 -0.9336
  758MOL0     H   55   5.275   2.610   3.502 -0.2323 -0.0963 -0.4125
  758MOL0     H   56   5.522   2.578   3.510  2.6643  1.5485 -0.3338
  759MOL0     O   57  10.542   0.108   9.586 -0.1722  0.1875  0.3116
  759MOL0     C   58  10.593   0.206   9.644  0.0442 -0.1563  0.6938
  759MOL0     O   59  10.549   0.266   9.754  0.8401  0.3456 -0.1138
  759MOL0     C   60  10.451   0.209   9.834 -0.4257 -1.0974  0.6894
  759MOL0     C   61  10.344   0.129   9.787  1.2898  0.2972  0.0670
  759MOL0     C   62  10.246   0.093   9.877  0.4854  0.5879 -0.4836
  759MOL0     C   63  10.269   0.104  10.014  0.5522 -0.4398  0.5652
  759MOL0     O   64  10.185   0.029  10.089  0.3758 -0.0590 -0.0612
  759MOL0     C   65  10.158   0.080  10.226 -0.1740  0.6177  0.1860
  759MOL0     C   66  10.048  -0.003  10.288  0.7622  0.2419  0.0342
  759MOL0     C   67  10.014   0.034  10.431 -0.2050  0.5507  0.0149
  759MOL0     C   68   9.879  -0.025  10.476 -0.2417 -0.8689  0.1992
  759MOL0     C   69   9.761   0.048  10.418 -0.4524  0.2964  0.4801
  759MOL0     C   70   9.644   0.021  10.508  0.8714  0.3623  0.3937
  759MOL0     C   71   9.509   0.053  10.431  1.2100  0.3371 -0.2174
  759MOL0     C   72   9.380   0.017  10.507  0.1034  0.2640 -0.3054
  759MOL0     N   73   9.327  -0.125  10.484 -0.6439 -0.1704  0.6773
  759MOL0     C   74   9.194  -0.151  10.476 -0.4800  0.1497  0.1709
  759MOL0     C   75   9.180  -0.289  10.501  0.3212 -0.7421  0.3114
  759MOL0     C   76   9.064  -0.357  10.540 -0.1235 -0.7137 -0.2617
  759MOL0     C   77   8.932  -0.277  10.535  0.2823  0.4573 -0.2938
  759MOL0     C   78   8.825  -0.365  10.609 -0.6076  0.4142  0.6153
  759MOL0     C   79   8.688  -0.294  10.618 -1.4729  0.9420  0.3093
  759MOL0     O   80   8.597  -0.359  10.697  0.2392 -0.3302  0.1178
  759MOL0     C   81   8.522  -0.459  10.648  0.0310 -0.4986  0.0376
  759MOL0     C   82   8.416  -0.505  10.727  0.3436  0.5075 -0.5437
  759MOL0     C   83   8.330  -0.605  10.689 -0.6268 -0.3527  0.1151
  759MOL0     C   84   8.336  -0.656  10.557 -0.2222 -0.9316 -0.0055
  759MOL0     C   85   8.250  -0.772  10.511  0.0082 -0.7584 -0.3862
  759MOL0     O   86   8.197  -0.850  10.608  0.0832  0.3550  0.3538
  759MOL0     C   87   8.112  -0.947  10.570  0.5675  0.0203  0.4595
  759MOL0     C   88   7.987  -0.918  10.523 -0.6744  0.1503  0.4413
  759MOL0     C   89   7.910  -1.019  10.471  0.0529  0.7844 -0.0709
  759MOL0     C   90   7.949  -1.154  10.471 -0.2418 -0.6974  0.9487
  759MOL0     O   91   7.868  -1.263  10.435  0.4693  0.2971 -0.4561
  759MOL0     C   92   7.742  -1.234  10.371 -0.1923  0.1622 -0.0649
  759MOL0     C   93   7.674  -1.373  10.338  0.5862  0.0919  0.5551
  759MOL0     C   94   7.529  -1.360  10.279 -0.7128  0.4953 -0.0749
  759MOL0     C   95   7.442  -1.487  10.292 -0.7990 -0.3845 -0.1204
  759MOL0     C   96   7.308  -1.455  10.232  0.2829  0.8291  0.1909
  759MOL0     C   97   7.214  -1.581  10.259 -0.0660  0.1954  0.5184
  759MOL0     C   98   7.068  -1.533  10.245  0.0254  0.6775  0.3081
  759MOL0     C   99   6.957  -1.635  10.278  0.0596  0.0105 -0.8782
  759MOL0    Cl  100   6.936  -1.774  10.167  0.3537  0.6670 -0.2990
  759MOL0     C  101   8.070  -1.192  10.544 -0.0736 -0.3055  1.4007
  759MOL0     C  102   8.156  -1.085  10.587  0.2334 -0.2971  0.3949
  759MOL0     O  103   8.225  -0.769  10.396  0.0722  0.0216  0.5926
  759MOL0     C  104   8.442  -0.614  10.481 -0.3996 -1.6706 -0.9970
  759MOL0     C  105   8.532  -0.514  10.522  0.3308  1.8042 -0.0278
  759MOL0     N  106   9.307  -0.337  10.519  0.5898 -0.0729  0.3827
  759MOL0     N  107   9.390  -0.240  10.498 -0.1413 -0.6858 -0.0411
  759MOL0     C  108  10.370   0.183  10.065 -0.4353  0.3413 -0.3299
  759MOL0     C  109  10.461   0.239   9.975 -0.4746  0.6799 -0.4242
  759MOL0     C  110  10.715   0.268   9.588 -0.3524  0.3516  0.4263
  759MOL0     C  111  10.780   0.214   9.470  0.5562  0.6822  0.9861
  759MOL0     C  112  10.904   0.273   9.427 -0.0319  0.5532 -0.0632
  759MOL0     C  113  10.958   0.380   9.493 -0.5223  0.5714 -0.5466
  759MOL0     O  114  11.066   0.451   9.435  0.5967 -0.2504 -0.2303
  759MOL0     C  115  11.191   0.383   9.455  0.0949  0.5062 -0.2329
  759MOL0     C  116  11.293   0.495   9.485 -0.7386  0.1349  0.1146
  759MOL0     C  117  11.267   0.554   9.622 -0.2458 -0.6361 -0.6379
  759MOL0     C  118  11.371   0.654   9.683 -0.1269  0.6033  0.3466
  759MOL0     C  119  11.491   0.610   9.757 -0.3962  0.4113  0.8847
  759MOL0     C  120  11.586   0.570   9.828  0.0831  0.5124  0.1736
  759MOL0     C  121  10.895   0.422   9.609  0.0059 -0.6075 -0.1331
  759MOL0     C  122  10.783   0.369   9.658  0.0918  0.3261  0.4170
  759MOL0     H  123  10.334   0.097   9.684 -0.3017 -0.5216  0.4415
  759MOL0     H  124  10.154   0.046   9.844  0.2840  1.0124 -0.5279
  759MOL0     H  125  10.119   0.182  10.221  1.7603  1.3391 -2.8010
  759MOL0     H  126  10.246   0.079  10.290  0.1460  1.8873 -0.1907
  759MOL0     H  127  10.056  -0.111  10.274 -3.8890 -0.2391 -0.4835
  759MOL0     H  128   9.961   0.017  10.225  0.2617 -1.8184  0.0184
  759MOL0     H  129  10.012   0.142  10.448 -1.3998  1.2424 -3.6763
  759MOL0     H  130  10.088  -0.003  10.502 -1.5200 -0.7588  0.7472
  759MOL0     H  131   9.877  -0.134  10.473  3.0088 -1.0625  0.7490
  759MOL0     H  132   9.883  -0.010  10.584 -1.0944 -1.2583  0.2924
  759MOL0     H  133   9.756   0.011  10.316  0.8526 -0.5863  0.7103
  759MOL0     H  134   9.768   0.156  10.403 -1.2995  0.3942  0.7086
  759MOL0     H  135   9.644   0.082  10.600  1.8395 -1.2721  1.5243
  759MOL0     H  136   9.638  -0.080  10.548 -1.3324 -0.1621 -1.0889
  759MOL0     H  137   9.500   0.158  10.402  0.4094 -0.1070 -1.6753
  759MOL0     H  138   9.517  -0.014  10.345  0.9637 -1.3359  1.0153
  759MOL0     H  139   9.301   0.083  10.473 -1.6664 -0.8727  1.4003
  759MOL0     H  140   9.389   0.021  10.616 -3.2449 -1.7807  0.1579
  759MOL0     H  141   9.120  -0.071  10.481 -2.0037 -1.0331 -1.7950
  759MOL0     H  142   9.093  -0.377  10.643 -0.0838  1.4311  0.1990
  759MOL0     H  143   9.056  -0.449  10.482  0.4686 -1.8138  1.3466
  759MOL0     H  144   8.905  -0.238  10.436 -2.3444 -0.3747  0.0210
  759MOL0     H  145   8.952  -0.190  10.598  1.7278  0.6703 -1.0071
  759MOL0     H  146   8.825  -0.464  10.562  0.8628  0.9282 -0.5638
  759MOL0     H  147   8.853  -0.376  10.714 -2.0651 -1.1589  0.9003
  759MOL0     H  148   8.648  -0.280  10.517 -1.2082  2.2998  0.3715
  759MOL0     H  149   8.719  -0.198  10.661 -0.0924  0.6560  0.0031
  759MOL0     H  150   8.418  -0.456  10.824  2.0097 -2.6578  1.1766
  759MOL0     H  151   8.257  -0.633  10.764 -0.8815 -1.5270 -0.5421
  759MOL0     H  152   7.964  -0.812  10.525  2.6769  1.0330 -1.2761
  759MOL0     H  153   7.816  -0.989  10.426 -0.9661 -3.5316 -1.3048
  759MOL0     H  154   7.761  -1.162  10.291 -2.1224 -0.1504 -0.8390
  759MOL0     H  155   7.679  -1.185  10.446 -1.8950 -2.7562  0.5498
  759MOL0     H  156   7.666  -1.436  10.427 -3.0191  0.7144  0.8125
  759MOL0     H  157   7.736  -1.420  10.260  0.8817 -1.1226  1.4813
  759MOL0     H  158   7.543  -1.341  10.172 -3.1937 -1.3925 -0.8500
  759MOL0     H  159   7.476  -1.273  10.318 -2.2879 -0.4988  0.1007
  759MOL0     H  160   7.485  -1.566  10.230 -1.4619 -1.6705  1.0056
  759MOL0     H  161   7.427  -1.518  10.396 -2.9465  0.5406 -0.1106
  759MOL0     H  162   7.313  -1.443  10.123  2.7703 -0.5678  0.0989
  759MOL0     H  163   7.272  -1.362  10.276 -1.6956 -1.1910  3.2071
  759MOL0     H  164   7.228  -1.616  10.361 -2.5164  1.8811  1.5330
  759MOL0     H  165   7.237  -1.665  10.193  1.5784  1.1487 -0.2030
  759MOL0     H  166   7.067  -1.454  10.321  1.3884 -1.5134  2.7962
  759MOL0     H  167   7.054  -1.492  10.145  2.0502 -0.0743 -0.3435
  759MOL0     H  168   6.866  -1.576  10.260  0.2774  0.0633 -1.8895
  759MOL0     H  169   6.953  -1.669  10.381 -3.1150  0.3798 -0.7557
  759MOL0     H  170   8.099  -1.296  10.535 -2.6860 -0.9369 -3.3409
  759MOL0     H  171   8.253  -1.107  10.632 -0.5012 -1.4588  1.4697
  759MOL0     H  172   8.451  -0.652  10.380 -1.6901 -0.6987 -1.5016
  759MOL0     H  173   8.608  -0.480  10.453  0.8145  0.0597 -0.4114
  759MOL0     H  174  10.379   0.209  10.170 -0.0570  0.0823 -0.2982
  759MOL0     H  175  10.543   0.299  10.013  1.8323 -1.7279 -1.2892
  759MOL0     H  176  10.737   0.127   9.423 -0.8628  0.3286  2.8423
  759MOL0     H  177  10.950   0.237   9.335  0.2090  1.3110 -0.2386
  759MOL0     H  178  11.213   0.333   9.360 -1.8292 -1.1209  0.0966
  759MOL0     H  179  11.191   0.310   9.536  0.1302 -1.0828 -1.5992
  759MOL0     H  180  11.396   0.459   9.485 -1.0998 -0.9651  1.0522
  759MOL0     H  181  11.288   0.578   9.414 -1.3748  0.6095  0.6961
  759MOL0     H  182  11.247   0.478   9.697 -0.5925 -0.1368 -0.2204
  759MOL0     H  183  11.170   0.604   9.609  1.0363  2.4863  0.8689
  759MOL0     H  184  11.406   0.699   9.589  0.1758  0.3357  0.3320
  759MOL0     H  185  11.324   0.718   9.758 -0.9003  0.0745  0.3204
  759MOL0     H  186  11.661   0.528   9.892  0.1046 -1.2286 -0.9403
  759MOL0     H  187  10.929   0.517   9.649 -1.8145  0.7444 -1.5985
  759MOL0     H  188  10.749   0.400   9.756 -0.7986  0.4690  0.0732
  760MOL0     O  189   1.616   1.812   9.330  0.4707  0.5084  0.0259
  760MOL0     C  190   1.685   1.733   9.260 -0.5193 -0.5663 -0.6753
  760MOL0     O  191   1.659   1.695   9.129 -0.2277 -0.3469  0.9806
  760MOL0     C  192   1.537   1.738   9.094  0.7511 -0.6580  0.2191
  760MOL0     C  193   1.422   1.688   9.151 -0.8185 -0.0611 -0.3798
  760MOL0     C  194   1.292   1.738   9.109  0.4403  0.4500 -0.4855
  760MOL0     C  195   1.281   1.814   8.988 -0.0066  0.5899 -1.1032
  760MOL0     O  196   1.169   1.844   8.917 -0.5652  0.0403 -0.5639
  760MOL0     C  197   1.049   1.826   8.993  0.4463 -0.2195  0.0987
  760MOL0     C  198   0.945   1.883   8.892  1.0398  0.4569  0.8244
  760MOL0     C  199   0.819   1.934   8.964 -0.5094  0.4047 -0.4494
  760MOL0     C  200   0.704   1.973   8.868 -0.0842  0.0982  0.6209
  760MOL0     C  201   0.568   1.996   8.933 -0.2866  0.2926 -0.0242
  760MOL0     C  202   0.466   2.013   8.820  0.6885  0.4330  0.3572
  760MOL0     C  203   0.319   2.028   8.864 -0.1040 -0.3813 -0.3936
  760MOL0     C  204   0.235   2.046   8.739  1.1370  0.1310 -0.3865
  760MOL0     N  205   0.092   2.016   8.769 -0.6996 -0.8162  0.5584
  760MOL0     C  206  -0.002   2.013   8.669  0.0387 -0.2256 -0.0197
  760MOL0     C  207  -0.120   2.004   8.730 -1.0130  0.1498  0.3597
  760MOL0     C  208  -0.250   2.019   8.661  0.6551 -0.3251  0.2148
  760MOL0     C  209  -0.376   1.986   8.744  1.0816 -0.3691 -0.1808
  760MOL0     C  210  -0.440   2.092   8.832 -0.9694 -0.1335  0.1976
  760MOL0     C  211  -0.578   2.045   8.889 -0.2311 -0.7353 -0.1639
  760MOL0     O  212  -0.665   2.036   8.777 -0.4867  0.3992 -0.0006
  760MOL0     C  213  -0.802   2.064   8.800  0.1733  0.3785  0.3325
  760MOL0     C  214  -0.868   2.058   8.919  0.2730  0.2170 -0.9475
  760MOL0     C  215  -1.003   2.107   8.935 -0.2395  1.6200  0.7192
  760MOL0     C  216  -1.086   2.132   8.822  0.0767 -0.1667  0.0643
  760MOL0     C  217  -1.222   2.176   8.825 -0.0670  0.0390  0.2336
  760MOL0     O  218  -1.266   2.211   8.947 -0.6264 -0.6773 -0.9008
  760MOL0     C  219  -1.392   2.221   8.990  0.1382 -0.6984  0.0096
  760MOL0     C  220  -1.503   2.161   8.926 -0.1779 -0.0939  0.5802
  760MOL0     C  221  -1.627   2.160   8.991 -0.1923 -0.0537 -0.0105
  760MOL0     C  222  -1.642   2.207   9.121  0.6185  0.5155 -0.2006
  760MOL0     O  223  -1.759   2.217   9.197 -0.3860 -0.7636  0.2830
  760MOL0     C  224  -1.831   2.090   9.200 -0.2825 -0.1880 -0.6459
  760MOL0     C  225  -1.954   2.107   9.283 -0.7632 -0.2380  0.4133
  760MOL0     C  226  -2.055   1.987   9.268  0.0292 -0.0509 -0.3041
  760MOL0     C  227  -2.161   1.990   9.378 -0.5815 -0.1834 -0.1826
  760MOL0     C  228  -2.257   1.871   9.376  0.0350  0.1720  1.1550
  760MOL0     C  229  -2.356   1.860   9.486 -0.3037 -0.2724  0.2153
  760MOL0     C  230  -2.311   1.901   9.627 -0.2503  0.2015 -1.0361
  760MOL0     C  231  -2.428   1.889   9.726 -0.0698 -0.1997 -0.3020
  760MOL0    Cl  232  -2.382   1.908   9.891 -0.1768 -0.0454  0.2006
  760MOL0     C  233  -1.528   2.264   9.176 -0.5040  0.3033 -0.0027
  760MOL0     C  234  -1.412   2.271   9.113 -0.0532 -0.0532  0.3277
  760MOL0     O  235  -1.291   2.170   8.725 -0.7787  0.1355  0.9506
  760MOL0     C  236  -1.020   2.114   8.694  0.8642 -0.5505 -0.2865
  760MOL0     C  237  -0.885   2.096   8.694 -0.0480 -0.9031  0.7592
  760MOL0     N  238  -0.096   2.003   8.860  0.1857  0.4242 -0.0976
  760MOL0     N  239   0.029   2.002   8.891 -0.2448  0.3970  0.9343
  760MOL0     C  240   1.393   1.854   8.922 -0.3335 -0.0863  0.0101
  760MOL0     C  241   1.520   1.808   8.974 -0.1023  0.0220  0.7984
  760MOL0     C  242   1.802   1.668   9.327  0.2964 -0.6048  0.7275
  760MOL0     C  243   1.824   1.685   9.463 -0.6068  0.0048  0.5190
  760MOL0     C  244   1.928   1.633   9.534 -0.2123  0.2008 -0.2502
  760MOL0     C  245   2.024   1.552   9.459  1.0865  0.5588 -0.3418
  760MOL0     O  246   2.132   1.489   9.516  0.4221 -0.1395 -0.5606
  760MOL0     C  247   2.156   1.497   9.662 -0.3373 -0.5413  0.3287
  760MOL0     C  248   2.260   1.387   9.703  0.2651 -0.1253 -0.3084
  760MOL0     C  249   2.319   1.414   9.841  0.5257  0.4019 -1.1644
  760MOL0     C  250   2.254   1.331   9.944 -0.4927 -0.1996  0.0569
  760MOL0     C  251   2.114   1.360   9.970  0.5108 -0.0582  0.5603
  760MOL0     C  252   1.998   1.396   9.993 -0.6919  0.2827 -0.4422
  760MOL0     C  253   1.995   1.529   9.325 -0.3066 -0.2165 -0.2110
  760MOL0     C  254   1.883   1.580   9.261 -0.5460  0.0462 -0.2077
  760MOL0     H  255   1.447   1.622   9.233  0.9979 -0.4019 -1.1586
  760MOL0     H  256   1.204   1.697   9.158  1.1832 -0.8689 -0.2093
  760MOL0     H  257   1.039   1.869   9.093 -0.0939  2.2702 -0.9471
  760MOL0     H  258   1.035   1.718   9.001  0.5701 -0.3135 -0.8416
  760MOL0     H  259   0.907   1.807   8.823  1.6339 -0.4510  1.4639
  760MOL0     H  260   0.992   1.965   8.837 -1.0974  1.6037  0.6351
  760MOL0     H  261   0.841   2.026   9.019 -1.8363  0.8829 -0.6903
  760MOL0     H  262   0.794   1.857   9.037  0.4991  1.2093  0.8078
  760MOL0     H  263   0.735   2.059   8.808  2.3109 -3.0337 -3.1293
  760MOL0     H  264   0.698   1.898   8.790  1.4637 -1.3371  1.7963
  760MOL0     H  265   0.566   2.091   8.987 -0.7392  1.2343 -1.6466
  760MOL0     H  266   0.538   1.916   9.002 -1.2071  1.1722  0.6151
  760MOL0     H  267   0.478   1.921   8.761 -2.0938 -1.5646  2.6207
  760MOL0     H  268   0.500   2.097   8.758  1.9675 -1.3696 -1.5287
  760MOL0     H  269   0.294   1.943   8.928 -3.1134  0.8950  0.2909
  760MOL0     H  270   0.298   2.121   8.917  2.1486  1.4453 -2.4495
  760MOL0     H  271   0.261   1.971   8.664 -1.4062 -1.2854  0.0541
  760MOL0     H  272   0.257   2.142   8.692  0.7242  1.4808  2.0279
  760MOL0     H  273   0.019   2.032   8.565  0.4007  0.3795  0.1632
  760MOL0     H  274  -0.260   1.950   8.576 -0.9721  0.6201 -0.3996
  760MOL0     H  275  -0.259   2.120   8.620  0.5759 -0.6245 -0.5306
  760MOL0     H  276  -0.362   1.900   8.809  2.4868 -0.0079  0.0300
  760MOL0     H  277  -0.445   1.953   8.665  1.7039 -1.7506 -0.1638
  760MOL0     H  278  -0.375   2.107   8.919 -0.8940  3.8077 -0.3744
  760MOL0     H  279  -0.437   2.190   8.785  1.2489  0.3546  1.2079
  760MOL0     H  280  -0.607   2.125   8.957 -3.1074 -0.6711 -1.3256
  760MOL0     H  281  -0.576   1.956   8.951  0.1382  0.4179  1.5424
  760MOL0     H  282  -0.804   2.037   9.004  1.8665  2.6047 -1.4486
  760MOL0     H  283  -1.028   2.120   9.039  2.5217 -0.1671  1.7031
  760MOL0     H  284  -1.501   2.118   8.827  0.4446 -0.8016  0.8946
  760MOL0     H  285  -1.710   2.116   8.937 -0.2019  0.2250 -0.2200
  760MOL0     H  286  -1.773   2.011   9.250  1.4176 -0.9872 -3.6172
  760MOL0     H  287  -1.843   2.048   9.099 -3.9484 -0.8007 -0.1040
  760MOL0     H  288  -2.000   2.198   9.242  0.7761  0.3054 -0.1855
  760MOL0     H  289  -1.914   2.124   9.383  0.8910  1.5527 -0.4760
  760MOL0     H  290  -1.992   1.898   9.275  0.5525  0.4181  1.7122
  760MOL0     H  291  -2.111   1.992   9.174 -0.5276  0.5596  0.0527
  760MOL0     H  292  -2.122   1.984   9.480 -0.7046 -1.5594 -0.2023
  760MOL0     H  293  -2.215   2.085   9.380  1.7135  1.1983  0.5107
  760MOL0     H  294  -2.197   1.781   9.360  2.6273  2.3657 -4.0920
  760MOL0     H  295  -2.319   1.865   9.287  0.1310 -2.4004  1.1935
  760MOL0     H  296  -2.393   1.757   9.483 -0.2212 -0.4576  2.8738
  760MOL0     H  297  -2.441   1.927   9.468 -1.1650  0.0534  4.4745
  760MOL0     H  298  -2.219   1.852   9.661 -1.6524 -1.8818 -0.0665
  760MOL0     H  299  -2.281   2.007   9.625  1.7549 -0.3181 -1.4116
  760MOL0     H  300  -2.474   1.792   9.705 -1.5776  0.6483 -1.1487
  760MOL0     H  301  -2.501   1.967   9.702  0.7135  0.3656 -0.8894
  760MOL0     H  302  -1.532   2.296   9.280  0.0543 -0.4906  0.2781
  760MOL0     H  303  -1.335   2.318   9.173  1.4026 -1.7347 -0.1589
  760MOL0     H  304  -1.082   2.114   8.605 -1.1183  1.8286  0.9686
  760MOL0     H  305  -0.840   2.092   8.595 -1.2873  0.9031  0.0705
  760MOL0     H  306   1.393   1.905   8.827  3.7702  0.1805 -0.0560
  760MOL0     H  307   1.602   1.830   8.907 -0.2752 -0.2124  0.5103
  760MOL0     H  308   1.758   1.745   9.524  0.6614  2.0600 -0.0401
  760MOL0     H  309   1.953   1.656   9.637 -0.3079 -2.7521  0.5063
  760MOL0     H  310   2.067   1.482   9.723 -0.2429 -1.5644  0.2294
  760MOL0     H  311   2.190   1.596   9.694  2.1341 -0.5687 -1.8533
  760MOL0     H  312   2.210   1.290   9.691 -0.8807  0.7838 -5.4686
  760MOL0     H  313   2.340   1.386   9.628 -0.0596  1.9235 -0.7382
  760MOL0     H  314   2.301   1.521   9.861 -2.5725  0.0178 -1.3135
  760MOL0     H  315   2.427   1.398   9.840  0.2743 -1.5610 -1.7319
  760MOL0     H  316   2.265   1.226   9.916 -0.7382 -0.0061 -0.8087
  760MOL0     H  317   2.311   1.364  10.032  0.0122 -0.2802 -0.2349
  760MOL0     H  318   1.903   1.426  10.032 -0.6030 -0.3335  0.2839
  760MOL0     H  319   2.061   1.470   9.261 -0.6741 -1.1378  0.2411
  760MOL0     H  320   1.856   1.550   9.160  1.1860 -1.3132 -0.3151
  761MOL0     O  321   9.564  10.709   3.338  0.7654  0.6114  0.5631
  761MOL0     C  322   9.601  10.602   3.285 -0.3863 -0.3585  0.3337
  761MOL0     O  323   9.514  10.502   3.244  0.1431 -0.2845 -0.1021
  761MOL0     C  324   9.377  10.534   3.244 -0.4806  0.8350  0.1222
  761MOL0     C  325   9.319  10.582   3.126  0.3930 -0.4768  0.0619
  761MOL0     C  326   9.175  10.608   3.122  0.1723  0.1609  0.5091
  761MOL0     C  327   9.103  10.593   3.238  0.8560  0.0282 -0.2592
  761MOL0     O  328   8.961  10.599   3.248 -0.0918 -0.2598  0.7126
  761MOL0     C  329   8.893  10.665   3.139  0.1066  0.2389  0.5588
  761MOL0     C  330   8.832  10.564   3.039  0.2050  0.5275  0.1929
  761MOL0     C  331   8.833  10.611   2.892 -1.2774  0.0456 -0.7140
  761MOL0     C  332   8.758  10.493   2.816 -0.3108 -0.4238  0.0776
  761MOL0     C  333   8.596  10.504   2.823 -0.8614 -0.0263  0.3534
  761MOL0     C  334   8.532  10.630   2.770  0.1780  0.8404  0.4300
  761MOL0     C  335   8.380  10.617   2.791  1.1224 -0.1437  0.4062
  761MOL0     C  336   8.317  10.752   2.759  0.3250 -0.0466  0.4422
  761MOL0     N  337   8.184  10.738   2.708  0.5577  0.0543  0.2247
  761MOL0     C  338   8.085  10.826   2.748 -0.4678  0.2098  0.1288
  761MOL0     C  339   7.994  10.821   2.650  0.4341 -0.3725  0.2907
  761MOL0     C  340   7.864  10.896   2.643 -0.1654 -1.0825 -0.2387
  761MOL0     C  341   7.810  10.920   2.497  0.0195  0.9076 -0.3125
  761MOL0     C  342   7.676  10.998   2.516  0.3479 -0.2724 -1.2819
  761MOL0     C  343   7.620  11.030   2.381  0.2019 -0.3180 -0.4388
  761MOL0     O  344   7.594  11.174   2.389  0.5086 -0.4896  0.1890
  761MOL0     C  345   7.462  11.217   2.368 -0.1830 -1.1382 -0.0886
  761MOL0     C  346   7.388  11.278   2.467  0.4160 -0.1916 -0.6405
  761MOL0     C  347   7.264  11.331   2.449  0.8231  0.7779  0.3330
  761MOL0     C  348   7.200  11.322   2.320 -0.8225  0.2223  0.3602
  761MOL0     C  349   7.051  11.363   2.312 -0.4272  0.3966 -0.3255
  761MOL0     O  350   6.997  11.443   2.417  0.2526 -0.0682  0.8876
  761MOL0     C  351   6.867  11.465   2.413 -0.1774 -0.2859 -0.9261
  761MOL0     C  352   6.820  11.596   2.417 -0.3281 -0.2280  0.7758
  761MOL0     C  353   6.679  11.619   2.414 -0.1021 -0.2731  0.0370
  761MOL0     C  354   6.587  11.511   2.405  0.1021 -1.0373 -0.6958
  761MOL0     O  355   6.456  11.556   2.406 -0.7762 -0.2014  0.7139
  761MOL0     C  356   6.369  11.465   2.331  1.2203 -0.2144 -0.4171
  761MOL0     C  357   6.247  11.549   2.280  0.0825 -0.7031  0.3149
  761MOL0     C  358   6.289  11.659   2.183  0.4132 -0.4562 -0.5879
  761MOL0     C  359   6.179  11.768   2.172 -0.2678 -0.4890 -0.2012
  761MOL0     C  360   6.040  11.704   2.155 -0.7365 -0.5287 -0.4138
  761MOL0     C  361   5.933  11.799   2.105 -0.6084  0.2948 -0.5343
  761MOL0     C  362   5.797  11.740   2.079  0.2661 -0.1230 -0.2434
  761MOL0     C  363   5.697  11.774   2.198  0.1358  0.0606  0.5162
  761MOL0    Cl  364   5.533  11.729   2.152  0.3036 -0.2041  0.2844
  761MOL0     C  365   6.636  11.382   2.389 -1.1456  0.4778 -0.0723
  761MOL0     C  366   6.774  11.354   2.398 -0.4873 -0.4839  0.7755
  761MOL0     O  367   6.993  11.323   2.212  0.0767 -0.1422 -0.1545
  761MOL0     C  368   7.276  11.263   2.210  0.0903  0.0092 -0.2108
  761MOL0     C  369   7.408  11.210   2.236  0.0907  0.2644  0.1356
  761MOL0     N  370   8.027  10.723   2.559 -0.8668  0.0932 -0.6942
  761MOL0     N  371   8.142  10.679   2.593 -0.1002 -0.2719  0.3603
  761MOL0     C  372   9.159  10.549   3.352  0.6721 -0.7091  0.9584
  761MOL0     C  373   9.294  10.507   3.356  0.6688  0.3193  0.0677
  761MOL0     C  374   9.740  10.580   3.255 -0.7722 -0.9847  0.0924
  761MOL0     C  375   9.834  10.673   3.308 -0.2114  0.3943 -0.8061
  761MOL0     C  376   9.974  10.659   3.280 -0.1444 -0.3724  0.3597
  761MOL0     C  377  10.025  10.559   3.201 -0.0347  0.4086  0.2082
  761MOL0     O  378  10.165  10.551   3.191  0.6937  0.8788 -0.2441
  761MOL0     C  379  10.211  10.468   3.079  0.5123  0.3304 -0.7106
  761MOL0     C  380  10.294  10.350   3.139 -0.2591  0.0124 -0.3761
  761MOL0     C  381  10.321  10.241   3.035 -0.1022  0.6283  0.2837
  761MOL0     C  382  10.424  10.134   3.069 -0.1984 -1.1083 -0.1901
  761MOL0     C  383  10.559  10.185   3.080  0.6714 -0.0912 -0.0276
  761MOL0     C  384  10.662  10.245   3.089 -0.2732 -0.4091  0.5224
  761MOL0     C  385   9.925  10.470   3.152  0.4662  0.3810  0.5007
  761MOL0     C  386   9.790  10.479   3.171  0.2781  0.0812 -0.5305
  761MOL0     H  387   9.379  10.598   3.038 -1.1375  3.2751 -0.4829
  761MOL0     H  388   9.138  10.625   3.021  1.3749  3.6425  0.5177
  761MOL0     H  389   8.966  10.727   3.086 -0.4200 -1.4972 -2.4322
  761MOL0     H  390   8.817  10.737   3.171 -0.2746  0.6194 -1.1118
  761MOL0     H  391   8.728  10.543   3.065 -0.5593  0.1792 -2.8257
  761MOL0     H  392   8.889  10.471   3.032 -0.6893  0.1163 -2.4324
  761MOL0     H  393   8.934  10.630   2.855 -0.7515 -1.3288 -0.0660
  761MOL0     H  394   8.783  10.708   2.882 -0.7698  0.1331 -2.5710
  761MOL0     H  395   8.790  10.509   2.713  1.4950 -1.8769  0.3608
  761MOL0     H  396   8.791  10.400   2.861 -2.9982 -1.7793 -0.5425
  761MOL0     H  397   8.555  10.480   2.922 -2.1920 -0.5747 -0.3028
  761MOL0     H  398   8.572  10.421   2.756 -1.2989  0.6853 -0.4037
  761MOL0     H  399   8.544  10.642   2.662  1.7410  0.7677  0.5811
  761MOL0     H  400   8.569  10.715   2.828  0.5696  0.8887  0.1105
  761MOL0     H  401   8.328  10.543   2.729 -0.0335  0.9221  0.0472
  761MOL0     H  402   8.344  10.580   2.887  0.7191  0.2401  0.4096
  761MOL0     H  403   8.366  10.810   2.680  1.8900  3.1877  3.4879
  761MOL0     H  404   8.310  10.822   2.843  0.9324  0.6542 -0.0772
  761MOL0     H  405   8.091  10.889   2.836 -1.0166  1.5612 -0.7625
  761MOL0     H  406   7.897  10.998   2.664 -1.4507  0.5548 -4.9146
  761MOL0     H  407   7.798  10.849   2.717  1.0337 -1.7029  0.4786
  761MOL0     H  408   7.787  10.820   2.460 -0.0898 -0.8569  3.8802
  761MOL0     H  409   7.887  10.970   2.439 -0.1304  1.2728 -0.1993
  761MOL0     H  410   7.598  10.938   2.563 -0.3652  0.8359 -0.9941
  761MOL0     H  411   7.685  11.081   2.588 -3.1407 -0.2655 -0.6760
  761MOL0     H  412   7.535  10.963   2.367  1.5111 -2.3450  0.7800
  761MOL0     H  413   7.669  11.015   2.284 -1.1142  1.8388 -1.5223
  761MOL0     H  414   7.435  11.267   2.565  0.2167  1.2793 -0.3483
  761MOL0     H  415   7.219  11.359   2.544  0.4014 -1.8081  0.9983
  761MOL0     H  416   6.889  11.677   2.437 -2.9718  2.9104 -1.7664
  761MOL0     H  417   6.657  11.725   2.420 -0.4194  0.0089 -3.6596
  761MOL0     H  418   6.324  11.396   2.403  1.2865  0.3027  0.1303
  761MOL0     H  419   6.411  11.408   2.248  2.2559 -0.6975  0.4171
  761MOL0     H  420   6.196  11.592   2.366  1.3113  0.7453  0.3486
  761MOL0     H  421   6.171  11.482   2.239 -0.3943 -0.3519  0.6123
  761MOL0     H  422   6.311  11.607   2.090  0.9891 -0.0646 -0.6750
  761MOL0     H  423   6.371  11.709   2.236  1.0639 -0.7071 -1.3318
  761MOL0     H  424   6.181  11.828   2.263 -1.6167 -0.4164 -0.1940
  761MOL0     H  425   6.210  11.822   2.082 -0.1609  0.3118  0.3055
  761MOL0     H  426   6.005  11.671   2.253  2.0306 -0.5862  0.6627
  761MOL0     H  427   6.046  11.628   2.077  0.2462  1.2422 -2.1631
  761MOL0     H  428   5.969  11.819   2.004  3.1396 -2.5716 -0.0211
  761MOL0     H  429   5.932  11.889   2.167 -1.1693 -0.7722  1.0658
  761MOL0     H  430   5.758  11.771   1.982  0.7830 -1.4320 -0.8998
  761MOL0     H  431   5.810  11.632   2.069  1.0995  0.0450 -1.0540
  761MOL0     H  432   5.689  11.883   2.209 -2.0855 -0.1581  1.6962
  761MOL0     H  433   5.722  11.722   2.290  2.3080 -1.7230 -0.9707
  761MOL0     H  434   6.570  11.296   2.382  0.4490 -1.0269  2.1304
  761MOL0     H  435   6.815  11.254   2.387 -0.6447 -0.4096 -0.8107
  761MOL0     H  436   7.230  11.272   2.112 -0.9409 -1.7220  0.0706
  761MOL0     H  437   7.456  11.161   2.152 -1.4495 -1.0160 -0.0396
  761MOL0     H  438   9.095  10.519   3.434 -1.6129  1.4772  0.1139
  761MOL0     H  439   9.327  10.461   3.449 -1.1538  0.4480  0.8358
  761MOL0     H  440   9.810  10.756   3.373 -1.7314  0.2555 -1.1468
  761MOL0     H  441  10.049  10.718   3.332  1.3111 -2.6144  0.9167
  761MOL0     H  442  10.270  10.531   3.011  2.9022  2.5852  3.0800
  761MOL0     H  443  10.131  10.432   3.014  0.1489 -0.5796  0.2165
  761MOL0     H  444  10.385  10.385   3.189 -0.4277  2.2701 -1.5386
  761MOL0     H  445  10.235  10.304   3.219  2.7945 -6.0672 -1.0627
  761MOL0     H  446  10.352  10.298   2.947 -1.2795  1.2064  0.2234
  761MOL0     H  447  10.233  10.180   3.014  0.7576 -0.2232 -1.0300
  761MOL0     H  448  10.410  10.080   3.164  1.8403 -1.8955 -0.2748
  761MOL0     H  449  10.430  10.049   3.001 -2.0464 -0.7544 -0.8465
  761MOL0     H  450  10.752  10.303   3.094  0.2091 -1.2516  3.3161
  761MOL0     H  451   9.961  10.374   3.116  2.1752  0.1014  2.7338
  761MOL0     H  452   9.719  10.406   3.132 -2.2787  0.4806  2.9135
  762MOL0     O  453   1.301   6.319   1.946 -0.1133  0.8023 -0.8690
  762MOL0     C  454   1.389   6.263   1.885  0.0915  0.2678 -0.8068
  762MOL0     O  455   1.377   6.147   1.816 -0.3040 -0.4094  0.8343
  762MOL0     C  456   1.256   6.096   1.775 -0.3136 -0.3454  0.3437
  762MOL0     C  457   1.150   6.177   1.726 -1.1772 -0.3085  0.1158
  762MOL0     C  458   1.028   6.120   1.698 -0.0443 -0.9369  0.4079
  762MOL0     C  459   0.999   5.983   1.717  0.1761  0.5065 -0.0059
  762MOL0     O  460   0.872   5.933   1.697 -0.8151  0.6372  0.6390
  762MOL0     C  461   0.749   5.986   1.739  0.3552 -0.5252 -0.3737
  762MOL0     C  462   0.758   5.951   1.892  0.2371  0.2962  0.5268
  762MOL0     C  463   0.616   5.969   1.968 -0.2585  0.7040  0.2127
  762MOL0     C  464   0.620   5.964   2.116 -0.0536 -0.5992 -0.5232
  762MOL0     C  465   0.480   5.968   2.184 -0.0450  0.0892 -0.1612
  762MOL0     C  466   0.485   5.972   2.338  0.5530  0.1100 -0.3001
  762MOL0     C  467   0.338   5.961   2.402  0.5462 -0.1419 -0.3844
  762MOL0     C  468   0.268   5.824   2.390  0.5596  0.3961 -0.8482
  762MOL0     N  469   0.160   5.810   2.492 -0.4092  1.2135 -0.4939
  762MOL0     C  470   0.028   5.848   2.481  0.1338 -0.2952  0.0523
  762MOL0     C  471  -0.025   5.799   2.592  0.3830  1.0059 -0.7062
  762MOL0     C  472  -0.170   5.814   2.628  0.6037 -0.2773  1.1335
  762MOL0     C  473  -0.269   5.861   2.522 -0.1239 -0.1825 -0.7584
  762MOL0     C  474  -0.417   5.820   2.552  0.1441  0.2716  0.1219
  762MOL0     C  475  -0.507   5.883   2.454 -0.0569  0.6570 -0.0578
  762MOL0     O  476  -0.635   5.822   2.476  0.3130  0.6399  0.1175
  762MOL0     C  477  -0.755   5.886   2.427 -0.0676 -0.4552  0.0269
  762MOL0     C  478  -0.749   5.998   2.338  0.0908  0.7642  1.1205
  762MOL0     C  479  -0.870   6.059   2.301 -0.1122 -0.3236  0.9000
  762MOL0     C  480  -0.992   6.020   2.361  0.3063  0.2997 -1.3533
  762MOL0     C  481  -1.121   6.083   2.328  0.4590  0.6845 -1.6201
  762MOL0     O  482  -1.228   6.057   2.419  0.2431 -0.2275  0.3141
  762MOL0     C  483  -1.345   6.126   2.396  0.0721 -0.6686  0.1779
  762MOL0     C  484  -1.365   6.246   2.465  0.6972 -0.2540  0.6112
  762MOL0     C  485  -1.485   6.314   2.436 -0.4618  0.5746  0.0805
  762MOL0     C  486  -1.589   6.270   2.358  1.0606  0.6954  0.1260
  762MOL0     O  487  -1.708   6.342   2.332 -0.3462  0.1288  0.0757
  762MOL0     C  488  -1.796   6.320   2.216  0.4628 -0.7489  0.7626
  762MOL0     C  489  -1.877   6.453   2.217  0.1115  0.2258  0.3853
  762MOL0     C  490  -1.989   6.465   2.106  0.2477 -0.2938  1.2368
  762MOL0     C  491  -2.068   6.599   2.114  0.2674  0.8855 -0.3707
  762MOL0     C  492  -2.186   6.617   2.021 -0.0089 -0.2128 -0.4051
  762MOL0     C  493  -2.175   6.561   1.880 -0.3932  0.1405  0.1336
  762MOL0     C  494  -2.295   6.593   1.800 -0.3734 -0.1961 -0.0774
  762MOL0     C  495  -2.412   6.505   1.838 -0.2768  0.8318  0.6216
  762MOL0    Cl  496  -2.545   6.535   1.734  0.4091  0.1449 -0.4931
  762MOL0     C  497  -1.566   6.146   2.294 -0.2534  0.0823  0.5311
  762MOL0     C  498  -1.445   6.077   2.311  0.1317  0.0647 -0.2997
  762MOL0     O  499  -1.123   6.160   2.234 -0.2490 -0.5032 -0.3613
  762MOL0     C  500  -0.995   5.919   2.460 -0.1478  0.2583 -0.4290
  762MOL0     C  501  -0.876   5.854   2.485  0.0039 -0.5176 -0.0374
  762MOL0     N  502   0.070   5.734   2.668 -0.8229  0.8021  0.1489
  762MOL0     N  503   0.178   5.732   2.602  0.7750 -0.3681  0.4854
  762MOL0     C  504   1.108   5.901   1.749  0.0337  0.4836  0.6050
  762MOL0     C  505   1.228   5.961   1.781 -0.5564 -0.2646  1.1862
  762MOL0     C  506   1.521   6.325   1.895  0.3131  0.4009  0.8547
  762MOL0     C  507   1.542   6.427   1.991 -0.4376  0.1926  0.0714
  762MOL0     C  508   1.669   6.499   2.004 -0.4754 -0.1215  0.4105
  762MOL0     C  509   1.772   6.464   1.921 -0.0387 -0.1103  0.9893
  762MOL0     O  510   1.885   6.545   1.919 -0.5471 -0.1512  0.8663
  762MOL0     C  511   2.001   6.503   1.837  0.1405  0.5686  0.9849
  762MOL0     C  512   2.077   6.372   1.877  0.6327  0.2539  0.4210
  762MOL0     C  513   2.057   6.338   2.019 -0.4651 -0.7338 -0.3167
  762MOL0     C  514   2.080   6.188   2.033 -0.3487  0.3552  0.0190
  762MOL0     C  515   2.220   6.170   2.064 -0.3203 -0.2454 -0.0881
  762MOL0     C  516   2.330   6.139   2.104  0.4725 -0.9877  0.1698
  762MOL0     C  517   1.745   6.364   1.821 -0.5673 -0.3799 -0.3245
  762MOL0     C  518   1.623   6.292   1.803 -1.1139 -0.1612 -0.3071
  762MOL0     H  519   1.159   6.284   1.711  1.6283  0.0496  3.1962
  762MOL0     H  520   0.948   6.189   1.672  1.7027  0.2624 -2.2397
  762MOL0     H  521   0.658   5.959   1.686  0.8173  0.4910 -1.7421
  762MOL0     H  522   0.756   6.092   1.714  1.6958 -0.5450 -0.1674
  762MOL0     H  523   0.832   6.021   1.931  2.9547  1.3920 -5.3486
  762MOL0     H  524   0.788   5.847   1.910  2.7279  0.8792  0.1095
  762MOL0     H  525   0.559   5.882   1.933  0.0288 -0.5709  2.6903
  762MOL0     H  526   0.568   6.060   1.930 -0.0497  0.1392 -1.4784
  762MOL0     H  527   0.685   5.886   2.156 -0.0191 -0.0767  0.4606
  762MOL0     H  528   0.674   6.054   2.147 -1.9262  1.0753 -1.8419
  762MOL0     H  529   0.422   5.885   2.142 -1.2299  0.6507  0.3179
  762MOL0     H  530   0.439   6.066   2.159 -2.5076 -1.1429 -1.3879
  762MOL0     H  531   0.523   6.068   2.373 -1.5705  0.3073  1.6761
  762MOL0     H  532   0.546   5.891   2.378 -2.8350 -1.5954  1.7799
  762MOL0     H  533   0.336   5.988   2.508  2.4352  1.7613 -0.7658
  762MOL0     H  534   0.280   6.036   2.347 -0.0906  1.8095  2.7119
  762MOL0     H  535   0.348   5.754   2.415 -0.8479 -0.6196  1.1033
  762MOL0     H  536   0.223   5.793   2.295  0.6882 -0.7390 -0.5472
  762MOL0     H  537  -0.015   5.906   2.400  1.9394 -0.9464 -1.4303
  762MOL0     H  538  -0.170   5.892   2.705  0.8123 -0.1067  0.9615
  762MOL0     H  539  -0.213   5.725   2.674 -0.6151  0.3135  1.1772
  762MOL0     H  540  -0.254   5.798   2.434 -1.9837 -2.7167  0.5994
  762MOL0     H  541  -0.248   5.966   2.499 -1.6206 -0.4922 -4.1619
  762MOL0     H  542  -0.428   5.712   2.536  2.1150  0.2639 -1.5547
  762MOL0     H  543  -0.446   5.849   2.653  0.3443  2.7007 -0.4744
  762MOL0     H  544  -0.464   5.857   2.356  0.9185  1.0878  0.2427
  762MOL0     H  545  -0.518   5.991   2.469  0.0721  0.8074 -0.9541
  762MOL0     H  546  -0.658   6.027   2.287  0.5930 -0.3194  1.3760
  762MOL0     H  547  -0.876   6.145   2.235 -1.8333 -0.7506  0.4495
  762MOL0     H  548  -1.293   6.292   2.532 -1.0083  2.1483  0.9565
  762MOL0     H  549  -1.508   6.406   2.489 -4.9267 -1.1507  1.5507
  762MOL0     H  550  -1.863   6.238   2.242  0.1102 -1.1442 -1.2220
  762MOL0     H  551  -1.745   6.292   2.124  0.3541 -1.2039  0.8362
  762MOL0     H  552  -1.807   6.536   2.202  0.1280  0.4896  1.8193
  762MOL0     H  553  -1.914   6.463   2.319 -1.6813  1.0853 -0.3087
  762MOL0     H  554  -2.062   6.385   2.121  1.0563 -1.8452 -2.1608
  762MOL0     H  555  -1.941   6.454   2.008  1.6479  1.6600  1.6453
  762MOL0     H  556  -2.119   6.589   2.210 -2.1241 -2.4969 -1.7923
  762MOL0     H  557  -2.004   6.688   2.110 -0.1725  1.2637  0.5565
  762MOL0     H  558  -2.192   6.724   1.997  2.2501 -0.2012 -1.1854
  762MOL0     H  559  -2.281   6.592   2.070 -0.3057  1.6887  0.0713
  762MOL0     H  560  -2.163   6.452   1.872 -1.9817 -0.3214  2.7715
  762MOL0     H  561  -2.089   6.612   1.835 -0.4740 -0.8894 -1.2506
  762MOL0     H  562  -2.325   6.697   1.820 -3.9884 -0.9859 -0.6341
  762MOL0     H  563  -2.265   6.584   1.695  0.1924 -1.7539  0.1957
  762MOL0     H  564  -2.455   6.518   1.938 -0.9814 -0.3086  0.4830
  762MOL0     H  565  -2.391   6.399   1.826 -1.3778  0.6244  0.3897
  762MOL0     H  566  -1.629   6.111   2.212 -1.3342 -0.8167  1.7070
  762MOL0     H  567  -1.428   5.981   2.265 -3.3241 -0.1957 -1.3230
  762MOL0     H  568  -1.085   5.885   2.509 -0.7651 -0.1601 -1.8243
  762MOL0     H  569  -0.872   5.780   2.564 -1.3079  0.4155  0.9374
  762MOL0     H  570   1.099   5.793   1.752 -2.3315  0.5788 -0.6104
  762MOL0     H  571   1.298   5.900   1.838 -0.0593 -2.8979 -1.9551
  762MOL0     H  572   1.473   6.458   2.069  1.3552  0.3631  1.6429
  762MOL0     H  573   1.679   6.576   2.079  0.3424  0.7235 -0.5382
  762MOL0     H  574   2.081   6.578   1.842  1.0457 -0.0350 -2.0777
  762MOL0     H  575   1.954   6.497   1.738 -1.3445 -1.7528  1.7644
  762MOL0     H  576   2.044   6.292   1.810  1.1395 -2.0434  2.7377
  762MOL0     H  577   2.185   6.384   1.863  0.6378 -0.2508 -0.0206
  762MOL0     H  578   1.955   6.364   2.050 -0.3139 -1.1393  0.5572
  762MOL0     H  579   2.121   6.403   2.079 -0.7777 -0.2411 -0.5079
  762MOL0     H  580   2.014   6.157   2.114  1.8204  1.2680  2.2741
  762MOL0     H  581   2.071   6.129   1.941  1.0595  2.3656 -1.5165
  762MOL0     H  582   2.427   6.121   2.143  0.9945 -2.2327 -1.5575
  762MOL0     H  583   1.828   6.330   1.759  0.6777 -2.3906  2.2494
  762MOL0     H  584   1.602   6.212   1.734  0.8006 -2.0928  1.1995
  763MOL0     O  585   5.742   6.971  10.366 -0.7704 -0.4808  0.4077
  763MOL0     C  586   5.750   6.948  10.241 -0.2983 -0.5675 -0.5449
  763MOL0     O  587   5.646   6.917  10.157 -0.5793 -0.6206 -0.6273
  763MOL0     C  588   5.520   6.907  10.211 -0.1792 -0.1360 -1.0724
  763MOL0     C  589   5.490   6.814  10.311 -0.5826 -0.1472  1.0215
  763MOL0     C  590   5.356   6.797  10.348  0.3362 -0.0865 -0.4021
  763MOL0     C  591   5.253   6.865  10.275  0.0157 -0.2512 -0.8418
  763MOL0     O  592   5.120   6.839  10.286 -0.7188  0.0970 -0.1266
  763MOL0     C  593   5.073   6.838  10.420  0.4108  0.0022  0.0243
  763MOL0     C  594   4.923   6.874  10.403  0.1124 -0.7628  0.3255
  763MOL0     C  595   4.849   6.834  10.523 -0.4132 -0.5764 -0.2298
  763MOL0     C  596   4.696   6.845  10.514 -0.5709  0.8304  0.2453
  763MOL0     C  597   4.621   6.851  10.642 -0.4150  0.1436  0.6018
  763MOL0     C  598   4.467   6.844  10.621 -0.1102  0.0137  0.3861
  763MOL0     C  599   4.405   6.937  10.521 -0.0882  1.2252 -0.9138
  763MOL0     C  600   4.251   6.946  10.518 -0.0915 -0.0076  0.1695
  763MOL0     N  601   4.189   6.978  10.644 -0.4717 -0.0349  0.2782
  763MOL0     C  602   4.089   6.896  10.702 -0.7710 -0.5815  0.5199
  763MOL0     C  603   4.017   6.967  10.785  0.3303 -0.4717  0.9346
  763MOL0     C  604   3.899   6.925  10.857  0.2507  0.4996  0.2980
  763MOL0     C  605   3.777   6.956  10.776  1.2217  0.2380  0.4400
  763MOL0     C  606   3.655   6.952  10.866 -0.0603 -0.2149  0.0122
  763MOL0     C  607   3.537   6.998  10.777  0.3614  1.0533  0.1463
  763MOL0     O  608   3.414   6.982  10.848 -0.3988 -0.3504 -0.1530
  763MOL0     C  609   3.285   7.003  10.808 -1.0980 -0.8815 -0.2389
  763MOL0     C  610   3.249   7.039  10.675 -0.0808 -0.0190 -0.5727
  763MOL0     C  611   3.114   7.054  10.645  0.5574  0.7937 -0.7920
  763MOL0     C  612   3.017   7.036  10.747  1.2190  0.1941  0.8273
  763MOL0     C  613   2.869   7.068  10.709 -0.1567  0.3746 -0.2512
  763MOL0     O  614   2.849   7.132  10.596  0.1383 -0.5023 -0.5462
  763MOL0     C  615   2.724   7.170  10.562  0.8479  0.2933  0.4829
  763MOL0     C  616   2.658   7.290  10.597 -0.0033  0.4832  0.4730
  763MOL0     C  617   2.532   7.321  10.552 -0.5531 -0.1004 -1.0209
  763MOL0     C  618   2.456   7.232  10.469  0.0311  1.5321 -0.9092
  763MOL0     O  619   2.326   7.244  10.422  0.4339  0.3182 -0.1933
  763MOL0     C  620   2.264   7.376  10.441  0.3774 -0.6227  0.1253
  763MOL0     C  621   2.139   7.386  10.360 -0.0576 -0.6863 -0.4681
  763MOL0     C  622   2.177   7.361  10.214 -0.1752 -0.2064  0.2677
  763MOL0     C  623   2.057   7.376  10.112  0.7518 -0.6814 -0.3824
  763MOL0     C  624   1.939   7.271  10.144  0.1215 -0.0569  0.4980
  763MOL0     C  625   1.838   7.260  10.029  0.8886 -0.6604  0.5120
  763MOL0     C  626   1.744   7.373  10.018  0.0361 -0.2415 -0.2375
  763MOL0     C  627   1.630   7.341   9.914  0.3544 -0.4757 -0.8569
  763MOL0    Cl  628   1.529   7.217   9.986  0.3347  0.2961  0.0720
  763MOL0     C  629   2.521   7.106  10.448 -0.0735 -0.0094  0.0282
  763MOL0     C  630   2.654   7.085  10.480 -0.1857 -0.1752 -0.2170
  763MOL0     O  631   2.783   7.017  10.777 -0.3346 -1.0413  0.1858
  763MOL0     C  632   3.051   7.018  10.876 -0.5841 -0.0135 -0.1417
  763MOL0     C  633   3.191   6.997  10.906 -0.2453 -0.1903  0.4527
  763MOL0     N  634   4.066   7.093  10.788 -0.4337 -0.4820  0.3894
  763MOL0     N  635   4.162   7.104  10.694 -0.0184 -0.9080  0.3242
  763MOL0     C  636   5.295   6.965  10.182  0.1483  0.7524  0.1302
  763MOL0     C  637   5.428   6.974  10.142 -0.2864  0.1468 -0.1107
  763MOL0     C  638   5.884   6.958  10.188  1.5487 -0.6430 -0.0574
  763MOL0     C  639   5.899   7.004  10.054 -0.4061  0.5819 -0.4023
  763MOL0     C  640   6.028   7.007   9.998  0.0734  0.5387  0.2976
  763MOL0     C  641   6.138   6.968  10.075  0.1808 -0.2257 -0.0376
  763MOL0     O  642   6.270   6.980  10.040 -0.0802  0.7591 -0.4853
  763MOL0     C  643   6.315   7.082   9.944 -0.2863 -0.6122 -0.6482
  763MOL0     C  644   6.343   7.206  10.034 -1.2260  0.3195 -0.4052
  763MOL0     C  645   6.474   7.192  10.102 -1.7129  0.5109 -0.5639
  763MOL0     C  646   6.513   7.310  10.193 -0.0442  0.2170  0.2029
  763MOL0     C  647   6.635   7.278  10.268 -0.7191 -0.2472 -0.5624
  763MOL0     C  648   6.739   7.271  10.326  0.8814  0.6398  0.4533
  763MOL0     C  649   6.124   6.925  10.199  1.0548 -0.8382  0.2794
  763MOL0     C  650   5.995   6.910  10.251  0.5119 -0.1730 -0.1253
  763MOL0     H  651   5.562   6.743  10.351 -0.1266 -1.7506 -2.3192
  763MOL0     H  652   5.317   6.720  10.414 -1.6486  1.0884 -0.1503
  763MOL0     H  653   5.114   6.916  10.485 -2.9223  1.5499  0.4951
  763MOL0     H  654   5.094   6.742  10.467  0.7757 -1.0647 -2.1690
  763MOL0     H  655   4.881   6.826  10.314 -0.3764  1.1652 -0.5529
  763MOL0     H  656   4.909   6.981  10.380 -1.7471 -1.2130 -0.8832
  763MOL0     H  657   4.885   6.900  10.603 -1.3154 -0.3366  0.0014
  763MOL0     H  658   4.869   6.730  10.552  0.5587 -0.4103 -0.2821
  763MOL0     H  659   4.677   6.940  10.464  0.1953  0.3198 -1.0642
  763MOL0     H  660   4.655   6.771  10.444 -0.2873  1.2954 -0.4223
  763MOL0     H  661   4.649   6.944  10.692  0.5642  1.2237 -1.7679
  763MOL0     H  662   4.653   6.773  10.712  2.1890 -0.4596 -1.0869
  763MOL0     H  663   4.424   6.863  10.720 -1.0932 -2.2399  0.4367
  763MOL0     H  664   4.458   6.740  10.589  2.6946  0.0408 -0.7663
  763MOL0     H  665   4.464   7.029  10.531  0.4380  0.7681  0.2913
  763MOL0     H  666   4.434   6.894  10.424 -2.4978 -1.2410 -0.6512
  763MOL0     H  667   4.218   6.848  10.482  0.8461 -0.5096  0.6674
  763MOL0     H  668   4.222   7.023  10.446  1.5631 -0.2332 -0.7768
  763MOL0     H  669   4.058   6.799  10.666 -2.0983 -1.4208  3.5897
  763MOL0     H  670   3.890   6.974  10.954  2.1159 -0.3165  0.9364
  763MOL0     H  671   3.895   6.821  10.890 -1.9325  0.0897 -1.0485
  763MOL0     H  672   3.770   6.886  10.692 -1.6488 -0.5427  1.2047
  763MOL0     H  673   3.789   7.053  10.727  0.4074 -1.5751 -3.8546
  763MOL0     H  674   3.632   6.852  10.905 -0.6012 -0.7042 -1.5075
  763MOL0     H  675   3.666   7.016  10.954  0.1982 -1.5976  1.0191
  763MOL0     H  676   3.542   6.930  10.691  0.6742  0.1905  0.8301
  763MOL0     H  677   3.559   7.101  10.748 -2.3200  0.8307 -3.3715
  763MOL0     H  678   3.331   7.038  10.605 -1.1677  0.9792 -1.9203
  763MOL0     H  679   3.087   7.086  10.545 -2.3347 -3.1070 -1.5176
  763MOL0     H  680   2.704   7.366  10.660  1.8749  1.5160 -1.9901
  763MOL0     H  681   2.496   7.418  10.585 -0.4696 -1.0378  2.0857
  763MOL0     H  682   2.330   7.451  10.398 -0.0216  0.1704  0.8725
  763MOL0     H  683   2.232   7.396  10.543 -1.6462  0.6027 -0.6870
  763MOL0     H  684   2.106   7.489  10.370  0.7131 -0.4052 -0.7662
  763MOL0     H  685   2.061   7.324  10.406 -1.5904 -0.7252 -2.9387
  763MOL0     H  686   2.214   7.258  10.219  0.5209  0.0831  3.9117
  763MOL0     H  687   2.262   7.427  10.191  2.1880 -1.9998  2.9881
  763MOL0     H  688   2.016   7.477  10.122 -0.4431 -1.2892  1.2936
  763MOL0     H  689   2.090   7.371  10.008  1.2825  4.8617 -0.7712
  763MOL0     H  690   1.891   7.295  10.239 -1.1378  0.1240 -0.1621
  763MOL0     H  691   1.986   7.173  10.157 -0.9704 -0.2623  3.6014
  763MOL0     H  692   1.785   7.165  10.044 -1.0240  0.1652 -0.7313
  763MOL0     H  693   1.884   7.238   9.933  0.0948 -2.1912  0.4538
  763MOL0     H  694   1.706   7.391  10.119  0.0653 -0.3010 -0.2165
  763MOL0     H  695   1.802   7.461   9.989  2.8822 -0.5667  3.6544
  763MOL0     H  696   1.664   7.293   9.822 -0.6927 -3.3538  0.1672
  763MOL0     H  697   1.580   7.435   9.887 -0.5525 -0.8027 -0.3558
  763MOL0     H  698   2.477   7.023  10.394  1.7061 -1.1591  0.2924
  763MOL0     H  699   2.705   6.989  10.470 -0.8116 -0.7644  1.7267
  763MOL0     H  700   2.971   7.020  10.949 -1.7876 -0.2345 -1.4287
  763MOL0     H  701   3.218   6.954  11.002 -2.5985 -0.5036  1.0307
  763MOL0     H  702   5.218   7.028  10.139 -0.1301  0.1054 -0.3197
  763MOL0     H  703   5.457   7.046  10.066 -1.8256  1.3395  0.4014
  763MOL0     H  704   5.811   7.037   9.999 -0.1630  0.3205 -0.9499
  763MOL0     H  705   6.028   7.048   9.897  0.9024 -4.2539 -1.9265
  763MOL0     H  706   6.233   7.112   9.879 -1.6036  0.6488  1.4769
  763MOL0     H  707   6.396   7.048   9.879  1.0808 -1.7350  1.5111
  763MOL0     H  708   6.358   7.298   9.977  1.8046 -0.8227 -1.6540
  763MOL0     H  709   6.262   7.219  10.107  0.6770  0.4651  1.8104
  763MOL0     H  710   6.547   7.171  10.024 -0.8570 -1.7830  0.7340
  763MOL0     H  711   6.471   7.098  10.159 -4.1091  1.0137  0.2955
  763MOL0     H  712   6.521   7.399  10.131 -0.4652  2.3848  3.0562
  763MOL0     H  713   6.427   7.322  10.259 -2.4040  0.4842 -2.7237
  763MOL0     H  714   6.836   7.273  10.371 -0.2785 -0.5272  3.2171
  763MOL0     H  715   6.217   6.896  10.247  1.4628  0.4112  0.2853
  763MOL0     H  716   5.984   6.863  10.349 -1.2902  2.2747  0.9652
  764MOL0     O  717   6.615   9.921   2.443  0.0005  0.1092 -1.0155
  764MOL0     C  718   6.647   9.990   2.348  0.9912 -0.2091  0.3666
  764MOL0     O  719   6.559  10.059   2.278  0.1576  0.4649  0.9140
  764MOL0     C  720   6.430  10.068   2.319  0.8318 -0.1176  0.4774
  764MOL0     C  721   6.343   9.958   2.345  0.8384  0.3107 -0.0500
  764MOL0     C  722   6.208   9.977   2.376  0.1831  0.4762  0.4782
  764MOL0     C  723   6.152  10.107   2.356 -0.0277 -0.5469  0.6376
  764MOL0     O  724   6.021  10.158   2.371  0.9063 -0.1454 -1.0798
  764MOL0     C  725   5.915  10.089   2.302  0.6741 -0.7248 -0.3131
  764MOL0     C  726   5.844  10.168   2.190  0.1819  1.5179  0.3195
  764MOL0     C  727   5.824  10.309   2.231 -0.4054 -0.0371 -0.6302
  764MOL0     C  728   5.717  10.342   2.336 -0.4253  0.2386 -1.1293
  764MOL0     C  729   5.576  10.299   2.288  0.4281  0.3249 -0.6860
  764MOL0     C  730   5.465  10.374   2.355  0.0589  0.6343 -0.4981
  764MOL0     C  731   5.441  10.507   2.280  0.5272  0.0359 -0.2239
  764MOL0     C  732   5.315  10.572   2.342 -0.1480 -0.1862 -0.7323
  764MOL0     N  733   5.286  10.704   2.279  0.0298 -0.6161 -0.0605
  764MOL0     C  734   5.215  10.797   2.355 -0.1372  0.8844  0.5890
  764MOL0     C  735   5.181  10.893   2.268  0.3726 -0.6681 -0.0038
  764MOL0     C  736   5.104  11.012   2.303 -0.2851 -0.1111  0.4152
  764MOL0     C  737   4.948  10.994   2.336 -0.9567  0.4664  0.0136
  764MOL0     C  738   4.879  10.954   2.215  0.0743  0.6140  0.3039
  764MOL0     C  739   4.729  10.931   2.238  0.1234  0.3576 -0.1372
  764MOL0     O  740   4.707  10.826   2.336 -0.8946 -0.2615  0.0209
  764MOL0     C  741   4.575  10.792   2.369  0.2927  0.1443  0.2655
  764MOL0     C  742   4.568  10.713   2.486 -0.8904 -0.4567  0.6779
  764MOL0     C  743   4.443  10.675   2.535 -0.0539  0.0333 -0.1003
  764MOL0     C  744   4.318  10.724   2.479  0.7008  0.0961  0.0591
  764MOL0     C  745   4.181  10.707   2.546  0.2506 -0.4275  0.3196
  764MOL0     O  746   4.172  10.660   2.674  0.3416 -0.9226 -0.1101
  764MOL0     C  747   4.058  10.637   2.744  0.2951  0.4001  0.5857
  764MOL0     C  748   3.958  10.565   2.679  0.0722  0.6590 -0.7994
  764MOL0     C  749   3.848  10.519   2.758  0.1448 -0.3041 -0.6653
  764MOL0     C  750   3.819  10.571   2.884 -0.7639 -0.1281 -0.8303
  764MOL0     O  751   3.711  10.527   2.954 -0.7967  0.3704 -0.4345
  764MOL0     C  752   3.585  10.572   2.915  0.4147 -0.3536 -0.1607
  764MOL0     C  753   3.482  10.500   2.994  0.1945  0.5223 -0.3324
  764MOL0     C  754   3.336  10.530   2.959  0.6966  1.0863  0.0984
  764MOL0     C  755   3.232  10.477   3.067 -0.8398 -0.0251  0.3804
  764MOL0     C  756   3.086  10.498   3.027  0.0533 -0.1881 -0.0598
  764MOL0     C  757   2.982  10.452   3.139  1.1009  0.4614 -0.5777
  764MOL0     C  758   2.836  10.461   3.100  0.9971  0.4436 -0.2260
  764MOL0     C  759   2.809  10.388   2.966  0.3821 -0.3759  0.1724
  764MOL0    Cl  760   2.894  10.230   2.941 -0.2076 -0.8315  0.0860
  764MOL0     C  761   3.916  10.647   2.945 -0.6273  0.3709 -0.5865
  764MOL0     C  762   4.045  10.677   2.880  0.1827 -0.3600  0.1467
  764MOL0     O  763   4.078  10.732   2.475  0.0252  0.4829 -0.0003
  764MOL0     C  764   4.336  10.789   2.354 -0.1488 -0.0669  0.5338
  764MOL0     C  765   4.458  10.815   2.293 -0.9293 -0.2586  0.1495
  764MOL0     N  766   5.221  10.864   2.143  0.0699  0.1029 -0.0748
  764MOL0     N  767   5.280  10.750   2.149 -0.0037  0.5459 -0.6204
  764MOL0     C  768   6.241  10.216   2.323  0.2381 -0.0418 -0.2747
  764MOL0     C  769   6.378  10.195   2.316 -0.0353  0.1549 -0.1773
  764MOL0     C  770   6.786  10.012   2.307  0.3021 -0.7696  0.7411
  764MOL0     C  771   6.832  10.127   2.232  0.3415 -0.6506 -1.0597
  764MOL0     C  772   6.965  10.134   2.186 -0.5753 -0.1576 -0.0091
  764MOL0     C  773   7.065  10.043   2.224  0.4255  0.6829  0.1959
  764MOL0     O  774   7.190  10.044   2.167 -0.8519  0.8391  0.6249
  764MOL0     C  775   7.299   9.977   2.237  0.5578  0.7486  0.0301
  764MOL0     C  776   7.424  10.026   2.167  0.5939  0.0717 -0.5114
  764MOL0     C  777   7.552   9.997   2.246  0.0480 -0.1460  0.3284
  764MOL0     C  778   7.656  10.086   2.180  0.7036  0.3987  0.2701
  764MOL0     C  779   7.776  10.062   2.266  0.2775 -0.6307 -0.3768
  764MOL0     C  780   7.873  10.046   2.339  0.0863 -0.5911  0.3321
  764MOL0     C  781   7.021   9.945   2.312  0.4526  0.8043  0.1331
  764MOL0     C  782   6.890   9.927   2.349  0.1800 -0.7826 -0.4680
  764MOL0     H  783   6.390   9.860   2.353 -0.5762 -0.4022 -0.0987
  764MOL0     H  784   6.145   9.894   2.407  0.4357 -0.6266 -1.7586
  764MOL0     H  785   5.839  10.071   2.379  0.4487 -0.0799 -0.3830
  764MOL0     H  786   5.964  10.004   2.254  3.9141 -0.4165  2.1070
  764MOL0     H  787   5.748  10.121   2.167  0.4903  1.6412 -1.3236
  764MOL0     H  788   5.897  10.170   2.094 -1.8450  0.8101 -0.8760
  764MOL0     H  789   5.788  10.353   2.138 -3.1159  1.0559  0.8050
  764MOL0     H  790   5.924  10.345   2.255 -0.7240  0.0524  0.6315
  764MOL0     H  791   5.748  10.300   2.433  0.4405 -0.5538 -1.7266
  764MOL0     H  792   5.725  10.450   2.352  2.1600  0.2829 -2.1161
  764MOL0     H  793   5.573  10.192   2.309  0.0167  0.4981  0.1680
  764MOL0     H  794   5.574  10.314   2.180 -2.9609  0.2993 -0.7490
  764MOL0     H  795   5.497  10.383   2.459  1.5191 -0.5745 -0.7912
  764MOL0     H  796   5.369  10.322   2.343  0.7451 -1.0393  0.8169
  764MOL0     H  797   5.530  10.570   2.285  0.7490 -0.0586 -2.0750
  764MOL0     H  798   5.421  10.493   2.173 -2.1645  1.3559 -0.0004
  764MOL0     H  799   5.334  10.584   2.449  2.9946 -2.0409 -0.9583
  764MOL0     H  800   5.236  10.498   2.329  2.2188 -3.3493  1.2902
  764MOL0     H  801   5.194  10.779   2.460 -1.8822  0.4308  0.1870
  764MOL0     H  802   5.108  11.078   2.216  0.4007  1.5904  1.6798
  764MOL0     H  803   5.160  11.062   2.382  0.7903 -0.4806 -0.1035
  764MOL0     H  804   4.909  11.089   2.375 -0.3897  1.5592 -1.9454
  764MOL0     H  805   4.943  10.913   2.409 -1.9664 -1.5061 -2.1108
  764MOL0     H  806   4.888  11.033   2.140 -2.7380  2.9354  2.1679
  764MOL0     H  807   4.916  10.859   2.176  0.3923  0.5289  0.7995
  764MOL0     H  808   4.688  10.901   2.142  3.6318  1.2155 -2.0660
  764MOL0     H  809   4.693  11.027   2.276  1.4437  1.0954 -0.6953
  764MOL0     H  810   4.660  10.682   2.534 -1.5506 -1.7100  1.1666
  764MOL0     H  811   4.432  10.631   2.634  1.1776 -0.1861 -0.0426
  764MOL0     H  812   3.970  10.530   2.577  1.9031 -0.1542 -0.3606
  764MOL0     H  813   3.780  10.441   2.724  0.6207 -2.1404  2.3059
  764MOL0     H  814   3.565  10.563   2.808 -1.6593  2.6187 -0.1668
  764MOL0     H  815   3.563  10.677   2.936 -0.9104 -0.9253  1.5640
  764MOL0     H  816   3.496  10.519   3.101  3.2272 -1.1385 -0.3344
  764MOL0     H  817   3.488  10.392   2.977 -4.1887 -0.2019  1.2864
  764MOL0     H  818   3.320  10.472   2.867 -3.2944 -2.2105  2.5282
  764MOL0     H  819   3.304  10.634   2.955 -2.8914  0.1471  1.0490
  764MOL0     H  820   3.259  10.373   3.086  2.6222  1.1277  2.4718
  764MOL0     H  821   3.256  10.528   3.160  0.0006 -2.2473  1.4491
  764MOL0     H  822   3.054  10.441   2.939 -0.9739  3.7108 -2.4727
  764MOL0     H  823   3.077  10.606   3.015  1.1584 -0.1447 -0.6904
  764MOL0     H  824   2.990  10.489   3.241  1.3551  1.2619 -0.8828
  764MOL0     H  825   3.015  10.349   3.157  1.1908  0.6790  0.5554
  764MOL0     H  826   2.771  10.414   3.174  0.3661 -0.7223 -1.4729
  764MOL0     H  827   2.805  10.565   3.087 -1.4437 -0.0552  1.0925
  764MOL0     H  828   2.821  10.461   2.886 -1.8771  1.6009  1.4632
  764MOL0     H  829   2.703  10.362   2.952  0.5566 -0.5614 -0.8622
  764MOL0     H  830   3.905  10.685   3.046 -3.2396 -1.9735  0.1292
  764MOL0     H  831   4.119  10.733   2.936 -0.1087 -1.4239  1.6416
  764MOL0     H  832   4.247  10.824   2.304 -0.1551 -1.0016 -0.1269
  764MOL0     H  833   4.455  10.858   2.193  1.4471  0.6922  0.4006
  764MOL0     H  834   6.213  10.319   2.306  0.2151  0.2468  1.3000
  764MOL0     H  835   6.454  10.271   2.301 -1.4683  1.3005 -2.2221
  764MOL0     H  836   6.760  10.207   2.216  1.1703  0.2315 -0.5222
  764MOL0     H  837   6.990  10.208   2.111  2.0571 -0.9493 -0.0269
  764MOL0     H  838   7.284   9.869   2.221  0.3969  0.9321 -1.1682
  764MOL0     H  839   7.306   9.995   2.344  0.4288 -1.7753  0.5371
  764MOL0     H  840   7.420   9.985   2.065 -1.3730 -0.3465 -0.2942
  764MOL0     H  841   7.415  10.134   2.152  4.4546  1.1513  3.0385
  764MOL0     H  842   7.584   9.894   2.232  0.6284 -0.0141  0.6599
  764MOL0     H  843   7.543  10.027   2.351  1.2733  0.2476  0.3297
  764MOL0     H  844   7.690  10.045   2.084  3.5398  1.8769  0.5512
  764MOL0     H  845   7.630  10.191   2.165  0.8337  0.5583  1.1196
  764MOL0     H  846   7.964  10.028   2.393  0.5179  0.2280 -0.1027
  764MOL0     H  847   7.090   9.866   2.342  0.7728  1.3449  0.8549
  764MOL0     H  848   6.874   9.842   2.415 -0.7256 -0.1193  0.2091
  765MOL0     O  849   2.446  10.788  10.090 -0.2013  0.1830 -0.6113
  765MOL0     C  850   2.477  10.673  10.114  0.3937  0.1425  0.1370
  765MOL0     O  851   2.392  10.569  10.108  0.1894  0.1584  0.8060
  765MOL0     C  852   2.273  10.586  10.062 -0.7485  0.1025 -0.1871
  765MOL0     C  853   2.166  10.561  10.150  0.9115  0.9942  0.1821
  765MOL0     C  854   2.038  10.552  10.105  0.5020  0.1108 -0.3740
  765MOL0     C  855   2.004  10.588   9.973 -0.2456  0.3525 -0.1339
  765MOL0     O  856   1.874  10.579   9.932  0.1078  0.6874 -0.2342
  765MOL0     C  857   1.830  10.639   9.819 -0.0597 -0.0907 -0.0245
  765MOL0     C  858   1.676  10.648   9.809  0.4848  0.5236 -0.6867
  765MOL0     C  859   1.619  10.734   9.689 -0.5997  0.0925 -0.1534
  765MOL0     C  860   1.506  10.829   9.735 -0.2641  1.1175  0.6996
  765MOL0     C  861   1.448  10.890   9.604  0.5218  0.6573 -0.0933
  765MOL0     C  862   1.326  10.978   9.642  0.7027 -0.2226  0.0267
  765MOL0     C  863   1.263  11.022   9.505  0.8930  0.3939 -0.1739
  765MOL0     C  864   1.148  11.124   9.525 -0.2497 -0.2585  0.5426
  765MOL0     N  865   1.053  11.113   9.417  0.2291 -0.2211 -0.1875
  765MOL0     C  866   0.932  11.041   9.425  0.4659 -0.0012  0.2046
  765MOL0     C  867   0.850  11.087   9.335 -0.6494  0.4377  0.3203
  765MOL0     C  868   0.708  11.051   9.315  0.0789 -0.1910  0.7294
  765MOL0     C  869   0.701  10.928   9.221  0.4666  0.5700  0.1058
  765MOL0     C  870   0.565  10.859   9.192 -0.1542  0.2439  0.1081
  765MOL0     C  871   0.506  10.808   9.322  0.9658 -0.4102  0.3108
  765MOL0     O  872   0.466  10.912   9.411  0.0958 -0.0136 -0.3124
  765MOL0     C  873   0.399  10.887   9.540 -0.7571 -1.1828  0.1305
  765MOL0     C  874   0.353  10.997   9.618  0.6111 -0.0779 -0.4103
  765MOL0     C  875   0.280  10.979   9.726 -0.3735 -0.1026 -0.3539
  765MOL0     C  876   0.211  10.863   9.763 -0.6775  0.1351  0.2847
  765MOL0     C  877   0.128  10.858   9.881 -0.2323 -0.4501 -0.0098
  765MOL0     O  878   0.054  10.973   9.901  0.1378  0.6518 -0.1218
  765MOL0     C  879  -0.020  10.984  10.019 -0.0880 -0.3973  0.0610
  765MOL0     C  880  -0.006  11.095  10.104  0.0038 -0.7228  0.0755
  765MOL0     C  881  -0.092  11.113  10.216  0.0294 -0.4894  0.2131
  765MOL0     C  882  -0.201  11.023  10.241 -0.9721  0.2098  1.1985
  765MOL0     O  883  -0.299  11.036  10.331 -0.2719  0.6541  0.1562
  765MOL0     C  884  -0.297  11.157  10.417 -0.5355  0.1216 -0.0111
  765MOL0     C  885  -0.439  11.159  10.475 -0.5257 -0.8016 -0.8031
  765MOL0     C  886  -0.539  11.218  10.370 -0.8160  0.0292 -0.0485
  765MOL0     C  887  -0.683  11.188  10.384  0.0588  0.0581 -0.5014
  765MOL0     C  888  -0.717  11.042  10.406  0.3779  0.0025 -0.4930
  765MOL0     C  889  -0.870  11.007  10.428  0.0197  0.3108 -0.5974
  765MOL0     C  890  -0.894  10.883  10.517 -0.4298  0.3566  0.7801
  765MOL0     C  891  -0.816  10.763  10.464 -0.2380 -0.4184 -0.1711
  765MOL0    Cl  892  -0.854  10.705  10.291  0.1012  0.5057  0.1564
  765MOL0     C  893  -0.217  10.923  10.142 -0.1849  0.7161 -1.0911
  765MOL0     C  894  -0.132  10.901  10.041  0.0643  0.8465  0.4695
  765MOL0     O  895   0.118  10.742   9.929  0.3689 -0.9510 -0.3436
  765MOL0     C  896   0.248  10.752   9.679 -0.5316  0.5173 -0.9220
  765MOL0     C  897   0.346  10.768   9.577  0.0532  0.5729 -0.3047
  765MOL0     N  898   0.916  11.188   9.269  0.9304 -0.4888  0.1978
  765MOL0     N  899   1.032  11.195   9.312  0.3738 -0.3748  0.2067
  765MOL0     C  900   2.112  10.615   9.883  0.2312  0.1471  0.1547
  765MOL0     C  901   2.247  10.609   9.924  1.4010 -0.1233 -0.4775
  765MOL0     C  902   2.612  10.642  10.159 -0.0751 -0.4823 -0.2854
  765MOL0     C  903   2.664  10.509  10.164 -0.4287  0.0280 -0.4857
  765MOL0     C  904   2.790  10.486  10.234  0.3254 -0.9194 -0.0190
  765MOL0     C  905   2.870  10.588  10.286 -0.4740  0.7854  0.3420
  765MOL0     O  906   2.982  10.542  10.352 -0.4845 -0.5138  0.1631
  765MOL0     C  907   3.093  10.632  10.381  0.7220 -0.7478 -0.0417
  765MOL0     C  908   3.192  10.553  10.465 -0.8379  0.4711 -0.0286
  765MOL0     C  909   3.238  10.422  10.392  0.6800  0.8845  0.4890
  765MOL0     C  910   3.365  10.360  10.444  0.0769 -0.1574  0.3328
  765MOL0     C  911   3.341  10.303  10.576 -0.2956  0.2987 -0.3991
  765MOL0     C  912   3.311  10.263  10.685  0.0969 -0.0822  0.3676
  765MOL0     C  913   2.822  10.711  10.259  0.1553  0.0848 -0.8389
  765MOL0     C  914   2.694  10.744  10.205  0.2953  0.2261 -0.6256
  765MOL0     H  915   2.196  10.528  10.249  1.7074  1.1707  0.0063
  765MOL0     H  916   1.964  10.525  10.179 -1.7582  1.6506 -1.9493
  765MOL0     H  917   1.870  10.610   9.722 -0.3391  0.9013 -0.4585
  765MOL0     H  918   1.861  10.742   9.838 -0.7028 -0.0468  0.8481
  765MOL0     H  919   1.644  10.697   9.902 -0.1916  1.8306 -1.5838
  765MOL0     H  920   1.630  10.548   9.806 -1.7501  1.5061 -1.3659
  765MOL0     H  921   1.586  10.654   9.622 -0.3231 -2.4860  2.5633
  765MOL0     H  922   1.696  10.791   9.636 -0.4599 -1.0788 -1.2821
  765MOL0     H  923   1.429  10.770   9.787  2.4330 -0.2018  3.5737
  765MOL0     H  924   1.545  10.904   9.805  3.1019  0.7575 -0.6024
  765MOL0     H  925   1.410  10.815   9.534 -0.0831  0.0099  0.9125
  765MOL0     H  926   1.520  10.956   9.553  0.4823 -0.2201 -1.3219
  765MOL0     H  927   1.358  11.064   9.702  2.2865  0.5120 -1.7839
  765MOL0     H  928   1.260  10.912   9.699  1.5060  1.3131  2.9114
  765MOL0     H  929   1.341  11.067   9.444 -0.3354  0.1740 -1.9791
  765MOL0     H  930   1.220  10.932   9.460 -0.9549  1.0273  0.2462
  765MOL0     H  931   1.174  11.229   9.536  1.9391 -0.6773 -0.2285
  765MOL0     H  932   1.092  11.093   9.614  1.1484  2.2447  2.4106
  765MOL0     H  933   0.907  10.956   9.487 -0.2436 -0.6169 -0.8915
  765MOL0     H  934   0.648  11.131   9.271 -1.4176 -1.7365 -0.1098
  765MOL0     H  935   0.659  11.038   9.412  0.5115 -0.4443  0.9184
  765MOL0     H  936   0.781  10.859   9.251  1.1204  0.9389 -0.7507
  765MOL0     H  937   0.739  10.957   9.123 -2.6353  2.2710 -0.7211
  765MOL0     H  938   0.495  10.935   9.157  0.6671  0.6980 -0.5727
  765MOL0     H  939   0.571  10.769   9.131  1.4986  0.6422 -0.3602
  765MOL0     H  940   0.576  10.743   9.376  0.2034 -0.9328  0.6784
  765MOL0     H  941   0.412  10.759   9.295  1.5116  0.0330 -2.7583
  765MOL0     H  942   0.383  11.096   9.586 -2.8095  1.5217  0.7620
  765MOL0     H  943   0.265  11.068   9.787  0.0560  1.2343 -2.1129
  765MOL0     H  944   0.063  11.178  10.091 -0.0746 -0.8789 -1.4567
  765MOL0     H  945  -0.092  11.204  10.275 -4.3432  0.6692 -1.2382
  765MOL0     H  946  -0.282  11.248  10.359 -1.9169  1.1858  1.2215
  765MOL0     H  947  -0.218  11.148  10.492 -0.4700  0.7727  0.0000
  765MOL0     H  948  -0.437  11.220  10.565  1.1303  0.2883 -1.5409
  765MOL0     H  949  -0.462  11.059  10.513  1.4250 -1.3595 -1.0072
  765MOL0     H  950  -0.510  11.182  10.270 -1.3379 -0.7588  0.0691
  765MOL0     H  951  -0.526  11.326  10.360  0.6443  0.1644  2.4493
  765MOL0     H  952  -0.724  11.249  10.465  3.5225 -1.1918  2.4743
  765MOL0     H  953  -0.721  11.215  10.285  1.6911 -0.6226 -1.3643
  765MOL0     H  954  -0.673  11.010  10.500  0.0808  1.8220  0.3049
  765MOL0     H  955  -0.671  10.985  10.325  0.8026  0.5986 -0.6842
  765MOL0     H  956  -0.920  11.005  10.331 -1.7648  1.5752  0.2456
  765MOL0     H  957  -0.914  11.090  10.484 -0.1023  1.6991 -2.6256
  765MOL0     H  958  -0.848  10.898  10.615  1.4263 -2.2113  0.4030
  765MOL0     H  959  -1.003  10.892  10.524 -0.9799  1.4192 -4.5219
  765MOL0     H  960  -0.835  10.669  10.517 -0.6534 -0.9996 -1.3136
  765MOL0     H  961  -0.711  10.789  10.475 -0.3028 -0.4709  0.6019
  765MOL0     H  962  -0.307  10.863  10.143 -0.8477  1.5647 -3.3646
  765MOL0     H  963  -0.152  10.812   9.982  0.7189  1.4887 -0.7487
  765MOL0     H  964   0.219  10.648   9.688  3.7061 -0.8454 -0.9109
  765MOL0     H  965   0.384  10.676   9.534 -0.8993  1.0120 -2.1587
  765MOL0     H  966   2.102  10.642   9.779  1.2073 -0.2806 -0.0574
  765MOL0     H  967   2.330  10.613   9.855  0.1964 -1.2418 -2.0802
  765MOL0     H  968   2.611  10.424  10.123  1.0590 -0.1038 -2.2367
  765MOL0     H  969   2.829  10.386  10.241  0.0123 -1.2188 -2.0249
  765MOL0     H  970   3.072  10.722  10.439  1.6524  0.0845 -0.9637
  765MOL0     H  971   3.146  10.661  10.290 -0.5129 -0.0329 -0.5730
  765MOL0     H  972   3.283  10.608  10.488  0.9703 -2.9849  1.9487
  765MOL0     H  973   3.145  10.530  10.562  1.5850  0.1124  1.1450
  765MOL0     H  974   3.265  10.447  10.289  3.8273 -0.3523  0.8989
  765MOL0     H  975   3.154  10.353  10.388  1.4909 -0.0770 -1.2955
  765MOL0     H  976   3.406  10.294  10.368 -2.5000  0.3607 -1.6552
  765MOL0     H  977   3.440  10.439  10.454  0.4531 -0.3613 -0.7755
  765MOL0     H  978   3.284  10.226  10.782 -0.1571  2.3583  1.3100
  765MOL0     H  979   2.880  10.797  10.292 -1.6577  0.6705  1.0133
  765MOL0     H  980   2.674  10.851  10.196 -0.1344  0.1236 -0.9254
  766MOL0     O  981   5.507  11.215   9.923  0.6873 -0.4810  0.3579
  766MOL0     C  982   5.533  11.243  10.039 -0.1664 -0.3393 -0.3443
  766MOL0     O  983   5.440  11.263  10.144  0.2130 -0.3451 -0.2086
  766MOL0     C  984   5.309  11.231  10.134 -0.7438 -1.2626  0.5671
  766MOL0     C  985   5.213  11.304  10.213 -0.2943 -0.0597  0.4724
  766MOL0     C  986   5.083  11.265  10.225 -0.0311 -0.0063  0.2073
  766MOL0     C  987   5.036  11.149  10.159  0.0481 -0.3869 -0.1864
  766MOL0     O  988   4.903  11.102  10.149 -0.5151 -0.7243 -0.2748
  766MOL0     C  989   4.829  11.103  10.271 -0.3741  0.2666 -0.1410
  766MOL0     C  990   4.698  11.030  10.248 -0.2633 -0.0549  0.4500
  766MOL0     C  991   4.615  11.017  10.371  0.5912  0.3132  0.2619
  766MOL0     C  992   4.486  10.947  10.341  0.3501  0.0121  0.7955
  766MOL0     C  993   4.384  10.944  10.453 -0.5763 -0.5781  0.2434
  766MOL0     C  994   4.271  10.847  10.426 -0.1778 -0.2592 -0.8334
  766MOL0     C  995   4.142  10.862  10.505 -0.1006 -0.0680 -0.7394
  766MOL0     C  996   4.174  10.827  10.651 -1.0575  0.1869 -0.0518
  766MOL0     N  997   4.062  10.853  10.737 -0.1566  1.2614  0.3068
  766MOL0     C  998   3.988  10.966  10.749  0.5433 -0.1541  0.2787
  766MOL0     C  999   3.874  10.926  10.810 -0.4781 -0.2191 -0.9800
  766MOL0     C 1000   3.751  11.007  10.835 -1.1378 -0.9825  0.1363
  766MOL0     C 1001   3.748  11.073  10.968  0.9196  0.9489  1.1777
  766MOL0     C 1002   3.635  11.172  10.982 -0.3564  0.5778  0.2658
  766MOL0     C 1003   3.501  11.113  10.946  0.3353 -0.3487  0.5827
  766MOL0     O 1004   3.409  11.213  10.997  0.2735 -0.6806 -0.3013
  766MOL0     C 1005   3.274  11.202  10.985 -0.0505  0.8295  0.9930
  766MOL0     C 1006   3.212  11.084  10.972 -0.0229 -0.3553  0.6585
  766MOL0     C 1007   3.074  11.069  10.957  0.7351 -0.1439  0.6324
  766MOL0     C 1008   2.994  11.183  10.941  0.4514 -0.5790  0.7106
  766MOL0     C 1009   2.847  11.190  10.912  0.6054 -0.0703 -0.3766
  766MOL0     O 1010   2.787  11.303  10.854 -0.1958  0.2900  0.3531
  766MOL0     C 1011   2.655  11.301  10.824  0.8342 -0.5371 -0.5981
  766MOL0     C 1012   2.564  11.198  10.802  0.0635 -0.2460  0.5286
  766MOL0     C 1013   2.433  11.224  10.759 -0.2309 -0.0756 -0.3214
  766MOL0     C 1014   2.376  11.355  10.765  0.3398 -0.7255  0.8470
  766MOL0     O 1015   2.240  11.386  10.737 -0.1448 -0.1798  0.6250
  766MOL0     C 1016   2.202  11.335  10.610  0.3526 -0.6552  0.6510
  766MOL0     C 1017   2.065  11.397  10.568 -0.5063 -0.8262 -0.0813
  766MOL0     C 1018   2.040  11.400  10.419 -0.9555  0.8072 -0.1288
  766MOL0     C 1019   1.913  11.460  10.378  0.0658  0.4891  0.3137
  766MOL0     C 1020   1.887  11.471  10.225  0.7424  0.3890 -0.6262
  766MOL0     C 1021   1.753  11.557  10.216 -0.0954 -0.1105 -0.3106
  766MOL0     C 1022   1.725  11.571  10.060 -0.7987  0.7998 -0.0203
  766MOL0     C 1023   1.613  11.666  10.024 -0.2037  0.2988 -0.7566
  766MOL0    Cl 1024   1.470  11.623  10.125  0.1398 -0.1050  0.0032
  766MOL0     C 1025   2.466  11.459  10.789  0.5631 -0.2459  0.2016
  766MOL0     C 1026   2.607  11.430  10.802 -0.3094 -0.4471 -0.5267
  766MOL0     O 1027   2.781  11.089  10.946  0.2631  0.3948 -0.0033
  766MOL0     C 1028   3.057  11.308  10.975  0.0943  0.7759 -0.3066
  766MOL0     C 1029   3.192  11.317  10.980  0.3094 -1.1078  0.5658
  766MOL0     N 1030   3.884  10.789  10.831  0.3225 -0.7305  1.2131
  766MOL0     N 1031   3.993  10.740  10.788 -0.4492  0.1246  0.1553
  766MOL0     C 1032   5.127  11.083  10.083 -0.7971  0.1628 -0.1701
  766MOL0     C 1033   5.258  11.130  10.056 -0.5621  0.5184  0.9793
  766MOL0     C 1034   5.669  11.256  10.080  0.0814  0.0403  0.0903
  766MOL0     C 1035   5.711  11.304  10.214 -0.9172  0.2805 -0.6008
  766MOL0     C 1036   5.844  11.300  10.266  0.4248 -0.1187 -0.5760
  766MOL0     C 1037   5.947  11.277  10.171 -0.9880 -0.7797 -0.1317
  766MOL0     O 1038   6.072  11.301  10.215 -0.1775  0.2863 -0.2306
  766MOL0     C 1039   6.181  11.279  10.121  0.0087  0.5873 -0.5549
  766MOL0     C 1040   6.318  11.326  10.167 -0.9685 -0.7542 -0.1488
  766MOL0     C 1041   6.325  11.484  10.167  1.1161  0.3764 -0.1885
  766MOL0     C 1042   6.450  11.528  10.237  0.6499 -0.2152 -0.3554
  766MOL0     C 1043   6.561  11.540  10.147  1.0822  0.5093  0.3159
  766MOL0     C 1044   6.651  11.550  10.062 -0.2620 -0.2989 -0.3846
  766MOL0     C 1045   5.906  11.223  10.045 -1.1776  0.4158  0.8543
  766MOL0     C 1046   5.777  11.204  10.006  0.6118  0.1039 -0.1834
  766MOL0     H 1047   5.263  11.388  10.260  1.4853 -1.2298  0.7833
  766MOL0     H 1048   5.028  11.332  10.291  2.8449  2.3239  0.4580
  766MOL0     H 1049   4.797  11.206  10.290 -1.7305  0.1696 -1.6547
  766MOL0     H 1050   4.889  11.070  10.355  1.7366 -0.0958 -1.7113
  766MOL0     H 1051   4.715  10.929  10.208 -3.6354  0.3362 -2.5081
  766MOL0     H 1052   4.640  11.079  10.169  2.6081  2.9071 -0.0376
  766MOL0     H 1053   4.593  11.112  10.421 -0.4437  0.2763 -0.0956
  766MOL0     H 1054   4.673  10.960  10.444  2.9587 -0.6489 -2.1974
  766MOL0     H 1055   4.439  11.009  10.264  2.6576  0.4070 -0.3837
  766MOL0     H 1056   4.502  10.842  10.316 -3.1435 -1.1860  2.8823
  766MOL0     H 1057   4.345  11.043  10.475  3.1681  0.6595  2.2094
  766MOL0     H 1058   4.432  10.904  10.543  0.8432 -1.5902 -0.8922
  766MOL0     H 1059   4.302  10.743  10.418  0.5432 -0.4399  2.7036
  766MOL0     H 1060   4.229  10.875  10.329 -2.1241 -1.1878 -0.2993
  766MOL0     H 1061   4.087  10.956  10.496 -0.1383 -0.0153 -0.0106
  766MOL0     H 1062   4.066  10.787  10.479 -0.8842  0.2882  0.4545
  766MOL0     H 1063   4.258  10.890  10.681  1.9474 -1.1428 -4.6117
  766MOL0     H 1064   4.215  10.725  10.656  1.7494  1.1190 -1.8439
  766MOL0     H 1065   4.004  11.070  10.723  0.0770  0.4395  2.1815
  766MOL0     H 1066   3.672  10.932  10.829 -1.4247 -0.6534 -0.3649
  766MOL0     H 1067   3.737  11.077  10.751  0.1401 -1.2656 -0.3312
  766MOL0     H 1068   3.848  11.114  10.984  1.3314  1.0469 -1.3134
  766MOL0     H 1069   3.729  10.993  11.041 -1.2232  0.1619 -0.1275
  766MOL0     H 1070   3.635  11.205  11.086 -1.2989 -1.7045  1.0624
  766MOL0     H 1071   3.669  11.259  10.925  1.0718 -0.1186  0.0101
  766MOL0     H 1072   3.480  11.009  10.973 -1.8921  0.0812  0.7083
  766MOL0     H 1073   3.491  11.107  10.838  2.3012 -2.0457  0.4409
  766MOL0     H 1074   3.266  10.990  10.965 -2.7296 -2.2130  2.7541
  766MOL0     H 1075   3.028  10.970  10.950 -0.5223  0.2694  2.3101
  766MOL0     H 1076   2.594  11.093  10.805 -1.8163 -0.7886  2.0954
  766MOL0     H 1077   2.372  11.138  10.733 -1.2588  0.9960 -1.6963
  766MOL0     H 1078   2.192  11.226  10.615 -1.6722 -0.5069  0.8847
  766MOL0     H 1079   2.281  11.354  10.537  1.1440  1.1362  1.9013
  766MOL0     H 1080   2.070  11.500  10.605  2.8455 -0.8242 -0.2982
  766MOL0     H 1081   1.987  11.342  10.622  0.3093 -0.0724  1.9606
  766MOL0     H 1082   2.056  11.297  10.385  1.1238  1.0323  0.0884
  766MOL0     H 1083   2.121  11.454  10.369 -0.6020  0.5078  0.1222
  766MOL0     H 1084   1.831  11.399  10.416 -0.6106  0.1365 -1.5868
  766MOL0     H 1085   1.905  11.561  10.421  1.0509  1.0507 -0.7590
  766MOL0     H 1086   1.873  11.375  10.175 -1.2553 -0.3094  1.1186
  766MOL0     H 1087   1.971  11.526  10.181  0.7587 -0.7316 -2.0820
  766MOL0     H 1088   1.755  11.659  10.257 -1.3491 -0.4951  0.7665
  766MOL0     H 1089   1.679  11.499  10.272 -0.0822  0.4872  0.3453
  766MOL0     H 1090   1.814  11.592  10.000 -1.8076 -2.4196 -3.0363
  766MOL0     H 1091   1.693  11.473  10.024  3.1615 -0.3369 -0.9564
  766MOL0     H 1092   1.590  11.659   9.917 -0.0911 -2.2844 -0.6601
  766MOL0     H 1093   1.636  11.769  10.053 -2.0505  0.3421  0.6871
  766MOL0     H 1094   2.430  11.562  10.783  0.1901 -0.4359 -4.5467
  766MOL0     H 1095   2.683  11.503  10.826 -3.0189  2.0115  1.3735
  766MOL0     H 1096   2.994  11.395  10.984  1.1688  1.7296 -1.5470
  766MOL0     H 1097   3.233  11.414  11.006  0.3688 -1.9495  4.1507
  766MOL0     H 1098   5.087  11.003  10.021  2.2670 -1.6747  0.0200
  766MOL0     H 1099   5.322  11.066   9.996 -1.8157  1.2788 -1.2828
  766MOL0     H 1100   5.632  11.339  10.280 -1.7073  0.4258 -1.6023
  766MOL0     H 1101   5.872  11.337  10.364  0.0489 -2.4438  0.4593
  766MOL0     H 1102   6.155  11.323  10.024  0.6882 -0.6513 -1.3291
  766MOL0     H 1103   6.191  11.173  10.097  3.9478  0.2099  1.8976
  766MOL0     H 1104   6.320  11.296  10.272 -1.9028  1.1402  0.4585
  766MOL0     H 1105   6.392  11.275  10.105  0.3366  0.6777  0.1478
  766MOL0     H 1106   6.242  11.515  10.231  1.2816  0.9407 -0.2458
  766MOL0     H 1107   6.318  11.519  10.063  4.3878 -2.3525 -1.5146
  766MOL0     H 1108   6.425  11.621  10.288 -4.6646 -1.6826  0.3636
  766MOL0     H 1109   6.474  11.452  10.312  1.0090 -0.3695 -0.6241
  766MOL0     H 1110   6.723  11.556   9.983 -0.7240  0.6815 -0.7447
  766MOL0     H 1111   5.978  11.173   9.980 -3.1155 -0.0293 -1.0752
  766MOL0     H 1112   5.751  11.161   9.910  3.4400  1.8968 -1.9364
  767MOL0     O 1113   6.694   7.168  11.154  0.1601 -0.2976  0.4121
  767MOL0     C 1114   6.727   7.130  11.041  0.7261 -0.1998 -0.0361
  767MOL0     O 1115   6.661   7.027  10.968  0.6389 -0.2314 -0.3533
  767MOL0     C 1116   6.538   6.984  11.033  0.0586  0.3231  0.8680
  767MOL0     C 1117   6.417   6.995  10.967  0.0958 -0.0654  0.4503
  767MOL0     C 1118   6.304   6.937  11.026  0.8817  0.1907  0.8229
  767MOL0     C 1119   6.308   6.861  11.148 -0.4423  0.0503  0.2682
  767MOL0     O 1120   6.201   6.791  11.201 -0.9487 -0.3861 -0.0286
  767MOL0     C 1121   6.085   6.778  11.126  0.4821  0.5023 -0.0102
  767MOL0     C 1122   5.994   6.901  11.158  0.6953 -0.5659  0.2639
  767MOL0     C 1123   5.881   6.922  11.051 -0.5827  0.4383  0.3605
  767MOL0     C 1124   5.794   6.789  11.046 -0.3347  0.2603 -0.0082
  767MOL0     C 1125   5.724   6.753  11.186  0.1103 -0.0923  0.7145
  767MOL0     C 1126   5.627   6.642  11.176  0.4991  0.8347  0.1469
  767MOL0     C 1127   5.591   6.592  11.319 -0.6473  0.2615  0.1364
  767MOL0     C 1128   5.484   6.489  11.303 -0.0524 -0.1629  0.4213
  767MOL0     N 1129   5.416   6.492  11.432 -0.0142 -0.3778 -0.8854
  767MOL0     C 1130   5.310   6.574  11.463 -0.0368  0.0828 -0.3946
  767MOL0     C 1131   5.278   6.536  11.586 -0.4421 -0.3566 -0.5834
  767MOL0     C 1132   5.167   6.592  11.674  0.7402  0.4926 -0.5058
  767MOL0     C 1133   5.022   6.553  11.645  0.0532 -0.4981 -0.2680
  767MOL0     C 1134   5.006   6.401  11.647  0.2516 -0.3743 -0.2791
  767MOL0     C 1135   5.056   6.322  11.770  0.3415 -0.0917  1.1532
  767MOL0     O 1136   4.988   6.347  11.892  0.4429  0.4460  0.4345
  767MOL0     C 1137   4.851   6.328  11.905 -0.6790  0.8544 -0.4916
  767MOL0     C 1138   4.790   6.402  12.013  0.2593 -0.4960  0.3020
  767MOL0     C 1139   4.664   6.366  12.046  0.1351 -0.3495  0.2628
  767MOL0     C 1140   4.590   6.266  11.987 -0.0497  1.0031 -0.8850
  767MOL0     C 1141   4.446   6.240  12.027  0.6411 -0.2271  0.4691
  767MOL0     O 1142   4.369   6.156  11.946 -0.3435 -0.1844  0.2965
  767MOL0     C 1143   4.244   6.119  11.992 -0.2165 -0.1401  1.2105
  767MOL0     C 1144   4.135   6.207  11.972 -0.2050 -0.6784  0.1958
  767MOL0     C 1145   4.011   6.189  12.031 -0.4399  0.0940  0.6026
  767MOL0     C 1146   4.001   6.080  12.121  1.0514 -0.1117  0.0546
  767MOL0     O 1147   3.876   6.057  12.186 -0.4058  0.1789  0.0857
  767MOL0     C 1148   3.757   6.091  12.113  0.6528  0.2888 -1.0690
  767MOL0     C 1149   3.622   6.051  12.178  0.0444  0.2903 -0.5553
  767MOL0     C 1150   3.603   6.144  12.300 -0.8740 -0.0939  0.4121
  767MOL0     C 1151   3.494   6.102  12.396 -0.2275  0.2483  0.1353
  767MOL0     C 1152   3.351   6.167  12.365 -1.0172 -0.1706 -0.0003
  767MOL0     C 1153   3.235   6.128  12.454 -0.2427 -0.6454  0.8099
  767MOL0     C 1154   3.101   6.140  12.375  0.7181  0.6520  0.8935
  767MOL0     C 1155   2.984   6.104  12.459 -0.0649  0.1170 -0.2616
  767MOL0    Cl 1156   2.839   6.142  12.368 -0.0472  0.1222 -0.0195
  767MOL0     C 1157   4.107   5.981  12.129  0.1149 -0.0363  0.2413
  767MOL0     C 1158   4.228   6.001  12.059  0.0681 -0.6188  0.4989
  767MOL0     O 1159   4.404   6.286  12.133 -0.0425  0.2384  0.0555
  767MOL0     C 1160   4.650   6.199  11.884 -0.8821  0.7267  0.0984
  767MOL0     C 1161   4.782   6.223  11.847  0.3298 -0.4592 -0.3821
  767MOL0     N 1162   5.365   6.442  11.632  0.6407  0.2929 -0.1087
  767MOL0     N 1163   5.442   6.405  11.536  0.3055 -0.4599  0.4393
  767MOL0     C 1164   6.433   6.855  11.214 -0.9284 -0.5602  0.0015
  767MOL0     C 1165   6.544   6.921  11.158 -0.7253 -0.0463  0.4619
  767MOL0     C 1166   6.871   7.169  10.996 -0.4524 -0.4719  0.3411
  767MOL0     C 1167   6.938   7.095  10.907 -1.1076 -0.4625 -0.0142
  767MOL0     C 1168   7.065   7.118  10.863 -0.2253  0.3120 -0.0869
  767MOL0     C 1169   7.147   7.224  10.902 -0.3891 -0.5688 -1.0228
  767MOL0     O 1170   7.273   7.241  10.864 -0.0277  0.0954  0.1951
  767MOL0     C 1171   7.339   7.353  10.919 -0.3097  0.3878  0.0664
  767MOL0     C 1172   7.485   7.363  10.860  0.2755 -0.2058  0.1440
  767MOL0     C 1173   7.490   7.387  10.704  0.7139  0.6266 -0.2044
  767MOL0     C 1174   7.569   7.275  10.624 -0.3093  0.3087 -0.2027
  767MOL0     C 1175   7.713   7.305  10.640  0.5006  0.2265 -0.1821
  767MOL0     C 1176   7.825   7.338  10.658 -1.4036 -0.5530  0.1400
  767MOL0     C 1177   7.079   7.305  10.996  0.3844 -0.6627 -0.4618
  767MOL0     C 1178   6.947   7.277  11.044 -0.3314 -0.0917  1.1431
  767MOL0     H 1179   6.422   7.032  10.865 -0.9628 -0.6267  0.1763
  767MOL0     H 1180   6.211   6.947  10.970  2.3475 -0.7462 -1.9909
  767MOL0     H 1181   6.041   6.682  11.156  0.1196  0.4296 -0.7491
  767MOL0     H 1182   6.111   6.765  11.021  0.9249 -0.9045  0.2504
  767MOL0     H 1183   6.049   6.993  11.178  0.7705 -0.4710 -0.3821
  767MOL0     H 1184   5.958   6.890  11.261  0.6941  1.8649  0.5743
  767MOL0     H 1185   5.932   6.936  10.956 -2.4797  2.7853 -0.4135
  767MOL0     H 1186   5.823   7.011  11.078 -0.6943 -0.1968  2.4192
  767MOL0     H 1187   5.720   6.801  10.966 -0.1185  0.7133 -0.1409
  767MOL0     H 1188   5.863   6.709  11.016  0.1341  0.4675  0.4879
  767MOL0     H 1189   5.684   6.849  11.219  0.0049  1.7390 -3.9532
  767MOL0     H 1190   5.804   6.724  11.254  0.8963  0.9796  0.2749
  767MOL0     H 1191   5.671   6.566  11.110 -1.1928 -1.6857  1.7804
  767MOL0     H 1192   5.535   6.677  11.129 -1.0625 -0.6173  1.9638
  767MOL0     H 1193   5.677   6.539  11.363 -1.1264 -0.8016 -0.1658
  767MOL0     H 1194   5.570   6.680  11.380 -1.8166  1.8615 -2.4409
  767MOL0     H 1195   5.527   6.391  11.280  1.6999  0.4539  0.9299
  767MOL0     H 1196   5.418   6.521  11.221  0.7577 -1.2976 -0.7190
  767MOL0     H 1197   5.254   6.636  11.394 -1.6729 -2.0458 -1.0875
  767MOL0     H 1198   5.158   6.700  11.663 -1.6287  0.3678 -0.2307
  767MOL0     H 1199   5.194   6.561  11.776 -1.5644 -0.4210 -0.1152
  767MOL0     H 1200   4.992   6.578  11.543 -2.1537 -0.9982  0.2068
  767MOL0     H 1201   4.958   6.605  11.717 -1.0892  1.0001 -2.2914
  767MOL0     H 1202   4.902   6.382  11.620 -1.1242  3.6847  1.3462
  767MOL0     H 1203   5.072   6.373  11.564  0.9251 -0.4796  0.2833
  767MOL0     H 1204   5.162   6.339  11.793 -0.1276  3.6530  1.2537
  767MOL0     H 1205   5.050   6.216  11.744  1.9284  0.7985 -4.0892
  767MOL0     H 1206   4.853   6.474  12.065 -0.4143 -1.5964  2.8301
  767MOL0     H 1207   4.614   6.420  12.126  0.1088 -0.5087  0.3521
  767MOL0     H 1208   4.148   6.292  11.905 -0.1900  2.7088  4.0843
  767MOL0     H 1209   3.930   6.260  12.023 -3.0188 -2.5102  1.6468
  767MOL0     H 1210   3.768   6.046  12.014  4.0799  1.6480 -1.4339
  767MOL0     H 1211   3.745   6.199  12.099  1.0870  0.6616  1.0199
  767MOL0     H 1212   3.621   5.946  12.210 -3.4046  0.5067  0.5236
  767MOL0     H 1213   3.544   6.063  12.103 -0.4148 -1.6791 -0.4509
  767MOL0     H 1214   3.578   6.242  12.259 -0.7274  0.5900  1.8831
  767MOL0     H 1215   3.694   6.167  12.356  0.0386  0.8448 -1.3886
  767MOL0     H 1216   3.483   5.994  12.404  2.3402 -0.2221 -1.3288
  767MOL0     H 1217   3.525   6.130  12.497 -2.0916 -1.5094  1.2511
  767MOL0     H 1218   3.337   6.147  12.258  2.4230 -2.0763 -0.2361
  767MOL0     H 1219   3.367   6.275  12.371  3.1138 -0.6393  0.5293
  767MOL0     H 1220   3.235   6.169  12.556  0.9385  0.8124  0.2702
  767MOL0     H 1221   3.240   6.023  12.483  0.0579 -0.8857 -0.0944
  767MOL0     H 1222   3.085   6.244  12.346 -1.1080 -0.0843 -0.9702
  767MOL0     H 1223   3.105   6.080  12.283  0.6190 -0.4234  1.5704
  767MOL0     H 1224   2.986   6.162  12.551 -4.1514  0.3639 -0.1582
  767MOL0     H 1225   2.981   5.997  12.482  0.5199  0.2914  0.6527
  767MOL0     H 1226   4.087   5.899  12.198  3.6006  0.4188  1.9890
  767MOL0     H 1227   4.313   5.934  12.055  0.8923  0.4482 -1.2653
  767MOL0     H 1228   4.592   6.121  11.836  3.2158 -2.0327 -0.9168
  767MOL0     H 1229   4.822   6.160  11.768 -0.0253 -1.2745  0.0793
  767MOL0     H 1230   6.443   6.806  11.311 -0.9802  0.4018  0.5019
  767MOL0     H 1231   6.644   6.923  11.199 -0.2401  3.0382 -0.6573
  767MOL0     H 1232   6.890   7.011  10.857 -0.2136 -1.6121  1.0057
  767MOL0     H 1233   7.113   7.045  10.798 -1.4779  1.0095 -1.8850
  767MOL0     H 1234   7.359   7.330  11.024  0.0292 -2.5464 -0.5557
  767MOL0     H 1235   7.288   7.449  10.909 -0.8123  0.0415 -0.9103
  767MOL0     H 1236   7.531   7.448  10.911  4.0933 -0.7651 -1.9853
  767MOL0     H 1237   7.544   7.278  10.896 -2.5341 -1.3545  2.4382
  767MOL0     H 1238   7.517   7.492  10.686 -0.7448  1.4091  1.7338
  767MOL0     H 1239   7.385   7.375  10.674 -0.0148  0.1985  2.2430
  767MOL0     H 1240   7.546   7.174  10.657 -2.9691  0.9856  0.2904
  767MOL0     H 1241   7.532   7.272  10.521 -3.7991  3.4801  0.7169
  767MOL0     H 1242   7.928   7.366  10.671 -1.8767  0.5322  1.8334
  767MOL0     H 1243   7.119   7.390  11.050 -1.1743  0.2770 -0.7295
  767MOL0     H 1244   6.896   7.335  11.120 -2.3612  0.4361 -0.5622
  768MOL0     O 1245   4.935   1.236   3.785 -0.5815  0.3458  0.0909
  768MOL0     C 1246   4.872   1.215   3.895  0.3003  0.1297 -0.0255
  768MOL0     O 1247   4.926   1.237   4.021  0.6031 -0.1360  0.1377
  768MOL0     C 1248   5.034   1.310   4.048  0.4799  0.5199  0.1975
  768MOL0     C 1249   5.155   1.291   3.988 -1.0324  0.0455  0.1958
  768MOL0     C 1250   5.262   1.379   3.999  0.4146 -0.0832  0.7324
  768MOL0     C 1251   5.254   1.482   4.086  0.1078 -0.0654  0.9034
  768MOL0     O 1252   5.361   1.573   4.090  0.2160 -0.2395 -0.7603
  768MOL0     C 1253   5.350   1.687   4.171  0.1453  0.2485 -0.3254
  768MOL0     C 1254   5.368   1.658   4.317  0.5463  0.5817  0.3012
  768MOL0     C 1255   5.302   1.761   4.406  0.3194  0.1256  0.0213
  768MOL0     C 1256   5.319   1.710   4.549 -0.3547  1.1079  0.0359
  768MOL0     C 1257   5.269   1.811   4.649 -0.4239  0.3018 -0.0866
  768MOL0     C 1258   5.226   1.750   4.784 -0.4393  0.1381 -0.0054
  768MOL0     C 1259   5.104   1.817   4.842  0.9229 -0.5474  0.1494
  768MOL0     C 1260   5.131   1.947   4.920 -0.5062  0.8265 -0.1810
  768MOL0     N 1261   4.999   1.993   4.979  0.0901 -0.0058 -0.8110
  768MOL0     C 1262   4.887   2.034   4.917  0.2768 -0.4870 -0.3103
  768MOL0     C 1263   4.795   2.062   5.019  0.3607  0.7595 -0.0336
  768MOL0     C 1264   4.654   2.116   5.018  0.3428 -0.0001  1.1023
  768MOL0     C 1265   4.629   2.261   5.052 -0.8736 -0.3033  0.5205
  768MOL0     C 1266   4.505   2.293   5.127 -0.3991  0.0042 -0.7982
  768MOL0     C 1267   4.516   2.262   5.284 -0.4899 -0.2130  0.9065
  768MOL0     O 1268   4.462   2.131   5.320  0.4205  0.3744  0.2486
  768MOL0     C 1269   4.321   2.119   5.352 -0.6042  0.2470  0.2584
  768MOL0     C 1270   4.285   2.004   5.420  0.1465 -0.2695 -0.3516
  768MOL0     C 1271   4.146   1.983   5.446 -0.3383  0.2454  0.5197
  768MOL0     C 1272   4.049   2.069   5.391  0.7767  1.3959  0.0600
  768MOL0     C 1273   3.904   2.030   5.410 -0.3253 -0.7181  0.4386
  768MOL0     O 1274   3.868   1.936   5.499  0.0907  0.7259 -1.2717
  768MOL0     C 1275   3.729   1.898   5.481  0.2938  0.4934 -0.4407
  768MOL0     C 1276   3.610   1.979   5.496 -0.5427  0.1064  0.4175
  768MOL0     C 1277   3.482   1.928   5.495 -0.0270  0.0120 -0.3218
  768MOL0     C 1278   3.459   1.790   5.474  0.0196 -0.2829  0.5590
  768MOL0     O 1279   3.334   1.743   5.503  0.6226 -0.5813  0.2991
  768MOL0     C 1280   3.282   1.638   5.411  0.1678  0.7630  0.0443
  768MOL0     C 1281   3.137   1.615   5.413  0.5570  0.4828  0.8128
  768MOL0     C 1282   3.047   1.720   5.342  0.7557 -0.0501  0.1859
  768MOL0     C 1283   3.078   1.743   5.195  0.5970  0.5767  0.1404
  768MOL0     C 1284   2.955   1.798   5.118 -0.5752 -0.1074  0.3259
  768MOL0     C 1285   2.917   1.938   5.183 -0.0119  0.4132  0.6191
  768MOL0     C 1286   2.855   2.033   5.077 -0.0510  1.1636 -0.2362
  768MOL0     C 1287   2.708   1.989   5.041 -0.2285  0.0628 -0.5502
  768MOL0    Cl 1288   2.714   1.898   4.887  0.0249  0.3667  0.2242
  768MOL0     C 1289   3.566   1.701   5.444 -0.6205 -0.5608 -0.2968
  768MOL0     C 1290   3.696   1.760   5.457 -0.0406  0.1582  0.9213
  768MOL0     O 1291   3.824   2.086   5.330 -0.3674 -0.1256 -0.0727
  768MOL0     C 1292   4.091   2.182   5.320  0.2445 -0.3184 -0.6314
  768MOL0     C 1293   4.228   2.215   5.299  0.1588  0.1851  0.6882
  768MOL0     N 1294   4.859   2.050   5.136  0.0633  0.7552 -0.6205
  768MOL0     N 1295   4.974   2.002   5.115  0.2132  0.0229 -0.2238
  768MOL0     C 1296   5.135   1.485   4.163 -0.5669 -0.6479 -0.7932
  768MOL0     C 1297   5.016   1.413   4.133 -1.0991  0.4061  0.2135
  768MOL0     C 1298   4.742   1.158   3.883  0.3065  0.5084 -0.2290
  768MOL0     C 1299   4.691   1.118   3.756  0.1432 -0.1021  0.1591
  768MOL0     C 1300   4.568   1.057   3.753 -0.0704  1.1076  0.8284
  768MOL0     C 1301   4.490   1.041   3.867  0.2907 -0.2186  0.0149
  768MOL0     O 1302   4.366   0.989   3.873 -0.2979  0.3785  0.2698
  768MOL0     C 1303   4.300   0.945   3.755  0.1758  0.4732  0.8362
  768MOL0     C 1304   4.150   0.957   3.777  0.3740 -0.0819 -0.1513
  768MOL0     C 1305   4.077   0.828   3.746 -0.3495 -0.1437  0.5997
  768MOL0     C 1306   3.929   0.869   3.724 -0.2523  0.9136  0.2519
  768MOL0     C 1307   3.845   0.751   3.710 -0.0609  0.2864 -0.0759
  768MOL0     C 1308   3.760   0.653   3.708  0.5443  0.2126  0.0118
  768MOL0     C 1309   4.534   1.086   3.986  0.7822 -0.4965  0.0614
  768MOL0     C 1310   4.660   1.148   3.997  0.2955  0.3694 -0.5311
  768MOL0     H 1311   5.166   1.206   3.922 -4.4218  0.1587 -0.7138
  768MOL0     H 1312   5.346   1.366   3.931 -0.8780 -0.3006 -0.9024
  768MOL0     H 1313   5.254   1.738   4.160  0.9738  1.7621 -0.8293
  768MOL0     H 1314   5.422   1.765   4.143 -0.3754  0.0909 -2.2158
  768MOL0     H 1315   5.473   1.652   4.347  0.5506  0.0319  0.1832
  768MOL0     H 1316   5.316   1.563   4.333  2.2175 -0.8108 -1.9357
  768MOL0     H 1317   5.198   1.774   4.373  0.3939 -1.8992 -1.1058
  768MOL0     H 1318   5.361   1.853   4.405  1.4961 -0.6234 -0.3251
  768MOL0     H 1319   5.268   1.613   4.550 -1.5704  1.6936 -1.2571
  768MOL0     H 1320   5.422   1.676   4.565 -0.5012 -1.2517 -2.9494
  768MOL0     H 1321   5.177   1.858   4.614 -0.4467  1.1364  1.0529
  768MOL0     H 1322   5.338   1.892   4.670  0.3894  0.5103 -3.0263
  768MOL0     H 1323   5.302   1.762   4.861 -2.2357  1.8345  1.6321
  768MOL0     H 1324   5.209   1.643   4.778  1.2582 -0.1231 -0.7880
  768MOL0     H 1325   5.020   1.842   4.777  0.1350 -2.9647  0.1423
  768MOL0     H 1326   5.057   1.743   4.907 -1.1293 -0.8920 -1.5967
  768MOL0     H 1327   5.158   2.025   4.848  0.1159 -0.1913 -1.0853
  768MOL0     H 1328   5.211   1.919   4.988 -1.1977 -1.3264 -0.1923
  768MOL0     H 1329   4.864   2.069   4.817 -0.1550 -1.9491 -0.7466
  768MOL0     H 1330   4.591   2.056   5.085 -0.5544  2.2277  2.3943
  768MOL0     H 1331   4.611   2.110   4.918 -1.3885  4.5296  1.3078
  768MOL0     H 1332   4.617   2.326   4.965  0.0696  1.2941  1.5174
  768MOL0     H 1333   4.708   2.305   5.113 -0.1124 -1.5789  0.4963
  768MOL0     H 1334   4.487   2.401   5.120  0.0855  0.0640 -1.1402
  768MOL0     H 1335   4.429   2.234   5.074  0.6325 -1.0076 -1.1755
  768MOL0     H 1336   4.460   2.341   5.335  1.4940  1.2088  0.9732
  768MOL0     H 1337   4.619   2.264   5.319 -0.6615  1.4568  1.3686
  768MOL0     H 1338   4.362   1.939   5.459 -0.0069  0.4147  1.1745
  768MOL0     H 1339   4.119   1.903   5.514  1.9648 -1.1507 -0.0907
  768MOL0     H 1340   3.628   2.082   5.525  2.4933 -0.0975 -0.4659
  768MOL0     H 1341   3.410   2.005   5.523  1.6898  1.1577  1.1940
  768MOL0     H 1342   3.326   1.540   5.428  1.3302  0.7679 -2.4183
  768MOL0     H 1343   3.310   1.664   5.308 -1.4620 -0.0279 -0.6397
  768MOL0     H 1344   3.103   1.609   5.517 -1.6120  1.1082  0.2032
  768MOL0     H 1345   3.123   1.516   5.367 -1.3759  0.7436  0.7377
  768MOL0     H 1346   3.025   1.811   5.398  1.4184  0.3222 -0.1425
  768MOL0     H 1347   2.950   1.671   5.349  2.0198 -2.5400  1.8498
  768MOL0     H 1348   3.166   1.803   5.171  3.1747 -2.6856  0.7600
  768MOL0     H 1349   3.094   1.638   5.167 -2.2010 -0.8621  3.2407
  768MOL0     H 1350   2.865   1.736   5.112 -0.0993 -0.8161  0.4805
  768MOL0     H 1351   2.994   1.805   5.016 -0.4793 -1.0635  0.2917
  768MOL0     H 1352   2.996   1.991   5.236  0.6605 -0.9260  1.0158
  768MOL0     H 1353   2.841   1.917   5.259 -1.4776 -2.3554 -1.4125
  768MOL0     H 1354   2.838   2.129   5.127  0.8301  1.1976  0.0060
  768MOL0     H 1355   2.921   2.048   4.991  0.4542 -2.9664 -0.7492
  768MOL0     H 1356   2.646   2.077   5.021 -0.3337  0.2937  0.7015
  768MOL0     H 1357   2.661   1.938   5.126 -1.4851 -0.4037 -1.4801
  768MOL0     H 1358   3.553   1.594   5.434  0.9960 -0.6495 -1.8777
  768MOL0     H 1359   3.770   1.686   5.431 -1.5550 -0.0952 -3.3531
  768MOL0     H 1360   4.019   2.248   5.273  1.3761  1.5646  0.1568
  768MOL0     H 1361   4.239   2.305   5.239 -0.8963  0.2375  0.5494
  768MOL0     H 1362   5.122   1.571   4.228 -0.3186 -2.8099  2.3516
  768MOL0     H 1363   4.922   1.454   4.168  0.1285  2.5707  1.1516
  768MOL0     H 1364   4.747   1.140   3.666 -1.1030 -2.4992 -1.3134
  768MOL0     H 1365   4.548   1.026   3.651  1.8840 -1.1473  1.0432
  768MOL0     H 1366   4.337   0.848   3.721 -0.7106 -0.5195  2.6054
  768MOL0     H 1367   4.317   1.022   3.679  2.1795  0.1891  0.9368
  768MOL0     H 1368   4.119   1.005   3.870  0.2381 -1.6844  0.6634
  768MOL0     H 1369   4.107   1.025   3.702  1.2481  0.3849 -0.2434
  768MOL0     H 1370   4.089   0.758   3.829 -0.2967 -1.7421 -0.7013
  768MOL0     H 1371   4.118   0.777   3.658 -2.7963 -1.6441  0.2244
  768MOL0     H 1372   3.888   0.925   3.808 -1.0058  1.2475 -0.3245
  768MOL0     H 1373   3.919   0.926   3.631 -1.7055  0.4180  0.0867
  768MOL0     H 1374   3.701   0.564   3.714 -0.1005  0.6015 -0.4646
  768MOL0     H 1375   4.469   1.078   4.073 -0.7949  1.1805 -0.9011
  768MOL0     H 1376   4.695   1.190   4.091 -2.0677  0.4033  0.4061
  769MOL0     O 1377  10.481   9.510   8.765 -0.2953  0.3707 -0.4221
  769MOL0     C 1378  10.502   9.432   8.675  0.0842  0.2064 -0.0341
  769MOL0     O 1379  10.422   9.322   8.644  0.5226  0.1225  0.5983
  769MOL0     C 1380  10.299   9.314   8.705  0.4657 -0.0627  0.7307
  769MOL0     C 1381  10.204   9.401   8.680 -0.1551 -0.7048  0.9354
  769MOL0     C 1382  10.082   9.387   8.751  0.7942 -0.4458  0.7191
  769MOL0     C 1383  10.066   9.283   8.849 -0.0518  0.9804  0.5196
  769MOL0     O 1384   9.953   9.249   8.923 -0.1242 -0.0794  0.4055
  769MOL0     C 1385   9.835   9.199   8.857  0.3776  0.4218 -0.2394
  769MOL0     C 1386   9.716   9.287   8.896  0.1286  0.1838 -0.0943
  769MOL0     C 1387   9.586   9.274   8.808 -0.3213  0.3192 -0.6264
  769MOL0     C 1388   9.501   9.396   8.832 -0.2033  0.6248 -0.1359
  769MOL0     C 1389   9.344   9.369   8.808 -0.2082  0.4804  0.4014
  769MOL0     C 1390   9.313   9.359   8.657 -0.1118 -0.3314  0.2488
  769MOL0     C 1391   9.171   9.305   8.645  0.0162  0.2223  1.0272
  769MOL0     C 1392   9.155   9.162   8.683  0.3458 -0.3271 -0.2927
  769MOL0     N 1393   9.032   9.100   8.638 -0.3146 -0.2293 -0.8764
  769MOL0     C 1394   8.920   9.070   8.707  0.3048  0.4031  0.3095
  769MOL0     C 1395   8.826   9.033   8.613 -0.1476  0.0371  0.1178
  769MOL0     C 1396   8.688   8.985   8.643 -0.4857 -1.0165  1.4210
  769MOL0     C 1397   8.679   8.886   8.761  0.4975  0.9739 -0.2859
  769MOL0     C 1398   8.722   8.737   8.729  0.1503  0.6924 -0.0770
  769MOL0     C 1399   8.862   8.712   8.682 -0.0435 -1.1253  0.8134
  769MOL0     O 1400   8.944   8.735   8.790  0.4020 -0.0809 -0.7106
  769MOL0     C 1401   9.079   8.755   8.767 -0.2396 -0.4355  0.4706
  769MOL0     C 1402   9.160   8.806   8.865  0.1139 -0.6478  0.3248
  769MOL0     C 1403   9.298   8.819   8.851 -0.0204  1.2010  0.1261
  769MOL0     C 1404   9.364   8.768   8.740 -0.0650  0.0357  0.5562
  769MOL0     C 1405   9.509   8.786   8.718  0.7018  0.6077 -0.0021
  769MOL0     O 1406   9.565   8.702   8.628  0.1927  0.7739  0.1603
  769MOL0     C 1407   9.699   8.661   8.647  0.7926 -0.0232  0.2578
  769MOL0     C 1408   9.764   8.665   8.774 -0.5587 -1.0482 -0.4343
  769MOL0     C 1409   9.895   8.618   8.772  0.4627 -0.0092  0.2724
  769MOL0     C 1410   9.956   8.555   8.661 -0.1435 -1.2949 -0.8459
  769MOL0     O 1411  10.080   8.510   8.684 -0.2089 -0.0195 -0.7579
  769MOL0     C 1412  10.148   8.427   8.586  0.8809 -0.1657  0.5061
  769MOL0     C 1413  10.076   8.295   8.559  0.8556 -0.3814 -0.9648
  769MOL0     C 1414  10.168   8.216   8.470 -0.0498 -0.3755  0.1818
  769MOL0     C 1415  10.274   8.137   8.546  0.2933  0.8378  0.8165
  769MOL0     C 1416  10.349   8.048   8.439  0.0242  0.1171 -0.2263
  769MOL0     C 1417  10.475   7.982   8.502 -0.6103 -0.4683 -0.6704
  769MOL0     C 1418  10.502   7.843   8.445 -0.0480  0.1095  0.1698
  769MOL0     C 1419  10.545   7.841   8.300  0.8866  0.6884 -0.3406
  769MOL0    Cl 1420  10.718   7.825   8.297 -0.5175 -0.7386 -0.1526
  769MOL0     C 1421   9.895   8.561   8.540  0.3783 -0.3648 -0.7150
  769MOL0     C 1422   9.761   8.600   8.538 -0.1145 -0.7574 -0.4621
  769MOL0     O 1423   9.563   8.867   8.794 -0.4890 -0.1847  0.1962
  769MOL0     C 1424   9.289   8.690   8.656 -0.1063  0.3408  0.1958
  769MOL0     C 1425   9.150   8.688   8.666 -0.0337  0.3626  0.1437
  769MOL0     N 1426   8.890   9.048   8.498 -0.6407 -0.3185  0.5683
  769MOL0     N 1427   9.008   9.081   8.508 -0.3750  0.6603 -1.0344
  769MOL0     C 1428  10.167   9.195   8.875 -0.1203 -0.0460  0.0992
  769MOL0     C 1429  10.279   9.211   8.795 -0.4865  0.3268 -1.0965
  769MOL0     C 1430  10.631   9.447   8.606  0.1116  0.4628  0.2200
  769MOL0     C 1431  10.734   9.526   8.654 -0.4043 -0.5765  0.6045
  769MOL0     C 1432  10.859   9.524   8.578  0.2517  0.1409 -0.3031
  769MOL0     C 1433  10.881   9.453   8.459 -0.3838 -0.0157  0.5285
  769MOL0     O 1434  10.995   9.451   8.383 -0.1327  0.1599 -0.0597
  769MOL0     C 1435  11.112   9.530   8.410  0.3373 -0.0103 -0.1632
  769MOL0     C 1436  11.203   9.472   8.517 -0.8745  0.8162 -1.0215
  769MOL0     C 1437  11.248   9.329   8.490  0.3239  0.5425 -0.0182
  769MOL0     C 1438  11.175   9.229   8.594 -0.1323 -0.5015  0.3330
  769MOL0     C 1439  11.242   9.202   8.723 -0.1130 -0.0755  0.1771
  769MOL0     C 1440  11.317   9.182   8.822  0.9484  0.0701  0.1912
  769MOL0     C 1441  10.774   9.366   8.427  0.9504  0.2148 -1.0690
  769MOL0     C 1442  10.653   9.370   8.491 -0.4167  0.0865  1.0284
  769MOL0     H 1443  10.215   9.480   8.606 -4.7330  0.0284  0.7552
  769MOL0     H 1444  10.000   9.457   8.737  2.3034  0.9524 -1.8508
  769MOL0     H 1445   9.809   9.094   8.877 -0.2736 -0.1841 -3.6480
  769MOL0     H 1446   9.847   9.209   8.749 -0.7118  4.1824 -0.1500
  769MOL0     H 1447   9.752   9.390   8.893  1.5866 -0.3172 -2.7865
  769MOL0     H 1448   9.702   9.251   8.998  4.4521 -3.7752 -0.5887
  769MOL0     H 1449   9.534   9.185   8.843 -0.0048  0.5250  0.3986
  769MOL0     H 1450   9.620   9.261   8.705  2.4810  0.8888  0.1360
  769MOL0     H 1451   9.515   9.428   8.936 -2.0086  0.6593  0.1177
  769MOL0     H 1452   9.528   9.478   8.765  0.5661  0.1931 -0.3691
  769MOL0     H 1453   9.273   9.439   8.852 -3.6439 -0.1812 -3.4872
  769MOL0     H 1454   9.319   9.279   8.865 -0.2422 -0.1697 -0.6107
  769MOL0     H 1455   9.379   9.291   8.603  0.7598  0.4972  0.2525
  769MOL0     H 1456   9.322   9.452   8.601  0.7026 -0.6720 -0.1980
  769MOL0     H 1457   9.096   9.366   8.696 -1.3888  0.1247 -0.8220
  769MOL0     H 1458   9.131   9.315   8.543 -1.6609  2.4627  1.7992
  769MOL0     H 1459   9.171   9.145   8.790  1.8863  1.2951 -0.2202
  769MOL0     H 1460   9.238   9.111   8.632 -0.5545  0.0426 -2.1937
  769MOL0     H 1461   8.916   9.072   8.816  1.3266  4.0752  0.4322
  769MOL0     H 1462   8.644   8.951   8.549  1.5492  4.8024 -2.1453
  769MOL0     H 1463   8.621   9.068   8.668  1.1535  0.4609  1.1044
  769MOL0     H 1464   8.578   8.889   8.803 -0.9280 -1.0125 -3.2510
  769MOL0     H 1465   8.742   8.915   8.846 -0.1397  1.5618 -0.0077
  769MOL0     H 1466   8.701   8.668   8.811 -3.7852  1.1298 -0.5371
  769MOL0     H 1467   8.656   8.702   8.649  2.0610  0.9217 -1.8414
  769MOL0     H 1468   8.885   8.786   8.605 -1.1481 -1.4594  0.1348
  769MOL0     H 1469   8.883   8.610   8.650  0.0182 -0.9086  0.1454
  769MOL0     H 1470   9.108   8.848   8.951 -1.0406 -0.5638 -0.3860
  769MOL0     H 1471   9.341   8.877   8.932 -3.0528  0.9804  2.0375
  769MOL0     H 1472   9.731   8.706   8.869  0.2566 -0.7877 -0.2618
  769MOL0     H 1473   9.956   8.645   8.858  0.7241 -0.4726  0.2365
  769MOL0     H 1474  10.247   8.404   8.627  1.1499 -3.6023 -1.5883
  769MOL0     H 1475  10.161   8.480   8.491 -1.2122  0.3771  0.4639
  769MOL0     H 1476   9.981   8.313   8.509  1.5094  3.9946 -1.0419
  769MOL0     H 1477  10.054   8.253   8.658  1.0219  0.7575 -0.4278
  769MOL0     H 1478  10.223   8.280   8.401 -0.4134 -1.4241 -1.1144
  769MOL0     H 1479  10.108   8.151   8.406 -2.4105  2.0355 -0.2317
  769MOL0     H 1480  10.349   8.207   8.585  0.3351  2.8081 -2.4515
  769MOL0     H 1481  10.242   8.074   8.630  1.1499  3.6557  3.4643
  769MOL0     H 1482  10.392   8.096   8.351  1.4806 -0.3918  0.1718
  769MOL0     H 1483  10.275   7.971   8.414  0.7282 -0.6225 -0.0960
  769MOL0     H 1484  10.454   7.972   8.609  1.4100 -2.8323 -0.4224
  769MOL0     H 1485  10.561   8.049   8.493 -0.3548 -0.9688 -2.2264
  769MOL0     H 1486  10.583   7.797   8.502  0.2846  0.7715  0.2404
  769MOL0     H 1487  10.407   7.791   8.460 -0.4930  0.3554 -1.5789
  769MOL0     H 1488  10.510   7.926   8.240  0.4260  0.8696  0.1828
  769MOL0     H 1489  10.516   7.753   8.241 -0.0469  1.9022 -1.7878
  769MOL0     H 1490   9.931   8.530   8.442 -0.7202 -0.0250 -1.2423
  769MOL0     H 1491   9.688   8.591   8.458  1.0299  1.5335 -1.8574
  769MOL0     H 1492   9.339   8.660   8.564  0.5674 -0.2125  0.7303
  769MOL0     H 1493   9.099   8.621   8.598 -0.7621 -0.0801  1.0862
  769MOL0     H 1494  10.174   9.116   8.950  0.7523 -1.1377 -1.0854
  769MOL0     H 1495  10.363   9.144   8.814 -0.1021  1.7266  3.3530
  769MOL0     H 1496  10.716   9.597   8.733 -2.5241  0.7277 -0.9450
  769MOL0     H 1497  10.941   9.588   8.610  1.7406 -0.6136 -2.3655
  769MOL0     H 1498  11.078   9.630   8.438  0.3039 -0.1019  0.1308
  769MOL0     H 1499  11.176   9.542   8.322 -0.4422 -1.8567 -1.0264
  769MOL0     H 1500  11.299   9.525   8.513 -0.5019  0.1498 -1.1519
  769MOL0     H 1501  11.155   9.495   8.612 -2.0060  1.3736 -1.7189
  769MOL0     H 1502  11.355   9.315   8.507  0.1931 -1.4940 -0.5758
  769MOL0     H 1503  11.232   9.293   8.388  1.5904  1.4662 -0.5621
  769MOL0     H 1504  11.077   9.275   8.608  0.3866  1.3936 -1.7591
  769MOL0     H 1505  11.155   9.139   8.535  0.2010 -0.1183 -0.3712
  769MOL0     H 1506  11.371   9.169   8.913 -1.1141 -1.1623  1.3332
  769MOL0     H 1507  10.789   9.299   8.343 -0.6352 -2.3059  0.5285
  769MOL0     H 1508  10.573   9.299   8.472  0.7844 -1.7797  2.5464
  770MOL0     O 1509   5.927  10.352   5.494  1.1102 -0.0734  0.1844
  770MOL0     C 1510   5.908  10.473   5.499 -0.4503 -0.4588 -0.2960
  770MOL0     O 1511   5.792  10.533   5.545  0.2101 -0.7023 -0.1090
  770MOL0     C 1512   5.688  10.450   5.577  0.3323 -0.0764  0.0993
  770MOL0     C 1513   5.623  10.485   5.698  0.4054  0.4641 -0.5049
  770MOL0     C 1514   5.495  10.431   5.728  0.4066  0.0054  0.3134
  770MOL0     C 1515   5.448  10.318   5.659 -0.3421  0.3068 -0.4321
  770MOL0     O 1516   5.319  10.262   5.677 -0.0563 -0.6120 -0.2953
  770MOL0     C 1517   5.249  10.281   5.801  0.9892  0.3394 -0.0507
  770MOL0     C 1518   5.102  10.244   5.807  0.1077  0.7782 -0.0379
  770MOL0     C 1519   5.012  10.361   5.758 -0.4893 -0.0239  0.8175
  770MOL0     C 1520   4.871  10.331   5.785  0.8239  0.5700 -0.4318
  770MOL0     C 1521   4.795  10.245   5.680 -0.1810  0.9949 -0.5260
  770MOL0     C 1522   4.674  10.175   5.739  0.3258  0.2831 -0.0711
  770MOL0     C 1523   4.597  10.103   5.632 -0.6292 -0.4182  0.5573
  770MOL0     C 1524   4.527  10.209   5.544  0.2836 -0.1793  0.9665
  770MOL0     N 1525   4.424  10.146   5.450  0.2790 -0.4678  0.5871
  770MOL0     C 1526   4.329  10.233   5.402 -0.2613 -1.1791  0.6271
  770MOL0     C 1527   4.305  10.176   5.279  0.2094 -0.2191 -0.2967
  770MOL0     C 1528   4.202  10.224   5.176 -0.3347 -0.1479 -0.3279
  770MOL0     C 1529   4.064  10.193   5.214  0.1329 -0.1044  0.1139
  770MOL0     C 1530   3.975  10.262   5.107  0.1977  0.1312 -0.8235
  770MOL0     C 1531   3.834  10.303   5.173 -0.4776 -1.0639 -0.4522
  770MOL0     O 1532   3.791  10.192   5.250  0.3375 -0.4131 -0.1928
  770MOL0     C 1533   3.673  10.204   5.326  0.2975  0.1804  0.1027
  770MOL0     C 1534   3.633  10.093   5.406  0.5817 -0.5686 -0.5120
  770MOL0     C 1535   3.515  10.097   5.480  0.6449 -0.1254  0.6534
  770MOL0     C 1536   3.433  10.213   5.478 -0.3337 -0.3119 -0.5959
  770MOL0     C 1537   3.307  10.221   5.554  0.3352  0.0497 -0.2611
  770MOL0     O 1538   3.260  10.346   5.569  0.2238 -0.5063  0.0256
  770MOL0     C 1539   3.146  10.379   5.644 -1.3445  0.5757  0.4724
  770MOL0     C 1540   3.124  10.328   5.773  0.3391  0.6448  0.7058
  770MOL0     C 1541   3.009  10.372   5.839 -0.3144 -0.4453 -0.2622
  770MOL0     C 1542   2.922  10.456   5.782  0.0565 -0.1464 -0.3604
  770MOL0     O 1543   2.805  10.504   5.842 -0.3326 -0.1555  0.6662
  770MOL0     C 1544   2.713  10.392   5.864  0.0355  0.4722 -0.2272
  770MOL0     C 1545   2.564  10.436   5.873 -0.2903  0.2793 -0.2624
  770MOL0     C 1546   2.546  10.524   5.993  0.2595  0.6484  0.4623
  770MOL0     C 1547   2.396  10.552   6.003 -0.2968  0.1772  0.5848
  770MOL0     C 1548   2.352  10.616   6.136  0.6014  0.7653 -0.3287
  770MOL0     C 1549   2.201  10.637   6.140  0.5504 -0.3228 -0.1813
  770MOL0     C 1550   2.127  10.706   6.025 -0.1796  1.1352  0.4096
  770MOL0     C 1551   1.981  10.717   6.058 -0.4341 -1.1662  0.1720
  770MOL0    Cl 1552   1.916  10.552   6.070 -0.3015 -0.0323 -0.1596
  770MOL0     C 1553   2.934  10.499   5.649 -0.3136  0.6322  0.2692
  770MOL0     C 1554   3.047  10.459   5.578  0.3573  0.2770 -0.9915
  770MOL0     O 1555   3.258  10.119   5.597  0.4118  0.7603 -0.7459
  770MOL0     C 1556   3.480  10.334   5.410  0.5632  0.3159  0.0151
  770MOL0     C 1557   3.590  10.319   5.323 -0.3818 -1.1484 -0.5014
  770MOL0     N 1558   4.358  10.047   5.271  0.0819  0.5047  0.3080
  770MOL0     N 1559   4.438  10.035   5.375  0.4136 -0.4290 -0.1884
  770MOL0     C 1560   5.516  10.278   5.544  0.4205  0.7811 -0.3739
  770MOL0     C 1561   5.629  10.346   5.497  0.7812 -0.6214  0.2876
  770MOL0     C 1562   6.032  10.564   5.465 -0.3780  0.1227  0.5727
  770MOL0     C 1563   6.161  10.517   5.502  0.3842  0.0298  0.0317
  770MOL0     C 1564   6.270  10.600   5.483 -0.7009 -0.3674  0.4534
  770MOL0     C 1565   6.258  10.725   5.437 -0.3988  0.3463 -0.4613
  770MOL0     O 1566   6.356  10.818   5.416  0.0702 -0.3484  0.5421
  770MOL0     C 1567   6.496  10.780   5.441  0.2584 -0.0012 -0.8811
  770MOL0     C 1568   6.527  10.832   5.585  0.4823 -0.1591  0.4787
  770MOL0     C 1569   6.523  10.988   5.583  0.6207  0.3284  0.0968
  770MOL0     C 1570   6.566  11.062   5.711 -0.0169 -0.6531 -0.2226
  770MOL0     C 1571   6.686  11.013   5.774  0.1735 -0.2629 -0.3071
  770MOL0     C 1572   6.794  10.999   5.825  0.4118  0.0298 -0.6094
  770MOL0     C 1573   6.133  10.774   5.401  0.0350 -0.9183  1.1582
  770MOL0     C 1574   6.023  10.696   5.418  0.8723  0.7028 -0.0519
  770MOL0     H 1575   5.658  10.562   5.766  1.0812 -1.7192  1.7681
  770MOL0     H 1576   5.446  10.471   5.816 -0.3358 -2.7312  1.2462
  770MOL0     H 1577   5.260  10.381   5.846 -1.1615  0.4437  0.3179
  770MOL0     H 1578   5.296  10.215   5.875 -0.5025 -2.0063 -1.0799
  770MOL0     H 1579   5.061  10.215   5.904 -0.7775  2.7331  0.2330
  770MOL0     H 1580   5.104  10.157   5.740  3.1002 -0.2041  1.1467
  770MOL0     H 1581   5.023  10.383   5.652  0.2185  1.5755  1.1950
  770MOL0     H 1582   5.041  10.453   5.811  0.4487  0.2531 -0.1380
  770MOL0     H 1583   4.861  10.282   5.882 -0.6993 -0.1361 -0.9190
  770MOL0     H 1584   4.821  10.428   5.798  1.7740  0.8636  1.3252
  770MOL0     H 1585   4.872  10.171   5.655  0.1904  1.1803  0.0553
  770MOL0     H 1586   4.775  10.302   5.589 -1.3251  3.8587  1.3752
  770MOL0     H 1587   4.621  10.252   5.796  0.1848  0.5755 -0.5922
  770MOL0     H 1588   4.696  10.101   5.817 -0.6691  1.1630  1.0960
  770MOL0     H 1589   4.670  10.045   5.575  0.6416 -0.3342  2.0181
  770MOL0     H 1590   4.515  10.040   5.669 -1.4539 -0.0619 -0.6299
  770MOL0     H 1591   4.593  10.269   5.481 -1.0736  0.7665  0.4065
  770MOL0     H 1592   4.483  10.282   5.613  2.4789  1.9155  0.2818
  770MOL0     H 1593   4.292  10.322   5.451  0.2512  0.1534 -1.2673
  770MOL0     H 1594   4.228  10.180   5.079  2.2458 -2.0096  1.0726
  770MOL0     H 1595   4.208  10.332   5.165  0.0928 -0.2394 -1.0752
  770MOL0     H 1596   4.051  10.228   5.317  0.1538 -2.1659  0.8670
  770MOL0     H 1597   4.042  10.086   5.222 -0.4664  0.1650  3.0922
  770MOL0     H 1598   4.026  10.353   5.076 -0.4508  1.0434  0.6681
  770MOL0     H 1599   3.956  10.205   5.015 -3.4805 -0.5214  0.1547
  770MOL0     H 1600   3.755  10.324   5.100 -0.3475 -1.3709 -0.6849
  770MOL0     H 1601   3.852  10.384   5.243 -1.9073 -0.3156 -0.9105
  770MOL0     H 1602   3.699  10.007   5.414  0.5758 -0.6761 -1.5112
  770MOL0     H 1603   3.483  10.013   5.542 -4.9712 -0.9123 -2.5947
  770MOL0     H 1604   3.197  10.267   5.826  1.2766  1.0781 -0.0664
  770MOL0     H 1605   2.992  10.327   5.936  2.1191  0.8060  0.8458
  770MOL0     H 1606   2.749  10.338   5.952 -0.1350 -0.8557 -0.9397
  770MOL0     H 1607   2.715  10.323   5.779  1.6678  0.3303 -0.1054
  770MOL0     H 1608   2.505  10.344   5.872 -0.2695  0.2554  0.5691
  770MOL0     H 1609   2.535  10.492   5.783  0.1613  0.5322 -0.2538
  770MOL0     H 1610   2.609  10.614   5.982 -0.3806  1.2252  1.4095
  770MOL0     H 1611   2.561  10.479   6.092  1.7607 -0.2951 -0.1621
  770MOL0     H 1612   2.367  10.619   5.921 -0.8918 -1.7887 -0.8885
  770MOL0     H 1613   2.352  10.456   5.976  1.0558  0.1048 -1.6819
  770MOL0     H 1614   2.396  10.713   6.159 -0.0900  0.6416  1.7750
  770MOL0     H 1615   2.369  10.544   6.217 -0.7319 -0.2773 -0.9447
  770MOL0     H 1616   2.185  10.699   6.228  1.9338 -1.6468  1.0747
  770MOL0     H 1617   2.156  10.539   6.159 -0.8312 -0.0302 -1.6897
  770MOL0     H 1618   2.172  10.805   6.014  0.7989  0.6365 -0.1887
  770MOL0     H 1619   2.137  10.644   5.936  3.6917  0.1020  1.3805
  770MOL0     H 1620   1.939  10.778   5.977  0.3518 -0.2206  0.4535
  770MOL0     H 1621   1.966  10.766   6.155  0.7587 -0.8089  0.1929
  770MOL0     H 1622   2.857  10.562   5.605 -0.0679  0.4236 -0.4731
  770MOL0     H 1623   3.062  10.488   5.474 -2.2284 -1.4704 -1.9615
  770MOL0     H 1624   3.410  10.417   5.414 -1.6893 -1.3266 -2.2727
  770MOL0     H 1625   3.603  10.406   5.259 -1.9574 -0.5804 -0.1008
  770MOL0     H 1626   5.483  10.190   5.491 -3.1324  0.4453  2.0357
  770MOL0     H 1627   5.677  10.305   5.409  2.3573  2.3533 -0.3796
  770MOL0     H 1628   6.174  10.420   5.549  2.2224 -0.9503 -2.2790
  770MOL0     H 1629   6.368  10.569   5.516  2.1200  1.9373 -4.5684
  770MOL0     H 1630   6.557  10.837   5.370 -1.2903  1.9005 -0.7598
  770MOL0     H 1631   6.523  10.675   5.428 -1.9909 -0.6244 -0.7836
  770MOL0     H 1632   6.465  10.790   5.665 -1.3674  2.8960  0.7914
  770MOL0     H 1633   6.629  10.793   5.599  1.6876  3.0750  1.6399
  770MOL0     H 1634   6.417  11.016   5.573  1.2390  3.0989  0.4993
  770MOL0     H 1635   6.585  11.026   5.502  2.5292  2.5698  2.4437
  770MOL0     H 1636   6.571  11.165   5.676  0.7202 -0.4669  0.4028
  770MOL0     H 1637   6.478  11.052   5.775 -0.1300  0.6711 -0.1435
  770MOL0     H 1638   6.885  10.992   5.880 -1.2739 -1.2314  2.2293
  770MOL0     H 1639   6.117  10.879   5.378  0.7158 -0.9596  0.4761
  770MOL0     H 1640   5.927  10.743   5.397  0.7948  0.5000 -0.1495
  771MOL0     O 1641   7.120   8.659   1.410  0.1050  0.6722  0.0555
  771MOL0     C 1642   7.144   8.733   1.505 -0.2572 -0.4577  0.0841
  771MOL0     O 1643   7.074   8.844   1.537 -0.1263 -0.8215 -0.2173
  771MOL0     C 1644   6.951   8.867   1.478 -0.4327  0.0444 -0.4095
  771MOL0     C 1645   6.856   8.773   1.434 -0.3298  0.1974 -0.7986
  771MOL0     C 1646   6.744   8.810   1.361 -0.3921  0.9596  0.2015
  771MOL0     C 1647   6.712   8.951   1.337 -0.6105  0.4836  0.1679
  771MOL0     O 1648   6.606   8.981   1.265 -0.7348 -0.6323  0.3969
  771MOL0     C 1649   6.608   9.103   1.188  0.7492 -0.4571  0.8697
  771MOL0     C 1650   6.479   9.130   1.110 -0.2468  0.6931 -0.4803
  771MOL0     C 1651   6.434   9.028   1.009  0.0308  0.1371  0.0190
  771MOL0     C 1652   6.298   9.066   0.948  0.3676 -0.3063 -0.5622
  771MOL0     C 1653   6.265   8.990   0.816  0.2447  0.2642  0.3228
  771MOL0     C 1654   6.344   9.057   0.707  0.1495 -0.5740  0.1523
  771MOL0     C 1655   6.300   9.017   0.569  0.5288  0.1933  0.1661
  771MOL0     C 1656   6.329   9.130   0.468 -0.0258  0.3061 -0.6313
  771MOL0     N 1657   6.264   9.079   0.341 -0.3226  1.0728  0.6344
  771MOL0     C 1658   6.134   9.080   0.318  0.2647  0.4784  0.5071
  771MOL0     C 1659   6.122   9.049   0.183 -0.2114 -0.0217 -0.4993
  771MOL0     C 1660   5.996   9.028   0.104  0.1112  0.3683 -0.3386
  771MOL0     C 1661   5.980   9.139  -0.006  0.9601 -0.9776 -0.2382
  771MOL0     C 1662   5.860   9.104  -0.096  0.4263  0.2097  1.2187
  771MOL0     C 1663   5.837   9.224  -0.187 -0.0623 -0.0935 -0.1075
  771MOL0     O 1664   5.755   9.187  -0.303  0.4494  0.0736  0.0773
  771MOL0     C 1665   5.620   9.187  -0.285  1.3511 -0.1153 -0.5063
  771MOL0     C 1666   5.553   9.304  -0.244  0.0429  0.5820 -0.1798
  771MOL0     C 1667   5.414   9.311  -0.243 -0.0009  0.8090  1.0262
  771MOL0     C 1668   5.344   9.200  -0.293 -0.3428 -1.3235 -1.2530
  771MOL0     C 1669   5.203   9.198  -0.316 -0.0338  0.6753 -0.1207
  771MOL0     O 1670   5.152   9.112  -0.416  0.0152 -0.2053  0.0637
  771MOL0     C 1671   5.012   9.109  -0.435 -0.7918 -0.2106  0.8750
  771MOL0     C 1672   4.917   9.091  -0.332  0.0907  0.8996 -0.3824
  771MOL0     C 1673   4.783   9.107  -0.361  0.7496  0.4269 -0.1245
  771MOL0     C 1674   4.733   9.153  -0.485 -0.5709 -1.0704  0.5707
  771MOL0     O 1675   4.598   9.173  -0.501 -0.2989 -0.1036 -0.7334
  771MOL0     C 1676   4.532   9.253  -0.400 -0.1395 -0.4463 -0.4088
  771MOL0     C 1677   4.382   9.223  -0.408 -0.6106 -0.3533 -0.5562
  771MOL0     C 1678   4.306   9.309  -0.310  0.1079  0.2352  0.5150
  771MOL0     C 1679   4.163   9.255  -0.292  0.8092 -0.4040 -0.0268
  771MOL0     C 1680   4.119   9.306  -0.154  0.1796 -0.5211  0.0124
  771MOL0     C 1681   3.979   9.262  -0.117 -0.0106  1.0448 -0.3430
  771MOL0     C 1682   3.969   9.261   0.039  0.5685 -0.0010 -0.5540
  771MOL0     C 1683   3.827   9.209   0.086 -0.8304  0.6166  0.6524
  771MOL0    Cl 1684   3.718   9.338   0.048 -0.4426 -0.1288 -0.0548
  771MOL0     C 1685   4.830   9.165  -0.593 -0.9918  0.1952 -0.0713
  771MOL0     C 1686   4.964   9.143  -0.569 -0.7867  0.0974 -0.1961
  771MOL0     O 1687   5.140   9.273  -0.246 -0.1156 -0.5891 -0.6415
  771MOL0     C 1688   5.415   9.092  -0.333  0.1486 -0.3477 -1.3947
  771MOL0     C 1689   5.548   9.092  -0.344 -0.0124  0.9397 -0.9545
  771MOL0     N 1690   6.246   9.038   0.132 -0.6757 -0.7548  0.3811
  771MOL0     N 1691   6.337   9.057   0.223 -0.0047  0.1975 -0.3984
  771MOL0     C 1692   6.805   9.040   1.391 -1.0877 -0.2813 -0.1474
  771MOL0     C 1693   6.917   8.998   1.466 -1.1355 -0.1504  0.6217
  771MOL0     C 1694   7.267   8.717   1.582  0.6081 -0.8724 -0.6260
  771MOL0     C 1695   7.360   8.619   1.557 -0.1945  0.5684 -0.7118
  771MOL0     C 1696   7.466   8.611   1.643  0.1629  0.5145  0.4437
  771MOL0     C 1697   7.480   8.684   1.757 -0.4726  0.8639 -0.4570
  771MOL0     O 1698   7.578   8.654   1.849 -0.1906 -0.1752 -0.1147
  771MOL0     C 1699   7.591   8.723   1.972  0.5065  0.0267 -0.6247
  771MOL0     C 1700   7.723   8.675   2.037  0.0158  0.5078 -0.0433
  771MOL0     C 1701   7.839   8.714   1.949 -0.4285  0.1884  0.4069
  771MOL0     C 1702   7.980   8.714   2.012 -0.1742  0.0278 -0.1091
  771MOL0     C 1703   8.030   8.582   2.045 -0.5171 -0.1048  0.4104
  771MOL0     C 1704   8.064   8.465   2.080  0.1052 -0.2710  0.3592
  771MOL0     C 1705   7.382   8.781   1.788 -0.3470 -0.5230 -0.0471
  771MOL0     C 1706   7.277   8.801   1.703  1.7151  0.3422 -0.0173
  771MOL0     H 1707   6.877   8.667   1.442 -1.0863  0.2073  2.4320
  771MOL0     H 1708   6.661   8.745   1.334  0.2038  0.0472  0.5300
  771MOL0     H 1709   6.681   9.101   1.107 -0.8211  2.0411 -0.7429
  771MOL0     H 1710   6.628   9.187   1.255  1.5058  1.4307 -1.5859
  771MOL0     H 1711   6.480   9.226   1.057 -3.8645  0.1205 -1.8855
  771MOL0     H 1712   6.404   9.127   1.189  1.6971  0.1472  1.4628
  771MOL0     H 1713   6.432   8.931   1.058 -0.2656  0.7163  1.2046
  771MOL0     H 1714   6.501   9.037   0.922 -1.5479  3.8264 -1.0363
  771MOL0     H 1715   6.217   9.046   1.019  0.2830 -1.2029 -0.9025
  771MOL0     H 1716   6.276   9.173   0.935 -1.5720 -0.3721  1.4876
  771MOL0     H 1717   6.158   9.003   0.801 -0.1028  0.6018  2.6357
  771MOL0     H 1718   6.296   8.887   0.833 -3.1039 -1.1994 -1.5437
  771MOL0     H 1719   6.451   9.042   0.719  0.0146 -2.6001 -0.7876
  771MOL0     H 1720   6.331   9.165   0.716  2.2477 -0.3321  0.7269
  771MOL0     H 1721   6.363   8.930   0.550 -0.4020 -1.0956  2.5045
  771MOL0     H 1722   6.194   8.988   0.572  0.1861  1.4079  0.2810
  771MOL0     H 1723   6.433   9.157   0.448 -0.5916  3.0599 -0.2581
  771MOL0     H 1724   6.282   9.221   0.507 -0.0611  0.1989 -0.4242
  771MOL0     H 1725   6.063   9.091   0.399 -0.3835  1.5168 -0.1685
  771MOL0     H 1726   5.915   9.021   0.177 -1.1551 -2.6218 -1.8325
  771MOL0     H 1727   6.004   8.932   0.051 -0.2343  0.3059 -0.2767
  771MOL0     H 1728   6.069   9.144  -0.069  2.2732 -2.3545  1.4175
  771MOL0     H 1729   5.956   9.233   0.044  0.1501 -0.5154 -1.4410
  771MOL0     H 1730   5.900   9.023  -0.157  0.8751  2.5412 -1.8015
  771MOL0     H 1731   5.764   9.077  -0.051 -0.5205 -3.4516 -2.4119
  771MOL0     H 1732   5.935   9.269  -0.209  1.4456 -3.0757  0.0839
  771MOL0     H 1733   5.777   9.293  -0.126 -2.0545  0.1861 -2.2368
  771MOL0     H 1734   5.614   9.390  -0.218  1.9404 -1.0813  1.2831
  771MOL0     H 1735   5.376   9.412  -0.227 -0.5112  0.7896 -0.0150
  771MOL0     H 1736   4.953   9.070  -0.232  3.5167  2.0336 -1.2676
  771MOL0     H 1737   4.716   9.076  -0.283  2.4856 -1.9355  0.5244
  771MOL0     H 1738   4.545   9.357  -0.432 -1.1592 -0.5891 -1.3593
  771MOL0     H 1739   4.568   9.247  -0.297  1.7789  2.3910 -0.8189
  771MOL0     H 1740   4.371   9.119  -0.377 -1.1274 -0.2596 -0.4171
  771MOL0     H 1741   4.346   9.234  -0.511 -1.6477 -2.9074 -0.5355
  771MOL0     H 1742   4.312   9.413  -0.343  1.5110 -0.0541 -0.2195
  771MOL0     H 1743   4.353   9.301  -0.211  0.3158  2.9019  0.7074
  771MOL0     H 1744   4.100   9.287  -0.375  0.8674  0.9996  0.4368
  771MOL0     H 1745   4.162   9.146  -0.285 -0.7361 -0.3543  1.1456
  771MOL0     H 1746   4.122   9.416  -0.149 -1.1486 -0.3227 -1.9981
  771MOL0     H 1747   4.190   9.271  -0.079 -0.0259  0.0354  0.4794
  771MOL0     H 1748   3.979   9.158  -0.148  2.4625  0.7446  0.4012
  771MOL0     H 1749   3.898   9.323  -0.157 -1.2591 -0.0737  0.4018
  771MOL0     H 1750   4.050   9.196   0.072  0.1911  0.0399  0.4707
  771MOL0     H 1751   3.985   9.359   0.083  1.6982 -0.8798  1.0767
  771MOL0     H 1752   3.836   9.183   0.192 -0.8538  0.7276  0.6817
  771MOL0     H 1753   3.798   9.124   0.024 -1.5988  1.8993 -0.8174
  771MOL0     H 1754   4.799   9.173  -0.696  0.5956  0.0957 -0.5809
  771MOL0     H 1755   5.025   9.154  -0.658 -3.1359 -0.1507 -1.9376
  771MOL0     H 1756   5.367   9.000  -0.363  1.2429 -1.7899  0.9443
  771MOL0     H 1757   5.593   9.012  -0.403 -0.2091  1.5012 -1.8909
  771MOL0     H 1758   6.786   9.145   1.374 -0.6227 -0.1830 -0.0768
  771MOL0     H 1759   6.979   9.073   1.515  0.3839 -0.6456 -0.4378
  771MOL0     H 1760   7.348   8.548   1.476  2.0371  0.2608 -0.8167
  771MOL0     H 1761   7.529   8.526   1.617 -1.1557  0.1835 -1.9741
  771MOL0     H 1762   7.518   8.710   2.053  2.7273  2.6397  2.0176
  771MOL0     H 1763   7.593   8.831   1.959 -0.9174  0.2889  0.9502
  771MOL0     H 1764   7.732   8.731   2.131  0.5760 -1.8196  1.3839
  771MOL0     H 1765   7.728   8.569   2.061  0.4823  0.7411  0.9582
  771MOL0     H 1766   7.824   8.816   1.914  0.8113  0.7357  1.4094
  771MOL0     H 1767   7.841   8.641   1.867  1.1546 -0.6485  1.1371
  771MOL0     H 1768   8.048   8.758   1.939  0.3536  0.1595  0.4478
  771MOL0     H 1769   7.977   8.784   2.096 -0.0069  2.1909 -1.8265
  771MOL0     H 1770   8.080   8.364   2.110  3.3106  0.9317  3.5905
  771MOL0     H 1771   7.382   8.835   1.882  1.7834 -1.5766  0.6044
  771MOL0     H 1772   7.211   8.886   1.717  0.2940 -0.1688 -2.8619
  772MOL0     O 1773   5.920   0.751   2.506  0.2085 -0.2749  0.0640
  772MOL0     C 1774   5.990   0.778   2.607  0.4050 -0.3511 -0.3166
  772MOL0     O 1775   5.948   0.757   2.735  0.8714 -0.6695 -0.1452
  772MOL0     C 1776   5.818   0.741   2.772 -0.2884  0.1590  0.3158
  772MOL0     C 1777   5.795   0.650   2.874  0.5547 -0.7285 -0.8345
  772MOL0     C 1778   5.665   0.653   2.926  0.1534  0.7052 -0.1560
  772MOL0     C 1779   5.563   0.731   2.867 -0.3211  0.3620 -0.7222
  772MOL0     O 1780   5.433   0.728   2.897  0.9406 -0.1063  0.0142
  772MOL0     C 1781   5.376   0.627   2.974 -0.0996  0.0396 -1.0615
  772MOL0     C 1782   5.231   0.640   2.944  0.0190 -0.0518 -0.6625
  772MOL0     C 1783   5.203   0.574   2.816  0.6150  0.7062  0.2548
  772MOL0     C 1784   5.052   0.585   2.779  0.7535  0.0291 -0.3231
  772MOL0     C 1785   5.021   0.713   2.706  0.0508  0.3815 -0.0575
  772MOL0     C 1786   4.906   0.699   2.606  0.5906 -0.4165  0.7341
  772MOL0     C 1787   4.911   0.823   2.513 -0.3100  0.5769 -0.3462
  772MOL0     C 1788   4.805   0.815   2.404  0.0621  0.2331 -0.4867
  772MOL0     N 1789   4.666   0.816   2.453 -0.3068  0.6437  0.1455
  772MOL0     C 1790   4.589   0.921   2.476  1.2704 -1.4325  0.0683
  772MOL0     C 1791   4.462   0.868   2.489 -0.0418  0.0155 -0.1062
  772MOL0     C 1792   4.339   0.956   2.535 -0.5141  0.1781  0.7535
  772MOL0     C 1793   4.273   1.018   2.404 -0.3003 -0.2841 -0.7160
  772MOL0     C 1794   4.197   0.929   2.314  0.0879 -0.6621  0.6930
  772MOL0     C 1795   4.089   0.841   2.385 -0.7806  0.2331  0.6466
  772MOL0     O 1796   4.000   0.926   2.456  0.0206  0.5069 -0.1652
  772MOL0     C 1797   3.880   0.878   2.492 -0.1609  0.2263 -0.1310
  772MOL0     C 1798   3.820   0.964   2.589 -0.3392 -0.3326 -0.4913
  772MOL0     C 1799   3.688   0.932   2.637  0.5306 -0.1579 -0.0347
  772MOL0     C 1800   3.618   0.819   2.585 -0.2021  0.0758  0.1750
  772MOL0     C 1801   3.476   0.800   2.626 -0.3652 -0.1733  0.1078
  772MOL0     O 1802   3.415   0.682   2.595 -0.1991  0.4755  0.0822
  772MOL0     C 1803   3.284   0.654   2.634  0.0188  0.2305 -0.0587
  772MOL0     C 1804   3.266   0.622   2.768 -0.1849 -0.2615 -0.2374
  772MOL0     C 1805   3.136   0.596   2.816 -0.2718 -0.0702  0.1995
  772MOL0     C 1806   3.024   0.601   2.736  1.0066 -0.1924  0.7375
  772MOL0     O 1807   2.904   0.557   2.789 -0.2610 -0.5682 -0.3356
  772MOL0     C 1808   2.794   0.621   2.720  0.2851 -0.0420  0.2757
  772MOL0     C 1809   2.661   0.614   2.788 -0.2638 -0.1855  0.0638
  772MOL0     C 1810   2.625   0.465   2.827  0.0696 -0.4083 -1.6656
  772MOL0     C 1811   2.499   0.468   2.912  0.1325  0.4328  0.2101
  772MOL0     C 1812   2.373   0.506   2.828  0.2253  0.0197 -0.0766
  772MOL0     C 1813   2.338   0.393   2.738  0.9243 -0.1118 -0.1337
  772MOL0     C 1814   2.195   0.400   2.679  0.3349  0.4417  0.1140
  772MOL0     C 1815   2.126   0.268   2.697 -0.2890 -0.4271  0.5322
  772MOL0    Cl 1816   2.064   0.257   2.853  0.0503  0.2673  0.1994
  772MOL0     C 1817   3.049   0.640   2.599  0.1636 -0.2492 -0.0088
  772MOL0     C 1818   3.183   0.658   2.551  0.0621  0.5994 -0.1988
  772MOL0     O 1819   3.419   0.888   2.689  0.3270  0.2412 -0.3493
  772MOL0     C 1820   3.682   0.737   2.491  0.2537 -0.0029  0.1208
  772MOL0     C 1821   3.810   0.768   2.443 -0.1338  0.0165  0.1733
  772MOL0     N 1822   4.469   0.734   2.484 -0.0090  0.1887  0.2795
  772MOL0     N 1823   4.595   0.702   2.452 -0.2103 -0.5013  0.9534
  772MOL0     C 1824   5.598   0.814   2.752  0.2780  0.9638 -0.0622
  772MOL0     C 1825   5.723   0.825   2.722 -0.3400  0.2733 -1.1299
  772MOL0     C 1826   6.129   0.820   2.586 -0.5708  1.6406 -0.4181
  772MOL0     C 1827   6.188   0.818   2.461  0.2059 -0.2616 -0.1913
  772MOL0     C 1828   6.335   0.841   2.439 -0.3855 -0.1404  0.4425
  772MOL0     C 1829   6.421   0.853   2.549 -0.4919  0.2565  0.1242
  772MOL0     O 1830   6.557   0.840   2.536  0.1917 -0.5685  0.1159
  772MOL0     C 1831   6.646   0.873   2.640 -0.5811  0.6553 -0.2078
  772MOL0     C 1832   6.787   0.873   2.583 -0.3302  0.7844  0.2153
  772MOL0     C 1833   6.889   0.881   2.703 -0.1438  0.2009  0.1162
  772MOL0     C 1834   7.020   0.931   2.650 -0.6696  0.1854 -0.4483
  772MOL0     C 1835   7.080   0.825   2.570 -0.0133 -0.1149 -0.2967
  772MOL0     C 1836   7.127   0.729   2.507  0.2999  0.2782  0.1742
  772MOL0     C 1837   6.358   0.855   2.674 -0.1851  0.2991 -0.3379
  772MOL0     C 1838   6.220   0.836   2.695  0.2412  0.2484  0.7167
  772MOL0     H 1839   5.873   0.587   2.915 -0.4268 -1.4655 -0.0406
  772MOL0     H 1840   5.633   0.590   3.008 -0.2000  3.0207  1.5655
  772MOL0     H 1841   5.396   0.632   3.082  1.1414 -1.0811 -1.2170
  772MOL0     H 1842   5.409   0.526   2.949  0.5220  0.6207 -2.7306
  772MOL0     H 1843   5.193   0.743   2.944  0.0807 -0.0075 -2.0929
  772MOL0     H 1844   5.188   0.583   3.026  0.1302  0.6666 -0.1008
  772MOL0     H 1845   5.220   0.468   2.837 -0.2722  0.4762 -0.1613
  772MOL0     H 1846   5.265   0.601   2.731 -0.2936 -1.5977 -1.2350
  772MOL0     H 1847   5.048   0.504   2.706 -2.4432  1.0877 -1.4834
  772MOL0     H 1848   4.978   0.574   2.859 -2.3804  0.2110 -2.9841
  772MOL0     H 1849   5.110   0.745   2.651  0.4989  0.5402  0.7562
  772MOL0     H 1850   4.995   0.803   2.763  0.7915  0.9123 -0.5339
  772MOL0     H 1851   4.811   0.687   2.657 -0.6388  0.7114 -1.1481
  772MOL0     H 1852   4.915   0.611   2.542  1.5186 -1.0746  1.7445
  772MOL0     H 1853   4.885   0.910   2.573 -1.8621  0.7507 -1.2200
  772MOL0     H 1854   5.008   0.836   2.463 -0.5467 -1.8270 -1.5806
  772MOL0     H 1855   4.827   0.732   2.336 -0.0130 -1.4319  1.4311
  772MOL0     H 1856   4.819   0.906   2.346  1.7515 -0.0420 -0.5806
  772MOL0     H 1857   4.620   1.024   2.490  1.1875 -1.0580 -2.0960
  772MOL0     H 1858   4.386   1.034   2.596  1.8579 -0.2680 -0.3678
  772MOL0     H 1859   4.259   0.912   2.594  1.2155 -0.4899  2.6963
  772MOL0     H 1860   4.348   1.066   2.340  0.2004 -1.3796 -0.9890
  772MOL0     H 1861   4.217   1.109   2.426  2.0573  0.7827  1.4610
  772MOL0     H 1862   4.152   1.001   2.246  2.2586 -1.4480 -1.7266
  772MOL0     H 1863   4.274   0.871   2.263 -0.1730 -1.0079  0.6894
  772MOL0     H 1864   4.132   0.777   2.462  1.2808 -1.4436 -1.7811
  772MOL0     H 1865   4.035   0.777   2.315  0.5931 -0.0896 -0.1468
  772MOL0     H 1866   3.865   1.055   2.627 -1.2724 -0.0584 -0.0216
  772MOL0     H 1867   3.638   1.011   2.692  1.8645  0.4198  0.3996
  772MOL0     H 1868   3.359   0.626   2.824  0.0158 -0.6494 -0.5392
  772MOL0     H 1869   3.124   0.548   2.912  0.0693 -2.5214 -0.8865
  772MOL0     H 1870   2.790   0.579   2.619 -1.4241 -0.7977  0.6237
  772MOL0     H 1871   2.806   0.729   2.707  1.2805 -0.1194  0.5008
  772MOL0     H 1872   2.587   0.655   2.719  1.4433 -1.0306 -2.4171
  772MOL0     H 1873   2.671   0.675   2.878  2.2717  0.7365 -0.7435
  772MOL0     H 1874   2.713   0.434   2.884 -0.3472  3.6608  1.7221
  772MOL0     H 1875   2.615   0.408   2.734 -0.5739  0.0064 -1.8535
  772MOL0     H 1876   2.473   0.374   2.963 -1.0509  1.8351  2.3528
  772MOL0     H 1877   2.506   0.545   2.989 -1.3297  0.9554 -0.1409
  772MOL0     H 1878   2.379   0.597   2.768 -3.3438  0.3205 -0.1613
  772MOL0     H 1879   2.292   0.510   2.902 -0.6036  2.4168 -1.0100
  772MOL0     H 1880   2.356   0.293   2.779  5.2174  0.6410  0.2256
  772MOL0     H 1881   2.402   0.390   2.649  1.8179 -0.6944  0.5090
  772MOL0     H 1882   2.138   0.484   2.719  1.7964  2.1197 -1.2098
  772MOL0     H 1883   2.204   0.408   2.571  0.1768 -3.5568 -0.3524
  772MOL0     H 1884   2.176   0.175   2.668  0.1620 -0.6532  1.9556
  772MOL0     H 1885   2.036   0.277   2.634 -0.2387  5.2997  0.7366
  772MOL0     H 1886   2.970   0.654   2.526 -0.5988  0.3171  0.8904
  772MOL0     H 1887   3.201   0.681   2.446  1.0552 -3.3210 -1.0352
  772MOL0     H 1888   3.645   0.639   2.461 -0.7441 -1.0233  4.0861
  772MOL0     H 1889   3.865   0.706   2.372  2.1810  0.2415  1.6773
  772MOL0     H 1890   5.520   0.879   2.714  1.2602  1.3990 -1.3954
  772MOL0     H 1891   5.746   0.894   2.641  1.0756  0.1464 -0.8504
  772MOL0     H 1892   6.125   0.785   2.379  3.9624 -1.3432 -2.8984
  772MOL0     H 1893   6.375   0.841   2.338 -1.6443  0.9965 -0.0908
  772MOL0     H 1894   6.635   0.791   2.711  1.5853 -0.4739 -1.0892
  772MOL0     H 1895   6.620   0.969   2.685 -1.8977 -1.1909  3.3233
  772MOL0     H 1896   6.805   0.782   2.525 -1.5231 -0.1370  1.2100
  772MOL0     H 1897   6.806   0.956   2.515  0.8800  1.3265  1.1537
  772MOL0     H 1898   6.899   0.785   2.753 -0.7720 -0.9024 -1.7686
  772MOL0     H 1899   6.852   0.957   2.773  2.6145  0.8546  0.9648
  772MOL0     H 1900   7.009   1.014   2.580  0.4821  0.9078  0.2089
  772MOL0     H 1901   7.089   0.959   2.730  1.4771  1.4483 -2.6002
  772MOL0     H 1902   7.164   0.651   2.444  1.4972  0.8944  0.0949
  772MOL0     H 1903   6.417   0.853   2.765  0.9224 -1.5853 -1.0321
  772MOL0     H 1904   6.185   0.822   2.797  1.4965 -0.1134  1.1206
  773MOL0     O 1905   8.825   6.712   0.276 -0.0659  0.3744 -0.6473
  773MOL0     C 1906   8.882   6.716   0.169  0.7018  0.3843  0.0737
  773MOL0     O 1907   9.017   6.674   0.146 -0.2194 -0.1483  0.4141
  773MOL0     C 1908   9.096   6.601   0.228 -0.5916 -1.1254 -0.2146
  773MOL0     C 1909   9.073   6.590   0.371  0.8324  0.5175  0.4427
  773MOL0     C 1910   9.166   6.523   0.450  0.2782 -0.2861 -0.1019
  773MOL0     C 1911   9.290   6.473   0.396  0.8476 -0.4438 -0.2358
  773MOL0     O 1912   9.391   6.415   0.469 -0.2358 -0.0696  0.9276
  773MOL0     C 1913   9.368   6.377   0.599  0.2190 -0.0577 -0.6748
  773MOL0     C 1914   9.288   6.248   0.606 -0.2279  0.3533 -0.1645
  773MOL0     C 1915   9.362   6.128   0.542  0.1282 -0.4571 -0.7751
  773MOL0     C 1916   9.485   6.081   0.628  0.0720 -0.4211 -0.8877
  773MOL0     C 1917   9.583   6.006   0.532 -0.1104 -0.5274 -0.2721
  773MOL0     C 1918   9.520   5.878   0.489 -0.0766  0.2255 -0.0287
  773MOL0     C 1919   9.620   5.795   0.396  0.2502 -0.4104 -0.7962
  773MOL0     C 1920   9.550   5.737   0.273 -0.9348  0.4294 -0.5863
  773MOL0     N 1921   9.652   5.673   0.180  0.2016 -1.1275 -0.7192
  773MOL0     C 1922   9.771   5.728   0.124 -0.0560 -0.0664 -0.1441
  773MOL0     C 1923   9.809   5.633   0.032 -0.7700  0.3518  1.1360
  773MOL0     C 1924   9.908   5.653  -0.085  0.3575  0.4616 -1.1424
  773MOL0     C 1925   9.965   5.515  -0.116  0.6525  0.4411  0.8012
  773MOL0     C 1926  10.069   5.520  -0.231  0.0449  0.5905  0.6210
  773MOL0     C 1927   9.999   5.473  -0.367  0.7862  0.1912  0.0363
  773MOL0     O 1928   9.909   5.586  -0.388 -0.7963  1.0391  0.1432
  773MOL0     C 1929   9.802   5.554  -0.460 -0.6393  0.0035 -0.5144
  773MOL0     C 1930   9.683   5.535  -0.396 -0.5514 -0.3699 -0.0229
  773MOL0     C 1931   9.577   5.504  -0.477  0.4940  0.5471  0.3442
  773MOL0     C 1932   9.580   5.503  -0.619 -0.4032 -0.2019  0.3673
  773MOL0     C 1933   9.455   5.481  -0.690  0.1694 -0.0227  0.8483
  773MOL0     O 1934   9.468   5.468  -0.827 -0.5480 -0.7860 -0.0767
  773MOL0     C 1935   9.358   5.460  -0.904  0.0002  0.7733 -0.4437
  773MOL0     C 1936   9.294   5.571  -0.957  0.7208  0.2411 -0.6118
  773MOL0     C 1937   9.179   5.551  -1.035 -0.6000  0.2635 -0.2023
  773MOL0     C 1938   9.135   5.423  -1.060 -0.3244  0.0364  0.7526
  773MOL0     O 1939   9.018   5.427  -1.137 -0.8759 -0.1211 -0.5758
  773MOL0     C 1940   8.945   5.311  -1.173 -0.2365 -0.0970 -0.6784
  773MOL0     C 1941   8.852   5.356  -1.288  0.0447  0.2100  0.2977
  773MOL0     C 1942   8.745   5.447  -1.246 -0.2968 -0.4099 -0.6183
  773MOL0     C 1943   8.665   5.506  -1.364  0.5640  0.4212  0.0753
  773MOL0     C 1944   8.560   5.618  -1.320  0.5280 -0.3929  0.1631
  773MOL0     C 1945   8.515   5.699  -1.434  0.2778  0.3644 -0.2611
  773MOL0     C 1946   8.393   5.782  -1.399  0.7239 -0.5925  0.6931
  773MOL0     C 1947   8.381   5.878  -1.517 -0.0946 -0.4444 -0.4270
  773MOL0    Cl 1948   8.226   5.967  -1.510 -0.3352  0.3792  0.0512
  773MOL0     C 1949   9.200   5.311  -1.005  0.0312  1.3296 -0.8751
  773MOL0     C 1950   9.308   5.329  -0.925 -1.0185  0.1023  0.0693
  773MOL0     O 1951   9.347   5.473  -0.632  0.2344  0.0837  0.0887
  773MOL0     C 1952   9.703   5.509  -0.683  0.5926  0.1203 -0.5439
  773MOL0     C 1953   9.818   5.541  -0.604 -0.2274 -0.1432 -0.7950
  773MOL0     N 1954   9.726   5.523   0.038  0.5568  0.3139 -0.0350
  773MOL0     N 1955   9.632   5.550   0.118  0.0508 -0.0989  0.1469
  773MOL0     C 1956   9.309   6.495   0.263 -0.4284  0.0237  0.2818
  773MOL0     C 1957   9.218   6.552   0.183  0.1484 -1.3428  0.2810
  773MOL0     C 1958   8.798   6.786   0.073  0.8722  0.2749 -0.3921
  773MOL0     C 1959   8.682   6.863   0.100  0.2691 -0.3220  0.1853
  773MOL0     C 1960   8.603   6.921  -0.005 -0.6959 -0.1182 -0.0627
  773MOL0     C 1961   8.637   6.903  -0.140  0.4181  0.8468 -0.0322
  773MOL0     O 1962   8.575   6.939  -0.258  0.1901  0.4476  0.9565
  773MOL0     C 1963   8.468   7.037  -0.255  0.4821 -0.3686  0.2060
  773MOL0     C 1964   8.335   6.963  -0.231 -0.0399  0.0889  0.7884
  773MOL0     C 1965   8.210   7.053  -0.263 -0.3874  0.1775 -1.0233
  773MOL0     C 1966   8.195   7.090  -0.410  0.1130  0.4805 -0.1455
  773MOL0     C 1967   8.180   6.975  -0.495  1.0737 -0.2268  0.0929
  773MOL0     C 1968   8.190   6.873  -0.559 -0.2906  0.4740 -0.6400
  773MOL0     C 1969   8.758   6.820  -0.168  0.3193 -0.5881 -0.0713
  773MOL0     C 1970   8.838   6.772  -0.066  0.8363 -0.1040 -0.8721
  773MOL0     H 1971   8.995   6.643   0.424  1.0387  0.1595  1.1079
  773MOL0     H 1972   9.141   6.503   0.554 -2.7029  0.3373 -0.6224
  773MOL0     H 1973   9.315   6.453   0.657 -1.3929  0.0663 -2.2200
  773MOL0     H 1974   9.468   6.362   0.640  1.4007  1.3778 -2.8183
  773MOL0     H 1975   9.185   6.261   0.569 -0.4260 -1.5444 -0.3645
  773MOL0     H 1976   9.275   6.225   0.712 -1.5100 -0.5792 -0.5034
  773MOL0     H 1977   9.383   6.157   0.439 -1.9271  0.0816 -1.0994
  773MOL0     H 1978   9.280   6.056   0.536 -1.2860  0.9739  0.4198
  773MOL0     H 1979   9.536   6.168   0.669  0.6512 -1.0695 -0.1999
  773MOL0     H 1980   9.456   6.028   0.719  0.0167 -0.6653 -1.0450
  773MOL0     H 1981   9.665   5.991   0.602 -3.2403 -0.9542  3.6227
  773MOL0     H 1982   9.623   6.067   0.451  0.8981 -1.3141 -0.3957
  773MOL0     H 1983   9.423   5.893   0.441  0.0935 -1.7396 -1.1235
  773MOL0     H 1984   9.491   5.815   0.573 -2.2605  2.0158  0.6369
  773MOL0     H 1985   9.705   5.862   0.376  0.4849 -0.5973 -0.4296
  773MOL0     H 1986   9.655   5.709   0.453 -1.6728 -0.0697  0.9970
  773MOL0     H 1987   9.511   5.822   0.216  2.6574  3.0716  0.4910
  773MOL0     H 1988   9.464   5.675   0.298 -0.0544 -0.3596  0.6286
  773MOL0     H 1989   9.813   5.827   0.140  2.9690 -1.3340  0.4149
  773MOL0     H 1990   9.981   5.729  -0.056 -0.7884  0.5818  1.8070
  773MOL0     H 1991   9.852   5.690  -0.171 -2.3150  0.4913  0.4880
  773MOL0     H 1992   9.883   5.446  -0.139  0.4727  0.6447  0.8197
  773MOL0     H 1993  10.010   5.482  -0.022 -1.9234  1.5040  2.5244
  773MOL0     H 1994  10.101   5.624  -0.236 -0.7161  1.0520  3.4932
  773MOL0     H 1995  10.160   5.462  -0.214 -0.5371  0.6251  5.2295
  773MOL0     H 1996   9.941   5.384  -0.342  0.0485  0.5273 -0.4335
  773MOL0     H 1997  10.059   5.455  -0.457 -1.7850 -0.5524 -1.6556
  773MOL0     H 1998   9.682   5.534  -0.287  0.1468  0.9108  0.0128
  773MOL0     H 1999   9.477   5.483  -0.438  0.3922 -2.0398 -1.0662
  773MOL0     H 2000   9.338   5.668  -0.937  0.5159  0.1018  0.6413
  773MOL0     H 2001   9.118   5.639  -1.051  1.0133  1.4720  0.0043
  773MOL0     H 2002   8.890   5.283  -1.083 -0.1366  3.0860  0.4925
  773MOL0     H 2003   9.021   5.236  -1.199  0.6746  0.4575  0.3113
  773MOL0     H 2004   8.812   5.266  -1.334  0.4214 -0.6260  1.5604
  773MOL0     H 2005   8.911   5.414  -1.360  0.2185  2.7034  2.2741
  773MOL0     H 2006   8.785   5.532  -1.189 -1.5938 -0.2640  0.1101
  773MOL0     H 2007   8.680   5.394  -1.176 -0.8484 -0.7181 -1.3514
  773MOL0     H 2008   8.728   5.548  -1.444 -2.1107 -0.5258 -2.7499
  773MOL0     H 2009   8.602   5.432  -1.414 -1.6321  0.9289  1.9657
  773MOL0     H 2010   8.616   5.689  -1.258 -1.2867  0.0797  1.3389
  773MOL0     H 2011   8.486   5.570  -1.255 -0.6487  0.6056 -0.3976
  773MOL0     H 2012   8.486   5.644  -1.524 -3.5906  1.2654  0.2594
  773MOL0     H 2013   8.599   5.762  -1.465  0.4229  2.0550  3.1190
  773MOL0     H 2014   8.306   5.716  -1.396  0.3892 -0.1834  0.2076
  773MOL0     H 2015   8.398   5.837  -1.304  0.3822  1.7882 -0.5968
  773MOL0     H 2016   8.392   5.820  -1.609  3.2486 -0.2305 -0.2808
  773MOL0     H 2017   8.463   5.949  -1.524  1.6164 -1.9788  2.2262
  773MOL0     H 2018   9.152   5.215  -1.018 -1.1268  0.9923  4.0559
  773MOL0     H 2019   9.353   5.242  -0.878 -0.2297 -0.5702 -1.8349
  773MOL0     H 2020   9.720   5.513  -0.790 -1.7974  0.2905 -0.9621
  773MOL0     H 2021   9.914   5.565  -0.646  0.6784 -3.3831 -0.8443
  773MOL0     H 2022   9.408   6.477   0.223 -1.2863  1.4003 -2.8226
  773MOL0     H 2023   9.240   6.565   0.077 -2.7536 -0.2857 -0.2910
  773MOL0     H 2024   8.665   6.888   0.205  1.5398  1.3787  0.0230
  773MOL0     H 2025   8.510   6.976   0.010 -0.0413  1.2684 -0.9442
  773MOL0     H 2026   8.458   7.092  -0.349 -1.8385  2.8449  2.1283
  773MOL0     H 2027   8.486   7.118  -0.182  3.7138 -0.3923 -0.4095
  773MOL0     H 2028   8.342   6.874  -0.293 -1.9455  1.0346 -0.8771
  773MOL0     H 2029   8.315   6.931  -0.128 -1.1865  1.4623  1.0230
  773MOL0     H 2030   8.198   7.139  -0.195 -0.1159  1.2799 -2.3304
  773MOL0     H 2031   8.127   6.985  -0.242 -0.0906 -0.4217 -1.7624
  773MOL0     H 2032   8.101   7.144  -0.428 -1.5565 -1.9663  0.6657
  773MOL0     H 2033   8.274   7.153  -0.452  1.0810 -1.0008 -0.6203
  773MOL0     H 2034   8.199   6.788  -0.623  0.9647  0.8598 -0.9949
  773MOL0     H 2035   8.793   6.796  -0.267 -0.4339 -2.6771  0.1312
  773MOL0     H 2036   8.920   6.711  -0.101  1.5976  1.3969 -1.7982
  774MOL0     O 2037  10.475   0.825   2.843  0.0179  0.8384  0.4852
  774MOL0     C 2038  10.519   0.943   2.838  0.2985  1.1423  0.5159
  774MOL0     O 2039  10.523   1.031   2.944 -0.0968  0.5244 -0.5968
  774MOL0     C 2040  10.480   0.990   3.070 -0.5792  0.1281  0.2045
  774MOL0     C 2041  10.566   0.977   3.179  0.1675  0.1930  0.4227
  774MOL0     C 2042  10.513   0.943   3.308  0.4506 -0.1645  0.0623
  774MOL0     C 2043  10.368   0.930   3.324 -0.0150  0.1476  0.2909
  774MOL0     O 2044  10.319   0.903   3.445  0.0698  0.6655  0.8482
  774MOL0     C 2045  10.391   0.823   3.536 -0.5873  0.7498  0.4492
  774MOL0     C 2046  10.332   0.820   3.677 -0.3560 -0.0991  0.1609
  774MOL0     C 2047  10.212   0.727   3.703  0.3096  0.1738  0.7581
  774MOL0     C 2048  10.069   0.781   3.670  0.3809 -0.2338 -0.3270
  774MOL0     C 2049   9.965   0.698   3.745 -0.5135 -0.5131  0.0947
  774MOL0     C 2050   9.826   0.755   3.717  0.0308  0.6520  0.1310
  774MOL0     C 2051   9.716   0.663   3.763  0.7253 -0.3716  0.0547
  774MOL0     C 2052   9.733   0.630   3.912  0.3908  0.3487  0.3113
  774MOL0     N 2053   9.613   0.573   3.968 -1.0174 -0.7118  1.1127
  774MOL0     C 2054   9.557   0.443   3.955 -0.7023  1.7967 -0.5210
  774MOL0     C 2055   9.449   0.445   4.033  0.7256 -0.4271 -0.4488
  774MOL0     C 2056   9.365   0.321   4.076 -0.1720  0.0167  0.8954
  774MOL0     C 2057   9.217   0.362   4.100 -0.6465  0.0119 -0.3853
  774MOL0     C 2058   9.125   0.241   4.119  0.0897  0.3467 -0.0120
  774MOL0     C 2059   8.971   0.271   4.108  0.4438 -0.6556  0.7041
  774MOL0     O 2060   8.893   0.148   4.126  0.3244  0.2064 -0.0977
  774MOL0     C 2061   8.762   0.160   4.154 -0.5075 -0.4917  1.1014
  774MOL0     C 2062   8.691   0.285   4.158  0.6822  0.3779  0.0095
  774MOL0     C 2063   8.556   0.278   4.181  0.2487  0.1875  0.1977
  774MOL0     C 2064   8.484   0.160   4.221  0.1299 -0.4406 -0.0968
  774MOL0     C 2065   8.340   0.159   4.238  0.6396  0.2720  0.0370
  774MOL0     O 2066   8.297   0.044   4.298  0.3515  0.0156  0.2804
  774MOL0     C 2067   8.164   0.022   4.318 -0.0395  0.9399  0.3367
  774MOL0     C 2068   8.097   0.108   4.410  0.8320  0.2878 -0.7187
  774MOL0     C 2069   7.970   0.084   4.453 -0.2347 -0.0777 -0.8426
  774MOL0     C 2070   7.893  -0.026   4.399 -0.4307  1.2152 -0.1254
  774MOL0     O 2071   7.757  -0.050   4.411 -0.2842  0.0376 -0.4737
  774MOL0     C 2072   7.693   0.054   4.485  1.1124  0.3015  0.2891
  774MOL0     C 2073   7.537   0.031   4.492  0.0133 -0.2436  0.0027
  774MOL0     C 2074   7.498  -0.112   4.490  0.7455  0.3679 -0.3663
  774MOL0     C 2075   7.344  -0.134   4.528  0.7557 -0.1576  0.0709
  774MOL0     C 2076   7.299  -0.273   4.559  0.3646 -0.2190 -0.2394
  774MOL0     C 2077   7.182  -0.317   4.467 -0.5118 -0.0426 -0.1781
  774MOL0     C 2078   7.156  -0.462   4.494 -0.1445  0.5590 -0.2135
  774MOL0     C 2079   7.061  -0.531   4.399 -0.0732 -0.1419  0.3437
  774MOL0    Cl 2080   6.906  -0.445   4.424  0.3448  0.4503  0.1873
  774MOL0     C 2081   7.957  -0.110   4.309 -0.4269  0.0521  0.2163
  774MOL0     C 2082   8.089  -0.083   4.268 -1.0422 -0.4678  0.9649
  774MOL0     O 2083   8.273   0.254   4.197  0.0050  0.3026  0.1980
  774MOL0     C 2084   8.556   0.043   4.224 -0.1214 -0.3160 -0.4277
  774MOL0     C 2085   8.693   0.042   4.189  0.2112 -0.2207  0.7271
  774MOL0     N 2086   9.439   0.573   4.095 -0.2502  0.4659  0.5123
  774MOL0     N 2087   9.542   0.642   4.063  0.3210  0.2373  0.2444
  774MOL0     C 2088  10.289   0.927   3.205 -0.3109  0.3886 -0.2259
  774MOL0     C 2089  10.345   0.960   3.084  0.5908  0.4653 -0.1585
  774MOL0     C 2090  10.573   0.982   2.708  0.1432 -0.2176 -0.2156
  774MOL0     C 2091  10.677   1.079   2.699 -0.1596 -0.7561  0.0593
  774MOL0     C 2092  10.739   1.111   2.584 -0.6503 -0.9533  0.6731
  774MOL0     C 2093  10.700   1.038   2.472 -0.3941  0.3530  0.6778
  774MOL0     O 2094  10.753   1.081   2.351  0.1736  0.3220  0.2130
  774MOL0     C 2095  10.838   0.983   2.301 -0.3935 -0.1751  0.3097
  774MOL0     C 2096  10.979   1.058   2.290  0.0918 -0.4030  0.1612
  774MOL0     C 2097  11.088   0.978   2.218  0.3315  0.6326 -0.1426
  774MOL0     C 2098  11.128   0.857   2.304 -0.2697 -0.0973 -1.2415
  774MOL0     C 2099  11.159   0.749   2.217  0.5633  0.2335 -0.4256
  774MOL0     C 2100  11.184   0.657   2.139  1.1101  0.4831 -0.1755
  774MOL0     C 2101  10.600   0.948   2.468  0.0208  0.3267 -0.4234
  774MOL0     C 2102  10.529   0.916   2.589  0.6208  0.7561  0.2580
  774MOL0     H 2103  10.674   0.988   3.175  0.1401  0.8802  1.3667
  774MOL0     H 2104  10.580   0.944   3.393 -0.8746  0.9878  1.1390
  774MOL0     H 2105  10.484   0.878   3.555 -0.2823  0.2900  0.2970
  774MOL0     H 2106  10.414   0.721   3.503  0.0762  0.9038  0.4199
  774MOL0     H 2107  10.322   0.923   3.711  0.1093 -0.6173  1.9938
  774MOL0     H 2108  10.418   0.785   3.735 -0.7697  1.4731  1.7982
  774MOL0     H 2109  10.215   0.707   3.810 -1.3867 -2.9709  0.3237
  774MOL0     H 2110  10.234   0.636   3.647 -0.0275 -0.9494  2.3874
  774MOL0     H 2111  10.056   0.880   3.715  0.1438 -1.1151  1.6455
  774MOL0     H 2112  10.047   0.783   3.563  0.7497 -1.7710 -0.4615
  774MOL0     H 2113   9.988   0.703   3.851 -1.0658 -1.9040  0.2961
  774MOL0     H 2114   9.972   0.595   3.710 -0.7724 -1.1728  1.9299
  774MOL0     H 2115   9.806   0.782   3.613 -0.0940 -0.6400 -0.1922
  774MOL0     H 2116   9.823   0.849   3.774  1.1339 -0.9588  3.0609
  774MOL0     H 2117   9.613   0.693   3.745  0.5034 -0.6585  0.7772
  774MOL0     H 2118   9.736   0.570   3.709  0.3660  1.7922 -4.2116
  774MOL0     H 2119   9.758   0.720   3.969  0.4777 -1.6246  3.6586
  774MOL0     H 2120   9.816   0.559   3.913  0.2547  0.1911  0.4605
  774MOL0     H 2121   9.604   0.364   3.896 -0.6518  2.6759 -1.7139
  774MOL0     H 2122   9.408   0.261   4.157 -0.7345 -2.2887 -0.4078
  774MOL0     H 2123   9.369   0.250   3.993  1.8710 -0.7605  1.5905
  774MOL0     H 2124   9.159   0.414   4.024 -2.8337 -1.1341  0.3918
  774MOL0     H 2125   9.220   0.426   4.189 -1.3653  0.0808 -0.4022
  774MOL0     H 2126   9.149   0.159   4.051  1.2917  2.5921 -2.4961
  774MOL0     H 2127   9.132   0.196   4.219 -0.9275 -3.8441 -1.6195
  774MOL0     H 2128   8.945   0.321   4.015 -1.6112  1.2003  2.1622
  774MOL0     H 2129   8.939   0.345   4.182  0.2567 -0.6727  0.6409
  774MOL0     H 2130   8.743   0.376   4.130  0.5137  0.5604  0.2908
  774MOL0     H 2131   8.507   0.375   4.183  0.9681  0.9573 -5.4204
  774MOL0     H 2132   8.159   0.190   4.446  3.2447 -0.8453 -2.0158
  774MOL0     H 2133   7.930   0.159   4.519  1.5305 -0.3643  0.6427
  774MOL0     H 2134   7.729   0.154   4.461  3.4023 -0.0455  1.9367
  774MOL0     H 2135   7.735   0.061   4.586  0.7038  3.7229  0.3331
  774MOL0     H 2136   7.488   0.074   4.405  0.6948 -0.1686 -0.3520
  774MOL0     H 2137   7.501   0.085   4.580 -1.3914 -2.1799  0.6850
  774MOL0     H 2138   7.559  -0.154   4.570  2.2112  1.3620 -0.9123
  774MOL0     H 2139   7.521  -0.160   4.395  2.3388 -1.4303  0.8605
  774MOL0     H 2140   7.321  -0.068   4.612 -1.2118 -0.6109 -0.0522
  774MOL0     H 2141   7.283  -0.102   4.442 -2.1340 -1.8615  1.3377
  774MOL0     H 2142   7.258  -0.280   4.661 -0.2462  1.2079 -0.3672
  774MOL0     H 2143   7.380  -0.345   4.547  1.4464  0.6717  1.3375
  774MOL0     H 2144   7.215  -0.319   4.363  2.9322  1.8134  0.7252
  774MOL0     H 2145   7.097  -0.253   4.494 -1.1633 -0.8447 -0.3135
  774MOL0     H 2146   7.246  -0.524   4.486 -1.4332 -1.2327 -1.7651
  774MOL0     H 2147   7.124  -0.475   4.598 -2.4052 -1.3907 -1.0721
  774MOL0     H 2148   7.052  -0.640   4.409  0.5738 -0.1707  0.6443
  774MOL0     H 2149   7.101  -0.526   4.297  1.4814  0.2958  0.9488
  774MOL0     H 2150   7.906  -0.193   4.260  0.7762  0.1135 -1.2152
  774MOL0     H 2151   8.133  -0.133   4.183  0.9270  0.0820  1.6051
  774MOL0     H 2152   8.504  -0.051   4.237 -0.6902 -0.0242 -0.5385
  774MOL0     H 2153   8.759  -0.044   4.185  1.0146  0.3658 -3.3217
  774MOL0     H 2154  10.186   0.892   3.209  0.0223 -0.6044  0.1211
  774MOL0     H 2155  10.277   0.971   2.999 -0.4729 -0.3667  0.5486
  774MOL0     H 2156  10.705   1.138   2.787  1.1711 -2.3004  0.7158
  774MOL0     H 2157  10.813   1.191   2.580 -1.6045 -0.0322  0.8069
  774MOL0     H 2158  10.802   0.957   2.201 -1.0815 -1.9747  0.9687
  774MOL0     H 2159  10.850   0.896   2.368  0.9500 -0.8319 -0.7267
  774MOL0     H 2160  10.969   1.153   2.238  6.1410 -0.3413 -1.6778
  774MOL0     H 2161  11.020   1.094   2.385  0.7492  0.4556 -0.4290
  774MOL0     H 2162  11.176   1.043   2.210  0.2635  1.0496  1.8361
  774MOL0     H 2163  11.046   0.956   2.120  2.6930 -0.0871 -1.0766
  774MOL0     H 2164  11.219   0.892   2.354  0.3232  1.7976 -3.4602
  774MOL0     H 2165  11.055   0.827   2.379  1.9471  0.9775  1.5440
  774MOL0     H 2166  11.200   0.586   2.061 -1.0404 -0.0134 -0.2234
  774MOL0     H 2167  10.574   0.895   2.377 -0.9227  0.8121 -0.4456
  774MOL0     H 2168  10.446   0.846   2.594  0.3830  1.0328  0.1606
  775MOL0     O 2169   2.154   2.942   7.325  0.0305  0.0049  0.2907
  775MOL0     C 2170   2.206   2.970   7.218 -0.0722 -0.0968  0.2636
  775MOL0     O 2171   2.137   3.001   7.100 -0.1829 -0.3254 -0.0606
  775MOL0     C 2172   2.002   3.025   7.112  0.3229  0.3188  0.0788
  775MOL0     C 2173   1.962   3.159   7.121 -0.1406 -0.5146 -0.3100
  775MOL0     C 2174   1.827   3.187   7.147  0.4382 -0.0404 -0.4199
  775MOL0     C 2175   1.730   3.089   7.141  0.0931 -0.6167  0.3133
  775MOL0     O 2176   1.601   3.125   7.159  0.0186  0.1932  0.1800
  775MOL0     C 2177   1.553   3.253   7.108  0.4693 -0.3248 -0.2823
  775MOL0     C 2178   1.403   3.271   7.127 -0.1448  0.9714 -1.4213
  775MOL0     C 2179   1.354   3.295   7.268  0.2627  0.1046  0.2593
  775MOL0     C 2180   1.221   3.378   7.259 -0.1058  1.0245 -0.4424
  775MOL0     C 2181   1.199   3.475   7.384  0.4828  0.6152  0.4889
  775MOL0     C 2182   1.090   3.584   7.351  0.1991 -1.1446 -0.5954
  775MOL0     C 2183   1.072   3.676   7.477  0.5622  0.3866 -0.2290
  775MOL0     C 2184   0.941   3.770   7.457 -0.3091  0.0603 -1.0866
  775MOL0     N 2185   0.812   3.706   7.429  0.1184 -0.0814 -0.7412
  775MOL0     C 2186   0.746   3.643   7.527  0.2700 -0.2637 -0.2067
  775MOL0     C 2187   0.640   3.587   7.458 -0.3799 -0.3830 -1.2925
  775MOL0     C 2188   0.534   3.494   7.526 -0.5673 -0.4294 -0.6165
  775MOL0     C 2189   0.449   3.573   7.617  0.6349 -0.3677 -0.4774
  775MOL0     C 2190   0.357   3.484   7.712  0.6903 -0.0339  0.7478
  775MOL0     C 2191   0.243   3.407   7.638 -0.7577 -0.6437  0.0277
  775MOL0     O 2192   0.181   3.492   7.540  0.3387  1.0478  0.2525
  775MOL0     C 2193   0.102   3.422   7.453 -1.2194  0.0846 -0.0981
  775MOL0     C 2194  -0.010   3.350   7.498  0.4889 -0.8765  0.1699
  775MOL0     C 2195  -0.082   3.288   7.398  0.5840  0.6243  0.0273
  775MOL0     C 2196  -0.045   3.276   7.262  0.0418 -0.4218  0.0594
  775MOL0     C 2197  -0.144   3.227   7.170 -0.8121  0.8645  0.2944
  775MOL0     O 2198  -0.249   3.158   7.207 -0.2048  0.5457  0.2258
  775MOL0     C 2199  -0.343   3.105   7.116 -0.4623 -0.9132 -0.0261
  775MOL0     C 2200  -0.314   3.019   7.010 -0.0739 -0.6317  0.3938
  775MOL0     C 2201  -0.421   2.973   6.933  0.4978 -1.5042  0.7547
  775MOL0     C 2202  -0.553   3.002   6.960 -0.1036  0.1676 -0.8583
  775MOL0     O 2203  -0.660   2.959   6.895 -0.2007  0.7985 -0.1899
  775MOL0     C 2204  -0.789   2.931   6.967 -0.4820 -0.1865  0.2092
  775MOL0     C 2205  -0.874   2.851   6.875 -0.3318 -1.2388 -0.4929
  775MOL0     C 2206  -1.017   2.828   6.929 -0.3322  0.5723 -0.5491
  775MOL0     C 2207  -1.013   2.717   7.044  0.5030  0.0116 -0.0501
  775MOL0     C 2208  -1.155   2.650   7.076 -0.7523  0.1367  0.5903
  775MOL0     C 2209  -1.264   2.753   7.122  0.5550 -1.1165 -0.1848
  775MOL0     C 2210  -1.375   2.667   7.184 -1.4130  0.5994  0.6811
  775MOL0     C 2211  -1.501   2.746   7.228  0.8616  0.3399 -0.6036
  775MOL0    Cl 2212  -1.623   2.725   7.098 -0.3628  0.0924  0.1227
  775MOL0     C 2213  -0.577   3.084   7.069 -0.4620 -0.2612  0.0915
  775MOL0     C 2214  -0.471   3.129   7.149 -0.2393  0.6469  0.9075
  775MOL0     O 2215  -0.113   3.235   7.051  0.4798  0.7009  0.2063
  775MOL0     C 2216   0.070   3.337   7.218 -0.3283  0.9124 -1.1704
  775MOL0     C 2217   0.140   3.411   7.316  0.4852  0.0561  1.0995
  775MOL0     N 2218   0.643   3.621   7.328  1.0766  0.6154  0.6249
  775MOL0     N 2219   0.751   3.685   7.306 -0.9867 -0.1410 -0.3934
  775MOL0     C 2220   1.767   2.956   7.132 -0.2472 -0.0624 -0.8629
  775MOL0     C 2221   1.905   2.920   7.126 -0.8137  0.3975 -1.1932
  775MOL0     C 2222   2.350   2.938   7.209  0.5241  0.1203 -1.0594
  775MOL0     C 2223   2.423   2.958   7.083 -0.7265  1.0791 -0.1707
  775MOL0     C 2224   2.563   2.926   7.087 -0.7846  0.2332 -0.8057
  775MOL0     C 2225   2.637   2.888   7.208  0.5902  0.1838  0.5972
  775MOL0     O 2226   2.770   2.851   7.210  0.0583 -0.0150 -0.5741
  775MOL0     C 2227   2.846   2.857   7.088 -0.5897  0.2504 -1.2488
  775MOL0     C 2228   2.992   2.825   7.105 -1.0809  0.3604 -0.1281
  775MOL0     C 2229   3.089   2.888   6.996  0.2859  0.1824 -0.3126
  775MOL0     C 2230   3.238   2.855   7.024 -0.4578 -0.5572  0.4690
  775MOL0     C 2231   3.312   2.919   6.903  0.2877  0.4708 -0.9794
  775MOL0     C 2232   3.351   2.958   6.797 -0.3682 -0.9381 -0.3717
  775MOL0     C 2233   2.562   2.885   7.322 -0.3642 -0.7323 -0.6827
  775MOL0     C 2234   2.423   2.900   7.325  0.5662 -0.7543 -0.3497
  775MOL0     H 2235   2.028   3.244   7.115 -1.8510  1.2390  3.1200
  775MOL0     H 2236   1.795   3.287   7.175 -0.8458 -0.2678 -0.9996
  775MOL0     H 2237   1.573   3.256   7.001  1.8216  0.0056 -0.0386
  775MOL0     H 2238   1.607   3.341   7.145  2.1777 -0.9981 -1.0340
  775MOL0     H 2239   1.348   3.184   7.089  3.4005 -2.3678  0.4381
  775MOL0     H 2240   1.381   3.365   7.075  2.1398  2.9873  0.9922
  775MOL0     H 2241   1.417   3.370   7.316 -0.0612 -0.3156  1.3630
  775MOL0     H 2242   1.342   3.200   7.321  4.9565 -1.0618 -0.3474
  775MOL0     H 2243   1.215   3.439   7.168  1.0654  0.8785 -0.6348
  775MOL0     H 2244   1.139   3.306   7.251 -0.9577  1.8293  0.7056
  775MOL0     H 2245   1.291   3.528   7.413  1.5313 -1.0655  0.3785
  775MOL0     H 2246   1.170   3.423   7.475 -1.7906  2.0204  0.6411
  775MOL0     H 2247   0.997   3.537   7.316  1.1174 -2.1349 -1.7723
  775MOL0     H 2248   1.120   3.649   7.269  1.5923 -0.8659  0.1123
  775MOL0     H 2249   1.056   3.617   7.568 -3.2258  0.8125 -0.4657
  775MOL0     H 2250   1.162   3.738   7.487  0.3685  0.5728  0.4300
  775MOL0     H 2251   0.967   3.844   7.381 -0.9407  1.0980 -0.3120
  775MOL0     H 2252   0.939   3.826   7.550  3.1497 -0.2274 -0.7115
  775MOL0     H 2253   0.766   3.630   7.633 -1.6268 -0.2152  0.1935
  775MOL0     H 2254   0.579   3.411   7.581 -0.4543  1.4915  2.3992
  775MOL0     H 2255   0.463   3.458   7.450 -2.1886  1.8733 -0.2618
  775MOL0     H 2256   0.387   3.649   7.568 -0.7148  0.3833  2.2018
  775MOL0     H 2257   0.523   3.617   7.685 -0.8031  0.1498  0.8321
  775MOL0     H 2258   0.418   3.408   7.761 -0.0812 -0.8080  0.5535
  775MOL0     H 2259   0.308   3.551   7.783 -0.7806  2.0036 -1.9968
  775MOL0     H 2260   0.176   3.388   7.723 -0.5118 -0.3995  0.2767
  775MOL0     H 2261   0.287   3.315   7.597 -0.0201 -0.4393  0.3539
  775MOL0     H 2262  -0.050   3.360   7.598 -1.8581  0.1512 -0.8022
  775MOL0     H 2263  -0.174   3.238   7.429 -0.8991  0.9359 -3.4851
  775MOL0     H 2264  -0.215   2.978   6.993  1.0207  1.8725  0.4023
  775MOL0     H 2265  -0.412   2.902   6.852 -2.4910 -0.7770 -0.3689
  775MOL0     H 2266  -0.836   3.026   6.996  3.8516  2.3546 -0.2554
  775MOL0     H 2267  -0.777   2.870   7.057  0.4749 -1.2407 -0.6044
  775MOL0     H 2268  -0.825   2.755   6.858  1.8872 -1.0822  3.6658
  775MOL0     H 2269  -0.899   2.907   6.785 -2.2244 -0.7676  0.2667
  775MOL0     H 2270  -1.077   2.789   6.847  1.2079  0.5223 -1.6931
  775MOL0     H 2271  -1.054   2.924   6.967  1.9493  0.9356  0.9353
  775MOL0     H 2272  -0.943   2.642   7.005  1.5286  0.9850 -0.1488
  775MOL0     H 2273  -0.966   2.761   7.132  3.8851  1.1073 -2.1947
  775MOL0     H 2274  -1.143   2.578   7.156  0.2803 -1.2974 -0.7922
  775MOL0     H 2275  -1.188   2.604   6.982  3.7129  1.5474 -1.9862
  775MOL0     H 2276  -1.298   2.813   7.037  0.5331 -1.0211 -0.1087
  775MOL0     H 2277  -1.227   2.819   7.201 -0.2379  0.6348 -1.2005
  775MOL0     H 2278  -1.403   2.586   7.116  1.8419  0.2218 -0.3492
  775MOL0     H 2279  -1.342   2.625   7.280 -1.4125  0.0358  0.4419
  775MOL0     H 2280  -1.474   2.849   7.253 -0.2855  0.0445  2.3011
  775MOL0     H 2281  -1.533   2.704   7.323 -0.2770 -0.2666 -1.2432
  775MOL0     H 2282  -0.679   3.109   7.096 -0.3037 -0.0453  0.4973
  775MOL0     H 2283  -0.491   3.184   7.241  1.6302 -0.8224  2.2893
  775MOL0     H 2284   0.105   3.334   7.116  0.6062  1.9115 -0.9063
  775MOL0     H 2285   0.231   3.466   7.295 -0.2332  1.1174  0.7094
  775MOL0     H 2286   1.692   2.879   7.119  0.7676 -0.7345 -3.4532
  775MOL0     H 2287   1.932   2.815   7.129 -2.5393 -0.0762 -0.8798
  775MOL0     H 2288   2.383   2.980   6.985  2.6029  0.9689 -1.6563
  775MOL0     H 2289   2.622   2.932   6.996  0.1092 -0.1010 -0.2597
  775MOL0     H 2290   2.854   2.962   7.057 -1.6814  0.2476 -1.5657
  775MOL0     H 2291   2.798   2.795   7.012 -2.3530 -1.7198  1.3131
  775MOL0     H 2292   3.015   2.884   7.195 -0.0932  0.7864 -0.6440
  775MOL0     H 2293   3.016   2.718   7.111  5.0274  1.4264  2.0628
  775MOL0     H 2294   3.084   2.997   7.005  0.0545  0.3190 -1.8575
  775MOL0     H 2295   3.048   2.857   6.900 -1.4650  3.4185 -0.7735
  775MOL0     H 2296   3.269   2.895   7.121  1.9464 -0.2600 -0.3599
  775MOL0     H 2297   3.260   2.748   7.035  2.3763 -0.0656  0.3887
  775MOL0     H 2298   3.390   2.967   6.698  1.2072 -0.0153  0.2992
  775MOL0     H 2299   2.629   2.866   7.405  2.5466  2.7172 -1.9496
  775MOL0     H 2300   2.363   2.893   7.415  0.2591  2.9546 -0.1353
  776MOL0     O 2301   1.945   2.272   0.673 -0.2650 -0.2700 -0.8057
  776MOL0     C 2302   2.044   2.240   0.601 -0.3342  0.1683 -0.1460
  776MOL0     O 2303   2.044   2.182   0.478 -0.3496  0.5094 -0.4206
  776MOL0     C 2304   1.918   2.139   0.447 -0.3180 -0.4559 -0.4386
  776MOL0     C 2305   1.843   2.225   0.369 -0.0476 -0.0054  0.2672
  776MOL0     C 2306   1.721   2.183   0.308 -0.0826  0.3827 -0.3203
  776MOL0     C 2307   1.673   2.056   0.337  0.2868 -0.0011 -0.3908
  776MOL0     O 2308   1.550   2.013   0.294  0.0848 -0.3837 -0.6685
  776MOL0     C 2309   1.445   2.096   0.245  0.3168 -0.5841  0.0773
  776MOL0     C 2310   1.315   2.027   0.282 -0.2551 -0.0031 -0.1968
  776MOL0     C 2311   1.206   2.042   0.173 -0.3221 -0.0522  0.3776
  776MOL0     C 2312   1.087   1.963   0.218 -0.4604 -0.7786 -0.5254
  776MOL0     C 2313   0.983   1.983   0.110  0.3232 -0.6564  0.9365
  776MOL0     C 2314   0.865   1.897   0.121  0.3071  0.5293 -0.3883
  776MOL0     C 2315   0.753   1.912   0.012 -0.8661 -0.7540  0.5732
  776MOL0     C 2316   0.624   1.827   0.030  0.2707  0.5165  0.2561
  776MOL0     N 2317   0.518   1.875  -0.059  0.2749  0.7736  0.3715
  776MOL0     C 2318   0.395   1.805  -0.061 -0.2311 -0.1700  0.7035
  776MOL0     C 2319   0.349   1.842  -0.190 -0.2248  0.4229 -0.3145
  776MOL0     C 2320   0.216   1.796  -0.249 -0.3532  0.1285 -0.5505
  776MOL0     C 2321   0.083   1.849  -0.193 -0.5682  0.2393  0.2726
  776MOL0     C 2322   0.079   2.005  -0.195  0.3718  1.0344 -0.4603
  776MOL0     C 2323  -0.057   2.063  -0.141 -0.7086  0.4405  0.7341
  776MOL0     O 2324  -0.058   2.039  -0.004 -0.7487  0.2044  0.6429
  776MOL0     C 2325  -0.179   2.049   0.049  0.0137 -0.2581  1.1260
  776MOL0     C 2326  -0.298   2.100  -0.015 -0.2568  0.3388 -0.0428
  776MOL0     C 2327  -0.414   2.124   0.051 -0.2325 -0.5481 -0.0389
  776MOL0     C 2328  -0.416   2.113   0.194 -0.1254 -0.9114 -0.3678
  776MOL0     C 2329  -0.536   2.154   0.270  0.5048  0.8515  0.6608
  776MOL0     O 2330  -0.536   2.153   0.408  0.7069  0.0717 -0.8787
  776MOL0     C 2331  -0.649   2.195   0.480  0.0912 -0.1056  0.0851
  776MOL0     C 2332  -0.758   2.112   0.486 -0.1017  0.1137 -0.4230
  776MOL0     C 2333  -0.863   2.142   0.569  0.1658 -0.3374 -0.2867
  776MOL0     C 2334  -0.871   2.267   0.638 -1.1842 -0.0040 -0.8294
  776MOL0     O 2335  -0.962   2.297   0.737  0.0508  0.0141 -0.1237
  776MOL0     C 2336  -1.058   2.199   0.772  0.5936  0.2123  1.0664
  776MOL0     C 2337  -1.159   2.258   0.869 -0.2669  0.1481 -0.8911
  776MOL0     C 2338  -1.107   2.292   1.008 -0.2415  0.8023 -0.7263
  776MOL0     C 2339  -1.209   2.360   1.089 -0.0343 -0.3367  0.8670
  776MOL0     C 2340  -1.164   2.378   1.234 -1.4124 -0.3137 -0.2484
  776MOL0     C 2341  -1.265   2.454   1.313 -0.1153 -0.8848 -0.2302
  776MOL0     C 2342  -1.223   2.444   1.456  1.1236  0.4618 -0.2401
  776MOL0     C 2343  -1.305   2.539   1.544  0.4248  0.0624 -0.6113
  776MOL0    Cl 2344  -1.481   2.491   1.534  0.1112 -0.2272 -0.1191
  776MOL0     C 2345  -0.764   2.353   0.627 -0.5029  0.9852 -0.4376
  776MOL0     C 2346  -0.651   2.321   0.542  0.2477  0.1139  0.7938
  776MOL0     O 2347  -0.631   2.194   0.198  0.6037  0.2891  0.2712
  776MOL0     C 2348  -0.301   2.074   0.260  0.1839  0.0832  0.5232
  776MOL0     C 2349  -0.186   2.040   0.186 -0.1199 -0.1850 -0.0736
  776MOL0     N 2350   0.433   1.922  -0.255 -1.1508  0.0370  0.7708
  776MOL0     N 2351   0.542   1.924  -0.184  0.4072 -0.0935 -0.8137
  776MOL0     C 2352   1.748   1.974   0.420  0.2538  0.0934  0.5884
  776MOL0     C 2353   1.870   2.009   0.475  0.4031  0.2394  0.4213
  776MOL0     C 2354   2.173   2.280   0.660 -1.2123 -0.3897 -0.2778
  776MOL0     C 2355   2.286   2.282   0.581  0.7937  0.9406  0.8805
  776MOL0     C 2356   2.412   2.332   0.626 -0.3426  0.1798 -0.3693
  776MOL0     C 2357   2.438   2.381   0.750  1.4070 -0.0831  0.4295
  776MOL0     O 2358   2.561   2.413   0.793 -0.0585 -0.8656 -0.2304
  776MOL0     C 2359   2.574   2.496   0.912 -0.2522 -0.0563  0.0369
  776MOL0     C 2360   2.723   2.517   0.948 -0.1914 -0.7948  0.4224
  776MOL0     C 2361   2.812   2.391   0.958 -0.6575  0.0232  0.9734
  776MOL0     C 2362   2.783   2.296   1.076 -0.2539  0.2618  0.2050
  776MOL0     C 2363   2.785   2.371   1.204 -0.1335  0.5275  0.2687
  776MOL0     C 2364   2.769   2.410   1.310 -0.4040 -0.0201 -0.1700
  776MOL0     C 2365   2.326   2.372   0.837  0.5309  0.2296  0.2585
  776MOL0     C 2366   2.195   2.322   0.798  0.7015 -0.5781  0.4958
  776MOL0     H 2367   1.888   2.324   0.362 -0.8631  0.5147  1.9019
  776MOL0     H 2368   1.662   2.255   0.252 -0.5573  0.3221  0.0950
  776MOL0     H 2369   1.457   2.098   0.136 -3.0945  0.0755 -0.4182
  776MOL0     H 2370   1.451   2.200   0.278 -5.2245 -0.0921  0.4204
  776MOL0     H 2371   1.281   2.073   0.375  0.3036 -1.1297  0.5947
  776MOL0     H 2372   1.330   1.920   0.298  1.6377 -0.2264 -2.7562
  776MOL0     H 2373   1.246   2.010   0.077  2.5639  0.7262  1.2318
  776MOL0     H 2374   1.190   2.149   0.163 -1.0591 -0.0841  1.0464
  776MOL0     H 2375   1.120   1.859   0.229 -2.4394 -1.4948 -0.8266
  776MOL0     H 2376   1.059   1.998   0.317 -0.4373 -0.0914 -0.7617
  776MOL0     H 2377   1.022   1.961   0.010 -4.5928  0.0172 -1.4615
  776MOL0     H 2378   0.948   2.086   0.101  1.1535 -0.3902  0.6949
  776MOL0     H 2379   0.817   1.922   0.216  3.0625  0.5764  1.0829
  776MOL0     H 2380   0.893   1.791   0.119 -1.1491  0.1246 -1.6097
  776MOL0     H 2381   0.716   2.015   0.013  1.1454  0.0285  2.8047
  776MOL0     H 2382   0.797   1.885  -0.084 -0.4352  1.7297  0.0029
  776MOL0     H 2383   0.603   1.846   0.136  2.8663  1.2258  0.7177
  776MOL0     H 2384   0.642   1.721   0.011 -1.3044  0.4989 -1.3898
  776MOL0     H 2385   0.349   1.754   0.023 -0.8484  1.9359  1.6943
  776MOL0     H 2386   0.218   1.687  -0.241  1.4006  0.1563 -0.3223
  776MOL0     H 2387   0.222   1.828  -0.353  2.8108  1.6156 -0.0197
  776MOL0     H 2388   0.088   1.819  -0.087 -3.9155 -0.1632  0.4113
  776MOL0     H 2389   0.002   1.792  -0.240 -0.6032 -0.4777  1.1594
  776MOL0     H 2390   0.156   2.047  -0.130  1.6593 -0.0215 -1.2575
  776MOL0     H 2391   0.107   2.037  -0.296 -0.4865  3.2463 -0.0689
  776MOL0     H 2392  -0.145   2.026  -0.195 -1.9788  0.5191  2.6161
  776MOL0     H 2393  -0.054   2.172  -0.152  0.5183  0.1427 -3.1239
  776MOL0     H 2394  -0.311   2.113  -0.122 -2.0415 -0.7107 -0.0112
  776MOL0     H 2395  -0.502   2.170   0.007  1.1283  1.7698 -0.4533
  776MOL0     H 2396  -0.748   2.020   0.430 -0.5070 -0.3582  0.2706
  776MOL0     H 2397  -0.950   2.078   0.583  0.1545 -0.0784  0.8863
  776MOL0     H 2398  -1.011   2.103   0.796  0.3649 -0.2540 -0.2837
  776MOL0     H 2399  -1.109   2.182   0.677  0.2276  6.6866 -0.3485
  776MOL0     H 2400  -1.241   2.187   0.883 -2.4859  2.8623  1.0329
  776MOL0     H 2401  -1.197   2.351   0.826 -0.0243 -0.3503 -2.2388
  776MOL0     H 2402  -1.020   2.359   1.009 -1.2716  2.4090  3.6488
  776MOL0     H 2403  -1.097   2.202   1.069 -0.7610  0.0928 -1.6764
  776MOL0     H 2404  -1.222   2.461   1.050 -2.0734 -1.3505 -1.3081
  776MOL0     H 2405  -1.298   2.299   1.071 -1.2083  1.3492  0.7391
  776MOL0     H 2406  -1.066   2.427   1.238 -1.7013  0.3042 -0.5650
  776MOL0     H 2407  -1.156   2.277   1.274 -0.3462 -0.0147  0.3391
  776MOL0     H 2408  -1.360   2.401   1.299  0.6701 -1.8318 -2.3767
  776MOL0     H 2409  -1.279   2.559   1.283 -1.6044 -1.8939 -3.5325
  776MOL0     H 2410  -1.250   2.339   1.472  0.3513  0.6815 -0.0355
  776MOL0     H 2411  -1.116   2.464   1.459  1.0160  0.9444  1.7125
  776MOL0     H 2412  -1.301   2.637   1.495  1.3282  0.3049 -0.0722
  776MOL0     H 2413  -1.264   2.558   1.643  2.6698 -1.1679 -1.2494
  776MOL0     H 2414  -0.761   2.449   0.677 -1.2664  0.6753  0.2244
  776MOL0     H 2415  -0.581   2.400   0.515  0.9338 -0.8653 -0.3525
  776MOL0     H 2416  -0.296   2.082   0.368 -1.9077 -0.1398  0.6877
  776MOL0     H 2417  -0.093   2.020   0.238  1.1061  1.2726 -1.6132
  776MOL0     H 2418   1.697   1.880   0.439 -0.8799  0.8358  1.3455
  776MOL0     H 2419   1.926   1.938   0.535 -0.2223 -4.5742 -4.0198
  776MOL0     H 2420   2.269   2.247   0.479  0.2640 -3.3429  2.2478
  776MOL0     H 2421   2.489   2.336   0.550 -0.2856  0.9635 -0.2795
  776MOL0     H 2422   2.536   2.447   1.002 -0.9153  0.3335 -0.0200
  776MOL0     H 2423   2.520   2.590   0.899 -0.7912 -0.6329 -2.4649
  776MOL0     H 2424   2.763   2.586   0.873 -1.1095  2.0429  2.3692
  776MOL0     H 2425   2.723   2.571   1.043 -0.2341 -3.0735  1.7906
  776MOL0     H 2426   2.920   2.410   0.959 -0.3903 -1.4518  1.3462
  776MOL0     H 2427   2.799   2.343   0.861 -0.5628 -0.9564  1.4424
  776MOL0     H 2428   2.685   2.248   1.070 -0.6636  0.8715  1.5886
  776MOL0     H 2429   2.860   2.220   1.089 -0.5578 -0.1624 -0.4250
  776MOL0     H 2430   2.766   2.455   1.408 -0.0425  0.0082 -0.1698
  776MOL0     H 2431   2.345   2.382   0.943  0.2538 -4.4378  0.9506
  776MOL0     H 2432   2.118   2.305   0.872 -0.4570 -2.7507 -1.0874
  777MOL0     O 2433   4.567   4.046   8.324  0.5168 -0.2121 -0.4241
  777MOL0     C 2434   4.662   4.049   8.402 -0.7171  0.2410 -0.2091
  777MOL0     O 2435   4.652   4.027   8.540 -0.0191  0.7707  0.1676
  777MOL0     C 2436   4.529   4.025   8.597  0.3964 -0.0468  0.2767
  777MOL0     C 2437   4.517   3.948   8.706 -0.2113 -0.0562 -0.2880
  777MOL0     C 2438   4.402   3.954   8.785 -0.0585  0.4813  0.3379
  777MOL0     C 2439   4.292   4.031   8.749 -0.1812  0.9523  0.2225
  777MOL0     O 2440   4.169   4.039   8.813 -0.3334 -0.0834  0.0443
  777MOL0     C 2441   4.154   3.957   8.936 -0.4176 -0.1235  0.1419
  777MOL0     C 2442   4.011   3.968   8.982  0.1296  0.6730  0.4757
  777MOL0     C 2443   3.960   4.099   9.033 -0.3098  0.8701  0.2746
  777MOL0     C 2444   3.804   4.132   9.042  1.8564  0.2277 -0.2447
  777MOL0     C 2445   3.721   4.016   9.116 -0.1244  0.1713  0.6249
  777MOL0     C 2446   3.575   4.057   9.113 -0.0644 -0.1085  1.7184
  777MOL0     C 2447   3.483   3.933   9.111 -0.7304  0.3561  0.0233
  777MOL0     C 2448   3.497   3.856   9.239 -0.6508 -0.1745  0.3855
  777MOL0     N 2449   3.361   3.794   9.261  0.2606  0.4113 -0.4318
  777MOL0     C 2450   3.280   3.809   9.373 -0.1500 -0.2059 -0.0549
  777MOL0     C 2451   3.196   3.706   9.382  0.0491 -0.3527 -0.4692
  777MOL0     C 2452   3.090   3.658   9.491  0.3917 -0.2481 -0.2679
  777MOL0     C 2453   3.133   3.674   9.634  0.1634  0.2555 -0.3905
  777MOL0     C 2454   3.082   3.801   9.700 -0.5546 -0.1356 -0.6761
  777MOL0     C 2455   2.923   3.809   9.725 -0.1978 -0.3081 -0.4868
  777MOL0     O 2456   2.883   3.713   9.820 -0.7039 -0.7747  0.3610
  777MOL0     C 2457   2.749   3.706   9.840  0.5177 -0.2974  0.1555
  777MOL0     C 2458   2.715   3.596   9.915 -0.4150  0.2510 -0.0701
  777MOL0     C 2459   2.587   3.578   9.957  0.5572  0.0133 -0.1571
  777MOL0     C 2460   2.486   3.674   9.918 -0.2384  0.1322  1.3404
  777MOL0     C 2461   2.349   3.668   9.965  0.0350 -0.1666 -1.0337
  777MOL0     O 2462   2.249   3.742   9.911  0.2551 -0.4303  0.2271
  777MOL0     C 2463   2.119   3.733   9.966 -0.9094 -0.2616  0.4995
  777MOL0     C 2464   2.008   3.755   9.876  1.0722 -0.4198  0.2016
  777MOL0     C 2465   1.873   3.747   9.924 -0.2140  0.0728 -0.6452
  777MOL0     C 2466   1.853   3.726  10.064 -0.1460  0.4986  0.2821
  777MOL0     O 2467   1.734   3.739  10.140 -0.7204  0.2435 -0.6903
  777MOL0     C 2468   1.612   3.785  10.074  0.1909  0.8223  0.5460
  777MOL0     C 2469   1.570   3.926  10.101  0.4101  0.8872  0.4396
  777MOL0     C 2470   1.448   3.975  10.017  0.2156  0.0906  0.3729
  777MOL0     C 2471   1.384   4.101  10.085 -0.7936 -0.8457  0.5934
  777MOL0     C 2472   1.296   4.174   9.985  0.3244  0.6518  0.0231
  777MOL0     C 2473   1.278   4.324  10.018  0.1419  0.4565 -0.5386
  777MOL0     C 2474   1.159   4.331  10.114  0.0108  0.1359 -1.2602
  777MOL0     C 2475   1.106   4.476  10.118  0.3892 -0.1664  0.1239
  777MOL0    Cl 2476   1.195   4.573  10.232  0.2580  0.1734  0.3693
  777MOL0     C 2477   1.960   3.708  10.153  0.5478 -0.0089 -0.2222
  777MOL0     C 2478   2.092   3.720  10.105  0.2134 -0.1230  0.0273
  777MOL0     O 2479   2.330   3.561  10.021  0.3305 -0.2355 -0.3370
  777MOL0     C 2480   2.518   3.783   9.839 -0.0869 -0.3904  0.0917
  777MOL0     C 2481   2.655   3.804   9.802  0.3530  0.6803 -0.6026
  777MOL0     N 2482   3.222   3.634   9.273  0.3444  0.0266 -0.4945
  777MOL0     N 2483   3.326   3.674   9.209  0.7318 -0.1887  0.4121
  777MOL0     C 2484   4.304   4.109   8.634 -0.5615 -0.1285 -0.0364
  777MOL0     C 2485   4.430   4.121   8.568  0.3700  0.2346 -0.5129
  777MOL0     C 2486   4.801   4.044   8.343  0.9079 -0.5768 -0.2102
  777MOL0     C 2487   4.916   4.050   8.429 -0.5961 -0.1895 -0.1406
  777MOL0     C 2488   5.038   4.027   8.370 -0.3531 -0.3860  0.3860
  777MOL0     C 2489   5.064   4.017   8.235  0.1751  0.0561  0.2427
  777MOL0     O 2490   5.183   3.990   8.178 -0.6739 -0.3621  0.1867
  777MOL0     C 2491   5.302   3.977   8.261  0.3991  1.1562  0.5359
  777MOL0     C 2492   5.429   3.939   8.182  0.0810 -0.3197 -0.3401
  777MOL0     C 2493   5.554   3.943   8.281  0.3420  0.0277 -0.0098
  777MOL0     C 2494   5.657   3.843   8.223  0.0597  0.0834  0.4112
  777MOL0     C 2495   5.712   3.893   8.095 -0.0837 -0.8260  0.4149
  777MOL0     C 2496   5.745   3.920   7.986 -0.2734 -0.9889  0.5772
  777MOL0     C 2497   4.945   4.012   8.152  0.1191  0.6102 -1.3618
  777MOL0     C 2498   4.816   4.034   8.208  0.8295 -0.7494 -0.2626
  777MOL0     H 2499   4.600   3.881   8.728 -1.2762 -1.5521 -0.6782
  777MOL0     H 2500   4.398   3.897   8.878 -0.1721 -0.1929 -0.0762
  777MOL0     H 2501   4.224   3.998   9.009  0.6982  1.3308 -1.6304
  777MOL0     H 2502   4.177   3.853   8.913 -1.6109  0.3595 -4.3850
  777MOL0     H 2503   4.004   3.890   9.058  2.2991 -1.1472 -1.0334
  777MOL0     H 2504   3.961   3.938   8.889  2.1486 -0.7706 -0.2199
  777MOL0     H 2505   4.004   4.176   8.969 -0.6129 -0.2765 -1.3678
  777MOL0     H 2506   4.013   4.120   9.126 -1.4642  2.7678  0.5756
  777MOL0     H 2507   3.786   4.228   9.090 -1.6923 -1.1367  1.4612
  777MOL0     H 2508   3.771   4.136   8.938  0.7513  0.2214  0.0952
  777MOL0     H 2509   3.764   4.009   9.216  1.9147  1.0082 -0.1264
  777MOL0     H 2510   3.741   3.919   9.070  0.2065  0.1103  0.8895
  777MOL0     H 2511   3.552   4.117   9.025  1.4050  1.8762  2.6036
  777MOL0     H 2512   3.541   4.119   9.196 -2.0441  0.5382  0.4916
  777MOL0     H 2513   3.381   3.965   9.090 -1.9814 -3.7085 -1.0158
  777MOL0     H 2514   3.516   3.864   9.032  1.3806 -1.1806  2.0926
  777MOL0     H 2515   3.515   3.922   9.325 -5.0430 -1.0125  2.2326
  777MOL0     H 2516   3.582   3.787   9.234  1.0934  1.6543  2.3204
  777MOL0     H 2517   3.291   3.885   9.449  2.3598 -2.4079  1.9684
  777MOL0     H 2518   3.074   3.559   9.449  0.7340  0.3561 -1.9123
  777MOL0     H 2519   2.995   3.708   9.469  0.9519 -0.3042 -3.2255
  777MOL0     H 2520   3.242   3.672   9.629  0.2773  2.1221  0.5687
  777MOL0     H 2521   3.093   3.593   9.695  0.8424  1.2868  1.5216
  777MOL0     H 2522   3.132   3.824   9.794  0.6582 -0.0666 -1.3147
  777MOL0     H 2523   3.130   3.879   9.641  2.3799 -0.4296  1.1534
  777MOL0     H 2524   2.867   3.803   9.632 -1.3496  1.5894  0.0234
  777MOL0     H 2525   2.893   3.905   9.769  2.2149  0.0957  0.4678
  777MOL0     H 2526   2.790   3.521   9.941 -0.0674  0.7829  0.4865
  777MOL0     H 2527   2.576   3.494  10.025  0.6625  0.3944  0.3358
  777MOL0     H 2528   2.021   3.786   9.773  2.1097  0.2457  0.5131
  777MOL0     H 2529   1.796   3.782   9.855  0.7251  0.8132 -1.3501
  777MOL0     H 2530   1.535   3.717  10.113  0.0551  0.9898  0.5704
  777MOL0     H 2531   1.609   3.759   9.967 -2.5404  0.9413  0.5060
  777MOL0     H 2532   1.661   3.985  10.086  1.2196 -0.2096  0.9339
  777MOL0     H 2533   1.557   3.930  10.210 -2.0336  0.4301  0.2339
  777MOL0     H 2534   1.371   3.901   9.994  0.1870  0.4234 -0.6736
  777MOL0     H 2535   1.486   4.006   9.919 -0.7622  0.1748  0.0128
  777MOL0     H 2536   1.344   4.082  10.185 -0.2901  1.6214  1.3379
  777MOL0     H 2537   1.461   4.177  10.104 -0.1957 -0.6524 -2.1683
  777MOL0     H 2538   1.198   4.127   9.985  1.5705 -2.1623 -1.3885
  777MOL0     H 2539   1.342   4.171   9.886  1.1897 -0.1841  0.4349
  777MOL0     H 2540   1.256   4.364   9.918  0.0191  1.2835 -0.1921
  777MOL0     H 2541   1.362   4.371  10.071  0.2238 -1.9136  1.5805
  777MOL0     H 2542   1.076   4.271  10.076  0.0955  0.2340 -1.6087
  777MOL0     H 2543   1.183   4.305  10.217  2.3462 -2.1591 -2.2938
  777MOL0     H 2544   1.005   4.474  10.160 -1.1319 -4.7718 -2.9512
  777MOL0     H 2545   1.097   4.512  10.015 -0.7833  0.5241  0.4531
  777MOL0     H 2546   1.941   3.710  10.260 -0.8198 -0.7716 -0.4349
  777MOL0     H 2547   2.173   3.725  10.176  0.5558  2.4814 -0.4375
  777MOL0     H 2548   2.448   3.857   9.803  0.4220 -0.7872 -1.8431
  777MOL0     H 2549   2.674   3.882   9.729  1.6933 -1.1595 -2.3379
  777MOL0     H 2550   4.222   4.176   8.608  0.9743  1.3844 -1.1726
  777MOL0     H 2551   4.432   4.200   8.495  3.6620  1.1998  0.4455
  777MOL0     H 2552   4.921   4.066   8.536  0.7299  0.9992 -0.3500
  777MOL0     H 2553   5.128   4.036   8.431 -1.7035  1.4758  2.2458
  777MOL0     H 2554   5.270   3.889   8.317  2.3261 -1.2489 -1.8084
  777MOL0     H 2555   5.312   4.056   8.335  0.8805  1.8643 -0.2637
  777MOL0     H 2556   5.411   3.837   8.145  0.8206 -0.0746 -1.4017
  777MOL0     H 2557   5.431   4.000   8.092 -0.0877  0.9301  0.4760
  777MOL0     H 2558   5.519   3.926   8.383  1.4118  1.3051  0.5980
  777MOL0     H 2559   5.592   4.045   8.279  0.7700 -0.1327 -0.0517
  777MOL0     H 2560   5.749   3.825   8.280  0.3531 -1.5880 -0.5199
  777MOL0     H 2561   5.607   3.747   8.207 -3.7699  1.6547  1.6560
  777MOL0     H 2562   5.765   3.950   7.885 -4.5621 -1.5243 -0.6387
  777MOL0     H 2563   4.947   3.991   8.045 -3.1410 -2.0516 -1.0515
  777MOL0     H 2564   4.731   4.004   8.147  0.9861 -1.8519  0.0435
  778MOL0     O 2565   5.621   1.175  11.031  0.6791  0.7617  0.4314
  778MOL0     C 2566   5.709   1.088  11.021 -0.2681  0.1157 -0.1296
  778MOL0     O 2567   5.684   0.958  11.013 -0.0638  0.5201  0.0229
  778MOL0     C 2568   5.569   0.902  10.958 -0.2832 -1.1395 -0.1977
  778MOL0     C 2569   5.485   0.955  10.860  0.7166  0.5850 -0.1870
  778MOL0     C 2570   5.367   0.895  10.820  0.0535  0.3656 -0.7476
  778MOL0     C 2571   5.313   0.784  10.886  0.1878 -0.2788 -0.3009
  778MOL0     O 2572   5.191   0.730  10.831 -0.4182  0.1484 -0.0472
  778MOL0     C 2573   5.145   0.605  10.890  0.2435  0.8065  0.5635
  778MOL0     C 2574   5.004   0.564  10.831 -0.1714  0.6874 -0.0026
  778MOL0     C 2575   4.892   0.641  10.905  0.4919  0.2363 -0.2810
  778MOL0     C 2576   4.757   0.628  10.836  0.2576  0.7483  0.5135
  778MOL0     C 2577   4.667   0.702  10.933  0.0730  0.3085 -0.3998
  778MOL0     C 2578   4.529   0.715  10.872 -0.2157  0.2323 -0.5089
  778MOL0     C 2579   4.435   0.772  10.983 -0.5878 -0.1386  0.1984
  778MOL0     C 2580   4.282   0.744  10.946  1.3998 -0.2995  0.7447
  778MOL0     N 2581   4.266   0.608  10.987  0.0844  0.1883  0.0699
  778MOL0     C 2582   4.215   0.568  11.112 -0.2804  0.5604  0.3321
  778MOL0     C 2583   4.173   0.443  11.087  1.4026 -0.2455  0.8377
  778MOL0     C 2584   4.126   0.355  11.197  0.1010  0.2111  0.1457
  778MOL0     C 2585   3.980   0.326  11.204  0.4861 -0.3300 -0.1311
  778MOL0     C 2586   3.944   0.241  11.328 -0.0158 -0.1826  0.6009
  778MOL0     C 2587   3.805   0.202  11.336 -0.3771  0.4628 -0.4563
  778MOL0     O 2588   3.711   0.309  11.320  0.4947  0.0683  0.3814
  778MOL0     C 2589   3.584   0.276  11.336  1.2567  0.5914 -0.1565
  778MOL0     C 2590   3.503   0.392  11.337  0.6477 -0.0885  0.1893
  778MOL0     C 2591   3.363   0.384  11.365 -0.0267  0.1246 -0.0809
  778MOL0     C 2592   3.306   0.256  11.391 -0.1480  0.1152  0.0761
  778MOL0     C 2593   3.155   0.250  11.409  0.4138 -0.2425 -0.4983
  778MOL0     O 2594   3.095   0.128  11.444  1.1504  0.7568  0.3899
  778MOL0     C 2595   2.971   0.099  11.408  0.2668  0.3788 -0.5268
  778MOL0     C 2596   2.869   0.141  11.487 -0.1319 -0.4101  0.0249
  778MOL0     C 2597   2.739   0.094  11.465  0.0132  0.4181  0.5260
  778MOL0     C 2598   2.707   0.025  11.354  0.2807 -0.2552  0.0247
  778MOL0     O 2599   2.567   0.009  11.340  0.0086 -1.2479  0.5619
  778MOL0     C 2600   2.513  -0.016  11.208  0.5279 -0.6968  0.3082
  778MOL0     C 2601   2.444   0.113  11.150  0.8532 -0.0625  0.0964
  778MOL0     C 2602   2.318   0.154  11.235  0.0108  0.8803 -0.1403
  778MOL0     C 2603   2.257   0.288  11.187  1.2913  0.6405 -0.2180
  778MOL0     C 2604   2.178   0.267  11.064 -0.6293  0.0506  1.0489
  778MOL0     C 2605   2.095   0.400  11.025  0.3282  0.1077 -0.0737
  778MOL0     C 2606   1.997   0.365  10.912  0.0890 -0.3221 -0.5684
  778MOL0     C 2607   1.920   0.485  10.849  0.5180 -0.0638 -0.8016
  778MOL0    Cl 2608   1.836   0.566  10.990  0.5360  0.4168  0.5210
  778MOL0     C 2609   2.805  -0.014  11.263 -0.3310 -0.1772 -0.5295
  778MOL0     C 2610   2.942   0.019  11.296  0.4167  0.9424  1.0448
  778MOL0     O 2611   3.097   0.346  11.358 -0.2788 -0.0407 -0.8236
  778MOL0     C 2612   3.384   0.141  11.391 -0.4852 -0.9736 -0.7557
  778MOL0     C 2613   3.526   0.156  11.363  0.3254  0.1857  0.0397
  778MOL0     N 2614   4.206   0.405  10.954  0.3678  0.1014  0.0264
  778MOL0     N 2615   4.257   0.506  10.894 -0.1640 -0.0841 -0.4625
  778MOL0     C 2616   5.405   0.716  10.967 -0.1868 -0.4013  1.0820
  778MOL0     C 2617   5.527   0.780  11.008 -0.5252  0.3247 -0.0354
  778MOL0     C 2618   5.850   1.131  11.064  1.2878  0.0952 -0.0332
  778MOL0     C 2619   5.957   1.041  11.075  1.2098  0.2612  0.2066
  778MOL0     C 2620   6.082   1.085  11.109 -0.1355  1.3960 -0.6087
  778MOL0     C 2621   6.106   1.216  11.140  0.4028  1.2100  0.4603
  778MOL0     O 2622   6.219   1.248  11.202  0.2339  0.5343  0.1657
  778MOL0     C 2623   6.283   1.369  11.151 -0.0351 -1.1922  0.1012
  778MOL0     C 2624   6.436   1.343  11.125  0.4106  0.8478  0.0229
  778MOL0     C 2625   6.475   1.217  11.039 -0.3757 -0.7253  0.1179
  778MOL0     C 2626   6.625   1.217  11.011  0.1688  0.4598 -0.0763
  778MOL0     C 2627   6.679   1.097  10.947  0.6523 -0.3527  0.1954
  778MOL0     C 2628   6.713   1.001  10.892 -0.1022  0.0852  0.8394
  778MOL0     C 2629   5.993   1.302  11.140 -0.1156  0.0966  0.3161
  778MOL0     C 2630   5.861   1.263  11.114 -0.0619  0.8172  0.3539
  778MOL0     H 2631   5.512   1.048  10.810  1.4347  0.2644 -0.4202
  778MOL0     H 2632   5.305   0.954  10.753 -0.8335  1.5175  1.0218
  778MOL0     H 2633   5.135   0.600  10.998 -2.8368 -1.8443  0.3239
  778MOL0     H 2634   5.217   0.531  10.854 -0.2599  0.5367  0.0873
  778MOL0     H 2635   4.997   0.459  10.861  3.2683  0.7915  1.7174
  778MOL0     H 2636   5.005   0.585  10.724 -1.3094 -0.9921 -0.3888
  778MOL0     H 2637   4.914   0.748  10.912 -0.4869  0.3995  0.5986
  778MOL0     H 2638   4.882   0.592  11.003 -1.6896 -3.6805 -2.2114
  778MOL0     H 2639   4.757   0.668  10.734 -2.3178 -1.3378 -0.3933
  778MOL0     H 2640   4.721   0.526  10.820  2.2763  0.0496  0.0845
  778MOL0     H 2641   4.710   0.802  10.948 -0.0826  0.5786 -1.6309
  778MOL0     H 2642   4.657   0.644  11.025 -1.3006 -0.9998 -1.3341
  778MOL0     H 2643   4.498   0.611  10.860  1.1092 -0.6293  2.5632
  778MOL0     H 2644   4.532   0.777  10.782 -1.2918  2.5696  0.9558
  778MOL0     H 2645   4.461   0.729  11.080 -1.9149 -3.7995 -0.9002
  778MOL0     H 2646   4.460   0.878  10.989  2.0098 -0.5813 -1.3358
  778MOL0     H 2647   4.265   0.744  10.838  3.1372 -2.3649  0.4028
  778MOL0     H 2648   4.213   0.812  10.997  1.6256 -1.5856  2.8604
  778MOL0     H 2649   4.217   0.607  11.213 -0.1185 -1.4935  1.1629
  778MOL0     H 2650   4.153   0.414  11.285  1.6591  1.8360 -1.3627
  778MOL0     H 2651   4.189   0.266  11.190  2.3595  1.8013 -1.0205
  778MOL0     H 2652   3.947   0.279  11.110  0.9309 -1.6772  0.3563
  778MOL0     H 2653   3.929   0.422  11.212  4.1951  1.6375  3.8763
  778MOL0     H 2654   4.005   0.151  11.317 -0.4950 -0.3026 -1.5279
  778MOL0     H 2655   3.983   0.289  11.418  0.2825 -1.9611  1.4615
  778MOL0     H 2656   3.784   0.149  11.430 -1.1251 -0.7206 -1.2773
  778MOL0     H 2657   3.778   0.136  11.253 -0.6404  1.8457 -1.5064
  778MOL0     H 2658   3.552   0.486  11.317 -0.6268  0.4592 -0.4535
  778MOL0     H 2659   3.298   0.471  11.367  0.1591  0.3507 -2.0838
  778MOL0     H 2660   2.884   0.206  11.573  1.1695 -0.9267  0.2151
  778MOL0     H 2661   2.671   0.143  11.533 -1.5367 -0.3836 -0.3848
  778MOL0     H 2662   2.444  -0.100  11.201 -1.0052  0.5764 -0.7866
  778MOL0     H 2663   2.591  -0.034  11.134  0.0547  1.1972 -0.7159
  778MOL0     H 2664   2.425   0.080  11.047  1.1970 -2.3001  0.6990
  778MOL0     H 2665   2.512   0.199  11.156 -1.1607  1.5009  1.7535
  778MOL0     H 2666   2.358   0.170  11.335  1.6069 -0.6252 -0.4848
  778MOL0     H 2667   2.245   0.072  11.240  0.7054  0.2982  0.6885
  778MOL0     H 2668   2.189   0.322  11.266 -0.3623 -1.4632 -0.6769
  778MOL0     H 2669   2.333   0.361  11.156 -1.5300  4.3726  0.9715
  778MOL0     H 2670   2.114   0.179  11.068 -0.7344  0.1378  1.2967
  778MOL0     H 2671   2.243   0.233  10.983  0.0196  1.0306  1.1332
  778MOL0     H 2672   2.168   0.475  10.992  1.2241 -1.1910 -1.1514
  778MOL0     H 2673   2.031   0.427  11.109  0.3070 -0.5602  0.1290
  778MOL0     H 2674   2.050   0.307  10.837  1.3687 -0.1643  0.1770
  778MOL0     H 2675   1.914   0.306  10.949  0.4515 -0.1000  0.6632
  778MOL0     H 2676   1.848   0.445  10.777  0.4005  1.8512 -1.8136
  778MOL0     H 2677   1.981   0.565  10.806  0.7115  1.5098  2.1604
  778MOL0     H 2678   2.785  -0.080  11.179  0.9739 -0.8128 -0.3652
  778MOL0     H 2679   3.020  -0.023  11.233 -2.0302 -1.8618 -0.3707
  778MOL0     H 2680   3.342   0.049  11.430  2.3732 -1.9660  0.2340
  778MOL0     H 2681   3.585   0.065  11.358 -0.4062 -0.2845 -0.2083
  778MOL0     H 2682   5.368   0.625  11.013 -1.4273 -0.2266  0.4760
  778MOL0     H 2683   5.590   0.721  11.074 -0.6986 -0.1636 -0.2981
  778MOL0     H 2684   5.962   0.940  11.035 -0.1205 -0.3748  1.5595
  778MOL0     H 2685   6.162   1.013  11.124 -0.4215  0.7042 -2.2185
  778MOL0     H 2686   6.280   1.448  11.227  0.4918 -1.1348  0.0644
  778MOL0     H 2687   6.230   1.401  11.061 -3.7040 -3.6074  1.2008
  778MOL0     H 2688   6.477   1.430  11.073  1.8037  0.2208  0.0307
  778MOL0     H 2689   6.484   1.336  11.224  0.7710 -0.7693 -0.2409
  778MOL0     H 2690   6.433   1.214  10.938  1.6060  0.5019 -0.7867
  778MOL0     H 2691   6.448   1.122  11.088  0.5769  0.5225  3.3106
  778MOL0     H 2692   6.646   1.303  10.946  0.8031  1.3748  1.2926
  778MOL0     H 2693   6.677   1.241  11.104  0.5944  0.6888 -0.3707
  778MOL0     H 2694   6.743   0.912  10.840 -4.1361 -1.5210  0.9065
  778MOL0     H 2695   6.002   1.403  11.179  1.8750 -0.3303  1.1067
  778MOL0     H 2696   5.781   1.336  11.118  0.6742  1.6890 -0.2648
  779MOL0     O 2697   4.211   3.563   5.993 -0.0256  0.3484 -0.1909
  779MOL0     C 2698   4.289   3.492   5.922 -0.0788 -0.1805 -0.4237
  779MOL0     O 2699   4.251   3.440   5.805  0.2489  0.5267 -0.2206
  779MOL0     C 2700   4.118   3.418   5.786  0.3380 -0.0459  0.1963
  779MOL0     C 2701   4.084   3.433   5.651  0.4561  0.4006 -0.0966
  779MOL0     C 2702   3.945   3.426   5.616 -1.2393  0.2260 -0.5660
  779MOL0     C 2703   3.844   3.393   5.707  0.2913  0.0362  0.6084
  779MOL0     O 2704   3.714   3.375   5.659 -0.5316 -0.6358  0.6685
  779MOL0     C 2705   3.655   3.253   5.703 -0.8296  0.0198  0.0333
  779MOL0     C 2706   3.526   3.241   5.626  0.4340 -0.0190 -0.3076
  779MOL0     C 2707   3.427   3.351   5.654  0.5684  0.2009  0.1811
  779MOL0     C 2708   3.294   3.323   5.568  0.5052 -0.3394 -0.1572
  779MOL0     C 2709   3.192   3.447   5.565 -0.2286  0.1743  0.5112
  779MOL0     C 2710   3.126   3.483   5.701 -0.4072 -0.0835 -0.7100
  779MOL0     C 2711   3.016   3.378   5.754 -0.3054  0.5643 -0.4538
  779MOL0     C 2712   2.925   3.432   5.856  0.0346  0.2622  0.1035
  779MOL0     N 2713   2.796   3.485   5.800 -0.5538 -0.3703 -0.0464
  779MOL0     C 2714   2.662   3.501   5.853  0.7147 -0.2968  0.3489
  779MOL0     C 2715   2.586   3.565   5.755 -0.4857  0.4985 -0.1155
  779MOL0     C 2716   2.446   3.606   5.749 -0.5892 -0.3688 -0.4462
  779MOL0     C 2717   2.385   3.600   5.888 -0.1898 -0.2023  0.1719
  779MOL0     C 2718   2.240   3.641   5.878  1.0293 -0.3242 -1.2503
  779MOL0     C 2719   2.150   3.518   5.828 -0.0892 -0.1898  0.2061
  779MOL0     O 2720   2.022   3.568   5.806  0.0644 -0.2524  0.1877
  779MOL0     C 2721   1.922   3.477   5.810  0.2752 -0.3719 -1.0822
  779MOL0     C 2722   1.904   3.370   5.904  0.4400  0.2047 -0.0329
  779MOL0     C 2723   1.779   3.304   5.911 -0.4521 -0.1903  0.1450
  779MOL0     C 2724   1.673   3.328   5.829  0.5366 -0.2466  0.5179
  779MOL0     C 2725   1.537   3.284   5.857 -1.0420 -0.0594  0.5517
  779MOL0     O 2726   1.436   3.340   5.785  0.1892 -0.0350 -0.5496
  779MOL0     C 2727   1.314   3.268   5.784  0.4598 -0.3788 -0.1494
  779MOL0     C 2728   1.200   3.346   5.787  0.7809  0.3418  0.2665
  779MOL0     C 2729   1.071   3.286   5.785  0.1171  0.3456  0.3937
  779MOL0     C 2730   1.052   3.152   5.755 -0.3328 -0.5375 -0.1650
  779MOL0     O 2731   0.928   3.088   5.747  0.3504 -0.4142 -0.2531
  779MOL0     C 2732   0.824   3.148   5.818 -0.6300  0.1580  0.4692
  779MOL0     C 2733   0.713   3.043   5.830 -0.4731  0.4891  0.5015
  779MOL0     C 2734   0.584   3.084   5.891  0.7128 -0.7253  0.0197
  779MOL0     C 2735   0.465   2.983   5.877  0.3556  0.4749  0.5026
  779MOL0     C 2736   0.468   2.862   5.968  0.1225  0.5559  0.0196
  779MOL0     C 2737   0.368   2.857   6.082 -0.3318  0.1059 -0.7696
  779MOL0     C 2738   0.222   2.834   6.015  0.4514  0.7563  0.2482
  779MOL0     C 2739   0.104   2.891   6.101  0.0995  0.6087  0.0049
  779MOL0    Cl 2740   0.098   2.772   6.235 -0.7238  0.6110  0.2956
  779MOL0     C 2741   1.171   3.075   5.763 -0.0494  0.9161  0.6689
  779MOL0     C 2742   1.302   3.124   5.768  0.0898  0.2492 -0.4654
  779MOL0     O 2743   1.527   3.206   5.949  0.7378  0.0433 -0.4729
  779MOL0     C 2744   1.695   3.416   5.722 -0.0134  0.1879 -0.3912
  779MOL0     C 2745   1.815   3.488   5.712 -0.5827  0.4694  0.0876
  779MOL0     N 2746   2.676   3.600   5.656 -0.2494  0.3711 -0.2571
  779MOL0     N 2747   2.795   3.548   5.674  0.4240  0.2191 -0.1597
  779MOL0     C 2748   3.885   3.370   5.843 -0.4183  0.0886 -0.3342
  779MOL0     C 2749   4.021   3.386   5.879  0.4121  0.3073  0.1248
  779MOL0     C 2750   4.433   3.482   5.949  0.6408 -0.4662 -0.2050
  779MOL0     C 2751   4.492   3.549   6.060  1.0474 -0.7472  0.5514
  779MOL0     C 2752   4.630   3.525   6.091 -0.8366 -0.2324  0.6797
  779MOL0     C 2753   4.706   3.436   6.006  0.9535  0.2224 -0.6774
  779MOL0     O 2754   4.832   3.393   6.034 -0.3443 -0.0986  0.1090
  779MOL0     C 2755   4.897   3.430   6.156 -0.5421  0.3631  0.2990
  779MOL0     C 2756   5.000   3.325   6.193  0.1293 -0.5431 -0.1076
  779MOL0     C 2757   5.120   3.338   6.097  0.2913  0.8131 -0.5053
  779MOL0     C 2758   5.261   3.282   6.145  0.9440 -1.0217  0.0313
  779MOL0     C 2759   5.371   3.286   6.046  0.1629  0.1708  0.8866
  779MOL0     C 2760   5.467   3.249   5.977  0.0903  0.0657  0.4745
  779MOL0     C 2761   4.656   3.386   5.891 -0.5919 -0.3143  0.0114
  779MOL0     C 2762   4.523   3.401   5.868 -0.0420 -0.3088  0.4873
  779MOL0     H 2763   4.154   3.452   5.571 -0.3855  1.1963 -0.6611
  779MOL0     H 2764   3.912   3.437   5.514  1.1058 -1.7173 -1.6349
  779MOL0     H 2765   3.626   3.255   5.808 -1.9660  1.9030 -0.2871
  779MOL0     H 2766   3.724   3.168   5.694 -0.5205  0.1101  1.4100
  779MOL0     H 2767   3.481   3.144   5.651  0.9891 -0.6653 -1.6880
  779MOL0     H 2768   3.553   3.238   5.520 -2.1000 -0.6214 -1.0221
  779MOL0     H 2769   3.470   3.447   5.622 -0.1666  0.6990  0.6630
  779MOL0     H 2770   3.402   3.360   5.760  1.6198  0.2014  0.4381
  779MOL0     H 2771   3.331   3.307   5.466  2.2150  1.6003  0.0951
  779MOL0     H 2772   3.254   3.227   5.603 -2.9019  0.5099 -1.3233
  779MOL0     H 2773   3.112   3.413   5.498 -1.0162  2.0377  0.4685
  779MOL0     H 2774   3.241   3.532   5.517 -3.7847  1.4122 -1.2692
  779MOL0     H 2775   3.072   3.571   5.666  0.1731 -0.0419 -1.5269
  779MOL0     H 2776   3.200   3.507   5.778 -2.5150 -1.2333  1.8263
  779MOL0     H 2777   2.964   3.342   5.664 -0.0245  1.0236 -0.8029
  779MOL0     H 2778   3.083   3.305   5.800 -1.9180 -0.8095 -0.1803
  779MOL0     H 2779   2.983   3.512   5.903 -0.8898  0.5023  0.8573
  779MOL0     H 2780   2.894   3.363   5.935 -4.4488 -0.7841 -2.2399
  779MOL0     H 2781   2.626   3.474   5.951  2.5949  2.5303  1.9650
  779MOL0     H 2782   2.396   3.548   5.671 -2.9361 -0.0566  0.7354
  779MOL0     H 2783   2.444   3.712   5.721 -0.3198 -0.1265  0.4403
  779MOL0     H 2784   2.439   3.668   5.954 -0.2665 -2.9385  3.3320
  779MOL0     H 2785   2.402   3.503   5.937  1.4042  0.0582  0.1795
  779MOL0     H 2786   2.213   3.675   5.979  2.9874  0.8268 -1.0597
  779MOL0     H 2787   2.227   3.723   5.807  0.1528  1.1135  0.4691
  779MOL0     H 2788   2.155   3.436   5.900 -0.4492 -0.4959 -0.1155
  779MOL0     H 2789   2.175   3.474   5.732 -5.7060 -0.7031 -1.3375
  779MOL0     H 2790   1.971   3.366   5.989  1.0850  2.4836 -0.3699
  779MOL0     H 2791   1.759   3.237   5.995  0.5394 -0.0183  0.5344
  779MOL0     H 2792   1.202   3.447   5.827 -0.5360 -0.3960  2.3801
  779MOL0     H 2793   0.980   3.346   5.782 -0.8824 -1.1394 -2.4575
  779MOL0     H 2794   0.798   3.227   5.747 -0.2853 -0.5617 -0.4678
  779MOL0     H 2795   0.872   3.175   5.912  2.6488 -1.3426 -0.6186
  779MOL0     H 2796   0.754   2.963   5.892  1.0631  1.7789  1.2032
  779MOL0     H 2797   0.709   2.991   5.733 -0.0088  1.3235  0.0205
  779MOL0     H 2798   0.549   3.173   5.838  0.5730 -0.1427  1.0700
  779MOL0     H 2799   0.599   3.113   5.995  1.6918 -2.4465  0.4049
  779MOL0     H 2800   0.374   3.044   5.881  0.2029  0.3085 -0.3172
  779MOL0     H 2801   0.482   2.953   5.774 -1.8720 -0.6452  0.3975
  779MOL0     H 2802   0.570   2.852   6.007  0.2972 -0.0456 -0.5853
  779MOL0     H 2803   0.459   2.765   5.918 -1.6755 -1.0100  3.0931
  779MOL0     H 2804   0.365   2.949   6.141 -3.8886 -1.4688  1.8663
  779MOL0     H 2805   0.379   2.774   6.152  1.2140 -1.0377 -2.2647
  779MOL0     H 2806   0.203   2.893   5.925 -0.1536  0.1001 -0.0631
  779MOL0     H 2807   0.215   2.726   5.997 -1.2957  0.7887  0.5951
  779MOL0     H 2808   0.012   2.885   6.041  0.3451 -1.4008 -0.2618
  779MOL0     H 2809   0.125   2.990   6.141 -0.5485  1.0026 -0.6163
  779MOL0     H 2810   1.155   2.968   5.751 -0.8058  1.3347 -4.1541
  779MOL0     H 2811   1.388   3.058   5.769 -1.0785 -1.3447  0.3619
  779MOL0     H 2812   1.613   3.419   5.652 -0.8300  2.5180  0.5922
  779MOL0     H 2813   1.813   3.571   5.642 -1.9888  0.1455 -0.2794
  779MOL0     H 2814   3.816   3.354   5.926 -0.0489  3.1522  0.7065
  779MOL0     H 2815   4.035   3.381   5.987 -3.4655  1.8235  0.8807
  779MOL0     H 2816   4.436   3.620   6.120  1.9074  0.2715  0.1889
  779MOL0     H 2817   4.685   3.576   6.169  0.9568 -0.1797 -0.5708
  779MOL0     H 2818   4.820   3.442   6.233 -0.9283  1.4015 -0.2278
  779MOL0     H 2819   4.944   3.528   6.156 -0.1112  0.1802  1.8087
  779MOL0     H 2820   5.040   3.352   6.291  0.8000  0.8669 -0.7240
  779MOL0     H 2821   4.948   3.230   6.202 -1.3930  0.3834  1.3801
  779MOL0     H 2822   5.139   3.445   6.086 -0.8826  1.2504  1.2098
  779MOL0     H 2823   5.090   3.285   6.006 -0.8848 -0.8609  0.7901
  779MOL0     H 2824   5.290   3.335   6.236 -2.9308 -1.0192  1.4703
  779MOL0     H 2825   5.251   3.174   6.159  0.8338 -1.1194 -0.7180
  779MOL0     H 2826   5.553   3.209   5.928  0.5509  0.7066  0.7458
  779MOL0     H 2827   4.720   3.341   5.816 -0.5440  0.7210 -0.6023
  779MOL0     H 2828   4.484   3.359   5.776  2.5468 -1.8839  0.0186
  780MOL0     O 2829   6.600   5.492   6.016  0.2811  0.2140  0.6739
  780MOL0     C 2830   6.662   5.422   6.096 -0.0232  0.6440  0.0221
  780MOL0     O 2831   6.604   5.333   6.180  0.4544  0.1317 -0.3533
  780MOL0     C 2832   6.466   5.346   6.205 -0.0167  0.3331 -0.2793
  780MOL0     C 2833   6.371   5.247   6.171 -0.1806  0.0705 -0.6430
  780MOL0     C 2834   6.235   5.257   6.206 -0.1694 -0.3700  0.5334
  780MOL0     C 2835   6.192   5.376   6.269  0.1922  0.1134  1.1359
  780MOL0     O 2836   6.062   5.396   6.295 -0.1633  0.4827 -0.0438
  780MOL0     C 2837   6.024   5.294   6.390  0.8060  0.8313  0.6243
  780MOL0     C 2838   5.902   5.359   6.458 -0.0855  0.0334 -0.9597
  780MOL0     C 2839   5.819   5.254   6.528 -0.1718  0.0756  0.7738
  780MOL0     C 2840   5.689   5.301   6.597  0.0389 -0.2054  0.1699
  780MOL0     C 2841   5.616   5.195   6.685  0.6313  0.2913  0.3970
  780MOL0     C 2842   5.498   5.263   6.755 -0.0051 -0.3558 -0.2063
  780MOL0     C 2843   5.394   5.156   6.798 -0.0918 -0.1514 -0.0251
  780MOL0     C 2844   5.299   5.126   6.681  0.2061 -0.0715  0.3393
  780MOL0     N 2845   5.205   5.022   6.718 -0.5093 -0.4326 -0.5208
  780MOL0     C 2846   5.122   5.027   6.825  0.0411 -0.1371  0.1885
  780MOL0     C 2847   5.065   4.904   6.826  0.2634 -0.6042 -1.1888
  780MOL0     C 2848   4.971   4.854   6.941 -0.4697  0.0953  0.0394
  780MOL0     C 2849   4.833   4.825   6.886 -0.6416 -0.0591  0.3053
  780MOL0     C 2850   4.733   4.796   6.999  0.3044  0.6782 -0.0145
  780MOL0     C 2851   4.588   4.771   6.943  0.9818 -0.4222  0.6603
  780MOL0     O 2852   4.529   4.885   6.871  0.1473 -0.0782  0.2307
  780MOL0     C 2853   4.392   4.865   6.843  0.3179  0.4758  0.0537
  780MOL0     C 2854   4.313   4.971   6.799  0.0558 -0.0499  0.5438
  780MOL0     C 2855   4.179   4.951   6.755  0.8402  1.1860  0.8313
  780MOL0     C 2856   4.110   4.828   6.783  0.0152 -0.1676  0.2424
  780MOL0     C 2857   3.962   4.821   6.772 -0.3891  0.1025 -0.2793
  780MOL0     O 2858   3.920   4.885   6.660 -0.0875  0.0277  0.5989
  780MOL0     C 2859   3.786   4.872   6.634 -0.0003 -0.7663  0.3616
  780MOL0     C 2860   3.697   4.979   6.642  1.0679  0.4920  0.4982
  780MOL0     C 2861   3.561   4.969   6.608  0.2037  0.4881  0.6705
  780MOL0     C 2862   3.508   4.856   6.559 -0.3362  0.4044 -0.9101
  780MOL0     O 2863   3.375   4.858   6.516 -0.5646 -0.3014 -0.4691
  780MOL0     C 2864   3.305   4.737   6.538  0.4582  0.3053 -0.3710
  780MOL0     C 2865   3.156   4.767   6.559 -0.1943  0.1315  0.3395
  780MOL0     C 2866   3.088   4.626   6.564  0.3176 -0.5040  0.1923
  780MOL0     C 2867   2.942   4.645   6.596  0.7999 -0.7616 -0.0774
  780MOL0     C 2868   2.879   4.517   6.648  0.1472 -0.4930 -0.2043
  780MOL0     C 2869   2.728   4.508   6.667  0.9454  0.0357  0.4562
  780MOL0     C 2870   2.691   4.598   6.786 -0.0016  0.5439 -1.0393
  780MOL0     C 2871   2.537   4.615   6.817 -0.4292  0.5682  0.3240
  780MOL0    Cl 2872   2.492   4.471   6.918 -0.0483 -0.1327  0.2609
  780MOL0     C 2873   3.591   4.741   6.554 -0.0372 -0.3333  0.3947
  780MOL0     C 2874   3.729   4.753   6.589 -0.8219 -0.7689 -0.4536
  780MOL0     O 2875   3.895   4.775   6.863 -0.0645  0.4797  0.4331
  780MOL0     C 2876   4.181   4.729   6.848 -0.1677 -0.6412  0.0768
  780MOL0     C 2877   4.322   4.738   6.869  1.0525 -0.5998  0.5080
  780MOL0     N 2878   5.107   4.836   6.713  0.0599 -0.6182 -0.6730
  780MOL0     N 2879   5.202   4.906   6.660  0.0521 -0.3006 -0.1501
  780MOL0     C 2880   6.279   5.474   6.289  0.3842  0.6738  0.8064
  780MOL0     C 2881   6.417   5.467   6.257  0.2795 -1.2931  0.0793
  780MOL0     C 2882   6.807   5.419   6.077  0.1529 -0.3692 -0.3492
  780MOL0     C 2883   6.870   5.445   5.954  0.7659 -0.1404 -0.0666
  780MOL0     C 2884   7.012   5.433   5.954  0.3564  0.0830  0.2192
  780MOL0     C 2885   7.091   5.390   6.062  0.6373  0.8484 -0.4912
  780MOL0     O 2886   7.221   5.369   6.041  0.4928 -0.5964 -1.1399
  780MOL0     C 2887   7.303   5.299   6.138  0.1791 -0.9319 -0.2900
  780MOL0     C 2888   7.435   5.260   6.077 -0.1740  0.5032 -0.2171
  780MOL0     C 2889   7.526   5.215   6.198  1.2448 -0.5363 -0.0056
  780MOL0     C 2890   7.656   5.141   6.159 -0.0847  0.4614 -0.1089
  780MOL0     C 2891   7.765   5.224   6.114  0.4279  0.5138 -0.7863
  780MOL0     C 2892   7.861   5.272   6.059  0.4329  0.0155  1.3339
  780MOL0     C 2893   7.026   5.372   6.182  0.1388 -0.8342 -0.1269
  780MOL0     C 2894   6.882   5.378   6.189 -0.6584 -0.1854 -0.1697
  780MOL0     H 2895   6.397   5.147   6.138 -0.0486 -0.5135  1.0998
  780MOL0     H 2896   6.170   5.172   6.188  0.7973 -1.5479  2.2471
  780MOL0     H 2897   6.098   5.263   6.464  0.3826  2.1036  1.5995
  780MOL0     H 2898   5.992   5.206   6.332  2.2640  1.5272 -1.3558
  780MOL0     H 2899   5.838   5.412   6.387 -1.1939 -1.4793 -1.1164
  780MOL0     H 2900   5.943   5.426   6.534 -1.3598  0.2015 -0.4049
  780MOL0     H 2901   5.871   5.201   6.609 -0.5090 -2.1726 -0.4050
  780MOL0     H 2902   5.785   5.180   6.455 -0.1770 -1.4448  2.2324
  780MOL0     H 2903   5.698   5.388   6.663 -3.0018 -0.6841  1.3905
  780MOL0     H 2904   5.615   5.324   6.520 -0.8020 -0.7580  0.8034
  780MOL0     H 2905   5.687   5.172   6.765  1.6271  0.8159 -0.3173
  780MOL0     H 2906   5.585   5.117   6.614  3.5918  0.0498 -0.7801
  780MOL0     H 2907   5.451   5.336   6.688  0.5584 -0.4561 -0.7182
  780MOL0     H 2908   5.539   5.313   6.843 -2.9094  2.4899 -0.2916
  780MOL0     H 2909   5.438   5.065   6.839 -0.9541  1.5629  5.5371
  780MOL0     H 2910   5.334   5.203   6.877  1.4021  0.6106  0.6978
  780MOL0     H 2911   5.363   5.097   6.598  1.6304  1.0833  1.0000
  780MOL0     H 2912   5.245   5.218   6.660  0.7505 -0.1324 -1.4780
  780MOL0     H 2913   5.114   5.108   6.896 -0.4553 -0.0378  0.0175
  780MOL0     H 2914   4.961   4.923   7.026 -3.4123 -0.2405  0.0871
  780MOL0     H 2915   5.009   4.760   6.982 -1.1566  0.4334  1.5415
  780MOL0     H 2916   4.840   4.735   6.825  0.9524  0.4098 -0.2626
  780MOL0     H 2917   4.790   4.909   6.830 -0.0723  1.2793  1.7945
  780MOL0     H 2918   4.768   4.702   7.043 -0.9713  0.2104  0.0418
  780MOL0     H 2919   4.736   4.877   7.072  1.0303  1.5171 -0.9375
  780MOL0     H 2920   4.528   4.737   7.027  1.0095 -0.8463  0.5073
  780MOL0     H 2921   4.583   4.688   6.872  0.5399  0.4484 -0.3600
  780MOL0     H 2922   4.361   5.067   6.788  2.4633 -1.2634 -0.2372
  780MOL0     H 2923   4.114   5.031   6.722 -2.9531 -1.5496  0.9869
  780MOL0     H 2924   3.743   5.072   6.673  4.0893 -0.5097 -0.6391
  780MOL0     H 2925   3.499   5.057   6.614 -1.7749 -0.7480 -0.4850
  780MOL0     H 2926   3.335   4.695   6.634  0.3654  0.5004 -0.2547
  780MOL0     H 2927   3.330   4.670   6.456 -0.3490  2.9065 -2.9091
  780MOL0     H 2928   3.110   4.816   6.473 -1.4296  0.8820  1.3929
  780MOL0     H 2929   3.141   4.835   6.643  0.7336  0.7347  0.0486
  780MOL0     H 2930   3.137   4.567   6.642 -0.2965 -0.7428  0.4022
  780MOL0     H 2931   3.104   4.572   6.470 -0.0507  0.6602 -0.5670
  780MOL0     H 2932   2.941   4.729   6.666  0.7643  0.0320 -1.0002
  780MOL0     H 2933   2.895   4.675   6.502  1.7296  0.4424 -0.1866
  780MOL0     H 2934   2.928   4.492   6.743  0.1279 -0.7730 -0.2681
  780MOL0     H 2935   2.900   4.441   6.572 -0.8172  1.4163 -2.5149
  780MOL0     H 2936   2.690   4.407   6.683 -1.1599  0.7058  0.0451
  780MOL0     H 2937   2.670   4.532   6.577 -3.0313 -0.8576  2.5043
  780MOL0     H 2938   2.737   4.563   6.879 -0.5958  1.3136 -0.4537
  780MOL0     H 2939   2.729   4.699   6.768  2.0109  0.9288  3.7645
  780MOL0     H 2940   2.463   4.604   6.737 -1.3244 -1.8634  1.3798
  780MOL0     H 2941   2.523   4.711   6.867 -0.6007  0.3617  0.6780
  780MOL0     H 2942   3.538   4.651   6.523 -0.5201 -0.5031  1.6445
  780MOL0     H 2943   3.794   4.667   6.580  0.2366  0.1653 -2.4707
  780MOL0     H 2944   4.121   4.643   6.878 -1.5484 -0.2001 -1.3202
  780MOL0     H 2945   4.368   4.647   6.907  3.6117  0.3403 -0.1682
  780MOL0     H 2946   6.226   5.566   6.314 -2.3642  0.9194 -4.4747
  780MOL0     H 2947   6.471   5.561   6.265 -1.8365 -0.1830  2.9658
  780MOL0     H 2948   6.809   5.479   5.871 -3.1970  2.2974  3.4529
  780MOL0     H 2949   7.069   5.463   5.866  2.4945 -3.1899  0.2951
  780MOL0     H 2950   7.248   5.218   6.185 -0.6998  0.9264  2.0969
  780MOL0     H 2951   7.340   5.364   6.218  1.2774  0.8410 -2.1324
  780MOL0     H 2952   7.413   5.185   6.000  1.5238  1.0670 -1.3262
  780MOL0     H 2953   7.492   5.337   6.024  2.5663 -0.1475  1.5586
  780MOL0     H 2954   7.465   5.147   6.259 -1.2121  1.6596  0.1720
  780MOL0     H 2955   7.552   5.298   6.265  2.8043 -1.3240  0.4074
  780MOL0     H 2956   7.699   5.083   6.241 -1.5309  0.7200  0.8694
  780MOL0     H 2957   7.621   5.073   6.081 -1.4191  0.6754  0.2839
  780MOL0     H 2958   7.942   5.327   6.016 -0.1054 -1.8473 -2.5327
  780MOL0     H 2959   7.078   5.328   6.267  2.9530  1.9615 -0.1964
  780MOL0     H 2960   6.847   5.368   6.292  1.2731 -0.4288  0.5002
  781MOL0     O 2961   8.750   7.089   8.750  0.0750 -0.3985  0.1018
  781MOL0     C 2962   8.782   7.013   8.666 -0.2383 -0.1663 -0.3748
  781MOL0     O 2963   8.701   6.948   8.577  0.1544  0.0462 -0.8146
  781MOL0     C 2964   8.564   6.970   8.560 -0.4902 -0.4836 -0.1277
  781MOL0     C 2965   8.494   6.871   8.497 -0.0929 -0.0800 -1.5139
  781MOL0     C 2966   8.359   6.864   8.493  0.1657  0.5451  0.7619
  781MOL0     C 2967   8.285   6.971   8.535  0.4714 -0.2061 -1.3774
  781MOL0     O 2968   8.146   6.968   8.530 -0.2701 -0.6030 -0.1709
  781MOL0     C 2969   8.070   6.877   8.443  1.1163 -0.6719  0.4663
  781MOL0     C 2970   7.923   6.916   8.451 -1.1225  0.1798 -0.6202
  781MOL0     C 2971   7.830   6.819   8.379  0.5875 -0.3692  0.0551
  781MOL0     C 2972   7.842   6.807   8.224 -0.3465  1.7700 -0.3054
  781MOL0     C 2973   7.778   6.929   8.165  0.2741 -0.5445  0.3137
  781MOL0     C 2974   7.797   6.913   8.010  0.4942  0.5459  0.2047
  781MOL0     C 2975   7.735   7.040   7.941 -0.3302  0.5926 -0.2229
  781MOL0     C 2976   7.584   7.065   7.952  0.2178 -0.2601 -0.0192
  781MOL0     N 2977   7.520   7.174   7.875  0.5448 -0.0880  0.7312
  781MOL0     C 2978   7.504   7.170   7.738 -0.2362 -1.0574 -0.2742
  781MOL0     C 2979   7.434   7.283   7.702  0.2891  0.6778  0.1119
  781MOL0     C 2980   7.360   7.309   7.574 -0.3276 -0.8934  0.4814
  781MOL0     C 2981   7.210   7.340   7.583  0.1503 -1.0364 -0.1006
  781MOL0     C 2982   7.144   7.346   7.437  0.1197 -0.7712 -0.4201
  781MOL0     C 2983   6.991   7.359   7.453  0.5295  0.2544  0.0650
  781MOL0     O 2984   6.935   7.341   7.320  0.2667  0.1153 -0.3862
  781MOL0     C 2985   6.803   7.303   7.302  0.1400 -0.8775  1.0300
  781MOL0     C 2986   6.715   7.276   7.408 -0.6176  0.1849 -0.0047
  781MOL0     C 2987   6.581   7.238   7.382 -0.4025 -0.0232 -0.7015
  781MOL0     C 2988   6.532   7.219   7.252 -0.2132 -0.0068 -0.7233
  781MOL0     C 2989   6.395   7.176   7.225 -0.3708  1.2027  0.8803
  781MOL0     O 2990   6.322   7.148   7.340 -0.0192 -0.1255 -0.1322
  781MOL0     C 2991   6.182   7.130   7.335  0.4674 -0.7685 -0.0264
  781MOL0     C 2992   6.084   7.214   7.389  0.1287  0.7804  0.0560
  781MOL0     C 2993   5.947   7.192   7.374 -0.0092 -0.0213 -0.0548
  781MOL0     C 2994   5.909   7.076   7.308  0.2232  0.8774 -0.6769
  781MOL0     O 2995   5.775   7.024   7.291 -0.0452  0.2808  0.1142
  781MOL0     C 2996   5.685   7.128   7.242  0.6709  0.1937 -0.1608
  781MOL0     C 2997   5.540   7.075   7.246  0.1262  0.3861 -0.0512
  781MOL0     C 2998   5.427   7.181   7.236 -0.9539 -0.3628  0.9526
  781MOL0     C 2999   5.288   7.121   7.274 -0.4479 -1.1398  0.1682
  781MOL0     C 3000   5.180   7.225   7.311 -0.6924  0.4323 -0.6862
  781MOL0     C 3001   5.154   7.306   7.183 -0.1930  0.0193 -0.8219
  781MOL0     C 3002   5.053   7.407   7.206 -0.6832 -1.0826 -0.1718
  781MOL0     C 3003   5.027   7.496   7.086  0.4915  0.3345 -0.0667
  781MOL0    Cl 3004   4.865   7.564   7.112 -0.4647 -0.4472  0.1238
  781MOL0     C 3005   6.002   6.983   7.270 -0.5393 -0.6135  1.3441
  781MOL0     C 3006   6.132   7.016   7.279 -0.2952  0.1048  0.1751
  781MOL0     O 3007   6.350   7.168   7.108  0.3586 -0.4018 -0.6814
  781MOL0     C 3008   6.622   7.250   7.146  0.3806 -1.0603 -0.2498
  781MOL0     C 3009   6.757   7.292   7.170 -0.0300  0.0602  0.1289
  781MOL0     N 3010   7.436   7.361   7.814 -0.4137  0.5689 -0.3670
  781MOL0     N 3011   7.495   7.302   7.913  0.1182  0.3578  0.2503
  781MOL0     C 3012   8.346   7.081   8.590 -0.1907  0.0802 -0.2120
  781MOL0     C 3013   8.492   7.081   8.598 -0.3615 -0.7712 -0.1716
  781MOL0     C 3014   8.926   6.977   8.652  0.1653  0.8084  0.3800
  781MOL0     C 3015   9.022   7.044   8.724 -0.4819  0.7934 -0.7375
  781MOL0     C 3016   9.158   7.001   8.704 -0.2667 -0.0327  0.2430
  781MOL0     C 3017   9.192   6.878   8.645  0.0345 -0.3102  0.4162
  781MOL0     O 3018   9.313   6.808   8.624  0.0383  0.1605  0.1952
  781MOL0     C 3019   9.423   6.864   8.688  0.2741  0.6803  1.2511
  781MOL0     C 3020   9.538   6.780   8.635 -0.2395  0.1714  0.6126
  781MOL0     C 3021   9.670   6.810   8.712  0.2810 -0.0861 -0.1268
  781MOL0     C 3022   9.782   6.732   8.652 -0.2111 -0.0463  0.7022
  781MOL0     C 3023   9.835   6.815   8.541 -0.0398  0.3645  0.2626
  781MOL0     C 3024   9.876   6.873   8.446  0.9918 -0.0141 -0.0133
  781MOL0     C 3025   9.095   6.820   8.565 -0.1219 -0.3997  0.1451
  781MOL0     C 3026   8.967   6.864   8.569  0.0541  0.1548 -0.4050
  781MOL0     H 3027   8.535   6.773   8.474 -1.2744 -1.3456  1.2757
  781MOL0     H 3028   8.314   6.771   8.459  1.4040  1.1938 -3.2188
  781MOL0     H 3029   8.081   6.769   8.460 -3.0751 -1.0767  1.9131
  781MOL0     H 3030   8.106   6.899   8.342 -0.4057 -2.2333 -0.4731
  781MOL0     H 3031   7.904   7.014   8.406 -1.2861  1.6412  2.3459
  781MOL0     H 3032   7.890   6.925   8.555  1.0108  1.4134  0.0199
  781MOL0     H 3033   7.728   6.847   8.407  0.7743 -0.8194  1.2499
  781MOL0     H 3034   7.841   6.717   8.417  1.1988 -0.4360 -0.2980
  781MOL0     H 3035   7.942   6.785   8.185 -1.2841  0.3692 -2.0782
  781MOL0     H 3036   7.773   6.725   8.201 -1.8361  2.5523  1.1229
  781MOL0     H 3037   7.824   7.022   8.199  0.2707 -1.3400  2.6197
  781MOL0     H 3038   7.672   6.931   8.192  0.5775 -0.8741  1.5772
  781MOL0     H 3039   7.749   6.822   7.972  1.6249 -0.1312  0.3585
  781MOL0     H 3040   7.904   6.907   7.988  0.0328 -3.7198 -1.8988
  781MOL0     H 3041   7.787   7.128   7.980 -0.6912  0.5210  0.4349
  781MOL0     H 3042   7.763   7.031   7.835  1.5314  0.1018  0.2630
  781MOL0     H 3043   7.556   7.085   8.055 -1.0688 -1.1764 -0.1676
  781MOL0     H 3044   7.526   6.978   7.919 -3.0372  1.5360  0.5385
  781MOL0     H 3045   7.512   7.079   7.679 -1.2834 -1.0899 -0.3885
  781MOL0     H 3046   7.361   7.218   7.512 -2.5928  0.3893 -1.5889
  781MOL0     H 3047   7.404   7.395   7.522  1.8896 -1.3901  1.4262
  781MOL0     H 3048   7.193   7.439   7.625  1.0448 -0.6232 -0.6861
  781MOL0     H 3049   7.150   7.275   7.648 -1.9650 -1.0566 -1.9515
  781MOL0     H 3050   7.191   7.415   7.367  0.7263 -1.8842 -1.1416
  781MOL0     H 3051   7.151   7.247   7.390 -0.8732 -1.2774  0.4363
  781MOL0     H 3052   6.965   7.460   7.487 -2.2233 -0.8016  1.3641
  781MOL0     H 3053   6.952   7.284   7.521  2.8678 -0.5662  0.6144
  781MOL0     H 3054   6.747   7.268   7.512 -1.6792 -3.2805  0.1857
  781MOL0     H 3055   6.525   7.215   7.471 -0.2585 -1.2649 -0.9159
  781MOL0     H 3056   6.121   7.299   7.447  0.1203 -0.4445  1.9640
  781MOL0     H 3057   5.874   7.256   7.423 -1.1484 -0.1054 -1.5649
  781MOL0     H 3058   5.705   7.139   7.135 -0.0136 -4.2925 -0.9564
  781MOL0     H 3059   5.699   7.228   7.282 -0.8149  2.3099 -4.2665
  781MOL0     H 3060   5.526   7.014   7.335  0.2393 -0.6204 -0.7087
  781MOL0     H 3061   5.530   7.009   7.159  1.8773  0.5640 -0.4363
  781MOL0     H 3062   5.422   7.222   7.135  1.9081  2.5539  1.8226
  781MOL0     H 3063   5.450   7.265   7.302 -0.2038  0.7475 -0.6517
  781MOL0     H 3064   5.247   7.063   7.191  3.2420 -0.0961 -2.6673
  781MOL0     H 3065   5.290   7.052   7.358 -1.5667  1.2788  2.3237
  781MOL0     H 3066   5.221   7.288   7.390  0.1614  0.1558 -0.9000
  781MOL0     H 3067   5.092   7.169   7.343  1.3503 -0.9729  2.9916
  781MOL0     H 3068   5.111   7.233   7.114 -2.2963  0.5792 -0.1762
  781MOL0     H 3069   5.245   7.348   7.139 -1.1061  1.4496 -1.4162
  781MOL0     H 3070   4.959   7.356   7.225 -0.5358 -2.3445 -2.4637
  781MOL0     H 3071   5.090   7.467   7.290 -2.7481  0.9672 -0.6399
  781MOL0     H 3072   5.028   7.439   6.993 -0.2884  1.3878 -0.7468
  781MOL0     H 3073   5.098   7.578   7.082 -1.9959  2.7799  1.7742
  781MOL0     H 3074   5.979   6.885   7.228  2.9277 -0.3153 -1.7314
  781MOL0     H 3075   6.212   6.947   7.253  0.6263  0.4108  2.0492
  781MOL0     H 3076   6.582   7.246   7.045 -0.5964 -2.7995  0.1747
  781MOL0     H 3077   6.830   7.318   7.095 -0.9040  0.6323 -0.5444
  781MOL0     H 3078   8.301   7.174   8.623 -0.4730 -0.1703  0.1191
  781MOL0     H 3079   8.536   7.179   8.615 -0.0940 -0.5149 -2.0926
  781MOL0     H 3080   9.003   7.137   8.778  0.2097  1.0094 -0.8508
  781MOL0     H 3081   9.238   7.063   8.743 -1.6606  0.8939  1.7599
  781MOL0     H 3082   9.421   6.863   8.798 -1.0460  3.4409  1.3460
  781MOL0     H 3083   9.449   6.958   8.638  1.7614 -0.3233  0.0443
  781MOL0     H 3084   9.498   6.682   8.664 -2.2841  1.6690  3.2876
  781MOL0     H 3085   9.551   6.790   8.526  0.3512  0.0763  0.6765
  781MOL0     H 3086   9.644   6.775   8.812 -1.0502 -2.6905 -1.3093
  781MOL0     H 3087   9.699   6.916   8.716 -0.5155  0.2874 -2.6592
  781MOL0     H 3088   9.866   6.706   8.718  0.9757  1.6542 -0.0703
  781MOL0     H 3089   9.745   6.637   8.612 -0.8219  1.3718 -2.3503
  781MOL0     H 3090   9.917   6.922   8.360 -1.5231  2.3265 -0.0424
  781MOL0     H 3091   9.117   6.734   8.503 -1.3275  0.3231 -1.3669
  781MOL0     H 3092   8.894   6.805   8.516  1.1779 -0.6099 -1.1411
  782MOL0     O 3093   2.264   8.071   0.512 -0.1206 -0.2926  0.3558
  782MOL0     C 3094   2.285   8.072   0.635  0.1401  0.1813  0.2503
  782MOL0     O 3095   2.201   8.024   0.730  0.5043  0.1720 -0.1756
  782MOL0     C 3096   2.072   7.982   0.691  0.0488 -1.5733 -0.1700
  782MOL0     C 3097   1.958   8.036   0.761  0.4315 -0.0563  0.4039
  782MOL0     C 3098   1.830   7.974   0.735 -0.3013 -0.0737 -0.4905
  782MOL0     C 3099   1.812   7.858   0.661 -0.2457 -0.4044 -0.3937
  782MOL0     O 3100   1.684   7.806   0.642  0.7473 -0.8272  0.3251
  782MOL0     C 3101   1.675   7.663   0.628 -0.0133  0.9394 -0.3332
  782MOL0     C 3102   1.529   7.619   0.656  0.2932  0.2642 -0.8414
  782MOL0     C 3103   1.422   7.672   0.566  0.8948 -0.0463  1.0541
  782MOL0     C 3104   1.286   7.642   0.617 -0.4531 -0.6201 -0.0965
  782MOL0     C 3105   1.175   7.689   0.517 -1.4162  0.6262 -0.5444
  782MOL0     C 3106   1.053   7.733   0.593 -0.0420 -0.1606 -0.0515
  782MOL0     C 3107   0.938   7.748   0.504  0.1784  0.9642  0.4231
  782MOL0     C 3108   0.890   7.614   0.438  0.2836  0.3440  0.2736
  782MOL0     N 3109   0.743   7.599   0.401 -0.7731 -0.0446 -0.2325
  782MOL0     C 3110   0.673   7.693   0.326  0.4211  0.2453 -0.2087
  782MOL0     C 3111   0.550   7.646   0.314 -1.0660 -0.2283  0.0641
  782MOL0     C 3112   0.433   7.702   0.247  1.0412 -0.7048  0.4163
  782MOL0     C 3113   0.333   7.739   0.354 -0.2291 -0.6773  0.6173
  782MOL0     C 3114   0.213   7.797   0.282  0.7325  0.0746  0.2007
  782MOL0     C 3115   0.142   7.879   0.398  0.8284 -0.0633 -0.2734
  782MOL0     O 3116   0.054   7.797   0.474 -0.0899 -0.0672  0.1523
  782MOL0     C 3117  -0.077   7.781   0.429 -0.7898  0.0621 -0.0808
  782MOL0     C 3118  -0.117   7.655   0.371  0.3013 -0.5504 -0.5879
  782MOL0     C 3119  -0.248   7.647   0.328  0.3690  0.9320 -0.3559
  782MOL0     C 3120  -0.337   7.758   0.338  0.3581  0.2483  0.8570
  782MOL0     C 3121  -0.483   7.740   0.318 -0.1173  0.1348  0.1595
  782MOL0     O 3122  -0.570   7.847   0.340  0.0001 -0.4276 -0.2959
  782MOL0     C 3123  -0.709   7.837   0.313 -0.3535 -0.1486  0.9494
  782MOL0     C 3124  -0.787   7.733   0.356 -0.1942 -0.0211 -0.7606
  782MOL0     C 3125  -0.927   7.743   0.338  0.8939 -1.4619 -0.1333
  782MOL0     C 3126  -0.983   7.846   0.258 -0.2569  0.2161  0.3210
  782MOL0     O 3127  -1.118   7.856   0.226 -0.4332 -0.4473 -0.7773
  782MOL0     C 3128  -1.206   7.743   0.267  0.3736 -1.1489 -0.8418
  782MOL0     C 3129  -1.347   7.781   0.211 -0.2522  1.7362  0.1960
  782MOL0     C 3130  -1.400   7.911   0.272  0.2906  0.1956  0.2467
  782MOL0     C 3131  -1.546   7.931   0.237 -0.7046 -0.2602  0.4220
  782MOL0     C 3132  -1.595   8.069   0.254  0.2000 -0.0995 -0.8714
  782MOL0     C 3133  -1.745   8.092   0.211 -0.3386  0.6392 -0.0315
  782MOL0     C 3134  -1.772   8.226   0.132 -0.3233 -0.5767 -1.0789
  782MOL0     C 3135  -1.916   8.230   0.090 -0.8722  0.2019 -0.6522
  782MOL0    Cl 3136  -2.038   8.222   0.205  0.1075 -0.2685  0.2850
  782MOL0     C 3137  -0.899   7.950   0.215  1.3307 -0.7345  0.7028
  782MOL0     C 3138  -0.766   7.938   0.234 -0.3855 -0.0384 -0.3441
  782MOL0     O 3139  -0.515   7.631   0.277 -0.2028 -0.5300 -0.2321
  782MOL0     C 3140  -0.287   7.882   0.385 -0.7621 -0.0806  0.5701
  782MOL0     C 3141  -0.163   7.893   0.428  0.3193 -0.0055  0.8920
  782MOL0     N 3142   0.544   7.529   0.393 -1.2916 -0.4144  0.6103
  782MOL0     N 3143   0.653   7.503   0.441 -0.4062  0.2159 -0.1269
  782MOL0     C 3144   1.929   7.807   0.603  0.4136 -0.2937 -0.6319
  782MOL0     C 3145   2.053   7.867   0.620 -0.5491 -0.3942  0.8795
  782MOL0     C 3146   2.410   8.138   0.672 -0.2540 -0.6143  0.6184
  782MOL0     C 3147   2.460   8.125   0.803  0.7578  0.1321 -0.4359
  782MOL0     C 3148   2.584   8.171   0.841  0.6820 -0.0219  0.4262
  782MOL0     C 3149   2.658   8.251   0.759  0.1312  0.1185 -0.1977
  782MOL0     O 3150   2.778   8.311   0.787 -0.4620 -0.0518 -0.2363
  782MOL0     C 3151   2.872   8.236   0.863  0.0516 -0.3924  0.0169
  782MOL0     C 3152   3.011   8.290   0.841  0.5112 -0.6351  0.1486
  782MOL0     C 3153   3.031   8.440   0.871  0.4410 -0.1973  0.1812
  782MOL0     C 3154   2.997   8.481   1.013  0.8525 -0.8100 -0.1983
  782MOL0     C 3155   2.980   8.630   1.025  0.0713  0.4851 -0.7502
  782MOL0     C 3156   2.985   8.754   1.014 -0.9719 -0.2544 -0.1288
  782MOL0     C 3157   2.606   8.279   0.630 -1.2106  0.1560 -0.0662
  782MOL0     C 3158   2.489   8.214   0.585  0.0333 -0.2568 -0.0478
  782MOL0     H 3159   1.966   8.114   0.836  2.2035  0.7082 -0.5318
  782MOL0     H 3160   1.752   8.019   0.796 -0.2203  0.8409 -1.0574
  782MOL0     H 3161   1.747   7.611   0.692 -0.9529  2.8678  2.4718
  782MOL0     H 3162   1.697   7.636   0.524  0.0425 -1.5268  0.2568
  782MOL0     H 3163   1.499   7.665   0.751 -2.1694 -0.0241 -1.4222
  782MOL0     H 3164   1.521   7.510   0.669 -2.3591  0.2485 -2.0576
  782MOL0     H 3165   1.429   7.624   0.467 -1.8871  1.0867  0.2080
  782MOL0     H 3166   1.433   7.780   0.552 -1.5278 -0.1193 -3.3127
  782MOL0     H 3167   1.278   7.536   0.643  2.5859 -0.3619  2.5667
  782MOL0     H 3168   1.269   7.701   0.708  2.6936  2.7608 -1.4286
  782MOL0     H 3169   1.160   7.606   0.448  0.3063  1.2141 -1.7022
  782MOL0     H 3170   1.218   7.775   0.464  2.8616 -1.4072 -0.8056
  782MOL0     H 3171   1.072   7.823   0.651  0.2992 -1.5972  2.1807
  782MOL0     H 3172   1.026   7.654   0.664  4.3450 -1.3464  0.6112
  782MOL0     H 3173   0.855   7.792   0.561 -1.9051 -2.0171 -0.0799
  782MOL0     H 3174   0.956   7.817   0.421  3.2504 -1.2104 -0.8915
  782MOL0     H 3175   0.911   7.529   0.503 -1.4642 -1.8339 -1.8291
  782MOL0     H 3176   0.946   7.598   0.345  0.3833  1.9418  0.0265
  782MOL0     H 3177   0.729   7.778   0.288  2.1358 -0.7651 -0.0697
  782MOL0     H 3178   0.391   7.626   0.180  1.7453  1.6955 -3.0053
  782MOL0     H 3179   0.443   7.791   0.185 -1.3995 -0.2918  0.4969
  782MOL0     H 3180   0.380   7.818   0.414 -1.7836  1.5969 -0.9882
  782MOL0     H 3181   0.302   7.652   0.413 -1.3657 -0.7147 -0.0104
  782MOL0     H 3182   0.239   7.858   0.195 -0.0188  0.6800  0.3926
  782MOL0     H 3183   0.151   7.709   0.261 -0.8603  1.2803 -0.3159
  782MOL0     H 3184   0.083   7.956   0.348  1.6498  1.2928  0.7644
  782MOL0     H 3185   0.217   7.925   0.463 -0.1784  1.1917  0.0417
  782MOL0     H 3186  -0.041   7.578   0.372  0.1138 -0.7353  0.2039
  782MOL0     H 3187  -0.288   7.557   0.283  0.7305  0.4910  0.1800
  782MOL0     H 3188  -0.733   7.656   0.409 -0.2075  2.1935  2.8071
  782MOL0     H 3189  -0.996   7.673   0.383  1.7914 -1.0087  2.0582
  782MOL0     H 3190  -1.216   7.728   0.375 -0.2585 -0.7714 -0.8407
  782MOL0     H 3191  -1.171   7.649   0.224 -0.5798 -2.2408  0.6746
  782MOL0     H 3192  -1.411   7.700   0.250  1.6379 -0.9176 -1.8367
  782MOL0     H 3193  -1.355   7.775   0.102  1.7514 -1.1511  0.0760
  782MOL0     H 3194  -1.344   8.000   0.242 -0.2493 -0.1302 -1.8691
  782MOL0     H 3195  -1.394   7.898   0.381  0.2230  2.3707  0.5587
  782MOL0     H 3196  -1.568   7.900   0.134 -1.5302 -2.2730  1.1598
  782MOL0     H 3197  -1.604   7.864   0.300 -1.7009  2.5359  2.7057
  782MOL0     H 3198  -1.538   8.139   0.192  1.5818  0.7044  1.1767
  782MOL0     H 3199  -1.591   8.096   0.360 -1.9421 -1.0334 -0.5036
  782MOL0     H 3200  -1.808   8.078   0.299 -0.9246 -1.2797 -0.7025
  782MOL0     H 3201  -1.773   8.013   0.141 -0.4985  1.8976 -1.4398
  782MOL0     H 3202  -1.753   8.316   0.192 -1.1008  0.9025 -2.9085
  782MOL0     H 3203  -1.721   8.249   0.038 -0.2624  0.1372 -0.8826
  782MOL0     H 3204  -1.932   8.162   0.005 -1.7281 -0.8589  0.3273
  782MOL0     H 3205  -1.918   8.324   0.035 -3.0299 -0.7165 -2.2883
  782MOL0     H 3206  -0.941   8.039   0.168  1.2921 -0.6022  0.9808
  782MOL0     H 3207  -0.706   8.022   0.201 -0.7293  0.5664  0.5345
  782MOL0     H 3208  -0.352   7.969   0.381 -0.7951 -0.1672 -2.4218
  782MOL0     H 3209  -0.130   7.993   0.453  2.7480 -0.1528 -1.2917
  782MOL0     H 3210   1.917   7.723   0.536  1.2691 -0.6348 -0.3676
  782MOL0     H 3211   2.139   7.829   0.566 -0.3183 -1.3515  1.8798
  782MOL0     H 3212   2.395   8.084   0.879 -0.4784 -3.4906 -3.1714
  782MOL0     H 3213   2.617   8.149   0.942  2.5403  0.1779 -0.0909
  782MOL0     H 3214   2.882   8.130   0.838  1.5685 -0.2508 -0.0851
  782MOL0     H 3215   2.850   8.251   0.969 -1.4384  2.1624 -0.5707
  782MOL0     H 3216   3.082   8.232   0.901  0.5575  2.2632  3.1747
  782MOL0     H 3217   3.044   8.271   0.738 -3.4964  0.8863 -1.6145
  782MOL0     H 3218   2.970   8.502   0.804  2.0473  0.2307 -0.9282
  782MOL0     H 3219   3.127   8.473   0.830 -0.1791  0.1115 -1.0852
  782MOL0     H 3220   2.900   8.440   1.040  0.1370 -0.7987 -2.5283
  782MOL0     H 3221   3.073   8.454   1.087  2.5773  3.3187 -0.1580
  782MOL0     H 3222   2.997   8.860   1.005 -3.6423  0.2723  1.4193
  782MOL0     H 3223   2.655   8.346   0.560 -2.3708  0.3497 -0.7254
  782MOL0     H 3224   2.459   8.230   0.482  1.6883 -0.1133 -0.5441
  783MOL0     O 3225   3.508   4.953   2.832  0.1998 -0.4920 -0.2605
  783MOL0     C 3226   3.491   5.055   2.765 -0.2380  0.3542 -0.1581
  783MOL0     O 3227   3.367   5.116   2.744 -0.1674  1.2191 -0.1182
  783MOL0     C 3228   3.258   5.040   2.789  0.3459  0.0221 -0.0598
  783MOL0     C 3229   3.192   4.952   2.706  0.1296 -0.4293 -0.7598
  783MOL0     C 3230   3.071   4.897   2.744  1.0939  0.3967 -0.2537
  783MOL0     C 3231   3.017   4.927   2.870 -0.3650  0.4754 -0.2195
  783MOL0     O 3232   2.898   4.880   2.924 -0.7749  0.4323 -0.0534
  783MOL0     C 3233   2.830   4.765   2.859 -0.2031 -0.0714  0.8707
  783MOL0     C 3234   2.685   4.747   2.913  0.0557 -0.4806  0.0653
  783MOL0     C 3235   2.576   4.853   2.886  0.0033 -0.3433 -0.4390
  783MOL0     C 3236   2.439   4.797   2.896 -0.2349  0.0489  0.4146
  783MOL0     C 3237   2.339   4.903   2.840  0.0725 -0.2245 -0.4286
  783MOL0     C 3238   2.196   4.848   2.829 -0.6028  0.0818  0.2034
  783MOL0     C 3239   2.095   4.960   2.821  0.1591  0.5266  0.1484
  783MOL0     C 3240   1.950   4.913   2.831 -0.9937  0.8444 -0.3600
  783MOL0     N 3241   1.900   4.839   2.715  0.1771 -0.3787  0.9249
  783MOL0     C 3242   1.862   4.904   2.598 -0.2726  0.6096 -0.1781
  783MOL0     C 3243   1.777   4.818   2.531 -0.7302 -0.5727 -0.5950
  783MOL0     C 3244   1.714   4.847   2.397  0.1439  0.0646  0.4598
  783MOL0     C 3245   1.648   4.725   2.334 -0.4895 -0.1096  0.5444
  783MOL0     C 3246   1.616   4.764   2.188  1.0435  0.1531 -0.2493
  783MOL0     C 3247   1.519   4.666   2.107  0.5538 -0.5347  0.1393
  783MOL0     O 3248   1.401   4.659   2.189 -0.0432 -0.3698 -0.7572
  783MOL0     C 3249   1.300   4.575   2.154 -0.6485  0.5820 -0.0159
  783MOL0     C 3250   1.291   4.506   2.030 -0.2719 -0.5905 -0.6048
  783MOL0     C 3251   1.173   4.429   1.997  0.0146  0.0960  0.1027
  783MOL0     C 3252   1.073   4.408   2.091  0.4293  0.0138  0.0783
  783MOL0     C 3253   0.956   4.325   2.057  0.4408 -0.1290  0.3057
  783MOL0     O 3254   0.868   4.296   2.157 -0.3032 -0.7194 -0.2688
  783MOL0     C 3255   0.739   4.247   2.152 -0.2456  0.6108  0.0155
  783MOL0     C 3256   0.684   4.166   2.047 -0.4521  0.2480  0.1974
  783MOL0     C 3257   0.556   4.120   2.043  0.1807 -0.6310 -0.0036
  783MOL0     C 3258   0.467   4.155   2.140 -0.5602 -0.1454 -0.3297
  783MOL0     O 3259   0.344   4.101   2.159 -0.6681  0.0800 -0.0349
  783MOL0     C 3260   0.237   4.165   2.218 -0.6707 -0.3550 -0.1148
  783MOL0     C 3261   0.184   4.271   2.114  0.8992  1.1227  0.0917
  783MOL0     C 3262   0.164   4.202   1.978 -0.3725  0.2053 -0.3265
  783MOL0     C 3263   0.077   4.287   1.896 -0.7058 -0.2603 -0.3402
  783MOL0     C 3264   0.048   4.225   1.760  0.7392  0.1369 -1.0622
  783MOL0     C 3265  -0.058   4.306   1.693 -0.5109 -0.0043  0.8564
  783MOL0     C 3266  -0.099   4.259   1.550 -0.0249 -0.3037  0.3453
  783MOL0     C 3267   0.015   4.275   1.445  0.1307  0.8215 -0.1617
  783MOL0    Cl 3268   0.035   4.451   1.426 -0.2078  0.5959  0.3577
  783MOL0     C 3269   0.522   4.241   2.245  0.1688 -0.4382 -0.6607
  783MOL0     C 3270   0.651   4.283   2.254 -0.2036  0.8929  0.7310
  783MOL0     O 3271   0.938   4.303   1.939 -0.2757  0.2833  0.1475
  783MOL0     C 3272   1.091   4.472   2.222  0.0493  1.2235  0.1872
  783MOL0     C 3273   1.201   4.554   2.250  0.5530  0.5022 -0.4091
  783MOL0     N 3274   1.767   4.703   2.609  0.3326 -0.0110 -0.7260
  783MOL0     N 3275   1.835   4.718   2.718 -1.5517 -0.6279  0.2765
  783MOL0     C 3276   3.086   5.021   2.951 -0.0632 -0.0898 -0.4499
  783MOL0     C 3277   3.212   5.065   2.918  0.2258 -0.1429 -0.5378
  783MOL0     C 3278   3.608   5.117   2.709 -0.6014 -0.3187 -0.3374
  783MOL0     C 3279   3.733   5.065   2.737 -0.5606  0.3150  0.0354
  783MOL0     C 3280   3.853   5.113   2.684 -0.3000 -0.0505 -0.6147
  783MOL0     C 3281   3.853   5.232   2.607  0.1276  0.6406  0.2345
  783MOL0     O 3282   3.976   5.282   2.563  0.0755 -0.7019 -0.4856
  783MOL0     C 3283   3.974   5.414   2.488  0.6727  0.5390 -0.4273
  783MOL0     C 3284   4.074   5.411   2.367 -0.0500 -0.2181  0.0029
  783MOL0     C 3285   4.211   5.348   2.396  0.1581 -0.1136  0.0347
  783MOL0     C 3286   4.281   5.408   2.523  0.7206  0.0075 -0.0006
  783MOL0     C 3287   4.424   5.387   2.521 -0.3516 -0.4920  0.5287
  783MOL0     C 3288   4.541   5.380   2.535  0.3270  0.4267 -0.1649
  783MOL0     C 3289   3.725   5.292   2.588  0.2089  0.4103 -0.0699
  783MOL0     C 3290   3.615   5.225   2.629  0.3970 -0.1184 -1.1074
  783MOL0     H 3291   3.231   4.939   2.605  1.5134  0.9274 -0.4317
  783MOL0     H 3292   3.017   4.830   2.679  0.7530  2.2585 -1.9789
  783MOL0     H 3293   2.880   4.667   2.857 -3.1552 -1.7223 -1.8028
  783MOL0     H 3294   2.819   4.792   2.754  1.4260  0.3536  0.7807
  783MOL0     H 3295   2.689   4.728   3.021 -0.4746 -1.6356 -0.1120
  783MOL0     H 3296   2.651   4.657   2.862  0.4995 -1.6663  1.7798
  783MOL0     H 3297   2.583   4.885   2.781  2.9938 -1.9786 -0.8472
  783MOL0     H 3298   2.592   4.946   2.942 -1.4109  0.6423 -1.5943
  783MOL0     H 3299   2.433   4.701   2.844 -1.4904 -0.8246  2.0585
  783MOL0     H 3300   2.425   4.779   3.003  3.2480  0.4670  1.0396
  783MOL0     H 3301   2.371   4.947   2.745  1.1974  2.3742  1.0665
  783MOL0     H 3302   2.334   4.979   2.918  0.4666 -0.7369  0.1064
  783MOL0     H 3303   2.168   4.802   2.924  0.7626  1.3192  1.2563
  783MOL0     H 3304   2.185   4.770   2.754 -0.9660 -0.8398  1.1825
  783MOL0     H 3305   2.118   5.036   2.897 -1.8711  1.1526  0.1953
  783MOL0     H 3306   2.099   5.013   2.726  0.1995  1.0580  0.4454
  783MOL0     H 3307   1.889   5.004   2.838 -0.8675  0.8144  2.0767
  783MOL0     H 3308   1.934   4.847   2.917  1.7488 -1.4505 -1.4599
  783MOL0     H 3309   1.887   5.008   2.580  1.3449  0.8284  2.6364
  783MOL0     H 3310   1.791   4.882   2.328  3.1037 -1.1588  2.9251
  783MOL0     H 3311   1.654   4.938   2.407  1.0979  0.8371 -0.4773
  783MOL0     H 3312   1.562   4.694   2.394 -0.1340 -0.5353  0.8411
  783MOL0     H 3313   1.712   4.636   2.340 -0.5287 -0.1077  1.0014
  783MOL0     H 3314   1.568   4.863   2.184  1.0792  0.1349 -1.8085
  783MOL0     H 3315   1.703   4.759   2.121 -0.7636  0.1228 -2.7178
  783MOL0     H 3316   1.566   4.573   2.075  1.2707 -0.4497  0.8929
  783MOL0     H 3317   1.501   4.722   2.015 -0.5669 -4.9043 -2.5621
  783MOL0     H 3318   1.362   4.525   1.950  1.4444  0.1258  1.0278
  783MOL0     H 3319   1.157   4.402   1.893  0.6659  1.5058 -0.3994
  783MOL0     H 3320   0.752   4.124   1.974  4.0471  3.2124  2.2342
  783MOL0     H 3321   0.511   4.057   1.967 -2.2522 -1.0306  1.6558
  783MOL0     H 3322   0.256   4.208   2.316  2.5061  0.1734 -0.8563
  783MOL0     H 3323   0.150   4.101   2.238 -0.6030 -0.6664 -0.7730
  783MOL0     H 3324   0.258   4.352   2.114 -1.3764  3.4470  2.8444
  783MOL0     H 3325   0.082   4.305   2.137 -0.3240 -1.0145 -1.7343
  783MOL0     H 3326   0.124   4.100   1.982 -1.8018  0.7421  2.6818
  783MOL0     H 3327   0.263   4.194   1.933 -0.3282  3.4739 -1.0222
  783MOL0     H 3328  -0.013   4.308   1.954  0.4837 -0.9046  1.8537
  783MOL0     H 3329   0.132   4.381   1.889  1.0664 -1.1071  1.3564
  783MOL0     H 3330   0.009   4.126   1.787 -1.0961  1.3483  1.0429
  783MOL0     H 3331   0.142   4.210   1.707  0.7936 -0.8109 -0.7249
  783MOL0     H 3332  -0.034   4.412   1.681  0.2669 -0.3037 -0.4737
  783MOL0     H 3333  -0.151   4.305   1.750 -1.5033  0.5896 -0.6975
  783MOL0     H 3334  -0.116   4.151   1.541 -1.9790  0.1329 -3.6595
  783MOL0     H 3335  -0.189   4.308   1.513 -0.9231 -0.9244  1.6697
  783MOL0     H 3336  -0.010   4.237   1.346 -1.8077 -0.3176  0.7223
  783MOL0     H 3337   0.100   4.217   1.482 -0.2462 -1.6451 -2.8647
  783MOL0     H 3338   0.466   4.269   2.334  0.5537  1.1909 -0.8961
  783MOL0     H 3339   0.675   4.350   2.335  0.6603 -2.2748  3.3137
  783MOL0     H 3340   1.024   4.463   2.307  0.2936  0.7815  0.3373
  783MOL0     H 3341   1.209   4.599   2.349  0.2925 -1.7991  0.7189
  783MOL0     H 3342   3.039   5.050   3.044  0.7639 -0.8668  0.2405
  783MOL0     H 3343   3.286   5.117   2.978  1.2696 -2.4525  0.2595
  783MOL0     H 3344   3.735   4.978   2.802  0.4509  0.8546  0.7584
  783MOL0     H 3345   3.946   5.067   2.715 -1.0601 -0.9230  0.4828
  783MOL0     H 3346   4.007   5.496   2.553  2.4030  0.2777 -0.9208
  783MOL0     H 3347   3.883   5.440   2.434  2.1559 -0.2284 -3.5308
  783MOL0     H 3348   4.027   5.369   2.277  0.7407  0.0464 -0.5495
  783MOL0     H 3349   4.101   5.514   2.342  3.2881 -0.6540  1.3030
  783MOL0     H 3350   4.277   5.361   2.310 -0.9458  1.6125 -0.6252
  783MOL0     H 3351   4.191   5.241   2.406  1.9704 -0.3118  2.4278
  783MOL0     H 3352   4.261   5.516   2.518  0.2250 -0.1042 -0.5111
  783MOL0     H 3353   4.256   5.364   2.620  0.7364  1.2645  0.6043
  783MOL0     H 3354   4.644   5.364   2.559  0.1097 -2.3169 -0.7195
  783MOL0     H 3355   3.707   5.386   2.537  1.0138  0.3002 -0.5633
  783MOL0     H 3356   3.525   5.279   2.601  0.0246 -0.1342  0.0198
  784MOL0     O 3357   8.593   8.797   5.708  0.1059  0.1449  0.7387
  784MOL0     C 3358   8.679   8.862   5.654  0.0639  1.1194 -0.4945
  784MOL0     O 3359   8.670   8.917   5.532  0.2874  0.1569  0.1397
  784MOL0     C 3360   8.551   8.906   5.475 -0.3827 -0.2602 -0.3664
  784MOL0     C 3361   8.548   8.842   5.357 -0.0862  0.5016 -0.1534
  784MOL0     C 3362   8.442   8.848   5.277  0.1574  0.8246 -0.1290
  784MOL0     C 3363   8.327   8.912   5.319  0.0803 -0.7737  0.7028
  784MOL0     O 3364   8.213   8.940   5.245  0.7071  0.8251 -0.1254
  784MOL0     C 3365   8.205   8.892   5.106 -0.0323  0.4292 -0.9951
  784MOL0     C 3366   8.073   8.942   5.047 -0.2629 -0.4534 -0.6520
  784MOL0     C 3367   8.065   8.916   4.890 -0.8611  0.4137 -0.3731
  784MOL0     C 3368   7.940   8.969   4.831  0.1404 -0.7078 -0.3991
  784MOL0     C 3369   7.840   8.858   4.793  0.3099  0.2069 -0.1890
  784MOL0     C 3370   7.697   8.909   4.772  0.3683  0.5686  0.7636
  784MOL0     C 3371   7.591   8.807   4.713  0.6240 -0.7492  0.4601
  784MOL0     C 3372   7.579   8.675   4.795 -0.0824  0.7172 -0.5050
  784MOL0     N 3373   7.488   8.573   4.736  0.4412 -0.5271  0.0329
  784MOL0     C 3374   7.345   8.570   4.726  0.2610 -0.0283 -0.2311
  784MOL0     C 3375   7.307   8.446   4.687 -0.6893  0.6397 -0.1084
  784MOL0     C 3376   7.173   8.394   4.652 -0.7749  0.1564 -0.3246
  784MOL0     C 3377   7.105   8.484   4.543 -0.7265  0.1367 -0.3332
  784MOL0     C 3378   6.970   8.433   4.477 -0.1417 -0.1233  0.6261
  784MOL0     C 3379   6.873   8.392   4.586 -0.1311 -0.4608  0.3714
  784MOL0     O 3380   6.743   8.397   4.528 -0.1166  0.2639 -0.1673
  784MOL0     C 3381   6.632   8.395   4.615 -0.1515 -0.5984 -0.1369
  784MOL0     C 3382   6.634   8.357   4.752 -0.1582  0.1821  1.0331
  784MOL0     C 3383   6.511   8.362   4.822 -0.3941  0.1171 -0.2592
  784MOL0     C 3384   6.389   8.392   4.756 -0.0356 -0.6654 -0.8577
  784MOL0     C 3385   6.258   8.368   4.823  0.8473  0.6898  0.1929
  784MOL0     O 3386   6.262   8.313   4.946 -0.2820 -0.5435 -0.0341
  784MOL0     C 3387   6.151   8.263   5.012 -0.2642 -0.0245  0.2649
  784MOL0     C 3388   6.022   8.254   4.969  0.9510 -0.6850 -0.5552
  784MOL0     C 3389   5.921   8.211   5.054 -0.0853  0.3357 -0.1307
  784MOL0     C 3390   5.941   8.170   5.185  0.9130 -0.0154  0.4233
  784MOL0     O 3391   5.823   8.132   5.246  0.0954  0.7894  0.0810
  784MOL0     C 3392   5.837   8.122   5.386 -0.1133 -0.4980 -1.1936
  784MOL0     C 3393   5.704   8.091   5.455 -0.2408 -0.6836 -0.3677
  784MOL0     C 3394   5.580   8.122   5.365 -0.8293  1.4500 -0.2372
  784MOL0     C 3395   5.446   8.105   5.434 -0.2406 -0.6097  0.4581
  784MOL0     C 3396   5.346   8.177   5.349  1.3199  0.0782  0.2761
  784MOL0     C 3397   5.206   8.155   5.416  0.7726 -0.4424 -0.0922
  784MOL0     C 3398   5.152   8.264   5.508 -0.1841 -0.2211  0.6403
  784MOL0     C 3399   5.044   8.205   5.592 -0.6382  0.9312 -0.8688
  784MOL0    Cl 3400   4.895   8.197   5.503  0.1710 -0.6823 -0.0793
  784MOL0     C 3401   6.068   8.192   5.242  0.5073  0.1666 -0.4133
  784MOL0     C 3402   6.169   8.238   5.153 -0.0283  0.5019 -0.3917
  784MOL0     O 3403   6.155   8.393   4.760  0.5607  0.3540 -0.9915
  784MOL0     C 3404   6.392   8.431   4.626 -0.0047  0.1011  1.2314
  784MOL0     C 3405   6.512   8.431   4.555 -1.0396 -0.7101  0.3592
  784MOL0     N 3406   7.427   8.384   4.657 -0.6494 -0.4181 -1.4170
  784MOL0     N 3407   7.528   8.458   4.682  0.0546  0.2232 -0.0626
  784MOL0     C 3408   8.331   8.971   5.445 -0.4015 -0.1140 -0.5858
  784MOL0     C 3409   8.438   8.968   5.530 -0.0985  0.1908  0.3634
  784MOL0     C 3410   8.818   8.871   5.722 -0.1509  0.4963  0.0193
  784MOL0     C 3411   8.829   8.875   5.861  0.0276  0.5550  0.0419
  784MOL0     C 3412   8.951   8.913   5.918 -0.5744 -0.0906 -0.7886
  784MOL0     C 3413   9.071   8.941   5.843  1.2186  0.0046  0.5189
  784MOL0     O 3414   9.180   8.971   5.918 -0.1448 -0.9146 -0.2871
  784MOL0     C 3415   9.297   9.021   5.843  0.5888  0.9895 -0.2569
  784MOL0     C 3416   9.278   9.164   5.809  0.4558  0.3110  0.4532
  784MOL0     C 3417   9.295   9.250   5.930  0.2370  0.0360  1.1109
  784MOL0     C 3418   9.175   9.266   6.010  1.0477  0.3928 -0.0005
  784MOL0     C 3419   9.054   9.298   5.937  1.1225 -1.3722  0.4755
  784MOL0     C 3420   8.960   9.328   5.869  0.1413 -0.9853  0.5366
  784MOL0     C 3421   9.054   8.939   5.704  0.5699 -0.0077  0.4335
  784MOL0     C 3422   8.930   8.903   5.635 -0.1995 -0.0972 -0.1904
  784MOL0     H 3423   8.641   8.795   5.325 -1.6358 -1.0395 -2.6854
  784MOL0     H 3424   8.451   8.792   5.184  0.9827  1.5317 -0.4800
  784MOL0     H 3425   8.202   8.783   5.098 -1.8530  0.1748  1.8897
  784MOL0     H 3426   8.294   8.928   5.053  1.9870  0.0143  1.9074
  784MOL0     H 3427   8.063   9.048   5.071  0.4035 -0.4757 -0.2650
  784MOL0     H 3428   7.986   8.891   5.088 -2.5382  4.6132  1.7755
  784MOL0     H 3429   8.055   8.808   4.880  1.4627  0.1486 -0.4186
  784MOL0     H 3430   8.158   8.941   4.837 -0.7845 -0.0328 -0.4525
  784MOL0     H 3431   7.896   9.039   4.902  0.9919 -1.2686  0.7054
  784MOL0     H 3432   7.951   9.027   4.738  3.4293 -0.8817 -0.2369
  784MOL0     H 3433   7.830   8.778   4.867  3.4540  1.0092  1.2872
  784MOL0     H 3434   7.885   8.816   4.703  0.5682  1.1444 -0.5058
  784MOL0     H 3435   7.696   8.999   4.709 -0.2337  0.0181 -0.0205
  784MOL0     H 3436   7.659   8.932   4.872 -0.7064 -1.1137  0.7785
  784MOL0     H 3437   7.498   8.864   4.720  1.0876  0.0055  0.6760
  784MOL0     H 3438   7.614   8.776   4.611  0.9172  1.8719 -0.3328
  784MOL0     H 3439   7.545   8.688   4.898  0.0433  0.6716 -0.4574
  784MOL0     H 3440   7.677   8.626   4.798 -1.5025 -2.3118  1.9113
  784MOL0     H 3441   7.276   8.651   4.743 -0.6823 -1.2437  2.1380
  784MOL0     H 3442   7.103   8.383   4.736 -2.2281  0.8521 -1.4149
  784MOL0     H 3443   7.197   8.295   4.612  1.8047  0.1155  1.1351
  784MOL0     H 3444   7.184   8.510   4.472 -0.0056  0.1397  0.4538
  784MOL0     H 3445   7.084   8.571   4.607  0.7468 -0.9185  1.7005
  784MOL0     H 3446   6.930   8.518   4.422  1.6166 -0.5879 -1.4736
  784MOL0     H 3447   6.981   8.360   4.397  1.2317  1.5202 -0.7565
  784MOL0     H 3448   6.882   8.465   4.667 -1.6301 -0.0266  0.1704
  784MOL0     H 3449   6.894   8.287   4.612 -0.9073 -1.1211 -1.4983
  784MOL0     H 3450   6.725   8.331   4.806  0.6884  3.4382  1.4203
  784MOL0     H 3451   6.504   8.325   4.923  0.5719 -1.1848 -0.6306
  784MOL0     H 3452   5.985   8.281   4.870  0.4527  0.6731 -0.0254
  784MOL0     H 3453   5.817   8.206   5.023  0.0861 -0.3815 -0.6318
  784MOL0     H 3454   5.890   8.203   5.436  2.5456 -1.8563 -1.5731
  784MOL0     H 3455   5.899   8.036   5.414 -1.9114 -0.4415  3.9967
  784MOL0     H 3456   5.682   8.138   5.551 -3.0385 -1.7599 -0.3873
  784MOL0     H 3457   5.714   7.985   5.477  0.2383 -0.7387 -0.8260
  784MOL0     H 3458   5.584   8.059   5.275  0.8278 -0.4452  1.0851
  784MOL0     H 3459   5.586   8.227   5.335 -2.3190  1.2996 -1.2069
  784MOL0     H 3460   5.423   8.003   5.465 -2.1377 -0.4031 -0.1528
  784MOL0     H 3461   5.456   8.155   5.531  3.8899  0.8886 -0.5173
  784MOL0     H 3462   5.338   8.122   5.255 -1.3185 -0.5369  0.7636
  784MOL0     H 3463   5.358   8.284   5.332  2.8968 -0.3109 -1.3742
  784MOL0     H 3464   5.210   8.052   5.453 -1.2006 -0.0691  1.2871
  784MOL0     H 3465   5.120   8.152   5.349 -0.2540  1.5551  1.0601
  784MOL0     H 3466   5.234   8.305   5.568  1.6467  0.7828 -2.2946
  784MOL0     H 3467   5.114   8.349   5.450  2.0448  0.9059  0.7166
  784MOL0     H 3468   5.021   8.254   5.687 -2.7603 -2.2413  0.3964
  784MOL0     H 3469   5.078   8.102   5.606  1.5551  1.2425 -3.2511
  784MOL0     H 3470   6.096   8.176   5.345  0.3987  2.2506 -0.0129
  784MOL0     H 3471   6.267   8.259   5.196 -1.1762  0.3391  2.5016
  784MOL0     H 3472   6.300   8.458   4.576 -0.5543  0.5803  2.4834
  784MOL0     H 3473   6.507   8.465   4.452  1.4667 -0.4555  0.2678
  784MOL0     H 3474   8.245   9.031   5.472 -0.0983 -0.8330  2.2964
  784MOL0     H 3475   8.454   9.026   5.620  1.3543 -1.6257  1.3323
  784MOL0     H 3476   8.737   8.853   5.913 -0.8337  1.4406 -1.0443
  784MOL0     H 3477   8.954   8.926   6.025 -1.1895  2.6567 -1.0261
  784MOL0     H 3478   9.318   8.971   5.748  0.0265 -0.3958  0.3252
  784MOL0     H 3479   9.393   9.014   5.895  0.1420  3.1268  0.9673
  784MOL0     H 3480   9.366   9.184   5.748 -0.0801 -0.2408 -0.5315
  784MOL0     H 3481   9.188   9.188   5.750  1.5818 -0.2966 -1.6089
  784MOL0     H 3482   9.317   9.350   5.894 -1.6789  0.7021  1.6880
  784MOL0     H 3483   9.379   9.217   5.992  1.6049 -0.8879 -1.0938
  784MOL0     H 3484   9.160   9.174   6.068  0.6179  0.4861  0.0395
  784MOL0     H 3485   9.196   9.352   6.074  3.3479  0.6404 -0.9856
  784MOL0     H 3486   8.873   9.358   5.815  0.8111  1.9715  0.9011
  784MOL0     H 3487   9.137   8.959   5.636  0.3059  1.4744  0.5161
  784MOL0     H 3488   8.927   8.900   5.527  2.3767 -3.0886 -0.2962
  785MOL0     O 3489   4.842   5.338   1.056  0.4720 -0.7795 -0.1319
  785MOL0     C 3490   4.879   5.453   1.084  0.5125 -1.2293  0.4965
  785MOL0     O 3491   4.792   5.553   1.120  0.1697 -0.2992  0.5709
  785MOL0     C 3492   4.657   5.523   1.096  0.2786 -0.7446  1.1140
  785MOL0     C 3493   4.600   5.567   0.972 -0.2472 -0.4104  0.3972
  785MOL0     C 3494   4.479   5.525   0.929 -0.2903  0.2163  0.4158
  785MOL0     C 3495   4.391   5.458   1.010  0.0138  0.4174  0.1270
  785MOL0     O 3496   4.277   5.402   0.972  0.2601 -0.1513 -0.5893
  785MOL0     C 3497   4.194   5.471   0.881 -0.5890  0.4211 -0.1606
  785MOL0     C 3498   4.136   5.598   0.947 -0.6561 -0.0726 -0.3102
  785MOL0     C 3499   4.046   5.575   1.068 -0.0099 -0.3216 -0.3438
  785MOL0     C 3500   3.980   5.706   1.125  0.2989  0.9059  0.0299
  785MOL0     C 3501   3.865   5.670   1.217  0.0799 -0.7090  0.4469
  785MOL0     C 3502   3.739   5.629   1.138 -0.3927  0.5355  0.3876
  785MOL0     C 3503   3.618   5.617   1.237  0.1859 -0.2731  0.7451
  785MOL0     C 3504   3.560   5.745   1.296 -0.7093 -0.1235  0.1855
  785MOL0     N 3505   3.447   5.712   1.387 -0.2103 -0.9799 -0.6655
  785MOL0     C 3506   3.316   5.693   1.344  0.0861 -0.3939  0.4964
  785MOL0     C 3507   3.238   5.673   1.451 -0.4161  1.0266  0.5222
  785MOL0     C 3508   3.096   5.633   1.463  0.6352 -0.0591  0.1288
  785MOL0     C 3509   2.998   5.748   1.486  0.1370 -0.2227  0.1388
  785MOL0     C 3510   2.869   5.748   1.405 -0.4128 -0.7908 -0.4830
  785MOL0     C 3511   2.776   5.867   1.454  0.0646  0.1114  0.7739
  785MOL0     O 3512   2.665   5.845   1.359  0.2848  0.6966 -0.1269
  785MOL0     C 3513   2.574   5.939   1.338 -0.1200  1.0958  0.0973
  785MOL0     C 3514   2.561   6.059   1.405  0.4392  0.2954 -0.7818
  785MOL0     C 3515   2.445   6.132   1.385  1.3304  0.6089  1.3506
  785MOL0     C 3516   2.351   6.095   1.283 -0.3348 -0.8809 -0.5355
  785MOL0     C 3517   2.238   6.193   1.257 -0.2501 -0.7144  1.3354
  785MOL0     O 3518   2.185   6.176   1.130  0.3656 -0.2693 -0.3516
  785MOL0     C 3519   2.062   6.235   1.112 -0.1449  1.3678  0.8818
  785MOL0     C 3520   1.950   6.166   1.157  0.9733  0.4272 -0.7856
  785MOL0     C 3521   1.822   6.209   1.121 -0.2776 -0.8562 -0.2026
  785MOL0     C 3522   1.812   6.317   1.033  0.3853 -0.1890 -0.5087
  785MOL0     O 3523   1.683   6.364   0.989 -0.6301  0.5312  0.5048
  785MOL0     C 3524   1.561   6.288   1.024 -0.7488 -1.1938 -0.5583
  785MOL0     C 3525   1.444   6.380   0.998  0.2369  0.2812 -0.1732
  785MOL0     C 3526   1.395   6.390   0.853 -0.5073  0.1768  0.9263
  785MOL0     C 3527   1.320   6.525   0.842  0.2774  0.1696  0.3139
  785MOL0     C 3528   1.234   6.523   0.715  0.8738 -0.1931  0.1039
  785MOL0     C 3529   1.143   6.655   0.718 -1.6867  0.2631  0.6255
  785MOL0     C 3530   1.029   6.669   0.619  0.4423  0.0971  0.0169
  785MOL0     C 3531   1.102   6.692   0.483  0.4568 -0.1176  0.0074
  785MOL0    Cl 3532   0.998   6.753   0.349 -0.1697  0.1520  0.3946
  785MOL0     C 3533   1.922   6.389   0.983  0.4892  0.4965  0.4667
  785MOL0     C 3534   2.039   6.342   1.016 -0.5997  0.0766 -0.6083
  785MOL0     O 3535   2.195   6.268   1.348 -0.1358 -0.3011 -0.5922
  785MOL0     C 3536   2.370   5.976   1.209 -1.1757 -0.2369 -0.7889
  785MOL0     C 3537   2.477   5.893   1.242  0.0007 -0.1170 -0.0040
  785MOL0     N 3538   3.322   5.693   1.563  0.1992  0.4918  0.6184
  785MOL0     N 3539   3.441   5.708   1.523 -0.4455 -0.1438 -0.1201
  785MOL0     C 3540   4.438   5.428   1.143 -0.0282 -0.0736  0.9565
  785MOL0     C 3541   4.565   5.464   1.190 -1.2699  0.2898  0.7117
  785MOL0     C 3542   5.025   5.478   1.063  0.9103  0.2366 -0.5665
  785MOL0     C 3543   5.075   5.603   1.091 -0.3033  0.0459  1.0507
  785MOL0     C 3544   5.210   5.620   1.071  0.0512 -0.9043  1.1496
  785MOL0     C 3545   5.301   5.527   1.019  0.6627  0.2534 -0.4331
  785MOL0     O 3546   5.439   5.559   1.007  0.1177  0.1907  0.3876
  785MOL0     C 3547   5.520   5.445   1.002  0.4106  0.3705 -0.5890
  785MOL0     C 3548   5.666   5.485   1.042  0.8151 -0.2077 -0.4386
  785MOL0     C 3549   5.748   5.546   0.933 -0.5422 -0.4374 -0.5178
  785MOL0     C 3550   5.784   5.447   0.815 -0.3308  0.3319  0.1099
  785MOL0     C 3551   5.865   5.521   0.711  0.0454  1.0663  0.5939
  785MOL0     C 3552   5.944   5.571   0.635  0.6137  0.5656  0.5587
  785MOL0     C 3553   5.252   5.402   0.994 -0.1104  0.1147  0.4618
  785MOL0     C 3554   5.118   5.378   1.006 -0.8658  0.1153 -1.7991
  785MOL0     H 3555   4.653   5.632   0.903  1.1866 -2.0231 -0.0884
  785MOL0     H 3556   4.440   5.552   0.831 -2.7537 -3.5758  0.1616
  785MOL0     H 3557   4.112   5.408   0.846 -2.0506  0.6654  2.5661
  785MOL0     H 3558   4.253   5.493   0.792  0.4641 -0.6103  0.2526
  785MOL0     H 3559   4.061   5.635   0.876 -0.4026 -0.4669 -0.7937
  785MOL0     H 3560   4.217   5.666   0.974 -0.3073 -0.0004 -1.4768
  785MOL0     H 3561   4.106   5.535   1.150 -0.6918 -0.7763 -0.0557
  785MOL0     H 3562   3.971   5.498   1.051 -0.5169 -0.4255  2.0246
  785MOL0     H 3563   4.065   5.750   1.179  1.9143 -1.6854 -0.2039
  785MOL0     H 3564   3.943   5.772   1.046  0.5504 -0.2892 -1.1044
  785MOL0     H 3565   3.842   5.753   1.284  0.2484  1.8323 -2.4206
  785MOL0     H 3566   3.896   5.579   1.269 -3.7454 -1.3592  1.9061
  785MOL0     H 3567   3.759   5.528   1.102 -1.5407  0.0670  1.0330
  785MOL0     H 3568   3.714   5.694   1.054  0.2118  0.3265  0.0374
  785MOL0     H 3569   3.528   5.594   1.180 -1.6079  3.3713  1.7959
  785MOL0     H 3570   3.643   5.556   1.324 -0.1590 -1.6733 -0.1091
  785MOL0     H 3571   3.527   5.807   1.212  0.7627 -0.3620 -0.6221
  785MOL0     H 3572   3.639   5.794   1.354  1.0044 -3.0454  0.5153
  785MOL0     H 3573   3.291   5.686   1.239  1.1127 -0.7664  0.2599
  785MOL0     H 3574   3.077   5.564   1.546 -0.7844  0.5099  0.3037
  785MOL0     H 3575   3.072   5.583   1.369  0.7257  0.1708 -0.0175
  785MOL0     H 3576   3.061   5.834   1.462  0.1809 -1.1697 -3.9027
  785MOL0     H 3577   2.978   5.747   1.593  0.2395 -1.1769  0.1615
  785MOL0     H 3578   2.903   5.759   1.302  2.1876  0.5330  0.4268
  785MOL0     H 3579   2.817   5.654   1.426  1.4028 -1.5231  1.0564
  785MOL0     H 3580   2.834   5.960   1.459 -1.1527  1.0014 -0.7435
  785MOL0     H 3581   2.752   5.854   1.560  0.6524 -1.5677  0.7355
  785MOL0     H 3582   2.634   6.088   1.480 -0.1772 -0.2312  0.0423
  785MOL0     H 3583   2.422   6.222   1.441  0.2423  1.7820 -0.8270
  785MOL0     H 3584   1.954   6.088   1.232  2.8558  0.0625 -1.2399
  785MOL0     H 3585   1.736   6.154   1.158 -0.2970 -0.5261  0.2515
  785MOL0     H 3586   1.562   6.274   1.132 -1.6471 -0.8366 -0.5010
  785MOL0     H 3587   1.541   6.195   0.969 -5.9612 -2.7696  3.2025
  785MOL0     H 3588   1.464   6.478   1.042  1.7496  0.7011 -1.7079
  785MOL0     H 3589   1.356   6.337   1.048 -1.0608  0.1079 -2.4900
  785MOL0     H 3590   1.327   6.308   0.829  0.1723 -1.1500  3.2580
  785MOL0     H 3591   1.476   6.390   0.780  0.4766 -1.3120  1.9762
  785MOL0     H 3592   1.252   6.535   0.927 -0.3382 -1.4986  0.0479
  785MOL0     H 3593   1.402   6.596   0.832 -0.5971  1.1284 -0.1991
  785MOL0     H 3594   1.169   6.435   0.719 -0.8975  1.0830  0.5673
  785MOL0     H 3595   1.307   6.511   0.634  0.6347  0.8850 -0.2905
  785MOL0     H 3596   1.208   6.740   0.697 -0.3673 -0.8466  0.0558
  785MOL0     H 3597   1.093   6.669   0.815 -2.3538 -3.1371  0.9136
  785MOL0     H 3598   0.977   6.574   0.604  0.3694  0.3082 -1.2184
  785MOL0     H 3599   0.966   6.752   0.651  2.1068  1.3812  0.1095
  785MOL0     H 3600   1.153   6.601   0.449  1.6243  0.2300  0.7643
  785MOL0     H 3601   1.180   6.768   0.489 -1.4951  2.0192 -0.3923
  785MOL0     H 3602   1.919   6.471   0.912  1.0341 -0.6619 -0.9335
  785MOL0     H 3603   2.127   6.383   0.969  0.1010 -0.7701 -0.0612
  785MOL0     H 3604   2.305   5.951   1.125 -0.7145  0.0183 -1.2216
  785MOL0     H 3605   2.491   5.795   1.200  0.4712 -0.3986  0.7829
  785MOL0     H 3606   4.387   5.365   1.216  0.2077 -0.8091  0.5043
  785MOL0     H 3607   4.598   5.454   1.293  1.1015  0.0035 -0.0129
  785MOL0     H 3608   5.010   5.684   1.122 -1.0600  0.6731 -1.8291
  785MOL0     H 3609   5.258   5.714   1.096  0.2649 -0.3228 -1.2903
  785MOL0     H 3610   5.524   5.399   0.903 -1.0240 -2.1559  0.4445
  785MOL0     H 3611   5.480   5.363   1.062 -1.5504  2.2932  0.8885
  785MOL0     H 3612   5.667   5.534   1.140  1.1604 -0.0334 -0.5293
  785MOL0     H 3613   5.719   5.394   1.071  1.1104  0.3868  0.9855
  785MOL0     H 3614   5.839   5.575   0.987 -0.3555  2.3270 -2.1436
  785MOL0     H 3615   5.692   5.633   0.899  0.6503  0.4611 -0.2505
  785MOL0     H 3616   5.836   5.357   0.849  0.1217  0.6237  0.2057
  785MOL0     H 3617   5.699   5.408   0.757  0.5099 -2.2155  0.4650
  785MOL0     H 3618   5.992   5.621   0.553 -0.9770  0.5037 -0.4491
  785MOL0     H 3619   5.301   5.319   0.944 -2.9618 -2.7504  1.9936
  785MOL0     H 3620   5.089   5.275   0.987  0.5313 -0.1566 -2.5038
  786MOL0     O 3621   6.030   7.830  10.007 -0.2835  0.1795 -0.5649
  786MOL0     C 3622   6.083   7.933  10.053  0.0100 -0.3672 -0.6868
  786MOL0     O 3623   6.049   7.993  10.177 -0.0533 -0.3356  0.0023
  786MOL0     C 3624   5.959   7.925  10.256  0.4434  0.8865  0.0975
  786MOL0     C 3625   5.831   7.911  10.212  0.1444 -0.5952  0.5045
  786MOL0     C 3626   5.735   7.834  10.286  0.2212 -0.3073 -0.2136
  786MOL0     C 3627   5.769   7.782  10.418  0.2484  0.6316 -0.7056
  786MOL0     O 3628   5.682   7.714  10.499 -0.2985  0.1711  0.4820
  786MOL0     C 3629   5.539   7.727  10.466 -0.8677 -0.1844 -0.0574
  786MOL0     C 3630   5.460   7.710  10.593  0.9593 -0.1592  0.1002
  786MOL0     C 3631   5.317   7.683  10.552  0.0627 -0.1423  0.1527
  786MOL0     C 3632   5.243   7.606  10.667 -0.1337 -0.8123 -0.7536
  786MOL0     C 3633   5.099   7.570  10.615 -0.6114  1.0121  0.2163
  786MOL0     C 3634   4.996   7.679  10.637  0.4080 -0.6742 -0.1470
  786MOL0     C 3635   4.964   7.710  10.781 -0.1234 -0.6662  0.1367
  786MOL0     C 3636   4.906   7.582  10.853  0.0004  0.6247 -0.7977
  786MOL0     N 3637   4.844   7.627  10.982  0.0678  0.5916  0.3680
  786MOL0     C 3638   4.714   7.677  10.994  0.6252  0.0930  0.0021
  786MOL0     C 3639   4.691   7.683  11.127  0.3092 -0.0776  0.3045
  786MOL0     C 3640   4.557   7.739  11.185 -0.8301  0.2768 -0.4199
  786MOL0     C 3641   4.572   7.811  11.323 -0.7829 -0.4544  0.1552
  786MOL0     C 3642   4.522   7.962  11.315  0.0346  0.9086  1.1504
  786MOL0     C 3643   4.490   8.020  11.452 -0.5179 -0.6728  0.4753
  786MOL0     O 3644   4.419   7.934  11.541 -0.5424 -0.6143  0.4161
  786MOL0     C 3645   4.281   7.934  11.534  1.1451 -0.5654 -0.3929
  786MOL0     C 3646   4.211   7.864  11.635 -0.0490  0.1718 -0.2101
  786MOL0     C 3647   4.070   7.871  11.653  1.0163  0.5351  0.3157
  786MOL0     C 3648   4.000   7.955  11.566  0.4764  0.0155  0.5210
  786MOL0     C 3649   3.851   7.960  11.571 -0.1338  0.1515 -0.1176
  786MOL0     O 3650   3.777   8.019  11.465 -0.0395  0.2762 -0.0246
  786MOL0     C 3651   3.644   8.037  11.462  0.7610 -0.6458 -1.4330
  786MOL0     C 3652   3.547   8.017  11.564  0.9906 -0.4507  0.1569
  786MOL0     C 3653   3.402   8.019  11.538 -0.5921  0.4808 -0.4179
  786MOL0     C 3654   3.361   8.026  11.405 -0.3326  0.1734 -0.3601
  786MOL0     O 3655   3.233   8.039  11.364  0.7408  0.1017  0.4833
  786MOL0     C 3656   3.120   7.997  11.448 -0.7324  0.0237 -0.4135
  786MOL0     C 3657   3.002   8.060  11.387 -0.1103  0.2915 -0.3701
  786MOL0     C 3658   2.876   8.048  11.470  0.9863  0.1699 -0.2490
  786MOL0     C 3659   2.744   8.097  11.397  0.4382  0.9066 -0.5301
  786MOL0     C 3660   2.620   8.097  11.497  0.2102 -0.4872  0.6908
  786MOL0     C 3661   2.482   8.119  11.440  0.0327 -0.3704 -0.8668
  786MOL0     C 3662   2.465   8.239  11.351  0.8893 -0.1593 -0.4223
  786MOL0     C 3663   2.502   8.374  11.392 -0.0732 -0.4402 -0.0877
  786MOL0    Cl 3664   2.453   8.418  11.549  0.2954  0.0500  0.6302
  786MOL0     C 3665   3.463   8.034  11.307  0.0804 -0.7583  0.3767
  786MOL0     C 3666   3.601   8.045  11.333  0.9805 -0.6379  0.1724
  786MOL0     O 3667   3.795   7.911  11.671 -0.2971 -0.1380  0.9968
  786MOL0     C 3668   4.073   8.013  11.457  0.4656  0.6098 -0.5591
  786MOL0     C 3669   4.207   8.005  11.443  0.5987  0.3429 -0.3519
  786MOL0     N 3670   4.807   7.627  11.193  0.2797  0.4597 -0.5062
  786MOL0     N 3671   4.888   7.595  11.103  0.1827 -0.0660  0.4716
  786MOL0     C 3672   5.903   7.798  10.462 -0.6713 -0.2387 -0.2868
  786MOL0     C 3673   5.994   7.881  10.390 -0.0497  0.1919  0.4564
  786MOL0     C 3674   6.199   7.991   9.983  0.1359  0.3909 -0.1757
  786MOL0     C 3675   6.215   7.987   9.844 -0.0655  0.7975  0.0615
  786MOL0     C 3676   6.314   8.060   9.770  0.4651 -0.4421  0.1147
  786MOL0     C 3677   6.402   8.141   9.849  0.0341  0.1986 -0.3233
  786MOL0     O 3678   6.490   8.210   9.771 -0.4768  0.1878 -0.1610
  786MOL0     C 3679   6.500   8.346   9.796  0.2707 -0.8229 -1.3033
  786MOL0     C 3680   6.617   8.408   9.717 -0.6087  0.3161 -0.4097
  786MOL0     C 3681   6.570   8.411   9.568 -0.3569  0.4415 -0.2279
  786MOL0     C 3682   6.691   8.426   9.473 -0.2818 -0.4374 -0.2252
  786MOL0     C 3683   6.758   8.297   9.442 -0.6402 -0.0619 -0.0452
  786MOL0     C 3684   6.808   8.188   9.434 -0.4713  0.6488 -0.4387
  786MOL0     C 3685   6.389   8.145   9.984  0.0204 -0.0250  0.3332
  786MOL0     C 3686   6.290   8.072  10.054 -0.2758 -0.6111  0.1559
  786MOL0     H 3687   5.795   7.958  10.121 -1.4813 -0.2489  1.2920
  786MOL0     H 3688   5.638   7.811  10.244 -1.0836  0.5995  2.1382
  786MOL0     H 3689   5.519   7.646  10.395 -0.5821  2.1834 -3.0707
  786MOL0     H 3690   5.505   7.814  10.409 -1.9551 -2.1146 -2.5462
  786MOL0     H 3691   5.463   7.796  10.659 -2.2992  1.3236 -1.4384
  786MOL0     H 3692   5.500   7.624  10.647  0.2241  0.0066  0.9224
  786MOL0     H 3693   5.318   7.613  10.468 -2.6761 -2.1924  1.6663
  786MOL0     H 3694   5.261   7.772  10.523 -0.1288 -0.2743  0.1132
  786MOL0     H 3695   5.287   7.507  10.683 -0.8538 -0.7350  2.3854
  786MOL0     H 3696   5.242   7.662  10.761 -1.1943 -0.1628 -1.1322
  786MOL0     H 3697   5.064   7.482  10.670  0.6687  0.4525  0.1588
  786MOL0     H 3698   5.116   7.541  10.511  1.1577 -1.3822  1.0984
  786MOL0     H 3699   4.906   7.656  10.579 -1.3295  3.0593  0.7793
  786MOL0     H 3700   5.027   7.776  10.596 -2.7174  0.8103  0.6868
  786MOL0     H 3701   5.052   7.746  10.834  0.1702 -1.1096 -0.0388
  786MOL0     H 3702   4.883   7.782  10.795  0.5964  0.7875 -2.4717
  786MOL0     H 3703   4.980   7.501  10.856 -0.8888 -0.2424 -1.5571
  786MOL0     H 3704   4.825   7.551  10.786 -1.0487  0.3011  0.5829
  786MOL0     H 3705   4.638   7.712  10.925 -0.4866 -0.0667  1.1225
  786MOL0     H 3706   4.487   7.655  11.188 -0.8819  0.0485 -3.9484
  786MOL0     H 3707   4.510   7.806  11.113 -1.6886  0.2732  0.1315
  786MOL0     H 3708   4.672   7.824  11.365 -1.3105  0.9913  1.0519
  786MOL0     H 3709   4.505   7.761  11.394 -0.7395 -0.0553  0.4851
  786MOL0     H 3710   4.592   8.020  11.254 -1.9524  1.6187 -0.5833
  786MOL0     H 3711   4.435   7.971  11.249  1.3151 -1.3288 -0.9965
  786MOL0     H 3712   4.419   8.103  11.443 -1.3451 -1.3600  0.4632
  786MOL0     H 3713   4.583   8.056  11.496 -0.5891 -1.0512  0.9377
  786MOL0     H 3714   4.267   7.801  11.703 -0.3569  0.0133 -0.1019
  786MOL0     H 3715   4.011   7.833  11.736 -1.3131 -0.5995 -1.7342
  786MOL0     H 3716   3.572   8.006  11.669 -0.1838 -0.7678  0.4162
  786MOL0     H 3717   3.334   8.016  11.622  1.1885  1.4919  1.1527
  786MOL0     H 3718   3.136   8.038  11.547  1.7269 -2.6656  0.4404
  786MOL0     H 3719   3.116   7.888  11.463  0.3888 -0.2030 -1.5376
  786MOL0     H 3720   2.982   8.005  11.295  2.3345 -2.6904  0.7220
  786MOL0     H 3721   3.032   8.161  11.355 -0.5469  0.0829 -1.4703
  786MOL0     H 3722   2.886   8.096  11.567  0.9222  0.7745 -0.5362
  786MOL0     H 3723   2.858   7.941  11.486  0.8674  0.0286 -1.2085
  786MOL0     H 3724   2.760   8.195  11.351 -0.2098  1.0795 -0.3987
  786MOL0     H 3725   2.723   8.037  11.308 -2.2461  2.2034 -0.8639
  786MOL0     H 3726   2.639   8.175  11.573  1.0936  2.6215 -2.4597
  786MOL0     H 3727   2.620   7.997  11.541 -3.3616 -0.1845  1.7435
  786MOL0     H 3728   2.414   8.131  11.525  1.5875 -0.3764  0.4237
  786MOL0     H 3729   2.451   8.033  11.381 -1.2175  0.4667 -1.4882
  786MOL0     H 3730   2.526   8.223  11.261 -0.2474 -1.8299 -0.9539
  786MOL0     H 3731   2.361   8.235  11.318  0.6555 -3.2903  0.3580
  786MOL0     H 3732   2.460   8.449  11.324  1.3849  2.2787  1.8003
  786MOL0     H 3733   2.609   8.386  11.373  0.3008 -1.8805  0.9407
  786MOL0     H 3734   3.434   8.038  11.202  3.0768  3.1681 -0.5063
  786MOL0     H 3735   3.671   8.046  11.250  0.4607 -1.1943 -0.2875
  786MOL0     H 3736   4.024   8.073  11.381 -0.7796 -1.0221 -1.1096
  786MOL0     H 3737   4.240   8.065  11.360 -1.3165  1.4384 -0.3934
  786MOL0     H 3738   5.930   7.753  10.557 -1.6252 -2.1439 -0.8824
  786MOL0     H 3739   6.096   7.898  10.424 -0.1086  1.2672  0.1113
  786MOL0     H 3740   6.134   7.929   9.800 -0.3204  0.6732  0.6765
  786MOL0     H 3741   6.318   8.054   9.662 -0.9867 -1.6911  0.0911
  786MOL0     H 3742   6.512   8.356   9.904 -0.7546  0.4974 -1.2825
  786MOL0     H 3743   6.400   8.384   9.772 -0.3523 -2.3807 -1.2806
  786MOL0     H 3744   6.642   8.503   9.764  2.4067 -1.0769  1.1242
  786MOL0     H 3745   6.707   8.350   9.739 -1.1393  0.1855  1.6514
  786MOL0     H 3746   6.518   8.502   9.539  1.2209  1.8728  1.1723
  786MOL0     H 3747   6.515   8.319   9.548 -0.7889  0.9345 -1.3588
  786MOL0     H 3748   6.656   8.473   9.381 -1.8165 -2.4390 -0.7554
  786MOL0     H 3749   6.770   8.489   9.514 -1.8178  1.0396  0.5535
  786MOL0     H 3750   6.851   8.090   9.446 -1.1298  0.5066  0.9194
  786MOL0     H 3751   6.450   8.210  10.046 -0.3314  1.0788 -0.4482
  786MOL0     H 3752   6.291   8.073  10.162  4.7814 -1.0723  0.3599
  787MOL0     O 3753   3.175   1.653   0.680 -0.6393  0.2593  0.1009
  787MOL0     C 3754   3.267   1.591   0.621  0.1266 -0.1282  0.8412
  787MOL0     O 3755   3.247   1.475   0.536 -0.1002 -0.3212  0.6577
  787MOL0     C 3756   3.121   1.427   0.530 -0.2067 -0.7098 -0.1571
  787MOL0     C 3757   3.003   1.499   0.508  1.3128 -0.9698  0.8166
  787MOL0     C 3758   2.873   1.440   0.491  0.5823  0.1482 -0.1671
  787MOL0     C 3759   2.859   1.302   0.509  0.6741 -0.7280 -0.7470
  787MOL0     O 3760   2.732   1.248   0.490  0.3369 -0.3021  0.3594
  787MOL0     C 3761   2.705   1.114   0.525 -1.0598  0.4252 -1.3269
  787MOL0     C 3762   2.739   1.017   0.411  0.0520 -0.2182  0.1054
  787MOL0     C 3763   2.622   1.033   0.306  0.4825  0.3580 -0.1484
  787MOL0     C 3764   2.620   0.941   0.187  0.1631  0.1195 -0.6513
  787MOL0     C 3765   2.714   0.988   0.090 -0.6308 -0.4836 -0.1794
  787MOL0     C 3766   2.735   0.900  -0.031  0.4989  0.3294 -0.0192
  787MOL0     C 3767   2.858   0.917  -0.107 -0.0868 -0.2712 -0.3318
  787MOL0     C 3768   2.989   0.921  -0.024 -0.5299  0.3243  0.9336
  787MOL0     N 3769   3.099   0.924  -0.129 -0.1447  0.2497  0.0294
  787MOL0     C 3770   3.177   1.036  -0.148  0.2761  0.0019  0.0900
  787MOL0     C 3771   3.281   0.997  -0.223  0.0947 -0.2092  0.3849
  787MOL0     C 3772   3.385   1.081  -0.288 -1.3766  1.2322 -0.4213
  787MOL0     C 3773   3.531   1.023  -0.262 -0.0148 -0.2014 -0.1530
  787MOL0     C 3774   3.650   1.098  -0.319 -0.3058 -0.0343 -0.2748
  787MOL0     C 3775   3.686   1.222  -0.229 -0.5576  0.3079 -0.4907
  787MOL0     O 3776   3.743   1.183  -0.103 -0.2730  0.3950  0.2226
  787MOL0     C 3777   3.871   1.211  -0.088 -0.2245  0.2974 -0.4309
  787MOL0     C 3778   3.977   1.211  -0.181  0.0070 -0.4800  0.1773
  787MOL0     C 3779   4.106   1.245  -0.144 -0.2766  0.5069  0.4091
  787MOL0     C 3780   4.141   1.270  -0.014 -0.1473 -0.8179  0.7707
  787MOL0     C 3781   4.276   1.307   0.024  0.1342 -0.1527 -0.1002
  787MOL0     O 3782   4.373   1.307  -0.070 -0.7699  0.2416 -0.5385
  787MOL0     C 3783   4.505   1.324  -0.045 -0.1260 -0.3044  0.4356
  787MOL0     C 3784   4.573   1.318   0.079 -1.1192  0.5332 -0.8911
  787MOL0     C 3785   4.711   1.360   0.088 -0.2646  0.2740  0.0612
  787MOL0     C 3786   4.785   1.398  -0.024  0.6212 -0.3666  0.4810
  787MOL0     O 3787   4.920   1.442  -0.022 -0.1294  0.1059  0.8923
  787MOL0     C 3788   4.983   1.479   0.092  0.1959  0.0772  0.0977
  787MOL0     C 3789   5.124   1.505   0.051 -1.5909 -0.0358  0.0056
  787MOL0     C 3790   5.215   1.544   0.168  0.2157  0.3916  0.1837
  787MOL0     C 3791   5.362   1.570   0.121 -0.1198  0.0963  0.3520
  787MOL0     C 3792   5.449   1.608   0.232 -0.1848 -0.3935  0.4603
  787MOL0     C 3793   5.591   1.676   0.189  0.5402 -0.6639  0.7144
  787MOL0     C 3794   5.670   1.735   0.313 -0.0212  0.2300  0.2809
  787MOL0     C 3795   5.802   1.792   0.266 -1.4658 -0.2267 -0.9140
  787MOL0    Cl 3796   5.942   1.665   0.251  0.2359 -0.0803 -0.9170
  787MOL0     C 3797   4.719   1.399  -0.148  0.9074 -0.3609  0.1268
  787MOL0     C 3798   4.580   1.371  -0.153 -0.3161  0.1136 -0.0481
  787MOL0     O 3799   4.292   1.337   0.140  0.1114  0.0397  0.0144
  787MOL0     C 3800   4.036   1.288   0.071  0.3655 -0.9438  0.9906
  787MOL0     C 3801   3.901   1.270   0.037 -0.0980 -0.8058 -0.0171
  787MOL0     N 3802   3.276   0.862  -0.229  0.1867  0.3126 -0.0814
  787MOL0     N 3803   3.176   0.816  -0.171  0.9979 -0.3811 -0.5113
  787MOL0     C 3804   2.976   1.235   0.542 -0.2350 -0.1183 -0.8515
  787MOL0     C 3805   3.107   1.291   0.547 -0.0775  0.1189  0.6323
  787MOL0     C 3806   3.397   1.650   0.641  0.4223  0.4191  0.0312
  787MOL0     C 3807   3.506   1.565   0.630  0.0504 -0.0146 -0.0186
  787MOL0     C 3808   3.634   1.623   0.627 -0.2804 -1.0244  0.7157
  787MOL0     C 3809   3.650   1.760   0.646 -0.0472  0.5923 -0.2372
  787MOL0     O 3810   3.769   1.822   0.623  0.3674 -0.6186 -0.4943
  787MOL0     C 3811   3.806   1.944   0.698 -0.0682 -0.2395 -0.6871
  787MOL0     C 3812   3.951   1.973   0.660 -0.3113  0.9331 -0.9412
  787MOL0     C 3813   4.050   1.873   0.736 -0.1868 -0.3551 -0.8897
  787MOL0     C 3814   4.192   1.882   0.680  0.1844  0.1188  0.4579
  787MOL0     C 3815   4.265   1.996   0.720 -0.7014  0.5314  0.3792
  787MOL0     C 3816   4.332   2.090   0.746 -0.7193 -0.3809 -0.0715
  787MOL0     C 3817   3.541   1.830   0.687  0.5873 -0.3300  0.2720
  787MOL0     C 3818   3.412   1.777   0.682 -0.0648  0.5512 -0.2410
  787MOL0     H 3819   3.005   1.606   0.492  1.9692 -1.1204 -0.2427
  787MOL0     H 3820   2.788   1.503   0.469 -0.1958 -0.3455  1.2911
  787MOL0     H 3821   2.601   1.096   0.551 -1.0867 -1.8926 -2.8019
  787MOL0     H 3822   2.752   1.093   0.622 -1.8987 -0.1777 -1.0381
  787MOL0     H 3823   2.753   0.916   0.450  2.8035  1.5963  4.6240
  787MOL0     H 3824   2.831   1.053   0.365 -0.4173  1.9491  0.7393
  787MOL0     H 3825   2.623   1.137   0.271  0.3961  0.3721 -0.1104
  787MOL0     H 3826   2.531   1.010   0.362 -0.1116 -0.2953 -1.3346
  787MOL0     H 3827   2.652   0.841   0.216  0.4566  0.1923 -0.7167
  787MOL0     H 3828   2.524   0.939   0.134 -0.1494  0.8720 -0.1216
  787MOL0     H 3829   2.806   0.989   0.150 -1.8815  1.1936  1.8643
  787MOL0     H 3830   2.692   1.089   0.054  2.1512  0.6265  0.9559
  787MOL0     H 3831   2.654   0.919  -0.101  0.3740 -0.4546 -0.0993
  787MOL0     H 3832   2.727   0.796   0.003 -0.2206 -0.4055 -2.2856
  787MOL0     H 3833   2.856   0.838  -0.182  2.7921 -0.9854  0.2420
  787MOL0     H 3834   2.849   1.013  -0.159 -2.8071  0.6988  1.6623
  787MOL0     H 3835   2.996   0.834   0.041  1.5653  0.2739  0.7146
  787MOL0     H 3836   2.985   1.017   0.028 -2.7798  1.5766 -1.3181
  787MOL0     H 3837   3.149   1.138  -0.121 -1.7304 -0.0624 -1.4539
  787MOL0     H 3838   3.381   1.183  -0.249  1.9811  0.7684  1.5287
  787MOL0     H 3839   3.355   1.086  -0.393 -0.2263 -1.4153 -0.9811
  787MOL0     H 3840   3.534   0.923  -0.306 -1.0606  1.3121 -4.0574
  787MOL0     H 3841   3.538   1.020  -0.153  1.6745  2.1092 -0.1145
  787MOL0     H 3842   3.739   1.033  -0.318  0.5470  1.1017  1.7389
  787MOL0     H 3843   3.625   1.128  -0.421 -1.1228 -0.5278 -0.2312
  787MOL0     H 3844   3.592   1.277  -0.215  0.3757  1.9722 -0.4217
  787MOL0     H 3845   3.741   1.296  -0.288 -1.8487  0.9361 -0.9477
  787MOL0     H 3846   3.948   1.187  -0.283 -3.3189 -1.8564  1.3203
  787MOL0     H 3847   4.173   1.239  -0.229  0.3705  0.8179  0.8837
  787MOL0     H 3848   4.528   1.280   0.170 -2.3302 -3.6373 -2.9852
  787MOL0     H 3849   4.771   1.351   0.178  0.4185  0.4680 -0.3668
  787MOL0     H 3850   4.983   1.399   0.166  0.9160  1.2603  1.4411
  787MOL0     H 3851   4.938   1.570   0.133 -1.2809 -0.6607  0.1552
  787MOL0     H 3852   5.122   1.581  -0.028  0.4072 -0.6797 -0.7160
  787MOL0     H 3853   5.157   1.415  -0.002 -0.8461  0.2369 -0.0069
  787MOL0     H 3854   5.207   1.469   0.247 -1.5078  2.6770  2.3812
  787MOL0     H 3855   5.182   1.634   0.223  1.3021  0.4149  0.8247
  787MOL0     H 3856   5.400   1.494   0.052  2.1758 -0.7982  2.4908
  787MOL0     H 3857   5.361   1.660   0.058  2.4865 -2.6985 -4.2935
  787MOL0     H 3858   5.474   1.517   0.289  1.9356 -0.8690 -1.1171
  787MOL0     H 3859   5.384   1.659   0.304 -1.8570 -2.9703  0.8903
  787MOL0     H 3860   5.569   1.754   0.115  0.2144 -1.8137 -0.4320
  787MOL0     H 3861   5.643   1.598   0.133  1.1222  0.2606 -0.0699
  787MOL0     H 3862   5.613   1.820   0.353 -0.3504  0.1990 -0.1160
  787MOL0     H 3863   5.691   1.657   0.387 -1.6343 -3.2109 -2.6119
  787MOL0     H 3864   5.829   1.860   0.347 -0.6116 -2.4090  0.7039
  787MOL0     H 3865   5.792   1.859   0.179  2.0405  0.5153 -0.8947
  787MOL0     H 3866   4.779   1.436  -0.230 -0.6953  4.0834  0.6826
  787MOL0     H 3867   4.519   1.392  -0.240 -0.0258  1.6461  0.0834
  787MOL0     H 3868   4.060   1.321   0.171  0.0453 -1.1688  1.1402
  787MOL0     H 3869   3.828   1.279   0.116 -0.7681  1.3797 -0.8229
  787MOL0     H 3870   2.969   1.128   0.562  2.6144 -0.2835 -0.3108
  787MOL0     H 3871   3.194   1.229   0.569  0.7189  1.1793  0.5520
  787MOL0     H 3872   3.491   1.461   0.604  0.0722  0.5091 -2.3565
  787MOL0     H 3873   3.720   1.562   0.603 -1.3857 -2.2519 -0.2969
  787MOL0     H 3874   3.797   1.944   0.807  0.8674  3.0170 -0.5298
  787MOL0     H 3875   3.742   2.025   0.664 -0.5851 -0.2342  0.2687
  787MOL0     H 3876   3.955   1.951   0.552  2.2669 -0.1062 -0.6911
  787MOL0     H 3877   3.979   2.073   0.692  1.3086  0.4575 -0.8073
  787MOL0     H 3878   4.026   1.768   0.721  1.6190 -0.8788 -0.4213
  787MOL0     H 3879   4.050   1.902   0.841  1.6085 -0.9299 -0.6926
  787MOL0     H 3880   4.249   1.791   0.696  0.6000 -0.0595 -1.8052
  787MOL0     H 3881   4.172   1.893   0.573 -3.5340  0.3707  1.0215
  787MOL0     H 3882   4.390   2.178   0.765  2.2552 -2.3980  0.8343
  787MOL0     H 3883   3.545   1.938   0.684  0.3052 -0.3454 -1.1221
  787MOL0     H 3884   3.320   1.832   0.697 -0.4776  0.2877 -1.6926
  788MOL0     O 3885   1.307   3.807   9.773 -0.0389  0.1407 -0.0651
  788MOL0     C 3886   1.350   3.694   9.779 -0.8484  0.4647 -0.5529
  788MOL0     O 3887   1.286   3.582   9.811  0.0544  0.4189  0.3447
  788MOL0     C 3888   1.149   3.594   9.837 -0.5315 -0.4558  0.2535
  788MOL0     C 3889   1.059   3.528   9.760  0.9730  0.3042  0.0577
  788MOL0     C 3890   0.921   3.546   9.789  0.7683 -0.4162  0.3799
  788MOL0     C 3891   0.877   3.632   9.891  0.2837  0.2137 -0.0347
  788MOL0     O 3892   0.750   3.675   9.907 -0.1307  0.3944 -0.1645
  788MOL0     C 3893   0.641   3.620   9.830  0.3723  0.1856  0.3268
  788MOL0     C 3894   0.509   3.656   9.883 -0.0942 -0.1300 -0.8181
  788MOL0     C 3895   0.403   3.613   9.782  0.6937  0.1888 -0.5047
  788MOL0     C 3896   0.272   3.605   9.848  0.4358 -0.3968  0.4565
  788MOL0     C 3897   0.168   3.551   9.757 -0.3919  0.1019 -0.7728
  788MOL0     C 3898   0.044   3.528   9.847  0.4431 -1.1604  0.1840
  788MOL0     C 3899  -0.084   3.522   9.761  0.0790  0.4287  0.6213
  788MOL0     C 3900  -0.205   3.507   9.846  0.1398 -0.5912 -0.3222
  788MOL0     N 3901  -0.323   3.482   9.756  0.0597 -0.3119 -0.1633
  788MOL0     C 3902  -0.387   3.576   9.683  0.1760 -0.7929  0.4257
  788MOL0     C 3903  -0.473   3.515   9.614  0.0971 -0.1528 -0.0343
  788MOL0     C 3904  -0.558   3.584   9.513  0.6029 -0.0176  0.1498
  788MOL0     C 3905  -0.703   3.515   9.519  0.1285 -0.1914  0.3971
  788MOL0     C 3906  -0.818   3.592   9.439 -0.2960 -0.4190 -0.2928
  788MOL0     C 3907  -0.940   3.503   9.468 -0.0543 -0.2123  0.7598
  788MOL0     O 3908  -1.045   3.571   9.395 -0.2962 -0.8295  0.2548
  788MOL0     C 3909  -1.173   3.508   9.395 -1.0400 -1.3021  0.7367
  788MOL0     C 3910  -1.196   3.371   9.429 -0.0434  0.3779 -0.2372
  788MOL0     C 3911  -1.327   3.319   9.430  0.5795  0.6914 -1.6588
  788MOL0     C 3912  -1.440   3.391   9.369 -0.5109  0.0461 -0.3611
  788MOL0     C 3913  -1.579   3.344   9.382  0.5258 -1.0045 -0.0124
  788MOL0     O 3914  -1.593   3.228   9.452  1.0716  0.0426 -0.5358
  788MOL0     C 3915  -1.723   3.169   9.470 -0.7011  0.4050 -0.0954
  788MOL0     C 3916  -1.726   3.030   9.463  0.1864 -0.0399 -0.7670
  788MOL0     C 3917  -1.835   2.960   9.523 -0.1010 -0.6199 -0.6060
  788MOL0     C 3918  -1.950   3.022   9.577  0.4384  0.2239 -0.5056
  788MOL0     O 3919  -2.057   2.944   9.626 -0.5374 -0.2663 -0.0092
  788MOL0     C 3920  -2.167   3.011   9.693  0.5273 -0.4224 -0.2251
  788MOL0     C 3921  -2.281   2.921   9.756  0.6111  0.5540 -0.2201
  788MOL0     C 3922  -2.320   2.803   9.650 -0.2992  0.9941 -1.6082
  788MOL0     C 3923  -2.387   2.853   9.515 -0.5930 -0.5815 -0.0785
  788MOL0     C 3924  -2.409   2.735   9.421 -0.6002  0.2750 -0.3890
  788MOL0     C 3925  -2.453   2.797   9.289  0.8458 -0.5518  0.7015
  788MOL0     C 3926  -2.454   2.699   9.167 -0.1656  0.1000  0.7331
  788MOL0     C 3927  -2.319   2.647   9.106  0.6148 -0.2327  0.4743
  788MOL0    Cl 3928  -2.189   2.772   9.084  0.2750  0.1502  0.0058
  788MOL0     C 3929  -1.943   3.160   9.577  0.5032  0.7974 -0.4994
  788MOL0     C 3930  -1.842   3.236   9.516 -1.0617 -0.4040  0.2089
  788MOL0     O 3931  -1.663   3.394   9.311 -0.0532 -0.6069 -0.1798
  788MOL0     C 3932  -1.403   3.518   9.313  0.5629 -0.5094  0.1124
  788MOL0     C 3933  -1.279   3.581   9.339  0.1183  0.1075  0.3609
  788MOL0     N 3934  -0.479   3.378   9.653  0.1809  1.0435  0.6177
  788MOL0     N 3935  -0.389   3.367   9.743  0.1161  0.6974  0.1958
  788MOL0     C 3936   0.972   3.696   9.966 -0.3198  0.6674  0.3885
  788MOL0     C 3937   1.110   3.670   9.949  0.3922 -0.2602 -0.3210
  788MOL0     C 3938   1.487   3.671   9.716  0.6818 -0.7089  0.0743
  788MOL0     C 3939   1.572   3.771   9.663  0.0421 -0.5336 -0.2071
  788MOL0     C 3940   1.700   3.746   9.619  0.5679  0.2184  0.4372
  788MOL0     C 3941   1.744   3.615   9.596 -0.3394 -0.9343  0.1495
  788MOL0     O 3942   1.870   3.600   9.545 -0.7259 -0.1991 -0.1916
  788MOL0     C 3943   1.942   3.477   9.566 -0.2754  0.7187 -0.0262
  788MOL0     C 3944   2.080   3.503   9.505 -0.5968  1.1429  0.0939
  788MOL0     C 3945   2.184   3.543   9.611 -0.3998  0.4334  0.2166
  788MOL0     C 3946   2.244   3.679   9.572  0.0451 -0.1801  0.1655
  788MOL0     C 3947   2.298   3.669   9.434 -0.6299  0.3701  0.1153
  788MOL0     C 3948   2.331   3.658   9.319 -0.6521 -0.5380  0.8325
  788MOL0     C 3949   1.659   3.509   9.623  0.4491 -1.0419 -0.2869
  788MOL0     C 3950   1.538   3.535   9.698  0.2449 -0.5977  0.2210
  788MOL0     H 3951   1.099   3.473   9.675  3.2468  0.2520  1.0945
  788MOL0     H 3952   0.851   3.504   9.717  1.7816 -2.9863  0.7871
  788MOL0     H 3953   0.646   3.511   9.832  1.4715  0.2156 -0.2895
  788MOL0     H 3954   0.651   3.656   9.728 -0.3241  2.7030  1.0524
  788MOL0     H 3955   0.519   3.765   9.885  3.4949 -0.2109 -3.6811
  788MOL0     H 3956   0.496   3.624   9.987 -1.3224  2.3770 -0.1287
  788MOL0     H 3957   0.424   3.516   9.737 -2.2586  1.1021 -4.3798
  788MOL0     H 3958   0.404   3.694   9.709  0.9370  0.6981  0.0494
  788MOL0     H 3959   0.284   3.542   9.937  0.4506 -1.0287  0.0167
  788MOL0     H 3960   0.255   3.704   9.892  0.5844 -0.2240  0.1295
  788MOL0     H 3961   0.188   3.454   9.710 -1.7611  0.4562 -2.1855
  788MOL0     H 3962   0.142   3.622   9.678  1.1477 -0.4166 -1.7816
  788MOL0     H 3963   0.033   3.622   9.902  1.0553  0.6619 -2.6147
  788MOL0     H 3964   0.057   3.448   9.920 -0.5289 -0.3540  1.2864
  788MOL0     H 3965  -0.101   3.611   9.699  0.4265  0.6805  0.8802
  788MOL0     H 3966  -0.074   3.432   9.699  2.3176  0.6114  0.6318
  788MOL0     H 3967  -0.203   3.595   9.911  3.1078 -1.2368  0.6401
  788MOL0     H 3968  -0.192   3.420   9.911  1.2117  1.2500  2.1009
  788MOL0     H 3969  -0.367   3.682   9.679 -2.0264 -0.3735 -1.9516
  788MOL0     H 3970  -0.516   3.583   9.412 -0.2301 -2.0167 -0.2338
  788MOL0     H 3971  -0.575   3.689   9.539 -2.8852 -0.3725 -0.2040
  788MOL0     H 3972  -0.738   3.494   9.620 -1.2604  1.4423  0.3025
  788MOL0     H 3973  -0.694   3.418   9.470 -0.5220 -1.2106  2.2015
  788MOL0     H 3974  -0.836   3.696   9.467 -2.3996 -0.5577 -0.9180
  788MOL0     H 3975  -0.791   3.594   9.333  0.5060  1.2439 -0.0883
  788MOL0     H 3976  -0.969   3.497   9.573  2.1048  2.9620  1.6845
  788MOL0     H 3977  -0.926   3.400   9.435  0.0175  0.2815 -0.8360
  788MOL0     H 3978  -1.113   3.313   9.467  0.8202  0.0424 -2.4519
  788MOL0     H 3979  -1.349   3.218   9.465  0.1067  0.8877 -1.3819
  788MOL0     H 3980  -1.638   2.977   9.428  1.4864  1.5756 -0.0734
  788MOL0     H 3981  -1.839   2.852   9.522  1.4708 -0.7072 -1.1674
  788MOL0     H 3982  -2.224   3.069   9.619 -2.0558 -2.1908  0.2388
  788MOL0     H 3983  -2.115   3.070   9.769 -0.1790  0.7969 -0.6547
  788MOL0     H 3984  -2.373   2.978   9.773  1.6282  1.5756  2.3466
  788MOL0     H 3985  -2.244   2.869   9.845 -1.7445 -1.0689 -0.0806
  788MOL0     H 3986  -2.385   2.733   9.702  2.6766 -0.7761  0.0181
  788MOL0     H 3987  -2.238   2.740   9.615 -2.1147 -0.2197 -3.9625
  788MOL0     H 3988  -2.483   2.893   9.550 -0.8605 -0.7893 -0.5667
  788MOL0     H 3989  -2.333   2.936   9.470 -2.3034  1.6949  1.8555
  788MOL0     H 3990  -2.492   2.668   9.447 -0.8431  0.4082 -0.8055
  788MOL0     H 3991  -2.312   2.685   9.415 -1.5918 -1.6199 -1.9103
  788MOL0     H 3992  -2.398   2.884   9.251  1.6797 -1.3389  0.0789
  788MOL0     H 3993  -2.560   2.814   9.301  0.1674 -2.4469 -1.8721
  788MOL0     H 3994  -2.524   2.616   9.180 -2.1177  1.3745 -1.0007
  788MOL0     H 3995  -2.491   2.752   9.079  4.0449  0.4681 -1.0619
  788MOL0     H 3996  -2.338   2.591   9.014 -1.8275 -0.1741  0.8838
  788MOL0     H 3997  -2.285   2.575   9.181 -2.5098 -2.4628 -0.0358
  788MOL0     H 3998  -2.027   3.216   9.618 -1.5212 -0.3747 -2.7148
  788MOL0     H 3999  -1.832   3.344   9.516 -0.2184 -0.4722 -0.1446
  788MOL0     H 4000  -1.481   3.570   9.259  0.7302  0.7443  1.0564
  788MOL0     H 4001  -1.253   3.682   9.309 -0.0699  0.2491  0.6658
  788MOL0     H 4002   0.921   3.748  10.047 -2.1348 -0.7790  0.2610
  788MOL0     H 4003   1.191   3.708  10.012  0.1972 -0.9054  0.3260
  788MOL0     H 4004   1.533   3.871   9.676  1.5329  0.1134 -0.5389
  788MOL0     H 4005   1.750   3.840   9.596 -2.5109  1.8976  0.0587
  788MOL0     H 4006   1.889   3.395   9.517  0.4672  0.3122 -0.1561
  788MOL0     H 4007   1.954   3.468   9.674  0.5963  3.5005  0.1917
  788MOL0     H 4008   2.108   3.408   9.459 -0.0035  0.6896  1.3185
  788MOL0     H 4009   2.071   3.578   9.426  1.0312 -1.6242 -2.9674
  788MOL0     H 4010   2.268   3.474   9.616  1.2575  2.2188 -1.1976
  788MOL0     H 4011   2.149   3.542   9.715  2.3055  0.9187  1.2188
  788MOL0     H 4012   2.165   3.754   9.583  0.3423  0.0651  0.6556
  788MOL0     H 4013   2.327   3.704   9.639 -0.4396  0.9974  0.3450
  788MOL0     H 4014   2.361   3.647   9.217 -0.2246 -1.2290  1.0266
  788MOL0     H 4015   1.684   3.410   9.585  1.0555 -1.1307  0.3326
  788MOL0     H 4016   1.481   3.447   9.722 -0.9122  0.4763  1.5857
  789MOL0     O 4017   8.484  10.376   7.234 -0.4278  0.0328  0.4845
  789MOL0     C 4018   8.478  10.257   7.218 -0.0186 -0.1449 -0.1694
  789MOL0     O 4019   8.366  10.189   7.198 -0.3771 -0.4391  0.3030
  789MOL0     C 4020   8.242  10.238   7.218  0.9852 -0.3754  0.2474
  789MOL0     C 4021   8.143  10.167   7.150 -0.3126 -0.4816  0.9061
  789MOL0     C 4022   8.009  10.191   7.173 -0.3090  0.4438 -1.0474
  789MOL0     C 4023   7.963  10.291   7.255 -0.0019 -0.1809  1.2590
  789MOL0     O 4024   7.830  10.313   7.268  0.5209 -0.1146 -0.8138
  789MOL0     C 4025   7.795  10.454   7.233 -0.3030  0.0771 -0.0805
  789MOL0     C 4026   7.650  10.462   7.181 -0.0720 -1.0692 -0.6631
  789MOL0     C 4027   7.551  10.404   7.284  0.1646 -0.3245  0.0618
  789MOL0     C 4028   7.406  10.405   7.234  0.3820 -0.5720  0.0330
  789MOL0     C 4029   7.306  10.370   7.347  0.4265  0.1928 -0.4141
  789MOL0     C 4030   7.169  10.329   7.288  0.1963 -0.2154  0.3512
  789MOL0     C 4031   7.073  10.342   7.402  1.0337  0.4824  0.7820
  789MOL0     C 4032   6.931  10.304   7.361  0.2506  0.2305  0.2851
  789MOL0     N 4033   6.867  10.404   7.277  0.3008 -0.5398 -0.2777
  789MOL0     C 4034   6.844  10.395   7.145  0.4776  0.8534  0.5551
  789MOL0     C 4035   6.768  10.504   7.114 -0.1633 -0.6892  0.6776
  789MOL0     C 4036   6.705  10.544   6.975 -0.3764 -0.3565  0.3712
  789MOL0     C 4037   6.551  10.564   6.990 -0.2944  0.4752  0.2620
  789MOL0     C 4038   6.481  10.588   6.859 -0.4219  0.2960 -0.2860
  789MOL0     C 4039   6.331  10.627   6.881 -0.6311  0.0705 -0.2805
  789MOL0     O 4040   6.272  10.560   6.772 -0.4916  0.1006  0.7128
  789MOL0     C 4041   6.159  10.503   6.805 -0.0856 -0.0292  0.1559
  789MOL0     C 4042   6.154  10.372   6.821 -0.4332  0.7597 -0.8192
  789MOL0     C 4043   6.035  10.299   6.830 -0.4074  0.8815  0.1245
  789MOL0     C 4044   5.906  10.365   6.833 -0.5526  0.8136  0.2540
  789MOL0     C 4045   5.776  10.288   6.837 -0.2430  0.4931 -0.5690
  789MOL0     O 4046   5.660  10.359   6.832  0.6626 -0.1253  0.6293
  789MOL0     C 4047   5.545  10.313   6.891  0.1588 -0.1232 -0.4903
  789MOL0     C 4048   5.535  10.218   6.989  0.2119  0.0433  0.5636
  789MOL0     C 4049   5.413  10.169   7.034  0.2630 -0.2459 -0.4723
  789MOL0     C 4050   5.295  10.219   6.980  0.3295 -0.0592 -0.1247
  789MOL0     O 4051   5.177  10.173   7.040 -0.3705 -0.1158  0.1158
  789MOL0     C 4052   5.053  10.201   6.984 -0.3481 -0.1337  0.2240
  789MOL0     C 4053   4.946  10.116   7.049  0.8727 -0.9991 -0.5663
  789MOL0     C 4054   4.805  10.155   6.996 -0.7556 -0.0805  1.1565
  789MOL0     C 4055   4.699  10.074   7.065 -0.2035 -0.1889 -0.6102
  789MOL0     C 4056   4.562  10.118   7.015  0.3723  0.3835 -0.6339
  789MOL0     C 4057   4.455  10.041   7.107 -0.3223  0.2768 -0.1643
  789MOL0     C 4058   4.324  10.121   7.112  0.1121 -0.3036  0.3103
  789MOL0     C 4059   4.237  10.115   6.987 -0.5572 -0.1104  0.1871
  789MOL0    Cl 4060   4.072  10.193   7.012  0.0079 -0.4344 -0.0001
  789MOL0     C 4061   5.306  10.322   6.889 -0.0761  0.2086 -0.3931
  789MOL0     C 4062   5.426  10.360   6.840 -0.5686  0.4360  0.9306
  789MOL0     O 4063   5.785  10.165   6.849 -0.2432  0.2289  0.2097
  789MOL0     C 4064   5.906  10.500   6.808  0.9995  0.4416  0.6983
  789MOL0     C 4065   6.032  10.564   6.793 -0.1923 -0.3841  0.5688
  789MOL0     N 4066   6.749  10.582   7.227 -0.2778 -0.3934 -0.1124
  789MOL0     N 4067   6.813  10.524   7.326 -0.4411  0.3067  0.2343
  789MOL0     C 4068   8.065  10.376   7.315  0.5221  0.8557 -0.2426
  789MOL0     C 4069   8.197  10.353   7.298  0.1192  0.7946 -0.7860
  789MOL0     C 4070   8.599  10.169   7.232  0.1832 -0.0396  0.4454
  789MOL0     C 4071   8.606  10.028   7.193  0.6928  0.0216 -0.2639
  789MOL0     C 4072   8.733   9.968   7.196  0.3510 -0.1133  0.6641
  789MOL0     C 4073   8.851  10.030   7.235  0.5471 -0.7592  0.1007
  789MOL0     O 4074   8.980   9.980   7.226  0.4231 -0.2657  0.2235
  789MOL0     C 4075   8.995   9.843   7.278  0.3411 -0.2318 -0.1756
  789MOL0     C 4076   9.106   9.781   7.185 -0.5227 -0.9985  0.6123
  789MOL0     C 4077   9.190   9.659   7.234 -0.7269  0.0751  0.2066
  789MOL0     C 4078   9.283   9.601   7.117  1.2627 -0.3358 -0.8347
  789MOL0     C 4079   9.375   9.499   7.170 -0.1800 -0.0969 -1.3371
  789MOL0     C 4080   9.446   9.414   7.215 -0.1926  0.7724  0.6709
  789MOL0     C 4081   8.847  10.172   7.268  0.0198 -0.6794 -0.2552
  789MOL0     C 4082   8.715  10.238   7.270 -0.1430  1.3191 -0.2302
  789MOL0     H 4083   8.189  10.086   7.093  1.3412  1.7481 -1.1398
  789MOL0     H 4084   7.939  10.128   7.119 -0.7633  1.4184 -1.6252
  789MOL0     H 4085   7.858  10.493   7.153 -3.0591 -0.7660 -2.8381
  789MOL0     H 4086   7.797  10.520   7.321 -4.8436  0.0814  0.2554
  789MOL0     H 4087   7.649  10.406   7.086 -0.0558  0.0716 -1.3513
  789MOL0     H 4088   7.626  10.567   7.165  0.4498 -1.0729 -1.5549
  789MOL0     H 4089   7.545  10.459   7.378 -0.0853 -2.2532  1.2239
  789MOL0     H 4090   7.571  10.299   7.306  0.7833 -0.2816 -0.2567
  789MOL0     H 4091   7.385  10.507   7.200  1.3185 -0.1483  0.6799
  789MOL0     H 4092   7.405  10.335   7.149  1.3214 -0.9664  0.3257
  789MOL0     H 4093   7.290  10.447   7.422 -1.8540 -1.9711  1.4993
  789MOL0     H 4094   7.355  10.298   7.413  0.4796  1.5385  1.0644
  789MOL0     H 4095   7.178  10.225   7.257 -2.9913 -0.7422  0.7756
  789MOL0     H 4096   7.146  10.382   7.195 -2.4291 -2.5629 -0.4738
  789MOL0     H 4097   7.106  10.270   7.478  0.8635 -0.6472 -0.1670
  789MOL0     H 4098   7.076  10.441   7.446 -0.1829  2.0056 -2.2291
  789MOL0     H 4099   6.877  10.286   7.455  0.1971 -4.1501 -0.3594
  789MOL0     H 4100   6.922  10.209   7.308 -2.6160  0.4138  0.2500
  789MOL0     H 4101   6.872  10.307   7.088  2.3177  0.6581  1.6723
  789MOL0     H 4102   6.727  10.463   6.906  1.8845  0.5215 -0.0105
  789MOL0     H 4103   6.742  10.637   6.931 -2.7084 -1.1650 -3.8330
  789MOL0     H 4104   6.530  10.649   7.055 -0.7698  2.6098 -2.4969
  789MOL0     H 4105   6.512  10.470   7.031 -2.2112  1.0161 -0.2246
  789MOL0     H 4106   6.528  10.674   6.812  4.0797 -1.6616  0.1117
  789MOL0     H 4107   6.487  10.505   6.788  1.0351 -0.2462  0.4465
  789MOL0     H 4108   6.326  10.736   6.889 -1.8106 -0.0267  0.5499
  789MOL0     H 4109   6.305  10.596   6.983  2.7865  0.2272  0.7637
  789MOL0     H 4110   6.242  10.316   6.791 -0.2595 -2.0096  3.8645
  789MOL0     H 4111   6.040  10.191   6.825  1.8594  0.9704 -1.9605
  789MOL0     H 4112   5.626  10.180   7.034 -1.7169 -0.7639  4.0858
  789MOL0     H 4113   5.407  10.094   7.113 -0.5125 -0.6861 -0.9357
  789MOL0     H 4114   5.053  10.190   6.875 -0.7527 -4.5817  0.4879
  789MOL0     H 4115   5.021  10.304   7.003 -1.5427 -0.1439 -1.4755
  789MOL0     H 4116   4.956  10.139   7.155  2.1864  1.8577 -1.2088
  789MOL0     H 4117   4.981  10.016   7.019 -0.2378 -1.2955 -0.9401
  789MOL0     H 4118   4.805  10.125   6.891 -0.4641 -1.4755  1.5424
  789MOL0     H 4119   4.778  10.260   7.009 -0.0383  0.3483 -0.5709
  789MOL0     H 4120   4.711   9.972   7.027 -3.7425 -1.0788  0.3179
  789MOL0     H 4121   4.712  10.081   7.173 -1.9306  2.7860 -0.4805
  789MOL0     H 4122   4.534  10.113   6.910  1.3708  0.1716 -0.9056
  789MOL0     H 4123   4.554  10.224   7.044  2.2832 -0.0743  1.9602
  789MOL0     H 4124   4.487  10.021   7.210 -0.1249 -0.3802 -0.3439
  789MOL0     H 4125   4.433   9.942   7.066 -1.8987 -0.5539  2.4395
  789MOL0     H 4126   4.262  10.072   7.188 -1.7962  1.4346 -0.0270
  789MOL0     H 4127   4.329  10.222   7.153  0.8581 -1.0828  2.2223
  789MOL0     H 4128   4.240  10.011   6.956  2.2743 -0.8632  2.4803
  789MOL0     H 4129   4.289  10.184   6.920 -0.9838 -1.6822 -1.8613
  789MOL0     H 4130   5.223  10.386   6.862 -1.0748 -1.0785 -0.4919
  789MOL0     H 4131   5.428  10.439   6.766  0.3461  0.4791  0.9839
  789MOL0     H 4132   5.817  10.561   6.795  0.7421  0.1392  0.9932
  789MOL0     H 4133   6.039  10.664   6.752  2.3580 -0.9749 -0.6591
  789MOL0     H 4134   8.045  10.462   7.379 -0.1674 -1.9751  3.7230
  789MOL0     H 4135   8.269  10.418   7.346  2.2293  0.1823 -2.8822
  789MOL0     H 4136   8.519   9.974   7.155  1.2731 -0.7863 -0.4694
  789MOL0     H 4137   8.721   9.872   7.147 -0.3093  0.7433 -0.9664
  789MOL0     H 4138   8.900   9.789   7.273 -0.8723  1.6743  1.1075
  789MOL0     H 4139   9.019   9.839   7.385  0.0832 -2.0013 -0.1626
  789MOL0     H 4140   9.044   9.744   7.103  1.3985 -1.2849 -0.7745
  789MOL0     H 4141   9.174   9.858   7.150 -1.9391 -0.3652 -0.9000
  789MOL0     H 4142   9.122   9.583   7.274 -1.4338  1.2057  1.2553
  789MOL0     H 4143   9.245   9.697   7.321 -2.2967  3.8970 -0.2676
  789MOL0     H 4144   9.203   9.552   7.060  0.5327 -0.1777  0.0282
  789MOL0     H 4145   9.324   9.685   7.061  0.6115  1.0466  0.6884
  789MOL0     H 4146   9.511   9.339   7.255 -0.1760  0.2243 -0.3695
  789MOL0     H 4147   8.932  10.230   7.304  1.9585 -3.6682  0.2925
  789MOL0     H 4148   8.711  10.343   7.298 -3.1857  0.2819  4.2742
  790MOL0     O 4149  10.602   1.605   8.827 -0.0265 -0.8940  0.4983
  790MOL0     C 4150  10.659   1.619   8.718  0.1351 -1.1137 -0.8535
  790MOL0     O 4151  10.599   1.617   8.597 -0.2921 -0.5071 -0.2581
  790MOL0     C 4152  10.465   1.622   8.583  0.0716 -0.2176 -0.2418
  790MOL0     C 4153  10.402   1.529   8.500 -0.6490  0.7075 -0.5648
  790MOL0     C 4154  10.263   1.538   8.468 -0.4575  0.5875  0.3894
  790MOL0     C 4155  10.186   1.649   8.515  0.9092 -0.6031 -1.6018
  790MOL0     O 4156  10.053   1.647   8.493  0.3729  0.1834 -0.0196
  790MOL0     C 4157   9.975   1.627   8.615 -0.8140 -0.1198  0.3465
  790MOL0     C 4158   9.855   1.529   8.586 -0.7572 -0.0343 -0.1718
  790MOL0     C 4159   9.906   1.400   8.527 -0.4283  0.3673  0.0333
  790MOL0     C 4160   9.975   1.316   8.626 -0.1902  0.3908 -0.2135
  790MOL0     C 4161  10.034   1.182   8.554 -0.0492 -0.2601 -0.7791
  790MOL0     C 4162   9.934   1.080   8.493 -0.7672 -0.8478 -0.1239
  790MOL0     C 4163   9.998   0.942   8.480 -0.6762 -0.4815  0.0574
  790MOL0     C 4164   9.927   0.858   8.370 -0.1493  0.0651  0.3946
  790MOL0     N 4165   9.787   0.817   8.409 -0.4624  0.2304  0.7895
  790MOL0     C 4166   9.680   0.901   8.388  0.6388  0.5741 -0.1845
  790MOL0     C 4167   9.568   0.829   8.410  0.5526  0.8401 -0.1446
  790MOL0     C 4168   9.423   0.865   8.408  0.2244  0.4860  0.3634
  790MOL0     C 4169   9.354   0.792   8.288  0.7730 -0.9640  0.1138
  790MOL0     C 4170   9.202   0.819   8.269 -0.7439  1.0089 -0.7671
  790MOL0     C 4171   9.160   0.735   8.150  0.3605 -0.4639  0.5872
  790MOL0     O 4172   9.027   0.752   8.106  0.2398 -0.2874  0.3742
  790MOL0     C 4173   8.965   0.655   8.025 -0.1637  0.1304 -0.4268
  790MOL0     C 4174   9.034   0.541   7.969 -0.5270  0.2115  0.1273
  790MOL0     C 4175   8.976   0.442   7.901  0.8045  0.6651  0.4831
  790MOL0     C 4176   8.833   0.449   7.880  0.1266  0.0317 -0.1128
  790MOL0     C 4177   8.767   0.340   7.803  0.2763 -0.4705 -0.3448
  790MOL0     O 4178   8.637   0.355   7.772  0.1035  0.4176 -0.4442
  790MOL0     C 4179   8.560   0.240   7.743 -0.5519  0.5710 -0.2513
  790MOL0     C 4180   8.589   0.151   7.634  0.9728 -0.7481  0.1529
  790MOL0     C 4181   8.517   0.032   7.612 -0.3982  0.1313  0.2246
  790MOL0     C 4182   8.421  -0.018   7.695 -0.5612 -0.1615 -0.7128
  790MOL0     O 4183   8.365  -0.139   7.658  0.8049  0.3496 -0.2888
  790MOL0     C 4184   8.234  -0.162   7.706  0.5376  0.7930  0.3903
  790MOL0     C 4185   8.117  -0.091   7.629  1.3644  0.7479 -1.0861
  790MOL0     C 4186   7.987  -0.161   7.672 -0.8013 -0.0347 -0.2124
  790MOL0     C 4187   7.864  -0.078   7.621 -0.8437 -0.2088  0.6490
  790MOL0     C 4188   7.735  -0.145   7.674 -0.6382 -0.4276  0.0335
  790MOL0     C 4189   7.621  -0.130   7.579 -0.2938  0.6996 -0.3054
  790MOL0     C 4190   7.481  -0.176   7.620  0.3422 -0.2932 -0.3291
  790MOL0     C 4191   7.444  -0.104   7.749 -0.4315  0.3494 -0.4040
  790MOL0    Cl 4192   7.478  -0.201   7.901  0.4999 -0.0597 -0.0149
  790MOL0     C 4193   8.399   0.061   7.812  0.3320  0.8609  0.0562
  790MOL0     C 4194   8.456   0.187   7.830 -0.5036 -0.5512 -0.5678
  790MOL0     O 4195   8.843   0.238   7.797  1.0103 -0.2479 -0.5924
  790MOL0     C 4196   8.762   0.561   7.915 -0.2284  0.0798 -0.0695
  790MOL0     C 4197   8.829   0.660   7.996  1.1567  0.5684  0.4780
  790MOL0     N 4198   9.610   0.696   8.439 -0.2520 -1.3462  0.4365
  790MOL0     N 4199   9.742   0.694   8.446  0.2233  0.1452 -0.2137
  790MOL0     C 4200  10.253   1.746   8.593  1.1786  0.0607  0.8186
  790MOL0     C 4201  10.388   1.730   8.636 -0.6891  0.1915 -0.1931
  790MOL0     C 4202  10.805   1.622   8.714 -0.3099  0.7233 -0.5385
  790MOL0     C 4203  10.880   1.599   8.829  0.1612 -0.0115 -0.1909
  790MOL0     C 4204  11.019   1.592   8.816  0.4265  0.1892 -0.1381
  790MOL0     C 4205  11.080   1.612   8.692 -0.2549 -0.4009 -0.4961
  790MOL0     O 4206  11.220   1.617   8.670  0.0688 -0.3639  0.4293
  790MOL0     C 4207  11.293   1.642   8.787 -0.2380 -0.1359  0.0919
  790MOL0     C 4208  11.441   1.644   8.776 -0.0604  0.6270  0.4663
  790MOL0     C 4209  11.499   1.515   8.724 -0.6986  0.2543 -0.2979
  790MOL0     C 4210  11.648   1.530   8.710 -0.1502  0.4034 -0.1286
  790MOL0     C 4211  11.709   1.396   8.676 -0.0891 -0.2826 -0.4888
  790MOL0     C 4212  11.752   1.275   8.664 -0.0282 -1.6439  0.0019
  790MOL0     C 4213  11.001   1.640   8.586 -0.2338  0.9651  0.6556
  790MOL0     C 4214  10.867   1.643   8.587  0.3186 -0.3082 -0.3892
  790MOL0     H 4215  10.463   1.444   8.472 -1.9619  0.2531 -2.1805
  790MOL0     H 4216  10.209   1.457   8.421 -1.3744  2.5746 -2.2751
  790MOL0     H 4217   9.939   1.722   8.653 -0.9783  0.3009 -0.8235
  790MOL0     H 4218  10.036   1.588   8.698  2.1853  0.5419 -1.3992
  790MOL0     H 4219   9.792   1.572   8.507 -0.3250 -1.5235 -1.3692
  790MOL0     H 4220   9.795   1.503   8.673 -0.4027 -1.1042 -0.2320
  790MOL0     H 4221   9.966   1.397   8.436  1.0359 -4.2293  0.8898
  790MOL0     H 4222   9.813   1.352   8.492  1.5618 -2.1248 -2.2795
  790MOL0     H 4223  10.059   1.371   8.669  0.8490 -1.9567  0.9628
  790MOL0     H 4224   9.912   1.290   8.711  1.2965 -1.4315  0.4054
  790MOL0     H 4225  10.090   1.124   8.627 -0.1441  1.0879  0.3986
  790MOL0     H 4226  10.108   1.218   8.482 -2.6814  2.2560 -2.4678
  790MOL0     H 4227   9.913   1.119   8.393 -0.6333 -0.0318  0.1546
  790MOL0     H 4228   9.844   1.085   8.554  0.1617  4.3161  1.2983
  790MOL0     H 4229  10.105   0.955   8.462 -0.2699 -0.2688  2.3454
  790MOL0     H 4230   9.992   0.892   8.577 -0.5640  0.8595  0.7839
  790MOL0     H 4231   9.991   0.774   8.343  0.5011  0.7817 -0.3354
  790MOL0     H 4232   9.920   0.921   8.281 -0.1555 -0.7094 -0.1556
  790MOL0     H 4233   9.679   1.007   8.363 -3.0757  1.7724  3.7996
  790MOL0     H 4234   9.419   0.974   8.396 -0.8239  0.3787 -0.3382
  790MOL0     H 4235   9.366   0.841   8.498  0.2342 -3.6464 -0.5694
  790MOL0     H 4236   9.362   0.683   8.301 -2.0015 -1.3535 -0.8617
  790MOL0     H 4237   9.404   0.836   8.201  0.4443 -2.1614 -0.7070
  790MOL0     H 4238   9.159   0.785   8.363 -1.5057  1.2892 -1.0035
  790MOL0     H 4239   9.186   0.927   8.261 -1.7801  0.8374 -1.2898
  790MOL0     H 4240   9.176   0.630   8.176  1.9884 -0.6840 -1.0668
  790MOL0     H 4241   9.229   0.761   8.069 -0.3703  1.4812  0.5317
  790MOL0     H 4242   9.140   0.538   7.992 -0.6475 -0.8378  0.6005
  790MOL0     H 4243   9.032   0.351   7.882 -2.6423 -1.3386 -1.1645
  790MOL0     H 4244   8.674   0.155   7.566 -0.6176  2.2899 -1.9190
  790MOL0     H 4245   8.552  -0.023   7.525 -1.8946  1.8438 -1.5589
  790MOL0     H 4246   8.225  -0.145   7.814  1.5534  2.0182  0.2994
  790MOL0     H 4247   8.216  -0.269   7.693 -2.5608  1.3374 -0.6342
  790MOL0     H 4248   8.136  -0.098   7.522  2.7032  0.9170 -0.8883
  790MOL0     H 4249   8.117   0.013   7.666 -1.7712 -0.2661  2.3517
  790MOL0     H 4250   7.980  -0.161   7.781  2.8188  2.2474  0.1773
  790MOL0     H 4251   7.971  -0.259   7.628  1.6666 -0.5527 -0.0689
  790MOL0     H 4252   7.873   0.027   7.649  2.5693 -0.7473  2.0611
  790MOL0     H 4253   7.869  -0.068   7.512 -2.0681 -2.6153  0.2934
  790MOL0     H 4254   7.701  -0.096   7.766  1.3145 -0.0176  0.5809
  790MOL0     H 4255   7.744  -0.253   7.688 -1.8384 -0.5706 -0.1823
  790MOL0     H 4256   7.651  -0.175   7.484  0.8758 -2.3791  1.3765
  790MOL0     H 4257   7.626  -0.023   7.558 -0.6136  0.2931 -2.7589
  790MOL0     H 4258   7.406  -0.152   7.544 -0.8485  0.8259  1.1418
  790MOL0     H 4259   7.483  -0.284   7.633  1.8214 -0.2312  0.1032
  790MOL0     H 4260   7.335  -0.093   7.749 -0.6747 -1.5328 -1.6923
  790MOL0     H 4261   7.487  -0.004   7.750  1.0108 -0.1898  2.5893
  790MOL0     H 4262   8.320   0.038   7.883  0.0497  1.4040 -0.0787
  790MOL0     H 4263   8.412   0.247   7.910 -2.7123 -2.0538 -0.5612
  790MOL0     H 4264   8.657   0.582   7.894 -0.9842  2.6637  4.7068
  790MOL0     H 4265   8.767   0.743   8.028 -0.3396  1.6290 -4.3786
  790MOL0     H 4266  10.196   1.833   8.624 -1.7369 -1.7878  0.9899
  790MOL0     H 4267  10.439   1.805   8.695  2.1837 -1.1333 -0.8208
  790MOL0     H 4268  10.831   1.591   8.925 -0.7282  1.8590 -0.4379
  790MOL0     H 4269  11.071   1.556   8.904 -0.9828 -0.0319  0.6418
  790MOL0     H 4270  11.279   1.562   8.860 -2.7221  0.8061  0.7506
  790MOL0     H 4271  11.261   1.733   8.839 -1.4094 -0.5508  0.1246
  790MOL0     H 4272  11.472   1.737   8.728  1.5976 -2.1613 -4.5312
  790MOL0     H 4273  11.472   1.676   8.876 -1.9482  1.3302  0.8848
  790MOL0     H 4274  11.453   1.473   8.634 -3.7623 -0.0462  1.2814
  790MOL0     H 4275  11.489   1.441   8.804 -1.1372  4.4030  3.9272
  790MOL0     H 4276  11.676   1.602   8.633  0.4051  4.0546  3.1525
  790MOL0     H 4277  11.687   1.575   8.802 -0.3983  2.4750 -0.9791
  790MOL0     H 4278  11.797   1.178   8.664  1.9904 -0.7740  0.5783
  790MOL0     H 4279  11.040   1.676   8.492 -0.5892  2.4869  1.0680
  790MOL0     H 4280  10.823   1.658   8.489  4.0652  0.0137 -2.2091
  791MOL0     O 4281   5.301   9.271   3.006 -0.4287 -0.0566  0.7937
  791MOL0     C 4282   5.291   9.380   3.059 -0.1783  0.4630 -0.0848
  791MOL0     O 4283   5.402   9.446   3.119  0.0849  0.3270  0.4590
  791MOL0     C 4284   5.533   9.405   3.111  0.9526  0.1873  0.0270
  791MOL0     C 4285   5.597   9.323   3.016  0.4667 -0.2760  0.2675
  791MOL0     C 4286   5.741   9.306   3.019 -0.6478 -0.1701  0.2530
  791MOL0     C 4287   5.822   9.368   3.106  0.1058  0.1912  0.2811
  791MOL0     O 4288   5.964   9.340   3.119  0.1518  0.0147  1.0589
  791MOL0     C 4289   6.002   9.213   3.080 -0.1550 -0.3577  0.2771
  791MOL0     C 4290   6.138   9.169   3.146 -0.7463  0.0336 -0.4718
  791MOL0     C 4291   6.277   9.201   3.082  0.3281 -0.0621  0.7640
  791MOL0     C 4292   6.390   9.181   3.177 -0.7447  0.1899  0.0388
  791MOL0     C 4293   6.522   9.225   3.109  0.6771 -0.8474  0.1108
  791MOL0     C 4294   6.649   9.145   3.138  0.4309  0.6912 -0.7706
  791MOL0     C 4295   6.697   9.156   3.282 -0.9276  0.6338  0.5581
  791MOL0     C 4296   6.730   9.016   3.344 -0.2460 -0.5184  0.0974
  791MOL0     N 4297   6.841   8.966   3.267 -0.9008  0.2797 -0.8320
  791MOL0     C 4298   6.974   9.005   3.278 -0.1485  1.0033  0.7775
  791MOL0     C 4299   7.032   8.950   3.173 -0.8102  0.2359  0.0699
  791MOL0     C 4300   7.176   8.957   3.131 -0.0280 -0.0116  0.0886
  791MOL0     C 4301   7.215   9.097   3.091 -0.5519 -0.0570 -1.2907
  791MOL0     C 4302   7.133   9.156   2.967  0.1286  0.5277 -0.3542
  791MOL0     C 4303   7.180   9.298   2.930  0.1364 -0.6108  0.3950
  791MOL0     O 4304   7.101   9.337   2.813  0.0208  1.1029  0.0829
  791MOL0     C 4305   6.976   9.388   2.817  0.1089 -0.3546 -0.6303
  791MOL0     C 4306   6.891   9.341   2.725  0.7785 -0.4477  0.0431
  791MOL0     C 4307   6.762   9.388   2.708 -0.0084 -0.2946 -0.6508
  791MOL0     C 4308   6.708   9.474   2.812 -0.6033  0.4869  0.2176
  791MOL0     C 4309   6.565   9.503   2.818  0.8098  0.4085  0.4013
  791MOL0     O 4310   6.534   9.640   2.829 -0.0385  0.6991  0.0531
  791MOL0     C 4311   6.406   9.683   2.812 -0.1251  0.5884  0.6532
  791MOL0     C 4312   6.300   9.613   2.875  0.4707  0.0470 -0.0215
  791MOL0     C 4313   6.170   9.642   2.849 -0.4058 -0.0585 -0.5114
  791MOL0     C 4314   6.138   9.749   2.771 -0.2105 -0.0805 -0.9430
  791MOL0     O 4315   6.010   9.783   2.746  0.3284  0.2266  0.1913
  791MOL0     C 4316   5.954   9.859   2.850  0.0066 -0.4060 -0.0346
  791MOL0     C 4317   5.845   9.943   2.796 -0.3052 -0.5046 -0.4726
  791MOL0     C 4318   5.764  10.012   2.909 -0.6655 -0.2350 -0.3728
  791MOL0     C 4319   5.820  10.153   2.949  0.5897  0.1675  0.0638
  791MOL0     C 4320   5.724  10.216   3.057 -0.0433  0.7327  0.5318
  791MOL0     C 4321   5.766  10.363   3.083  0.2347  0.4020  0.1887
  791MOL0     C 4322   5.671  10.414   3.185 -0.5385 -0.0565 -0.2114
  791MOL0     C 4323   5.685  10.563   3.209 -0.2472  0.4499  0.2270
  791MOL0    Cl 4324   5.863  10.599   3.231  0.1905  0.2287  0.2556
  791MOL0     C 4325   6.238   9.820   2.703 -1.1920 -0.3638  0.1747
  791MOL0     C 4326   6.380   9.784   2.719 -0.0222 -1.3389 -0.5767
  791MOL0     O 4327   6.485   9.421   2.786  0.0260  0.1490  0.1115
  791MOL0     C 4328   6.797   9.529   2.910  0.7489 -0.6845 -0.5319
  791MOL0     C 4329   6.928   9.479   2.911  0.0567 -0.7424 -0.8513
  791MOL0     N 4330   6.942   8.861   3.122 -0.2967  0.5398  0.2702
  791MOL0     N 4331   6.825   8.874   3.171 -0.1436  0.0602 -1.2412
  791MOL0     C 4332   5.765   9.458   3.194 -0.1207  0.2537  0.7513
  791MOL0     C 4333   5.619   9.476   3.200 -0.4795  0.1197 -0.9771
  791MOL0     C 4334   5.154   9.429   3.071  0.6390  0.9587  0.7447
  791MOL0     C 4335   5.122   9.534   3.162  0.5187 -0.4860  0.3479
  791MOL0     C 4336   4.991   9.585   3.173 -0.7631  0.2501 -0.6397
  791MOL0     C 4337   4.897   9.539   3.082 -0.0050 -0.0894  0.1236
  791MOL0     O 4338   4.776   9.594   3.086  0.9185 -0.1978 -0.3234
  791MOL0     C 4339   4.664   9.521   3.032  0.1754 -0.6774 -0.6502
  791MOL0     C 4340   4.633   9.391   3.114 -0.7463  0.0046  0.6960
  791MOL0     C 4341   4.536   9.295   3.045 -0.6648  0.0164  0.5363
  791MOL0     C 4342   4.590   9.205   2.935 -1.2270 -0.9560 -0.3878
  791MOL0     C 4343   4.616   9.279   2.814 -1.0370 -1.0752 -0.5557
  791MOL0     C 4344   4.645   9.346   2.714  0.0349 -0.3370  1.1525
  791MOL0     C 4345   4.928   9.438   2.983 -1.0300  1.5255 -0.3762
  791MOL0     C 4346   5.057   9.378   2.989 -0.0957 -0.7406  0.6564
  791MOL0     H 4347   5.531   9.273   2.946 -0.2331 -1.2136  1.5438
  791MOL0     H 4348   5.783   9.232   2.952 -1.7903 -0.5806 -0.0353
  791MOL0     H 4349   6.017   9.207   2.972  2.1353 -1.2971  0.5841
  791MOL0     H 4350   5.925   9.141   3.109 -0.4129 -1.1697 -2.1808
  791MOL0     H 4351   6.132   9.060   3.142  2.3012 -0.1963 -3.6895
  791MOL0     H 4352   6.134   9.199   3.251  0.5411  2.5083 -1.0591
  791MOL0     H 4353   6.274   9.309   3.061  2.0969 -0.3273 -1.2041
  791MOL0     H 4354   6.288   9.146   2.988 -0.3699 -1.6131  1.5536
  791MOL0     H 4355   6.362   9.244   3.262 -0.2772 -0.4276  0.6710
  791MOL0     H 4356   6.397   9.073   3.194  0.7500 -0.2161 -2.6189
  791MOL0     H 4357   6.542   9.330   3.132  2.8709 -1.1781 -0.0564
  791MOL0     H 4358   6.500   9.229   3.002  0.0538  1.0511  0.2747
  791MOL0     H 4359   6.723   9.187   3.070 -0.1597 -0.6914 -2.3341
  791MOL0     H 4360   6.634   9.040   3.113 -0.6382  0.9853 -1.4365
  791MOL0     H 4361   6.782   9.225   3.274 -0.1589 -0.4870 -2.0618
  791MOL0     H 4362   6.621   9.199   3.348 -0.0441 -0.5842  2.4612
  791MOL0     H 4363   6.649   8.943   3.333 -0.0261 -0.7159 -0.2385
  791MOL0     H 4364   6.753   9.025   3.450  1.7132  2.4412 -0.4350
  791MOL0     H 4365   7.018   9.069   3.354  2.8131 -2.0622  1.9131
  791MOL0     H 4366   7.185   8.897   3.040  0.2099 -0.2515  0.2705
  791MOL0     H 4367   7.246   8.920   3.206 -0.1186 -2.4889 -0.9718
  791MOL0     H 4368   7.323   9.116   3.085 -0.3100  4.5273  5.8163
  791MOL0     H 4369   7.187   9.152   3.181 -1.3639 -0.8309 -1.0604
  791MOL0     H 4370   7.161   9.090   2.885 -0.5558 -0.5821  0.2906
  791MOL0     H 4371   7.025   9.157   2.984  0.1662  4.4729  0.7594
  791MOL0     H 4372   7.286   9.302   2.904 -0.1042 -1.2847 -0.7705
  791MOL0     H 4373   7.166   9.360   3.019  1.2928  2.2507 -1.2796
  791MOL0     H 4374   6.928   9.261   2.662  0.5473 -0.2506 -0.3440
  791MOL0     H 4375   6.694   9.346   2.634  0.4699  0.3042 -1.4467
  791MOL0     H 4376   6.328   9.527   2.936  2.1768  0.7139  0.1941
  791MOL0     H 4377   6.084   9.604   2.903  1.8694  0.1555  3.7351
  791MOL0     H 4378   6.028   9.924   2.899 -0.4732 -0.5717  0.9240
  791MOL0     H 4379   5.897   9.802   2.923 -1.7488  3.8960  2.3503
  791MOL0     H 4380   5.784   9.879   2.731  1.2268 -0.0475 -2.4569
  791MOL0     H 4381   5.893  10.027   2.744 -0.6192  2.3292  3.4166
  791MOL0     H 4382   5.752   9.951   2.999 -2.3194  0.6209  0.0436
  791MOL0     H 4383   5.662  10.033   2.874 -0.6997  1.0391  0.4189
  791MOL0     H 4384   5.923  10.148   2.985  1.2510 -2.4492 -1.8501
  791MOL0     H 4385   5.815  10.218   2.861 -0.9081 -0.0355 -0.0305
  791MOL0     H 4386   5.722  10.149   3.144  0.2288 -0.0802 -0.0804
  791MOL0     H 4387   5.620  10.215   3.023 -0.2991  1.8690  1.2255
  791MOL0     H 4388   5.758  10.421   2.990  0.1968  0.1129  0.0081
  791MOL0     H 4389   5.868  10.353   3.122  0.3088 -1.4989 -0.3934
  791MOL0     H 4390   5.571  10.390   3.149  0.5875 -0.0800 -3.7416
  791MOL0     H 4391   5.677  10.378   3.288 -2.1347  2.7428  0.9861
  791MOL0     H 4392   5.646  10.605   3.302  3.3807  1.7719  1.3291
  791MOL0     H 4393   5.644  10.617   3.123  1.4529  1.4260 -0.0152
  791MOL0     H 4394   6.218   9.906   2.640  0.6837  0.0352  0.0531
  791MOL0     H 4395   6.448   9.851   2.667  0.5256 -0.3571  1.3243
  791MOL0     H 4396   6.767   9.608   2.978 -0.5040 -0.2080 -1.6139
  791MOL0     H 4397   6.993   9.515   2.991 -0.4716 -0.9182 -0.3358
  791MOL0     H 4398   5.825   9.521   3.258  1.2165 -0.9733  0.7612
  791MOL0     H 4399   5.578   9.553   3.264 -3.1055 -0.0589 -2.3323
  791MOL0     H 4400   5.205   9.567   3.223  2.1435 -0.2524 -1.8755
  791MOL0     H 4401   4.962   9.659   3.246 -2.1173 -0.8450 -0.0185
  791MOL0     H 4402   4.682   9.500   2.926  1.0817  1.2969 -0.9412
  791MOL0     H 4403   4.575   9.585   3.034  0.9820  0.4963 -1.3281
  791MOL0     H 4404   4.718   9.332   3.148 -0.7407 -0.6444 -0.3976
  791MOL0     H 4405   4.595   9.436   3.207  0.4687  0.4602  0.9819
  791MOL0     H 4406   4.437   9.334   3.017 -0.7411 -1.8794 -2.1974
  791MOL0     H 4407   4.506   9.221   3.120  0.5446 -0.4939  0.5283
  791MOL0     H 4408   4.683   9.173   2.982 -0.9846  2.1476  1.5067
  791MOL0     H 4409   4.519   9.123   2.921 -0.8323 -2.1440  3.4862
  791MOL0     H 4410   4.674   9.409   2.633 -0.5909 -1.3762  0.0928
  791MOL0     H 4411   4.864   9.405   2.902  1.2244  1.2439 -2.1423
  791MOL0     H 4412   5.089   9.305   2.915  0.0649 -1.5717  1.5258
  792MOL0     O 4413   5.343   6.018   2.815  0.3315 -1.1191  0.1306
  792MOL0     C 4414   5.294   6.100   2.737 -1.4298 -0.4395 -0.5043
  792MOL0     O 4415   5.164   6.142   2.737 -0.8362 -0.2670  0.1633
  792MOL0     C 4416   5.082   6.102   2.841  0.1144 -0.0587 -0.2989
  792MOL0     C 4417   5.041   5.976   2.868  0.2535  1.0194  0.8641
  792MOL0     C 4418   4.948   5.945   2.961  0.0726  0.2881 -0.0897
  792MOL0     C 4419   4.891   6.033   3.049  0.7271  0.2977 -0.3539
  792MOL0     O 4420   4.793   5.987   3.145 -0.6303 -0.1665  0.2174
  792MOL0     C 4421   4.819   6.050   3.272  0.0451 -0.5837  1.0590
  792MOL0     C 4422   4.757   5.974   3.381  0.5813  0.0676 -0.6892
  792MOL0     C 4423   4.608   5.998   3.372  0.1539 -0.8165 -0.7903
  792MOL0     C 4424   4.531   5.898   3.463  0.0749 -0.7803 -0.6219
  792MOL0     C 4425   4.378   5.909   3.430  0.2271  0.9744  0.0974
  792MOL0     C 4426   4.308   5.821   3.534 -0.0714 -0.7031  0.6546
  792MOL0     C 4427   4.295   5.888   3.676  0.5497 -0.5271  0.9895
  792MOL0     C 4428   4.202   5.791   3.758  0.4126  0.3012 -0.2868
  792MOL0     N 4429   4.061   5.823   3.727 -0.3614  0.6158  0.0584
  792MOL0     C 4430   4.002   5.921   3.657 -0.4542  0.4771 -0.5956
  792MOL0     C 4431   3.872   5.892   3.673  1.1195 -0.2870 -0.5855
  792MOL0     C 4432   3.760   5.983   3.624  0.1612  0.3257 -0.2846
  792MOL0     C 4433   3.646   6.019   3.725  0.2614  0.8126  0.4121
  792MOL0     C 4434   3.570   5.890   3.772 -0.2635 -0.1899  0.0727
  792MOL0     C 4435   3.419   5.919   3.799  0.7989  0.7324  0.1976
  792MOL0     O 4436   3.364   5.797   3.845  0.3474 -0.1100  0.4928
  792MOL0     C 4437   3.239   5.797   3.906 -0.6273 -0.9253  0.6610
  792MOL0     C 4438   3.178   5.669   3.931  0.3541 -0.4606 -0.7796
  792MOL0     C 4439   3.040   5.658   3.968 -0.7158  0.0498 -0.7387
  792MOL0     C 4440   2.965   5.779   3.980  0.2689 -0.4142 -0.4791
  792MOL0     C 4441   2.814   5.777   4.011  0.2221 -0.8463  0.3193
  792MOL0     O 4442   2.749   5.663   4.032  0.3202  0.7249  0.6638
  792MOL0     C 4443   2.614   5.658   4.059 -0.2161 -1.0421 -0.1083
  792MOL0     C 4444   2.556   5.714   4.172 -0.1450 -0.4554 -0.1907
  792MOL0     C 4445   2.421   5.692   4.199 -0.3697  0.2002 -0.0496
  792MOL0     C 4446   2.340   5.616   4.112  0.2051  0.4270 -0.6285
  792MOL0     O 4447   2.208   5.584   4.134 -0.6755  0.3595  0.2291
  792MOL0     C 4448   2.137   5.626   4.257  0.9763 -0.1619 -0.3606
  792MOL0     C 4449   1.995   5.580   4.244  0.4342 -0.0687  0.2601
  792MOL0     C 4450   1.928   5.625   4.375 -0.5360  0.0819  0.8130
  792MOL0     C 4451   1.783   5.574   4.366  0.1248 -0.0732 -0.4335
  792MOL0     C 4452   1.718   5.617   4.505 -0.1460 -0.1734 -0.5012
  792MOL0     C 4453   1.771   5.557   4.635 -0.4386  0.6511  0.9812
  792MOL0     C 4454   1.777   5.643   4.764 -0.4762 -0.5025  0.2653
  792MOL0     C 4455   1.918   5.668   4.819  0.1988 -0.3223 -0.3711
  792MOL0    Cl 4456   1.884   5.748   4.976 -0.1034 -0.4782 -0.9206
  792MOL0     C 4457   2.403   5.558   4.003 -0.8483  0.3128  0.3110
  792MOL0     C 4458   2.539   5.583   3.970  0.6083 -0.0809  0.3894
  792MOL0     O 4459   2.757   5.886   3.991 -0.1698  0.1236 -1.0602
  792MOL0     C 4460   3.028   5.904   3.968  0.0687 -0.3070 -0.2812
  792MOL0     C 4461   3.164   5.913   3.940  0.4583 -0.6310  0.5230
  792MOL0     N 4462   3.850   5.769   3.722 -0.7191 -0.0440 -0.7255
  792MOL0     N 4463   3.963   5.732   3.768 -0.5393 -0.1163  0.3639
  792MOL0     C 4464   4.935   6.171   3.022  0.1467  1.1842  1.0918
  792MOL0     C 4465   5.025   6.203   2.919  0.7136  0.6637  0.3392
  792MOL0     C 4466   5.387   6.166   2.636  0.3377 -0.1913 -0.0660
  792MOL0     C 4467   5.516   6.127   2.621 -1.0368  0.0428  0.1695
  792MOL0     C 4468   5.590   6.207   2.526 -1.0514  0.4075 -0.1731
  792MOL0     C 4469   5.539   6.315   2.455  1.1959  0.9192 -0.0414
  792MOL0     O 4470   5.632   6.390   2.385 -0.4438  0.2103 -0.2201
  792MOL0     C 4471   5.583   6.458   2.275  0.3140  0.0362  0.6102
  792MOL0     C 4472   5.593   6.603   2.294 -0.9225 -0.0951  0.0126
  792MOL0     C 4473   5.555   6.688   2.170  0.2945 -0.9497 -0.2796
  792MOL0     C 4474   5.411   6.688   2.141  0.1467  0.0879  0.5578
  792MOL0     C 4475   5.377   6.809   2.065 -0.3631 -0.5633 -0.4842
  792MOL0     C 4476   5.371   6.919   2.000  0.1496  0.1116 -0.7227
  792MOL0     C 4477   5.404   6.357   2.484 -0.4396 -0.0708  0.9573
  792MOL0     C 4478   5.335   6.284   2.570  0.0126  0.2955 -0.0791
  792MOL0     H 4479   5.089   5.898   2.809  1.7400  3.5006 -1.4092
  792MOL0     H 4480   4.936   5.837   2.971  0.1934 -0.0243 -2.6627
  792MOL0     H 4481   4.783   6.152   3.285  2.0685  0.2752  0.3034
  792MOL0     H 4482   4.928   6.055   3.279  0.5057  1.7509 -3.8584
  792MOL0     H 4483   4.799   6.012   3.475 -0.8812  1.1543 -0.4396
  792MOL0     H 4484   4.783   5.868   3.372 -4.3299 -1.6257  1.2244
  792MOL0     H 4485   4.578   5.993   3.267 -0.2772  1.2257 -0.7957
  792MOL0     H 4486   4.589   6.100   3.406  0.2174 -0.3539 -2.0811
  792MOL0     H 4487   4.581   5.800   3.454 -1.5984 -1.6750 -0.5019
  792MOL0     H 4488   4.543   5.909   3.571  2.8353 -5.1000 -0.2178
  792MOL0     H 4489   4.352   5.876   3.329  0.5213  4.1345 -1.1162
  792MOL0     H 4490   4.333   6.008   3.436 -0.2621  1.1328 -3.8065
  792MOL0     H 4491   4.357   5.725   3.552 -0.4621 -0.8603  0.9018
  792MOL0     H 4492   4.208   5.797   3.496 -1.9572  3.4648  2.2841
  792MOL0     H 4493   4.394   5.898   3.722 -0.0938  0.2332  2.2807
  792MOL0     H 4494   4.260   5.991   3.668  0.6545 -0.5293  0.5157
  792MOL0     H 4495   4.232   5.805   3.862  0.5527 -0.9077 -0.1484
  792MOL0     H 4496   4.224   5.689   3.725 -2.4266 -0.1919 -0.8887
  792MOL0     H 4497   4.050   6.008   3.613  0.4870 -0.2863 -1.1029
  792MOL0     H 4498   3.723   5.946   3.527  1.8555 -1.7521 -0.2025
  792MOL0     H 4499   3.819   6.074   3.607  1.2055 -0.0157  1.3127
  792MOL0     H 4500   3.580   6.087   3.671  1.6985 -0.1950 -2.8572
  792MOL0     H 4501   3.682   6.064   3.818  2.3941  0.8792 -0.3989
  792MOL0     H 4502   3.575   5.812   3.695 -0.6374  1.3193 -1.5516
  792MOL0     H 4503   3.618   5.842   3.857 -0.0025 -1.9688 -1.0367
  792MOL0     H 4504   3.374   5.953   3.705  1.8629 -1.1631 -1.0671
  792MOL0     H 4505   3.422   6.001   3.871  0.0241 -0.3625  1.5297
  792MOL0     H 4506   3.242   5.582   3.921  2.6416  1.0930 -0.4089
  792MOL0     H 4507   2.992   5.561   3.962  1.4042 -1.2055  1.1260
  792MOL0     H 4508   2.619   5.772   4.240 -2.0813 -0.4414  1.6924
  792MOL0     H 4509   2.382   5.756   4.278  0.1192  1.7724 -1.0282
  792MOL0     H 4510   2.141   5.734   4.274 -0.2930 -0.1749  0.1724
  792MOL0     H 4511   2.180   5.575   4.344 -1.0028  0.5770  1.1321
  792MOL0     H 4512   2.002   5.471   4.248  1.0312 -0.0790 -0.7073
  792MOL0     H 4513   1.953   5.621   4.152 -0.0738  0.2575  0.6330
  792MOL0     H 4514   1.947   5.731   4.396  2.7693 -0.2032 -0.0892
  792MOL0     H 4515   1.983   5.574   4.455  1.9110  0.7638 -0.3255
  792MOL0     H 4516   1.736   5.620   4.279 -1.2463  1.9043  1.2479
  792MOL0     H 4517   1.787   5.466   4.352  1.7980 -0.5104  2.4438
  792MOL0     H 4518   1.611   5.604   4.488 -0.0906  0.7051 -1.6404
  792MOL0     H 4519   1.732   5.725   4.515 -2.1908  0.2380 -1.4631
  792MOL0     H 4520   1.872   5.517   4.618 -1.8394 -1.8831 -2.3252
  792MOL0     H 4521   1.714   5.467   4.657 -3.5706  1.3583 -2.9519
  792MOL0     H 4522   1.729   5.740   4.747  2.1134  1.1292  1.6217
  792MOL0     H 4523   1.734   5.593   4.851  2.0115  1.0532  2.5381
  792MOL0     H 4524   1.979   5.733   4.756  1.3575  0.2394  1.2702
  792MOL0     H 4525   1.968   5.573   4.834 -0.0374 -0.7017 -1.8097
  792MOL0     H 4526   2.334   5.498   3.945  0.1981 -2.3166  1.6454
  792MOL0     H 4527   2.592   5.548   3.882  0.0834  0.8007 -0.2885
  792MOL0     H 4528   2.973   5.996   3.982 -0.8289 -1.2272  3.3011
  792MOL0     H 4529   3.208   6.011   3.932 -2.8974  1.1047  1.2563
  792MOL0     H 4530   4.894   6.255   3.077 -0.0791  3.9062 -2.8291
  792MOL0     H 4531   5.057   6.304   2.896  3.6932 -0.7041 -2.2884
  792MOL0     H 4532   5.558   6.035   2.661 -2.6404 -1.3519 -1.2295
  792MOL0     H 4533   5.694   6.179   2.510 -0.7749  1.1401  0.3126
  792MOL0     H 4534   5.480   6.431   2.248  0.9678 -1.3257 -0.7269
  792MOL0     H 4535   5.647   6.438   2.188 -2.1625  1.1692 -1.5918
  792MOL0     H 4536   5.537   6.616   2.387 -0.1782 -1.1573  0.6213
  792MOL0     H 4537   5.698   6.623   2.319 -1.5794 -0.0873  3.1701
  792MOL0     H 4538   5.618   6.670   2.082  1.5861  0.6905  0.2758
  792MOL0     H 4539   5.576   6.788   2.209 -0.3385  0.3738 -3.1189
  792MOL0     H 4540   5.401   6.610   2.065 -1.4684  2.0783 -1.3921
  792MOL0     H 4541   5.351   6.693   2.233 -0.3903 -1.2729  0.3025
  792MOL0     H 4542   5.360   7.014   1.952  0.5191  2.1338  2.8611
  792MOL0     H 4543   5.358   6.434   2.424  0.3632 -0.0280  0.3737
  792MOL0     H 4544   5.236   6.324   2.590  0.3644  1.0784  0.1583
  793MOL0     O 4545   2.536   3.126   8.412  0.2764 -0.6198 -0.0479
  793MOL0     C 4546   2.572   3.237   8.447 -0.2097 -0.4390 -0.3875
  793MOL0     O 4547   2.495   3.326   8.532 -0.2980  0.1383  0.8773
  793MOL0     C 4548   2.362   3.280   8.548  0.8799 -0.0035  0.2785
  793MOL0     C 4549   2.250   3.355   8.491 -0.6317  0.1287 -0.1574
  793MOL0     C 4550   2.122   3.321   8.507  0.1236 -0.5463  0.0695
  793MOL0     C 4551   2.098   3.196   8.564 -0.0038 -0.5685  0.2548
  793MOL0     O 4552   1.968   3.149   8.588 -0.6776 -0.9223  0.0159
  793MOL0     C 4553   1.897   3.248   8.664  0.6697 -0.6046 -0.3780
  793MOL0     C 4554   1.758   3.184   8.700 -0.3618 -0.2844 -0.0095
  793MOL0     C 4555   1.775   3.089   8.822  1.1252  0.9878  0.1682
  793MOL0     C 4556   1.648   3.003   8.858 -0.5877  0.1445 -0.6047
  793MOL0     C 4557   1.689   2.899   8.971 -0.0110 -0.0407  0.5207
  793MOL0     C 4558   1.566   2.831   9.025 -0.4745 -0.5552 -0.3269
  793MOL0     C 4559   1.596   2.726   9.126  0.0366  0.0647 -0.6288
  793MOL0     C 4560   1.473   2.678   9.214  1.2472 -0.2206 -0.1108
  793MOL0     N 4561   1.372   2.600   9.138  0.4243 -0.0007  0.4113
  793MOL0     C 4562   1.392   2.475   9.084 -0.9467 -0.0646  0.7070
  793MOL0     C 4563   1.275   2.439   9.023  0.2813  0.3090 -0.6635
  793MOL0     C 4564   1.240   2.307   8.946 -0.0763 -0.4770 -0.1433
  793MOL0     C 4565   1.159   2.211   9.042  0.1155 -0.5412  0.0698
  793MOL0     C 4566   1.029   2.274   9.106  0.7749 -0.2724  0.3307
  793MOL0     C 4567   0.924   2.320   9.003  0.7700 -0.9102  0.2273
  793MOL0     O 4568   0.799   2.342   9.088 -0.1125  0.4761  0.0547
  793MOL0     C 4569   0.686   2.347   9.021 -0.1655  0.4009  0.2016
  793MOL0     C 4570   0.570   2.339   9.091  0.0271  0.3388  0.7131
  793MOL0     C 4571   0.438   2.358   9.038  0.4249 -0.6256  0.1166
  793MOL0     C 4572   0.427   2.398   8.904 -0.0956  0.5099 -1.0181
  793MOL0     C 4573   0.290   2.413   8.854 -0.0634  0.2802  0.3117
  793MOL0     O 4574   0.193   2.444   8.941 -0.2197  0.5039  0.9738
  793MOL0     C 4575   0.076   2.462   8.878  0.4723  0.5475  1.3453
  793MOL0     C 4576   0.043   2.593   8.846  0.0290 -0.0708 -0.3021
  793MOL0     C 4577  -0.067   2.630   8.765 -0.6661  0.1714  0.7197
  793MOL0     C 4578  -0.152   2.531   8.718  0.1005  0.1334 -0.7790
  793MOL0     O 4579  -0.251   2.572   8.631 -0.4919  0.1882  0.3096
  793MOL0     C 4580  -0.369   2.631   8.693  0.3840  1.0677 -0.4747
  793MOL0     C 4581  -0.435   2.541   8.791 -0.0997 -0.5656  0.2634
  793MOL0     C 4582  -0.577   2.572   8.806 -0.0000 -0.3171  0.4618
  793MOL0     C 4583  -0.634   2.465   8.896  0.1466  0.3153 -0.3204
  793MOL0     C 4584  -0.776   2.503   8.944  0.6826 -0.2166 -0.0532
  793MOL0     C 4585  -0.875   2.546   8.837 -0.5272 -0.1751  0.3725
  793MOL0     C 4586  -1.008   2.580   8.907 -0.9565 -0.2032  0.6301
  793MOL0     C 4587  -1.127   2.562   8.813  0.5229 -0.3167  0.1227
  793MOL0    Cl 4588  -1.278   2.568   8.907 -0.0982  0.3716 -0.4324
  793MOL0     C 4589  -0.130   2.406   8.753  0.6730 -0.3738  0.3521
  793MOL0     C 4590  -0.014   2.365   8.827 -0.4818  0.1510 -0.5597
  793MOL0     O 4591   0.279   2.397   8.728  0.2034 -0.7796  0.7494
  793MOL0     C 4592   0.548   2.420   8.837  0.1300  0.8844  0.1941
  793MOL0     C 4593   0.678   2.397   8.891  0.2809  0.0167  0.1709
  793MOL0     N 4594   1.192   2.550   9.033  0.1307  0.1451 -0.5494
  793MOL0     N 4595   1.246   2.645   9.101  0.2123 -1.2204  0.0110
  793MOL0     C 4596   2.198   3.119   8.614  0.3510  0.0301 -0.7551
  793MOL0     C 4597   2.330   3.157   8.610 -0.4964  0.0777 -0.5173
  793MOL0     C 4598   2.703   3.278   8.391  0.8922  0.6125 -0.9676
  793MOL0     C 4599   2.807   3.183   8.361 -1.0855 -0.2777  0.6053
  793MOL0     C 4600   2.934   3.221   8.316  0.3983  0.0603  0.1875
  793MOL0     C 4601   2.959   3.356   8.290 -0.3174  0.1173 -0.7440
  793MOL0     O 4602   3.086   3.388   8.246 -0.1190  0.0213  0.6664
  793MOL0     C 4603   3.112   3.517   8.185 -0.1242  0.8974 -0.2900
  793MOL0     C 4604   3.234   3.484   8.100  0.4955  0.1055 -0.4962
  793MOL0     C 4605   3.294   3.602   8.022  0.2754 -0.2700  0.1874
  793MOL0     C 4606   3.440   3.568   7.984 -0.1554  0.3748  0.5800
  793MOL0     C 4607   3.466   3.639   7.856  0.1334 -0.6831  0.1258
  793MOL0     C 4608   3.505   3.698   7.759  0.3912 -0.4192 -0.1480
  793MOL0     C 4609   2.858   3.449   8.319  0.2931 -0.4011  0.3808
  793MOL0     C 4610   2.735   3.408   8.374  0.1889  0.7841 -0.2789
  793MOL0     H 4611   2.265   3.453   8.446 -1.5020 -0.2784 -1.3963
  793MOL0     H 4612   2.048   3.387   8.464  0.8875  0.5077  0.3305
  793MOL0     H 4613   1.886   3.337   8.603 -0.0174  0.1171  0.7693
  793MOL0     H 4614   1.961   3.276   8.748  0.5849  1.2912 -0.8984
  793MOL0     H 4615   1.719   3.119   8.621  0.6905 -1.2217  0.2250
  793MOL0     H 4616   1.687   3.262   8.731 -1.6126 -1.2739 -0.2990
  793MOL0     H 4617   1.808   3.147   8.908 -0.7708  1.1043  0.8508
  793MOL0     H 4618   1.854   3.017   8.799 -0.0054 -0.4202  0.5502
  793MOL0     H 4619   1.572   3.072   8.895 -0.2465  1.1802 -1.7913
  793MOL0     H 4620   1.609   2.948   8.772  1.7073 -1.3049 -0.8249
  793MOL0     H 4621   1.735   2.942   9.062 -0.1922 -2.4140  1.8150
  793MOL0     H 4622   1.759   2.832   8.920 -1.7002  0.5204 -2.8040
  793MOL0     H 4623   1.511   2.793   8.938  0.2107 -0.3619 -0.8529
  793MOL0     H 4624   1.511   2.912   9.074 -1.3601 -1.0335 -0.5012
  793MOL0     H 4625   1.624   2.629   9.085  0.5823  0.1083 -0.3715
  793MOL0     H 4626   1.664   2.766   9.202  0.3497 -0.8775 -0.4016
  793MOL0     H 4627   1.428   2.768   9.257  2.5251  0.3379  0.1126
  793MOL0     H 4628   1.495   2.622   9.305  1.6802  1.2500  0.7245
  793MOL0     H 4629   1.485   2.420   9.096 -1.2456 -0.8460 -0.3861
  793MOL0     H 4630   1.326   2.251   8.907  1.5169 -0.1524  2.6161
  793MOL0     H 4631   1.186   2.346   8.859  0.7711  0.0340 -0.4585
  793MOL0     H 4632   1.225   2.180   9.124  4.3576  4.6868 -0.7580
  793MOL0     H 4633   1.140   2.125   8.976 -0.1560 -0.3342 -0.1221
  793MOL0     H 4634   0.981   2.197   9.168 -2.2214  2.4902  1.7487
  793MOL0     H 4635   1.047   2.363   9.168 -0.8962  0.1790  0.2266
  793MOL0     H 4636   0.908   2.255   8.917 -1.0077  1.5993 -1.4687
  793MOL0     H 4637   0.962   2.406   8.948  0.1910 -1.4392 -1.0276
  793MOL0     H 4638   0.584   2.299   9.191  0.1628 -1.5466 -0.0072
  793MOL0     H 4639   0.351   2.345   9.103  0.4664  2.8421  1.0771
  793MOL0     H 4640   0.111   2.670   8.880  0.0755 -0.7926  1.3295
  793MOL0     H 4641  -0.087   2.731   8.731 -1.7069 -0.2111  0.1416
  793MOL0     H 4642  -0.430   2.659   8.607  1.4657 -1.9119 -2.3942
  793MOL0     H 4643  -0.350   2.727   8.741  0.4580  0.7707  0.1019
  793MOL0     H 4644  -0.383   2.557   8.886  2.7662  1.7478 -1.5079
  793MOL0     H 4645  -0.418   2.434   8.775 -1.0184 -0.9764  1.8029
  793MOL0     H 4646  -0.622   2.575   8.706 -0.6877 -1.4095  0.7188
  793MOL0     H 4647  -0.605   2.666   8.855 -1.3805  0.0405 -0.9406
  793MOL0     H 4648  -0.635   2.376   8.832  1.4370  1.0213 -1.3840
  793MOL0     H 4649  -0.563   2.440   8.976 -1.0848  0.3537  0.8035
  793MOL0     H 4650  -0.772   2.577   9.025  0.7858 -1.3463  1.0102
  793MOL0     H 4651  -0.828   2.422   8.997  0.5537 -0.0042  0.1516
  793MOL0     H 4652  -0.893   2.466   8.765  0.3500  2.7854 -3.4899
  793MOL0     H 4653  -0.835   2.631   8.781 -2.3857 -0.5617 -1.6746
  793MOL0     H 4654  -1.025   2.512   8.991 -0.9200 -0.4633  0.4301
  793MOL0     H 4655  -0.994   2.681   8.947  1.4184 -0.3945  0.4554
  793MOL0     H 4656  -1.120   2.464   8.766 -1.0262 -0.5853  0.3779
  793MOL0     H 4657  -1.140   2.645   8.743 -1.4939  1.5769  2.5011
  793MOL0     H 4658  -0.187   2.336   8.692 -0.9115 -0.8343  2.2427
  793MOL0     H 4659   0.017   2.262   8.838  0.8186  0.1021 -3.5814
  793MOL0     H 4660   0.536   2.476   8.745  0.9369  1.2673  0.3118
  793MOL0     H 4661   0.770   2.408   8.835  2.0509  0.7176  2.9838
  793MOL0     H 4662   2.183   3.018   8.653  3.6041 -0.1653  0.3786
  793MOL0     H 4663   2.410   3.092   8.645 -1.8905 -0.8404  1.1099
  793MOL0     H 4664   2.786   3.079   8.382 -0.5090 -0.3463  0.8450
  793MOL0     H 4665   3.013   3.149   8.303  3.0698  2.3598  2.4379
  793MOL0     H 4666   3.135   3.591   8.263  1.4205  1.9278 -1.6504
  793MOL0     H 4667   3.033   3.552   8.119  1.1027 -0.2097 -2.4713
  793MOL0     H 4668   3.301   3.432   8.169 -1.5809 -2.5603 -0.3175
  793MOL0     H 4669   3.212   3.411   8.021 -1.3042  0.1822 -0.1189
  793MOL0     H 4670   3.295   3.699   8.073 -1.4012 -0.0758 -0.0774
  793MOL0     H 4671   3.228   3.611   7.935 -2.0986 -0.0120  1.9178
  793MOL0     H 4672   3.517   3.583   8.060  0.5895  1.5334 -0.3657
  793MOL0     H 4673   3.451   3.461   7.963  2.5034  0.6778 -0.0010
  793MOL0     H 4674   3.545   3.736   7.667 -1.2066 -0.3552 -0.8455
  793MOL0     H 4675   2.882   3.555   8.306  1.8262 -0.6295  1.0628
  793MOL0     H 4676   2.665   3.482   8.410  0.3844  1.4413 -1.2370
  794MOL0     O 4677  10.498   7.312   3.792  0.0539  0.8504 -0.7102
  794MOL0     C 4678  10.517   7.200   3.750 -0.4690  0.4989 -0.1586
  794MOL0     O 4679  10.429   7.100   3.743 -0.0362 -0.6768  0.8953
  794MOL0     C 4680  10.304   7.124   3.699 -0.3013 -0.2955 -0.7543
  794MOL0     C 4681  10.213   7.207   3.770  0.6718  0.7820  0.8538
  794MOL0     C 4682  10.083   7.219   3.720 -0.2028 -0.4865  0.5285
  794MOL0     C 4683  10.052   7.156   3.600 -0.2467  0.2200  0.1466
  794MOL0     O 4684   9.926   7.171   3.549 -0.3923 -0.0537  0.5486
  794MOL0     C 4685   9.895   7.081   3.439 -0.4564  0.0364  0.2655
  794MOL0     C 4686   9.748   7.100   3.386 -0.2534 -0.1255  0.4663
  794MOL0     C 4687   9.645   7.086   3.501 -0.2488 -0.5102  0.1135
  794MOL0     C 4688   9.501   7.070   3.444  0.2593 -0.2757 -0.9142
  794MOL0     C 4689   9.399   7.071   3.554 -0.4767  0.0411 -0.7169
  794MOL0     C 4690   9.260   7.086   3.486 -0.1083  0.3681 -0.8817
  794MOL0     C 4691   9.153   7.065   3.594  0.5474  0.3023 -0.4305
  794MOL0     C 4692   9.013   7.043   3.522  0.1345 -0.0324  0.1460
  794MOL0     N 4693   9.002   6.931   3.425 -0.1343 -0.1014  0.2500
  794MOL0     C 4694   8.968   6.959   3.289 -1.1001 -0.6546 -0.0571
  794MOL0     C 4695   8.913   6.846   3.245  0.4065 -0.7090  0.9074
  794MOL0     C 4696   8.871   6.805   3.107 -0.1928  0.9074  0.1850
  794MOL0     C 4697   8.942   6.878   2.982  0.1826  0.9320 -0.0682
  794MOL0     C 4698   8.859   6.854   2.850 -0.8567 -0.5696  0.6654
  794MOL0     C 4699   8.878   6.712   2.806 -0.0603  0.3697  0.0185
  794MOL0     O 4700   8.824   6.684   2.687 -0.1962  0.6027  0.4844
  794MOL0     C 4701   8.695   6.629   2.675  0.4831  0.1537 -0.2652
  794MOL0     C 4702   8.644   6.606   2.547 -1.6669 -0.2504 -0.5446
  794MOL0     C 4703   8.521   6.555   2.517 -0.1265 -0.3663 -0.1770
  794MOL0     C 4704   8.444   6.495   2.619 -0.1172 -0.0488 -0.3862
  794MOL0     C 4705   8.324   6.422   2.585 -0.4998  0.7680 -0.2077
  794MOL0     O 4706   8.308   6.409   2.451 -0.2879  0.5550  0.0008
  794MOL0     C 4707   8.186   6.350   2.418  0.1279 -0.2705  0.5007
  794MOL0     C 4708   8.064   6.421   2.425 -0.3929  0.0101 -0.5082
  794MOL0     C 4709   7.942   6.368   2.375  0.1702  0.5243 -0.0433
  794MOL0     C 4710   7.934   6.239   2.329  0.2026  0.5298 -0.3108
  794MOL0     O 4711   7.816   6.178   2.281  0.7158 -0.5955  0.6299
  794MOL0     C 4712   7.688   6.239   2.310  0.4810 -0.2995 -0.0383
  794MOL0     C 4713   7.571   6.146   2.311  0.9356 -0.4246  0.3797
  794MOL0     C 4714   7.436   6.225   2.290  0.8253  0.8698 -1.0887
  794MOL0     C 4715   7.311   6.131   2.292  0.2978 -0.2951  0.0882
  794MOL0     C 4716   7.174   6.204   2.325 -1.3657 -0.0177  0.2185
  794MOL0     C 4717   7.057   6.111   2.352 -0.4961  0.8227 -0.3875
  794MOL0     C 4718   6.917   6.179   2.373 -0.0426  0.5097 -0.0822
  794MOL0     C 4719   6.800   6.081   2.398  0.5128  0.3055 -1.3748
  794MOL0    Cl 4720   6.658   6.164   2.468  0.0232 -0.5135 -0.2488
  794MOL0     C 4721   8.048   6.161   2.321  0.1193 -0.6672 -0.6487
  794MOL0     C 4722   8.172   6.222   2.366 -0.3086  0.1087  0.3324
  794MOL0     O 4723   8.246   6.390   2.672 -0.4844 -0.2455  0.1223
  794MOL0     C 4724   8.486   6.520   2.757  0.1980  0.0967  0.4470
  794MOL0     C 4725   8.606   6.595   2.782  0.0606  0.3538 -0.1251
  794MOL0     N 4726   8.910   6.751   3.346 -1.0464  0.2309 -0.5652
  794MOL0     N 4727   8.960   6.805   3.453 -1.1439  0.6262 -0.6099
  794MOL0     C 4728  10.147   7.061   3.539  0.5596  0.4685  0.0621
  794MOL0     C 4729  10.274   7.054   3.589 -0.0304 -0.1566 -0.7602
  794MOL0     C 4730  10.656   7.157   3.746 -0.3659  0.4304 -0.4293
  794MOL0     C 4731  10.692   7.027   3.706  1.2653  0.3642 -0.3963
  794MOL0     C 4732  10.821   6.989   3.684 -0.0519 -1.2648 -0.7434
  794MOL0     C 4733  10.925   7.086   3.685 -0.5470 -0.0698 -1.0321
  794MOL0     O 4734  11.048   7.036   3.648 -0.6350 -0.6252 -0.0803
  794MOL0     C 4735  11.163   7.126   3.646  0.0078 -0.2352  0.8833
  794MOL0     C 4736  11.289   7.048   3.661 -0.1292 -0.4815  0.7427
  794MOL0     C 4737  11.420   7.137   3.649 -0.1979  0.4523 -0.6356
  794MOL0     C 4738  11.541   7.038   3.647  0.3110  0.0068 -0.5584
  794MOL0     C 4739  11.582   7.003   3.783  0.1764 -0.4137  0.8998
  794MOL0     C 4740  11.625   6.984   3.893 -0.1083 -1.0636 -0.2842
  794MOL0     C 4741  10.898   7.220   3.725 -0.5846  0.4499 -0.2112
  794MOL0     C 4742  10.763   7.251   3.753  0.7925 -0.2297 -0.1201
  794MOL0     H 4743  10.231   7.253   3.867 -1.3307  2.3681  0.5484
  794MOL0     H 4744  10.014   7.285   3.772 -0.1572  1.8155 -2.0745
  794MOL0     H 4745   9.896   6.976   3.467  0.6940 -0.2998 -0.9255
  794MOL0     H 4746   9.953   7.100   3.348 -1.4753 -0.4678 -0.5134
  794MOL0     H 4747   9.729   7.035   3.301 -1.8244  2.6219 -1.4069
  794MOL0     H 4748   9.741   7.197   3.337  1.5104 -0.6160 -0.8374
  794MOL0     H 4749   9.645   7.186   3.545  0.8208 -0.1908 -0.5608
  794MOL0     H 4750   9.660   7.004   3.572 -1.4466 -0.6802  0.1772
  794MOL0     H 4751   9.480   7.151   3.374  2.3249  2.2969  1.2100
  794MOL0     H 4752   9.502   6.981   3.381  3.0909 -1.0220  0.0631
  794MOL0     H 4753   9.408   7.157   3.621  1.3656 -1.1471  0.6394
  794MOL0     H 4754   9.405   6.975   3.606 -2.7031 -1.1368 -2.4659
  794MOL0     H 4755   9.253   7.005   3.412 -0.5629  0.9240 -1.4518
  794MOL0     H 4756   9.240   7.189   3.457 -1.4228  0.8382  1.5042
  794MOL0     H 4757   9.171   6.979   3.659 -1.0191  0.0289 -0.3202
  794MOL0     H 4758   9.137   7.150   3.660  0.7924  0.4378 -0.5437
  794MOL0     H 4759   8.992   7.132   3.462 -0.2930  0.8465  1.5698
  794MOL0     H 4760   8.933   7.023   3.593 -2.2265  2.9325 -1.4305
  794MOL0     H 4761   8.982   7.050   3.231 -0.9434 -0.0229  0.9531
  794MOL0     H 4762   8.765   6.826   3.094 -0.6260 -1.3525 -0.2163
  794MOL0     H 4763   8.885   6.697   3.097 -0.3999  0.8233  0.7925
  794MOL0     H 4764   9.047   6.849   2.976  0.1519  0.6128  0.8126
  794MOL0     H 4765   8.949   6.985   3.004 -0.1277  1.1039 -0.7894
  794MOL0     H 4766   8.755   6.886   2.863 -1.3448 -1.1260 -1.4258
  794MOL0     H 4767   8.905   6.920   2.776 -0.6088 -0.2485  1.1029
  794MOL0     H 4768   8.858   6.637   2.884  0.0009 -0.2995 -0.5951
  794MOL0     H 4769   8.984   6.696   2.784  0.5659  2.9772  0.8341
  794MOL0     H 4770   8.717   6.639   2.474  0.9399 -0.7401  1.6886
  794MOL0     H 4771   8.501   6.539   2.411 -0.8886  1.2676 -0.3188
  794MOL0     H 4772   8.076   6.526   2.448  1.8134 -0.3164  0.0705
  794MOL0     H 4773   7.856   6.434   2.367  1.2226  2.0724  0.7717
  794MOL0     H 4774   7.680   6.323   2.240  1.6288  0.3585  0.5737
  794MOL0     H 4775   7.693   6.293   2.406  1.6531  1.6425 -1.1233
  794MOL0     H 4776   7.573   6.089   2.404  1.9256  0.1551  0.7260
  794MOL0     H 4777   7.565   6.071   2.232 -1.7784 -1.5088  1.4898
  794MOL0     H 4778   7.440   6.285   2.198  0.6354 -0.7758 -2.2264
  794MOL0     H 4779   7.446   6.293   2.375  3.0462 -1.3202  0.5339
  794MOL0     H 4780   7.314   6.092   2.190 -0.1257  1.7156 -0.7489
  794MOL0     H 4781   7.320   6.053   2.367  2.6895 -0.3097 -0.1478
  794MOL0     H 4782   7.145   6.276   2.248  2.0321  0.4587 -0.7953
  794MOL0     H 4783   7.194   6.256   2.419  1.5428 -0.7387  0.0988
  794MOL0     H 4784   7.070   6.054   2.445 -4.6774  0.8532  0.3872
  794MOL0     H 4785   7.053   6.036   2.273 -2.4889  0.7887 -0.3017
  794MOL0     H 4786   6.922   6.246   2.460 -0.9184  0.4271  0.0425
  794MOL0     H 4787   6.897   6.226   2.276  1.6677 -0.8873 -1.1611
  794MOL0     H 4788   6.826   5.994   2.460  0.3912  0.9089 -0.4564
  794MOL0     H 4789   6.767   6.043   2.301  0.1226  2.2650 -2.0402
  794MOL0     H 4790   8.043   6.059   2.286 -0.2063 -0.6214 -0.7364
  794MOL0     H 4791   8.264   6.167   2.346  1.1099  2.8663 -1.4240
  794MOL0     H 4792   8.425   6.481   2.838 -0.8962 -0.2948 -0.5525
  794MOL0     H 4793   8.634   6.614   2.885  2.5401 -2.6849 -0.0734
  794MOL0     H 4794  10.139   6.994   3.454  0.6845  0.6050 -0.0560
  794MOL0     H 4795  10.352   6.993   3.543 -0.2161 -0.7481 -0.2977
  794MOL0     H 4796  10.610   6.959   3.686 -0.4550  2.9333 -2.7749
  794MOL0     H 4797  10.850   6.890   3.651  1.1888 -1.0550 -0.3350
  794MOL0     H 4798  11.167   7.208   3.718 -3.1018 -2.0447  3.3686
  794MOL0     H 4799  11.185   7.175   3.550 -0.0579  0.0937  1.0355
  794MOL0     H 4800  11.297   6.981   3.747  0.0536 -0.3107  0.8602
  794MOL0     H 4801  11.287   6.979   3.577 -1.8439 -1.8888  1.8707
  794MOL0     H 4802  11.435   7.208   3.731  0.0457 -1.7314  1.3250
  794MOL0     H 4803  11.421   7.183   3.550 -1.0525 -1.7094 -1.7092
  794MOL0     H 4804  11.512   6.954   3.584 -2.0544  1.2437 -1.2446
  794MOL0     H 4805  11.627   7.085   3.598  1.7864 -2.0308 -0.0437
  794MOL0     H 4806  11.668   6.983   3.991  0.6189 -0.0939 -0.5755
  794MOL0     H 4807  10.977   7.293   3.730 -1.1435  0.9660  2.0648
  794MOL0     H 4808  10.743   7.351   3.788 -0.0286 -0.1836 -0.7004
  795MOL0     O 4809   2.567  10.757   5.040 -0.4411 -0.2629 -0.0965
  795MOL0     C 4810   2.623  10.684   4.958  0.2498  0.2122  0.5870
  795MOL0     O 4811   2.583  10.566   4.908  0.4623  0.2898 -0.2857
  795MOL0     C 4812   2.454  10.522   4.941 -0.3826 -0.0289 -0.4261
  795MOL0     C 4813   2.392  10.537   5.066  0.5446 -0.1743 -0.5464
  795MOL0     C 4814   2.264  10.492   5.099  0.3181  0.3322  0.1803
  795MOL0     C 4815   2.201  10.429   4.994  0.1484  0.0477  0.4183
  795MOL0     O 4816   2.076  10.366   5.003 -0.7088  0.5174 -0.3081
  795MOL0     C 4817   1.967  10.429   5.071  0.4778 -0.2555  0.2984
  795MOL0     C 4818   1.850  10.329   5.075 -0.5943 -0.3134  0.1529
  795MOL0     C 4819   1.751  10.358   5.193  0.1672 -0.5032  0.3878
  795MOL0     C 4820   1.627  10.269   5.181  0.1864 -1.0211  0.3076
  795MOL0     C 4821   1.511  10.302   5.286 -0.6741 -0.1417 -0.3122
  795MOL0     C 4822   1.384  10.229   5.262  0.7940  0.1979 -0.1091
  795MOL0     C 4823   1.287  10.246   5.387  0.6899  0.8432 -0.6231
  795MOL0     C 4824   1.327  10.182   5.517 -0.6247 -0.1397 -0.2382
  795MOL0     N 4825   1.220  10.198   5.616 -0.6597  0.1508 -0.6237
  795MOL0     C 4826   1.108  10.116   5.629 -0.2967  1.0393 -0.1213
  795MOL0     C 4827   1.012  10.201   5.681  0.2402 -0.3297  0.2458
  795MOL0     C 4828   0.878  10.160   5.725 -0.3306  0.1829  0.7050
  795MOL0     C 4829   0.884  10.108   5.869  0.4494 -0.2226  0.0908
  795MOL0     C 4830   0.766  10.172   5.945 -0.3729 -0.1445 -0.3062
  795MOL0     C 4831   0.753  10.106   6.083  0.6767  0.1207  0.7121
  795MOL0     O 4832   0.684   9.982   6.070 -0.4565 -0.5509 -0.3153
  795MOL0     C 4833   0.549   9.975   6.091  0.3658 -0.2967 -0.6231
  795MOL0     C 4834   0.451  10.060   6.027 -0.5869  0.9088 -0.7448
  795MOL0     C 4835   0.318  10.037   6.061 -0.3667  0.5821  0.6172
  795MOL0     C 4836   0.269   9.934   6.137 -0.4780 -0.0529 -0.4131
  795MOL0     C 4837   0.124   9.908   6.149  0.5380 -0.3004  0.8479
  795MOL0     O 4838   0.040  10.002   6.095  0.1769 -0.2951 -0.2645
  795MOL0     C 4839  -0.098  10.004   6.120  0.0406  1.0330  0.5814
  795MOL0     C 4840  -0.158   9.981   6.249 -0.8232 -0.4239 -0.6138
  795MOL0     C 4841  -0.292   9.964   6.266  0.8615 -1.3452  0.0182
  795MOL0     C 4842  -0.379   9.955   6.160  0.2146 -0.3310 -0.0994
  795MOL0     O 4843  -0.514   9.947   6.178  0.3426 -1.0175 -0.1399
  795MOL0     C 4844  -0.589   9.982   6.296 -0.4559 -0.3782  0.0064
  795MOL0     C 4845  -0.732   9.952   6.267  0.0903  0.0272  0.3519
  795MOL0     C 4846  -0.816   9.993   6.380 -0.5687 -0.6843  0.1049
  795MOL0     C 4847  -0.852  10.146   6.385  0.1879  0.5275 -0.0505
  795MOL0     C 4848  -0.971  10.183   6.477  0.4260 -0.4852 -0.1377
  795MOL0     C 4849  -1.088  10.232   6.392 -0.4507 -0.0743 -0.5652
  795MOL0     C 4850  -1.154  10.125   6.313  0.3415 -0.1955  0.5392
  795MOL0     C 4851  -1.259  10.191   6.229  0.2904 -0.7509  0.1903
  795MOL0    Cl 4852  -1.193  10.301   6.097  0.2446 -0.1803  0.1933
  795MOL0     C 4853  -0.328   9.968   6.032 -0.0959 -0.2926  0.5568
  795MOL0     C 4854  -0.189   9.992   6.011  0.3217 -0.3476  0.1913
  795MOL0     O 4855   0.093   9.820   6.228 -0.6418  0.1354  0.9360
  795MOL0     C 4856   0.365   9.848   6.186  0.5986  0.7065 -0.1668
  795MOL0     C 4857   0.505   9.869   6.175 -0.0213 -0.3792 -0.4090
  795MOL0     N 4858   1.060  10.329   5.687  0.4993 -0.0227  0.1820
  795MOL0     N 4859   1.184  10.324   5.659 -0.5950 -0.4124 -0.3244
  795MOL0     C 4860   2.255  10.421   4.862 -0.0986  0.9927 -0.1136
  795MOL0     C 4861   2.384  10.456   4.843  0.1389 -0.6895  0.8616
  795MOL0     C 4862   2.756  10.729   4.906 -0.1005  0.5366  0.1636
  795MOL0     C 4863   2.851  10.779   4.991 -0.3316  0.1876  0.2046
  795MOL0     C 4864   2.979  10.826   4.942  0.7872  1.0365 -0.4912
  795MOL0     C 4865   3.018  10.792   4.813 -0.0530 -0.9366  0.2865
  795MOL0     O 4866   3.144  10.809   4.768 -0.1237 -0.1426 -0.6062
  795MOL0     C 4867   3.248  10.837   4.865 -0.4343 -0.4359 -0.0147
  795MOL0     C 4868   3.394  10.811   4.819  0.1668  0.4560  0.1590
  795MOL0     C 4869   3.425  10.871   4.685 -1.3497 -0.5421 -0.5036
  795MOL0     C 4870   3.566  10.818   4.630 -0.1351  0.2002 -0.9337
  795MOL0     C 4871   3.670  10.910   4.679  0.9866  0.0943  0.2646
  795MOL0     C 4872   3.748  10.996   4.706  0.5965 -0.1873  0.4146
  795MOL0     C 4873   2.932  10.724   4.733 -0.1954 -0.1788  0.2878
  795MOL0     C 4874   2.803  10.694   4.776  0.4905 -0.0365 -0.0673
  795MOL0     H 4875   2.453  10.569   5.149  0.0415 -0.3586 -0.1029
  795MOL0     H 4876   2.226  10.506   5.199  0.1685 -0.8894  0.3060
  795MOL0     H 4877   1.943  10.522   5.019  0.2520  0.6395  1.9151
  795MOL0     H 4878   1.987  10.448   5.177  2.0745 -1.3294  0.2220
  795MOL0     H 4879   1.893  10.229   5.087  1.9947  0.6724 -0.1744
  795MOL0     H 4880   1.797  10.336   4.980  3.2434  0.9867 -2.1485
  795MOL0     H 4881   1.737  10.467   5.197 -0.0749 -0.5585  1.1925
  795MOL0     H 4882   1.798  10.348   5.292 -0.2784  3.8673  1.2660
  795MOL0     H 4883   1.592  10.288   5.079  0.0309  3.1161  0.9499
  795MOL0     H 4884   1.649  10.162   5.185 -1.4720 -1.3729  0.4388
  795MOL0     H 4885   1.489  10.409   5.290  0.7204  0.1743 -0.4061
  795MOL0     H 4886   1.545  10.284   5.389 -1.4989  2.8299  0.5741
  795MOL0     H 4887   1.401  10.122   5.246  0.1247  0.1366 -0.4745
  795MOL0     H 4888   1.334  10.265   5.172  1.6623  0.3423 -0.5431
  795MOL0     H 4889   1.265  10.350   5.411 -1.1463  0.1082  1.1210
  795MOL0     H 4890   1.193  10.206   5.349  1.0722  0.6990 -1.4632
  795MOL0     H 4891   1.419  10.221   5.561 -0.3793  0.1340 -0.9766
  795MOL0     H 4892   1.342  10.077   5.488 -1.4763  0.2209 -2.1514
  795MOL0     H 4893   1.103  10.011   5.600  0.7101  0.5271  1.4470
  795MOL0     H 4894   0.849  10.079   5.658  1.7074  1.1286 -1.4945
  795MOL0     H 4895   0.808  10.244   5.716  0.6179  1.0142  0.9094
  795MOL0     H 4896   0.972  10.123   5.932  0.9735  1.9030 -1.0586
  795MOL0     H 4897   0.872  10.000   5.867  0.9871 -0.2651 -0.8083
  795MOL0     H 4898   0.765  10.281   5.953  3.7090 -0.0710  1.1785
  795MOL0     H 4899   0.678  10.145   5.886 -0.5567 -0.6896  0.2085
  795MOL0     H 4900   0.687  10.177   6.134 -1.9816 -0.4794 -1.6547
  795MOL0     H 4901   0.845  10.098   6.142  0.8007 -2.0520  0.2873
  795MOL0     H 4902   0.485  10.140   5.962 -0.4925  2.4730  1.1216
  795MOL0     H 4903   0.243  10.088   6.001  1.9128 -0.3611 -3.4122
  795MOL0     H 4904  -0.080   9.991   6.325  1.1957 -1.5438 -2.4256
  795MOL0     H 4905  -0.335   9.977   6.365  1.3253  0.7353 -0.0116
  795MOL0     H 4906  -0.581  10.087   6.327  0.2415 -0.2394 -0.6084
  795MOL0     H 4907  -0.552   9.923   6.381 -1.7702 -3.4769 -1.4304
  795MOL0     H 4908  -0.753   9.848   6.239 -1.8947  0.4941 -0.0566
  795MOL0     H 4909  -0.764  10.018   6.186 -1.1232  0.8618  1.4755
  795MOL0     H 4910  -0.767   9.973   6.475 -0.8266  0.5370  0.5174
  795MOL0     H 4911  -0.911   9.938   6.379 -0.8421 -0.2442  0.9579
  795MOL0     H 4912  -0.761  10.180   6.434 -0.3064 -1.3993  2.3955
  795MOL0     H 4913  -0.862  10.197   6.289  0.4281 -1.0138 -0.9273
  795MOL0     H 4914  -0.938  10.262   6.544 -0.3415 -2.2724  2.4825
  795MOL0     H 4915  -0.990  10.098   6.543 -0.0169  0.3667  0.8396
  795MOL0     H 4916  -1.046  10.307   6.324 -0.2620  0.7302  0.4152
  795MOL0     H 4917  -1.163  10.295   6.442  0.4404  1.9762 -1.6699
  795MOL0     H 4918  -1.082  10.077   6.246  0.9227 -0.3051  1.2322
  795MOL0     H 4919  -1.192  10.045   6.377  0.6104 -2.3618 -1.8800
  795MOL0     H 4920  -1.315  10.261   6.292  0.8230  1.2759 -1.4625
  795MOL0     H 4921  -1.335  10.120   6.195  0.6612 -0.1265 -2.1726
  795MOL0     H 4922  -0.397   9.949   5.950 -1.9422 -0.6632  2.1125
  795MOL0     H 4923  -0.155  10.000   5.908 -2.9152  0.9452 -0.9111
  795MOL0     H 4924   0.351   9.757   6.244 -1.3443  1.8926  1.3554
  795MOL0     H 4925   0.576   9.802   6.222  1.0121  1.1831  0.3257
  795MOL0     H 4926   2.204  10.361   4.787  1.3990  0.4196 -0.7092
  795MOL0     H 4927   2.424  10.447   4.742 -1.5707 -1.0153  0.1891
  795MOL0     H 4928   2.810  10.795   5.090 -1.2957  2.5940 -0.5105
  795MOL0     H 4929   3.049  10.872   5.011  1.3369 -0.8364  0.2723
  795MOL0     H 4930   3.223  10.781   4.956 -2.9190 -1.1989 -1.0775
  795MOL0     H 4931   3.247  10.939   4.904 -1.0592 -0.1576 -0.7347
  795MOL0     H 4932   3.454  10.851   4.902  0.7914  0.2276 -0.1797
  795MOL0     H 4933   3.401  10.703   4.807 -0.5890  0.7000 -3.4443
  795MOL0     H 4934   3.422  10.980   4.684  0.8070 -0.2450  3.7993
  795MOL0     H 4935   3.347  10.851   4.610 -0.4689  1.4487 -2.0568
  795MOL0     H 4936   3.590  10.718   4.666 -0.6072 -0.2852 -1.9117
  795MOL0     H 4937   3.565  10.825   4.521 -0.5343  1.1968 -0.8848
  795MOL0     H 4938   3.817  11.076   4.721 -1.2692  1.5662  0.0679
  795MOL0     H 4939   2.973  10.681   4.643  1.2732  0.0253  0.8191
  795MOL0     H 4940   2.737  10.639   4.709  0.4985  1.4451 -1.3696
  796MOL0     O 4941  10.856   4.165   1.807  0.1171 -0.2871 -0.8407
  796MOL0     C 4942  10.816   4.195   1.917 -0.3575  0.3840 -0.5729
  796MOL0     O 4943  10.728   4.297   1.949  0.7175  0.5831  0.4171
  796MOL0     C 4944  10.657   4.356   1.849  0.3972  0.1612 -0.9285
  796MOL0     C 4945  10.724   4.420   1.746  1.0202 -0.0016 -0.2280
  796MOL0     C 4946  10.658   4.486   1.645  0.3965  0.2522  0.0947
  796MOL0     C 4947  10.518   4.483   1.644  0.1475 -0.1230  0.0378
  796MOL0     O 4948  10.460   4.540   1.537  0.2584 -0.2616 -0.4110
  796MOL0     C 4949  10.328   4.602   1.566  0.4267  0.0346 -0.1305
  796MOL0     C 4950  10.312   4.708   1.451  0.0113  0.4253 -1.2481
  796MOL0     C 4951  10.394   4.841   1.487 -0.3415 -0.3127  0.3238
  796MOL0     C 4952  10.329   4.977   1.450  0.0909  0.6743 -0.5491
  796MOL0     C 4953  10.395   5.091   1.517 -0.2168 -0.6921 -0.3259
  796MOL0     C 4954  10.543   5.109   1.486 -0.2879  0.2354 -0.2863
  796MOL0     C 4955  10.600   5.229   1.558  0.6326 -0.3303  0.3143
  796MOL0     C 4956  10.751   5.222   1.554  0.1996  0.3525 -0.3485
  796MOL0     N 4957  10.799   5.230   1.420 -0.0792 -0.1161 -0.8374
  796MOL0     C 4958  10.806   5.327   1.323 -0.6048 -0.3679  0.2935
  796MOL0     C 4959  10.861   5.262   1.213 -0.5951 -0.1895 -0.5381
  796MOL0     C 4960  10.871   5.303   1.071  0.1002 -0.0906  0.9275
  796MOL0     C 4961  10.757   5.401   1.033  0.8523  0.2653  0.2129
  796MOL0     C 4962  10.752   5.428   0.885 -0.3639 -0.2885 -0.1960
  796MOL0     C 4963  10.626   5.487   0.836  0.0258  0.3139 -0.4579
  796MOL0     O 4964  10.516   5.402   0.832 -0.6276 -0.6985 -0.5355
  796MOL0     C 4965  10.389   5.446   0.800 -0.0550  0.3568  0.7145
  796MOL0     C 4966  10.286   5.356   0.825  0.1802  0.2262  0.7143
  796MOL0     C 4967  10.156   5.392   0.794 -0.3801 -0.2730  0.2344
  796MOL0     C 4968  10.123   5.514   0.732 -0.6498  1.3174  0.3068
  796MOL0     C 4969   9.982   5.533   0.692 -0.8238  0.2621  0.3410
  796MOL0     O 4970   9.911   5.423   0.648  0.3908  0.2569  0.4336
  796MOL0     C 4971   9.784   5.436   0.608 -0.4841 -1.1708 -1.0451
  796MOL0     C 4972   9.674   5.497   0.684  0.1524  0.1467 -0.1094
  796MOL0     C 4973   9.549   5.492   0.623 -0.0228  0.3828 -0.2919
  796MOL0     C 4974   9.534   5.436   0.494  0.8394 -0.1703  0.6770
  796MOL0     O 4975   9.405   5.444   0.444 -0.3079  0.2308  0.0120
  796MOL0     C 4976   9.367   5.331   0.351 -0.0433 -0.4973 -0.3701
  796MOL0     C 4977   9.212   5.347   0.313 -0.3810  0.0899  0.4053
  796MOL0     C 4978   9.194   5.462   0.214 -0.3716 -0.2160 -0.1203
  796MOL0     C 4979   9.048   5.498   0.194  0.2240 -0.7168 -0.7476
  796MOL0     C 4980   9.035   5.614   0.099  0.6437  0.4462  0.6024
  796MOL0     C 4981   8.906   5.698   0.102  0.2530 -0.3264  0.4495
  796MOL0     C 4982   8.781   5.621   0.077 -0.0142  0.0175  0.7456
  796MOL0     C 4983   8.653   5.717   0.105  0.1435 -0.0318 -0.4910
  796MOL0    Cl 4984   8.654   5.844  -0.017  0.0366  0.0082  0.0188
  796MOL0     C 4985   9.643   5.389   0.425 -0.5323 -0.1040  0.0650
  796MOL0     C 4986   9.773   5.385   0.477  0.1801  1.0599 -0.9761
  796MOL0     O 4987   9.948   5.651   0.686 -0.6329  0.2779  0.2010
  796MOL0     C 4988  10.228   5.603   0.716  0.1891  0.2589 -0.3860
  796MOL0     C 4989  10.358   5.573   0.743 -0.1090  0.4248 -0.4278
  796MOL0     N 4990  10.891   5.133   1.250  0.0914 -0.1508  0.7102
  796MOL0     N 4991  10.854   5.119   1.371  0.1652 -0.1477 -0.1222
  796MOL0     C 4992  10.452   4.415   1.747  0.6820 -0.4223 -0.4118
  796MOL0     C 4993  10.517   4.353   1.854  0.3924 -0.1589 -1.2182
  796MOL0     C 4994  10.903   4.146   2.034  0.0618  1.0793 -0.1799
  796MOL0     C 4995  10.900   4.194   2.169  0.4886  0.5148  0.4881
  796MOL0     C 4996  10.987   4.146   2.261 -0.8631  0.4427 -1.2055
  796MOL0     C 4997  11.082   4.040   2.233 -1.0751 -0.0794 -0.9525
  796MOL0     O 4998  11.183   3.998   2.327 -0.9062 -0.0785  0.2896
  796MOL0     C 4999  11.148   3.870   2.378 -0.4644 -0.5516 -0.3866
  796MOL0     C 5000  11.255   3.819   2.467 -0.2571 -0.1747  0.0508
  796MOL0     C 5001  11.260   3.910   2.592 -0.3347 -0.4493 -0.2954
  796MOL0     C 5002  11.383   3.879   2.678  0.2454  0.2963  0.4811
  796MOL0     C 5003  11.382   3.945   2.809 -0.3768 -0.2213  0.4031
  796MOL0     C 5004  11.384   4.011   2.913 -0.0379  0.4394 -0.7043
  796MOL0     C 5005  11.087   3.993   2.094  0.3513 -0.1396 -0.9488
  796MOL0     C 5006  10.997   4.040   2.004  0.7093  0.7277  0.5559
  796MOL0     H 5007  10.833   4.424   1.745  1.0094  3.4397 -0.5738
  796MOL0     H 5008  10.714   4.540   1.569  2.9410 -1.3538  0.6852
  796MOL0     H 5009  10.321   4.651   1.664  1.3548 -0.3276  0.1244
  796MOL0     H 5010  10.251   4.524   1.554 -0.5185  1.1985 -2.0602
  796MOL0     H 5011  10.207   4.737   1.444  0.5461  2.2025 -2.3403
  796MOL0     H 5012  10.348   4.666   1.356  1.4415 -0.9259 -0.1766
  796MOL0     H 5013  10.488   4.821   1.434 -0.0142 -1.7364  1.3584
  796MOL0     H 5014  10.433   4.843   1.589  1.5998 -0.7930 -0.3623
  796MOL0     H 5015  10.343   4.985   1.342 -0.3739  0.6241 -0.6167
  796MOL0     H 5016  10.223   4.984   1.475  0.3526  1.1510  0.4526
  796MOL0     H 5017  10.377   5.086   1.625 -1.6933 -0.8780 -0.5638
  796MOL0     H 5018  10.347   5.181   1.478  0.3988 -0.7980 -1.3807
  796MOL0     H 5019  10.549   5.128   1.378  0.2819 -0.0787 -0.3156
  796MOL0     H 5020  10.595   5.019   1.522 -1.0594 -0.4167 -0.7766
  796MOL0     H 5021  10.564   5.321   1.511 -1.8837 -1.3194  0.1459
  796MOL0     H 5022  10.569   5.217   1.663  1.8325  1.3068  0.9056
  796MOL0     H 5023  10.784   5.125   1.592  0.7975  1.9024  3.5433
  796MOL0     H 5024  10.796   5.299   1.617  2.7580 -1.9543  0.8921
  796MOL0     H 5025  10.768   5.429   1.329  0.4793  0.0246  0.7742
  796MOL0     H 5026  10.864   5.211   1.013 -2.4211 -0.7186  2.0973
  796MOL0     H 5027  10.965   5.356   1.052  1.0933 -2.0154  0.2690
  796MOL0     H 5028  10.780   5.495   1.086 -0.5683  1.5494 -1.3335
  796MOL0     H 5029  10.662   5.364   1.072  0.3178  1.4038  0.0569
  796MOL0     H 5030  10.844   5.480   0.854  0.1266 -0.1024  1.5050
  796MOL0     H 5031  10.750   5.332   0.831 -2.6612 -0.3265 -0.1032
  796MOL0     H 5032  10.648   5.522   0.734 -1.4018 -0.1201 -0.9365
  796MOL0     H 5033  10.603   5.579   0.890  0.0005 -0.0772  0.2021
  796MOL0     H 5034  10.294   5.258   0.872  1.2425 -0.2243 -0.3509
  796MOL0     H 5035  10.079   5.318   0.813 -1.6518  1.3897  1.8889
  796MOL0     H 5036   9.694   5.556   0.773  0.4724 -0.3909  0.1802
  796MOL0     H 5037   9.465   5.535   0.677 -0.7941  1.7396 -2.4259
  796MOL0     H 5038   9.389   5.233   0.396  0.2917 -1.1264 -1.8258
  796MOL0     H 5039   9.424   5.342   0.259 -1.1650 -2.0978 -1.3261
  796MOL0     H 5040   9.155   5.368   0.404  2.2840  0.4677  2.1086
  796MOL0     H 5041   9.182   5.254   0.264  2.1618 -0.8429  0.4584
  796MOL0     H 5042   9.236   5.438   0.115  0.8399 -0.0873  0.3513
  796MOL0     H 5043   9.250   5.550   0.247  2.0197 -1.0406 -1.6566
  796MOL0     H 5044   8.987   5.415   0.155  0.2094 -0.2472 -1.7574
  796MOL0     H 5045   9.004   5.535   0.287 -0.1552 -1.0295 -0.7997
  796MOL0     H 5046   9.061   5.593  -0.005 -0.7071 -1.2267  0.5617
  796MOL0     H 5047   9.112   5.685   0.130  1.0171  1.0866 -1.6101
  796MOL0     H 5048   8.921   5.785   0.037  2.7846 -2.0908 -1.5365
  796MOL0     H 5049   8.902   5.741   0.203 -1.1416  1.8901 -0.4745
  796MOL0     H 5050   8.782   5.593  -0.029  1.5593 -0.3412  0.8318
  796MOL0     H 5051   8.780   5.534   0.142 -0.2724 -0.0018  0.7179
  796MOL0     H 5052   8.636   5.757   0.205 -0.7988 -1.6279  0.0117
  796MOL0     H 5053   8.569   5.650   0.086  1.5590 -2.0954  0.2107
  796MOL0     H 5054   9.638   5.359   0.320  2.0360 -1.6241  0.2777
  796MOL0     H 5055   9.859   5.352   0.420  0.5181  1.1445 -0.5151
  796MOL0     H 5056  10.197   5.701   0.680  2.1304  0.8914 -0.4344
  796MOL0     H 5057  10.424   5.658   0.731 -0.2036  0.4023 -1.1634
  796MOL0     H 5058  10.343   4.415   1.744  0.5885 -0.3605  1.6132
  796MOL0     H 5059  10.470   4.314   1.943 -0.3245  1.0340 -1.0621
  796MOL0     H 5060  10.832   4.270   2.207 -0.3585  1.2281 -2.2314
  796MOL0     H 5061  10.987   4.196   2.357  0.4466 -0.8285 -0.5170
  796MOL0     H 5062  11.130   3.800   2.296 -2.4782 -1.9737  1.1709
  796MOL0     H 5063  11.052   3.879   2.430 -0.8677  1.2434 -1.3488
  796MOL0     H 5064  11.225   3.719   2.498 -0.9976 -0.3245 -1.0866
  796MOL0     H 5065  11.341   3.819   2.399 -1.5802 -0.7007 -1.6781
  796MOL0     H 5066  11.170   3.874   2.642 -0.7892 -0.9164 -1.4136
  796MOL0     H 5067  11.251   4.017   2.571 -2.5209 -0.4905  0.2339
  796MOL0     H 5068  11.404   3.775   2.705 -0.0501 -0.3288 -1.5511
  796MOL0     H 5069  11.464   3.907   2.610 -1.1102 -0.5861 -1.5988
  796MOL0     H 5070  11.375   4.048   3.013 -2.1588  2.3685 -1.5112
  796MOL0     H 5071  11.162   3.925   2.055  1.4935  0.0210  0.8434
  796MOL0     H 5072  10.989   4.008   1.901  0.7024  6.3351 -1.5376
  797MOL0     O 5073   5.003   8.400   7.424 -0.0388  0.0487 -0.9796
  797MOL0     C 5074   5.025   8.359   7.318 -0.6306  0.1691 -0.7061
  797MOL0     O 5075   4.926   8.322   7.229 -0.5360  0.9276  0.2279
  797MOL0     C 5076   4.797   8.326   7.275  0.8251  0.0234 -0.3194
  797MOL0     C 5077   4.741   8.215   7.342 -0.0690  0.0867 -0.7011
  797MOL0     C 5078   4.615   8.218   7.386  0.6331 -0.8720 -0.6429
  797MOL0     C 5079   4.538   8.332   7.364  1.2116 -0.4995 -0.5444
  797MOL0     O 5080   4.401   8.345   7.399  0.0690  0.1189 -0.6184
  797MOL0     C 5081   4.330   8.231   7.459 -0.0889  0.2521  0.1752
  797MOL0     C 5082   4.170   8.253   7.458 -1.1496  0.0121  0.6261
  797MOL0     C 5083   4.117   8.364   7.540  0.1465 -0.0307 -1.5892
  797MOL0     C 5084   4.166   8.507   7.489  0.1922  0.5590 -0.8199
  797MOL0     C 5085   4.093   8.632   7.542 -0.5211  0.3106 -0.3488
  797MOL0     C 5086   3.943   8.622   7.501  0.3775 -1.2475  0.6170
  797MOL0     C 5087   3.862   8.743   7.518 -0.2439  0.4444  0.0719
  797MOL0     C 5088   3.866   8.788   7.672 -0.3252  0.0494  0.5128
  797MOL0     N 5089   3.800   8.917   7.671  0.4529  0.3397  0.5671
  797MOL0     C 5090   3.855   9.036   7.691  0.2149 -0.0939  0.3086
  797MOL0     C 5091   3.768   9.132   7.667  0.5014  0.1648 -0.2240
  797MOL0     C 5092   3.785   9.282   7.678 -0.2328 -1.6153 -0.4661
  797MOL0     C 5093   3.778   9.344   7.538 -0.3875 -0.0696  0.1960
  797MOL0     C 5094   3.734   9.493   7.549  1.0407  0.1494  0.0302
  797MOL0     C 5095   3.729   9.574   7.416 -0.2455  0.3197 -0.1567
  797MOL0     O 5096   3.613   9.553   7.343 -0.0067  0.0693 -0.3890
  797MOL0     C 5097   3.490   9.621   7.361 -1.1773  0.1954 -0.4453
  797MOL0     C 5098   3.391   9.593   7.268 -0.0253  0.0763 -0.1424
  797MOL0     C 5099   3.277   9.671   7.258  0.1327  0.1699  0.0754
  797MOL0     C 5100   3.254   9.778   7.346  0.8789 -0.4336 -0.3584
  797MOL0     C 5101   3.128   9.849   7.322  0.1606  0.3267  0.6673
  797MOL0     O 5102   3.054   9.809   7.217  0.8276  0.2178  0.0936
  797MOL0     C 5103   2.961   9.894   7.156 -0.5027 -1.6883 -0.7129
  797MOL0     C 5104   2.858   9.840   7.081 -0.3028 -0.5166  0.8013
  797MOL0     C 5105   2.755   9.916   7.021 -0.3058  0.2602  0.2926
  797MOL0     C 5106   2.763  10.063   7.028  0.4059  0.1338 -0.3721
  797MOL0     O 5107   2.660  10.145   6.980 -0.5842 -0.0310 -0.1853
  797MOL0     C 5108   2.527  10.091   7.011 -0.1320 -0.0635  0.3429
  797MOL0     C 5109   2.456  10.028   6.887 -0.5385  0.5343 -0.2265
  797MOL0     C 5110   2.316   9.975   6.925  0.9789 -0.2299 -0.4834
  797MOL0     C 5111   2.245   9.888   6.815  0.0681  0.7091 -0.9493
  797MOL0     C 5112   2.094   9.881   6.833  0.3093 -0.4290 -1.0565
  797MOL0     C 5113   2.027   9.784   6.741 -0.2986 -0.4502 -0.5222
  797MOL0     C 5114   1.877   9.793   6.769 -0.3919 -0.2321  0.2344
  797MOL0     C 5115   1.798   9.705   6.668  0.5345 -0.3543 -0.5650
  797MOL0    Cl 5116   1.627   9.717   6.725  0.2723 -0.1385 -0.2443
  797MOL0     C 5117   2.871  10.119   7.095 -0.2553 -0.1317  0.9459
  797MOL0     C 5118   2.970  10.039   7.156  0.4516  0.0995  0.1835
  797MOL0     O 5119   3.103   9.939   7.395  0.1409  0.6291 -0.6585
  797MOL0     C 5120   3.350   9.813   7.444 -0.4291  0.0078 -0.2689
  797MOL0     C 5121   3.468   9.733   7.445  0.3307  0.1268 -0.3472
  797MOL0     N 5122   3.653   9.062   7.625 -0.8000 -0.7410  0.3941
  797MOL0     N 5123   3.672   8.933   7.624 -0.5567 -0.1065  0.5118
  797MOL0     C 5124   4.593   8.441   7.303  0.0012 -0.3028  0.0768
  797MOL0     C 5125   4.723   8.436   7.247 -0.4129 -0.2342 -0.1533
  797MOL0     C 5126   5.165   8.382   7.268  0.4503  1.0283  0.1996
  797MOL0     C 5127   5.278   8.364   7.352  0.7265 -0.1215 -0.3603
  797MOL0     C 5128   5.402   8.376   7.304 -0.0833  0.0292 -0.2836
  797MOL0     C 5129   5.419   8.405   7.168  0.1937  0.1114 -0.3449
  797MOL0     O 5130   5.554   8.421   7.122  0.2860 -0.3978 -0.1350
  797MOL0     C 5131   5.578   8.528   7.027  0.2244  0.1244  0.2093
  797MOL0     C 5132   5.727   8.565   7.031 -0.7556  0.4430 -0.3600
  797MOL0     C 5133   5.756   8.695   6.948 -0.5457  0.5306  0.0835
  797MOL0     C 5134   5.899   8.688   6.892  0.3108 -0.0267 -0.3196
  797MOL0     C 5135   5.991   8.685   7.007 -0.1135  0.2662  0.4340
  797MOL0     C 5136   6.075   8.692   7.093 -0.1503 -0.0234  0.3466
  797MOL0     C 5137   5.309   8.423   7.086 -0.1584  0.5465 -0.4162
  797MOL0     C 5138   5.181   8.404   7.134 -0.0513 -0.1863 -0.2370
  797MOL0     H 5139   4.810   8.132   7.356  3.0299  2.4055 -0.9741
  797MOL0     H 5140   4.587   8.129   7.441 -0.4365  2.2445  4.5725
  797MOL0     H 5141   4.357   8.218   7.564  6.0477 -1.6729 -1.2733
  797MOL0     H 5142   4.350   8.138   7.404  0.9902  1.3205 -1.3311
  797MOL0     H 5143   4.130   8.163   7.508  0.3571 -1.1652 -0.1942
  797MOL0     H 5144   4.134   8.254   7.355 -2.4393 -2.4473  0.9700
  797MOL0     H 5145   4.153   8.342   7.641 -0.1479 -3.4392 -2.1239
  797MOL0     H 5146   4.008   8.371   7.534 -0.0633 -0.8970  0.5423
  797MOL0     H 5147   4.273   8.515   7.511  0.3268  2.4160 -1.9582
  797MOL0     H 5148   4.166   8.504   7.380 -0.9237  0.6218 -0.8366
  797MOL0     H 5149   4.131   8.725   7.501  1.9848 -0.1676  0.7350
  797MOL0     H 5150   4.105   8.652   7.649 -1.7409 -1.7249  0.2236
  797MOL0     H 5151   3.885   8.540   7.545 -1.2682  0.0661  0.9672
  797MOL0     H 5152   3.939   8.605   7.393 -0.8650 -2.3494  0.8133
  797MOL0     H 5153   3.916   8.820   7.463  3.2116  1.5223  4.3446
  797MOL0     H 5154   3.756   8.738   7.493 -0.2528 -0.6007  0.2466
  797MOL0     H 5155   3.965   8.802   7.715 -0.3860 -0.7156  0.9277
  797MOL0     H 5156   3.817   8.718   7.742 -1.5555  0.0381 -0.3177
  797MOL0     H 5157   3.959   9.047   7.719  0.8786  1.7005 -2.4402
  797MOL0     H 5158   3.884   9.303   7.717  0.0596 -0.4517 -1.7824
  797MOL0     H 5159   3.712   9.326   7.746  1.0193 -0.6116  0.2584
  797MOL0     H 5160   3.703   9.288   7.481 -0.1185  1.2970 -1.5884
  797MOL0     H 5161   3.872   9.341   7.482 -1.9444 -1.2906 -2.5907
  797MOL0     H 5162   3.636   9.511   7.594  1.6511 -2.8223  2.9573
  797MOL0     H 5163   3.810   9.534   7.616  1.3637 -1.5453  0.7544
  797MOL0     H 5164   3.820   9.546   7.361  0.5129  0.7798  0.8266
  797MOL0     H 5165   3.759   9.677   7.437  1.2621 -0.3351  1.1718
  797MOL0     H 5166   3.400   9.515   7.193  0.2977  2.8852 -3.2729
  797MOL0     H 5167   3.194   9.636   7.196 -0.1306  0.9119 -0.0067
  797MOL0     H 5168   2.836   9.734   7.074  0.1065 -0.9194  3.9848
  797MOL0     H 5169   2.685   9.861   6.959  3.5774 -1.4717 -3.0529
  797MOL0     H 5170   2.461  10.173   7.042  0.1085  0.1114  0.3931
  797MOL0     H 5171   2.522  10.013   7.087 -0.6346  1.0063  1.4296
  797MOL0     H 5172   2.527   9.951   6.856  3.0648  2.4822  2.4021
  797MOL0     H 5173   2.447  10.093   6.800 -0.5239 -0.3849 -0.9339
  797MOL0     H 5174   2.260  10.065   6.952  0.4125 -1.1804  1.7520
  797MOL0     H 5175   2.318   9.911   7.015 -2.2987  0.9049  0.5331
  797MOL0     H 5176   2.262   9.938   6.719  0.3366 -0.3942 -1.4956
  797MOL0     H 5177   2.298   9.792   6.806  0.7323  0.8761  0.8966
  797MOL0     H 5178   2.050   9.981   6.835 -0.2495 -0.6721  0.7090
  797MOL0     H 5179   2.064   9.843   6.931  0.0742  2.5346  0.1075
  797MOL0     H 5180   2.057   9.680   6.755  1.3797 -0.0572 -0.9080
  797MOL0     H 5181   2.057   9.817   6.640  2.7066 -0.0969  0.3821
  797MOL0     H 5182   1.867   9.749   6.869  0.5819  1.9733  1.3794
  797MOL0     H 5183   1.844   9.898   6.768  0.6973  0.1199 -0.6832
  797MOL0     H 5184   1.827   9.599   6.663 -1.2586 -0.8644 -0.8852
  797MOL0     H 5185   1.794   9.752   6.569 -0.0348 -1.5824 -1.1502
  797MOL0     H 5186   2.883  10.227   7.095 -1.4556  0.0437 -0.2669
  797MOL0     H 5187   3.057  10.082   7.204 -0.5981  0.5412  1.7562
  797MOL0     H 5188   3.340   9.908   7.496 -0.1621 -1.4420  2.6659
  797MOL0     H 5189   3.544   9.780   7.507  0.8351 -0.3782 -0.5683
  797MOL0     H 5190   4.533   8.532   7.299  0.5564  0.4031  3.7694
  797MOL0     H 5191   4.771   8.521   7.201  1.9078 -0.5680  1.4993
  797MOL0     H 5192   5.257   8.356   7.458 -3.9797  3.6162 -0.6639
  797MOL0     H 5193   5.496   8.366   7.357  1.2953  2.0701 -2.1517
  797MOL0     H 5194   5.529   8.625   7.040  0.0403  0.4183 -2.2493
  797MOL0     H 5195   5.549   8.491   6.928 -0.4394 -2.8336  1.3892
  797MOL0     H 5196   5.746   8.571   7.138 -0.9572  0.3714 -0.3185
  797MOL0     H 5197   5.785   8.481   6.993  1.6598  1.4163  0.9590
  797MOL0     H 5198   5.748   8.781   7.015  0.6074 -0.0159  0.9699
  797MOL0     H 5199   5.694   8.715   6.861 -0.0151 -2.0795 -0.9863
  797MOL0     H 5200   5.912   8.593   6.839 -2.0853 -0.5499 -0.0634
  797MOL0     H 5201   5.929   8.768   6.823  2.4652 -2.1729 -2.0691
  797MOL0     H 5202   6.143   8.696   7.177  0.5212 -3.2112  0.0697
  797MOL0     H 5203   5.337   8.443   6.983  4.7592 -1.8937  0.1722
  797MOL0     H 5204   5.101   8.431   7.065 -0.6383  0.6572  0.7486
  798MOL0     O 5205   8.594  11.054   6.395 -0.1919  0.0304 -0.3629
  798MOL0     C 5206   8.699  10.981   6.409  0.4675  0.9986  0.1183
  798MOL0     O 5207   8.704  10.840   6.410 -0.2143  0.0495  0.0880
  798MOL0     C 5208   8.588  10.760   6.411 -0.5714 -0.5671 -0.5192
  798MOL0     C 5209   8.465  10.802   6.447 -0.1810 -0.0847 -0.4039
  798MOL0     C 5210   8.354  10.723   6.452  0.7652 -0.0378  0.2000
  798MOL0     C 5211   8.375  10.587   6.434  0.0297  0.5928 -0.0308
  798MOL0     O 5212   8.262  10.507   6.437  0.3712 -0.1764 -0.2967
  798MOL0     C 5213   8.266  10.373   6.384  0.2587  0.4292 -0.2659
  798MOL0     C 5214   8.134  10.305   6.426 -0.3805  0.0725 -0.0523
  798MOL0     C 5215   8.015  10.367   6.359  0.0314  1.0539 -0.8551
  798MOL0     C 5216   7.881  10.305   6.417 -0.0275  0.7332 -0.0518
  798MOL0     C 5217   7.760  10.366   6.334  0.1865  0.8993 -0.2262
  798MOL0     C 5218   7.620  10.350   6.395  0.3925  0.0985 -1.2854
  798MOL0     C 5219   7.600  10.442   6.520  0.2235  0.6891 -0.0203
  798MOL0     C 5220   7.457  10.437   6.587 -0.1895  0.2431 -0.3216
  798MOL0     N 5221   7.347  10.485   6.495  0.1012  0.5363  0.7844
  798MOL0     C 5222   7.329  10.612   6.446 -0.2226 -0.5784 -0.6506
  798MOL0     C 5223   7.232  10.601   6.358  0.5301  0.5113  0.4838
  798MOL0     C 5224   7.170  10.726   6.295 -0.0503  0.0588 -0.0405
  798MOL0     C 5225   7.127  10.715   6.148  0.0354  0.0470  0.4325
  798MOL0     C 5226   7.111  10.853   6.090  0.4771  0.7646  0.9747
  798MOL0     C 5227   7.020  10.955   6.150 -0.4929 -0.4012 -0.6903
  798MOL0     O 5228   6.882  10.917   6.163  0.2385  0.2284 -0.1665
  798MOL0     C 5229   6.795  10.985   6.242 -0.5670  0.9048 -0.1284
  798MOL0     C 5230   6.835  11.087   6.325 -0.3328  0.6841 -0.0406
  798MOL0     C 5231   6.738  11.165   6.397  0.9193 -0.6036  0.0518
  798MOL0     C 5232   6.598  11.126   6.397  0.1092 -0.1714  0.2965
  798MOL0     C 5233   6.489  11.202   6.461 -0.1264 -0.2870 -0.9498
  798MOL0     O 5234   6.370  11.137   6.480  0.0322  0.4815  0.8311
  798MOL0     C 5235   6.281  11.190   6.566  0.7502 -1.0387 -0.1546
  798MOL0     C 5236   6.229  11.115   6.672 -0.1783 -0.1988 -0.6338
  798MOL0     C 5237   6.163  11.169   6.785  0.0509 -0.2671  0.1447
  798MOL0     C 5238   6.128  11.303   6.779 -0.2549 -0.5576 -0.6897
  798MOL0     O 5239   6.059  11.368   6.881  0.0898 -0.2703 -0.1283
  798MOL0     C 5240   6.075  11.337   7.020  0.1593  0.2073 -0.0348
  798MOL0     C 5241   5.990  11.440   7.092 -0.4208 -0.1717 -0.8757
  798MOL0     C 5242   5.847  11.435   7.048 -0.4430  0.0713 -0.2409
  798MOL0     C 5243   5.752  11.518   7.128  0.4236 -0.1226 -0.2610
  798MOL0     C 5244   5.613  11.505   7.056  0.4468  0.3045 -0.4322
  798MOL0     C 5245   5.520  11.604   7.110  1.1469  0.4526 -0.1155
  798MOL0     C 5246   5.373  11.572   7.065 -0.5493 -0.1366 -0.4046
  798MOL0     C 5247   5.280  11.683   7.103  0.8047 -0.0272 -0.4375
  798MOL0    Cl 5248   5.115  11.651   7.026 -0.2933  0.1751 -0.2598
  798MOL0     C 5249   6.161  11.383   6.667 -0.9311 -0.1528  0.9426
  798MOL0     C 5250   6.246  11.331   6.566  0.8063 -0.1530  0.2176
  798MOL0     O 5251   6.514  11.321   6.496  0.6327 -0.4314  0.0592
  798MOL0     C 5252   6.568  11.016   6.322  0.1323  0.0850  0.0337
  798MOL0     C 5253   6.664  10.942   6.248 -1.0646 -0.7594  0.6561
  798MOL0     N 5254   7.194  10.470   6.327 -0.3044 -0.2503 -0.8262
  798MOL0     N 5255   7.273  10.407   6.413  0.0941 -0.4420  0.3490
  798MOL0     C 5256   8.494  10.530   6.404 -0.9839 -0.2135 -0.4667
  798MOL0     C 5257   8.601  10.623   6.389  0.0329  0.0465  0.5052
  798MOL0     C 5258   8.823  11.054   6.434  0.0673 -0.3655  0.4054
  798MOL0     C 5259   8.944  10.996   6.404  0.1373  0.4573 -0.4265
  798MOL0     C 5260   9.062  11.076   6.410 -0.7319  0.1952  0.4860
  798MOL0     C 5261   9.065  11.208   6.460  0.9309  0.8257 -0.5222
  798MOL0     O 5262   9.179  11.279   6.484  0.6189 -0.3871 -0.6382
  798MOL0     C 5263   9.246  11.239   6.605 -0.4032 -0.1432 -0.1898
  798MOL0     C 5264   9.382  11.309   6.613 -0.4353 -0.5883  1.0167
  798MOL0     C 5265   9.467  11.275   6.492 -0.3682  0.5219 -0.5065
  798MOL0     C 5266   9.583  11.369   6.467  1.2587 -0.8220 -0.1221
  798MOL0     C 5267   9.657  11.381   6.595 -0.0917  1.2824  0.6504
  798MOL0     C 5268   9.719  11.390   6.697 -0.9874 -0.0436  0.2687
  798MOL0     C 5269   8.945  11.250   6.507 -0.2294 -0.4489 -0.6641
  798MOL0     C 5270   8.825  11.181   6.485  0.1679 -0.4783 -0.0339
  798MOL0     H 5271   8.446  10.905   6.477  0.9151 -0.4587  1.7909
  798MOL0     H 5272   8.254  10.754   6.480  0.7832 -0.6435  0.9565
  798MOL0     H 5273   8.351  10.315   6.422  1.2367  1.9730  0.0081
  798MOL0     H 5274   8.277  10.389   6.276 -0.8574  1.1500 -0.2905
  798MOL0     H 5275   8.115  10.314   6.533 -5.3838 -1.1465 -0.5593
  798MOL0     H 5276   8.155  10.200   6.403 -0.1021  0.3462 -1.0857
  798MOL0     H 5277   8.020  10.344   6.252  0.0937 -0.0003 -0.6395
  798MOL0     H 5278   8.013  10.475   6.376  2.7085  1.1978 -0.9848
  798MOL0     H 5279   7.881  10.196   6.409 -1.5046  0.6468  0.7967
  798MOL0     H 5280   7.874  10.329   6.523 -0.5753 -2.8373  0.8643
  798MOL0     H 5281   7.762  10.313   6.238 -0.7917  1.0386 -0.3408
  798MOL0     H 5282   7.774  10.473   6.312  0.5164  0.8277 -0.3692
  798MOL0     H 5283   7.607  10.245   6.426  3.2084  0.0400 -0.0262
  798MOL0     H 5284   7.540  10.372   6.323 -1.8502 -2.8254  0.0799
  798MOL0     H 5285   7.671  10.412   6.599 -0.8042 -0.8472  0.3686
  798MOL0     H 5286   7.620  10.547   6.498 -0.5497  1.0383  0.9029
  798MOL0     H 5287   7.458  10.503   6.674  0.4929 -1.2706  0.8703
  798MOL0     H 5288   7.424  10.339   6.622 -3.9257 -0.0686 -4.0054
  798MOL0     H 5289   7.381  10.702   6.478  2.1905 -1.8016 -0.8985
  798MOL0     H 5290   7.242  10.809   6.300 -0.8507  0.8139 -0.7199
  798MOL0     H 5291   7.089  10.766   6.356  0.6213  2.2397 -0.4870
  798MOL0     H 5292   7.030  10.666   6.139  0.3815 -0.4266 -0.8484
  798MOL0     H 5293   7.203  10.662   6.090 -0.6705 -0.4357 -0.0586
  798MOL0     H 5294   7.210  10.898   6.080  0.3247  1.0838  0.9105
  798MOL0     H 5295   7.073  10.836   5.989  5.6691  0.0851 -1.1880
  798MOL0     H 5296   7.045  11.049   6.100 -0.5597  0.0094  0.0355
  798MOL0     H 5297   7.065  10.985   6.245  0.4426  1.5691 -1.6939
  798MOL0     H 5298   6.938  11.121   6.336 -0.5475  1.9381 -1.5942
  798MOL0     H 5299   6.764  11.250   6.459 -0.1085 -0.4728  0.3156
  798MOL0     H 5300   6.225  11.007   6.686 -3.6235 -0.0222  0.8235
  798MOL0     H 5301   6.131  11.097   6.859  2.8930 -0.5849  1.1880
  798MOL0     H 5302   6.181  11.344   7.047  0.6310 -1.7222 -1.1795
  798MOL0     H 5303   6.033  11.238   7.041 -2.3124  0.5239 -2.8522
  798MOL0     H 5304   6.024  11.538   7.058 -0.0251 -0.6899 -2.0020
  798MOL0     H 5305   5.998  11.420   7.200  0.8177 -3.3730 -1.4323
  798MOL0     H 5306   5.814  11.331   7.041  0.1618 -0.0141 -4.9448
  798MOL0     H 5307   5.845  11.465   6.943  0.5645 -1.1178 -0.6236
  798MOL0     H 5308   5.744  11.481   7.231  0.2241  1.1679  0.2085
  798MOL0     H 5309   5.793  11.618   7.146 -0.0860  0.0160  0.1488
  798MOL0     H 5310   5.575  11.402   7.066 -2.4094  1.0281 -2.4954
  798MOL0     H 5311   5.637  11.535   6.954 -0.9192 -0.0740 -0.8977
  798MOL0     H 5312   5.552  11.703   7.077  3.3933 -0.6208 -1.4467
  798MOL0     H 5313   5.527  11.609   7.219  1.7672  0.0147 -0.1327
  798MOL0     H 5314   5.373  11.569   6.955  1.3147  4.1063 -0.6927
  798MOL0     H 5315   5.343  11.474   7.104  1.3080 -0.0199  1.4667
  798MOL0     H 5316   5.316  11.782   7.073  0.5372  0.9509  2.1634
  798MOL0     H 5317   5.269  11.685   7.212 -0.4290 -2.4575 -0.4613
  798MOL0     H 5318   6.113  11.480   6.662  0.8774  0.7268 -0.6463
  798MOL0     H 5319   6.267  11.394   6.479 -2.0744  1.0168  0.2490
  798MOL0     H 5320   6.466  10.980   6.314 -0.8159  2.8126 -1.3226
  798MOL0     H 5321   6.641  10.852   6.192 -3.0415  0.1374 -0.0663
  798MOL0     H 5322   8.517  10.426   6.383  3.3477  0.4999 -0.1781
  798MOL0     H 5323   8.703  10.593   6.368 -0.0295 -1.1967  1.8921
  798MOL0     H 5324   8.953  10.895   6.366  0.2991  0.5879 -0.7411
  798MOL0     H 5325   9.155  11.034   6.372 -0.8136  0.2888  0.1827
  798MOL0     H 5326   9.273  11.133   6.593  0.6455  0.2927 -1.9482
  798MOL0     H 5327   9.173  11.250   6.686 -0.7257 -0.1557 -0.4787
  798MOL0     H 5328   9.371  11.418   6.608 -0.7357 -0.5977  1.3979
  798MOL0     H 5329   9.430  11.293   6.710 -0.9126 -1.4126  1.1301
  798MOL0     H 5330   9.410  11.272   6.400  1.4056 -0.3215 -1.6367
  798MOL0     H 5331   9.499  11.172   6.515  0.6118 -0.4934 -5.4179
  798MOL0     H 5332   9.647  11.354   6.380 -2.2934 -1.1634 -2.9074
  798MOL0     H 5333   9.545  11.472   6.461  1.3023 -0.5749  2.5663
  798MOL0     H 5334   9.792  11.384   6.774  0.2984 -3.4990 -1.0552
  798MOL0     H 5335   8.929  11.339   6.567  0.3639 -0.8625  0.1210
  798MOL0     H 5336   8.732  11.234   6.505  0.8558  0.2244  1.3835
  799MOL0     O 5337   7.592   3.577   4.528 -0.0254  0.3255  0.1352
  799MOL0     C 5338   7.660   3.554   4.437  0.0480  0.1677  0.0340
  799MOL0     O 5339   7.682   3.441   4.365  0.1750 -0.7481 -0.9043
  799MOL0     C 5340   7.617   3.329   4.396  0.2791 -0.8666 -0.6121
  799MOL0     C 5341   7.695   3.210   4.389  0.4943 -0.8243  0.5034
  799MOL0     C 5342   7.635   3.094   4.426  0.5608 -0.0718 -0.9899
  799MOL0     C 5343   7.498   3.095   4.472 -1.7004  0.2628 -0.2104
  799MOL0     O 5344   7.436   2.970   4.466 -0.1244  0.0179  0.6405
  799MOL0     C 5345   7.336   2.957   4.562  0.2738 -0.7038  1.4015
  799MOL0     C 5346   7.337   2.826   4.641  0.0643 -0.6113  0.8052
  799MOL0     C 5347   7.443   2.810   4.742  0.0506 -0.9588 -0.0016
  799MOL0     C 5348   7.585   2.847   4.695 -0.4294  0.3327  0.4353
  799MOL0     C 5349   7.691   2.788   4.790  0.2381 -0.1670 -0.0810
  799MOL0     C 5350   7.826   2.820   4.729 -0.5856  0.5043 -0.4090
  799MOL0     C 5351   7.938   2.786   4.836 -0.6833 -0.1905  1.5497
  799MOL0     C 5352   8.068   2.782   4.767  0.6139 -0.7131  0.1369
  799MOL0     N 5353   8.167   2.831   4.866 -0.4558 -0.2099 -0.1613
  799MOL0     C 5354   8.241   2.942   4.832  0.2951 -0.1792  0.6424
  799MOL0     C 5355   8.323   2.960   4.940  0.3424 -0.0073  0.3355
  799MOL0     C 5356   8.432   3.075   4.941  0.8549  0.5281  0.1404
  799MOL0     C 5357   8.567   3.027   4.876 -0.2972 -0.0372  0.5774
  799MOL0     C 5358   8.674   3.141   4.852  0.6789  0.3525 -0.7449
  799MOL0     C 5359   8.790   3.088   4.771 -0.0487 -0.8953 -0.1596
  799MOL0     O 5360   8.879   3.195   4.731 -0.4878  0.6469  0.5229
  799MOL0     C 5361   8.998   3.152   4.669 -0.0546 -0.4202 -0.2706
  799MOL0     C 5362   9.055   3.022   4.659 -0.0356  0.5022  1.1403
  799MOL0     C 5363   9.171   2.995   4.585 -0.6146  0.3009 -0.3215
  799MOL0     C 5364   9.246   3.097   4.526  0.0169  0.1499 -0.4745
  799MOL0     C 5365   9.372   3.072   4.455 -0.5712  0.2170 -0.1294
  799MOL0     O 5366   9.448   2.962   4.479 -0.1832 -0.0953  0.1061
  799MOL0     C 5367   9.582   2.973   4.460  0.1568  0.0268  0.5142
  799MOL0     C 5368   9.663   3.060   4.538  0.4096 -0.3618 -0.3138
  799MOL0     C 5369   9.802   3.061   4.524 -0.3256  0.5868  0.0241
  799MOL0     C 5370   9.865   2.988   4.420 -0.0956  0.2283  0.3007
  799MOL0     O 5371  10.010   2.967   4.410 -0.4434  0.1866  0.0166
  799MOL0     C 5372  10.089   3.022   4.513  0.1862  0.2244 -1.0280
  799MOL0     C 5373  10.235   2.991   4.457  0.2947  0.5522 -0.5885
  799MOL0     C 5374  10.353   3.054   4.541  0.0228  0.0063  0.1205
  799MOL0     C 5375  10.497   2.998   4.498  0.6575 -0.2259 -0.1556
  799MOL0     C 5376  10.518   2.845   4.507  0.0564 -0.2602  0.6222
  799MOL0     C 5377  10.506   2.783   4.364  0.1994 -0.6728  0.1148
  799MOL0     C 5378  10.540   2.634   4.336  0.7951 -0.2025  0.6867
  799MOL0     C 5379  10.491   2.536   4.450 -0.6771 -0.8825 -0.3635
  799MOL0    Cl 5380  10.322   2.534   4.424  0.0594 -0.3434 -0.2956
  799MOL0     C 5381   9.785   2.905   4.340  0.0124  0.0935  0.1184
  799MOL0     C 5382   9.648   2.901   4.359  0.2259 -0.2298  1.0403
  799MOL0     O 5383   9.402   3.159   4.382  0.4936 -0.4053  0.3063
  799MOL0     C 5384   9.205   3.220   4.554 -0.7977 -0.6949  0.4637
  799MOL0     C 5385   9.086   3.253   4.624  0.5025 -0.5988  0.5121
  799MOL0     N 5386   8.293   2.866   5.040 -0.4027  0.8286  0.0372
  799MOL0     N 5387   8.206   2.776   4.989 -0.4553 -0.2099 -0.5794
  799MOL0     C 5388   7.425   3.208   4.474 -1.0464  0.5091 -0.1337
  799MOL0     C 5389   7.484   3.321   4.434 -0.4341 -0.4302 -0.3351
  799MOL0     C 5390   7.749   3.669   4.410 -0.5146 -0.8038  0.9218
  799MOL0     C 5391   7.713   3.807   4.447  0.1039 -0.2490  0.3569
  799MOL0     C 5392   7.790   3.910   4.403 -0.7994 -0.5094  0.7144
  799MOL0     C 5393   7.911   3.894   4.345  0.5470  0.6554 -0.0607
  799MOL0     O 5394   7.988   4.003   4.315  0.0707 -0.4528 -0.6929
  799MOL0     C 5395   8.009   4.104   4.418  0.3977 -0.8888 -0.2049
  799MOL0     C 5396   8.135   4.192   4.368 -0.2170 -0.5093 -0.0746
  799MOL0     C 5397   8.197   4.284   4.475 -0.7369  0.1818 -0.1108
  799MOL0     C 5398   8.112   4.319   4.589 -0.3850  0.1773 -0.7514
  799MOL0     C 5399   8.166   4.421   4.686 -0.1183  0.7000 -0.3448
  799MOL0     C 5400   8.204   4.506   4.758  0.0767 -0.5610 -0.9035
  799MOL0     C 5401   7.948   3.762   4.312 -0.3978  0.0974 -0.7055
  799MOL0     C 5402   7.868   3.656   4.338 -1.3738  0.2382 -0.2826
  799MOL0     H 5403   7.797   3.207   4.353  0.2249  1.3715 -0.5583
  799MOL0     H 5404   7.701   3.007   4.427  2.3284  1.1787  1.9941
  799MOL0     H 5405   7.242   2.974   4.509  2.1032  0.8247 -1.6434
  799MOL0     H 5406   7.352   3.030   4.643 -2.2661  1.0064  0.4647
  799MOL0     H 5407   7.354   2.749   4.565 -1.8971 -2.4000  2.0720
  799MOL0     H 5408   7.239   2.811   4.686  0.7021  1.0539  2.9536
  799MOL0     H 5409   7.447   2.704   4.771 -1.5297 -1.1009 -0.2396
  799MOL0     H 5410   7.423   2.870   4.831  0.3882 -1.4852  0.4410
  799MOL0     H 5411   7.603   2.808   4.595 -0.1957 -0.6423  0.8500
  799MOL0     H 5412   7.597   2.955   4.683 -0.8141  0.7302  3.0190
  799MOL0     H 5413   7.678   2.679   4.790 -3.0076  0.1284 -0.4543
  799MOL0     H 5414   7.683   2.827   4.892 -3.3672  0.5743 -0.5287
  799MOL0     H 5415   7.823   2.928   4.712 -1.9921  1.2046  3.2293
  799MOL0     H 5416   7.847   2.765   4.637  2.8125  1.2627 -0.2256
  799MOL0     H 5417   7.945   2.864   4.911 -0.3529 -0.2861  1.6199
  799MOL0     H 5418   7.911   2.691   4.882 -3.0219 -0.3739 -0.0278
  799MOL0     H 5419   8.080   2.849   4.682  0.3173  0.4512  0.9867
  799MOL0     H 5420   8.075   2.678   4.734 -3.5285 -0.5358 -1.8721
  799MOL0     H 5421   8.229   2.996   4.738  0.6370  0.1094  0.7604
  799MOL0     H 5422   8.446   3.086   5.049 -2.0472 -0.7673  0.7552
  799MOL0     H 5423   8.396   3.167   4.896 -0.2890 -0.5251 -1.2013
  799MOL0     H 5424   8.549   2.991   4.774  1.0257 -1.4557  0.8110
  799MOL0     H 5425   8.608   2.946   4.937 -0.8895 -0.4830  0.3978
  799MOL0     H 5426   8.628   3.228   4.806 -1.4910 -0.1161  0.3849
  799MOL0     H 5427   8.727   3.167   4.944 -0.3140  0.2148 -0.1166
  799MOL0     H 5428   8.746   3.039   4.683 -2.5156 -1.5859  1.3508
  799MOL0     H 5429   8.849   3.014   4.826  0.6543  0.2619  0.6750
  799MOL0     H 5430   9.000   2.941   4.706 -0.8355  1.5224  2.0135
  799MOL0     H 5431   9.201   2.892   4.571 -0.9550  0.3959 -1.9100
  799MOL0     H 5432   9.622   3.129   4.611  0.5084  0.6481 -1.1888
  799MOL0     H 5433   9.869   3.119   4.587  0.8831 -1.2673  0.5378
  799MOL0     H 5434  10.068   2.963   4.602  2.0044  0.6222 -0.2943
  799MOL0     H 5435  10.077   3.129   4.535  1.5028  0.6453 -2.1629
  799MOL0     H 5436  10.247   3.039   4.359 -0.0282  0.5775 -0.6182
  799MOL0     H 5437  10.236   2.882   4.447 -0.7058  0.5457 -0.6859
  799MOL0     H 5438  10.330   3.037   4.646 -0.0581 -0.0047  0.1003
  799MOL0     H 5439  10.359   3.163   4.534  1.0716 -0.0751 -0.4700
  799MOL0     H 5440  10.518   3.035   4.396 -2.2655  0.0140 -0.7463
  799MOL0     H 5441  10.569   3.032   4.573 -3.0055 -0.3992  3.7918
  799MOL0     H 5442  10.446   2.795   4.572 -1.3533  0.1126 -0.6069
  799MOL0     H 5443  10.623   2.830   4.533  0.7483  2.9949  0.1297
  799MOL0     H 5444  10.567   2.836   4.290 -1.0703 -1.5314 -1.6022
  799MOL0     H 5445  10.403   2.792   4.330  0.8123  0.5301 -1.5742
  799MOL0     H 5446  10.500   2.605   4.239  2.2006 -0.0909  0.0502
  799MOL0     H 5447  10.647   2.620   4.315  0.5247 -0.2545 -0.7572
  799MOL0     H 5448  10.519   2.567   4.551 -0.8488  1.5043 -0.9990
  799MOL0     H 5449  10.532   2.436   4.431  2.3171  0.7881 -4.0791
  799MOL0     H 5450   9.826   2.829   4.275 -0.4826  1.2130 -1.5532
  799MOL0     H 5451   9.590   2.827   4.305  0.6640 -0.5342  0.9880
  799MOL0     H 5452   9.263   3.307   4.525  1.8838 -1.1966  3.6719
  799MOL0     H 5453   9.054   3.355   4.643  1.4487 -0.5797  2.1803
  799MOL0     H 5454   7.319   3.211   4.497 -0.7232  1.0788  1.3784
  799MOL0     H 5455   7.435   3.418   4.431  2.0304  0.9576  0.6280
  799MOL0     H 5456   7.623   3.832   4.503  0.9236 -0.3951  1.7916
  799MOL0     H 5457   7.773   4.011   4.439  0.1596  0.2765 -0.9384
  799MOL0     H 5458   8.027   4.061   4.517 -0.9127 -0.8305  0.0690
  799MOL0     H 5459   7.918   4.163   4.429  0.6299 -0.9104  2.6167
  799MOL0     H 5460   8.219   4.125   4.349  1.5447  2.0068 -1.7087
  799MOL0     H 5461   8.109   4.244   4.275  0.3940 -1.6219 -0.8907
  799MOL0     H 5462   8.227   4.375   4.422 -0.3268  1.0012  1.4361
  799MOL0     H 5463   8.289   4.236   4.512  0.0336  1.7807  0.1286
  799MOL0     H 5464   8.018   4.361   4.554 -1.0690 -0.4790  0.2351
  799MOL0     H 5465   8.082   4.228   4.643  3.6672  0.2416  2.1109
  799MOL0     H 5466   8.231   4.590   4.819  1.4511  1.2007 -3.7299
  799MOL0     H 5467   8.051   3.745   4.282 -1.0207 -1.2712 -2.1726
  799MOL0     H 5468   7.915   3.564   4.306  1.1541  1.1935  0.4140
  800MOL0     O 5469  10.059   9.274   2.462  0.3231 -0.0742 -0.0816
  800MOL0     C 5470  10.105   9.322   2.353 -0.2160  0.2764 -0.0170
  800MOL0     O 5471  10.032   9.365   2.240  0.4699 -0.1439 -0.1427
  800MOL0     C 5472   9.894   9.376   2.228  0.2263  0.0347  0.3704
  800MOL0     C 5473   9.804   9.378   2.337 -0.6411 -0.2822  0.2253
  800MOL0     C 5474   9.672   9.403   2.307  0.2919  0.6429 -0.3371
  800MOL0     C 5475   9.620   9.416   2.177  0.5301  0.3995 -0.2852
  800MOL0     O 5476   9.482   9.417   2.169  0.5531 -0.1243  0.4561
  800MOL0     C 5477   9.425   9.359   2.050 -0.3401  0.2061 -0.2687
  800MOL0     C 5478   9.294   9.284   2.077  0.1687 -1.1774 -0.6250
  800MOL0     C 5479   9.204   9.363   2.178  0.2301  0.3658  0.1772
  800MOL0     C 5480   9.080   9.270   2.200 -0.6956 -0.3609 -0.2348
  800MOL0     C 5481   8.991   9.325   2.311  0.7925  0.5425  0.9665
  800MOL0     C 5482   8.891   9.432   2.262 -0.4530  0.1810 -0.3960
  800MOL0     C 5483   8.783   9.455   2.366 -0.3186 -0.4080 -0.2926
  800MOL0     C 5484   8.648   9.465   2.307  0.2184 -0.0166 -0.0548
  800MOL0     N 5485   8.566   9.540   2.406 -0.4591 -0.4811  0.1365
  800MOL0     C 5486   8.548   9.518   2.539  0.8237  1.0579 -0.1115
  800MOL0     C 5487   8.477   9.620   2.586  0.1258 -0.0727 -0.9769
  800MOL0     C 5488   8.441   9.628   2.723 -0.5618  0.3785  0.2849
  800MOL0     C 5489   8.563   9.659   2.818 -0.9747  0.4984  0.5686
  800MOL0     C 5490   8.518   9.626   2.964  0.4795  0.2024 -0.6421
  800MOL0     C 5491   8.405   9.719   3.010 -0.5641  0.3979 -0.7986
  800MOL0     O 5492   8.273   9.682   2.967  0.3102  0.0611 -0.5416
  800MOL0     C 5493   8.164   9.714   3.052 -0.6836 -0.4615 -1.5592
  800MOL0     C 5494   8.039   9.726   2.994 -0.1338  0.0619 -0.2498
  800MOL0     C 5495   7.928   9.760   3.070  0.0042 -0.7958  0.0487
  800MOL0     C 5496   7.942   9.798   3.199  0.3763  0.8401  0.0561
  800MOL0     C 5497   7.824   9.839   3.281  0.6930  0.3484  0.7398
  800MOL0     O 5498   7.859   9.848   3.415  0.2386 -0.3600  0.1843
  800MOL0     C 5499   7.791   9.915   3.509  0.7805  0.6224 -0.5856
  800MOL0     C 5500   7.688  10.007   3.487  0.9961 -0.6304 -0.0293
  800MOL0     C 5501   7.624  10.073   3.589 -0.3729  0.2434  0.2320
  800MOL0     C 5502   7.648  10.038   3.718  0.1250  0.5668 -0.6592
  800MOL0     O 5503   7.578  10.087   3.828  0.1404 -0.3381  1.0347
  800MOL0     C 5504   7.472  10.001   3.866  0.0793  0.2851 -0.1407
  800MOL0     C 5505   7.350  10.080   3.927  0.7742  0.5433 -0.3320
  800MOL0     C 5506   7.224   9.991   3.945  0.5528  0.8021  0.7543
  800MOL0     C 5507   7.107  10.073   4.003 -0.7546  0.7168  0.0621
  800MOL0     C 5508   6.975   9.991   4.000  0.7113 -0.4770 -0.4326
  800MOL0     C 5509   6.866  10.053   4.094 -0.1608  0.1173 -0.7724
  800MOL0     C 5510   6.731   9.995   4.075 -0.2770  0.5463 -0.1013
  800MOL0     C 5511   6.638  10.098   4.018  0.3842  0.0101  0.0187
  800MOL0    Cl 5512   6.470  10.026   4.020 -0.0820 -0.1899  0.0340
  800MOL0     C 5513   7.743   9.939   3.752 -0.2955  0.8812  0.4347
  800MOL0     C 5514   7.822   9.887   3.644  0.5256  0.2774 -0.1492
  800MOL0     O 5515   7.720   9.874   3.227  0.2628 -0.0240  0.3566
  800MOL0     C 5516   8.071   9.793   3.260  0.3727  0.2641 -0.5892
  800MOL0     C 5517   8.179   9.750   3.188 -0.0916  0.6541  0.9350
  800MOL0     N 5518   8.455   9.704   2.477 -0.7067  0.0946  0.3741
  800MOL0     N 5519   8.497   9.654   2.373 -0.5578  0.0906 -0.5872
  800MOL0     C 5520   9.711   9.407   2.074  1.1589  1.2302  0.5646
  800MOL0     C 5521   9.850   9.405   2.097 -0.1139  0.7144 -0.4554
  800MOL0     C 5522  10.253   9.318   2.335  0.1151  0.0174  0.4530
  800MOL0     C 5523  10.340   9.296   2.445  1.1276  1.1344  0.5631
  800MOL0     C 5524  10.479   9.288   2.425 -0.4882  0.3561 -0.5968
  800MOL0     C 5525  10.532   9.305   2.299 -0.3317  1.0518  0.5847
  800MOL0     O 5526  10.670   9.289   2.276  0.1025  0.0663  0.1110
  800MOL0     C 5527  10.750   9.241   2.376 -0.2731  0.4361 -1.1282
  800MOL0     C 5528  10.894   9.237   2.324  0.1626 -0.0743  0.4594
  800MOL0     C 5529  10.997   9.174   2.420 -0.2934 -0.8573 -0.1057
  800MOL0     C 5530  11.134   9.159   2.352 -0.4551 -0.3856  0.1553
  800MOL0     C 5531  11.221   9.056   2.427  0.7206 -0.0168 -0.0014
  800MOL0     C 5532  11.296   8.982   2.486  0.0470 -0.1789  0.3862
  800MOL0     C 5533  10.452   9.340   2.190  0.6036  0.6942 -0.3189
  800MOL0     C 5534  10.314   9.341   2.210 -0.3322  0.1229  0.2205
  800MOL0     H 5535   9.835   9.373   2.441 -0.4109  2.6454  0.3754
  800MOL0     H 5536   9.594   9.413   2.382  1.2203 -0.1890  0.7756
  800MOL0     H 5537   9.497   9.296   1.997  0.4465  1.0932 -0.2895
  800MOL0     H 5538   9.407   9.447   1.987 -1.2204  1.1635  1.2462
  800MOL0     H 5539   9.308   9.185   2.121  1.7495 -0.4895  0.5108
  800MOL0     H 5540   9.245   9.274   1.980  0.1986 -0.6923 -0.6941
  800MOL0     H 5541   9.180   9.461   2.134  0.6253  0.7236  0.7464
  800MOL0     H 5542   9.256   9.378   2.273  0.8647  0.1153 -0.1211
  800MOL0     H 5543   9.031   9.242   2.106  1.3318 -2.2618 -0.7971
  800MOL0     H 5544   9.107   9.169   2.231 -0.2884 -1.1525 -2.8825
  800MOL0     H 5545   9.056   9.359   2.392 -0.5545  0.2271  2.2361
  800MOL0     H 5546   8.939   9.234   2.344 -0.2726 -1.4426 -4.9301
  800MOL0     H 5547   8.854   9.396   2.166  0.9269  1.0254 -1.2755
  800MOL0     H 5548   8.950   9.522   2.242  0.4993  0.0180  1.4856
  800MOL0     H 5549   8.786   9.372   2.436  2.6129  0.5324  0.8313
  800MOL0     H 5550   8.820   9.543   2.420  0.3537 -1.4293  0.9668
  800MOL0     H 5551   8.606   9.367   2.285  2.9957 -1.1404 -0.8571
  800MOL0     H 5552   8.648   9.513   2.208 -0.9290  2.3447  1.0191
  800MOL0     H 5553   8.586   9.434   2.597  1.9297  0.8026 -1.1852
  800MOL0     H 5554   8.395   9.532   2.749 -0.1806  0.8867  3.0948
  800MOL0     H 5555   8.375   9.713   2.742  1.1019  2.5719 -2.8511
  800MOL0     H 5556   8.601   9.761   2.803  3.4824 -0.9502  0.8696
  800MOL0     H 5557   8.647   9.592   2.803 -1.6889 -0.3988  0.4728
  800MOL0     H 5558   8.468   9.529   2.972 -0.4737  0.7679  0.4584
  800MOL0     H 5559   8.602   9.644   3.031  1.7670 -1.3736 -1.7544
  800MOL0     H 5560   8.417   9.826   2.987  0.1959  0.7339  1.0147
  800MOL0     H 5561   8.410   9.706   3.118  2.4758 -0.2756 -0.9425
  800MOL0     H 5562   8.040   9.722   2.886 -0.1290  1.1886 -0.3084
  800MOL0     H 5563   7.836   9.771   3.013  1.8415 -0.1532 -3.0155
  800MOL0     H 5564   7.644  10.035   3.392  1.7287  0.6548 -0.0145
  800MOL0     H 5565   7.549  10.149   3.567 -1.9731 -1.0485  1.0046
  800MOL0     H 5566   7.512   9.937   3.946 -0.4100 -0.6407 -0.6149
  800MOL0     H 5567   7.440   9.933   3.786 -2.1066  0.5949  0.4287
  800MOL0     H 5568   7.323  10.161   3.859  0.0683  2.1127  1.7163
  800MOL0     H 5569   7.387  10.127   4.018  1.6897 -1.7327  0.5548
  800MOL0     H 5570   7.248   9.904   4.008 -1.8432 -1.7533 -1.6140
  800MOL0     H 5571   7.193   9.945   3.851  1.1243 -0.1188  1.0007
  800MOL0     H 5572   7.142  10.084   4.107  2.6595  0.1248 -0.8869
  800MOL0     H 5573   7.092  10.165   3.946 -3.8397  0.0278 -0.3972
  800MOL0     H 5574   7.003   9.890   4.032  0.6444 -0.1696  0.6394
  800MOL0     H 5575   6.938   9.985   3.898 -3.4862  0.7393  0.8286
  800MOL0     H 5576   6.853  10.159   4.072  2.4371  0.3669 -1.4270
  800MOL0     H 5577   6.894  10.047   4.200  1.8951 -0.2028 -1.2875
  800MOL0     H 5578   6.751   9.917   4.001  2.2117  1.8923 -0.9705
  800MOL0     H 5579   6.689   9.959   4.169  1.5108 -0.5871  0.3196
  800MOL0     H 5580   6.664  10.126   3.916 -1.2064 -1.0278 -0.7179
  800MOL0     H 5581   6.637  10.183   4.087  2.0265 -0.0339  0.1436
  800MOL0     H 5582   7.776   9.922   3.854  1.0130  1.2042  0.0838
  800MOL0     H 5583   7.892   9.805   3.661 -1.5643 -1.2950  1.3479
  800MOL0     H 5584   8.078   9.821   3.364 -3.3328  0.1521 -0.1795
  800MOL0     H 5585   8.273   9.747   3.242  0.3758  2.8298  0.3612
  800MOL0     H 5586   9.683   9.414   1.969 -1.5866  0.8978  1.1933
  800MOL0     H 5587   9.919   9.407   2.013  0.2318 -3.6542 -0.5257
  800MOL0     H 5588  10.295   9.279   2.542 -1.2842  0.2138 -0.6476
  800MOL0     H 5589  10.536   9.256   2.512  1.4812  1.4756 -1.3980
  800MOL0     H 5590  10.718   9.143   2.413  4.2438 -1.5655 -1.9855
  800MOL0     H 5591  10.745   9.317   2.455 -2.3804  0.9151 -1.6322
  800MOL0     H 5592  10.895   9.167   2.240  0.9824 -0.3044  0.6568
  800MOL0     H 5593  10.915   9.342   2.303  0.2443 -0.1186  0.3243
  800MOL0     H 5594  10.960   9.073   2.442  0.0711 -1.6110 -2.6367
  800MOL0     H 5595  11.003   9.238   2.509 -0.5259  1.6565 -1.7979
  800MOL0     H 5596  11.133   9.133   2.246  0.3570 -3.2754  0.7704
  800MOL0     H 5597  11.185   9.256   2.356 -1.6268  0.2291  0.5937
  800MOL0     H 5598  11.362   8.907   2.525 -0.3592 -0.4161  0.6298
  800MOL0     H 5599  10.499   9.357   2.093 -1.5409 -0.5632 -1.6681
  800MOL0     H 5600  10.254   9.343   2.119  1.3190 -4.4082 -1.2902
  801MOL0     O 5601   2.294  10.854   6.477  1.0569  0.0761 -0.5359
  801MOL0     C 5602   2.342  10.792   6.574  0.2739 -0.1128 -0.0657
  801MOL0     O 5603   2.266  10.721   6.659 -0.5603  0.1623  0.0603
  801MOL0     C 5604   2.127  10.719   6.657  0.3323 -0.1124 -0.3052
  801MOL0     C 5605   2.060  10.744   6.777  0.4884  0.0382 -0.3280
  801MOL0     C 5606   1.924  10.741   6.794 -0.0389 -0.1942 -1.0646
  801MOL0     C 5607   1.847  10.695   6.688  0.5142 -0.1472  0.4399
  801MOL0     O 5608   1.711  10.684   6.684 -0.1814 -0.7754 -0.1408
  801MOL0     C 5609   1.641  10.709   6.802  1.3467  0.2623 -0.1755
  801MOL0     C 5610   1.496  10.671   6.779  0.1605 -0.0320 -0.2130
  801MOL0     C 5611   1.408  10.646   6.906 -0.1259 -0.0630 -0.9114
  801MOL0     C 5612   1.390  10.779   7.003  0.2639  0.6750  0.9814
  801MOL0     C 5613   1.274  10.758   7.099 -0.1923 -0.4827 -0.5953
  801MOL0     C 5614   1.312  10.674   7.215  0.1510  0.2701 -0.6087
  801MOL0     C 5615   1.202  10.629   7.299 -0.5751 -0.7659  0.1575
  801MOL0     C 5616   1.109  10.525   7.232 -0.3093 -0.2520 -0.0968
  801MOL0     N 5617   1.005  10.504   7.337 -0.5855 -0.0627  0.6052
  801MOL0     C 5618   0.909  10.590   7.384 -1.1558 -0.1038  0.0532
  801MOL0     C 5619   0.858  10.521   7.488  1.0171  1.1307  1.0743
  801MOL0     C 5620   0.741  10.571   7.572  0.1652 -0.0599 -0.0529
  801MOL0     C 5621   0.609  10.480   7.579 -0.2654  0.1899 -0.5264
  801MOL0     C 5622   0.484  10.553   7.634  0.2424 -0.1447  0.3960
  801MOL0     C 5623   0.371  10.460   7.654 -0.5366  0.2255  0.7690
  801MOL0     O 5624   0.270  10.510   7.743  0.3173  0.5861 -0.2233
  801MOL0     C 5625   0.149  10.443   7.737 -0.0796 -0.3770 -0.7948
  801MOL0     C 5626   0.065  10.484   7.837 -0.4152 -0.0536 -0.3907
  801MOL0     C 5627  -0.061  10.422   7.864  0.4788 -0.5932 -0.0646
  801MOL0     C 5628  -0.112  10.314   7.782 -1.4669 -0.5801 -1.0492
  801MOL0     C 5629  -0.247  10.260   7.792 -0.5261  0.4514  0.7232
  801MOL0     O 5630  -0.322  10.312   7.893  0.4245 -0.0914 -0.3718
  801MOL0     C 5631  -0.450  10.281   7.921 -0.1503  0.2811 -1.1721
  801MOL0     C 5632  -0.475  10.294   8.062 -0.5209 -0.3072 -0.1612
  801MOL0     C 5633  -0.607  10.276   8.114 -0.4333 -0.7932 -0.7593
  801MOL0     C 5634  -0.713  10.248   8.025 -0.0880 -0.1970 -0.1528
  801MOL0     O 5635  -0.839  10.217   8.068 -0.2664  0.0019 -0.3744
  801MOL0     C 5636  -0.858  10.154   8.196  0.4039 -0.5687 -0.3561
  801MOL0     C 5637  -0.989  10.076   8.207  0.7100 -0.2742  0.0049
  801MOL0     C 5638  -1.114  10.161   8.253  0.9522 -0.1128 -0.4649
  801MOL0     C 5639  -1.225  10.062   8.290 -0.4879  0.7480  0.0909
  801MOL0     C 5640  -1.350  10.142   8.351 -0.5162  0.2487  0.0730
  801MOL0     C 5641  -1.474  10.064   8.346  0.1839 -0.0009  0.6292
  801MOL0     C 5642  -1.602  10.113   8.419 -0.5480 -0.2487  0.4627
  801MOL0     C 5643  -1.721  10.020   8.399 -0.3156 -0.3481 -0.4571
  801MOL0    Cl 5644  -1.781  10.026   8.220 -0.7234 -0.0483 -0.6589
  801MOL0     C 5645  -0.687  10.221   7.882 -0.7998 -0.0944  0.1605
  801MOL0     C 5646  -0.556  10.243   7.839 -0.0237  0.5728 -0.6936
  801MOL0     O 5647  -0.280  10.177   7.711  0.2965  0.1445  0.6819
  801MOL0     C 5648  -0.021  10.269   7.683  0.1849 -0.4673 -0.2640
  801MOL0     C 5649   0.108  10.332   7.667 -0.0394  0.1324  0.7519
  801MOL0     N 5650   0.895  10.384   7.468  0.8212  0.1597 -0.4618
  801MOL0     N 5651   0.988  10.371   7.382 -0.3931 -0.1572  0.0438
  801MOL0     C 5652   1.908  10.675   6.560 -0.3520  0.0014 -0.5900
  801MOL0     C 5653   2.047  10.687   6.546  0.7363 -0.2110 -0.5023
  801MOL0     C 5654   2.486  10.789   6.576  0.1966 -0.2151 -0.2621
  801MOL0     C 5655   2.548  10.688   6.651  0.1019 -0.0111 -0.0135
  801MOL0     C 5656   2.690  10.677   6.652  0.4058 -0.1170  0.4636
  801MOL0     C 5657   2.772  10.766   6.578 -0.2103 -0.2064  0.0427
  801MOL0     O 5658   2.911  10.766   6.587  0.1859 -0.5651 -0.1773
  801MOL0     C 5659   2.976  10.636   6.571  0.5013 -0.3799  0.2780
  801MOL0     C 5660   3.127  10.655   6.558 -0.2825  0.0731  0.0034
  801MOL0     C 5661   3.195  10.685   6.699 -0.0711  0.0395  0.3913
  801MOL0     C 5662   3.342  10.724   6.681 -0.0895 -0.0551  0.2570
  801MOL0     C 5663   3.403  10.751   6.811  0.2697  0.1380  0.7120
  801MOL0     C 5664   3.443  10.789   6.916 -0.6506  0.3139 -0.5512
  801MOL0     C 5665   2.709  10.865   6.492  0.0546  0.1142 -0.3112
  801MOL0     C 5666   2.565  10.869   6.488 -0.3795 -0.2898  0.4986
  801MOL0     H 5667   2.113  10.788   6.860 -0.4205 -0.7843  0.7158
  801MOL0     H 5668   1.881  10.761   6.891  1.1500  0.2708 -0.6111
  801MOL0     H 5669   1.649  10.814   6.832  1.9358 -0.1530  1.2017
  801MOL0     H 5670   1.677  10.650   6.887  2.0421 -0.2561 -0.8128
  801MOL0     H 5671   1.496  10.573   6.730  0.6551 -0.1479  0.0073
  801MOL0     H 5672   1.444  10.738   6.710  0.7613 -2.1977 -2.9199
  801MOL0     H 5673   1.464  10.580   6.973 -0.3706  2.2986  1.8366
  801MOL0     H 5674   1.310  10.607   6.880 -0.9531  2.7601 -2.5227
  801MOL0     H 5675   1.474  10.807   7.067  1.5709  0.0874 -0.4244
  801MOL0     H 5676   1.365  10.862   6.937 -1.4616 -1.5500 -1.3917
  801MOL0     H 5677   1.191  10.706   7.051 -0.0183 -2.2462  0.9184
  801MOL0     H 5678   1.238  10.855   7.134 -1.9557 -0.4892 -2.2563
  801MOL0     H 5679   1.385  10.730   7.275 -0.5857 -1.0582  1.6609
  801MOL0     H 5680   1.374  10.594   7.173  2.0681  1.0469  0.5927
  801MOL0     H 5681   1.235  10.581   7.392  0.0473 -1.2710 -0.3135
  801MOL0     H 5682   1.138  10.708   7.337  0.8353  1.3441 -1.5969
  801MOL0     H 5683   1.163  10.435   7.201  0.9018  1.5146 -3.6618
  801MOL0     H 5684   1.062  10.563   7.141 -1.6009 -0.5770  0.4147
  801MOL0     H 5685   0.879  10.689   7.350 -1.3493 -0.8527 -2.1303
  801MOL0     H 5686   0.716  10.674   7.543 -0.3164  0.0311  0.6534
  801MOL0     H 5687   0.771  10.586   7.676  0.7833  0.1257 -0.2527
  801MOL0     H 5688   0.619  10.402   7.655 -4.4028  2.3184  2.6358
  801MOL0     H 5689   0.597  10.433   7.481  0.3935  0.1996 -0.6162
  801MOL0     H 5690   0.508  10.591   7.733 -0.2186 -2.6429  1.5594
  801MOL0     H 5691   0.452  10.636   7.571  1.7748 -1.2147 -1.9476
  801MOL0     H 5692   0.420  10.369   7.692  0.7142  1.1469  1.4125
  801MOL0     H 5693   0.329  10.432   7.557  0.9230 -2.1593  0.7314
  801MOL0     H 5694   0.092  10.563   7.906  0.5379 -1.1817  0.5589
  801MOL0     H 5695  -0.116  10.465   7.948  1.0265 -0.3778  0.1845
  801MOL0     H 5696  -0.404  10.324   8.138 -2.5181 -2.4227  2.7247
  801MOL0     H 5697  -0.625  10.292   8.219  3.5402 -1.6157  0.2228
  801MOL0     H 5698  -0.862  10.244   8.258  1.1601 -1.5456  1.1832
  801MOL0     H 5699  -0.773  10.093   8.227 -0.9839 -1.8835  1.0412
  801MOL0     H 5700  -0.974  10.002   8.286 -0.9178  0.9864  1.5952
  801MOL0     H 5701  -0.998  10.019   8.115  1.5301  0.8407 -0.7921
  801MOL0     H 5702  -1.145  10.234   8.178 -2.3637  0.9564  1.7094
  801MOL0     H 5703  -1.083  10.216   8.343  1.8078 -1.2229 -0.0533
  801MOL0     H 5704  -1.253   9.992   8.210  0.0452 -0.5233  0.9860
  801MOL0     H 5705  -1.188  10.001   8.373  0.9438 -0.1473 -1.1576
  801MOL0     H 5706  -1.355  10.235   8.294  0.0982 -0.0223 -0.4302
  801MOL0     H 5707  -1.337  10.162   8.458 -0.1133  2.2330 -0.3008
  801MOL0     H 5708  -1.455   9.960   8.375 -1.5068 -0.5338 -0.0252
  801MOL0     H 5709  -1.509  10.062   8.242 -0.1371  1.6122  0.6840
  801MOL0     H 5710  -1.574  10.126   8.524 -3.6556  1.7907  1.1991
  801MOL0     H 5711  -1.638  10.213   8.390 -4.1266 -1.4804  0.1291
  801MOL0     H 5712  -1.806  10.047   8.462  0.8706  0.4730  0.8438
  801MOL0     H 5713  -1.677   9.925   8.434  1.0603  0.1331 -0.8184
  801MOL0     H 5714  -0.757  10.196   7.803  0.1824  1.6562 -1.3348
  801MOL0     H 5715  -0.535  10.227   7.733  0.7810  0.3049 -0.5046
  801MOL0     H 5716  -0.044  10.192   7.611  2.4697  0.0910 -1.6700
  801MOL0     H 5717   0.178  10.282   7.601  0.5371  0.7219  0.9090
  801MOL0     H 5718   1.845  10.649   6.476 -1.3361 -0.2705  0.2145
  801MOL0     H 5719   2.088  10.662   6.448  1.7048 -1.1184  0.1106
  801MOL0     H 5720   2.481  10.629   6.712 -1.4250  2.2199  0.5934
  801MOL0     H 5721   2.745  10.596   6.700  1.2421  0.3181  0.2744
  801MOL0     H 5722   2.933  10.584   6.484 -2.8005  1.2798  0.7748
  801MOL0     H 5723   2.969  10.578   6.663  1.5750  1.0829  1.3339
  801MOL0     H 5724   3.165  10.562   6.515 -0.3022 -1.2654  2.6712
  801MOL0     H 5725   3.137  10.735   6.485  1.2606 -0.6038 -0.5624
  801MOL0     H 5726   3.172  10.604   6.769 -3.9412 -1.0010 -1.8046
  801MOL0     H 5727   3.155  10.780   6.736  1.8624  1.2968 -0.6057
  801MOL0     H 5728   3.395  10.642   6.632 -2.7703 -0.4831 -2.1876
  801MOL0     H 5729   3.339  10.808   6.610 -0.7676  0.7417  1.2077
  801MOL0     H 5730   3.459  10.837   7.011  2.3944 -1.4069 -0.0876
  801MOL0     H 5731   2.775  10.916   6.423  1.7233 -0.7154  0.6215
  801MOL0     H 5732   2.516  10.940   6.422  0.5048 -0.5043 -0.4193
  802MOL0     O 5733   4.361   6.594   2.461  0.3654 -0.9228 -0.9143
  802MOL0     C 5734   4.309   6.706   2.444  0.2682  1.2215  0.0037
  802MOL0     O 5735   4.177   6.739   2.454 -0.1826  0.5614  0.1431
  802MOL0     C 5736   4.103   6.638   2.513 -0.1804 -0.2649 -0.5043
  802MOL0     C 5737   4.094   6.513   2.450 -0.5932  0.0524 -0.3539
  802MOL0     C 5738   4.020   6.411   2.511 -0.3366  0.4231  0.3548
  802MOL0     C 5739   3.949   6.437   2.638  0.2652 -0.3268 -0.4466
  802MOL0     O 5740   3.865   6.340   2.688  0.4427 -0.3084 -0.4952
  802MOL0     C 5741   3.779   6.269   2.587  0.3573 -0.3141 -0.4849
  802MOL0     C 5742   3.670   6.191   2.678 -1.2033 -0.0176 -0.2468
  802MOL0     C 5743   3.554   6.133   2.597 -0.5717 -0.2767 -0.3563
  802MOL0     C 5744   3.462   6.248   2.555 -0.0242  0.0484  0.6180
  802MOL0     C 5745   3.310   6.200   2.526 -0.0289 -0.0644 -0.5619
  802MOL0     C 5746   3.287   6.131   2.395  0.6046  0.2979 -0.2929
  802MOL0     C 5747   3.132   6.122   2.369 -0.1165  0.5674 -0.6271
  802MOL0     C 5748   3.092   6.041   2.258  0.3936  0.9973  0.0700
  802MOL0     N 5749   2.949   6.028   2.258 -0.4451 -0.1868  0.7439
  802MOL0     C 5750   2.887   5.908   2.285  0.2087 -0.8414  0.4247
  802MOL0     C 5751   2.756   5.939   2.286  0.0976 -0.1483 -0.2237
  802MOL0     C 5752   2.645   5.841   2.314 -0.0291  0.0992 -0.5575
  802MOL0     C 5753   2.576   5.857   2.459  0.0289 -0.1902 -0.4439
  802MOL0     C 5754   2.446   5.924   2.475 -0.0707 -0.4900  0.6527
  802MOL0     C 5755   2.327   5.870   2.394  0.6887 -0.0343  0.4084
  802MOL0     O 5756   2.206   5.942   2.437  0.2394 -0.2090  0.2812
  802MOL0     C 5757   2.086   5.879   2.424  0.2165 -0.7162  0.2675
  802MOL0     C 5758   1.981   5.911   2.509  0.1007 -0.2163 -0.2936
  802MOL0     C 5759   1.852   5.865   2.494  0.0831  0.2127 -0.2539
  802MOL0     C 5760   1.825   5.771   2.390  0.2749  1.2099  0.3730
  802MOL0     C 5761   1.693   5.705   2.376  1.0319 -0.0382  0.9609
  802MOL0     O 5762   1.599   5.748   2.468 -0.5988 -0.7492 -0.1068
  802MOL0     C 5763   1.470   5.696   2.467 -0.3397 -0.4387 -0.0545
  802MOL0     C 5764   1.394   5.655   2.363  0.0266  0.4527  0.6731
  802MOL0     C 5765   1.259   5.610   2.380  0.2548  0.3812  0.0957
  802MOL0     C 5766   1.199   5.625   2.506 -0.2576  0.1749  0.0217
  802MOL0     O 5767   1.069   5.586   2.541 -0.2438 -0.1467  0.0328
  802MOL0     C 5768   1.013   5.455   2.498  0.6165  0.2985 -0.7026
  802MOL0     C 5769   1.023   5.357   2.613  0.8159 -0.7410 -0.1218
  802MOL0     C 5770   0.955   5.412   2.739  0.3300 -0.6134 -0.2385
  802MOL0     C 5771   0.908   5.299   2.836 -0.5416  0.6236  0.1411
  802MOL0     C 5772   0.813   5.359   2.932 -0.2974  0.8109  0.2639
  802MOL0     C 5773   0.793   5.274   3.056 -0.2864 -0.1797 -0.5992
  802MOL0     C 5774   0.756   5.124   3.038  0.5726  0.2137  0.0807
  802MOL0     C 5775   0.618   5.095   2.978  0.1695  0.9821  0.0940
  802MOL0    Cl 5776   0.628   4.973   2.844  0.7974 -0.1812 -0.0883
  802MOL0     C 5777   1.269   5.683   2.610  0.3074 -0.1413  0.1990
  802MOL0     C 5778   1.410   5.701   2.595 -0.3823 -0.3276  0.8889
  802MOL0     O 5779   1.673   5.631   2.284  0.1467  0.8790 -0.1816
  802MOL0     C 5780   1.931   5.722   2.310 -0.0998 -0.3994 -0.0884
  802MOL0     C 5781   2.061   5.787   2.326  0.2882  1.0761 -0.2989
  802MOL0     N 5782   2.743   6.072   2.257 -0.9146 -0.3218  0.3155
  802MOL0     N 5783   2.860   6.120   2.235  1.2527  0.1071  0.8066
  802MOL0     C 5784   3.947   6.568   2.686  0.5156 -0.1692 -0.0365
  802MOL0     C 5785   4.020   6.665   2.619 -0.5253  0.5817  0.4459
  802MOL0     C 5786   4.405   6.820   2.401  0.3660  0.3713 -0.6054
  802MOL0     C 5787   4.540   6.791   2.367 -0.3599  0.7957 -0.8275
  802MOL0     C 5788   4.633   6.894   2.343 -0.5982 -0.7874  0.9051
  802MOL0     C 5789   4.588   7.026   2.330 -0.2540 -0.2770  0.2099
  802MOL0     O 5790   4.679   7.122   2.299  0.3892 -0.7837 -0.2213
  802MOL0     C 5791   4.637   7.250   2.248  0.6481  0.5607  0.6488
  802MOL0     C 5792   4.741   7.297   2.150 -0.8521  0.0667  0.7231
  802MOL0     C 5793   4.862   7.380   2.214  0.1003  0.6470  0.0457
  802MOL0     C 5794   4.967   7.409   2.108  0.0251  0.0385 -0.1434
  802MOL0     C 5795   5.046   7.301   2.060  0.7548 -0.3303 -0.8570
  802MOL0     C 5796   5.102   7.196   2.026 -0.4685 -0.0500  0.2232
  802MOL0     C 5797   4.455   7.055   2.360 -0.4315 -0.6463 -0.3137
  802MOL0     C 5798   4.366   6.951   2.394 -0.6650 -0.0877 -0.0656
  802MOL0     H 5799   4.149   6.490   2.359  1.7646 -0.3958  1.0872
  802MOL0     H 5800   4.014   6.311   2.468 -3.4004 -0.4488  2.4331
  802MOL0     H 5801   3.839   6.207   2.519 -2.8440 -0.1811 -3.6795
  802MOL0     H 5802   3.723   6.346   2.535 -0.2660 -1.1114 -1.0155
  802MOL0     H 5803   3.628   6.262   2.751 -0.2478 -1.3194  1.6566
  802MOL0     H 5804   3.710   6.108   2.736 -3.2110 -1.5380 -0.9105
  802MOL0     H 5805   3.506   6.058   2.661  2.8668 -0.6911  2.0142
  802MOL0     H 5806   3.599   6.079   2.513 -2.0188 -1.9442 -0.1423
  802MOL0     H 5807   3.461   6.333   2.623 -0.2652  2.3606 -2.1092
  802MOL0     H 5808   3.508   6.285   2.463 -1.1261 -0.6000 -0.2189
  802MOL0     H 5809   3.252   6.293   2.524  1.0318  0.6293 -0.0270
  802MOL0     H 5810   3.285   6.136   2.610  2.7006  0.0694  0.4522
  802MOL0     H 5811   3.324   6.028   2.404  3.2387  0.6412 -4.4710
  802MOL0     H 5812   3.347   6.180   2.318 -0.5506  1.3056 -0.5717
  802MOL0     H 5813   3.094   6.078   2.461  3.2623  0.3102  0.8095
  802MOL0     H 5814   3.105   6.224   2.341  1.2009  1.1396  0.0820
  802MOL0     H 5815   3.138   5.942   2.264 -2.3078 -0.4136 -0.7889
  802MOL0     H 5816   3.111   6.087   2.161  0.1025  0.1065 -0.4259
  802MOL0     H 5817   2.931   5.811   2.304  0.8730 -1.0831 -1.9889
  802MOL0     H 5818   2.692   5.743   2.314  0.8749  0.4617  1.7900
  802MOL0     H 5819   2.571   5.848   2.234  1.4966  0.0653 -2.0247
  802MOL0     H 5820   2.650   5.912   2.518  2.3306 -0.4199 -2.9385
  802MOL0     H 5821   2.571   5.761   2.512  0.4239 -0.1272 -0.2872
  802MOL0     H 5822   2.424   5.918   2.582  0.7614  0.1662  0.8646
  802MOL0     H 5823   2.456   6.030   2.449 -0.3071  0.2058  3.1879
  802MOL0     H 5824   2.315   5.762   2.409 -0.9577 -0.2911 -2.0608
  802MOL0     H 5825   2.347   5.886   2.288 -2.7872 -0.5688 -0.4569
  802MOL0     H 5826   2.000   5.990   2.581 -1.5622 -0.2858  0.2733
  802MOL0     H 5827   1.776   5.894   2.565 -0.4904 -1.9455  0.0596
  802MOL0     H 5828   1.441   5.652   2.265  2.4014  0.4219  1.7467
  802MOL0     H 5829   1.210   5.560   2.297  1.5257  2.0208 -1.7300
  802MOL0     H 5830   1.069   5.423   2.409  3.1080  2.4118 -0.0142
  802MOL0     H 5831   0.905   5.460   2.481  0.3665 -3.8683 -1.3360
  802MOL0     H 5832   1.122   5.322   2.644  1.7560 -0.4530 -2.5972
  802MOL0     H 5833   0.972   5.264   2.586 -0.9712 -0.4433  1.9294
  802MOL0     H 5834   0.868   5.473   2.714  0.8766  0.7456  1.0670
  802MOL0     H 5835   1.026   5.479   2.789 -0.5997  1.8618 -2.0484
  802MOL0     H 5836   0.868   5.227   2.764  1.2709  0.2531 -0.5499
  802MOL0     H 5837   0.990   5.245   2.885  0.6329  1.8066 -0.4603
  802MOL0     H 5838   0.718   5.390   2.889 -0.4357  2.0540  1.3687
  802MOL0     H 5839   0.841   5.460   2.965 -1.4713  1.4538 -0.6481
  802MOL0     H 5840   0.711   5.323   3.109 -0.6323 -1.4199  0.0723
  802MOL0     H 5841   0.885   5.281   3.116  0.2425  2.1878 -1.5933
  802MOL0     H 5842   0.828   5.070   2.975  2.4431  1.3258  1.1933
  802MOL0     H 5843   0.757   5.085   3.141  2.3459  1.3458  0.5203
  802MOL0     H 5844   0.567   5.185   2.944  0.9839  1.0307 -1.0379
  802MOL0     H 5845   0.556   5.046   3.054 -0.8447 -0.4823 -1.5913
  802MOL0     H 5846   1.234   5.698   2.712  0.3526  0.2849  0.1536
  802MOL0     H 5847   1.462   5.734   2.684 -2.0372 -1.3774  2.3160
  802MOL0     H 5848   1.919   5.650   2.229  2.0954 -0.6409 -0.2472
  802MOL0     H 5849   2.135   5.755   2.253 -0.3550 -0.6314 -0.2393
  802MOL0     H 5850   3.887   6.604   2.769  2.2913  3.0603  0.0193
  802MOL0     H 5851   4.031   6.762   2.666  0.9494  1.1074 -0.8796
  802MOL0     H 5852   4.569   6.688   2.385 -0.2974  1.2315  1.9194
  802MOL0     H 5853   4.736   6.867   2.326  0.4936  3.1204  0.1977
  802MOL0     H 5854   4.622   7.328   2.324 -0.9027  0.2052  0.7407
  802MOL0     H 5855   4.542   7.235   2.195  1.9212 -1.0626 -1.3406
  802MOL0     H 5856   4.769   7.207   2.095 -0.8660 -0.4349  1.5201
  802MOL0     H 5857   4.692   7.370   2.084  0.3203 -0.5864 -0.9349
  802MOL0     H 5858   4.911   7.334   2.300  0.6390  2.9512  1.0485
  802MOL0     H 5859   4.818   7.470   2.257 -0.5288  0.8302 -0.9519
  802MOL0     H 5860   4.928   7.448   2.014  1.3655 -0.0108 -0.7384
  802MOL0     H 5861   5.039   7.484   2.141  1.8796 -1.4917 -0.5374
  802MOL0     H 5862   5.143   7.102   1.996  0.0153  0.1912  0.1254
  802MOL0     H 5863   4.410   7.154   2.352 -1.0662 -0.9292 -0.2666
  802MOL0     H 5864   4.259   6.969   2.398 -0.7618  0.2013 -2.4466
  803MOL0     O 5865   6.218   2.589  11.118 -0.2824 -0.4045  0.4096
  803MOL0     C 5866   6.232   2.685  11.045  0.1024  0.2928 -0.3135
  803MOL0     O 5867   6.146   2.706  10.934 -0.6535  0.7080 -0.3435
  803MOL0     C 5868   6.033   2.643  10.897 -0.2225  0.5725  0.4109
  803MOL0     C 5869   5.982   2.531  10.972 -0.3032  0.0251  0.4347
  803MOL0     C 5870   5.868   2.468  10.926 -0.2702  0.0951  0.2372
  803MOL0     C 5871   5.816   2.497  10.795  0.1133  0.2934 -0.0867
  803MOL0     O 5872   5.724   2.406  10.737  0.1074 -0.3805 -0.2492
  803MOL0     C 5873   5.682   2.416  10.599 -0.0585 -0.4938  0.7155
  803MOL0     C 5874   5.570   2.309  10.581 -0.1301 -0.2692 -0.1955
  803MOL0     C 5875   5.533   2.283  10.440  1.4915  0.3341  0.1306
  803MOL0     C 5876   5.423   2.374  10.370 -0.2508  0.3396  0.0768
  803MOL0     C 5877   5.395   2.314  10.237  0.0452  0.2672  0.3506
  803MOL0     C 5878   5.332   2.414  10.143 -0.1219  0.1614 -0.0448
  803MOL0     C 5879   5.193   2.446  10.194 -0.1916  0.0732 -0.1254
  803MOL0     C 5880   5.086   2.477  10.085 -0.3900  0.1346 -0.2756
  803MOL0     N 5881   5.139   2.592  10.015 -0.7021  0.4676  0.0162
  803MOL0     C 5882   5.223   2.589   9.905 -0.5632 -1.1160 -0.6667
  803MOL0     C 5883   5.272   2.718   9.899  2.4645 -0.4094  0.8509
  803MOL0     C 5884   5.375   2.766   9.808 -0.0062  0.2142  0.7174
  803MOL0     C 5885   5.510   2.730   9.884 -0.5048  0.1240 -0.8902
  803MOL0     C 5886   5.621   2.804   9.808 -0.4463 -0.3912  0.1320
  803MOL0     C 5887   5.767   2.786   9.867  0.1443  0.0452 -0.1544
  803MOL0     O 5888   5.850   2.897   9.817  0.5203 -0.4944  0.7305
  803MOL0     C 5889   5.987   2.879   9.830  0.0943 -0.3432 -0.4776
  803MOL0     C 5890   6.078   2.964   9.772  0.4634  0.2883 -0.5145
  803MOL0     C 5891   6.218   2.942   9.781  0.0147 -0.1891 -1.0108
  803MOL0     C 5892   6.275   2.839   9.860 -0.3024  0.9903 -0.2647
  803MOL0     C 5893   6.421   2.823   9.868 -0.8679 -0.0757  0.2893
  803MOL0     O 5894   6.492   2.933   9.822 -0.0099  0.3221 -0.2376
  803MOL0     C 5895   6.624   2.934   9.844 -0.0865  0.3862 -1.1246
  803MOL0     C 5896   6.718   2.870   9.764 -0.0044 -0.3727 -0.6176
  803MOL0     C 5897   6.855   2.888   9.790  0.3229  0.6013 -0.9716
  803MOL0     C 5898   6.904   2.963   9.899  0.2940  0.1370  0.3429
  803MOL0     O 5899   7.034   2.991   9.923 -0.2082  0.7341  0.3659
  803MOL0     C 5900   7.135   2.896   9.876  0.9293 -0.2267  0.1302
  803MOL0     C 5901   7.263   2.946   9.941  0.6389  1.2098  0.6218
  803MOL0     C 5902   7.255   2.921  10.088  0.8360  0.0538 -0.1619
  803MOL0     C 5903   7.385   2.975  10.162  0.7041  0.1335 -0.3009
  803MOL0     C 5904   7.388   2.938  10.314 -0.1745  0.5891 -0.0418
  803MOL0     C 5905   7.290   3.027  10.390  0.2483 -0.6312 -0.5396
  803MOL0     C 5906   7.282   2.987  10.531 -1.1970 -0.1706 -0.5857
  803MOL0     C 5907   7.228   3.090  10.628  0.6219  0.0548  0.3695
  803MOL0    Cl 5908   7.072   3.119  10.553  0.2467 -0.8914  0.1268
  803MOL0     C 5909   6.811   3.017   9.988 -0.8735 -0.4666  0.3266
  803MOL0     C 5910   6.674   3.009   9.957  0.3172  0.3396 -0.6580
  803MOL0     O 5911   6.472   2.718   9.924  0.5877  0.1744  0.3130
  803MOL0     C 5912   6.184   2.759   9.925  0.0832  0.3039 -0.3560
  803MOL0     C 5913   6.046   2.781   9.911 -0.2374  0.2823 -0.1304
  803MOL0     N 5914   5.213   2.798   9.994  0.1435 -0.1315  0.5756
  803MOL0     N 5915   5.125   2.718  10.059 -0.6107  0.3462 -0.5681
  803MOL0     C 5916   5.863   2.610  10.733  0.1319  0.4132  0.3042
  803MOL0     C 5917   5.973   2.691  10.773 -0.2601  0.3003  0.1274
  803MOL0     C 5918   6.342   2.784  11.076  0.3073  0.7698  0.0783
  803MOL0     C 5919   6.344   2.913  11.022 -0.1061 -0.0022 -0.0178
  803MOL0     C 5920   6.446   3.000  11.058  0.1370  0.8185 -0.4032
  803MOL0     C 5921   6.539   2.968  11.156 -0.3415  0.1772 -0.3397
  803MOL0     O 5922   6.643   3.041  11.191  0.1391  0.2198 -0.6265
  803MOL0     C 5923   6.678   3.165  11.121  0.5415 -0.4508  0.5889
  803MOL0     C 5924   6.746   3.134  10.991 -0.6840  0.2840 -0.1150
  803MOL0     C 5925   6.870   3.046  11.026 -0.1708 -0.5254  0.8066
  803MOL0     C 5926   6.957   3.085  11.146 -0.1005  0.0204 -0.1549
  803MOL0     C 5927   7.083   3.010  11.148 -0.5023  0.4274  0.0265
  803MOL0     C 5928   7.187   2.946  11.142  0.5089 -0.4851  0.6714
  803MOL0     C 5929   6.524   2.842  11.219 -0.4859 -0.4827  0.9932
  803MOL0     C 5930   6.433   2.754  11.179  0.3938  0.5587 -0.9956
  803MOL0     H 5931   6.028   2.495  11.064 -0.3124 -0.0315  0.4168
  803MOL0     H 5932   5.820   2.399  10.994 -0.0747 -0.8832 -0.5887
  803MOL0     H 5933   5.767   2.401  10.532 -1.2632  0.6770 -1.1748
  803MOL0     H 5934   5.641   2.515  10.578  1.1530  0.4474  2.5240
  803MOL0     H 5935   5.485   2.340  10.642  2.1289  0.1712  2.9544
  803MOL0     H 5936   5.613   2.218  10.625  1.9753 -0.3584 -2.1905
  803MOL0     H 5937   5.492   2.182  10.451 -4.6047  2.5589  2.3947
  803MOL0     H 5938   5.619   2.291  10.373 -0.2305  1.5482 -2.0954
  803MOL0     H 5939   5.333   2.362  10.431  0.0176  1.0207  0.6214
  803MOL0     H 5940   5.469   2.473  10.367  0.1025  0.1506 -1.7702
  803MOL0     H 5941   5.323   2.232  10.242 -0.0123  0.0003 -2.8401
  803MOL0     H 5942   5.484   2.281  10.183 -0.8001 -2.9155  0.7253
  803MOL0     H 5943   5.321   2.383  10.039 -1.3608  0.8239 -0.1335
  803MOL0     H 5944   5.396   2.502  10.140 -2.7205  2.1851 -1.9880
  803MOL0     H 5945   5.144   2.367  10.251 -1.4164  0.1801 -0.9931
  803MOL0     H 5946   5.193   2.538  10.252  1.3623  0.0392 -0.0326
  803MOL0     H 5947   4.991   2.504  10.133 -0.2414  0.3129 -0.0825
  803MOL0     H 5948   5.077   2.385  10.026  4.6364  0.7502 -2.4877
  803MOL0     H 5949   5.263   2.510   9.842  4.7615  0.4571  0.1865
  803MOL0     H 5950   5.373   2.875   9.803 -0.0877  0.1508 -2.0170
  803MOL0     H 5951   5.378   2.732   9.704 -0.3349  3.2267 -0.3878
  803MOL0     H 5952   5.543   2.625   9.881  0.1777  0.3569 -1.8577
  803MOL0     H 5953   5.497   2.761   9.988  2.4385  2.4745 -1.1204
  803MOL0     H 5954   5.624   2.772   9.703 -1.2724 -0.0861  0.0151
  803MOL0     H 5955   5.598   2.910   9.815  0.2555 -0.2368  0.1977
  803MOL0     H 5956   5.795   2.687   9.830 -1.2932  0.0246 -1.2561
  803MOL0     H 5957   5.768   2.792   9.976 -0.4049 -0.3529 -0.1220
  803MOL0     H 5958   6.037   3.039   9.704 -0.5498  1.3810  1.2256
  803MOL0     H 5959   6.282   3.002   9.716  1.1483 -0.0177  0.2292
  803MOL0     H 5960   6.689   2.809   9.678  3.1521 -1.8775 -0.7454
  803MOL0     H 5961   6.925   2.842   9.721  0.0397 -0.8103 -0.3434
  803MOL0     H 5962   7.150   2.908   9.769  0.8774 -1.9842 -0.1020
  803MOL0     H 5963   7.095   2.797   9.900 -1.0876  0.5290  0.0877
  803MOL0     H 5964   7.284   3.050   9.917  0.6791  0.6902 -1.8691
  803MOL0     H 5965   7.350   2.895   9.900  0.2221 -0.0284  1.2121
  803MOL0     H 5966   7.251   2.816  10.116  0.6543 -0.4461 -1.9664
  803MOL0     H 5967   7.166   2.971  10.129 -0.8014 -0.9880 -2.2427
  803MOL0     H 5968   7.471   2.926  10.117 -0.8886 -2.6643 -0.5245
  803MOL0     H 5969   7.388   3.084  10.155  0.5585  0.1085 -0.7996
  803MOL0     H 5970   7.486   2.956  10.357  0.4825 -1.9577 -0.3560
  803MOL0     H 5971   7.351   2.836  10.324 -2.0773  1.1501 -0.8501
  803MOL0     H 5972   7.189   3.016  10.349  0.7132 -1.4222 -1.5379
  803MOL0     H 5973   7.316   3.133  10.387 -1.0718 -0.3030 -1.8570
  803MOL0     H 5974   7.213   2.903  10.545  0.3002 -0.8957  4.2153
  803MOL0     H 5975   7.381   2.951  10.559 -0.1974  1.5773 -1.7131
  803MOL0     H 5976   7.295   3.177  10.631  0.3458  0.2571  0.9016
  803MOL0     H 5977   7.219   3.039  10.725  0.9239  2.7138  1.9046
  803MOL0     H 5978   6.837   3.080  10.073 -5.0518  0.0866  1.3947
  803MOL0     H 5979   6.612   3.074  10.017  0.6874 -0.1284  0.2540
  803MOL0     H 5980   6.209   2.675   9.988 -1.3583  1.3142  1.6727
  803MOL0     H 5981   5.981   2.715   9.968 -2.6174  2.8005  0.2629
  803MOL0     H 5982   5.823   2.647  10.639 -0.0902 -1.4089 -0.3407
  803MOL0     H 5983   6.006   2.785  10.731  0.9305 -0.6008 -1.0633
  803MOL0     H 5984   6.288   2.948  10.935 -0.5905 -0.5916  0.0578
  803MOL0     H 5985   6.446   3.102  11.023  0.7415  1.1320  0.4781
  803MOL0     H 5986   6.748   3.227  11.176  1.0244 -0.0860 -0.4088
  803MOL0     H 5987   6.588   3.223  11.097  1.6564  0.8982 -0.4911
  803MOL0     H 5988   6.681   3.080  10.922 -1.6405  2.8754 -1.4051
  803MOL0     H 5989   6.779   3.232  10.953  0.7396  0.9956  2.7172
  803MOL0     H 5990   6.924   3.051  10.931  1.7015 -0.8253  1.8123
  803MOL0     H 5991   6.839   2.941  11.033  1.6463 -1.0120  2.7163
  803MOL0     H 5992   6.984   3.191  11.150  1.8376 -0.4229 -0.3057
  803MOL0     H 5993   6.907   3.067  11.242  3.0080 -2.6776  1.1539
  803MOL0     H 5994   7.280   2.893  11.145  1.2421  0.7538  0.8687
  803MOL0     H 5995   6.595   2.821  11.299 -0.2571  0.3638  1.0206
  803MOL0     H 5996   6.429   2.654  11.223 -0.3259  0.2612 -1.7250
  804MOL0     O 5997   7.441   6.119   0.418  0.3555 -0.0633 -0.3739
  804MOL0     C 5998   7.394   6.151   0.303 -0.6609  1.0794 -0.2583
  804MOL0     O 5999   7.266   6.134   0.260  0.2827  0.0121 -0.3134
  804MOL0     C 6000   7.175   6.081   0.345 -0.4888  0.5650  0.3142
  804MOL0     C 6001   7.198   5.954   0.391  0.1238  0.7247  0.5535
  804MOL0     C 6002   7.107   5.888   0.476  0.1244 -0.1203 -0.5283
  804MOL0     C 6003   6.986   5.948   0.518  0.0702 -0.4790  0.1881
  804MOL0     O 6004   6.900   5.878   0.605 -0.3164 -0.5241  1.2721
  804MOL0     C 6005   6.785   5.952   0.648  0.4210 -0.0807  0.1362
  804MOL0     C 6006   6.674   5.868   0.709 -0.2531  0.5639  0.4407
  804MOL0     C 6007   6.550   5.950   0.743  0.1385  0.1163 -0.1560
  804MOL0     C 6008   6.448   5.884   0.831 -0.1741 -1.3603 -0.9930
  804MOL0     C 6009   6.400   5.746   0.797  0.3816  0.4672 -0.1094
  804MOL0     C 6010   6.287   5.708   0.901  0.4710  0.8014  0.2817
  804MOL0     C 6011   6.218   5.579   0.884  0.0557 -0.4357  0.3944
  804MOL0     C 6012   6.282   5.449   0.939 -0.1319 -0.4244  0.4088
  804MOL0     N 6013   6.185   5.363   1.001  0.1847 -0.9546  0.1911
  804MOL0     C 6014   6.170   5.322   1.128  0.7842  0.4079 -0.2411
  804MOL0     C 6015   6.063   5.237   1.121  0.0466 -0.1705 -0.2633
  804MOL0     C 6016   6.009   5.164   1.236 -0.2744 -0.0237  0.5676
  804MOL0     C 6017   5.867   5.205   1.279  0.0690 -0.3541 -0.2459
  804MOL0     C 6018   5.838   5.150   1.418  0.8724 -1.0468  0.0866
  804MOL0     C 6019   5.710   5.219   1.478 -0.0600 -0.4519  0.3701
  804MOL0     O 6020   5.601   5.226   1.384 -0.0948  1.2063  0.1179
  804MOL0     C 6021   5.471   5.239   1.432  0.1068  0.5222  0.4905
  804MOL0     C 6022   5.395   5.314   1.344 -0.0265  0.3557 -0.4384
  804MOL0     C 6023   5.264   5.340   1.376  0.4313  0.4954  0.5549
  804MOL0     C 6024   5.212   5.305   1.510  0.3664  0.3050  0.2811
  804MOL0     C 6025   5.073   5.350   1.537 -0.2753 -0.2021  0.5275
  804MOL0     O 6026   5.029   5.341   1.673 -0.1028  0.1473  0.2249
  804MOL0     C 6027   4.910   5.401   1.705  0.5726  0.2275 -0.6202
  804MOL0     C 6028   4.903   5.540   1.728  0.7530  0.6138  0.7068
  804MOL0     C 6029   4.785   5.600   1.757 -0.8133  0.0037 -0.0316
  804MOL0     C 6030   4.660   5.533   1.750  0.2961 -0.7954 -0.2474
  804MOL0     O 6031   4.534   5.590   1.769  0.2540  0.4394 -0.1836
  804MOL0     C 6032   4.500   5.706   1.688 -0.2446 -0.5961  0.1668
  804MOL0     C 6033   4.353   5.762   1.699  0.5153 -0.4320 -0.2463
  804MOL0     C 6034   4.338   5.831   1.842  0.1210 -0.2317  0.1198
  804MOL0     C 6035   4.196   5.852   1.883  0.2757 -0.2897 -0.1455
  804MOL0     C 6036   4.183   5.916   2.018 -0.6457  0.3502 -1.5025
  804MOL0     C 6037   4.044   5.968   2.065 -1.0296  0.1249  0.8957
  804MOL0     C 6038   3.935   5.852   2.068 -0.5387 -0.7696  0.1371
  804MOL0     C 6039   3.862   5.857   1.931 -0.1223  0.4470 -1.0775
  804MOL0    Cl 6040   3.747   5.727   1.940 -0.1198 -0.1223  0.1672
  804MOL0     C 6041   4.673   5.393   1.731  0.6163  0.3943  0.6723
  804MOL0     C 6042   4.793   5.326   1.715 -0.2156 -0.3750  0.4967
  804MOL0     O 6043   4.998   5.377   1.440 -0.5008  0.0915 -0.4107
  804MOL0     C 6044   5.289   5.222   1.594  0.5494  0.6381 -0.1675
  804MOL0     C 6045   5.413   5.181   1.552 -0.3580 -0.4496 -0.1489
  804MOL0     N 6046   6.002   5.248   0.999  0.1596 -0.2652 -0.4647
  804MOL0     N 6047   6.074   5.320   0.927  0.0813 -0.3215  0.9111
  804MOL0     C 6048   6.965   6.078   0.467  0.5698  0.8641 -0.3840
  804MOL0     C 6049   7.053   6.144   0.389  0.1077  0.1897  0.0495
  804MOL0     C 6050   7.494   6.227   0.212  0.3663 -0.1279 -0.0516
  804MOL0     C 6051   7.632   6.228   0.250 -1.2282  0.0877  0.9809
  804MOL0     C 6052   7.729   6.285   0.166 -0.0464 -0.5587  0.5868
  804MOL0     C 6053   7.689   6.337   0.043  0.1613  0.0946  0.3174
  804MOL0     O 6054   7.786   6.388  -0.033  0.9339 -0.6473  0.4592
  804MOL0     C 6055   7.769   6.445  -0.162 -0.7904 -0.0666 -0.5451
  804MOL0     C 6056   7.731   6.598  -0.136  0.3243  0.6850  0.2318
  804MOL0     C 6057   7.736   6.673  -0.269  0.3126  0.7335 -0.0218
  804MOL0     C 6058   7.704   6.825  -0.255  0.8086 -0.5914  0.0166
  804MOL0     C 6059   7.724   6.883  -0.387  0.4710 -0.6796 -0.2409
  804MOL0     C 6060   7.754   6.937  -0.488 -0.0578  0.0820 -0.3394
  804MOL0     C 6061   7.551   6.338   0.011 -0.4245  0.2091  0.7986
  804MOL0     C 6062   7.454   6.276   0.090 -0.1315  0.6566  0.0468
  804MOL0     H 6063   7.283   5.900   0.351  1.1972  1.2751  1.9863
  804MOL0     H 6064   7.122   5.786   0.512  0.1647 -0.2652 -0.9434
  804MOL0     H 6065   6.746   5.998   0.557  4.1802 -0.7322 -2.0440
  804MOL0     H 6066   6.814   6.036   0.713  1.7075 -1.1177  0.9629
  804MOL0     H 6067   6.701   5.827   0.806  0.2139  0.6686  0.3533
  804MOL0     H 6068   6.640   5.784   0.648  0.1352 -0.5867  1.7722
  804MOL0     H 6069   6.492   5.972   0.653 -2.8087  1.5923  1.9586
  804MOL0     H 6070   6.589   6.047   0.775  3.2283 -0.5141 -1.6519
  804MOL0     H 6071   6.484   5.903   0.933 -1.2216  1.8601 -1.1157
  804MOL0     H 6072   6.367   5.957   0.829  2.4229  1.7549 -1.1201
  804MOL0     H 6073   6.485   5.677   0.790  0.1761  0.0974  0.8118
  804MOL0     H 6074   6.357   5.753   0.697  1.0999  2.2277 -0.3332
  804MOL0     H 6075   6.207   5.783   0.898  0.6346  0.9495 -1.9874
  804MOL0     H 6076   6.329   5.718   1.002  1.3467  0.7194 -0.0704
  804MOL0     H 6077   6.115   5.584   0.922  0.0318 -0.5387  0.3457
  804MOL0     H 6078   6.188   5.572   0.779 -2.9646 -0.1465  1.1381
  804MOL0     H 6079   6.360   5.486   1.007 -2.2255 -0.3267  2.9257
  804MOL0     H 6080   6.323   5.395   0.853 -1.3562  0.2481 -0.6337
  804MOL0     H 6081   6.226   5.348   1.217  0.2197  0.0549  0.2233
  804MOL0     H 6082   6.083   5.178   1.315  1.1353 -1.1556 -0.4851
  804MOL0     H 6083   6.005   5.057   1.214 -0.6312 -0.0833  0.9350
  804MOL0     H 6084   5.787   5.176   1.211  1.0099 -1.4391 -0.9284
  804MOL0     H 6085   5.859   5.314   1.282 -0.4409 -0.3914 -0.1345
  804MOL0     H 6086   5.823   5.042   1.423 -0.2867 -0.9383 -0.6838
  804MOL0     H 6087   5.918   5.164   1.492 -0.7999 -0.2934  1.8325
  804MOL0     H 6088   5.730   5.323   1.506  3.6197 -0.7096 -0.8751
  804MOL0     H 6089   5.674   5.170   1.569 -0.6482  1.6646  1.3314
  804MOL0     H 6090   5.451   5.342   1.256 -1.0080  3.2782 -0.2461
  804MOL0     H 6091   5.201   5.393   1.306  0.5100  1.0002  0.8588
  804MOL0     H 6092   4.997   5.594   1.732  2.0799 -1.5750  0.5858
  804MOL0     H 6093   4.797   5.703   1.790  2.4988  0.2271 -1.5696
  804MOL0     H 6094   4.534   5.689   1.586  0.3948 -0.6219  0.3791
  804MOL0     H 6095   4.554   5.791   1.732 -1.7910  0.6809 -0.3352
  804MOL0     H 6096   4.287   5.675   1.698  0.8934 -0.7203 -1.1805
  804MOL0     H 6097   4.336   5.834   1.618 -0.7969 -2.6543 -2.0807
  804MOL0     H 6098   4.398   5.922   1.849  1.2441 -1.0780  3.3044
  804MOL0     H 6099   4.391   5.768   1.914 -0.1068  0.6789  1.1026
  804MOL0     H 6100   4.146   5.912   1.807  0.8678 -0.8225 -0.9673
  804MOL0     H 6101   4.144   5.756   1.899  0.3114 -0.1023  1.1643
  804MOL0     H 6102   4.247   6.005   2.020 -1.0783  0.6620  0.6369
  804MOL0     H 6103   4.225   5.854   2.098  1.2138  2.7336 -0.5364
  804MOL0     H 6104   4.009   6.052   2.003 -0.0302 -0.0805  0.0132
  804MOL0     H 6105   4.064   6.002   2.167 -1.3633 -0.6654  1.2292
  804MOL0     H 6106   3.988   5.758   2.088  3.1795  1.0120 -0.4835
  804MOL0     H 6107   3.865   5.886   2.145 -0.9465  1.6465 -1.1949
  804MOL0     H 6108   3.930   5.837   1.848  0.5543  1.9071 -0.9067
  804MOL0     H 6109   3.815   5.953   1.908 -1.5502  0.3731  1.2549
  804MOL0     H 6110   4.582   5.334   1.746 -0.1596  1.1591 -0.7802
  804MOL0     H 6111   4.786   5.218   1.712 -4.8963 -0.2507 -1.2682
  804MOL0     H 6112   5.246   5.184   1.687 -0.5409 -0.3281 -1.0461
  804MOL0     H 6113   5.478   5.125   1.618  1.1850  0.4958 -0.7970
  804MOL0     H 6114   6.875   6.135   0.487  1.2358  1.3570  1.3144
  804MOL0     H 6115   7.026   6.246   0.363  0.0609 -0.4192 -2.5782
  804MOL0     H 6116   7.663   6.195   0.349  1.0193  3.1357  1.4461
  804MOL0     H 6117   7.831   6.288   0.203 -0.3033  2.3988  1.2529
  804MOL0     H 6118   7.688   6.395  -0.217 -0.3861 -1.7740  0.3307
  804MOL0     H 6119   7.869   6.439  -0.205 -0.6132 -1.1670 -0.0298
  804MOL0     H 6120   7.629   6.607  -0.099  1.1426 -0.3240  3.0336
  804MOL0     H 6121   7.796   6.643  -0.059  1.3174 -0.7376  0.2712
  804MOL0     H 6122   7.657   6.631  -0.332 -3.0388  1.7710  3.1040
  804MOL0     H 6123   7.833   6.664  -0.317 -0.2612  0.9328 -1.2630
  804MOL0     H 6124   7.606   6.849  -0.213  1.9730 -1.1541  3.4322
  804MOL0     H 6125   7.780   6.863  -0.186  1.3937 -0.7098 -0.5606
  804MOL0     H 6126   7.772   6.983  -0.583 -3.6578  0.9300 -0.7695
  804MOL0     H 6127   7.518   6.383  -0.082 -1.9165  1.8048  2.0304
  804MOL0     H 6128   7.351   6.272   0.056 -0.1369  1.4792 -0.0557
  805MOL0     O 6129   3.920   6.518   6.677 -0.2454 -0.0607 -0.5299
  805MOL0     C 6130   3.971   6.533   6.787 -0.0065 -0.3642 -0.2671
  805MOL0     O 6131   3.906   6.519   6.909  0.0412 -0.3892 -0.6993
  805MOL0     C 6132   3.776   6.489   6.911  0.0684  1.0975  0.0873
  805MOL0     C 6133   3.675   6.540   6.828 -0.0023 -0.3783  0.5931
  805MOL0     C 6134   3.544   6.495   6.835  0.1632 -0.3670  0.3287
  805MOL0     C 6135   3.507   6.401   6.935  0.7058 -0.2630  0.6889
  805MOL0     O 6136   3.374   6.384   6.968 -0.7851 -0.6718  0.2385
  805MOL0     C 6137   3.277   6.483   6.925  0.3741  0.2573 -0.4689
  805MOL0     C 6138   3.141   6.452   6.994  0.4280  1.0257  0.0850
  805MOL0     C 6139   3.045   6.361   6.909 -0.0839 -0.2179 -0.2984
  805MOL0     C 6140   2.924   6.322   6.985 -0.4501 -0.6620  0.4834
  805MOL0     C 6141   2.817   6.256   6.896 -0.5689  0.1614 -1.2214
  805MOL0     C 6142   2.678   6.222   6.967 -0.1814  0.0007  0.3206
  805MOL0     C 6143   2.629   6.315   7.081  0.3568 -0.0212 -0.3133
  805MOL0     C 6144   2.559   6.438   7.021  0.6053  0.1270  0.4414
  805MOL0     N 6145   2.472   6.493   7.124  0.7804  0.5724 -0.6644
  805MOL0     C 6146   2.356   6.429   7.154 -0.4547  0.8407  0.4252
  805MOL0     C 6147   2.285   6.520   7.232  0.0370  0.5726 -0.4475
  805MOL0     C 6148   2.149   6.504   7.300  0.1235 -0.8391 -0.0505
  805MOL0     C 6149   2.069   6.641   7.310 -0.5200  0.2486  0.8580
  805MOL0     C 6150   1.967   6.643   7.427  0.5872  0.4503  1.0190
  805MOL0     C 6151   1.848   6.547   7.407  1.3119  0.0603 -0.3285
  805MOL0     O 6152   1.763   6.583   7.297 -0.1424  1.2561 -0.2619
  805MOL0     C 6153   1.655   6.507   7.267  0.9492  0.4781 -0.3840
  805MOL0     C 6154   1.564   6.564   7.174  1.1363  0.0935  0.2039
  805MOL0     C 6155   1.442   6.504   7.140 -0.7050  0.5043 -0.2318
  805MOL0     C 6156   1.399   6.391   7.215  0.4092 -0.9326 -0.3141
  805MOL0     C 6157   1.267   6.329   7.181 -0.0422 -0.2455  0.4955
  805MOL0     O 6158   1.186   6.397   7.095  0.0245 -0.6362 -0.4597
  805MOL0     C 6159   1.066   6.349   7.051  0.2167  0.3019 -0.1296
  805MOL0     C 6160   1.022   6.370   6.920  0.4823  0.4156 -0.1136
  805MOL0     C 6161   0.898   6.337   6.872  0.4378 -0.3484  0.8422
  805MOL0     C 6162   0.811   6.267   6.956  0.4146  0.4180 -0.1728
  805MOL0     O 6163   0.687   6.226   6.917  0.6338  0.2080  0.3880
  805MOL0     C 6164   0.603   6.296   6.824 -0.0462 -0.7036 -0.3621
  805MOL0     C 6165   0.459   6.250   6.855  0.0852  0.6421 -0.2445
  805MOL0     C 6166   0.369   6.334   6.772  0.2162 -0.5796  0.0825
  805MOL0     C 6167   0.360   6.478   6.809  0.5005 -0.5752 -0.6372
  805MOL0     C 6168   0.257   6.556   6.722  0.4607 -0.0633  0.8521
  805MOL0     C 6169   0.259   6.526   6.570  0.1437 -0.4471  0.5794
  805MOL0     C 6170   0.172   6.635   6.489 -0.7840  0.4555  0.2210
  805MOL0     C 6171   0.169   6.613   6.344  0.0335  0.0038  0.5820
  805MOL0    Cl 6172   0.326   6.686   6.272 -0.0435 -0.2114 -0.1293
  805MOL0     C 6173   0.844   6.244   7.091  0.4139 -0.0751  0.4762
  805MOL0     C 6174   0.970   6.287   7.138  0.0406 -0.2530 -0.6482
  805MOL0     O 6175   1.240   6.218   7.226 -0.2872  0.3854 -0.3801
  805MOL0     C 6176   1.484   6.325   7.308  0.8228  0.3471  0.0917
  805MOL0     C 6177   1.605   6.392   7.338  0.0640 -0.4276 -0.2688
  805MOL0     N 6178   2.367   6.633   7.247 -0.1822 -0.4966  0.1233
  805MOL0     N 6179   2.474   6.619   7.181 -1.0151 -0.2397  0.5461
  805MOL0     C 6180   3.605   6.355   7.021  0.1892  0.7259 -0.3567
  805MOL0     C 6181   3.738   6.395   7.011 -0.7330  0.1250 -0.0256
  805MOL0     C 6182   4.117   6.551   6.801 -0.8257 -0.3023 -0.4345
  805MOL0     C 6183   4.201   6.583   6.689 -0.1895 -0.0912 -0.1837
  805MOL0     C 6184   4.330   6.600   6.707 -0.5443 -0.6979  0.3336
  805MOL0     C 6185   4.404   6.595   6.827 -0.4093 -0.4272 -0.7686
  805MOL0     O 6186   4.541   6.593   6.855 -0.7549  0.1160 -0.4244
  805MOL0     C 6187   4.618   6.584   6.743  0.0866  0.3779 -0.3010
  805MOL0     C 6188   4.762   6.558   6.790  0.5285  0.4947  0.2535
  805MOL0     C 6189   4.844   6.502   6.678 -0.5739  0.8689 -0.8000
  805MOL0     C 6190   4.983   6.479   6.717  0.5668  0.3803  0.3967
  805MOL0     C 6191   5.062   6.415   6.613  0.7392 -0.3223  0.1850
  805MOL0     C 6192   5.122   6.349   6.535 -0.2243 -1.1687  0.3674
  805MOL0     C 6193   4.325   6.570   6.933 -0.5389 -0.7854  0.1760
  805MOL0     C 6194   4.185   6.541   6.925 -0.3487 -0.0380 -0.0433
  805MOL0     H 6195   3.711   6.613   6.756  1.9840  1.5025  3.2533
  805MOL0     H 6196   3.470   6.550   6.778  1.0938  1.3975  0.7256
  805MOL0     H 6197   3.251   6.470   6.819  0.5573 -2.2425 -0.2676
  805MOL0     H 6198   3.302   6.585   6.955 -0.0878  0.6912 -1.5098
  805MOL0     H 6199   3.080   6.541   7.013  0.1107  0.7121  0.5595
  805MOL0     H 6200   3.150   6.406   7.093 -0.4437 -1.2243 -0.7922
  805MOL0     H 6201   3.096   6.271   6.873  2.8556  1.2285 -0.0235
  805MOL0     H 6202   3.027   6.415   6.815 -1.3040  0.5120  0.3189
  805MOL0     H 6203   2.940   6.261   7.075  1.0688 -0.8665  0.0936
  805MOL0     H 6204   2.877   6.416   7.017 -1.3366 -1.5202  1.8483
  805MOL0     H 6205   2.852   6.164   6.848  0.7856 -0.3536  0.6526
  805MOL0     H 6206   2.804   6.319   6.807  0.8003  3.8919  1.0214
  805MOL0     H 6207   2.680   6.128   7.024 -1.9353 -0.5891 -0.5298
  805MOL0     H 6208   2.601   6.211   6.890  0.5581  3.4489 -1.0713
  805MOL0     H 6209   2.566   6.261   7.152  1.9905 -0.4115  0.9224
  805MOL0     H 6210   2.714   6.336   7.146  1.2352 -1.4119 -0.9670
  805MOL0     H 6211   2.509   6.399   6.933  0.6829 -0.7328  0.7691
  805MOL0     H 6212   2.636   6.508   6.986  0.4936 -1.0656 -2.4031
  805MOL0     H 6213   2.316   6.333   7.123  0.7843  0.3976  0.1333
  805MOL0     H 6214   2.149   6.462   7.401 -4.4262  0.8994  0.8976
  805MOL0     H 6215   2.092   6.426   7.249  0.7745  0.2941 -2.6568
  805MOL0     H 6216   2.000   6.641   7.225 -0.3911 -2.3895  0.6615
  805MOL0     H 6217   2.127   6.733   7.305  0.4787 -0.4329 -2.4457
  805MOL0     H 6218   2.008   6.628   7.527  1.4483 -0.0309  0.5949
  805MOL0     H 6219   1.926   6.744   7.438 -0.3818  0.0128  1.5795
  805MOL0     H 6220   1.790   6.536   7.499 -1.2464 -1.3633 -1.9937
  805MOL0     H 6221   1.888   6.448   7.381 -1.7288 -1.4565  0.3742
  805MOL0     H 6222   1.586   6.659   7.126 -0.8881  0.9894  0.9146
  805MOL0     H 6223   1.381   6.555   7.066 -0.7558  0.2935 -0.3379
  805MOL0     H 6224   1.085   6.424   6.850 -2.2992  2.7084 -1.0650
  805MOL0     H 6225   0.872   6.345   6.767  0.2581  1.2485  0.9954
  805MOL0     H 6226   0.630   6.264   6.723 -0.4916 -1.0921 -0.3631
  805MOL0     H 6227   0.615   6.403   6.842 -1.2887 -0.6535  0.2675
  805MOL0     H 6228   0.437   6.261   6.962  0.3862 -0.4836 -0.0535
  805MOL0     H 6229   0.446   6.142   6.839  1.1816  0.8659 -3.3205
  805MOL0     H 6230   0.274   6.280   6.779 -0.2820 -0.1219 -2.2932
  805MOL0     H 6231   0.397   6.324   6.666  0.4091  1.8722 -0.1521
  805MOL0     H 6232   0.335   6.484   6.915  4.9212 -0.9673  0.5947
  805MOL0     H 6233   0.457   6.523   6.788  1.2003 -1.2017  1.0912
  805MOL0     H 6234   0.278   6.664   6.726 -2.4017  0.5552  1.8190
  805MOL0     H 6235   0.157   6.540   6.763 -0.2482  4.9230  1.7327
  805MOL0     H 6236   0.218   6.429   6.541  0.4765  0.0245 -1.5807
  805MOL0     H 6237   0.362   6.522   6.535  0.3644 -1.6056  1.3190
  805MOL0     H 6238   0.070   6.623   6.525 -0.4210  0.0494  1.1344
  805MOL0     H 6239   0.199   6.737   6.518 -0.5322  0.0052  1.6039
  805MOL0     H 6240   0.101   6.681   6.294 -2.1657 -0.3083  2.9351
  805MOL0     H 6241   0.145   6.511   6.312 -0.6431  0.2200  0.4026
  805MOL0     H 6242   0.770   6.192   7.152 -1.3845 -0.4058 -1.8587
  805MOL0     H 6243   0.983   6.253   7.240  0.8046 -2.9893 -1.5942
  805MOL0     H 6244   1.458   6.226   7.342  1.8759  0.4908  1.3596
  805MOL0     H 6245   1.659   6.354   7.424  3.6989  1.7703 -1.3655
  805MOL0     H 6246   3.567   6.277   7.086 -1.9047  2.1104  0.2002
  805MOL0     H 6247   3.814   6.357   7.078 -1.0231  1.2436  0.9741
  805MOL0     H 6248   4.157   6.596   6.590 -2.0241  1.0695  0.7458
  805MOL0     H 6249   4.389   6.640   6.626 -1.8621 -0.6806 -0.6431
  805MOL0     H 6250   4.606   6.684   6.702  0.4932  0.4310 -0.2929
  805MOL0     H 6251   4.572   6.525   6.663 -2.3858  2.4875 -0.5451
  805MOL0     H 6252   4.799   6.655   6.824  0.9460 -0.5707  3.0804
  805MOL0     H 6253   4.776   6.498   6.880  2.1879  0.6431  0.1339
  805MOL0     H 6254   4.828   6.570   6.595  1.5633  1.4176 -0.8011
  805MOL0     H 6255   4.803   6.406   6.644  0.2096 -0.4563  1.6876
  805MOL0     H 6256   5.020   6.580   6.737 -0.7537  1.3254 -1.6154
  805MOL0     H 6257   4.987   6.415   6.806 -0.0925  0.9230  0.8253
  805MOL0     H 6258   5.183   6.289   6.470 -1.0749  0.5605 -2.2012
  805MOL0     H 6259   4.371   6.563   7.031 -0.1314 -1.9808 -0.0837
  805MOL0     H 6260   4.137   6.510   7.017  0.0284 -0.9828 -0.1584
  806MOL0     O 6261  10.235   6.012   2.988  0.6870  0.3040  0.5531
  806MOL0     C 6262  10.184   6.069   3.084 -0.7495 -0.8879  0.7670
  806MOL0     O 6263  10.069   6.144   3.087  0.2543  0.0297  0.2813
  806MOL0     C 6264   9.960   6.130   3.000  0.2364  0.1767  1.3589
  806MOL0     C 6265   9.971   6.089   2.864 -0.0521  0.3360 -0.1211
  806MOL0     C 6266   9.856   6.084   2.780 -0.1721  0.2327 -0.6191
  806MOL0     C 6267   9.731   6.121   2.839  0.2950  0.9185  0.2086
  806MOL0     O 6268   9.611   6.112   2.779  0.3345  0.0929 -0.0512
  806MOL0     C 6269   9.582   5.996   2.699 -0.3183 -0.0897 -0.2009
  806MOL0     C 6270   9.473   6.041   2.607 -0.0029 -0.0098 -0.1811
  806MOL0     C 6271   9.332   6.046   2.674 -0.1750  0.1493  0.5945
  806MOL0     C 6272   9.226   6.109   2.583  0.4857 -0.8507  0.2013
  806MOL0     C 6273   9.251   6.259   2.565 -0.4565  0.7287  1.0153
  806MOL0     C 6274   9.123   6.334   2.565  0.1853  0.2488  0.5647
  806MOL0     C 6275   9.019   6.301   2.461  0.3064 -0.6485 -0.0771
  806MOL0     C 6276   8.897   6.403   2.449 -0.1173  0.3320 -1.1802
  806MOL0     N 6277   8.804   6.371   2.343 -0.6367 -0.1330  0.5708
  806MOL0     C 6278   8.679   6.302   2.351  0.8282  0.0474 -0.1734
  806MOL0     C 6279   8.626   6.315   2.229  0.3378  0.2222  0.1506
  806MOL0     C 6280   8.489   6.266   2.187 -0.6698 -0.3209 -0.1383
  806MOL0     C 6281   8.477   6.268   2.040  0.1197  0.0514  1.0199
  806MOL0     C 6282   8.348   6.214   1.981  0.1774 -0.4586  0.0793
  806MOL0     C 6283   8.224   6.295   2.021  0.5690  0.4333 -0.4964
  806MOL0     O 6284   8.117   6.225   1.952 -0.3521 -0.2582 -0.5801
  806MOL0     C 6285   7.988   6.267   1.967  0.5490 -0.3455  0.2436
  806MOL0     C 6286   7.958   6.406   2.004  0.0308  1.0310  0.8499
  806MOL0     C 6287   7.827   6.446   2.002  0.3804 -0.8079 -0.6801
  806MOL0     C 6288   7.721   6.364   1.960 -0.4400  0.3204  0.0700
  806MOL0     C 6289   7.585   6.423   1.942 -0.2223  0.0537 -1.2098
  806MOL0     O 6290   7.502   6.351   1.867 -0.3299  0.0536 -0.0883
  806MOL0     C 6291   7.378   6.404   1.856  0.5446 -0.1305  0.3784
  806MOL0     C 6292   7.357   6.505   1.764  0.7096 -0.0513  0.8780
  806MOL0     C 6293   7.227   6.554   1.740  0.6025  0.0174 -0.0492
  806MOL0     C 6294   7.116   6.504   1.815  0.6633 -0.2574  0.3644
  806MOL0     O 6295   6.982   6.533   1.783 -0.7643 -0.4356  0.6928
  806MOL0     C 6296   6.970   6.594   1.655  0.9140 -0.1106 -0.0540
  806MOL0     C 6297   6.824   6.582   1.618  0.5459  0.4280 -0.2389
  806MOL0     C 6298   6.741   6.693   1.694 -0.1543 -0.0472  0.1914
  806MOL0     C 6299   6.589   6.668   1.688  0.0013 -0.3603  0.4027
  806MOL0     C 6300   6.522   6.773   1.786 -0.3406  0.3229  0.1048
  806MOL0     C 6301   6.373   6.733   1.808 -0.6314 -0.1450  0.0918
  806MOL0     C 6302   6.313   6.828   1.927 -1.2321  0.4702 -0.0216
  806MOL0     C 6303   6.164   6.826   1.949  1.2940 -0.6053  0.3076
  806MOL0    Cl 6304   6.095   6.879   1.796 -0.2718  0.2428  0.2801
  806MOL0     C 6305   7.150   6.405   1.910 -0.3432 -0.3392 -0.7847
  806MOL0     C 6306   7.279   6.350   1.937  0.1202 -0.8872 -0.1952
  806MOL0     O 6307   7.569   6.539   1.980  0.7895  0.3164  0.0891
  806MOL0     C 6308   7.747   6.227   1.929  0.6794 -0.6012 -0.8271
  806MOL0     C 6309   7.877   6.178   1.936 -0.2098  0.2638  0.8022
  806MOL0     N 6310   8.725   6.378   2.142 -0.1601  0.6044 -0.7377
  806MOL0     N 6311   8.824   6.412   2.213 -0.1099 -0.3015  0.3897
  806MOL0     C 6312   9.726   6.153   2.969  0.9051  0.4531 -0.3706
  806MOL0     C 6313   9.837   6.155   3.056 -0.6950 -0.6208  1.0448
  806MOL0     C 6314  10.274   6.072   3.206  0.3628 -0.0594  0.8398
  806MOL0     C 6315  10.410   6.063   3.183  1.1230 -0.0212 -0.0988
  806MOL0     C 6316  10.497   6.071   3.289  0.3452  0.6557  0.6304
  806MOL0     C 6317  10.452   6.094   3.418 -0.4972 -0.0670 -0.0635
  806MOL0     O 6318  10.534   6.114   3.529  0.1497  0.3355  0.0904
  806MOL0     C 6319  10.674   6.068   3.531 -0.0983 -0.2099  0.5156
  806MOL0     C 6320  10.758   6.190   3.482 -0.3266 -0.3771  0.4417
  806MOL0     C 6321  10.907   6.175   3.513 -0.2437  0.4433 -0.2309
  806MOL0     C 6322  11.003   6.256   3.415  0.6698  0.0238 -0.0195
  806MOL0     C 6323  11.137   6.214   3.440  0.5940  0.1940  0.0717
  806MOL0     C 6324  11.256   6.184   3.451 -0.2053  0.4666  0.4756
  806MOL0     C 6325  10.313   6.109   3.438 -0.5135 -0.0026 -0.2557
  806MOL0     C 6326  10.225   6.103   3.334  0.1114 -0.5482  0.2382
  806MOL0     H 6327  10.071   6.070   2.826 -0.7596  2.4200 -3.3402
  806MOL0     H 6328   9.864   6.039   2.681 -0.5800  0.5042 -0.7791
  806MOL0     H 6329   9.542   5.921   2.768 -2.9345  3.1274  2.1005
  806MOL0     H 6330   9.658   5.966   2.627 -0.5384 -2.4026  0.4578
  806MOL0     H 6331   9.457   5.969   2.526 -1.2711 -1.1178  1.0009
  806MOL0     H 6332   9.493   6.136   2.557 -0.5463  0.0147 -0.3627
  806MOL0     H 6333   9.336   6.113   2.760  1.0560  2.3021 -1.0350
  806MOL0     H 6334   9.302   5.943   2.695 -1.3869  0.4940  0.6242
  806MOL0     H 6335   9.229   6.060   2.485  0.1494  0.4715 -0.4895
  806MOL0     H 6336   9.127   6.086   2.624 -0.2663  0.5061 -0.7623
  806MOL0     H 6337   9.296   6.277   2.467 -2.4400  1.4156  0.1725
  806MOL0     H 6338   9.323   6.296   2.639 -1.9076 -0.0772  2.9271
  806MOL0     H 6339   9.142   6.441   2.554  0.9134 -0.1501 -3.5578
  806MOL0     H 6340   9.088   6.324   2.668 -1.6928 -1.6869 -0.2008
  806MOL0     H 6341   9.060   6.289   2.360 -2.7952 -1.1302 -1.3756
  806MOL0     H 6342   8.981   6.199   2.475 -0.3468 -0.4756 -0.5340
  806MOL0     H 6343   8.931   6.505   2.426  1.4414  0.6644  2.1166
  806MOL0     H 6344   8.841   6.412   2.542 -0.7898  1.7297 -1.6811
  806MOL0     H 6345   8.621   6.275   2.438 -0.8494  0.9826 -0.9594
  806MOL0     H 6346   8.413   6.336   2.223 -2.6009 -1.6647 -1.4310
  806MOL0     H 6347   8.468   6.167   2.228 -1.8727  0.1674  0.4633
  806MOL0     H 6348   8.554   6.204   1.998  2.0887  1.1974  2.6819
  806MOL0     H 6349   8.499   6.374   2.025  1.7874  0.0252  2.8764
  806MOL0     H 6350   8.364   6.225   1.873  3.0853  1.7942  0.6095
  806MOL0     H 6351   8.334   6.106   1.997  1.0908 -0.4476  1.0757
  806MOL0     H 6352   8.233   6.398   1.986  0.5203  1.5919  2.6332
  806MOL0     H 6353   8.211   6.304   2.129  0.9450  0.4648 -0.4511
  806MOL0     H 6354   8.046   6.462   2.036  1.5810 -1.3838  1.0729
  806MOL0     H 6355   7.809   6.550   2.026 -1.1054 -0.6474 -2.3117
  806MOL0     H 6356   7.444   6.524   1.703  2.1062 -0.4176  2.6834
  806MOL0     H 6357   7.216   6.632   1.665 -2.0634  0.6580  0.8864
  806MOL0     H 6358   7.021   6.533   1.580  1.1609  0.1328 -0.0858
  806MOL0     H 6359   7.009   6.696   1.645 -3.1476  1.3943 -3.0342
  806MOL0     H 6360   6.781   6.485   1.647 -2.8590  1.9189  0.1834
  806MOL0     H 6361   6.807   6.598   1.511 -0.4410  1.4820  0.0663
  806MOL0     H 6362   6.769   6.791   1.656 -0.4352  0.1076  0.3824
  806MOL0     H 6363   6.778   6.689   1.797  1.4255 -0.2917 -0.3557
  806MOL0     H 6364   6.546   6.691   1.590 -3.9741  4.9767  2.8982
  806MOL0     H 6365   6.565   6.568   1.727  0.1128  0.0433  1.5596
  806MOL0     H 6366   6.527   6.877   1.752  1.6839  0.6112  1.1309
  806MOL0     H 6367   6.570   6.783   1.884 -0.9446  3.8783  0.1777
  806MOL0     H 6368   6.366   6.627   1.834  0.1792  0.1311  1.5256
  806MOL0     H 6369   6.318   6.738   1.714 -2.2298 -0.3826  0.9751
  806MOL0     H 6370   6.365   6.806   2.021 -0.4312  2.5655  0.0757
  806MOL0     H 6371   6.344   6.927   1.892  0.5099 -0.2632 -0.6502
  806MOL0     H 6372   6.136   6.889   2.034 -3.3344  0.6849 -1.8870
  806MOL0     H 6373   6.128   6.726   1.973  2.0598 -1.2985 -1.2891
  806MOL0     H 6374   7.068   6.374   1.975 -0.0988  0.1641 -0.2281
  806MOL0     H 6375   7.296   6.265   2.003 -2.6452 -1.5420 -0.2232
  806MOL0     H 6376   7.666   6.157   1.918  1.6909 -1.6266 -2.0368
  806MOL0     H 6377   7.901   6.076   1.908  0.0137 -0.3671  3.0294
  806MOL0     H 6378   9.633   6.182   3.018 -0.3508 -0.9672 -1.7762
  806MOL0     H 6379   9.825   6.187   3.159 -2.3949  1.2039  0.3447
  806MOL0     H 6380  10.449   6.038   3.085 -0.6039  1.4408 -1.2321
  806MOL0     H 6381  10.603   6.055   3.270  0.3488  2.7712 -1.5739
  806MOL0     H 6382  10.693   5.983   3.465 -1.6149 -0.5253  0.4429
  806MOL0     H 6383  10.690   6.034   3.634  1.2867  2.1340  1.1520
  806MOL0     H 6384  10.734   6.213   3.378 -0.8859 -0.1746  0.6115
  806MOL0     H 6385  10.737   6.277   3.545 -0.5346 -1.1609  1.4855
  806MOL0     H 6386  10.933   6.070   3.495 -0.3667  1.1749 -7.6033
  806MOL0     H 6387  10.928   6.212   3.613 -1.8741 -0.3962  0.4605
  806MOL0     H 6388  10.975   6.241   3.311  0.9463 -0.1181 -0.0741
  806MOL0     H 6389  10.981   6.361   3.435  1.2468  0.3192 -0.9152
  806MOL0     H 6390  11.360   6.176   3.477 -0.0366 -0.3963 -0.4084
  806MOL0     H 6391  10.278   6.141   3.536  2.0688 -1.3572  1.2219
  806MOL0     H 6392  10.119   6.117   3.348  0.3610  0.3592  1.3688
  807MOL0     O 6393   1.787   6.334  10.831  0.5192  0.2200  0.2609
  807MOL0     C 6394   1.875   6.257  10.868  0.2932 -0.1655  0.7693
  807MOL0     O 6395   1.865   6.117  10.856  0.0923  0.0652  0.7577
  807MOL0     C 6396   1.744   6.055  10.807 -1.0138 -0.6092 -0.4479
  807MOL0     C 6397   1.628   6.064  10.875 -0.1599  0.1572 -0.9554
  807MOL0     C 6398   1.513   5.993  10.836 -0.2592 -0.9940 -0.3691
  807MOL0     C 6399   1.518   5.911  10.720  0.6218 -0.6977  0.1430
  807MOL0     O 6400   1.398   5.844  10.691  0.1634 -0.1988 -0.7415
  807MOL0     C 6401   1.392   5.767  10.569  1.1730  0.5886  0.5784
  807MOL0     C 6402   1.250   5.729  10.529 -0.4992 -0.3579 -0.2509
  807MOL0     C 6403   1.176   5.652  10.645  0.3659 -0.2638  0.0587
  807MOL0     C 6404   1.027   5.626  10.625  0.0845  0.4094 -0.8531
  807MOL0     C 6405   1.013   5.543  10.497  0.5639  0.6804 -0.6667
  807MOL0     C 6406   0.874   5.470  10.504 -0.2306  0.9178  0.1449
  807MOL0     C 6407   0.833   5.399  10.376  0.3794 -0.0856 -0.0500
  807MOL0     C 6408   0.686   5.361  10.379 -0.1112 -0.6721 -1.2917
  807MOL0     N 6409   0.642   5.267  10.281  0.8512  0.3572  0.0411
  807MOL0     C 6410   0.518   5.203  10.280  0.0957 -0.4127  0.4221
  807MOL0     C 6411   0.526   5.116  10.177  0.4130  0.0810  0.8803
  807MOL0     C 6412   0.424   5.018  10.121 -0.2857  0.1474  0.2730
  807MOL0     C 6413   0.283   5.014  10.176 -0.6954  0.2937  0.1457
  807MOL0     C 6414   0.191   4.912  10.113 -0.2481  1.2665  0.4920
  807MOL0     C 6415   0.061   4.891  10.184 -0.2073 -0.0153 -0.4937
  807MOL0     O 6416  -0.013   5.007  10.161  0.3633  0.0616 -0.5595
  807MOL0     C 6417  -0.148   4.992  10.175 -0.3326 -0.4617  0.2939
  807MOL0     C 6418  -0.219   4.901  10.252 -0.9685 -0.2842  0.1797
  807MOL0     C 6419  -0.359   4.899  10.253  0.0365 -0.0523  0.3070
  807MOL0     C 6420  -0.432   4.985  10.168  0.3981  0.0419  0.6607
  807MOL0     C 6421  -0.579   4.988  10.172 -0.4172  0.9980  0.7997
  807MOL0     O 6422  -0.655   5.084  10.113  0.4505  0.4727 -0.2838
  807MOL0     C 6423  -0.780   5.051  10.059 -0.1549  0.6812 -0.5323
  807MOL0     C 6424  -0.876   5.152  10.066 -0.6936 -0.6702 -0.0640
  807MOL0     C 6425  -1.007   5.129  10.014  0.3030  0.4431 -0.1206
  807MOL0     C 6426  -1.038   5.017   9.936  0.2203 -0.6007  0.1612
  807MOL0     O 6427  -1.162   4.992   9.873 -0.4590  0.2763 -0.0688
  807MOL0     C 6428  -1.245   5.102   9.849 -0.1093 -0.6728  0.3369
  807MOL0     C 6429  -1.377   5.065   9.774  0.3030  0.2121  0.1869
  807MOL0     C 6430  -1.428   5.201   9.730  0.6222  0.1978 -0.3644
  807MOL0     C 6431  -1.557   5.188   9.652 -0.3321 -0.1597  0.1912
  807MOL0     C 6432  -1.609   5.331   9.620 -0.7118 -0.2181  0.3822
  807MOL0     C 6433  -1.745   5.329   9.550  0.3069  0.0268  0.4050
  807MOL0     C 6434  -1.733   5.283   9.400 -0.2479  0.1666  0.4879
  807MOL0     C 6435  -1.865   5.247   9.335 -0.2377 -0.1859 -1.3092
  807MOL0    Cl 6436  -1.922   5.095   9.408  0.3658 -0.1833  0.0064
  807MOL0     C 6437  -0.945   4.911   9.940 -1.0741  0.3166  0.6080
  807MOL0     C 6438  -0.822   4.932  10.001 -1.1105 -0.5889  0.6671
  807MOL0     O 6439  -0.627   4.887  10.235 -0.0998 -0.5642  0.2954
  807MOL0     C 6440  -0.363   5.080  10.090  0.4540  0.2991 -0.0406
  807MOL0     C 6441  -0.224   5.081  10.094  0.1259  0.1909  0.5162
  807MOL0     N 6442   0.650   5.130  10.120 -0.2451 -1.1054 -0.0969
  807MOL0     N 6443   0.722   5.219  10.183 -0.1706  0.5716  0.2187
  807MOL0     C 6444   1.638   5.906  10.643 -1.2162  0.0405  0.1075
  807MOL0     C 6445   1.756   5.978  10.694 -0.2345  0.3320  0.4027
  807MOL0     C 6446   2.012   6.304  10.885 -0.2285 -0.0615 -0.3811
  807MOL0     C 6447   2.118   6.221  10.916  0.0632 -0.3216  0.8533
  807MOL0     C 6448   2.246   6.264  10.912 -0.1880  0.7714  0.5632
  807MOL0     C 6449   2.285   6.396  10.886  0.5684  0.1910  0.5021
  807MOL0     O 6450   2.419   6.430  10.880  0.0261  0.2506 -0.4477
  807MOL0     C 6451   2.454   6.552  10.954  0.1563  0.3486  0.3808
  807MOL0     C 6452   2.605   6.578  10.951 -0.4050 -0.3604  0.2690
  807MOL0     C 6453   2.680   6.479  11.040 -0.0608 -0.4337 -0.0884
  807MOL0     C 6454   2.833   6.514  11.042  0.6667  0.8518  0.4070
  807MOL0     C 6455   2.899   6.451  11.159 -0.1304 -0.3055  1.0446
  807MOL0     C 6456   2.960   6.401  11.250  0.0941 -0.1062  0.0869
  807MOL0     C 6457   2.183   6.479  10.841 -0.0037 -0.2635 -0.1118
  807MOL0     C 6458   2.054   6.437  10.840  0.6773  0.0515  0.0349
  807MOL0     H 6459   1.633   6.129  10.962 -0.6559  1.4854 -1.8937
  807MOL0     H 6460   1.431   6.003  10.907  0.3314 -0.8092  0.2917
  807MOL0     H 6461   1.457   5.679  10.575  1.7047  0.3460 -4.3892
  807MOL0     H 6462   1.423   5.823  10.480 -0.7673  0.7414 -0.0413
  807MOL0     H 6463   1.245   5.678  10.433  0.2047  0.9287 -1.0067
  807MOL0     H 6464   1.203   5.828  10.524  0.3494  0.1670  1.3195
  807MOL0     H 6465   1.174   5.719  10.732 -0.0162  1.3124 -1.1406
  807MOL0     H 6466   1.219   5.552  10.660  0.7229  0.0964  1.7560
  807MOL0     H 6467   0.994   5.572  10.714 -1.8059  0.6802 -1.3463
  807MOL0     H 6468   0.974   5.721  10.613  3.1478  2.3784  0.1173
  807MOL0     H 6469   1.094   5.472  10.476  1.0896  0.3138  2.1127
  807MOL0     H 6470   1.006   5.627  10.428  0.0869  4.1694  3.1961
  807MOL0     H 6471   0.800   5.541  10.542 -0.5259 -0.1991  1.7529
  807MOL0     H 6472   0.877   5.392  10.580  2.6229 -1.7956 -2.4569
  807MOL0     H 6473   0.858   5.473  10.299 -2.0003  1.5809  0.6921
  807MOL0     H 6474   0.897   5.310  10.374 -0.9298 -1.0764  0.6992
  807MOL0     H 6475   0.623   5.449  10.365  0.4106  0.3283  1.8162
  807MOL0     H 6476   0.652   5.332  10.479 -1.2401  1.2451 -1.0734
  807MOL0     H 6477   0.431   5.223  10.343  1.0669  0.9871  1.3795
  807MOL0     H 6478   0.463   4.917  10.131 -2.2914 -0.6907  0.0917
  807MOL0     H 6479   0.410   5.039  10.014 -2.1970  0.0930  0.4769
  807MOL0     H 6480   0.244   5.113  10.153 -0.7660 -0.2281 -2.2517
  807MOL0     H 6481   0.278   5.011  10.285  0.3011  2.4107  0.2858
  807MOL0     H 6482   0.167   4.926  10.007  5.0478 -2.5970 -1.6820
  807MOL0     H 6483   0.238   4.813  10.121 -2.1308  0.1023 -1.5496
  807MOL0     H 6484   0.080   4.883  10.291 -1.9639 -0.8209 -0.2025
  807MOL0     H 6485   0.002   4.810  10.140  0.3366 -0.6120 -0.1405
  807MOL0     H 6486  -0.170   4.829  10.317  1.9482  2.0408  0.7447
  807MOL0     H 6487  -0.404   4.820  10.313  3.7295 -1.4866  1.4304
  807MOL0     H 6488  -0.843   5.240  10.120  2.8426 -0.5504 -2.1067
  807MOL0     H 6489  -1.077   5.211  10.032  0.7057  1.4659 -2.8099
  807MOL0     H 6490  -1.185   5.168   9.786  0.6453 -1.7490 -0.1112
  807MOL0     H 6491  -1.265   5.154   9.943  0.8742 -3.0022  1.9580
  807MOL0     H 6492  -1.446   5.005   9.834 -1.1518 -0.8330 -2.3549
  807MOL0     H 6493  -1.353   4.989   9.698 -2.2253 -0.7732  0.2612
  807MOL0     H 6494  -1.358   5.267   9.678  2.8979 -1.4979  0.4199
  807MOL0     H 6495  -1.452   5.252   9.824  0.9084  1.7167 -1.0790
  807MOL0     H 6496  -1.540   5.138   9.557 -0.2579  1.6562 -0.8038
  807MOL0     H 6497  -1.627   5.117   9.698  1.3484 -0.6123  2.2305
  807MOL0     H 6498  -1.536   5.378   9.553  2.1734 -2.3110  1.8402
  807MOL0     H 6499  -1.622   5.390   9.711 -0.8449  1.4688 -0.6904
  807MOL0     H 6500  -1.792   5.427   9.555  0.4698  0.1909 -0.9763
  807MOL0     H 6501  -1.811   5.269   9.613  0.4839  0.1947  0.7516
  807MOL0     H 6502  -1.691   5.372   9.353  1.4589 -0.4956  0.7017
  807MOL0     H 6503  -1.670   5.195   9.388  2.0953  1.0329  4.5069
  807MOL0     H 6504  -1.847   5.231   9.229 -0.5386 -2.3733 -1.0757
  807MOL0     H 6505  -1.935   5.330   9.351  1.1158  1.0587 -1.5630
  807MOL0     H 6506  -0.955   4.811   9.898  0.9286 -0.4286  1.7692
  807MOL0     H 6507  -0.746   4.856   9.985 -0.5745  0.5532 -3.3354
  807MOL0     H 6508  -0.411   5.161  10.035 -0.2804 -0.3454 -0.3674
  807MOL0     H 6509  -0.163   5.153  10.041 -0.6062  0.8600  0.5613
  807MOL0     H 6510   1.644   5.850  10.551  2.9506 -0.4492  0.4676
  807MOL0     H 6511   1.850   5.957  10.644 -1.1630 -2.1992 -0.4428
  807MOL0     H 6512   2.117   6.114  10.938 -0.8525 -0.2752  1.0723
  807MOL0     H 6513   2.328   6.194  10.923  0.4692  1.1632 -1.4292
  807MOL0     H 6514   2.437   6.541  11.061 -2.6117 -0.6902 -0.0823
  807MOL0     H 6515   2.408   6.642  10.912  3.4405  2.0617  0.1094
  807MOL0     H 6516   2.655   6.576  10.854  2.1561 -1.7127  1.5194
  807MOL0     H 6517   2.616   6.685  10.969 -1.2910  0.2028 -2.1289
  807MOL0     H 6518   2.674   6.378  10.997 -1.7439  0.0853 -1.1554
  807MOL0     H 6519   2.642   6.475  11.143  3.3048 -3.5147  1.2778
  807MOL0     H 6520   2.874   6.472  10.949  0.5515  0.0452  0.7157
  807MOL0     H 6521   2.843   6.622  11.052 -1.8617  1.3370 -1.2772
  807MOL0     H 6522   3.014   6.350  11.327 -2.7064 -2.4811  0.6452
  807MOL0     H 6523   2.215   6.576  10.805 -0.2171 -0.2986 -0.3981
  807MOL0     H 6524   1.975   6.507  10.813  1.2594 -0.2599 -2.7338
  808MOL0     O 6525  11.181   4.556   7.810 -0.3321  0.4005  0.2454
  808MOL0     C 6526  11.147   4.579   7.923 -0.3134  0.5095  0.7087
  808MOL0     O 6527  11.227   4.564   8.039 -0.6270  0.3747 -0.1643
  808MOL0     C 6528  11.350   4.504   8.027  0.0097  0.7789  0.3899
  808MOL0     C 6529  11.440   4.554   8.118 -1.0981 -0.4732  0.2187
  808MOL0     C 6530  11.572   4.501   8.133 -0.3808 -0.2517 -0.0786
  808MOL0     C 6531  11.616   4.404   8.050  0.0812  0.2546 -0.1109
  808MOL0     O 6532  11.738   4.344   8.042  0.2231 -0.8841 -0.0112
  808MOL0     C 6533  11.839   4.383   8.137 -0.6936  0.6007  0.7537
  808MOL0     C 6534  11.956   4.282   8.116  0.3231 -0.6360 -0.2974
  808MOL0     C 6535  12.048   4.291   8.236 -0.8558 -0.0248 -0.1476
  808MOL0     C 6536  12.147   4.184   8.208  0.6565  0.2760 -0.5387
  808MOL0     C 6537  12.261   4.183   8.309  0.4811  0.8701 -0.0636
  808MOL0     C 6538  12.351   4.049   8.295  0.6656 -0.5506 -0.2071
  808MOL0     C 6539  12.477   4.072   8.378  0.1314  0.6256 -0.0377
  808MOL0     C 6540  12.481   4.031   8.530  0.4103 -0.2038 -0.6322
  808MOL0     N 6541  12.398   4.108   8.618  0.0402 -0.4653 -0.2348
  808MOL0     C 6542  12.267   4.077   8.647 -0.5100 -0.5287 -1.1059
  808MOL0     C 6543  12.218   4.191   8.708  0.3804 -0.5765  0.3552
  808MOL0     C 6544  12.079   4.217   8.741 -0.4524 -0.0702  0.9217
  808MOL0     C 6545  11.992   4.255   8.622  0.2354  0.2153 -0.3679
  808MOL0     C 6546  11.846   4.246   8.683 -0.0590 -0.6985 -0.1791
  808MOL0     C 6547  11.748   4.287   8.586  0.2855 -0.4840 -0.5063
  808MOL0     O 6548  11.621   4.291   8.661  0.1344  0.6095  0.2474
  808MOL0     C 6549  11.502   4.321   8.606  0.0683  0.0735  0.4917
  808MOL0     C 6550  11.405   4.332   8.698  0.2925  0.5477 -0.1423
  808MOL0     C 6551  11.270   4.364   8.662 -1.1972  0.3142  0.2621
  808MOL0     C 6552  11.237   4.396   8.532 -0.4323  0.9609  0.3721
  808MOL0     C 6553  11.099   4.421   8.507 -0.1434 -1.0647 -0.3989
  808MOL0     O 6554  11.010   4.425   8.608 -0.1353 -0.6341 -0.3272
  808MOL0     C 6555  10.889   4.478   8.582  0.3691 -0.0556 -0.1855
  808MOL0     C 6556  10.855   4.594   8.507  0.1148  0.8498  0.0582
  808MOL0     C 6557  10.726   4.632   8.485 -0.2866 -0.0462 -0.5621
  808MOL0     C 6558  10.618   4.569   8.546  0.2853 -0.0815  0.2856
  808MOL0     O 6559  10.486   4.615   8.525 -0.2256 -0.2490 -0.2435
  808MOL0     C 6560  10.423   4.590   8.398  0.1036 -0.1184 -0.1813
  808MOL0     C 6561  10.276   4.630   8.388 -0.0908  0.1330 -1.1875
  808MOL0     C 6562  10.216   4.598   8.252 -0.2200  0.0822 -0.6174
  808MOL0     C 6563  10.064   4.628   8.244 -0.2127 -0.3051 -0.6382
  808MOL0     C 6564  10.015   4.639   8.101 -0.5352 -0.9282 -0.9430
  808MOL0     C 6565   9.873   4.676   8.106 -0.1081 -0.3984  0.6590
  808MOL0     C 6566   9.800   4.644   7.975 -0.0853 -0.4884  0.1133
  808MOL0     C 6567   9.652   4.693   7.984  0.1377 -0.9173 -0.3511
  808MOL0    Cl 6568   9.560   4.579   8.087 -0.2536  0.5226 -0.4424
  808MOL0     C 6569  10.644   4.453   8.620  0.0649  0.2432  0.5517
  808MOL0     C 6570  10.783   4.410   8.639  0.3728 -0.2317  0.2463
  808MOL0     O 6571  11.074   4.453   8.393  0.0235  0.2212  0.0614
  808MOL0     C 6572  11.338   4.389   8.427  0.0619 -0.0776  0.2543
  808MOL0     C 6573  11.471   4.347   8.468  0.9364  0.4732 -0.1489
  808MOL0     N 6574  12.322   4.277   8.717 -0.2963 -0.3414  0.4429
  808MOL0     N 6575  12.433   4.235   8.660 -0.4857 -0.0501  0.3808
  808MOL0     C 6576  11.520   4.361   7.953 -0.0301 -0.0353  0.6003
  808MOL0     C 6577  11.393   4.404   7.944 -0.6279  0.2609 -0.0286
  808MOL0     C 6578  11.006   4.602   7.942 -0.9056  0.3874  0.1875
  808MOL0     C 6579  10.921   4.645   7.836  1.2047  0.1535  0.2197
  808MOL0     C 6580  10.780   4.669   7.860 -0.6000  0.1238  0.0661
  808MOL0     C 6581  10.732   4.649   7.988  0.3669 -0.3415 -0.3507
  808MOL0     O 6582  10.594   4.641   8.021 -0.6220  0.4959  0.8755
  808MOL0     C 6583  10.502   4.714   7.939  0.1464  0.1242  0.3246
  808MOL0     C 6584  10.443   4.630   7.836  0.6884  1.1058  0.1162
  808MOL0     C 6585  10.343   4.525   7.877  0.1271 -0.6678 -1.1320
  808MOL0     C 6586  10.289   4.450   7.754  0.6132 -0.4249 -0.4651
  808MOL0     C 6587  10.175   4.359   7.777 -0.5223  0.2277  0.0423
  808MOL0     C 6588  10.080   4.288   7.810  0.4933 -0.7680  0.3727
  808MOL0     C 6589  10.817   4.599   8.089  0.0729 -0.1129  0.3674
  808MOL0     C 6590  10.945   4.565   8.066 -0.7743  0.4707  0.4810
  808MOL0     H 6591  11.403   4.637   8.178 -2.9120 -0.7783 -0.4182
  808MOL0     H 6592  11.645   4.555   8.193 -0.8368  1.0050 -0.6274
  808MOL0     H 6593  11.807   4.371   8.241 -0.4708 -0.7286  0.6775
  808MOL0     H 6594  11.885   4.476   8.101  0.2112 -0.8351 -2.1042
  808MOL0     H 6595  12.020   4.311   8.031  0.3491  6.3777  1.5347
  808MOL0     H 6596  11.908   4.185   8.099  0.2733 -0.3562 -1.9372
  808MOL0     H 6597  11.998   4.261   8.328 -2.7277 -2.1184 -1.7237
  808MOL0     H 6598  12.104   4.385   8.239  1.7177 -1.4902  2.5098
  808MOL0     H 6599  12.093   4.088   8.205 -3.1770  2.2456 -0.8339
  808MOL0     H 6600  12.190   4.188   8.108 -1.8873 -0.8985 -1.7756
  808MOL0     H 6601  12.217   4.196   8.408 -0.2734 -2.9647  0.2601
  808MOL0     H 6602  12.325   4.270   8.294 -0.5530  1.9601  1.5068
  808MOL0     H 6603  12.380   4.050   8.189 -1.1878 -0.9334 -0.7693
  808MOL0     H 6604  12.305   3.956   8.330 -0.9197  0.7810  1.4514
  808MOL0     H 6605  12.552   4.004   8.337  0.7109  0.1089  1.7741
  808MOL0     H 6606  12.526   4.169   8.366  2.8613 -0.4495  1.3276
  808MOL0     H 6607  12.580   4.055   8.570 -0.7419  2.2751  1.0251
  808MOL0     H 6608  12.461   3.925   8.550  1.2856 -0.1585  0.5983
  808MOL0     H 6609  12.219   3.989   8.607  0.2135 -0.3590 -2.3896
  808MOL0     H 6610  12.075   4.307   8.804  1.7307  0.1266  0.8391
  808MOL0     H 6611  12.042   4.129   8.794 -1.0910  0.0811  0.7416
  808MOL0     H 6612  12.027   4.189   8.542  0.1887 -3.7051  2.5797
  808MOL0     H 6613  12.006   4.353   8.575  2.3694 -0.5112 -1.3923
  808MOL0     H 6614  11.822   4.142   8.707 -1.0364 -0.7182 -1.1949
  808MOL0     H 6615  11.837   4.311   8.770 -1.2314  0.3693 -1.0776
  808MOL0     H 6616  11.759   4.220   8.500  3.1864 -1.2179  0.3211
  808MOL0     H 6617  11.770   4.391   8.558 -1.9311  0.1823  0.0335
  808MOL0     H 6618  11.426   4.305   8.801  2.9324 -0.8096 -0.9447
  808MOL0     H 6619  11.196   4.360   8.740 -0.9737 -0.1706  0.4546
  808MOL0     H 6620  10.923   4.649   8.443  0.0284  0.2006 -0.6067
  808MOL0     H 6621  10.694   4.701   8.407 -0.5669  0.6015  0.1132
  808MOL0     H 6622  10.421   4.487   8.363 -1.4191  0.4519 -1.9346
  808MOL0     H 6623  10.481   4.649   8.326 -0.1150  3.4539  2.3103
  808MOL0     H 6624  10.264   4.736   8.416 -2.5685 -0.5749  0.8366
  808MOL0     H 6625  10.242   4.571   8.473  3.6473  0.8710  1.0517
  808MOL0     H 6626  10.238   4.494   8.224  1.3068 -0.1172  1.0910
  808MOL0     H 6627  10.269   4.657   8.177 -0.5079  2.2169  0.7626
  808MOL0     H 6628   9.998   4.569   8.308 -1.3634  1.6597  0.1100
  808MOL0     H 6629  10.057   4.731   8.281  0.1592 -1.0694  1.7296
  808MOL0     H 6630  10.022   4.545   8.045  0.0367 -2.0050  0.8636
  808MOL0     H 6631  10.074   4.713   8.046 -0.4571 -0.1947  0.0925
  808MOL0     H 6632   9.869   4.785   8.112  2.2237  0.4843 -5.8090
  808MOL0     H 6633   9.826   4.619   8.188  1.7794 -3.3888 -0.1796
  808MOL0     H 6634   9.861   4.678   7.891 -2.3058 -0.4742 -1.5835
  808MOL0     H 6635   9.791   4.535   7.972 -0.5223 -0.4342 -0.6646
  808MOL0     H 6636   9.613   4.695   7.882  1.3712  2.2971 -0.8498
  808MOL0     H 6637   9.635   4.789   8.032  4.1337 -0.5889  0.7195
  808MOL0     H 6638  10.556   4.411   8.666 -1.4997  2.6297 -0.1098
  808MOL0     H 6639  10.786   4.314   8.690  0.6930 -1.0937 -1.3293
  808MOL0     H 6640  11.318   4.416   8.324  2.0899  0.9462  0.0791
  808MOL0     H 6641  11.541   4.348   8.385  0.1419 -0.6381 -0.8781
  808MOL0     H 6642  11.551   4.271   7.900 -1.6014 -0.7257  0.7738
  808MOL0     H 6643  11.328   4.358   7.869 -0.0205 -0.4221 -0.1416
  808MOL0     H 6644  10.977   4.669   7.747  1.1078 -1.2192 -0.2277
  808MOL0     H 6645  10.705   4.705   7.790 -2.4322  1.2496  2.4779
  808MOL0     H 6646  10.559   4.801   7.906  0.5325 -0.1004  0.3987
  808MOL0     H 6647  10.419   4.747   8.002 -0.0991 -2.4404  1.4886
  808MOL0     H 6648  10.391   4.699   7.768  0.5252  1.1995  0.3343
  808MOL0     H 6649  10.518   4.573   7.780 -1.3202 -1.9022  0.3242
  808MOL0     H 6650  10.262   4.563   7.940  0.5291 -0.9678 -0.4229
  808MOL0     H 6651  10.391   4.450   7.940  0.4738 -1.6428 -2.5097
  808MOL0     H 6652  10.271   4.529   7.680  2.8251  2.1405  1.5370
  808MOL0     H 6653  10.372   4.398   7.705  2.3370  0.6630  1.1680
  808MOL0     H 6654   9.994   4.229   7.832  0.4325 -1.0506 -0.5851
  808MOL0     H 6655  10.776   4.590   8.189  1.8550 -0.6252  1.0857
  808MOL0     H 6656  11.007   4.510   8.136  2.2605  0.2873 -2.1424
  809MOL0     O 6657   9.312   5.450   8.695 -0.0614  0.2027  0.4140
  809MOL0     C 6658   9.263   5.559   8.666 -0.9299 -0.2128 -0.4283
  809MOL0     O 6659   9.131   5.587   8.643 -0.8815  0.4732 -0.0200
  809MOL0     C 6660   9.040   5.489   8.656  0.3131 -0.3594 -0.6193
  809MOL0     C 6661   8.924   5.518   8.738 -1.0685  0.5763  0.5363
  809MOL0     C 6662   8.824   5.429   8.758  0.1966 -0.3397 -0.8018
  809MOL0     C 6663   8.829   5.294   8.721 -0.4686  0.2734 -1.1639
  809MOL0     O 6664   8.732   5.194   8.734 -0.0523 -0.4346 -0.1747
  809MOL0     C 6665   8.638   5.215   8.833  0.9875 -0.0363 -0.5265
  809MOL0     C 6666   8.536   5.104   8.823  0.0282  0.3694  0.1155
  809MOL0     C 6667   8.431   5.123   8.928  0.3243 -0.3239 -0.1325
  809MOL0     C 6668   8.355   5.267   8.922  0.2230  0.4059  0.2346
  809MOL0     C 6669   8.255   5.299   9.043  0.0378  0.1406 -0.2090
  809MOL0     C 6670   8.155   5.184   9.065 -0.1755  0.5842  0.0087
  809MOL0     C 6671   8.062   5.206   9.180 -0.9569 -0.4891  0.0555
  809MOL0     C 6672   7.926   5.132   9.171 -0.8523  0.7325  0.7594
  809MOL0     N 6673   7.850   5.164   9.300  0.8379 -0.5760  0.0639
  809MOL0     C 6674   7.843   5.082   9.404 -0.6800 -0.0097 -0.2013
  809MOL0     C 6675   7.747   5.131   9.483  0.1576  0.0634  0.8929
  809MOL0     C 6676   7.679   5.063   9.597 -0.9324 -0.0685  0.1607
  809MOL0     C 6677   7.694   4.911   9.601 -0.2234 -0.0852  0.2232
  809MOL0     C 6678   7.623   4.854   9.482 -0.1557  0.4561  0.6875
  809MOL0     C 6679   7.661   4.708   9.480 -0.8507 -0.0308  0.5967
  809MOL0     O 6680   7.605   4.649   9.597 -0.0043 -0.0066  0.3197
  809MOL0     C 6681   7.479   4.593   9.589  0.2943  0.4390 -0.3880
  809MOL0     C 6682   7.421   4.546   9.703  0.2199 -0.2818 -0.0789
  809MOL0     C 6683   7.291   4.487   9.707 -0.1211  0.2364  0.9328
  809MOL0     C 6684   7.220   4.472   9.590  1.3162 -0.5497 -0.7380
  809MOL0     C 6685   7.081   4.431   9.591 -0.4562  0.4203  0.1520
  809MOL0     O 6686   7.049   4.366   9.702  0.5173 -0.2031  0.3950
  809MOL0     C 6687   6.940   4.300   9.716  0.5820 -0.0569  0.9326
  809MOL0     C 6688   6.949   4.164   9.716 -1.0887  0.4120 -0.2317
  809MOL0     C 6689   6.841   4.081   9.729  0.7648  0.0313  0.1249
  809MOL0     C 6690   6.714   4.138   9.724 -0.0764 -0.0837  0.4803
  809MOL0     O 6691   6.592   4.075   9.720  0.4371  0.0992 -0.8073
  809MOL0     C 6692   6.602   3.939   9.684 -0.2448 -0.1646  0.0211
  809MOL0     C 6693   6.468   3.873   9.635 -0.1340  0.0748 -0.2238
  809MOL0     C 6694   6.374   3.858   9.763  0.8394 -0.4738  0.4428
  809MOL0     C 6695   6.259   3.768   9.754  0.8618 -0.0169  1.0103
  809MOL0     C 6696   6.202   3.739   9.897  1.1450 -0.5636 -0.4353
  809MOL0     C 6697   6.054   3.684   9.895 -0.4717 -0.0598  0.9584
  809MOL0     C 6698   6.029   3.553   9.814  1.0149  0.2929  0.1766
  809MOL0     C 6699   6.107   3.436   9.870  0.3121  0.8501 -0.0446
  809MOL0    Cl 6700   6.031   3.273   9.863  0.0262  0.0419  0.0614
  809MOL0     C 6701   6.697   4.282   9.720 -0.0748  0.5225 -0.0606
  809MOL0     C 6702   6.814   4.357   9.723 -0.2150  0.6786 -0.0572
  809MOL0     O 6703   7.009   4.450   9.494  0.3876 -0.2424  0.2053
  809MOL0     C 6704   7.280   4.514   9.479  0.0652 -0.8732  0.3636
  809MOL0     C 6705   7.391   4.589   9.481 -0.2737  0.3812 -0.2578
  809MOL0     N 6706   7.685   5.242   9.417 -0.6788 -0.0603  0.5888
  809MOL0     N 6707   7.758   5.263   9.310 -0.9204  0.4143 -1.0973
  809MOL0     C 6708   8.950   5.264   8.659  0.3740  0.4803 -0.2637
  809MOL0     C 6709   9.051   5.351   8.634  0.1358 -0.3759  0.1940
  809MOL0     C 6710   9.376   5.657   8.650  0.3496 -0.7445  0.2691
  809MOL0     C 6711   9.344   5.777   8.607  0.3266 -0.6362 -0.4279
  809MOL0     C 6712   9.443   5.875   8.589 -0.5948 -0.8345  0.5613
  809MOL0     C 6713   9.580   5.840   8.606 -0.5061 -0.5080  0.1181
  809MOL0     O 6714   9.680   5.927   8.570  0.5248  0.5664  0.0287
  809MOL0     C 6715   9.757   5.880   8.448  0.6905 -0.3436 -0.3549
  809MOL0     C 6716   9.659   5.889   8.331 -0.5442  0.9650 -0.5234
  809MOL0     C 6717   9.609   6.039   8.306  0.6008 -0.4766 -0.2737
  809MOL0     C 6718   9.519   6.051   8.187  0.4073 -0.2396 -0.8461
  809MOL0     C 6719   9.386   6.008   8.225 -0.1320 -0.1558 -0.4054
  809MOL0     C 6720   9.270   5.985   8.249  0.0514 -0.1119  0.0941
  809MOL0     C 6721   9.611   5.708   8.642  0.2312  0.0122 -0.8544
  809MOL0     C 6722   9.507   5.618   8.685 -0.6122  0.2935  0.6300
  809MOL0     H 6723   8.933   5.610   8.796  1.7236  1.6906 -1.4417
  809MOL0     H 6724   8.734   5.457   8.812  0.8555  1.8847 -0.7780
  809MOL0     H 6725   8.588   5.308   8.803  0.3667 -0.0928  0.3192
  809MOL0     H 6726   8.672   5.230   8.936  0.8989 -1.3460 -0.2907
  809MOL0     H 6727   8.581   5.005   8.832 -2.7463 -1.0387 -0.3853
  809MOL0     H 6728   8.482   5.113   8.728  0.5569  1.8283 -0.0771
  809MOL0     H 6729   8.478   5.111   9.026 -0.4897 -1.5979  0.1116
  809MOL0     H 6730   8.362   5.039   8.925  3.2235 -2.9667  1.3594
  809MOL0     H 6731   8.436   5.340   8.918  0.3697  0.2942  0.9289
  809MOL0     H 6732   8.294   5.262   8.832  0.1408 -0.1033  0.3111
  809MOL0     H 6733   8.202   5.393   9.028 -0.8833 -0.7874 -3.6265
  809MOL0     H 6734   8.322   5.323   9.126  1.6705  2.7434 -2.1091
  809MOL0     H 6735   8.216   5.093   9.062  1.8945  1.9456 -1.4265
  809MOL0     H 6736   8.094   5.180   8.974  0.6979  3.0029 -0.7370
  809MOL0     H 6737   8.111   5.197   9.278 -0.4906 -0.5520 -0.1844
  809MOL0     H 6738   8.039   5.313   9.173 -1.5958 -0.6272 -0.0009
  809MOL0     H 6739   7.940   5.026   9.152 -0.3108  0.6992  1.3012
  809MOL0     H 6740   7.865   5.170   9.089  0.0342 -1.7614 -1.1779
  809MOL0     H 6741   7.910   4.998   9.414  0.7447  1.1185  0.0262
  809MOL0     H 6742   7.573   5.088   9.609 -1.3187 -1.7677  0.6069
  809MOL0     H 6743   7.729   5.100   9.687 -1.4131 -1.1000  0.8689
  809MOL0     H 6744   7.647   4.874   9.692 -0.8380  1.6089  0.6369
  809MOL0     H 6745   7.800   4.884   9.594 -0.2477  0.0708 -0.8824
  809MOL0     H 6746   7.515   4.864   9.491 -0.2143 -1.2670  2.4769
  809MOL0     H 6747   7.663   4.898   9.390 -1.6039  1.8301  0.6845
  809MOL0     H 6748   7.769   4.694   9.482 -0.8899 -0.5899  3.6715
  809MOL0     H 6749   7.626   4.651   9.393  1.7496  0.8470 -1.1646
  809MOL0     H 6750   7.470   4.560   9.799  0.3300 -0.9047 -0.0385
  809MOL0     H 6751   7.239   4.450   9.795 -2.1214  0.9686  0.1287
  809MOL0     H 6752   7.050   4.124   9.716 -0.6755  1.4110  0.9591
  809MOL0     H 6753   6.857   3.974   9.737  1.9622  0.0424 -1.5520
  809MOL0     H 6754   6.637   3.887   9.773 -1.7027  0.0050  0.7172
  809MOL0     H 6755   6.669   3.923   9.599 -2.0087 -1.2673 -1.2309
  809MOL0     H 6756   6.495   3.777   9.590  2.0255  0.2413  0.5851
  809MOL0     H 6757   6.413   3.932   9.561 -1.4249  2.9136  2.7395
  809MOL0     H 6758   6.350   3.961   9.790  2.7986  0.4592 -1.0859
  809MOL0     H 6759   6.434   3.806   9.838  1.6541 -3.0767 -1.8517
  809MOL0     H 6760   6.182   3.804   9.685  1.3083 -3.2774 -1.4713
  809MOL0     H 6761   6.282   3.671   9.709  0.5130  0.5822 -0.5090
  809MOL0     H 6762   6.203   3.834   9.952  0.7885  0.4349 -2.0736
  809MOL0     H 6763   6.268   3.667   9.946  0.2283 -0.0244  1.7089
  809MOL0     H 6764   5.981   3.749   9.846 -0.6078 -0.2954  0.8407
  809MOL0     H 6765   6.022   3.685  10.000  0.3366  0.9912  1.2034
  809MOL0     H 6766   5.922   3.533   9.824  0.4997  1.3550 -2.4558
  809MOL0     H 6767   6.046   3.577   9.709  0.5561 -2.8490 -0.7302
  809MOL0     H 6768   6.133   3.460   9.974  1.1665  2.5820 -0.6061
  809MOL0     H 6769   6.203   3.436   9.818  0.9278  0.9307  1.0542
  809MOL0     H 6770   6.598   4.323   9.731 -1.2362 -1.8730 -0.9231
  809MOL0     H 6771   6.812   4.464   9.740  1.0587  0.6115  0.6705
  809MOL0     H 6772   7.236   4.491   9.382  0.0657 -1.0310  0.3993
  809MOL0     H 6773   7.419   4.636   9.388 -0.8215  1.2945  0.0225
  809MOL0     H 6774   8.968   5.165   8.617  3.0357  0.1196  1.4588
  809MOL0     H 6775   9.140   5.307   8.590  0.4790  3.4284 -3.6083
  809MOL0     H 6776   9.242   5.811   8.595  1.4965  4.0076  0.4320
  809MOL0     H 6777   9.412   5.973   8.553 -0.6001 -0.5641  1.2936
  809MOL0     H 6778   9.777   5.774   8.463 -1.9650 -0.9939 -0.9229
  809MOL0     H 6779   9.848   5.938   8.432  0.4194  0.5790  1.2020
  809MOL0     H 6780   9.711   5.850   8.243 -0.3469  2.0963 -0.9221
  809MOL0     H 6781   9.567   5.832   8.349 -0.3698  1.4110  2.1685
  809MOL0     H 6782   9.695   6.100   8.280 -0.1871 -0.2463 -2.6157
  809MOL0     H 6783   9.560   6.085   8.392  0.7496  1.0541 -0.9799
  809MOL0     H 6784   9.511   6.158   8.165 -2.9405 -0.4875 -1.2108
  809MOL0     H 6785   9.550   6.007   8.092  0.1616 -0.3985 -0.8531
  809MOL0     H 6786   9.173   5.942   8.264  1.1302 -2.0579  1.7951
  809MOL0     H 6787   9.713   5.679   8.668 -0.1572 -0.6889 -0.0783
  809MOL0     H 6788   9.522   5.528   8.742  0.8391  0.4060  0.4566
  810MOL0     O 6789   2.178   8.854   7.261 -0.4328 -0.3520  0.3153
  810MOL0     C 6790   2.246   8.959   7.240  0.2345  0.5054  0.0613
  810MOL0     O 6791   2.194   9.075   7.202 -0.2697  0.4244  0.4360
  810MOL0     C 6792   2.058   9.088   7.217  0.2737  0.3110 -0.5850
  810MOL0     C 6793   1.992   9.097   7.336  0.5245  0.4649 -0.4937
  810MOL0     C 6794   1.854   9.110   7.347  0.2275  0.0672 -0.4467
  810MOL0     C 6795   1.780   9.117   7.234 -0.0996  0.0941  0.2092
  810MOL0     O 6796   1.651   9.133   7.252 -0.9137 -0.2674  0.5501
  810MOL0     C 6797   1.597   9.253   7.183 -0.5628  0.6234  0.8769
  810MOL0     C 6798   1.457   9.266   7.223  1.0964 -0.6115  1.3894
  810MOL0     C 6799   1.452   9.312   7.370 -0.9307 -0.0710  0.5977
  810MOL0     C 6800   1.312   9.314   7.419 -0.0578 -0.0917  0.0202
  810MOL0     C 6801   1.228   9.424   7.362 -1.1799 -0.6845  0.7231
  810MOL0     C 6802   1.084   9.432   7.422 -0.3385 -0.0748 -0.5928
  810MOL0     C 6803   1.034   9.580   7.426 -0.5807 -0.3764  0.2802
  810MOL0     C 6804   0.898   9.581   7.495 -0.7487  0.8673 -0.2641
  810MOL0     N 6805   0.856   9.717   7.530  0.5043  0.1709  0.2697
  810MOL0     C 6806   0.738   9.783   7.507  0.4562  0.0267  0.3227
  810MOL0     C 6807   0.746   9.901   7.569  0.2796  0.8037 -0.2641
  810MOL0     C 6808   0.622   9.991   7.586 -0.3433 -0.1386  0.6956
  810MOL0     C 6809   0.648  10.129   7.656 -1.0586  0.1089 -0.8418
  810MOL0     C 6810   0.651  10.099   7.805  0.6750  0.8433 -0.6687
  810MOL0     C 6811   0.645  10.223   7.893 -0.1813 -0.1024  0.8091
  810MOL0     O 6812   0.607  10.196   8.030  0.5025 -0.3370 -0.9471
  810MOL0     C 6813   0.473  10.179   8.057  0.8110 -0.2386  0.3257
  810MOL0     C 6814   0.454  10.119   8.180  0.4024 -0.7593  0.2214
  810MOL0     C 6815   0.323  10.101   8.234 -0.3910 -0.2876  0.0622
  810MOL0     C 6816   0.214  10.155   8.165 -0.7070  0.6756 -0.9396
  810MOL0     C 6817   0.078  10.141   8.221 -0.4992  0.9303 -0.2484
  810MOL0     O 6818   0.047  10.049   8.318  0.6074  0.1663 -0.3685
  810MOL0     C 6819  -0.084  10.059   8.364 -0.2106 -0.2643 -0.3159
  810MOL0     C 6820  -0.158   9.939   8.359  0.5090 -0.5772  0.2524
  810MOL0     C 6821  -0.296   9.947   8.390  0.2854 -0.6339 -0.5840
  810MOL0     C 6822  -0.349  10.062   8.454  0.8471  0.1212  0.3205
  810MOL0     O 6823  -0.480  10.076   8.494  0.1079 -1.0478  0.0040
  810MOL0     C 6824  -0.557   9.962   8.541 -0.1530 -0.1015  0.3601
  810MOL0     C 6825  -0.706   9.994   8.564  0.1636  1.1054  0.5285
  810MOL0     C 6826  -0.789   9.865   8.607  0.8404 -0.6638  0.2083
  810MOL0     C 6827  -0.942   9.901   8.604  0.2202  0.0669  0.5844
  810MOL0     C 6828  -1.028   9.773   8.614  1.0531 -0.3087  0.4303
  810MOL0     C 6829  -1.185   9.793   8.611 -0.0338  0.6497  0.0547
  810MOL0     C 6830  -1.229   9.879   8.730  0.3344 -0.7400 -0.0806
  810MOL0     C 6831  -1.388   9.884   8.742 -0.8624  0.1418 -0.5258
  810MOL0    Cl 6832  -1.450   9.985   8.871  0.6049 -0.1174  0.1520
  810MOL0     C 6833  -0.271  10.179   8.456  0.6141 -1.0330 -0.2137
  810MOL0     C 6834  -0.137  10.181   8.417  0.8171 -0.3669 -0.3110
  810MOL0     O 6835  -0.005  10.206   8.157 -0.2522  0.8278  0.0669
  810MOL0     C 6836   0.239  10.216   8.041 -0.2427 -0.6170 -0.1378
  810MOL0     C 6837   0.363  10.224   7.987 -0.5828 -0.2775 -1.0829
  810MOL0     N 6838   0.874   9.906   7.632  1.3824  0.4406 -0.0194
  810MOL0     N 6839   0.941   9.797   7.604  0.3360 -0.4282  0.8722
  810MOL0     C 6840   1.848   9.098   7.108  0.1078  0.2210 -0.4831
  810MOL0     C 6841   1.981   9.089   7.099 -0.5823 -0.7218  0.5938
  810MOL0     C 6842   2.395   8.950   7.250  0.9127  0.4797 -0.4016
  810MOL0     C 6843   2.453   8.828   7.298  0.0246  0.9538  0.3419
  810MOL0     C 6844   2.597   8.821   7.314  0.8825 -0.2027  0.2655
  810MOL0     C 6845   2.682   8.925   7.294 -0.1483 -0.3582 -0.7416
  810MOL0     O 6846   2.824   8.912   7.300 -0.5100 -0.7162  0.7308
  810MOL0     C 6847   2.886   8.779   7.305  0.1072  0.3978 -0.6362
  810MOL0     C 6848   3.034   8.790   7.253 -0.0170 -0.2225 -0.6059
  810MOL0     C 6849   3.112   8.902   7.333  0.3230 -0.3741  0.1463
  810MOL0     C 6850   3.261   8.913   7.284  0.1697 -0.0183  0.7667
  810MOL0     C 6851   3.323   8.782   7.301 -0.1256  0.1551  0.2610
  810MOL0     C 6852   3.400   8.693   7.312 -1.0965  0.8426  0.4449
  810MOL0     C 6853   2.622   9.044   7.256 -0.1853 -0.3629  0.3728
  810MOL0     C 6854   2.486   9.056   7.228 -0.2142 -0.0695 -0.5545
  810MOL0     H 6855   2.048   9.094   7.429  0.2828  2.6539 -0.2249
  810MOL0     H 6856   1.794   9.125   7.436  1.0422  2.9349 -0.2725
  810MOL0     H 6857   1.606   9.216   7.080  0.8506 -3.4353  2.2539
  810MOL0     H 6858   1.653   9.345   7.199  1.8320 -0.6891  0.6325
  810MOL0     H 6859   1.398   9.177   7.200  2.2494 -0.6885 -1.6423
  810MOL0     H 6860   1.407   9.333   7.153  0.4059 -1.3013  1.2080
  810MOL0     H 6861   1.487   9.416   7.367 -1.7359  0.2381 -2.7115
  810MOL0     H 6862   1.512   9.248   7.434 -0.9265  1.0473  1.7543
  810MOL0     H 6863   1.272   9.216   7.390  0.5394 -0.6829  1.0857
  810MOL0     H 6864   1.312   9.322   7.529  2.9995  2.4914 -0.0033
  810MOL0     H 6865   1.219   9.412   7.253 -1.1426 -2.3831  0.8842
  810MOL0     H 6866   1.276   9.522   7.366 -1.3235 -0.6592  2.0773
  810MOL0     H 6867   1.074   9.401   7.526  1.0766  1.6753  0.1121
  810MOL0     H 6868   1.024   9.368   7.356  2.1124  0.2508 -3.3491
  810MOL0     H 6869   1.110   9.633   7.484  1.4671 -0.9389 -1.6812
  810MOL0     H 6870   1.029   9.621   7.324 -0.5890 -1.1757 -0.0502
  810MOL0     H 6871   0.914   9.526   7.588  2.5802  1.1451 -0.5650
  810MOL0     H 6872   0.823   9.540   7.427 -0.9344  0.0976  0.3924
  810MOL0     H 6873   0.657   9.735   7.452 -1.0797  3.6266 -0.9259
  810MOL0     H 6874   0.537   9.946   7.638 -0.2856 -1.4863 -0.3534
  810MOL0     H 6875   0.588  10.010   7.484 -2.5671 -0.2017  1.3624
  810MOL0     H 6876   0.565  10.193   7.627 -2.5732 -1.5437 -0.3499
  810MOL0     H 6877   0.740  10.182   7.630 -0.1033  0.1546  2.2212
  810MOL0     H 6878   0.563  10.039   7.831  0.0087  1.7186 -0.8740
  810MOL0     H 6879   0.742  10.042   7.829 -0.1421 -0.9132 -1.5243
  810MOL0     H 6880   0.583  10.310   7.866 -1.0257  0.2043  3.3674
  810MOL0     H 6881   0.747  10.261   7.894 -0.7196  1.6110 -1.5540
  810MOL0     H 6882   0.531  10.069   8.238 -1.1262 -1.4694  1.7561
  810MOL0     H 6883   0.311  10.046   8.326 -2.3855  2.0210  1.2822
  810MOL0     H 6884  -0.117   9.853   8.307  0.7048  0.4024 -1.2478
  810MOL0     H 6885  -0.360   9.862   8.370 -0.8099 -0.3262  1.3863
  810MOL0     H 6886  -0.517   9.929   8.637 -1.3569 -5.0136 -0.5184
  810MOL0     H 6887  -0.553   9.881   8.467  0.2882  0.8672 -0.7077
  810MOL0     H 6888  -0.745  10.027   8.467 -0.4561  0.6508  0.6125
  810MOL0     H 6889  -0.715  10.069   8.643 -0.3660 -0.8345  2.4115
  810MOL0     H 6890  -0.763   9.831   8.708  0.5392 -2.5295 -0.2972
  810MOL0     H 6891  -0.770   9.779   8.542  1.6531  0.0324 -0.4987
  810MOL0     H 6892  -0.964   9.979   8.677 -0.5585 -0.1316  0.5651
  810MOL0     H 6893  -0.964   9.953   8.510 -0.9622  3.2387  2.4709
  810MOL0     H 6894  -1.012   9.719   8.707 -2.3733  0.1130  1.4118
  810MOL0     H 6895  -0.997   9.711   8.529  2.5146 -0.3601  0.9688
  810MOL0     H 6896  -1.225   9.691   8.607 -0.0802  0.6906 -3.5728
  810MOL0     H 6897  -1.226   9.826   8.515  0.2375 -0.6136 -0.5111
  810MOL0     H 6898  -1.181   9.842   8.821  0.7275 -0.6047 -0.2291
  810MOL0     H 6899  -1.195   9.982   8.719  0.6197 -0.8772 -0.4861
  810MOL0     H 6900  -1.422   9.782   8.760 -0.2774  0.0699  0.2197
  810MOL0     H 6901  -1.434   9.920   8.650 -2.1659 -1.4987 -0.5486
  810MOL0     H 6902  -0.313  10.273   8.491  1.4185  0.1338 -2.1621
  810MOL0     H 6903  -0.085  10.274   8.433  1.0773 -0.6987  0.8109
  810MOL0     H 6904   0.164  10.258   7.974  1.5630 -1.4352 -2.8357
  810MOL0     H 6905   0.370  10.268   7.888  3.5759 -0.1781 -0.9466
  810MOL0     H 6906   1.801   9.106   7.011 -0.2779  1.5895 -0.2009
  810MOL0     H 6907   2.033   9.075   7.005 -0.2638 -2.3832  0.9961
  810MOL0     H 6908   2.389   8.742   7.317 -2.5041  2.9433  1.4624
  810MOL0     H 6909   2.631   8.726   7.355  0.2345 -0.7575 -0.4564
  810MOL0     H 6910   2.831   8.705   7.247  0.9032 -0.5346 -0.2266
  810MOL0     H 6911   2.877   8.748   7.409  2.3320  1.5997 -0.0173
  810MOL0     H 6912   3.088   8.697   7.272  2.1412  0.9669 -0.5524
  810MOL0     H 6913   3.040   8.811   7.146 -0.4384  0.6572 -0.4704
  810MOL0     H 6914   3.114   8.894   7.442 -0.1311  2.1132  0.4031
  810MOL0     H 6915   3.077   9.003   7.311 -2.4376 -1.2914 -0.0724
  810MOL0     H 6916   3.270   8.924   7.175 -0.3951  1.8296  0.8687
  810MOL0     H 6917   3.319   8.994   7.331 -1.8153  0.7334  2.0642
  810MOL0     H 6918   3.470   8.613   7.318 -1.5635  0.4858  1.4306
  810MOL0     H 6919   2.689   9.127   7.231 -1.2338 -0.4523 -3.4363
  810MOL0     H 6920   2.448   9.148   7.186 -2.0259 -1.3747 -1.9438
  811MOL0     O 6921   4.464   2.289   3.427  0.4738  0.0884 -0.2584
  811MOL0     C 6922   4.541   2.380   3.423 -0.4176  0.1766 -0.2725
  811MOL0     O 6923   4.510   2.510   3.456 -0.3763  0.1110  0.6671
  811MOL0     C 6924   4.397   2.537   3.522 -0.5918  0.0047 -0.4721
  811MOL0     C 6925   4.390   2.507   3.655 -0.6489  1.0617  0.6003
  811MOL0     C 6926   4.277   2.537   3.732 -0.5951  0.1122 -0.4770
  811MOL0     C 6927   4.159   2.585   3.671  0.7085  0.0766  0.1913
  811MOL0     O 6928   4.054   2.595   3.754  0.3916  0.0297 -0.4100
  811MOL0     C 6929   3.935   2.560   3.699  0.4938 -0.3563 -0.1315
  811MOL0     C 6930   3.827   2.532   3.801 -1.4391  0.4099 -0.4739
  811MOL0     C 6931   3.856   2.440   3.919  0.3217 -0.0519  0.0974
  811MOL0     C 6932   3.732   2.377   3.980  1.3154  0.8238 -0.4001
  811MOL0     C 6933   3.766   2.300   4.104  0.8009 -0.2420  0.1493
  811MOL0     C 6934   3.667   2.192   4.142 -0.2995 -0.4354 -0.4495
  811MOL0     C 6935   3.534   2.230   4.203 -0.4740  0.0020 -0.4658
  811MOL0     C 6936   3.469   2.114   4.275  0.3874 -0.3916 -0.1095
  811MOL0     N 6937   3.399   2.021   4.184 -0.0808  0.3988  0.3508
  811MOL0     C 6938   3.277   2.049   4.127  0.0253 -0.3963 -0.7931
  811MOL0     C 6939   3.266   1.984   4.008  0.1206 -0.5513  1.1296
  811MOL0     C 6940   3.143   1.983   3.919  0.0484  0.0037  0.0667
  811MOL0     C 6941   3.063   1.855   3.951  0.7050 -0.5024 -0.8273
  811MOL0     C 6942   2.933   1.866   3.877 -0.0236 -0.7918  0.3033
  811MOL0     C 6943   2.851   1.733   3.900  0.2010 -0.6708  0.7036
  811MOL0     O 6944   2.719   1.760   3.858 -0.2497 -0.7603 -0.0827
  811MOL0     C 6945   2.619   1.680   3.895  0.5410  0.2923 -1.1651
  811MOL0     C 6946   2.629   1.568   3.974 -0.7855 -0.5742 -0.2407
  811MOL0     C 6947   2.520   1.475   3.993  0.1505  0.5909 -0.3780
  811MOL0     C 6948   2.395   1.516   3.935 -0.9456 -0.1088  0.9943
  811MOL0     C 6949   2.273   1.431   3.951 -0.2425 -0.5003  0.4258
  811MOL0     O 6950   2.151   1.488   3.913 -0.5557  0.1606 -0.6255
  811MOL0     C 6951   2.031   1.428   3.944 -0.2240  0.1932  0.4280
  811MOL0     C 6952   2.001   1.342   4.046  0.1318  0.8049 -0.1108
  811MOL0     C 6953   1.876   1.280   4.051 -0.5921  0.2914  0.8209
  811MOL0     C 6954   1.774   1.307   3.967 -0.3916 -0.1241 -0.0935
  811MOL0     O 6955   1.664   1.226   3.987 -0.7405  0.8417  0.2420
  811MOL0     C 6956   1.586   1.194   3.862 -0.3557 -0.0990 -1.7278
  811MOL0     C 6957   1.478   1.100   3.915  0.0662  0.4235  0.5865
  811MOL0     C 6958   1.522   0.958   3.945  0.0911  1.0819 -0.0635
  811MOL0     C 6959   1.578   0.930   4.088  0.1361  0.2918  0.6740
  811MOL0     C 6960   1.613   0.772   4.101 -0.9569 -0.3080  0.0183
  811MOL0     C 6961   1.600   0.732   4.248 -0.5781 -0.5389  0.2725
  811MOL0     C 6962   1.694   0.814   4.345  0.2172  0.2257 -1.2178
  811MOL0     C 6963   1.842   0.831   4.312 -0.3944 -0.3567  1.1400
  811MOL0    Cl 6964   1.924   0.670   4.335  0.1050  0.3255  0.0618
  811MOL0     C 6965   1.796   1.404   3.869  0.1634 -0.5604 -0.7633
  811MOL0     C 6966   1.925   1.468   3.867 -0.1422 -0.0494  1.2381
  811MOL0     O 6967   2.295   1.317   3.997 -0.1653 -0.2527  0.2685
  811MOL0     C 6968   2.387   1.632   3.855 -0.4640  0.0523 -0.3401
  811MOL0     C 6969   2.494   1.711   3.838 -0.0971 -0.6098 -0.7377
  811MOL0     N 6970   3.377   1.899   4.011 -0.2815  0.5125  0.4329
  811MOL0     N 6971   3.462   1.932   4.105 -0.0834 -0.0817 -0.7282
  811MOL0     C 6972   4.159   2.599   3.538 -0.2191  0.0685  1.1744
  811MOL0     C 6973   4.282   2.589   3.466 -0.4329  0.5509 -0.0015
  811MOL0     C 6974   4.685   2.353   3.399 -0.1917  0.7117  0.4515
  811MOL0     C 6975   4.779   2.457   3.404 -0.0548 -0.0388  0.4558
  811MOL0     C 6976   4.912   2.425   3.360 -0.7970 -0.2497  0.2993
  811MOL0     C 6977   4.953   2.292   3.309  0.1586 -0.1897  0.2014
  811MOL0     O 6978   5.081   2.265   3.264 -0.1593 -0.3363 -0.2710
  811MOL0     C 6979   5.192   2.347   3.302  0.3451  0.5586 -0.0992
  811MOL0     C 6980   5.315   2.325   3.221  0.0841  0.6214 -0.2000
  811MOL0     C 6981   5.365   2.178   3.223 -0.4018 -0.2883  0.4569
  811MOL0     C 6982   5.414   2.135   3.365  0.4978  0.4901  0.6463
  811MOL0     C 6983   5.533   2.205   3.411 -0.0325  0.3074 -0.6862
  811MOL0     C 6984   5.630   2.270   3.443 -0.6320  1.3746 -0.3778
  811MOL0     C 6985   4.852   2.192   3.299  0.9602 -0.7459  0.0161
  811MOL0     C 6986   4.726   2.223   3.351  0.6180 -0.7324  0.4290
  811MOL0     H 6987   4.481   2.467   3.698 -0.0668 -0.6828 -2.0180
  811MOL0     H 6988   4.258   2.518   3.838 -0.5876 -0.7909 -0.6320
  811MOL0     H 6989   3.939   2.470   3.636  3.7550 -0.2716 -0.2223
  811MOL0     H 6990   3.890   2.638   3.637 -0.4786 -0.7702  0.0350
  811MOL0     H 6991   3.753   2.475   3.744 -1.2365  0.9216 -1.2689
  811MOL0     H 6992   3.780   2.621   3.843  1.6232  1.1271  1.8145
  811MOL0     H 6993   3.904   2.497   3.999 -0.1667 -1.5310  1.5160
  811MOL0     H 6994   3.920   2.358   3.882  0.2625 -0.6191  1.2001
  811MOL0     H 6995   3.663   2.454   4.018  2.5324  1.3852  0.7155
  811MOL0     H 6996   3.677   2.313   3.910 -0.5099  0.3906  1.3460
  811MOL0     H 6997   3.789   2.372   4.183 -0.9096  1.0695 -0.4798
  811MOL0     H 6998   3.855   2.238   4.095  0.9725  0.2112 -1.6186
  811MOL0     H 6999   3.713   2.120   4.209 -1.8768 -0.9684  0.1183
  811MOL0     H 7000   3.642   2.140   4.049  0.8174  1.8817 -2.1535
  811MOL0     H 7001   3.559   2.303   4.280 -0.5972 -1.7008  1.2755
  811MOL0     H 7002   3.466   2.271   4.128 -0.7066 -0.2338 -0.3863
  811MOL0     H 7003   3.399   2.147   4.351  1.2029  0.6659  0.1995
  811MOL0     H 7004   3.544   2.043   4.311  0.4489 -0.1449  0.2496
  811MOL0     H 7005   3.202   2.114   4.170  3.0559  2.6365  0.3345
  811MOL0     H 7006   3.173   1.982   3.814  2.5527  3.8213  0.5654
  811MOL0     H 7007   3.087   2.076   3.935 -0.4161  0.3023 -2.7877
  811MOL0     H 7008   3.039   1.856   4.058  1.2589 -3.5937 -0.5709
  811MOL0     H 7009   3.124   1.766   3.934  2.3601  0.5291 -0.5102
  811MOL0     H 7010   2.864   1.943   3.911 -1.5059 -0.6067 -2.7656
  811MOL0     H 7011   2.957   1.874   3.771  4.5269 -1.1732  1.0823
  811MOL0     H 7012   2.853   1.709   4.007  1.7452 -0.2444  0.7879
  811MOL0     H 7013   2.903   1.652   3.849  1.6016 -0.2489  1.4205
  811MOL0     H 7014   2.726   1.539   4.012 -1.3355 -2.9241 -0.5003
  811MOL0     H 7015   2.522   1.385   4.053 -0.8850  0.5927 -0.3148
  811MOL0     H 7016   2.072   1.287   4.107 -1.3579 -1.3390 -0.1785
  811MOL0     H 7017   1.874   1.187   4.107  2.6660 -0.2289  0.2619
  811MOL0     H 7018   1.650   1.132   3.798  1.8730 -2.1721  2.0917
  811MOL0     H 7019   1.539   1.285   3.824 -1.2549  1.2830  2.2490
  811MOL0     H 7020   1.391   1.103   3.848 -0.5676  2.0315  1.4211
  811MOL0     H 7021   1.442   1.142   4.009  3.1096  2.6916  0.9039
  811MOL0     H 7022   1.600   0.932   3.873 -0.2653 -2.8634  0.7430
  811MOL0     H 7023   1.437   0.894   3.920 -1.0285  1.8563  1.5264
  811MOL0     H 7024   1.674   0.981   4.099  0.3340  1.1027 -3.4341
  811MOL0     H 7025   1.505   0.958   4.164 -0.3111  0.7665  0.0750
  811MOL0     H 7026   1.709   0.744   4.056 -1.1976 -0.3529 -0.4773
  811MOL0     H 7027   1.545   0.707   4.045 -1.9341  0.5272  0.2020
  811MOL0     H 7028   1.636   0.629   4.242  2.4027  0.4912 -2.5140
  811MOL0     H 7029   1.498   0.736   4.288  0.1796  2.5509  2.2268
  811MOL0     H 7030   1.658   0.915   4.368 -2.3600 -0.1359 -3.1782
  811MOL0     H 7031   1.705   0.765   4.442  1.5585  1.7356 -0.5597
  811MOL0     H 7032   1.890   0.912   4.367 -2.1777  2.9983 -1.7654
  811MOL0     H 7033   1.857   0.860   4.207  1.9659 -0.6525  1.3423
  811MOL0     H 7034   1.714   1.446   3.812  0.8734  2.4591  0.2444
  811MOL0     H 7035   1.930   1.551   3.796 -0.8910 -0.5754  0.5537
  811MOL0     H 7036   2.294   1.668   3.811  0.2724  1.1263 -1.0598
  811MOL0     H 7037   2.490   1.804   3.782  1.7599 -0.8308 -1.3190
  811MOL0     H 7038   4.066   2.634   3.493  1.2816  0.6243 -1.7702
  811MOL0     H 7039   4.280   2.614   3.360  2.5894 -1.4926 -0.6593
  811MOL0     H 7040   4.753   2.560   3.429 -0.4611  0.7371 -2.6781
  811MOL0     H 7041   4.984   2.506   3.370 -1.0389  0.0591 -0.4003
  811MOL0     H 7042   5.215   2.331   3.408 -1.8434 -0.7093  0.2561
  811MOL0     H 7043   5.170   2.453   3.284  0.3794  0.9666  1.9985
  811MOL0     H 7044   5.289   2.350   3.118 -0.0223  0.6506 -0.1669
  811MOL0     H 7045   5.391   2.399   3.244  0.8642 -0.8387  2.2841
  811MOL0     H 7046   5.435   2.163   3.141 -0.2495 -3.1096  0.9941
  811MOL0     H 7047   5.282   2.112   3.196  1.1679 -0.9820 -3.3116
  811MOL0     H 7048   5.341   2.146   3.446  0.1348 -1.7826  0.7057
  811MOL0     H 7049   5.436   2.028   3.358 -2.2326 -0.3030  2.4364
  811MOL0     H 7050   5.718   2.326   3.467 -1.4544  1.9962  1.3579
  811MOL0     H 7051   4.876   2.092   3.264  1.4398 -0.4222 -0.6041
  811MOL0     H 7052   4.655   2.141   3.353 -0.6887  0.2410 -1.8187
  812MOL0     O 7053   2.993   8.746   4.356 -0.2887  0.4479 -0.7207
  812MOL0     C 7054   2.973   8.691   4.470 -0.3729 -0.1260 -0.0344
  812MOL0     O 7055   2.866   8.624   4.508  0.2864 -0.1237  0.6043
  812MOL0     C 7056   2.784   8.587   4.405 -0.3092 -1.0700  0.5321
  812MOL0     C 7057   2.776   8.454   4.368  0.5142  0.9487  0.0638
  812MOL0     C 7058   2.675   8.420   4.276 -0.4330 -0.3459  0.8602
  812MOL0     C 7059   2.582   8.514   4.226  1.2057 -0.5699 -0.4554
  812MOL0     O 7060   2.467   8.479   4.153  0.7929  0.1103 -0.8849
  812MOL0     C 7061   2.455   8.339   4.114  0.7949  0.6633 -0.3806
  812MOL0     C 7062   2.312   8.315   4.041  0.6422  0.3677 -0.0870
  812MOL0     C 7063   2.290   8.406   3.925  0.3303 -0.4654 -0.1383
  812MOL0     C 7064   2.193   8.344   3.821 -0.4530 -0.3827  0.2834
  812MOL0     C 7065   2.127   8.437   3.723 -0.1044 -0.2919 -0.0169
  812MOL0     C 7066   2.070   8.566   3.779 -0.0740 -0.0772 -0.2894
  812MOL0     C 7067   1.950   8.536   3.864  0.6916  0.2131 -0.3469
  812MOL0     C 7068   1.864   8.675   3.886 -0.3621  0.2024 -1.2967
  812MOL0     N 7069   1.824   8.682   4.036  0.0128 -0.2276  0.9400
  812MOL0     C 7070   1.703   8.731   4.077 -0.3270 -0.0601  0.5821
  812MOL0     C 7071   1.718   8.734   4.208 -0.2594 -0.2275  0.7931
  812MOL0     C 7072   1.622   8.777   4.321 -0.9308 -0.3325  0.5798
  812MOL0     C 7073   1.483   8.814   4.272  0.0992  0.1792 -0.4294
  812MOL0     C 7074   1.407   8.685   4.265 -0.5171 -0.8924  0.6691
  812MOL0     C 7075   1.265   8.714   4.212 -0.3745  0.0860  0.6560
  812MOL0     O 7076   1.178   8.775   4.306  0.1568 -0.5955 -0.4325
  812MOL0     C 7077   1.042   8.789   4.278 -0.0674  0.2650  0.3156
  812MOL0     C 7078   0.991   8.755   4.151  0.7467 -0.6301  0.5344
  812MOL0     C 7079   0.860   8.783   4.113  0.2393  0.0157 -0.5068
  812MOL0     C 7080   0.782   8.871   4.200  0.0686 -0.0129 -0.5417
  812MOL0     C 7081   0.647   8.913   4.154 -0.7610  0.1538  0.4851
  812MOL0     O 7082   0.607   8.897   4.023 -0.5294  0.1612  0.4552
  812MOL0     C 7083   0.482   8.929   3.991  0.8605 -0.0564 -0.2537
  812MOL0     C 7084   0.376   8.837   3.964  0.5537  0.2540  0.2968
  812MOL0     C 7085   0.250   8.894   3.930  0.1931 -0.6283  0.5824
  812MOL0     C 7086   0.235   9.026   3.911  0.3182  0.0006 -0.5312
  812MOL0     O 7087   0.112   9.071   3.868 -0.1456  0.3674 -0.4602
  812MOL0     C 7088   0.073   9.024   3.741  0.0151 -0.4350  0.7716
  812MOL0     C 7089  -0.072   9.054   3.703 -0.7330 -1.4299 -0.4437
  812MOL0     C 7090  -0.096   9.203   3.667  0.7959 -0.1758  0.7136
  812MOL0     C 7091  -0.241   9.235   3.630 -0.0795 -0.5271  0.7884
  812MOL0     C 7092  -0.265   9.387   3.637  0.4211 -0.5912  0.4616
  812MOL0     C 7093  -0.410   9.424   3.606 -0.7340 -0.1016  0.0337
  812MOL0     C 7094  -0.440   9.420   3.459 -0.0232  0.0494 -0.1973
  812MOL0     C 7095  -0.591   9.377   3.448 -0.4393 -0.0573 -1.4639
  812MOL0    Cl 7096  -0.680   9.484   3.560 -0.1928  0.0440  0.0183
  812MOL0     C 7097   0.337   9.118   3.949 -0.3096  0.2460  0.3252
  812MOL0     C 7098   0.454   9.067   3.988  0.1200  0.5360 -0.6605
  812MOL0     O 7099   0.584   8.976   4.244 -0.0533 -0.2647 -0.1176
  812MOL0     C 7100   0.827   8.899   4.331 -0.0543  1.2796  0.4491
  812MOL0     C 7101   0.951   8.848   4.368 -0.3024  0.1767 -0.3505
  812MOL0     N 7102   1.845   8.692   4.239  0.0323 -0.5272  0.2838
  812MOL0     N 7103   1.908   8.665   4.139  0.2858  0.1436  0.5334
  812MOL0     C 7104   2.588   8.649   4.265 -0.1604 -0.6213  0.1819
  812MOL0     C 7105   2.693   8.678   4.358  0.4555  0.4849  0.8991
  812MOL0     C 7106   3.087   8.698   4.568 -0.1707 -0.5905  0.2234
  812MOL0     C 7107   3.057   8.676   4.704  0.1295  0.3246 -0.8233
  812MOL0     C 7108   3.161   8.684   4.799 -0.2098  0.2065 -0.2291
  812MOL0     C 7109   3.283   8.746   4.766 -0.9567 -0.0835 -0.7150
  812MOL0     O 7110   3.363   8.771   4.882 -0.5664 -0.0355  0.5322
  812MOL0     C 7111   3.497   8.835   4.880 -0.3173 -0.3600  0.6085
  812MOL0     C 7112   3.564   8.847   5.017  0.0218 -0.6831  0.1364
  812MOL0     C 7113   3.604   8.712   5.068  0.3111 -0.0451 -0.8457
  812MOL0     C 7114   3.660   8.720   5.209  0.0213 -0.6118  0.8368
  812MOL0     C 7115   3.720   8.585   5.232 -0.1957  0.4163  0.0766
  812MOL0     C 7116   3.767   8.470   5.248  1.0004  0.5915 -0.4718
  812MOL0     C 7117   3.310   8.769   4.630  0.1904 -0.0114  0.2583
  812MOL0     C 7118   3.213   8.746   4.534  0.1030  0.7682  0.3069
  812MOL0     H 7119   2.847   8.394   4.424  0.5124  1.4621  0.6311
  812MOL0     H 7120   2.669   8.320   4.235  2.0106  0.5873 -2.1289
  812MOL0     H 7121   2.475   8.278   4.203  2.6396  2.1345  0.2753
  812MOL0     H 7122   2.528   8.312   4.037 -1.1398  2.0758 -2.8482
  812MOL0     H 7123   2.226   8.312   4.109 -0.6816 -0.3158 -1.7333
  812MOL0     H 7124   2.314   8.213   4.002 -5.2611 -0.8049  1.6643
  812MOL0     H 7125   2.383   8.430   3.872 -0.5301 -2.0033 -2.4549
  812MOL0     H 7126   2.245   8.493   3.974  1.7660  2.6579 -3.8873
  812MOL0     H 7127   2.248   8.263   3.771 -1.1740 -0.3883 -0.5221
  812MOL0     H 7128   2.106   8.300   3.871 -0.4745 -1.7639 -0.8945
  812MOL0     H 7129   2.047   8.392   3.663 -0.0341  0.0877 -0.3972
  812MOL0     H 7130   2.201   8.467   3.649 -1.0945  1.0247 -0.5295
  812MOL0     H 7131   2.033   8.629   3.698  0.6933 -2.0127 -2.2336
  812MOL0     H 7132   2.141   8.630   3.832  0.6182  0.4622 -1.8160
  812MOL0     H 7133   1.889   8.465   3.808 -2.0750  0.8189  1.7042
  812MOL0     H 7134   1.978   8.492   3.960 -0.3408 -3.7224 -1.6585
  812MOL0     H 7135   1.772   8.663   3.828 -0.8134 -0.4369 -0.4763
  812MOL0     H 7136   1.914   8.769   3.859 -2.7919  1.9478 -0.0471
  812MOL0     H 7137   1.609   8.743   4.023 -0.0159 -1.4037 -0.3383
  812MOL0     H 7138   1.674   8.859   4.372 -2.6245 -1.1079  3.7532
  812MOL0     H 7139   1.629   8.694   4.391  0.6621 -0.3722  0.4155
  812MOL0     H 7140   1.480   8.871   4.179 -1.8166 -0.4772 -0.8149
  812MOL0     H 7141   1.431   8.864   4.354 -0.9443 -3.9008  1.6764
  812MOL0     H 7142   1.459   8.616   4.199 -1.1972 -0.4058 -0.4089
  812MOL0     H 7143   1.390   8.634   4.360  0.8464 -0.3105  1.2525
  812MOL0     H 7144   1.209   8.625   4.183 -1.3492  0.5696  1.0015
  812MOL0     H 7145   1.278   8.784   4.129 -0.4010 -0.4599  0.1885
  812MOL0     H 7146   1.050   8.708   4.074 -0.2020 -0.9862 -0.0026
  812MOL0     H 7147   0.822   8.759   4.014 -0.4398  1.6391 -0.6690
  812MOL0     H 7148   0.405   8.732   3.957 -0.6346 -0.0085 -1.2754
  812MOL0     H 7149   0.158   8.843   3.903  1.9579 -2.2083 -3.1464
  812MOL0     H 7150   0.092   8.919   3.713  1.1710  0.1014 -0.6108
  812MOL0     H 7151   0.139   9.068   3.666 -1.7229 -0.4480 -0.8447
  812MOL0     H 7152  -0.129   9.032   3.794 -0.4063  0.4679  0.2614
  812MOL0     H 7153  -0.104   8.983   3.626 -0.6636 -1.9911  0.0361
  812MOL0     H 7154  -0.027   9.236   3.589 -0.3874 -2.7858 -1.6471
  812MOL0     H 7155  -0.069   9.262   3.755 -1.1329  1.0649  0.5302
  812MOL0     H 7156  -0.270   9.198   3.531 -0.5230 -2.1272  1.4846
  812MOL0     H 7157  -0.313   9.177   3.688 -1.0015 -0.6348 -0.4118
  812MOL0     H 7158  -0.198   9.435   3.565 -3.0345  0.7375 -2.1583
  812MOL0     H 7159  -0.241   9.425   3.736  0.0221  0.3536  0.2062
  812MOL0     H 7160  -0.425   9.528   3.638  0.4926 -0.1046  0.6817
  812MOL0     H 7161  -0.478   9.356   3.658  0.6839 -1.7167 -0.1483
  812MOL0     H 7162  -0.431   9.516   3.407 -3.8744  1.8520  2.0794
  812MOL0     H 7163  -0.383   9.343   3.405 -1.3043 -0.7455 -0.4578
  812MOL0     H 7164  -0.592   9.270   3.470  3.7055 -0.6552 -3.2930
  812MOL0     H 7165  -0.610   9.388   3.340  1.3481  2.2508 -1.6117
  812MOL0     H 7166   0.331   9.226   3.945 -1.4633  0.2517  1.4245
  812MOL0     H 7167   0.529   9.138   4.023  0.2318 -0.1409  0.5154
  812MOL0     H 7168   0.782   8.969   4.400 -0.3903  0.1585  1.3969
  812MOL0     H 7169   0.987   8.872   4.467  1.1554 -3.9464  0.3501
  812MOL0     H 7170   2.511   8.721   4.241 -3.0295 -3.1785  1.0021
  812MOL0     H 7171   2.694   8.781   4.392 -1.1938  0.9343 -0.3161
  812MOL0     H 7172   2.960   8.644   4.741  0.4293 -2.0920 -1.9401
  812MOL0     H 7173   3.130   8.668   4.902  0.7077  1.7136  0.3175
  812MOL0     H 7174   3.485   8.929   4.826  0.0077  0.2038  1.5125
  812MOL0     H 7175   3.566   8.774   4.820  2.1867  0.5086  2.4262
  812MOL0     H 7176   3.646   8.919   5.009 -1.1241  0.5236 -1.5021
  812MOL0     H 7177   3.498   8.888   5.094 -1.2290 -2.1990 -0.0751
  812MOL0     H 7178   3.669   8.660   4.996  3.9794  1.5477  1.0274
  812MOL0     H 7179   3.510   8.658   5.081 -0.2233  1.0051 -0.2782
  812MOL0     H 7180   3.724   8.808   5.222 -0.8173 -0.1344  1.8614
  812MOL0     H 7181   3.577   8.737   5.277 -1.3589 -3.0061 -0.1083
  812MOL0     H 7182   3.807   8.371   5.249 -0.9961 -0.2526  0.0521
  812MOL0     H 7183   3.404   8.810   4.594 -1.1581  4.4597  1.1279
  812MOL0     H 7184   3.237   8.773   4.431  1.0377 -0.7573  0.0853
  813MOL0     O 7185   5.394   7.035   1.661  0.4893  0.1204 -0.8137
  813MOL0     C 7186   5.434   7.045   1.548  0.7645 -0.6306  0.2524
  813MOL0     O 7187   5.358   7.066   1.435 -0.1722 -0.0464 -0.7285
  813MOL0     C 7188   5.218   7.077   1.442  0.1836 -0.4718  0.2688
  813MOL0     C 7189   5.133   7.010   1.533  0.2237 -0.5030  0.6755
  813MOL0     C 7190   4.994   7.021   1.514 -0.0258  0.2396 -0.2627
  813MOL0     C 7191   4.926   7.087   1.409  0.7952  0.3470 -0.1272
  813MOL0     O 7192   4.787   7.100   1.388 -0.6719 -0.4534 -0.3118
  813MOL0     C 7193   4.717   6.978   1.375 -0.9645  0.0455 -0.4937
  813MOL0     C 7194   4.656   6.956   1.235 -0.5996 -0.2765 -0.2717
  813MOL0     C 7195   4.605   6.813   1.214  0.0941 -0.2391  1.2643
  813MOL0     C 7196   4.510   6.809   1.091 -0.1044 -0.4813  0.1036
  813MOL0     C 7197   4.427   6.679   1.094  0.6037 -0.0040  0.0307
  813MOL0     C 7198   4.320   6.667   0.984  0.2943  0.5758  0.1108
  813MOL0     C 7199   4.205   6.759   1.018  0.6510  0.5218  0.6366
  813MOL0     C 7200   4.095   6.699   0.935  1.0483  0.9009 -0.9776
  813MOL0     N 7201   3.971   6.789   0.937  0.3045 -0.2249  0.1907
  813MOL0     C 7202   3.883   6.805   1.042 -0.2715 -0.0445  0.4399
  813MOL0     C 7203   3.768   6.862   0.976 -0.7234  0.9590  0.2178
  813MOL0     C 7204   3.640   6.895   1.042 -0.0010  0.5904  0.5942
  813MOL0     C 7205   3.533   6.921   0.944  0.4385 -0.4166  0.7690
  813MOL0     C 7206   3.395   6.934   1.008 -0.0273  0.2365 -0.7849
  813MOL0     C 7207   3.281   6.929   0.907 -0.1755 -0.4968 -0.9108
  813MOL0     O 7208   3.166   6.884   0.979  0.1084  0.3188 -0.6103
  813MOL0     C 7209   3.056   6.845   0.910  0.5396 -0.1324  0.6351
  813MOL0     C 7210   3.054   6.831   0.771  1.0498  0.4389 -0.1439
  813MOL0     C 7211   2.929   6.786   0.711 -0.7992  0.4529  0.7301
  813MOL0     C 7212   2.807   6.767   0.788 -0.0545 -0.4205 -0.7193
  813MOL0     C 7213   2.676   6.751   0.736 -0.0548 -0.6673 -0.3970
  813MOL0     O 7214   2.660   6.685   0.616  0.3020 -0.2758 -0.0043
  813MOL0     C 7215   2.536   6.702   0.555  0.9015  0.9092  0.5940
  813MOL0     C 7216   2.451   6.587   0.541 -0.5626 -0.5226  0.3255
  813MOL0     C 7217   2.328   6.593   0.473 -1.1043  1.0965 -0.7238
  813MOL0     C 7218   2.289   6.712   0.406 -0.1779 -0.3012  1.1378
  813MOL0     O 7219   2.160   6.712   0.347 -0.3737  0.4354 -0.0748
  813MOL0     C 7220   2.130   6.833   0.283  0.0368  0.0188  0.2771
  813MOL0     C 7221   1.988   6.837   0.228  0.2196  0.9733  0.4007
  813MOL0     C 7222   1.940   6.966   0.158  0.0996 -0.0372  0.2433
  813MOL0     C 7223   1.829   6.929   0.064  0.5890 -0.0789  0.0685
  813MOL0     C 7224   1.762   7.049  -0.012 -0.7320 -0.0812 -0.2796
  813MOL0     C 7225   1.644   7.015  -0.108  0.5479 -0.6759  0.1171
  813MOL0     C 7226   1.597   7.142  -0.187 -0.6162 -0.1881  0.4683
  813MOL0     C 7227   1.442   7.150  -0.188 -0.1654 -0.0700  0.9796
  813MOL0    Cl 7228   1.388   6.989  -0.270  0.0683  0.0513 -0.2229
  813MOL0     C 7229   2.376   6.823   0.413 -0.5870 -0.6780  0.1810
  813MOL0     C 7230   2.493   6.816   0.492  0.7930 -0.0453  0.2029
  813MOL0     O 7231   2.593   6.813   0.799  0.4927 -0.0464  0.6768
  813MOL0     C 7232   2.827   6.763   0.934  0.0133  1.3957  0.8863
  813MOL0     C 7233   2.953   6.802   0.984  0.7697 -0.0390 -0.5831
  813MOL0     N 7234   3.804   6.867   0.837  0.4983  0.7137 -0.0554
  813MOL0     N 7235   3.920   6.845   0.825 -0.6120  0.4638  0.3320
  813MOL0     C 7236   5.011   7.154   1.319  0.4941  0.2700  0.3032
  813MOL0     C 7237   5.151   7.143   1.340 -0.6571 -0.7008  0.6029
  813MOL0     C 7238   5.574   7.036   1.522  0.3585 -0.0747 -0.2655
  813MOL0     C 7239   5.635   7.052   1.394  0.0606 -0.7797 -1.1224
  813MOL0     C 7240   5.771   7.029   1.376  0.4560 -0.3442 -0.5323
  813MOL0     C 7241   5.863   6.993   1.478  0.1261 -0.7156 -0.4148
  813MOL0     O 7242   5.996   6.964   1.457  0.0231  0.0881  0.4286
  813MOL0     C 7243   6.068   6.990   1.337 -0.3395  0.4168 -0.0865
  813MOL0     C 7244   6.205   7.067   1.366 -0.3375  0.0337  0.2564
  813MOL0     C 7245   6.244   7.061   1.517 -0.3750  0.8126 -0.7398
  813MOL0     C 7246   6.366   7.141   1.539 -1.2014  0.4816  0.4012
  813MOL0     C 7247   6.473   7.082   1.462  0.8750 -0.0287 -0.3431
  813MOL0     C 7248   6.550   7.018   1.396 -0.2463  0.6584  0.1344
  813MOL0     C 7249   5.800   6.973   1.605 -0.5812 -0.2452  0.2641
  813MOL0     C 7250   5.664   7.008   1.630  0.5213  0.5660  0.4038
  813MOL0     H 7251   5.180   6.936   1.598 -0.6884 -1.7848 -0.0825
  813MOL0     H 7252   4.939   6.961   1.585  0.7544  2.0037  1.9535
  813MOL0     H 7253   4.629   6.982   1.440 -0.8880 -3.9581  0.1102
  813MOL0     H 7254   4.788   6.901   1.404  1.4049  2.1955 -0.1909
  813MOL0     H 7255   4.724   6.964   1.150  1.0338 -3.1280  0.6161
  813MOL0     H 7256   4.577   7.031   1.222 -0.0308  0.3211 -0.3295
  813MOL0     H 7257   4.560   6.770   1.303  0.2361 -2.8966  0.1580
  813MOL0     H 7258   4.686   6.740   1.204  0.7911  0.6842 -0.2390
  813MOL0     H 7259   4.445   6.897   1.083 -1.7767 -1.4899  1.7719
  813MOL0     H 7260   4.563   6.808   0.996 -0.3500 -1.1072 -0.0340
  813MOL0     H 7261   4.388   6.671   1.196  0.3008  2.6155  0.1923
  813MOL0     H 7262   4.491   6.591   1.091  1.0363  0.2840 -3.5638
  813MOL0     H 7263   4.280   6.567   1.001 -1.8294  1.1844 -0.9945
  813MOL0     H 7264   4.350   6.680   0.880  0.4966 -0.5776  0.0131
  813MOL0     H 7265   4.169   6.760   1.122  0.1747  1.9314  0.4794
  813MOL0     H 7266   4.237   6.862   0.998 -0.3810  0.9316  1.0043
  813MOL0     H 7267   4.068   6.602   0.978  2.5483  0.9281  0.0734
  813MOL0     H 7268   4.136   6.682   0.835  3.0398 -0.5893  0.0206
  813MOL0     H 7269   3.877   6.764   1.142  0.2918  0.9839  0.9061
  813MOL0     H 7270   3.664   6.983   1.102 -0.2148  0.1282  1.3776
  813MOL0     H 7271   3.613   6.822   1.119 -0.3543  0.8053  0.6782
  813MOL0     H 7272   3.530   6.840   0.870  1.1430  1.3580 -1.2829
  813MOL0     H 7273   3.563   7.009   0.887 -0.1551 -1.6899 -1.6183
  813MOL0     H 7274   3.393   6.848   1.076  1.3426  0.6804 -0.1361
  813MOL0     H 7275   3.393   7.025   1.069  2.4730  0.1842 -0.5183
  813MOL0     H 7276   3.312   6.849   0.839  0.9330 -1.5459  0.7628
  813MOL0     H 7277   3.260   7.024   0.857 -1.3811  0.2629  0.9121
  813MOL0     H 7278   3.140   6.858   0.711  0.3965 -0.8622 -1.7412
  813MOL0     H 7279   2.931   6.789   0.603 -0.9739 -0.3091  0.6978
  813MOL0     H 7280   2.478   6.494   0.590  0.1163 -1.7359 -2.1952
  813MOL0     H 7281   2.264   6.508   0.452  0.7929 -0.8112  0.7715
  813MOL0     H 7282   2.200   6.853   0.202 -1.8961  1.1830 -1.1858
  813MOL0     H 7283   2.141   6.916   0.354 -1.6143  1.3600 -0.9463
  813MOL0     H 7284   1.912   6.826   0.307 -0.6999  3.6993  0.0221
  813MOL0     H 7285   1.969   6.757   0.156 -3.1867  0.2507  1.8923
  813MOL0     H 7286   2.017   7.010   0.095  0.9239 -0.6196  0.8372
  813MOL0     H 7287   1.902   7.038   0.232 -0.1136 -0.6538  0.7434
  813MOL0     H 7288   1.865   6.874  -0.024 -1.0902 -1.6496  0.2972
  813MOL0     H 7289   1.757   6.856   0.102  0.6738 -0.4800 -0.5215
  813MOL0     H 7290   1.837   7.107  -0.067 -1.2128  1.1403  0.3030
  813MOL0     H 7291   1.718   7.122   0.058 -2.5396 -0.5421 -0.8721
  813MOL0     H 7292   1.565   6.966  -0.050 -0.8278  1.0393 -0.2353
  813MOL0     H 7293   1.678   6.960  -0.196  0.3516  0.0962 -0.4493
  813MOL0     H 7294   1.640   7.232  -0.143 -2.9233  1.5248 -0.5609
  813MOL0     H 7295   1.635   7.138  -0.290  2.1467  0.8513  1.3618
  813MOL0     H 7296   1.407   7.237  -0.243  1.2079 -0.2114 -0.1773
  813MOL0     H 7297   1.411   7.151  -0.083  2.6350  1.6517  1.9115
  813MOL0     H 7298   2.365   6.923   0.370  0.1140  0.0333  1.5928
  813MOL0     H 7299   2.558   6.901   0.514  0.1920 -0.0425  2.1340
  813MOL0     H 7300   2.753   6.737   1.009 -0.5546 -1.7449 -0.5876
  813MOL0     H 7301   2.963   6.798   1.092  0.3656  0.3778 -0.5262
  813MOL0     H 7302   4.963   7.209   1.239 -1.7490  1.9383  2.6126
  813MOL0     H 7303   5.212   7.193   1.264 -1.9186 -2.3900 -1.6368
  813MOL0     H 7304   5.561   7.073   1.318 -0.5287  1.2078 -0.0743
  813MOL0     H 7305   5.802   7.034   1.272 -3.0315  3.1145 -1.6357
  813MOL0     H 7306   6.020   7.046   1.257  2.2518  1.2069 -1.2209
  813MOL0     H 7307   6.093   6.895   1.289 -1.6525  1.1059 -2.2451
  813MOL0     H 7308   6.280   7.018   1.304  1.5907  1.6188  1.2515
  813MOL0     H 7309   6.195   7.173   1.339  0.8017  0.9416  3.1102
  813MOL0     H 7310   6.257   6.960   1.557 -1.2765  0.7521 -0.5760
  813MOL0     H 7311   6.164   7.101   1.581 -1.9115 -0.8811 -1.5024
  813MOL0     H 7312   6.354   7.243   1.502  2.5456 -0.1891 -3.4929
  813MOL0     H 7313   6.400   7.144   1.643 -0.1961 -1.3013  0.1711
  813MOL0     H 7314   6.615   6.953   1.341  0.4354  0.6651  0.9151
  813MOL0     H 7315   5.864   6.945   1.688 -0.3111 -1.9452 -0.4802
  813MOL0     H 7316   5.633   6.987   1.732 -0.4294 -0.6134 -0.1091
  814MOL0     O 7317   1.882   7.374   2.913  0.4909  1.0747  0.3708
  814MOL0     C 7318   1.962   7.326   2.828  0.2574 -0.9382 -0.2478
  814MOL0     O 7319   1.921   7.258   2.708 -0.5876  0.2424  0.2143
  814MOL0     C 7320   1.791   7.270   2.672  0.4707 -0.8780 -0.1570
  814MOL0     C 7321   1.749   7.363   2.574  0.8525 -0.0300  0.6957
  814MOL0     C 7322   1.606   7.361   2.540 -1.4271 -0.2587  0.1236
  814MOL0     C 7323   1.523   7.263   2.575  0.3555 -0.5295 -0.2972
  814MOL0     O 7324   1.404   7.263   2.512  0.7921  0.2143  0.2486
  814MOL0     C 7325   1.294   7.178   2.546  0.4041  0.4599 -0.0768
  814MOL0     C 7326   1.164   7.208   2.468  0.1759  0.0996 -0.5003
  814MOL0     C 7327   1.087   7.334   2.504  0.0297 -0.3931 -0.3813
  814MOL0     C 7328   0.977   7.372   2.405 -0.3004  0.4599 -0.1535
  814MOL0     C 7329   0.905   7.500   2.443 -0.5036 -0.4121 -0.5442
  814MOL0     C 7330   0.882   7.532   2.597  0.5156 -0.4319 -0.1886
  814MOL0     C 7331   0.774   7.642   2.599  0.2137 -0.2527 -0.4583
  814MOL0     C 7332   0.640   7.575   2.631  0.5238  0.1063 -0.2911
  814MOL0     N 7333   0.539   7.667   2.688 -0.1120 -0.1113  0.1872
  814MOL0     C 7334   0.515   7.678   2.822  0.6979 -0.6206 -0.6685
  814MOL0     C 7335   0.395   7.751   2.828 -0.5198  0.5456 -0.8845
  814MOL0     C 7336   0.340   7.804   2.956 -0.2846 -0.7372 -0.1031
  814MOL0     C 7337   0.191   7.794   2.967 -0.4868  0.1391  0.7680
  814MOL0     C 7338   0.123   7.855   3.097  0.2838 -0.7062  0.9150
  814MOL0     C 7339  -0.030   7.843   3.105  0.5998 -0.3302 -0.3149
  814MOL0     O 7340  -0.091   7.941   3.196 -0.0399  0.2373  0.1915
  814MOL0     C 7341  -0.226   7.922   3.220 -0.0321 -0.5378  0.2703
  814MOL0     C 7342  -0.311   7.837   3.144  0.1407 -0.6763  0.1759
  814MOL0     C 7343  -0.454   7.839   3.174 -0.2262  0.6630  0.1037
  814MOL0     C 7344  -0.500   7.920   3.286 -0.6549  0.8408 -0.4122
  814MOL0     C 7345  -0.646   7.924   3.320 -0.9121  0.0900  0.3957
  814MOL0     O 7346  -0.722   7.817   3.277 -0.1889 -0.2310 -0.8809
  814MOL0     C 7347  -0.854   7.815   3.297 -0.1322 -0.4570 -0.0184
  814MOL0     C 7348  -0.925   7.868   3.406  0.7354  0.2593  0.6424
  814MOL0     C 7349  -1.064   7.845   3.424  0.0160 -0.6971  0.0932
  814MOL0     C 7350  -1.144   7.782   3.326 -0.0289  0.5377  0.3399
  814MOL0     O 7351  -1.279   7.755   3.345  0.7115  0.8911  0.2922
  814MOL0     C 7352  -1.312   7.707   3.472  0.5742  0.6196  0.1452
  814MOL0     C 7353  -1.418   7.589   3.471  0.2430 -0.7265  0.5958
  814MOL0     C 7354  -1.443   7.517   3.604 -0.4110 -0.2868 -0.6744
  814MOL0     C 7355  -1.485   7.605   3.717  0.0672  0.1710 -0.8058
  814MOL0     C 7356  -1.628   7.646   3.692 -0.9080  1.2013 -0.5544
  814MOL0     C 7357  -1.674   7.715   3.818  1.8461  0.5160 -0.1956
  814MOL0     C 7358  -1.585   7.826   3.876 -0.3957 -0.7499  0.1847
  814MOL0     C 7359  -1.659   7.912   3.974 -0.2082  0.1165  0.0924
  814MOL0    Cl 7360  -1.734   7.814   4.107 -0.3026  0.2624  0.3197
  814MOL0     C 7361  -1.072   7.735   3.209 -0.0818 -0.1381  0.2415
  814MOL0     C 7362  -0.930   7.750   3.199 -0.7293  0.8008 -0.1591
  814MOL0     O 7363  -0.678   8.034   3.372 -0.7372 -0.6219  0.3863
  814MOL0     C 7364  -0.407   7.990   3.365 -1.2533  0.6957 -0.8977
  814MOL0     C 7365  -0.279   8.003   3.325 -0.4341 -0.8326 -0.3366
  814MOL0     N 7366   0.352   7.784   2.703 -0.5920 -0.1214  1.1073
  814MOL0     N 7367   0.433   7.724   2.621 -0.3657  0.2115 -1.2077
  814MOL0     C 7368   1.568   7.168   2.665  0.6971 -0.5133  0.4149
  814MOL0     C 7369   1.700   7.171   2.710  0.9360  1.0347 -0.4976
  814MOL0     C 7370   2.108   7.364   2.846  1.1835  0.2332  0.6009
  814MOL0     C 7371   2.162   7.453   2.942 -0.0726 -0.1723 -0.3029
  814MOL0     C 7372   2.298   7.488   2.942  0.4919  0.8167 -0.8864
  814MOL0     C 7373   2.396   7.419   2.867  1.2688 -0.1732 -0.2933
  814MOL0     O 7374   2.527   7.449   2.886 -0.6761  0.4041  0.0903
  814MOL0     C 7375   2.616   7.374   2.802 -0.7287 -0.5157 -0.6578
  814MOL0     C 7376   2.754   7.438   2.824  0.7721  0.7151 -0.1057
  814MOL0     C 7377   2.778   7.577   2.762  0.1710 -0.2916 -0.0184
  814MOL0     C 7378   2.907   7.651   2.807 -0.0954  0.4767  0.3015
  814MOL0     C 7379   3.023   7.555   2.785  0.3143  0.0977 -0.6459
  814MOL0     C 7380   3.114   7.472   2.797 -1.3006 -0.4743  0.2942
  814MOL0     C 7381   2.338   7.332   2.764 -0.3475 -0.4151 -0.1078
  814MOL0     C 7382   2.201   7.307   2.757  0.0042  0.3718  0.0785
  814MOL0     H 7383   1.804   7.445   2.529 -0.8228  0.1073 -1.2394
  814MOL0     H 7384   1.564   7.438   2.476 -1.5810  0.6915  1.3401
  814MOL0     H 7385   1.252   7.198   2.645 -1.3333 -0.7460 -0.5297
  814MOL0     H 7386   1.334   7.076   2.545  1.1861  0.7477  0.6949
  814MOL0     H 7387   1.088   7.131   2.484  0.7793 -0.7591 -1.5774
  814MOL0     H 7388   1.201   7.222   2.366  0.5813  1.0281 -0.2384
  814MOL0     H 7389   1.157   7.418   2.507  0.8290 -1.0553 -0.2162
  814MOL0     H 7390   1.052   7.330   2.607  1.0204 -2.5888 -0.0829
  814MOL0     H 7391   1.007   7.362   2.301  1.3914  3.1359 -0.0005
  814MOL0     H 7392   0.898   7.297   2.421  1.9991 -2.2629 -0.8253
  814MOL0     H 7393   0.816   7.509   2.380 -0.0129  2.8155 -0.9523
  814MOL0     H 7394   0.977   7.570   2.400 -1.7012  0.4865 -1.1398
  814MOL0     H 7395   0.971   7.559   2.654 -0.0992 -0.0794  0.6319
  814MOL0     H 7396   0.846   7.438   2.641  0.8987 -1.0710 -1.1892
  814MOL0     H 7397   0.796   7.704   2.686 -2.2344  0.8219 -0.5182
  814MOL0     H 7398   0.775   7.698   2.505  3.6667 -1.3596 -1.2356
  814MOL0     H 7399   0.649   7.491   2.700 -1.6112 -1.4445 -1.7941
  814MOL0     H 7400   0.604   7.532   2.538 -0.4667  2.8118 -1.2744
  814MOL0     H 7401   0.581   7.644   2.901  0.6065  3.7531  1.6277
  814MOL0     H 7402   0.367   7.910   2.956 -0.4379 -0.6858 -1.4596
  814MOL0     H 7403   0.368   7.747   3.045 -1.6565  0.6653  1.2901
  814MOL0     H 7404   0.178   7.686   2.971  1.3621 -0.1129  0.7687
  814MOL0     H 7405   0.156   7.843   2.876  1.8849 -0.4336 -0.5568
  814MOL0     H 7406   0.174   7.798   3.176  1.9048  2.0242  1.9856
  814MOL0     H 7407   0.151   7.958   3.122  3.2921 -1.6566  1.8943
  814MOL0     H 7408  -0.059   7.741   3.129  0.2175 -0.5648 -1.6788
  814MOL0     H 7409  -0.062   7.859   3.001  1.2870 -1.0125 -0.6417
  814MOL0     H 7410  -0.282   7.783   3.055  0.3582  0.5725 -0.5399
  814MOL0     H 7411  -0.528   7.769   3.134 -0.4615 -0.0336  1.6977
  814MOL0     H 7412  -0.873   7.921   3.485 -2.3534  1.2304  2.2043
  814MOL0     H 7413  -1.112   7.878   3.515 -1.2793  2.4690 -1.5773
  814MOL0     H 7414  -1.357   7.787   3.532  0.6958  1.8251 -1.2965
  814MOL0     H 7415  -1.241   7.654   3.536  1.0149 -0.0811 -0.8948
  814MOL0     H 7416  -1.384   7.517   3.395  1.2099  4.2302 -4.2840
  814MOL0     H 7417  -1.510   7.634   3.433  0.7483 -0.0677  0.1390
  814MOL0     H 7418  -1.349   7.484   3.648  0.8904  1.1718 -2.2215
  814MOL0     H 7419  -1.507   7.429   3.593  2.0509 -2.1327 -1.1759
  814MOL0     H 7420  -1.488   7.542   3.806 -3.0094 -1.0355 -1.5974
  814MOL0     H 7421  -1.417   7.688   3.734 -0.1004  0.4338 -1.3791
  814MOL0     H 7422  -1.696   7.561   3.676 -1.3732  0.9866  2.0734
  814MOL0     H 7423  -1.637   7.712   3.606 -2.4268 -1.1867 -2.3834
  814MOL0     H 7424  -1.697   7.642   3.896 -2.1662  1.3232 -0.3981
  814MOL0     H 7425  -1.775   7.755   3.800  1.3012  0.2528  2.0037
  814MOL0     H 7426  -1.485   7.801   3.912  0.8808  3.4245  0.1346
  814MOL0     H 7427  -1.558   7.900   3.799 -0.6365  2.6623  3.1464
  814MOL0     H 7428  -1.738   7.957   3.912 -3.3179  0.1068  3.6552
  814MOL0     H 7429  -1.602   7.995   4.018  0.8567 -1.6872  2.3212
  814MOL0     H 7430  -1.129   7.679   3.136 -0.7798  1.5493 -0.5697
  814MOL0     H 7431  -0.870   7.707   3.119 -1.5048 -0.8211  0.0880
  814MOL0     H 7432  -0.439   8.043   3.454  2.5268  2.7166 -0.5436
  814MOL0     H 7433  -0.225   8.084   3.373  0.2898 -0.4043 -1.8084
  814MOL0     H 7434   1.500   7.091   2.700  0.8792 -0.6711  0.4265
  814MOL0     H 7435   1.739   7.096   2.777  0.5877 -0.5288 -1.9826
  814MOL0     H 7436   2.088   7.503   3.004 -2.3401 -0.0257 -2.9084
  814MOL0     H 7437   2.325   7.562   3.017 -1.3941  0.9764 -0.3012
  814MOL0     H 7438   2.609   7.392   2.695  1.2622  1.0476 -0.5911
  814MOL0     H 7439   2.613   7.269   2.833 -1.3360 -0.0424  1.0106
  814MOL0     H 7440   2.770   7.445   2.932 -0.8645  1.2580  0.1318
  814MOL0     H 7441   2.819   7.358   2.788  0.1349  0.5160 -0.8543
  814MOL0     H 7442   2.693   7.642   2.783  0.8108  0.5170  0.1048
  814MOL0     H 7443   2.785   7.556   2.654 -0.2035  0.6850 -0.2389
  814MOL0     H 7444   2.923   7.750   2.762 -0.8661  1.5377  2.2249
  814MOL0     H 7445   2.899   7.678   2.913  0.7046  0.5648  0.3479
  814MOL0     H 7446   3.203   7.413   2.805 -0.6331  0.7612  2.9594
  814MOL0     H 7447   2.408   7.278   2.701  0.9695  0.1300  0.8347
  814MOL0     H 7448   2.169   7.235   2.682 -0.7900 -0.2308  0.9682
  815MOL0     O 7449   0.599   7.025   4.953 -0.3394 -0.1231  0.2492
  815MOL0     C 7450   0.671   7.009   4.849  0.8332 -0.2426  0.0279
  815MOL0     O 7451   0.632   7.030   4.722  0.0207  0.0642 -0.2195
  815MOL0     C 7452   0.502   7.039   4.703  0.7799 -0.5243 -0.1270
  815MOL0     C 7453   0.455   7.136   4.613  0.2587 -0.0157 -0.0136
  815MOL0     C 7454   0.327   7.134   4.556 -0.2909  0.1724  0.0348
  815MOL0     C 7455   0.250   7.025   4.574 -0.1081  0.2606  0.2712
  815MOL0     O 7456   0.140   7.000   4.490 -0.7144 -0.0262  0.0533
  815MOL0     C 7457   0.009   7.018   4.545 -0.0605  0.3480 -0.8549
  815MOL0     C 7458  -0.090   6.974   4.431  1.3122  0.8512  0.3490
  815MOL0     C 7459  -0.241   7.014   4.442  0.7648 -0.5183 -0.5622
  815MOL0     C 7460  -0.266   7.168   4.485  1.0573  0.4731 -0.1047
  815MOL0     C 7461  -0.409   7.219   4.442 -0.5281 -0.0703 -0.0566
  815MOL0     C 7462  -0.518   7.131   4.516  0.6886  0.1125  0.4169
  815MOL0     C 7463  -0.653   7.200   4.477 -0.0579 -0.2156 -1.3952
  815MOL0     C 7464  -0.758   7.121   4.557 -0.2018  0.1518  0.5079
  815MOL0     N 7465  -0.892   7.140   4.510 -0.0672 -0.4033  0.0735
  815MOL0     C 7466  -0.946   7.112   4.388  0.0976  0.2788 -0.0971
  815MOL0     C 7467  -1.072   7.164   4.389 -0.7701  0.0411  0.1755
  815MOL0     C 7468  -1.173   7.187   4.272 -0.6769 -0.0692 -0.7877
  815MOL0     C 7469  -1.258   7.055   4.265  0.4304  0.1788  0.2695
  815MOL0     C 7470  -1.359   7.079   4.153 -0.6666 -0.2307 -0.5138
  815MOL0     C 7471  -1.462   6.961   4.136 -0.3269 -1.1429  0.3047
  815MOL0     O 7472  -1.559   6.996   4.037 -0.5587 -0.7958  0.1920
  815MOL0     C 7473  -1.674   6.919   4.024 -0.6339  0.4051  0.0029
  815MOL0     C 7474  -1.753   6.930   3.911  0.5230  0.1437  0.5366
  815MOL0     C 7475  -1.879   6.876   3.905  0.4058  1.0767 -0.2102
  815MOL0     C 7476  -1.925   6.789   4.003 -0.0668 -0.4159 -0.0721
  815MOL0     C 7477  -2.056   6.727   3.996  1.4952 -0.3545  0.1575
  815MOL0     O 7478  -2.147   6.786   3.904 -0.1650 -0.5207 -0.6138
  815MOL0     C 7479  -2.270   6.747   3.886 -0.1402 -0.0406 -0.4577
  815MOL0     C 7480  -2.374   6.740   3.984 -0.2360 -0.3624  0.4539
  815MOL0     C 7481  -2.503   6.706   3.950 -0.4786 -0.6973  0.5073
  815MOL0     C 7482  -2.540   6.669   3.812  0.5729  0.1848 -0.0651
  815MOL0     O 7483  -2.666   6.645   3.766  0.0086  0.6450  0.6031
  815MOL0     C 7484  -2.776   6.634   3.852 -0.8125  0.0444 -0.8530
  815MOL0     C 7485  -2.893   6.595   3.776  0.2836  0.4444  0.1006
  815MOL0     C 7486  -2.887   6.442   3.738 -0.2522 -0.2404 -0.4510
  815MOL0     C 7487  -3.022   6.384   3.709 -0.0428  0.2474  0.3965
  815MOL0     C 7488  -3.006   6.242   3.649  0.3933 -0.2864  0.3045
  815MOL0     C 7489  -3.145   6.196   3.586  0.4305  0.5223 -0.8437
  815MOL0     C 7490  -3.264   6.185   3.687 -0.1148  0.1857  0.5734
  815MOL0     C 7491  -3.391   6.136   3.609  0.0922 -0.4084 -0.9566
  815MOL0    Cl 7492  -3.345   5.968   3.586  0.2629  0.4637 -0.0770
  815MOL0     C 7493  -2.436   6.657   3.720  1.1996 -0.1512 -0.1877
  815MOL0     C 7494  -2.306   6.703   3.756  0.4879 -0.0887 -0.2755
  815MOL0     O 7495  -2.085   6.636   4.071  0.0105 -0.3367  0.8043
  815MOL0     C 7496  -1.836   6.759   4.105 -0.4801  0.7976  0.1009
  815MOL0     C 7497  -1.715   6.819   4.117 -0.0542 -0.8250  0.0567
  815MOL0     N 7498  -1.099   7.213   4.512 -0.4885 -0.2898  0.6974
  815MOL0     N 7499  -0.995   7.202   4.581 -0.0305  0.6746 -0.4619
  815MOL0     C 7500   0.280   6.927   4.670 -0.3038  0.7266  0.4288
  815MOL0     C 7501   0.406   6.933   4.733 -0.2716  0.1193  0.6639
  815MOL0     C 7502   0.818   7.009   4.865  0.1488 -0.6166 -1.0886
  815MOL0     C 7503   0.865   7.017   4.996  0.6189 -0.1160 -0.3718
  815MOL0     C 7504   1.004   7.037   5.012 -0.1623 -0.4569 -0.8780
  815MOL0     C 7505   1.095   7.049   4.903  1.0492  0.0976 -0.2391
  815MOL0     O 7506   1.226   7.075   4.922  0.6472  0.0785 -0.3067
  815MOL0     C 7507   1.289   7.187   4.851  0.5031  0.9651 -0.2172
  815MOL0     C 7508   1.372   7.257   4.955  0.0866 -0.6638 -0.0471
  815MOL0     C 7509   1.290   7.372   5.023 -0.7177  0.6601  0.1903
  815MOL0     C 7510   1.393   7.452   5.106 -0.1415  0.9009  1.0810
  815MOL0     C 7511   1.474   7.547   5.038 -0.3747 -0.4855 -0.0287
  815MOL0     C 7512   1.539   7.624   4.964 -0.1579  0.0469  0.3275
  815MOL0     C 7513   1.042   7.034   4.777  0.2814  0.6101  0.5501
  815MOL0     C 7514   0.903   7.011   4.752  0.1170 -0.1450 -1.2238
  815MOL0     H 7515   0.535   7.198   4.575  0.8657 -1.2664 -0.8520
  815MOL0     H 7516   0.302   7.209   4.481  2.3125  2.7248  1.5266
  815MOL0     H 7517  -0.017   7.124   4.555  1.0800  0.4651  1.4312
  815MOL0     H 7518  -0.009   6.966   4.639  0.9350 -0.7905 -1.2757
  815MOL0     H 7519  -0.082   6.866   4.420 -0.0448  0.7477  0.2722
  815MOL0     H 7520  -0.055   7.036   4.347 -0.6977  1.1423 -0.3178
  815MOL0     H 7521  -0.291   6.947   4.512  1.4794 -3.8594 -3.0058
  815MOL0     H 7522  -0.275   6.990   4.341 -0.1999 -3.8862  0.4300
  815MOL0     H 7523  -0.255   7.176   4.593  3.9802 -1.1380 -0.1812
  815MOL0     H 7524  -0.201   7.232   4.424 -3.7000  4.9868 -1.1633
  815MOL0     H 7525  -0.423   7.217   4.334 -0.9454 -0.1544 -0.0022
  815MOL0     H 7526  -0.423   7.319   4.484  0.0273 -0.3728  0.8955
  815MOL0     H 7527  -0.505   7.133   4.624  0.7907 -1.4151  0.4651
  815MOL0     H 7528  -0.512   7.026   4.486  2.0174 -0.1618  1.5283
  815MOL0     H 7529  -0.657   7.307   4.497 -1.1080 -0.3607 -0.7642
  815MOL0     H 7530  -0.683   7.202   4.372 -0.3518  2.1519 -1.3097
  815MOL0     H 7531  -0.748   7.155   4.661 -0.0266  2.5906 -0.2408
  815MOL0     H 7532  -0.744   7.013   4.545  3.0645  0.5532 -0.3791
  815MOL0     H 7533  -0.893   7.057   4.311 -0.6494 -2.0505  0.9870
  815MOL0     H 7534  -1.107   7.214   4.189 -1.3130  1.0584 -0.9507
  815MOL0     H 7535  -1.227   7.281   4.287 -0.7562 -0.1135 -0.7955
  815MOL0     H 7536  -1.306   7.037   4.362 -0.2117 -2.3942 -0.4627
  815MOL0     H 7537  -1.196   6.965   4.255  0.3330  0.0760  0.5960
  815MOL0     H 7538  -1.416   7.168   4.181  2.2651  0.7881  3.0996
  815MOL0     H 7539  -1.309   7.087   4.056 -0.0032 -0.2257 -0.1778
  815MOL0     H 7540  -1.510   6.951   4.234  2.2686 -2.1424  1.5732
  815MOL0     H 7541  -1.406   6.871   4.109 -1.5509 -1.8215 -0.0216
  815MOL0     H 7542  -1.723   7.004   3.837  1.8813 -0.8812  0.0245
  815MOL0     H 7543  -1.937   6.908   3.819 -1.8675  1.0445  1.2356
  815MOL0     H 7544  -2.357   6.781   4.083 -0.2498  2.0922 -0.4891
  815MOL0     H 7545  -2.585   6.721   4.021  0.5250 -1.4592  1.8865
  815MOL0     H 7546  -2.802   6.726   3.905  1.2999  0.4499 -0.4195
  815MOL0     H 7547  -2.753   6.559   3.929  2.0956  0.5032 -1.1354
  815MOL0     H 7548  -2.902   6.649   3.681  2.2827 -1.8552 -1.5295
  815MOL0     H 7549  -2.974   6.622   3.844  2.7879  1.1791  2.9829
  815MOL0     H 7550  -2.846   6.389   3.823 -1.5536  1.6341  1.4566
  815MOL0     H 7551  -2.815   6.436   3.656  2.5563  0.3111  1.8362
  815MOL0     H 7552  -3.067   6.368   3.808  1.2759  0.4653  1.0476
  815MOL0     H 7553  -3.078   6.454   3.647 -0.3093 -0.2059  0.1216
  815MOL0     H 7554  -2.979   6.170   3.727 -1.1741 -2.3730 -1.0064
  815MOL0     H 7555  -2.921   6.243   3.580  0.7946 -0.9537  0.7783
  815MOL0     H 7556  -3.139   6.098   3.539  0.9588 -0.6430  1.5144
  815MOL0     H 7557  -3.170   6.269   3.508  0.3563  2.3912  0.8596
  815MOL0     H 7558  -3.244   6.112   3.766 -0.6575  1.6162  2.0925
  815MOL0     H 7559  -3.293   6.282   3.730 -2.9172  0.0321 -0.7373
  815MOL0     H 7560  -3.396   6.199   3.520 -0.2837  1.3102  0.2413
  815MOL0     H 7561  -3.482   6.151   3.668  1.9683  3.5093  1.2872
  815MOL0     H 7562  -2.464   6.621   3.622 -1.7128 -1.7272  1.1019
  815MOL0     H 7563  -2.221   6.701   3.689  0.8589 -1.0282  0.2043
  815MOL0     H 7564  -1.867   6.680   4.172  2.3625 -1.0533 -0.5782
  815MOL0     H 7565  -1.658   6.814   4.209  0.3456  1.2963 -0.0433
  815MOL0     H 7566   0.211   6.846   4.691  1.1301 -0.4551  0.7660
  815MOL0     H 7567   0.438   6.853   4.798  1.0210  1.6065  1.9366
  815MOL0     H 7568   0.808   7.021   5.088  1.7402  0.8328  0.3074
  815MOL0     H 7569   1.047   7.051   5.111  2.1613  1.1999 -2.0293
  815MOL0     H 7570   1.220   7.254   4.797  0.3509  1.9231  1.1194
  815MOL0     H 7571   1.352   7.143   4.774  0.0324 -1.9124  0.9265
  815MOL0     H 7572   1.409   7.186   5.030 -1.4881 -0.8328  0.6188
  815MOL0     H 7573   1.463   7.294   4.908 -2.9310  2.8181 -3.9328
  815MOL0     H 7574   1.210   7.328   5.083 -0.2897 -3.5045 -1.8991
  815MOL0     H 7575   1.253   7.438   4.943  1.1576  0.4213 -0.9305
  815MOL0     H 7576   1.336   7.521   5.170 -1.3549  2.7872 -1.7937
  815MOL0     H 7577   1.456   7.388   5.168  0.8305 -1.0324 -1.7321
  815MOL0     H 7578   1.598   7.694   4.907  2.4282 -1.2349  1.2742
  815MOL0     H 7579   1.116   7.036   4.697 -0.3092  1.5240 -0.0004
  815MOL0     H 7580   0.861   6.998   4.653 -2.9579  1.8813 -0.3351
  816MOL0     O 7581   9.214   7.435   9.009 -0.0392 -1.1486  0.0014
  816MOL0     C 7582   9.223   7.356   8.914  0.2803  0.1990 -0.2170
  816MOL0     O 7583   9.139   7.347   8.805 -0.9548 -0.3436 -0.3830
  816MOL0     C 7584   9.018   7.411   8.806  0.5194  0.1857  0.9133
  816MOL0     C 7585   8.961   7.501   8.903 -0.1960 -0.0903  0.1824
  816MOL0     C 7586   8.835   7.553   8.889  0.1306  0.8598  0.9462
  816MOL0     C 7587   8.753   7.530   8.779  0.0600  0.5563  0.0472
  816MOL0     O 7588   8.629   7.585   8.764 -0.8587 -0.2152 -0.2218
  816MOL0     C 7589   8.516   7.498   8.771  0.6734 -0.5499  0.1952
  816MOL0     C 7590   8.425   7.537   8.653 -0.0000 -1.2639  0.1073
  816MOL0     C 7591   8.278   7.493   8.671 -0.3572 -0.5870 -0.5924
  816MOL0     C 7592   8.197   7.546   8.557  0.0976  0.6159  0.5036
  816MOL0     C 7593   8.057   7.495   8.567  0.2685  0.4880 -0.4801
  816MOL0     C 7594   7.966   7.546   8.452  0.2639 -0.1519  0.1340
  816MOL0     C 7595   7.829   7.481   8.463 -0.5088  0.6372  0.1994
  816MOL0     C 7596   7.813   7.345   8.388  0.8061 -0.2530  0.3572
  816MOL0     N 7597   7.676   7.287   8.385  0.3237  0.6321 -0.0364
  816MOL0     C 7598   7.556   7.354   8.416  0.1509 -0.6275 -0.2718
  816MOL0     C 7599   7.454   7.263   8.397 -0.2531  0.5702  1.3646
  816MOL0     C 7600   7.305   7.266   8.400  0.3172 -0.0681  1.0717
  816MOL0     C 7601   7.241   7.371   8.303 -0.6177  0.2453  0.3949
  816MOL0     C 7602   7.266   7.324   8.160 -0.1724  0.3024  0.6461
  816MOL0     C 7603   7.209   7.417   8.051  0.2536 -0.6865 -0.6349
  816MOL0     O 7604   7.072   7.455   8.083 -0.6715 -0.3373 -0.2649
  816MOL0     C 7605   6.975   7.387   8.020  0.8522 -0.0512 -0.0337
  816MOL0     C 7606   6.989   7.274   7.937  0.2403 -0.3569  0.0898
  816MOL0     C 7607   6.880   7.231   7.869  0.2889 -0.0378 -0.4449
  816MOL0     C 7608   6.752   7.295   7.878 -0.5145 -0.3236 -0.0238
  816MOL0     C 7609   6.633   7.231   7.818  0.7627  0.3772  0.7000
  816MOL0     O 7610   6.520   7.249   7.895  0.0373  0.3417 -0.4038
  816MOL0     C 7611   6.393   7.205   7.851  0.4904  0.3125 -0.3576
  816MOL0     C 7612   6.376   7.068   7.823  0.0257  0.0412 -0.6711
  816MOL0     C 7613   6.249   7.014   7.793 -1.3156  0.0724  0.1853
  816MOL0     C 7614   6.144   7.103   7.778 -0.4686 -0.3920  0.0170
  816MOL0     O 7615   6.017   7.061   7.752 -0.5018 -0.4560  0.5268
  816MOL0     C 7616   6.002   6.947   7.671  0.4005  0.3676 -0.3728
  816MOL0     C 7617   5.860   6.903   7.662  0.7343 -0.7198 -0.2982
  816MOL0     C 7618   5.851   6.767   7.597  0.0240  0.6372  0.8266
  816MOL0     C 7619   5.699   6.734   7.571  0.2666 -0.4643  0.0327
  816MOL0     C 7620   5.677   6.602   7.503 -0.6175  0.0053  0.1334
  816MOL0     C 7621   5.533   6.566   7.481  0.5101  0.5157  0.1501
  816MOL0     C 7622   5.526   6.410   7.466  0.1141  0.4733 -0.4591
  816MOL0     C 7623   5.401   6.356   7.516 -1.4892  0.0570  0.0791
  816MOL0    Cl 7624   5.276   6.411   7.406 -0.3388 -0.3774 -0.1646
  816MOL0     C 7625   6.164   7.231   7.822  0.7362  0.5977 -0.1354
  816MOL0     C 7626   6.286   7.290   7.855 -0.0018 -0.3854 -0.3910
  816MOL0     O 7627   6.634   7.182   7.708 -0.4647 -0.2005  0.6031
  816MOL0     C 7628   6.741   7.400   7.965  0.8944 -0.1736 -0.5237
  816MOL0     C 7629   6.847   7.445   8.036  0.4906  0.6989  0.0163
  816MOL0     N 7630   7.516   7.147   8.352 -0.1480 -0.2317  0.4547
  816MOL0     N 7631   7.641   7.158   8.345  0.9253  0.4036  0.3900
  816MOL0     C 7632   8.807   7.447   8.677  0.5845 -0.2399 -0.1060
  816MOL0     C 7633   8.931   7.383   8.698  0.5793  0.2993 -0.1855
  816MOL0     C 7634   9.349   7.281   8.903  0.0014 -0.2920  1.4545
  816MOL0     C 7635   9.412   7.249   8.780 -0.1976 -0.5506 -0.7948
  816MOL0     C 7636   9.534   7.178   8.784 -0.0496 -0.4031 -0.2693
  816MOL0     C 7637   9.597   7.155   8.904  0.3328 -0.2110  0.2540
  816MOL0     O 7638   9.715   7.090   8.899 -0.2199 -0.1471 -0.1901
  816MOL0     C 7639   9.793   7.066   9.016  0.7072  0.4908  0.1828
  816MOL0     C 7640   9.930   7.009   8.976  0.6837  0.7340  0.3230
  816MOL0     C 7641  10.007   6.964   9.098  0.3396 -0.4355 -0.9152
  816MOL0     C 7642  10.115   6.860   9.056  0.3108  0.7979  0.7504
  816MOL0     C 7643  10.050   6.725   9.033 -0.0601  0.3504  0.3339
  816MOL0     C 7644   9.993   6.618   9.011 -0.3775  0.1045 -0.4594
  816MOL0     C 7645   9.539   7.200   9.021  0.6328 -0.1692  0.7760
  816MOL0     C 7646   9.414   7.256   9.027  0.7513 -0.4252  0.2518
  816MOL0     H 7647   9.009   7.540   8.992  1.4705  0.0883 -0.7468
  816MOL0     H 7648   8.801   7.626   8.962  0.6070  1.5571  0.4834
  816MOL0     H 7649   8.455   7.507   8.862 -0.0304 -1.5689 -0.1513
  816MOL0     H 7650   8.547   7.394   8.759 -1.9670 -1.4462  0.4299
  816MOL0     H 7651   8.464   7.503   8.557  2.1246  3.3508 -0.9339
  816MOL0     H 7652   8.429   7.647   8.649  0.2033 -1.1370  2.4635
  816MOL0     H 7653   8.241   7.544   8.760  2.7756 -0.4691  0.7884
  816MOL0     H 7654   8.262   7.384   8.677 -2.6360 -0.4450 -2.5169
  816MOL0     H 7655   8.195   7.655   8.562  0.3929  0.6197  0.5321
  816MOL0     H 7656   8.252   7.524   8.465  2.3607 -0.1212  1.9421
  816MOL0     H 7657   8.012   7.526   8.662 -2.6359 -1.6158 -1.0283
  816MOL0     H 7658   8.060   7.386   8.567  2.5893  0.4854  0.8877
  816MOL0     H 7659   8.004   7.510   8.356 -1.0694 -0.5704 -0.2573
  816MOL0     H 7660   7.965   7.655   8.449  2.8505 -0.0768 -0.5575
  816MOL0     H 7661   7.806   7.484   8.570  0.7735 -0.5422  0.5221
  816MOL0     H 7662   7.777   7.564   8.413  1.4068  2.7885  1.5573
  816MOL0     H 7663   7.880   7.271   8.434  0.4521  0.3649  1.8959
  816MOL0     H 7664   7.837   7.361   8.282  0.1196  0.7117  0.3378
  816MOL0     H 7665   7.557   7.452   8.461 -1.4954 -0.8968  0.4244
  816MOL0     H 7666   7.284   7.287   8.505 -0.1978  0.6009  0.8367
  816MOL0     H 7667   7.248   7.174   8.387  1.5915 -0.4493 -3.0998
  816MOL0     H 7668   7.281   7.471   8.318  0.1318  0.2759 -1.4597
  816MOL0     H 7669   7.136   7.364   8.331 -0.3609 -4.2648  1.0200
  816MOL0     H 7670   7.373   7.306   8.146  0.1535  0.7927  2.2706
  816MOL0     H 7671   7.217   7.226   8.152  0.3131 -0.0649  1.8979
  816MOL0     H 7672   7.213   7.370   7.952  2.0977  0.1655 -1.0155
  816MOL0     H 7673   7.281   7.500   8.053  3.1371 -3.0527  0.0910
  816MOL0     H 7674   7.080   7.216   7.936  1.6345  1.6417  1.7328
  816MOL0     H 7675   6.893   7.146   7.803 -0.1807  0.4575 -1.1812
  816MOL0     H 7676   6.469   7.012   7.822  0.8330  1.3357 -1.7059
  816MOL0     H 7677   6.251   6.906   7.784 -0.7030 -0.0654  1.6941
  816MOL0     H 7678   6.061   6.863   7.708 -0.3846  0.5004  1.2498
  816MOL0     H 7679   6.045   6.964   7.572 -0.6867  0.2738 -0.8798
  816MOL0     H 7680   5.802   6.980   7.611 -1.4593 -0.9380  1.7287
  816MOL0     H 7681   5.824   6.902   7.765  0.7850 -1.9618 -0.2756
  816MOL0     H 7682   5.904   6.696   7.661  0.6239 -0.0288 -0.3737
  816MOL0     H 7683   5.903   6.782   7.502  1.3382  3.1833  1.8386
  816MOL0     H 7684   5.648   6.729   7.668 -1.9300 -0.4946 -1.0562
  816MOL0     H 7685   5.653   6.812   7.509 -0.8442 -1.7477 -0.8226
  816MOL0     H 7686   5.727   6.528   7.566  1.6594  0.4624 -1.0352
  816MOL0     H 7687   5.733   6.611   7.409  2.3564 -1.2610  1.6404
  816MOL0     H 7688   5.500   6.627   7.397  0.6284  0.9079  0.3840
  816MOL0     H 7689   5.473   6.593   7.569  0.6702 -0.2455  0.5024
  816MOL0     H 7690   5.540   6.386   7.360 -2.9605  0.9260 -1.0414
  816MOL0     H 7691   5.605   6.354   7.518 -0.2330  0.5733  0.1819
  816MOL0     H 7692   5.381   6.386   7.619 -0.0369  1.3039  0.0317
  816MOL0     H 7693   5.411   6.248   7.525  3.5844 -0.1184 -3.4952
  816MOL0     H 7694   6.072   7.288   7.818 -0.6364 -1.5511 -2.0044
  816MOL0     H 7695   6.296   7.392   7.892 -0.9368  0.0409 -1.2598
  816MOL0     H 7696   6.647   7.454   7.972  0.6835 -0.4071 -1.4183
  816MOL0     H 7697   6.838   7.533   8.099 -3.8191  0.5075 -0.0626
  816MOL0     H 7698   8.757   7.425   8.584  0.6409 -4.4990  0.6808
  816MOL0     H 7699   8.960   7.316   8.617 -0.9540  0.7160 -1.1283
  816MOL0     H 7700   9.368   7.244   8.681  0.2416 -0.6927 -0.9848
  816MOL0     H 7701   9.571   7.139   8.690  1.0601 -1.5545  0.6058
  816MOL0     H 7702   9.737   7.003   9.086  0.0172  0.5603 -0.2968
  816MOL0     H 7703   9.820   7.153   9.077  0.1298 -1.5647  3.6155
  816MOL0     H 7704   9.908   6.921   8.914 -1.2354  1.7829 -0.5828
  816MOL0     H 7705   9.992   7.078   8.919  0.1942  0.5850 -0.4173
  816MOL0     H 7706   9.943   6.919   9.175  1.3679  1.5593  1.2611
  816MOL0     H 7707  10.062   7.049   9.140  0.9764 -0.7911 -1.0209
  816MOL0     H 7708  10.149   6.890   8.957 -0.6395  1.3792  0.5872
  816MOL0     H 7709  10.192   6.862   9.134 -0.0090 -2.2879  1.2789
  816MOL0     H 7710   9.941   6.525   9.003  0.6522 -0.8891  2.8187
  816MOL0     H 7711   9.608   7.198   9.105  0.4884  1.5301  0.9580
  816MOL0     H 7712   9.370   7.284   9.122 -6.0196 -1.7408 -1.9046
  817MOL0     O 7713   7.351   5.600   5.108  0.3157  0.0983  0.3218
  817MOL0     C 7714   7.355   5.496   5.179 -0.6875 -0.2119 -0.2566
  817MOL0     O 7715   7.256   5.397   5.190 -0.8692 -0.4525  0.5238
  817MOL0     C 7716   7.137   5.400   5.130 -0.1360 -0.6477  0.6398
  817MOL0     C 7717   7.032   5.329   5.192  0.4940  1.1000  0.3205
  817MOL0     C 7718   6.898   5.323   5.156 -0.3001 -0.1553  0.7232
  817MOL0     C 7719   6.865   5.388   5.034  0.2772 -0.5805 -0.7971
  817MOL0     O 7720   6.739   5.390   4.983 -0.2144 -0.1550 -0.0233
  817MOL0     C 7721   6.668   5.514   5.001  0.3566 -0.1466 -0.0030
  817MOL0     C 7722   6.595   5.545   4.869 -1.0196 -0.2704 -0.1792
  817MOL0     C 7723   6.457   5.496   4.855  0.8294  0.1392 -0.1285
  817MOL0     C 7724   6.357   5.585   4.927  0.4815  0.7209  0.1131
  817MOL0     C 7725   6.222   5.521   4.914  0.1762 -1.0027  0.7427
  817MOL0     C 7726   6.116   5.606   4.983 -0.1204 -0.5431  0.0757
  817MOL0     C 7727   5.978   5.621   4.919  0.3322  0.1742 -0.5120
  817MOL0     C 7728   5.862   5.676   5.011 -0.0939 -0.0881 -0.0771
  817MOL0     N 7729   5.733   5.706   4.946  0.3008 -0.5210 -0.2588
  817MOL0     C 7730   5.642   5.621   4.896  0.5395  0.4441 -0.8879
  817MOL0     C 7731   5.540   5.698   4.847  0.5822  0.1869  0.1069
  817MOL0     C 7732   5.405   5.639   4.793 -0.0996 -0.2769  0.1099
  817MOL0     C 7733   5.291   5.733   4.816  0.3776  1.0506  1.6184
  817MOL0     C 7734   5.270   5.788   4.960 -0.8177  1.1985 -0.2040
  817MOL0     C 7735   5.130   5.853   4.973  0.1171 -0.2088 -0.1233
  817MOL0     O 7736   5.032   5.750   4.963 -0.4357  0.1104 -0.2889
  817MOL0     C 7737   4.896   5.794   4.972  0.4967  0.0965  0.9788
  817MOL0     C 7738   4.843   5.920   4.984 -0.8839  0.0431  0.0362
  817MOL0     C 7739   4.705   5.933   4.996 -0.5540 -0.2887  1.2281
  817MOL0     C 7740   4.618   5.817   4.991  0.6075 -0.3411 -0.0488
  817MOL0     C 7741   4.473   5.830   4.996  0.0446  0.8590 -1.1191
  817MOL0     O 7742   4.403   5.716   4.982 -0.7480 -0.1133  0.1555
  817MOL0     C 7743   4.265   5.731   4.955 -0.6382  0.2334  0.7312
  817MOL0     C 7744   4.182   5.745   5.064  0.2096 -0.1201 -0.4736
  817MOL0     C 7745   4.046   5.755   5.051 -0.8497  0.1162  0.6461
  817MOL0     C 7746   3.989   5.733   4.924 -0.0669 -0.4174  0.3320
  817MOL0     O 7747   3.859   5.720   4.898 -0.2883  0.5234  0.6896
  817MOL0     C 7748   3.763   5.716   5.005  0.4190 -0.3083 -0.0906
  817MOL0     C 7749   3.631   5.671   4.937 -0.0764 -0.1982  0.1273
  817MOL0     C 7750   3.631   5.517   4.913  0.1996 -0.5889 -0.0575
  817MOL0     C 7751   3.545   5.471   4.799  0.3077 -0.7504  0.0411
  817MOL0     C 7752   3.556   5.320   4.793 -0.2973 -0.2755  0.5365
  817MOL0     C 7753   3.481   5.253   4.676  0.0641  0.4882 -0.0648
  817MOL0     C 7754   3.331   5.225   4.697 -0.7092  0.6174 -0.3944
  817MOL0     C 7755   3.262   5.216   4.561 -0.0702 -0.1060 -0.5766
  817MOL0    Cl 7756   3.192   5.381   4.523 -0.5205  0.2326 -0.0165
  817MOL0     C 7757   4.078   5.726   4.816 -0.0901 -0.0899 -0.3595
  817MOL0     C 7758   4.213   5.726   4.825  0.0329  0.5586  0.4053
  817MOL0     O 7759   4.427   5.947   5.012 -1.5100  0.4587  0.4180
  817MOL0     C 7760   4.679   5.696   4.996 -0.5227  0.3386  0.3911
  817MOL0     C 7761   4.819   5.680   4.985  0.9030 -0.4558  0.1068
  817MOL0     N 7762   5.581   5.828   4.852 -0.6103  0.0368  0.3875
  817MOL0     N 7763   5.697   5.833   4.912  0.1599  0.4378  0.2421
  817MOL0     C 7764   6.963   5.460   4.969  0.2566 -0.2607  0.6407
  817MOL0     C 7765   7.091   5.467   5.014 -0.8106 -0.3611 -0.1291
  817MOL0     C 7766   7.480   5.476   5.250  0.5419  0.0410  0.6089
  817MOL0     C 7767   7.486   5.371   5.337 -0.4369 -0.4161  1.4249
  817MOL0     C 7768   7.596   5.354   5.418  0.5768 -0.1102 -0.9809
  817MOL0     C 7769   7.709   5.436   5.411  0.2709 -1.1764 -0.3292
  817MOL0     O 7770   7.804   5.411   5.503  0.0163  0.2759 -0.2600
  817MOL0     C 7771   7.926   5.484   5.504 -0.1169 -0.2819  0.1583
  817MOL0     C 7772   8.039   5.439   5.602 -0.3529 -0.3711  0.2607
  817MOL0     C 7773   8.089   5.303   5.581 -0.1483  0.5140  0.8378
  817MOL0     C 7774   8.201   5.257   5.677 -0.2920 -0.4173 -0.6143
  817MOL0     C 7775   8.338   5.303   5.632 -0.7791  0.1168 -0.0894
  817MOL0     C 7776   8.433   5.344   5.567 -0.0510 -0.3073  0.1215
  817MOL0     C 7777   7.709   5.534   5.313  0.4826 -0.7093  0.3478
  817MOL0     C 7778   7.592   5.559   5.230 -1.4038 -0.1643  0.3384
  817MOL0     H 7779   7.068   5.281   5.282  0.6566  0.5625 -0.0250
  817MOL0     H 7780   6.821   5.271   5.211 -0.4955  0.7589  1.3276
  817MOL0     H 7781   6.725   5.602   5.030 -1.0049  0.7120  0.1854
  817MOL0     H 7782   6.596   5.496   5.082  3.1328  0.3104  2.7552
  817MOL0     H 7783   6.656   5.494   4.794 -1.7377 -0.3569 -0.7167
  817MOL0     H 7784   6.599   5.653   4.850 -1.1133 -0.1147  0.6600
  817MOL0     H 7785   6.443   5.399   4.904  0.5799 -0.6181 -1.6623
  817MOL0     H 7786   6.439   5.475   4.750  2.6554  1.5829 -0.7842
  817MOL0     H 7787   6.387   5.589   5.032  2.3965  0.6730 -0.3983
  817MOL0     H 7788   6.355   5.683   4.878  1.7610  1.4210  1.3751
  817MOL0     H 7789   6.216   5.420   4.955 -2.9828 -1.3961 -0.3853
  817MOL0     H 7790   6.200   5.516   4.807  2.7415  2.4321 -0.1408
  817MOL0     H 7791   6.158   5.706   5.001 -1.3096  0.0353 -0.1823
  817MOL0     H 7792   6.112   5.548   5.076  0.7116 -2.3269 -0.9564
  817MOL0     H 7793   5.985   5.678   4.826  3.0039 -0.4905 -0.8029
  817MOL0     H 7794   5.958   5.517   4.893 -1.1913  0.4781 -0.6021
  817MOL0     H 7795   5.905   5.765   5.059  2.5645 -1.6519  0.6805
  817MOL0     H 7796   5.847   5.608   5.095 -0.2012 -1.6830 -1.3408
  817MOL0     H 7797   5.642   5.512   4.898  3.1622  0.3445 -2.3167
  817MOL0     H 7798   5.382   5.552   4.854 -0.9348 -0.2761 -0.1840
  817MOL0     H 7799   5.408   5.600   4.691  0.7826 -2.0945  0.7883
  817MOL0     H 7800   5.206   5.666   4.799 -0.3213  1.9452  1.4557
  817MOL0     H 7801   5.285   5.814   4.742 -3.5910 -1.3092 -1.0613
  817MOL0     H 7802   5.269   5.710   5.037 -3.1196  0.2817 -1.0820
  817MOL0     H 7803   5.347   5.861   4.987 -2.3055  2.2344  1.5552
  817MOL0     H 7804   5.118   5.922   4.889  1.6300 -2.2230 -2.1256
  817MOL0     H 7805   5.134   5.914   5.064  1.2963  1.0865 -0.9867
  817MOL0     H 7806   4.913   6.002   4.970 -1.4975  0.1347 -3.1028
  817MOL0     H 7807   4.656   6.029   5.004 -2.6012 -1.3638  2.6954
  817MOL0     H 7808   4.220   5.757   5.164  0.5749  1.3767 -0.7699
  817MOL0     H 7809   4.000   5.757   5.150  2.1839  3.8188  2.2205
  817MOL0     H 7810   3.745   5.818   5.041 -0.7830  0.2016 -1.9782
  817MOL0     H 7811   3.779   5.645   5.086 -1.6645 -0.0027  0.6617
  817MOL0     H 7812   3.603   5.724   4.846  0.1286 -0.3099 -0.0029
  817MOL0     H 7813   3.563   5.700   5.017  1.5560 -2.6439  2.5895
  817MOL0     H 7814   3.590   5.468   5.002  0.7107 -0.8215  0.0509
  817MOL0     H 7815   3.733   5.482   4.897  0.0078 -0.6715 -1.1878
  817MOL0     H 7816   3.445   5.513   4.811 -0.3227 -1.7554 -1.3511
  817MOL0     H 7817   3.576   5.506   4.701 -1.7103  0.6548 -0.1533
  817MOL0     H 7818   3.511   5.291   4.889 -0.2063 -1.0698  0.3498
  817MOL0     H 7819   3.659   5.285   4.786  0.2824  1.3209  0.6754
  817MOL0     H 7820   3.526   5.155   4.654 -3.5575 -0.9472 -1.9461
  817MOL0     H 7821   3.479   5.314   4.586 -2.9925 -0.4704 -0.7735
  817MOL0     H 7822   3.315   5.132   4.752 -3.0571  0.3665 -1.3833
  817MOL0     H 7823   3.287   5.299   4.764 -0.6091 -0.9803  1.5612
  817MOL0     H 7824   3.182   5.142   4.570  0.9919 -1.2379 -0.1621
  817MOL0     H 7825   3.337   5.186   4.487  1.4409 -0.6787  1.1376
  817MOL0     H 7826   4.042   5.699   4.717  0.7914 -1.1034 -0.4221
  817MOL0     H 7827   4.280   5.709   4.741  1.4131  0.5200  1.4686
  817MOL0     H 7828   4.613   5.612   5.009 -1.4029  1.0307  0.4864
  817MOL0     H 7829   4.859   5.580   4.984 -0.5742 -1.0854 -1.3467
  817MOL0     H 7830   6.933   5.509   4.877 -0.6325  0.8155  1.4778
  817MOL0     H 7831   7.166   5.526   4.963  0.9545 -1.0547  1.5312
  817MOL0     H 7832   7.401   5.304   5.343 -0.5369 -1.0337 -3.3061
  817MOL0     H 7833   7.605   5.267   5.483  0.2993  2.2004  2.4277
  817MOL0     H 7834   7.894   5.584   5.533 -1.4792 -0.6900  0.1446
  817MOL0     H 7835   7.969   5.480   5.404 -0.4922 -1.8161  0.0248
  817MOL0     H 7836   8.123   5.506   5.586  0.5930 -1.2928  1.1942
  817MOL0     H 7837   8.006   5.443   5.706  2.5576 -4.7769  1.6040
  817MOL0     H 7838   8.121   5.306   5.477 -2.4154  2.9594  0.1083
  817MOL0     H 7839   8.010   5.228   5.594  2.4406 -2.3000  1.6674
  817MOL0     H 7840   8.189   5.302   5.776  0.6130  1.9555 -1.5186
  817MOL0     H 7841   8.203   5.148   5.685  2.9425 -0.4642 -0.6972
  817MOL0     H 7842   8.514   5.381   5.508  0.5226  0.5659  1.3888
  817MOL0     H 7843   7.804   5.584   5.298 -0.2040  1.5615  2.7640
  817MOL0     H 7844   7.589   5.645   5.164  2.3917 -0.7784 -0.8501
  818MOL0     O 7845   6.396  11.083   9.551 -0.1968 -0.4843 -0.0263
  818MOL0     C 7846   6.434  11.137   9.656  0.4996  0.7734  0.3470
  818MOL0     O 7847   6.362  11.207   9.742 -0.0120  0.2743  0.7822
  818MOL0     C 7848   6.228  11.215   9.728 -0.4038  0.1095 -0.3592
  818MOL0     C 7849   6.164  11.331   9.757 -0.3032  0.0873  1.1777
  818MOL0     C 7850   6.028  11.344   9.736  0.8451  0.9739 -0.6526
  818MOL0     C 7851   5.943  11.238   9.695 -0.4828  0.5591  1.2965
  818MOL0     O 7852   5.807  11.262   9.668 -0.2516  0.1897 -0.0794
  818MOL0     C 7853   5.757  11.184   9.557 -0.3208 -0.0820 -0.5642
  818MOL0     C 7854   5.631  11.243   9.485 -0.4609  0.5903  0.3609
  818MOL0     C 7855   5.512  11.209   9.562 -0.2915 -0.2882 -0.1005
  818MOL0     C 7856   5.393  11.310   9.530 -0.2220  0.1067 -0.2598
  818MOL0     C 7857   5.247  11.261   9.553  0.0256  0.0147 -0.5886
  818MOL0     C 7858   5.222  11.186   9.676 -0.6101  0.2436 -0.9503
  818MOL0     C 7859   5.071  11.177   9.717 -0.6918  0.0621  0.7869
  818MOL0     C 7860   4.993  11.105   9.612 -0.1646 -1.3199 -0.1561
  818MOL0     N 7861   4.868  11.062   9.657  0.0459 -0.3878 -0.0012
  818MOL0     C 7862   4.835  10.956   9.745 -0.7994 -0.1238  0.6917
  818MOL0     C 7863   4.703  10.980   9.785 -0.2406  0.1684  0.2928
  818MOL0     C 7864   4.623  10.906   9.890 -0.4829  0.2866  0.2426
  818MOL0     C 7865   4.465  10.923   9.887 -0.1051 -0.6013  0.1258
  818MOL0     C 7866   4.403  10.830   9.993  0.1536 -0.1320 -0.7670
  818MOL0     C 7867   4.260  10.800   9.961  0.7225  0.7301  0.2569
  818MOL0     O 7868   4.192  10.748  10.076 -0.0603 -0.0802 -0.2387
  818MOL0     C 7869   4.055  10.712  10.060 -0.6232 -0.3264  0.1030
  818MOL0     C 7870   3.976  10.775   9.960 -0.4794 -0.4903  0.0151
  818MOL0     C 7871   3.844  10.728   9.950 -0.2289  0.3691  0.1780
  818MOL0     C 7872   3.791  10.625  10.036  0.3462  0.4597  0.3736
  818MOL0     C 7873   3.658  10.564  10.014 -0.5081 -0.2262 -0.5617
  818MOL0     O 7874   3.599  10.484  10.110 -0.0872  0.6670 -0.5384
  818MOL0     C 7875   3.475  10.445  10.072 -0.3510 -0.4297 -0.3624
  818MOL0     C 7876   3.376  10.544  10.071  0.8974  1.1260  0.2380
  818MOL0     C 7877   3.250  10.513  10.026  0.4172 -0.5271 -0.0591
  818MOL0     C 7878   3.219  10.383   9.983  0.0323 -0.1534  0.1018
  818MOL0     O 7879   3.097  10.358   9.931 -0.1884  0.3199  0.1102
  818MOL0     C 7880   2.994  10.346  10.023  0.3599 -1.0959 -0.8392
  818MOL0     C 7881   2.868  10.287   9.960  0.2810  0.3718  0.7734
  818MOL0     C 7882   2.822  10.360   9.832  0.9685 -0.0272  0.2424
  818MOL0     C 7883   2.677  10.321   9.801  0.2969 -0.6563 -0.1045
  818MOL0     C 7884   2.618  10.434   9.704  0.0766  0.0854  0.5601
  818MOL0     C 7885   2.474  10.413   9.674  0.0027 -0.4492  0.5146
  818MOL0     C 7886   2.418  10.521   9.570 -0.7227  0.3031  0.1302
  818MOL0     C 7887   2.288  10.478   9.494 -0.3115 -0.0653  0.1202
  818MOL0    Cl 7888   2.171  10.430   9.615 -0.5905 -0.1335 -0.2274
  818MOL0     C 7889   3.320  10.283   9.983  0.8583 -0.3814 -0.7325
  818MOL0     C 7890   3.448  10.314  10.025  0.0850  0.0051  0.9738
  818MOL0     O 7891   3.619  10.572   9.898 -0.2379 -0.8385  0.7975
  818MOL0     C 7892   3.866  10.574  10.136 -0.9015  0.1645  0.6756
  818MOL0     C 7893   3.999  10.618  10.150  0.1930  0.0411 -0.3592
  818MOL0     N 7894   4.662  11.102   9.727 -0.1121  0.8877 -0.2959
  818MOL0     N 7895   4.754  11.146   9.650 -0.1904 -0.1669 -0.4295
  818MOL0     C 7896   6.008  11.116   9.680  0.5492 -0.2052 -0.4219
  818MOL0     C 7897   6.147  11.101   9.692  0.7292 -0.6157  0.1291
  818MOL0     C 7898   6.574  11.117   9.691 -0.4299  0.4754 -0.1497
  818MOL0     C 7899   6.660  11.040   9.608  0.5189 -0.3412  0.3970
  818MOL0     C 7900   6.798  11.018   9.630  0.4396 -0.4670  0.6351
  818MOL0     C 7901   6.853  11.083   9.744 -0.6564  0.0285  0.0025
  818MOL0     O 7902   6.982  11.037   9.769  0.9712 -0.2994  0.1499
  818MOL0     C 7903   7.064  11.094   9.878  0.3281  0.2187  0.4974
  818MOL0     C 7904   7.213  11.079   9.841  0.4001 -0.1532 -0.1158
  818MOL0     C 7905   7.314  11.162   9.925  0.5182 -0.0433 -0.3884
  818MOL0     C 7906   7.442  11.189   9.840  0.0514 -0.3506 -0.6373
  818MOL0     C 7907   7.533  11.271   9.910 -0.2668  0.5862 -1.5355
  818MOL0     C 7908   7.623  11.347   9.958 -0.3898  0.0877  0.2136
  818MOL0     C 7909   6.772  11.157   9.828 -0.0602 -0.6819  0.3029
  818MOL0     C 7910   6.638  11.174   9.798  0.4043 -0.8014 -0.0586
  818MOL0     H 7911   6.221  11.419   9.786 -1.1906  0.0388  3.2616
  818MOL0     H 7912   5.972  11.430   9.772 -1.4926 -1.1584  1.1387
  818MOL0     H 7913   5.729  11.081   9.582  2.1459 -1.0659 -1.5788
  818MOL0     H 7914   5.835  11.168   9.483  1.6613  1.4149  1.0733
  818MOL0     H 7915   5.623  11.188   9.391  0.9915 -0.9004  1.0654
  818MOL0     H 7916   5.634  11.352   9.478 -2.2931  0.8313  2.1808
  818MOL0     H 7917   5.532  11.220   9.669  0.3203  0.5804 -0.2907
  818MOL0     H 7918   5.483  11.105   9.547 -0.2005 -0.4627  0.8603
  818MOL0     H 7919   5.403  11.406   9.580  1.3089  0.0387 -0.4004
  818MOL0     H 7920   5.394  11.330   9.423 -1.3004  0.5238 -0.2095
  818MOL0     H 7921   5.215  11.192   9.474  0.6127 -3.0035  1.6598
  818MOL0     H 7922   5.182  11.348   9.542 -0.8130 -0.8488 -3.3750
  818MOL0     H 7923   5.268  11.239   9.760 -1.6985 -1.1337  0.6020
  818MOL0     H 7924   5.273  11.089   9.678  0.7445  0.9421  0.8373
  818MOL0     H 7925   5.066  11.119   9.810 -0.0664 -1.8645 -0.3138
  818MOL0     H 7926   5.029  11.276   9.737 -3.4174 -0.5125 -1.4342
  818MOL0     H 7927   5.037  11.018   9.561 -2.7536 -1.9912 -1.4332
  818MOL0     H 7928   4.975  11.179   9.533  3.5127 -0.1405 -0.0780
  818MOL0     H 7929   4.907  10.890   9.791 -0.6278 -0.6753 -0.3357
  818MOL0     H 7930   4.667  10.938   9.985  0.8520  1.2867 -0.6740
  818MOL0     H 7931   4.648  10.801   9.869  3.7160  1.2131 -0.1628
  818MOL0     H 7932   4.418  10.887   9.795 -0.6916 -0.8129  0.4998
  818MOL0     H 7933   4.438  11.029   9.884 -0.0441 -0.6035 -1.2702
  818MOL0     H 7934   4.446  10.729   9.996  1.2377  0.1842 -3.3692
  818MOL0     H 7935   4.425  10.873  10.091  0.8432 -1.5385 -0.2700
  818MOL0     H 7936   4.250  10.738   9.871 -1.0751 -0.8392  1.4665
  818MOL0     H 7937   4.212  10.892   9.926 -0.3843 -0.0206 -0.2938
  818MOL0     H 7938   4.009  10.852   9.891  0.7849 -0.3087  0.7887
  818MOL0     H 7939   3.773  10.771   9.880  0.4842  0.7667 -0.3271
  818MOL0     H 7940   3.397  10.642  10.113 -1.1372  1.1577  1.2742
  818MOL0     H 7941   3.175  10.590  10.037  1.1403  0.2104 -0.1562
  818MOL0     H 7942   2.969  10.443  10.065  1.3883 -0.2482 -2.0855
  818MOL0     H 7943   3.032  10.291  10.109 -0.4609  0.7888  0.7851
  818MOL0     H 7944   2.777  10.288  10.020  0.1679 -1.5076  0.7005
  818MOL0     H 7945   2.890  10.184   9.929 -0.6214  0.5658 -0.5862
  818MOL0     H 7946   2.891  10.343   9.749  0.6664  1.9503 -0.4768
  818MOL0     H 7947   2.821  10.467   9.853 -0.9583  0.1752 -0.6549
  818MOL0     H 7948   2.674  10.223   9.753  0.4482  0.4392 -2.5078
  818MOL0     H 7949   2.612  10.313   9.888  1.4095  2.3026  1.1043
  818MOL0     H 7950   2.671  10.437   9.609 -0.3236 -0.4872  0.3124
  818MOL0     H 7951   2.627  10.528   9.758  0.7724  0.7856 -0.7358
  818MOL0     H 7952   2.412  10.409   9.765 -0.8274  1.7329  0.1119
  818MOL0     H 7953   2.467  10.313   9.633 -0.3758  0.5244 -1.9676
  818MOL0     H 7954   2.417  10.622   9.611  1.3586  1.5353 -2.5745
  818MOL0     H 7955   2.492  10.537   9.492 -0.7849  0.8027  0.1687
  818MOL0     H 7956   2.310  10.389   9.433  0.5072 -2.5841  3.7084
  818MOL0     H 7957   2.251  10.566   9.442 -1.1502 -0.5261 -0.0806
  818MOL0     H 7958   3.299  10.178   9.966  3.2266 -0.8874 -0.8304
  818MOL0     H 7959   3.521  10.236  10.006  2.0450  1.5996  1.5371
  818MOL0     H 7960   3.834  10.504  10.213 -0.2305 -0.0486  0.7743
  818MOL0     H 7961   4.062  10.577  10.229  1.9975 -0.4948 -2.0000
  818MOL0     H 7962   5.949  11.038   9.632 -1.2423  1.0560 -0.3750
  818MOL0     H 7963   6.200  11.006   9.689  2.7996  0.4510  0.7708
  818MOL0     H 7964   6.615  10.982   9.528  0.2385  0.4035  0.0128
  818MOL0     H 7965   6.870  10.963   9.571  4.6358  3.8253  1.1041
  818MOL0     H 7966   7.044  11.042   9.972  0.1035 -0.4351  0.0965
  818MOL0     H 7967   7.035  11.197   9.899  3.3813  1.1483  0.7413
  818MOL0     H 7968   7.244  10.975   9.836  0.0682 -0.2001 -2.1433
  818MOL0     H 7969   7.216  11.126   9.742 -3.1807 -0.5452 -0.5321
  818MOL0     H 7970   7.334  11.113  10.020  3.1484  0.0206 -0.8220
  818MOL0     H 7971   7.270  11.260   9.949 -0.6626  0.4496 -3.9403
  818MOL0     H 7972   7.479  11.090   9.812 -2.3472 -0.9676 -1.9104
  818MOL0     H 7973   7.432  11.245   9.747 -3.9361  0.0098 -0.1569
  818MOL0     H 7974   7.701  11.403  10.006  0.0244 -1.7272  1.7989
  818MOL0     H 7975   6.816  11.213   9.911 -0.7105  4.3046 -2.3016
  818MOL0     H 7976   6.577  11.242   9.858 -1.3956 -0.5099 -2.1108
  819MOL0     O 7977   3.417   7.739   9.945 -0.3286 -0.2392 -0.1812
  819MOL0     C 7978   3.495   7.725  10.035  0.3238  1.0762 -0.1349
  819MOL0     O 7979   3.462   7.697  10.165 -0.1071 -0.2769 -0.2498
  819MOL0     C 7980   3.339   7.723  10.207  0.9099 -1.5674  0.3744
  819MOL0     C 7981   3.330   7.800  10.319 -0.6514 -0.1975 -0.4503
  819MOL0     C 7982   3.214   7.823  10.380  0.3927 -0.5931  0.4342
  819MOL0     C 7983   3.094   7.776  10.326  0.0389  0.6807  0.3543
  819MOL0     O 7984   2.965   7.797  10.370 -0.0289 -0.5474 -0.4161
  819MOL0     C 7985   2.955   7.855  10.507 -0.1036 -0.1284 -0.2002
  819MOL0     C 7986   2.827   7.803  10.556  0.0217 -0.1810  0.6431
  819MOL0     C 7987   2.832   7.652  10.604 -0.0202  0.7478 -0.0649
  819MOL0     C 7988   2.917   7.623  10.730  0.6447 -1.3095  0.2896
  819MOL0     C 7989   3.019   7.514  10.713  0.2356  0.1252  0.2824
  819MOL0     C 7990   3.146   7.545  10.627 -0.0169  0.3457  0.4320
  819MOL0     C 7991   3.247   7.431  10.636  0.1678  0.1791  0.1448
  819MOL0     C 7992   3.321   7.406  10.500  0.3242 -0.0567  0.5988
  819MOL0     N 7993   3.452   7.340  10.523  0.0620 -0.0949  0.4217
  819MOL0     C 7994   3.561   7.403  10.566  0.3909  0.2781 -0.0264
  819MOL0     C 7995   3.659   7.307  10.571 -0.2653 -0.9772  0.5825
  819MOL0     C 7996   3.803   7.331  10.603 -0.2276 -0.2996  0.2324
  819MOL0     C 7997   3.874   7.430  10.500 -0.3003  0.3757  0.1372
  819MOL0     C 7998   3.911   7.351  10.370  1.1963  0.0002 -0.1916
  819MOL0     C 7999   3.789   7.315  10.284 -0.0585  0.0428 -0.3612
  819MOL0     O 8000   3.816   7.307  10.138  0.0556 -0.0773  0.6730
  819MOL0     C 8001   3.697   7.324  10.066  0.6749  0.6227 -0.0701
  819MOL0     C 8002   3.703   7.325   9.923  0.9678 -0.1846 -0.3717
  819MOL0     C 8003   3.586   7.336   9.837 -0.2899 -0.0266 -0.2718
  819MOL0     C 8004   3.463   7.355   9.894  0.2050  0.7897 -0.9572
  819MOL0     C 8005   3.343   7.375   9.818 -0.1375  1.0651  0.2497
  819MOL0     O 8006   3.237   7.441   9.881 -0.0053  0.4549 -0.4300
  819MOL0     C 8007   3.107   7.442   9.836 -0.4827  0.5526  0.1580
  819MOL0     C 8008   3.058   7.551   9.770  0.3575 -0.6597  1.1118
  819MOL0     C 8009   2.921   7.545   9.726  0.3912 -0.1188 -0.0116
  819MOL0     C 8010   2.848   7.429   9.737 -0.1637  0.0906  0.3032
  819MOL0     O 8011   2.715   7.431   9.693 -0.2306 -0.0939  0.0728
  819MOL0     C 8012   2.633   7.536   9.744  1.1523 -0.0406 -0.5535
  819MOL0     C 8013   2.485   7.494   9.743  0.1093  0.5468  0.9455
  819MOL0     C 8014   2.379   7.608   9.792 -0.3591 -0.3786  0.1792
  819MOL0     C 8015   2.241   7.560   9.788 -0.6247  0.4502  0.4067
  819MOL0     C 8016   2.152   7.681   9.803 -0.5554 -0.0777 -0.3692
  819MOL0     C 8017   2.008   7.641   9.825 -0.4213  0.5193 -0.1506
  819MOL0     C 8018   1.923   7.772   9.803  0.6669  0.6037  0.7849
  819MOL0     C 8019   1.768   7.733   9.821 -0.4108  0.9649 -0.2977
  819MOL0    Cl 8020   1.719   7.607   9.700 -0.5572 -0.1021 -0.3891
  819MOL0     C 8021   2.904   7.313   9.785  0.1836 -0.2700 -0.3319
  819MOL0     C 8022   3.032   7.323   9.845  0.0136  0.1566 -0.1382
  819MOL0     O 8023   3.337   7.326   9.703  0.0390 -1.2508 -0.0686
  819MOL0     C 8024   3.455   7.360  10.036  0.3314 -0.0432  0.5036
  819MOL0     C 8025   3.567   7.335  10.123  1.6105 -0.1364  0.2779
  819MOL0     N 8026   3.600   7.190  10.517 -0.2506 -0.1267  0.4761
  819MOL0     N 8027   3.477   7.212  10.492  0.5663 -0.5487  0.0993
  819MOL0     C 8028   3.099   7.693  10.212  0.0801  0.0071  0.3634
  819MOL0     C 8029   3.221   7.661  10.154  0.1113 -0.1731  0.1126
  819MOL0     C 8030   3.640   7.690   9.999  0.5189 -0.4689  1.2079
  819MOL0     C 8031   3.736   7.703  10.101 -0.7542 -0.3865  0.5379
  819MOL0     C 8032   3.875   7.698  10.058  0.2203  0.1640 -0.0579
  819MOL0     C 8033   3.909   7.668   9.923  0.3216  0.3435  1.0984
  819MOL0     O 8034   4.040   7.658   9.874 -0.4620 -0.2267 -0.2750
  819MOL0     C 8035   4.115   7.534   9.879  0.1288  0.9340 -0.0543
  819MOL0     C 8036   4.113   7.458  10.016 -0.1957 -0.5973  0.0698
  819MOL0     C 8037   4.160   7.317   9.999  0.1175 -0.5434  0.8272
  819MOL0     C 8038   4.214   7.257  10.131  0.5655  0.6798  0.4115
  819MOL0     C 8039   4.358   7.230  10.130  0.0468  0.3645  0.4908
  819MOL0     C 8040   4.475   7.204  10.102  0.0139 -0.0963 -0.0833
  819MOL0     C 8041   3.804   7.646   9.833 -0.1323 -0.5963 -0.6192
  819MOL0     C 8042   3.675   7.657   9.867  0.0045  0.1068  0.2406
  819MOL0     H 8043   3.420   7.844  10.362 -0.7612 -0.6453  0.2479
  819MOL0     H 8044   3.211   7.889  10.466  0.6109  1.5162 -1.1106
  819MOL0     H 8045   2.957   7.964  10.502 -0.5109 -0.1221 -0.2174
  819MOL0     H 8046   3.039   7.826  10.571  0.3461  1.3572 -0.0888
  819MOL0     H 8047   2.748   7.808  10.481  1.4873  1.1453 -0.8884
  819MOL0     H 8048   2.793   7.853  10.647 -0.2881  0.6328  0.0853
  819MOL0     H 8049   2.855   7.594  10.514 -1.5875  1.2375 -0.8139
  819MOL0     H 8050   2.734   7.619  10.639 -0.5362  1.5132 -0.7675
  819MOL0     H 8051   2.964   7.718  10.756 -1.0445 -0.1017 -0.8592
  819MOL0     H 8052   2.857   7.602  10.819  1.8037 -1.1314  1.1258
  819MOL0     H 8053   2.975   7.419  10.680 -3.3831  0.7866  2.5831
  819MOL0     H 8054   3.060   7.508  10.814 -1.1558 -0.3491  0.8509
  819MOL0     H 8055   3.184   7.643  10.658  1.7362  0.4777 -1.8740
  819MOL0     H 8056   3.119   7.552  10.522  0.1008 -0.5300  0.3405
  819MOL0     H 8057   3.312   7.463  10.718  0.1586 -1.1018  0.6888
  819MOL0     H 8058   3.191   7.341  10.662  2.1177 -1.0036  0.5154
  819MOL0     H 8059   3.339   7.503  10.451  0.8422  0.1387  1.1567
  819MOL0     H 8060   3.250   7.351  10.439  1.6714 -3.4915  1.8957
  819MOL0     H 8061   3.563   7.507  10.597 -2.9666  0.7402 -0.9997
  819MOL0     H 8062   3.861   7.238  10.606 -0.0805 -0.3704 -2.3877
  819MOL0     H 8063   3.807   7.386  10.697 -1.3664  0.4451 -0.1226
  819MOL0     H 8064   3.972   7.457  10.542  1.2627 -3.6543 -0.4877
  819MOL0     H 8065   3.813   7.518  10.478 -2.5973 -0.4662  2.6332
  819MOL0     H 8066   3.967   7.425  10.312 -0.8160  1.9715  0.2226
  819MOL0     H 8067   3.960   7.257  10.394 -1.9736 -2.0261 -1.0544
  819MOL0     H 8068   3.732   7.406  10.301  3.9751  2.4866  1.7676
  819MOL0     H 8069   3.743   7.220  10.313 -0.0745  0.7057  2.0191
  819MOL0     H 8070   3.795   7.322   9.865  1.2117  2.4214 -0.2363
  819MOL0     H 8071   3.595   7.331   9.729  0.3401  0.1294 -0.2294
  819MOL0     H 8072   3.120   7.635   9.740 -1.0998 -0.4949 -1.8309
  819MOL0     H 8073   2.867   7.630   9.687 -0.3018  0.3654  1.8937
  819MOL0     H 8074   2.635   7.633   9.694 -3.5086  0.7715  0.3365
  819MOL0     H 8075   2.661   7.550   9.849  2.2770 -1.0573 -0.6900
  819MOL0     H 8076   2.466   7.403   9.801  0.7107 -1.6530 -2.0400
  819MOL0     H 8077   2.453   7.479   9.639 -0.6513 -1.4529  1.4161
  819MOL0     H 8078   2.385   7.696   9.727  0.4399 -1.3151 -1.0726
  819MOL0     H 8079   2.402   7.633   9.896  0.0750 -0.5459  0.1253
  819MOL0     H 8080   2.228   7.503   9.696 -0.9479  2.0180 -0.5488
  819MOL0     H 8081   2.235   7.483   9.865  2.6956  0.4534  0.8150
  819MOL0     H 8082   2.162   7.731   9.706 -0.8703 -1.0666 -0.9237
  819MOL0     H 8083   2.195   7.743   9.882  0.6849 -2.3442  0.8364
  819MOL0     H 8084   1.995   7.604   9.927 -0.0139  0.6283 -0.0558
  819MOL0     H 8085   1.981   7.568   9.748 -0.1459 -2.3243  2.2749
  819MOL0     H 8086   1.956   7.839   9.883  0.0918 -0.1102  1.6452
  819MOL0     H 8087   1.933   7.808   9.700 -0.1617  0.6580  0.7131
  819MOL0     H 8088   1.712   7.825   9.805 -1.2833  0.0430 -3.1300
  819MOL0     H 8089   1.759   7.689   9.921  0.9756 -0.8150 -0.9095
  819MOL0     H 8090   2.849   7.220   9.792  1.7652 -1.2816 -0.8256
  819MOL0     H 8091   3.070   7.229   9.883 -1.6565 -1.0083 -1.2187
  819MOL0     H 8092   3.361   7.372  10.090  0.4002  0.6692  0.4815
  819MOL0     H 8093   3.542   7.348  10.227 -0.7011  0.9671 -0.3501
  819MOL0     H 8094   3.011   7.643  10.173 -1.8767  2.2957  1.5706
  819MOL0     H 8095   3.229   7.599  10.065  3.8365 -1.1465  0.9229
  819MOL0     H 8096   3.711   7.731  10.203  0.6211  0.8785  0.5589
  819MOL0     H 8097   3.951   7.708  10.135  0.3925 -0.9750 -0.0559
  819MOL0     H 8098   4.221   7.554   9.860  1.5243 -4.2322  0.5500
  819MOL0     H 8099   4.077   7.454   9.815  1.9123 -0.8722  1.0350
  819MOL0     H 8100   4.174   7.511  10.089 -3.1296  0.1082  2.1656
  819MOL0     H 8101   4.007   7.457  10.045 -0.0743  0.2697  0.5703
  819MOL0     H 8102   4.241   7.327   9.926 -2.2880 -0.0825 -1.9711
  819MOL0     H 8103   4.089   7.247   9.953 -3.7360  4.3886 -1.7480
  819MOL0     H 8104   4.196   7.329  10.212  0.1432  0.7127  0.2888
  819MOL0     H 8105   4.153   7.168  10.146 -2.9725  2.8708  0.0529
  819MOL0     H 8106   4.573   7.163  10.094 -1.1505 -2.6674 -2.8923
  819MOL0     H 8107   3.825   7.613   9.732 -1.7902 -0.9509 -0.8719
  819MOL0     H 8108   3.596   7.641   9.794 -0.2186 -1.5081  0.7951
  820MOL0     O 8109   5.378   7.168   8.886  0.3297  0.2055 -0.8073
  820MOL0     C 8110   5.389   7.212   8.771  0.1796  0.9774 -0.9453
  820MOL0     O 8111   5.288   7.266   8.697 -0.1417  0.2740  0.5826
  820MOL0     C 8112   5.157   7.274   8.757 -0.6820 -0.0249 -0.2243
  820MOL0     C 8113   5.095   7.397   8.798 -0.3436  0.4439 -0.4022
  820MOL0     C 8114   4.970   7.393   8.865  0.4035 -0.1489 -0.6352
  820MOL0     C 8115   4.899   7.277   8.894 -0.0418  0.2018 -0.3553
  820MOL0     O 8116   4.783   7.290   8.965  0.4471  0.5891 -0.3373
  820MOL0     C 8117   4.757   7.198   9.069 -0.5287  0.0352  0.1359
  820MOL0     C 8118   4.617   7.216   9.118 -0.2688 -0.7383 -0.8509
  820MOL0     C 8119   4.591   7.342   9.196 -0.9699  0.5690  1.2961
  820MOL0     C 8120   4.435   7.363   9.210  0.6087 -0.7171  0.0829
  820MOL0     C 8121   4.368   7.413   9.073 -0.2329  0.8844 -0.3209
  820MOL0     C 8122   4.224   7.455   9.092 -0.3536  0.4458  0.5304
  820MOL0     C 8123   4.216   7.582   9.177 -0.2887 -0.2918  0.1990
  820MOL0     C 8124   4.070   7.633   9.192  0.7915 -0.2640 -0.5481
  820MOL0     N 8125   3.993   7.559   9.299 -0.9911 -0.3519  0.9319
  820MOL0     C 8126   3.901   7.464   9.268 -0.1651 -0.5541 -0.3315
  820MOL0     C 8127   3.858   7.412   9.388 -0.3350 -0.0770 -0.9879
  820MOL0     C 8128   3.758   7.302   9.397  0.4110  0.0061  0.2005
  820MOL0     C 8129   3.626   7.330   9.324  0.0686 -0.3701  0.2928
  820MOL0     C 8130   3.514   7.351   9.421 -0.5881 -1.3678  0.0671
  820MOL0     C 8131   3.534   7.495   9.486 -0.1651 -0.0611  0.9659
  820MOL0     O 8132   3.503   7.590   9.385  0.4628 -0.4605  0.1641
  820MOL0     C 8133   3.369   7.627   9.361 -0.6471  0.7728 -0.2258
  820MOL0     C 8134   3.340   7.734   9.269 -0.1646 -0.2864  0.5258
  820MOL0     C 8135   3.208   7.773   9.258 -0.5196  0.2592 -0.1585
  820MOL0     C 8136   3.099   7.705   9.319  0.5553 -0.2747  0.0986
  820MOL0     C 8137   2.959   7.756   9.295 -0.3670 -1.0789 -0.0032
  820MOL0     O 8138   2.855   7.685   9.356 -0.3958  0.1004 -0.4190
  820MOL0     C 8139   2.728   7.710   9.344  0.1144  0.4894 -0.5420
  820MOL0     C 8140   2.643   7.600   9.326  0.3332  0.6743 -0.3112
  820MOL0     C 8141   2.498   7.620   9.335 -0.3164 -0.3952 -0.1794
  820MOL0     C 8142   2.440   7.751   9.356  0.8218 -0.6621  0.6532
  820MOL0     O 8143   2.308   7.779   9.361  0.1586 -0.4398 -0.2660
  820MOL0     C 8144   2.217   7.662   9.376  0.7650 -0.5459  0.2955
  820MOL0     C 8145   2.087   7.713   9.312 -0.1986 -0.0825 -0.1879
  820MOL0     C 8146   1.998   7.802   9.396 -1.2110  0.4735  0.4262
  820MOL0     C 8147   1.869   7.843   9.335 -0.2199 -1.3004 -1.4790
  820MOL0     C 8148   1.777   7.918   9.434 -0.3793  0.4055 -0.3569
  820MOL0     C 8149   1.839   8.059   9.467  1.2402 -0.8347 -1.2745
  820MOL0     C 8150   1.762   8.122   9.594  0.1964 -0.1397  0.1900
  820MOL0     C 8151   1.606   8.105   9.587  0.4398 -0.5423 -0.0064
  820MOL0    Cl 8152   1.524   8.124   9.743  0.1240 -0.3131 -0.3562
  820MOL0     C 8153   2.530   7.854   9.371 -0.8926  0.3845 -0.5322
  820MOL0     C 8154   2.673   7.834   9.370  0.2872 -1.1395 -0.6166
  820MOL0     O 8155   2.945   7.863   9.235  0.3337  0.5866  0.5164
  820MOL0     C 8156   3.124   7.594   9.409  0.1313 -0.3534  0.8833
  820MOL0     C 8157   3.258   7.562   9.427  0.0705  0.1934 -0.1240
  820MOL0     N 8158   3.925   7.481   9.490  0.4761  0.1235  0.1855
  820MOL0     N 8159   4.009   7.564   9.435 -0.4090 -0.0993 -0.9376
  820MOL0     C 8160   4.968   7.155   8.861  0.0024 -0.8431  0.2967
  820MOL0     C 8161   5.096   7.157   8.796  0.0256  0.8448  1.1061
  820MOL0     C 8162   5.521   7.214   8.701 -0.1108 -0.9199 -0.9470
  820MOL0     C 8163   5.644   7.198   8.779  0.4253  0.1044 -0.1340
  820MOL0     C 8164   5.771   7.219   8.716 -0.2857  0.0977  0.2923
  820MOL0     C 8165   5.776   7.264   8.584 -0.9626  0.9171  0.4248
  820MOL0     O 8166   5.898   7.282   8.518 -0.2257 -0.5549  0.2997
  820MOL0     C 8167   6.001   7.344   8.598 -0.3354 -0.7145 -0.6182
  820MOL0     C 8168   6.110   7.249   8.634  0.3668 -1.1777 -0.2089
  820MOL0     C 8169   6.175   7.180   8.513  0.7049  0.4500 -0.8665
  820MOL0     C 8170   6.215   7.266   8.399 -0.6575 -0.1224  0.6124
  820MOL0     C 8171   6.283   7.189   8.295  0.8250 -0.0729  0.5885
  820MOL0     C 8172   6.343   7.135   8.209 -0.4252  0.3893  0.7171
  820MOL0     C 8173   5.657   7.271   8.512  0.5411  0.5570  0.2557
  820MOL0     C 8174   5.531   7.246   8.561  0.5256  1.0588 -0.1239
  820MOL0     H 8175   5.148   7.490   8.781  1.4746 -0.5697 -0.5486
  820MOL0     H 8176   4.927   7.489   8.889  2.5683  0.1596  2.6452
  820MOL0     H 8177   4.825   7.210   9.153  0.2065  0.9251 -0.5711
  820MOL0     H 8178   4.770   7.095   9.034  2.6846 -0.2067  1.6792
  820MOL0     H 8179   4.590   7.134   9.186  0.6682  0.8881  1.6209
  820MOL0     H 8180   4.547   7.218   9.033 -2.8536  0.7992  1.1660
  820MOL0     H 8181   4.635   7.424   9.140 -0.1951 -0.3839  0.4673
  820MOL0     H 8182   4.641   7.336   9.293  0.0722  2.3473  0.9108
  820MOL0     H 8183   4.381   7.269   9.228 -2.8434  0.9813 -0.6278
  820MOL0     H 8184   4.426   7.423   9.301  3.4506 -2.7467  1.8752
  820MOL0     H 8185   4.376   7.328   9.004  1.0909 -0.7773  1.7445
  820MOL0     H 8186   4.434   7.492   9.037  2.6328 -0.9554  0.4980
  820MOL0     H 8187   4.167   7.370   9.130  1.5106 -1.8422 -1.4457
  820MOL0     H 8188   4.177   7.468   8.994 -4.3443 -1.3477  2.0014
  820MOL0     H 8189   4.257   7.569   9.277  2.9748  0.7777 -0.8509
  820MOL0     H 8190   4.281   7.653   9.125  0.8620 -1.3348  0.1476
  820MOL0     H 8191   4.010   7.630   9.101 -3.6531  0.4707  2.0413
  820MOL0     H 8192   4.070   7.739   9.216 -1.3667 -0.0324 -1.3281
  820MOL0     H 8193   3.861   7.454   9.168 -1.1575 -0.5861  0.0542
  820MOL0     H 8194   3.738   7.263   9.497 -0.3520 -0.6960 -0.2135
  820MOL0     H 8195   3.796   7.221   9.333 -1.3773 -0.1102 -0.7942
  820MOL0     H 8196   3.611   7.236   9.270  2.6193  0.2268 -1.6631
  820MOL0     H 8197   3.626   7.410   9.250 -0.8665 -1.4116 -0.8622
  820MOL0     H 8198   3.412   7.353   9.380 -2.7074 -0.6985  4.6901
  820MOL0     H 8199   3.514   7.268   9.493  0.7827  1.9093  4.2851
  820MOL0     H 8200   3.636   7.498   9.526  0.2404 -1.1807  0.0630
  820MOL0     H 8201   3.466   7.514   9.569 -2.9565 -3.0835 -0.3913
  820MOL0     H 8202   3.427   7.788   9.233 -1.4517  0.4034 -1.6777
  820MOL0     H 8203   3.191   7.867   9.206  2.3705  0.8840 -0.1535
  820MOL0     H 8204   2.678   7.501   9.300 -2.3555 -0.7285  0.9421
  820MOL0     H 8205   2.434   7.534   9.322  2.5252 -2.3118 -2.9698
  820MOL0     H 8206   2.213   7.624   9.478  0.2495 -2.9942 -0.5574
  820MOL0     H 8207   2.230   7.572   9.315  0.6654 -0.5728  0.3153
  820MOL0     H 8208   2.025   7.624   9.299  0.9456 -1.3324  2.2821
  820MOL0     H 8209   2.109   7.766   9.219 -0.6299 -0.8585 -0.7423
  820MOL0     H 8210   2.049   7.897   9.413 -1.5008  0.5961  0.6343
  820MOL0     H 8211   1.977   7.748   9.489  1.6688  0.6846  1.2754
  820MOL0     H 8212   1.906   7.905   9.254  0.4411 -4.3652 -3.7162
  820MOL0     H 8213   1.813   7.755   9.301 -0.8391 -1.9871  1.0933
  820MOL0     H 8214   1.750   7.857   9.521  0.0442  1.9357  0.8924
  820MOL0     H 8215   1.683   7.941   9.383 -0.8151  1.4568  0.8734
  820MOL0     H 8216   1.831   8.118   9.376  1.0330  0.2250 -0.5884
  820MOL0     H 8217   1.943   8.049   9.502  0.1046 -1.2784  2.4932
  820MOL0     H 8218   1.801   8.068   9.681 -0.8132 -1.8135 -0.3394
  820MOL0     H 8219   1.775   8.230   9.595 -1.9648  0.2278 -1.9692
  820MOL0     H 8220   1.597   8.001   9.553  2.2836 -0.8737  0.3857
  820MOL0     H 8221   1.563   8.179   9.519 -2.5682 -1.2119  1.0151
  820MOL0     H 8222   2.489   7.953   9.390  0.3669  0.5319  1.8513
  820MOL0     H 8223   2.738   7.915   9.402 -0.7673 -1.2637  2.0911
  820MOL0     H 8224   3.045   7.554   9.471 -1.4775 -0.8438 -1.3688
  820MOL0     H 8225   3.254   7.482   9.500 -2.1986 -1.4592 -1.9161
  820MOL0     H 8226   4.941   7.055   8.894 -0.5180 -0.3473  1.4200
  820MOL0     H 8227   5.152   7.065   8.780 -2.9813 -1.2924  1.9731
  820MOL0     H 8228   5.654   7.168   8.883  0.5674  2.5520  0.6347
  820MOL0     H 8229   5.864   7.199   8.768 -0.4624 -0.6732  0.3278
  820MOL0     H 8230   5.977   7.396   8.691  2.6954 -0.5269  0.1801
  820MOL0     H 8231   6.043   7.417   8.527 -1.5755  0.4605 -0.1942
  820MOL0     H 8232   6.190   7.294   8.694  0.5411 -0.9406 -0.6096
  820MOL0     H 8233   6.066   7.168   8.693 -0.0855 -2.9038 -2.7478
  820MOL0     H 8234   6.098   7.111   8.475  0.3040  0.3409  0.1233
  820MOL0     H 8235   6.260   7.132   8.563 -0.8667 -2.0762 -0.4657
  820MOL0     H 8236   6.131   7.310   8.346  0.1598  2.9996  1.7019
  820MOL0     H 8237   6.273   7.353   8.432 -2.0739  0.5144  1.5051
  820MOL0     H 8238   6.378   7.089   8.119 -3.4178 -2.2795  0.7358
  820MOL0     H 8239   5.660   7.318   8.414 -1.5602  0.6471  0.1876
  820MOL0     H 8240   5.440   7.257   8.504  0.9200  0.8525 -0.8077
  821MOL0     O 8241   4.907  10.972   5.127 -0.2070 -0.2631  0.3899
  821MOL0     C 8242   4.982  11.006   5.032 -0.7404 -0.0861  0.7425
  821MOL0     O 8243   4.950  11.052   4.912  0.6979 -0.0699 -0.3046
  821MOL0     C 8244   4.817  11.056   4.884 -0.9841  0.0206  0.6090
  821MOL0     C 8245   4.754  11.174   4.880  0.3586 -0.5812  0.2019
  821MOL0     C 8246   4.613  11.182   4.862 -0.3047  0.2114 -0.8934
  821MOL0     C 8247   4.557  11.059   4.837  1.0597  0.1176 -0.9774
  821MOL0     O 8248   4.422  11.071   4.833  0.1078  0.3557  0.5996
  821MOL0     C 8249   4.337  10.958   4.814 -0.9138  0.5179  0.5480
  821MOL0     C 8250   4.188  11.011   4.828 -0.0172 -0.0994 -0.6151
  821MOL0     C 8251   4.146  11.112   4.725  0.7351 -0.7815 -0.1043
  821MOL0     C 8252   4.171  11.059   4.577 -1.6584  1.2968 -0.0932
  821MOL0     C 8253   4.078  11.127   4.477  0.2375  0.0538  0.4355
  821MOL0     C 8254   4.128  11.086   4.333  1.0827  0.3628  0.1790
  821MOL0     C 8255   4.038  11.162   4.230  0.2647  0.0195 -0.0778
  821MOL0     C 8256   4.074  11.120   4.091  0.5284 -0.7289  0.4513
  821MOL0     N 8257   4.210  11.153   4.048  0.3291 -0.1065 -0.5597
  821MOL0     C 8258   4.268  11.281   4.051  1.9966  0.5677 -0.0066
  821MOL0     C 8259   4.392  11.252   4.034 -0.3146  0.4904  1.2625
  821MOL0     C 8260   4.483  11.366   4.012 -0.5855  0.0798  0.7437
  821MOL0     C 8261   4.617  11.314   3.991 -0.2721  0.0207  0.3059
  821MOL0     C 8262   4.735  11.400   3.961 -0.1852 -0.2064  0.7500
  821MOL0     C 8263   4.776  11.495   4.070 -0.1310 -0.4165 -0.1230
  821MOL0     O 8264   4.876  11.579   4.004  0.0574  0.5283 -0.1533
  821MOL0     C 8265   5.011  11.552   3.990  0.5924 -0.6339 -0.7424
  821MOL0     C 8266   5.077  11.439   4.036  0.3138  0.5116  0.0348
  821MOL0     C 8267   5.210  11.409   4.008 -0.3421  0.5916 -0.1701
  821MOL0     C 8268   5.293  11.506   3.933 -1.3432  0.2058 -0.7318
  821MOL0     C 8269   5.435  11.487   3.907  0.1032 -1.5999 -0.1597
  821MOL0     O 8270   5.509  11.587   3.856  0.3043 -0.0352 -0.4417
  821MOL0     C 8271   5.648  11.581   3.827  0.3039  0.3457  1.3467
  821MOL0     C 8272   5.745  11.496   3.876  1.2665  0.1829 -0.4927
  821MOL0     C 8273   5.875  11.482   3.821 -0.1912  0.1073 -0.6670
  821MOL0     C 8274   5.916  11.582   3.726  0.1125  0.0320 -0.3940
  821MOL0     O 8275   6.034  11.588   3.665 -0.0731 -0.3445 -0.4481
  821MOL0     C 8276   6.141  11.495   3.701  0.9836 -1.2929  0.9270
  821MOL0     C 8277   6.223  11.564   3.814 -0.4929  0.1362  0.0305
  821MOL0     C 8278   6.359  11.496   3.825 -0.0888  0.0051  0.2224
  821MOL0     C 8279   6.459  11.539   3.718  0.4712  0.1852  0.3251
  821MOL0     C 8280   6.596  11.480   3.733 -0.0571  0.7033  0.2158
  821MOL0     C 8281   6.664  11.534   3.854 -0.7932  0.5418  0.7530
  821MOL0     C 8282   6.813  11.477   3.862 -0.4746 -0.0418  0.8942
  821MOL0     C 8283   6.873  11.482   3.998  0.0027 -0.7878  0.1163
  821MOL0    Cl 8284   6.775  11.397   4.117  0.0433 -0.2855  0.1692
  821MOL0     C 8285   5.826  11.680   3.691 -1.0943  0.1721  0.4908
  821MOL0     C 8286   5.694  11.684   3.745 -0.3829  0.1443 -0.2002
  821MOL0     O 8287   5.461  11.371   3.915 -0.2060  0.0232 -0.4637
  821MOL0     C 8288   5.232  11.623   3.894  0.1832  0.2840 -0.0614
  821MOL0     C 8289   5.099  11.642   3.917  0.7356 -0.1280 -0.3891
  821MOL0     N 8290   4.410  11.114   4.017  0.1895  0.1939 -0.0850
  821MOL0     N 8291   4.297  11.059   4.022  0.7943 -0.8875  0.0161
  821MOL0     C 8292   4.618  10.932   4.833  0.4180  0.6580 -0.1420
  821MOL0     C 8293   4.757  10.935   4.859 -0.4228  0.7919  0.1495
  821MOL0     C 8294   5.129  11.006   5.051  0.1735 -0.8216 -0.4024
  821MOL0     C 8295   5.215  11.022   4.945  0.7481 -0.4138  0.0821
  821MOL0     C 8296   5.353  11.028   4.956 -0.3767  0.5299  0.2953
  821MOL0     C 8297   5.412  11.005   5.087  0.3285  0.5523 -0.1121
  821MOL0     O 8298   5.548  11.000   5.087  0.5222  0.1726  0.2643
  821MOL0     C 8299   5.610  10.940   5.200  0.0074 -0.1988  0.2721
  821MOL0     C 8300   5.764  10.965   5.202  0.5871  0.2303 -0.4663
  821MOL0     C 8301   5.836  10.922   5.084 -0.1618 -0.1808 -0.3467
  821MOL0     C 8302   5.857  11.039   4.991 -0.9631  0.6067  1.1256
  821MOL0     C 8303   5.959  11.135   5.035 -0.6609  0.5040  0.4181
  821MOL0     C 8304   6.056  11.195   5.077  1.1707  0.4670 -0.4051
  821MOL0     C 8305   5.320  10.999   5.191 -0.8709  0.0336 -0.0949
  821MOL0     C 8306   5.181  10.980   5.177  0.0396  0.6330 -0.3913
  821MOL0     H 8307   4.804  11.269   4.895  0.0491 -0.3007 -0.5124
  821MOL0     H 8308   4.540  11.260   4.880 -2.4079 -1.9456  0.5825
  821MOL0     H 8309   4.359  10.887   4.895  1.3322  1.0587  0.4808
  821MOL0     H 8310   4.354  10.901   4.722 -2.7955 -0.2559  0.6335
  821MOL0     H 8311   4.174  11.058   4.925 -2.4998 -0.0755 -0.9081
  821MOL0     H 8312   4.108  10.936   4.825  0.0858 -0.2447  0.0309
  821MOL0     H 8313   4.202  11.204   4.743 -2.6752  1.0505  2.4368
  821MOL0     H 8314   4.039  11.133   4.738  0.5815  0.4764 -2.7616
  821MOL0     H 8315   4.276  11.078   4.555 -1.0145 -0.0625  1.5841
  821MOL0     H 8316   4.166  10.950   4.563 -0.8854  1.0093  1.5254
  821MOL0     H 8317   4.077  11.234   4.498 -2.9939  0.2575 -0.2837
  821MOL0     H 8318   3.971  11.107   4.482  0.4121 -1.7166 -1.4343
  821MOL0     H 8319   4.116  10.979   4.315  2.8573 -0.1369  1.6380
  821MOL0     H 8320   4.236  11.091   4.320  1.0477 -0.5447 -0.5363
  821MOL0     H 8321   3.933  11.137   4.248 -0.3369  2.1908 -0.3133
  821MOL0     H 8322   4.057  11.268   4.250  0.0213  0.1933 -0.7741
  821MOL0     H 8323   4.007  11.164   4.017  3.4565 -1.4816 -2.9553
  821MOL0     H 8324   4.056  11.014   4.074 -1.3053 -0.2528 -0.8672
  821MOL0     H 8325   4.208  11.371   4.043 -2.5363 -2.2006 -0.9711
  821MOL0     H 8326   4.470  11.428   4.100 -0.7921 -2.6483  2.7514
  821MOL0     H 8327   4.465  11.420   3.918  4.5609  1.2428  0.1168
  821MOL0     H 8328   4.609  11.225   3.928 -0.1957 -1.2523  2.0100
  821MOL0     H 8329   4.637  11.276   4.092  2.4072 -2.2154 -0.9263
  821MOL0     H 8330   4.815  11.327   3.952  0.5768  0.5154  1.5439
  821MOL0     H 8331   4.729  11.448   3.863 -0.1856 -0.9195  0.3920
  821MOL0     H 8332   4.805  11.437   4.158  0.2972  0.1552  0.1189
  821MOL0     H 8333   4.686  11.549   4.100 -1.6984 -2.1964 -1.3732
  821MOL0     H 8334   5.005  11.376   4.088 -0.8336 -0.7108 -2.8242
  821MOL0     H 8335   5.252  11.317   4.049 -1.0991  1.5539  3.0650
  821MOL0     H 8336   5.712  11.409   3.931  1.2559  0.1840 -0.4974
  821MOL0     H 8337   5.932  11.397   3.856 -1.9656  0.1638  2.8086
  821MOL0     H 8338   6.192  11.496   3.604 -0.8373  1.3931 -0.1327
  821MOL0     H 8339   6.115  11.391   3.719  0.5691 -1.5687 -0.9856
  821MOL0     H 8340   6.180  11.550   3.914 -0.1273 -2.2815 -0.0947
  821MOL0     H 8341   6.238  11.669   3.787  1.3401 -0.0753  0.1068
  821MOL0     H 8342   6.346  11.387   3.824 -1.2978  0.1400 -0.5404
  821MOL0     H 8343   6.402  11.520   3.923  1.9256  2.8129 -1.2249
  821MOL0     H 8344   6.417  11.515   3.620  0.1856 -2.6355  1.0490
  821MOL0     H 8345   6.472  11.647   3.727  0.3165  0.2973 -0.7002
  821MOL0     H 8346   6.652  11.506   3.643 -1.4488  0.0829 -0.8788
  821MOL0     H 8347   6.584  11.371   3.737 -3.2178  0.9107 -0.6287
  821MOL0     H 8348   6.616  11.497   3.945  0.6504 -1.0209  0.9441
  821MOL0     H 8349   6.666  11.643   3.852  1.9535  0.5778  0.9304
  821MOL0     H 8350   6.814  11.371   3.832  1.3312  0.0561  0.5449
  821MOL0     H 8351   6.873  11.533   3.789 -0.3524 -1.0309  0.2085
  821MOL0     H 8352   6.885  11.589   4.021 -4.6603  0.5025 -2.1898
  821MOL0     H 8353   6.971  11.436   3.983 -0.4592 -1.8160  0.2289
  821MOL0     H 8354   5.853  11.756   3.619 -1.7520 -0.6283 -0.6526
  821MOL0     H 8355   5.631  11.768   3.719  1.7899  1.1003 -2.8543
  821MOL0     H 8356   5.286  11.701   3.842  0.5078  0.0697 -0.0543
  821MOL0     H 8357   5.049  11.733   3.887  2.8312  1.4585  0.6938
  821MOL0     H 8358   4.570  10.838   4.807  3.2040 -1.2540  1.1471
  821MOL0     H 8359   4.802  10.837   4.856 -0.7210  0.6772 -1.0496
  821MOL0     H 8360   5.183  11.059   4.848  1.2556  0.6600  0.3081
  821MOL0     H 8361   5.418  11.050   4.873 -1.0364 -1.1833 -0.7312
  821MOL0     H 8362   5.582  10.834   5.199 -1.1965  0.0563  2.1854
  821MOL0     H 8363   5.570  10.984   5.292  1.2375  0.7431  0.3900
  821MOL0     H 8364   5.771  11.072   5.222  1.1476 -0.2627  2.2776
  821MOL0     H 8365   5.799  10.913   5.292  1.9014  1.7700 -0.0417
  821MOL0     H 8366   5.774  10.852   5.028 -1.4043 -1.0551  2.0216
  821MOL0     H 8367   5.926  10.865   5.110 -0.6035 -0.9105 -0.3727
  821MOL0     H 8368   5.897  11.008   4.894 -0.3164  4.7492 -0.1189
  821MOL0     H 8369   5.770  11.100   4.968  0.5667  1.8155 -2.1508
  821MOL0     H 8370   6.133  11.248   5.130  3.8862 -2.5669 -1.0329
  821MOL0     H 8371   5.366  10.999   5.290  1.4397  2.9275 -1.0147
  821MOL0     H 8372   5.126  10.963   5.270  3.9791  1.9929  2.4616
  822MOL0     O 8373   3.916   3.181   7.666 -0.1794 -0.1488 -0.5748
  822MOL0     C 8374   3.871   3.242   7.567  0.5705 -0.2128  0.8350
  822MOL0     O 8375   3.743   3.280   7.549  0.0007 -0.1777 -0.7944
  822MOL0     C 8376   3.638   3.266   7.632  0.6858 -0.4013 -1.1135
  822MOL0     C 8377   3.530   3.364   7.657 -0.3619 -0.2791  0.6269
  822MOL0     C 8378   3.422   3.332   7.734  0.3761  0.8717  0.4723
  822MOL0     C 8379   3.405   3.210   7.787  1.1388 -0.0498 -0.4461
  822MOL0     O 8380   3.292   3.193   7.858 -0.3184 -0.2583 -0.7569
  822MOL0     C 8381   3.285   3.114   7.975 -0.0404 -0.0627  0.1572
  822MOL0     C 8382   3.160   3.042   8.010  0.5040  0.4318  0.6309
  822MOL0     C 8383   3.142   2.931   7.900 -1.0125 -0.1683 -0.9323
  822MOL0     C 8384   3.018   2.841   7.926  0.5260 -0.6246 -0.2123
  822MOL0     C 8385   2.996   2.733   7.819  0.3272  0.5651 -0.1219
  822MOL0     C 8386   2.878   2.641   7.873  0.5326 -0.2104 -0.3864
  822MOL0     C 8387   2.839   2.531   7.770 -0.0202 -0.3772  0.3700
  822MOL0     C 8388   2.727   2.560   7.674 -0.4153  0.3074  0.2524
  822MOL0     N 8389   2.598   2.583   7.743 -0.8242  0.2244  0.3267
  822MOL0     C 8390   2.500   2.666   7.686  0.5317 -0.7240  0.1591
  822MOL0     C 8391   2.391   2.646   7.764 -0.7210  0.1118 -0.3250
  822MOL0     C 8392   2.261   2.717   7.749  0.1291  0.7108  0.3497
  822MOL0     C 8393   2.157   2.614   7.701  1.0377 -0.6214 -0.0091
  822MOL0     C 8394   2.015   2.672   7.721  0.8075  0.1421 -0.6294
  822MOL0     C 8395   1.907   2.604   7.636  0.4728 -0.6065 -0.9359
  822MOL0     O 8396   1.783   2.676   7.646  0.1788 -0.0343 -0.2463
  822MOL0     C 8397   1.788   2.813   7.635 -0.6965 -0.6712 -0.1103
  822MOL0     C 8398   1.826   2.880   7.521 -1.2752 -0.3388 -0.9962
  822MOL0     C 8399   1.816   3.017   7.518 -0.2350 -0.4152 -0.5483
  822MOL0     C 8400   1.771   3.090   7.631  0.4058 -0.5048  0.7249
  822MOL0     C 8401   1.756   3.235   7.612 -0.8144  1.3383 -0.6494
  822MOL0     O 8402   1.742   3.279   7.487 -0.3923  0.4046  0.1582
  822MOL0     C 8403   1.754   3.412   7.461  0.6236 -0.7273 -0.3201
  822MOL0     C 8404   1.652   3.503   7.464 -0.2789  0.1075  0.5720
  822MOL0     C 8405   1.658   3.638   7.435 -0.6726 -0.2418  0.9887
  822MOL0     C 8406   1.784   3.687   7.402 -0.9652 -0.2817 -0.3297
  822MOL0     O 8407   1.795   3.818   7.373  0.1436 -0.1784 -0.0473
  822MOL0     C 8408   1.861   3.846   7.252 -0.5241 -0.1184  0.4711
  822MOL0     C 8409   1.835   4.000   7.224  0.2977  0.3561  0.7174
  822MOL0     C 8410   1.680   4.015   7.176 -0.2298  0.6184 -0.1699
  822MOL0     C 8411   1.630   4.160   7.147  0.3010 -0.0275  0.2245
  822MOL0     C 8412   1.506   4.179   7.062  0.2304 -0.0996  0.4561
  822MOL0     C 8413   1.501   4.099   6.939  0.5096  0.2528  0.4445
  822MOL0     C 8414   1.405   4.169   6.835  0.6027 -0.6726 -0.3325
  822MOL0     C 8415   1.458   4.246   6.718  0.1379 -0.0382  0.5022
  822MOL0    Cl 8416   1.591   4.151   6.645  0.3415 -0.0232 -0.2012
  822MOL0     C 8417   1.894   3.602   7.403 -0.2787 -0.1461 -0.0275
  822MOL0     C 8418   1.877   3.461   7.429 -0.6460  0.2154  0.7481
  822MOL0     O 8419   1.743   3.298   7.715 -0.4610  0.2563  0.2326
  822MOL0     C 8420   1.738   3.014   7.753  0.3964 -0.6682  0.1262
  822MOL0     C 8421   1.743   2.880   7.749 -0.5105  0.7101 -0.1021
  822MOL0     N 8422   2.422   2.545   7.853  0.0052  0.6385  0.4620
  822MOL0     N 8423   2.544   2.510   7.846  0.0506  0.4345  0.0496
  822MOL0     C 8424   3.500   3.112   7.773 -0.0051  0.8605 -0.0360
  822MOL0     C 8425   3.620   3.142   7.697  0.4284  0.5974  0.3903
  822MOL0     C 8426   3.970   3.279   7.467  0.0788 -0.0751 -0.0320
  822MOL0     C 8427   3.941   3.337   7.345  0.1109  0.1126 -1.0660
  822MOL0     C 8428   4.042   3.371   7.252  0.2930 -0.0187  0.4333
  822MOL0     C 8429   4.175   3.352   7.293  0.1178 -0.1509 -0.2915
  822MOL0     O 8430   4.286   3.399   7.230  0.2642 -0.3153  0.0260
  822MOL0     C 8431   4.271   3.419   7.086 -0.8977  0.3475 -0.1291
  822MOL0     C 8432   4.405   3.398   7.016  1.2384  0.8390  0.5675
  822MOL0     C 8433   4.510   3.506   7.030  0.2917  0.1230 -0.0008
  822MOL0     C 8434   4.630   3.482   6.931 -1.0004  0.5965  0.2186
  822MOL0     C 8435   4.708   3.362   6.942 -0.4632 -0.2006  0.3479
  822MOL0     C 8436   4.776   3.263   6.932  0.3889 -0.2354 -0.0062
  822MOL0     C 8437   4.208   3.301   7.416  0.4382 -0.5746 -0.5167
  822MOL0     C 8438   4.102   3.262   7.499 -0.3640  0.0991  0.1864
  822MOL0     H 8439   3.525   3.461   7.608 -3.6239 -0.5058  0.3119
  822MOL0     H 8440   3.363   3.423   7.744  1.3845  1.9625 -2.4451
  822MOL0     H 8441   3.313   3.184   8.053 -1.5835 -1.2158  1.8395
  822MOL0     H 8442   3.363   3.037   7.980 -1.3364 -1.5040 -0.5903
  822MOL0     H 8443   3.076   3.112   8.004  0.0420 -0.0957  0.9017
  822MOL0     H 8444   3.164   2.985   8.103 -0.0712 -0.1981  0.2769
  822MOL0     H 8445   3.229   2.866   7.897 -2.0794 -1.8207  1.3661
  822MOL0     H 8446   3.136   2.971   7.798  0.0898  0.6758 -0.6839
  822MOL0     H 8447   3.010   2.804   8.029  1.0316  1.5571  0.6703
  822MOL0     H 8448   2.931   2.905   7.918  0.3635 -0.4605  2.1375
  822MOL0     H 8449   3.090   2.678   7.809  2.0645  3.5701 -1.5809
  822MOL0     H 8450   2.977   2.777   7.721 -1.9195 -0.5487 -0.2513
  822MOL0     H 8451   2.799   2.716   7.885  1.8185  1.7029 -2.9037
  822MOL0     H 8452   2.897   2.600   7.973 -0.8596 -0.1228 -0.0714
  822MOL0     H 8453   2.928   2.517   7.708 -0.1618  3.9560 -1.2025
  822MOL0     H 8454   2.815   2.444   7.831 -0.2568 -0.4217  0.2151
  822MOL0     H 8455   2.717   2.475   7.607  0.4661  1.3158 -1.2117
  822MOL0     H 8456   2.761   2.640   7.607 -1.3617 -1.0008 -1.9007
  822MOL0     H 8457   2.509   2.737   7.605  1.5596  2.3598  2.7525
  822MOL0     H 8458   2.255   2.798   7.677 -2.0594 -0.1316 -0.5026
  822MOL0     H 8459   2.232   2.773   7.838 -0.6608 -0.0947  0.6160
  822MOL0     H 8460   2.168   2.524   7.761  0.1190 -0.8336 -0.1518
  822MOL0     H 8461   2.173   2.575   7.600  1.9525 -2.3842  0.7738
  822MOL0     H 8462   1.993   2.674   7.828 -3.2632  0.0907 -1.3038
  822MOL0     H 8463   2.024   2.774   7.683  3.0920  0.1852 -0.1434
  822MOL0     H 8464   1.898   2.507   7.687  2.1671 -0.4155 -0.2202
  822MOL0     H 8465   1.937   2.594   7.532  0.6752  0.4802 -0.9846
  822MOL0     H 8466   1.863   2.830   7.432  1.9224  0.4807 -0.2387
  822MOL0     H 8467   1.835   3.064   7.422  0.1475 -0.4938 -0.5119
  822MOL0     H 8468   1.549   3.470   7.473 -1.3736  3.1375  0.3198
  822MOL0     H 8469   1.572   3.703   7.423  1.0423  2.4359  2.1785
  822MOL0     H 8470   1.827   3.791   7.164  1.1988  2.2338 -1.8264
  822MOL0     H 8471   1.968   3.831   7.272 -0.3427  1.2193  0.5946
  822MOL0     H 8472   1.896   4.039   7.141  0.8236 -0.5368  0.6736
  822MOL0     H 8473   1.857   4.067   7.308  0.7557  1.1574 -0.0184
  822MOL0     H 8474   1.611   3.976   7.252  1.2483  0.6257  1.2374
  822MOL0     H 8475   1.662   3.960   7.084 -0.7259 -0.8210  0.7467
  822MOL0     H 8476   1.620   4.222   7.237  0.4340 -0.1432  0.3209
  822MOL0     H 8477   1.717   4.200   7.093  0.8079 -0.5117  0.6595
  822MOL0     H 8478   1.502   4.281   7.023 -0.3703 -0.5010 -0.5733
  822MOL0     H 8479   1.417   4.162   7.124 -1.4669  0.9111 -1.5539
  822MOL0     H 8480   1.468   3.997   6.957  1.3826  0.0344  0.8469
  822MOL0     H 8481   1.600   4.079   6.898  1.1465 -3.8362  3.4065
  822MOL0     H 8482   1.354   4.084   6.789  0.8012 -0.4578 -0.9712
  822MOL0     H 8483   1.329   4.231   6.882  0.6762 -1.3444  0.6948
  822MOL0     H 8484   1.506   4.342   6.740  1.0953  0.7594 -4.0360
  822MOL0     H 8485   1.382   4.276   6.645 -0.0474 -0.1239  0.6566
  822MOL0     H 8486   1.990   3.650   7.387 -0.5155 -0.3841 -2.6541
  822MOL0     H 8487   1.959   3.390   7.427  1.7270  2.7501  2.2807
  822MOL0     H 8488   1.699   3.061   7.842 -2.7151 -2.9113  0.1083
  822MOL0     H 8489   1.718   2.810   7.828 -0.4613  2.0264  1.0984
  822MOL0     H 8490   3.493   3.016   7.822  0.6959  1.5959  1.5624
  822MOL0     H 8491   3.688   3.058   7.694 -2.1871 -1.6236 -0.7104
  822MOL0     H 8492   3.839   3.356   7.313 -1.4996 -0.1606  3.1732
  822MOL0     H 8493   4.015   3.402   7.152  0.7289  0.6216  0.5102
  822MOL0     H 8494   4.230   3.520   7.073 -1.0153  0.5357  1.5750
  822MOL0     H 8495   4.206   3.343   7.041 -1.6612  0.7404  0.2967
  822MOL0     H 8496   4.461   3.308   7.043  1.4190  0.3512 -1.2812
  822MOL0     H 8497   4.387   3.390   6.908 -0.2213  0.7151  0.7985
  822MOL0     H 8498   4.540   3.516   7.135 -0.4578  0.9542  0.1384
  822MOL0     H 8499   4.461   3.603   7.019  3.6317  2.1070  0.9142
  822MOL0     H 8500   4.590   3.471   6.830 -1.1334  0.0183  0.3348
  822MOL0     H 8501   4.692   3.572   6.932  0.6867 -0.5210  0.0970
  822MOL0     H 8502   4.853   3.189   6.922  0.4268 -0.1929 -0.0331
  822MOL0     H 8503   4.314   3.303   7.439 -0.2761  0.1581  3.3462
  822MOL0     H 8504   4.138   3.216   7.590  0.2963  0.9621  0.3674
  823MOL0     O 8505   9.811   1.439   5.300  0.6041  0.2259 -0.2279
  823MOL0     C 8506   9.879   1.391   5.206  0.4335 -0.3528  0.4480
  823MOL0     O 8507   9.831   1.375   5.074  0.0802  0.4010  0.0665
  823MOL0     C 8508   9.713   1.433   5.035  0.5849  0.3169 -0.0187
  823MOL0     C 8509   9.678   1.561   5.061  0.2534  0.0867  0.3500
  823MOL0     C 8510   9.550   1.604   5.032  0.0032  1.1370  0.4459
  823MOL0     C 8511   9.460   1.517   4.954 -0.5530  0.1023  0.8620
  823MOL0     O 8512   9.336   1.550   4.902 -0.0400  0.1985  0.2592
  823MOL0     C 8513   9.304   1.692   4.926  0.4743  0.4043  0.2381
  823MOL0     C 8514   9.168   1.722   4.874  0.1759 -0.5592  0.5761
  823MOL0     C 8515   9.053   1.624   4.900  0.4436  0.0185 -0.4227
  823MOL0     C 8516   8.928   1.678   4.822 -0.0241 -0.5739 -0.5391
  823MOL0     C 8517   8.801   1.610   4.858  0.3112 -0.5966  0.2359
  823MOL0     C 8518   8.670   1.674   4.807 -0.0466  0.5218  0.4641
  823MOL0     C 8519   8.553   1.577   4.813 -0.3397  0.2147 -0.3656
  823MOL0     C 8520   8.519   1.513   4.940 -0.0696 -0.3370 -0.4829
  823MOL0     N 8521   8.411   1.415   4.916  0.2663  0.3380 -0.2857
  823MOL0     C 8522   8.276   1.438   4.918  0.3589  0.0151  0.1757
  823MOL0     C 8523   8.230   1.313   4.887  1.6685  0.2371  0.1809
  823MOL0     C 8524   8.082   1.256   4.855 -0.2903  0.0092  0.0356
  823MOL0     C 8525   7.992   1.370   4.823 -0.3188  0.1015 -0.0666
  823MOL0     C 8526   7.848   1.331   4.784  0.1731 -0.1582 -0.2154
  823MOL0     C 8527   7.751   1.301   4.912 -0.2256 -0.0515  0.6708
  823MOL0     O 8528   7.617   1.319   4.868  0.6313 -0.3397 -0.6613
  823MOL0     C 8529   7.518   1.279   4.961 -0.2690 -0.9464  0.5440
  823MOL0     C 8530   7.394   1.341   4.952  0.4203  0.2674  0.3944
  823MOL0     C 8531   7.283   1.307   5.035 -0.5914 -0.3230  0.3882
  823MOL0     C 8532   7.295   1.208   5.132 -0.7622  0.0709  0.2997
  823MOL0     C 8533   7.174   1.173   5.213 -0.2637 -0.4151  0.6682
  823MOL0     O 8534   7.057   1.235   5.191  0.0545 -0.2595  0.1448
  823MOL0     C 8535   6.965   1.228   5.285 -0.6162 -0.1410 -0.5416
  823MOL0     C 8536   6.959   1.322   5.391  1.0431  0.8079 -0.2057
  823MOL0     C 8537   6.840   1.325   5.472 -1.0589  0.0334  0.2870
  823MOL0     C 8538   6.739   1.228   5.454 -0.9318  0.1375 -0.6272
  823MOL0     O 8539   6.625   1.209   5.533  0.8341 -0.5795  0.8016
  823MOL0     C 8540   6.553   1.324   5.572 -0.3835  0.0617  0.0477
  823MOL0     C 8541   6.455   1.285   5.685 -0.4118  0.7980 -0.3887
  823MOL0     C 8542   6.336   1.202   5.636 -0.7546  0.3970  0.4611
  823MOL0     C 8543   6.211   1.212   5.725  0.2227 -0.0038  0.4001
  823MOL0     C 8544   6.091   1.149   5.676  0.3025  0.3516 -0.5746
  823MOL0     C 8545   6.004   1.241   5.587  0.5807  0.2555 -0.0977
  823MOL0     C 8546   5.901   1.163   5.513 -0.0695 -0.5831 -0.0564
  823MOL0     C 8547   5.951   1.101   5.392 -0.8872 -0.4783  0.1353
  823MOL0    Cl 8548   5.804   1.033   5.313 -0.5189 -0.0770  0.3771
  823MOL0     C 8549   6.746   1.148   5.338  0.4905  0.2144  0.4242
  823MOL0     C 8550   6.861   1.149   5.253  0.0311 -0.4822  0.0989
  823MOL0     O 8551   7.195   1.091   5.306 -0.5693 -0.3039 -0.1246
  823MOL0     C 8552   7.423   1.158   5.147  0.3303  0.1750  0.0404
  823MOL0     C 8553   7.538   1.201   5.077 -0.2514 -0.4329  0.7617
  823MOL0     N 8554   8.323   1.225   4.849 -0.5553 -0.2490  0.0935
  823MOL0     N 8555   8.439   1.283   4.875 -0.3420 -0.2349  0.4185
  823MOL0     C 8556   9.505   1.384   4.913  0.5082 -0.0746 -0.3377
  823MOL0     C 8557   9.627   1.343   4.963 -0.1446  0.3993 -0.1743
  823MOL0     C 8558  10.014   1.353   5.249 -0.4054  0.2470  0.1734
  823MOL0     C 8559  10.051   1.345   5.384  0.3740  0.6255  0.8907
  823MOL0     C 8560  10.182   1.307   5.416  0.7223  0.2727 -0.4574
  823MOL0     C 8561  10.282   1.273   5.324  0.9218  0.0011  0.3332
  823MOL0     O 8562  10.408   1.243   5.373  1.5163 -0.1698  0.2252
  823MOL0     C 8563  10.517   1.339   5.348 -0.3613  0.1614 -0.5322
  823MOL0     C 8564  10.650   1.269   5.335  0.0593 -0.1631 -0.7758
  823MOL0     C 8565  10.752   1.364   5.264  0.5176  0.0477  0.2529
  823MOL0     C 8566  10.894   1.313   5.308 -0.5939  0.0360  0.2591
  823MOL0     C 8567  10.991   1.387   5.226 -0.9578 -0.1211 -0.1817
  823MOL0     C 8568  11.060   1.437   5.150  0.4182 -0.2380  0.2268
  823MOL0     C 8569  10.244   1.297   5.192  0.4248 -0.5506  0.3612
  823MOL0     C 8570  10.114   1.334   5.150  0.3078  0.6880  0.5177
  823MOL0     H 8571   9.759   1.621   5.100 -0.3470  1.7934 -0.9105
  823MOL0     H 8572   9.522   1.702   5.069  1.1231  0.3820  3.5854
  823MOL0     H 8573   9.375   1.755   4.872 -1.9033  1.7749 -1.4988
  823MOL0     H 8574   9.300   1.709   5.034 -1.5481 -0.9255  0.4374
  823MOL0     H 8575   9.187   1.734   4.767  0.7089 -1.0731  0.6074
  823MOL0     H 8576   9.148   1.827   4.899  0.6024  0.3370 -2.3882
  823MOL0     H 8577   9.044   1.619   5.009 -0.3338 -3.0283 -0.5478
  823MOL0     H 8578   9.078   1.522   4.871  1.7184  0.2788 -0.3293
  823MOL0     H 8579   8.914   1.785   4.840 -4.7215 -0.5433 -2.8131
  823MOL0     H 8580   8.939   1.667   4.714 -3.0123  0.5792 -1.0542
  823MOL0     H 8581   8.791   1.607   4.966 -1.7917  2.0139  0.2154
  823MOL0     H 8582   8.809   1.507   4.822  1.2806 -0.3337 -0.3319
  823MOL0     H 8583   8.683   1.710   4.705  1.0635  2.5852  1.2853
  823MOL0     H 8584   8.658   1.757   4.878  0.3501  0.1753  0.9421
  823MOL0     H 8585   8.460   1.630   4.790  0.2683  2.5298  2.0306
  823MOL0     H 8586   8.560   1.492   4.744 -2.0189 -1.3926  1.3236
  823MOL0     H 8587   8.490   1.585   5.017  1.3466 -1.3715  1.0865
  823MOL0     H 8588   8.602   1.453   4.978 -1.1938  0.7392  4.3837
  823MOL0     H 8589   8.224   1.530   4.942 -0.2574  0.0075 -1.0411
  823MOL0     H 8590   8.065   1.206   4.951 -0.8541  3.0053  1.6252
  823MOL0     H 8591   8.098   1.188   4.771  1.1334  2.4408 -1.8003
  823MOL0     H 8592   8.040   1.404   4.731  2.5364 -0.7124  0.9935
  823MOL0     H 8593   7.985   1.440   4.907 -0.7413 -2.0438  1.7945
  823MOL0     H 8594   7.797   1.417   4.741 -1.5828 -0.6873  0.6988
  823MOL0     H 8595   7.854   1.240   4.723  3.7917 -0.2520  0.0979
  823MOL0     H 8596   7.767   1.384   4.982 -0.1824  0.4763  0.0475
  823MOL0     H 8597   7.762   1.199   4.948 -1.6945 -0.5786 -0.2580
  823MOL0     H 8598   7.382   1.415   4.873  0.9496  1.1442  1.1125
  823MOL0     H 8599   7.198   1.369   5.010 -1.4032 -2.0983 -1.5595
  823MOL0     H 8600   7.046   1.383   5.411  0.9173  0.8726  0.1443
  823MOL0     H 8601   6.842   1.381   5.565 -0.7437 -0.2876  0.4741
  823MOL0     H 8602   6.495   1.372   5.493 -0.9492 -1.3216 -0.4230
  823MOL0     H 8603   6.631   1.394   5.602 -1.5495  2.0055 -1.2343
  823MOL0     H 8604   6.409   1.374   5.729 -1.5924 -0.8633  1.9671
  823MOL0     H 8605   6.514   1.241   5.766  1.4125  1.7105 -1.1557
  823MOL0     H 8606   6.379   1.102   5.625  5.4838  2.6648  0.3972
  823MOL0     H 8607   6.307   1.227   5.534  0.1874 -1.1288 -0.1985
  823MOL0     H 8608   6.238   1.165   5.820  0.0490 -2.4921 -0.7019
  823MOL0     H 8609   6.204   1.320   5.740  2.1004  0.1809  0.1019
  823MOL0     H 8610   6.028   1.103   5.753  0.4327 -2.9895 -2.2891
  823MOL0     H 8611   6.120   1.059   5.620  2.3350  1.2410 -1.0365
  823MOL0     H 8612   6.066   1.298   5.517 -1.5863  3.5411  0.3952
  823MOL0     H 8613   5.955   1.311   5.656  0.2181 -0.2616  0.1747
  823MOL0     H 8614   5.839   1.092   5.569 -1.4595  0.5655 -0.0856
  823MOL0     H 8615   5.833   1.243   5.482 -1.3406 -0.8177  1.8838
  823MOL0     H 8616   6.030   1.028   5.411  0.2755  0.2498 -1.5798
  823MOL0     H 8617   6.007   1.173   5.332  0.7952 -1.2350  0.7568
  823MOL0     H 8618   6.667   1.074   5.327  1.7819 -1.6497  2.7144
  823MOL0     H 8619   6.868   1.100   5.156 -0.3536  0.5674 -0.4764
  823MOL0     H 8620   7.447   1.090   5.228  2.1963  0.4270 -0.2564
  823MOL0     H 8621   7.632   1.157   5.108  0.1677 -0.6272 -0.7103
  823MOL0     H 8622   9.435   1.315   4.866 -1.1708  1.4958 -0.2449
  823MOL0     H 8623   9.659   1.240   4.956 -0.0747  0.4333 -0.3503
  823MOL0     H 8624   9.980   1.366   5.463 -1.4483  0.0002 -0.5082
  823MOL0     H 8625  10.212   1.310   5.520 -1.4882 -0.0810  0.2290
  823MOL0     H 8626  10.525   1.417   5.425  0.3920 -1.8936  1.5930
  823MOL0     H 8627  10.498   1.399   5.259 -1.6041  2.2321  1.0189
  823MOL0     H 8628  10.687   1.253   5.437 -1.5266  1.4544  0.1192
  823MOL0     H 8629  10.634   1.174   5.285 -3.1870 -0.9296  1.3707
  823MOL0     H 8630  10.727   1.468   5.290  1.0609  0.2280  0.0689
  823MOL0     H 8631  10.736   1.363   5.156  1.3669  2.5318  0.0368
  823MOL0     H 8632  10.901   1.330   5.416 -0.9153  2.6086 -0.0636
  823MOL0     H 8633  10.892   1.206   5.286 -5.1003  0.2897 -1.6293
  823MOL0     H 8634  11.113   1.494   5.076  2.2131 -3.0340 -0.8044
  823MOL0     H 8635  10.311   1.284   5.108 -1.8422 -4.0099 -1.1752
  823MOL0     H 8636  10.090   1.355   5.046 -1.0242  1.2144  0.9008
  824MOL0     O 8637   7.378   5.464   7.017  0.5608  0.7079  0.8509
  824MOL0     C 8638   7.389   5.517   7.123 -0.9574  1.4239 -0.8514
  824MOL0     O 8639   7.512   5.549   7.186  0.5421 -0.2329  0.3772
  824MOL0     C 8640   7.633   5.525   7.129  0.6658 -1.4890 -0.0109
  824MOL0     C 8641   7.746   5.528   7.213  0.1588  0.8231 -0.6896
  824MOL0     C 8642   7.872   5.506   7.164  0.6924 -0.0808  0.2430
  824MOL0     C 8643   7.897   5.495   7.028  0.1633  0.1416  0.6124
  824MOL0     O 8644   8.028   5.466   6.988  0.0017 -0.0683  0.0851
  824MOL0     C 8645   8.066   5.517   6.861 -0.1045  0.2254 -0.5653
  824MOL0     C 8646   8.219   5.529   6.843 -1.5488  0.5057 -0.2570
  824MOL0     C 8647   8.278   5.620   6.948  0.2806  0.1812  0.1280
  824MOL0     C 8648   8.423   5.655   6.916  0.6486 -0.7288  0.0921
  824MOL0     C 8649   8.526   5.545   6.932  0.2971 -0.1764 -0.1806
  824MOL0     C 8650   8.673   5.593   6.926 -0.1200  0.8126 -0.8371
  824MOL0     C 8651   8.755   5.467   6.961 -0.0600 -0.1028 -0.1649
  824MOL0     C 8652   8.911   5.469   6.949  1.0279 -0.1189  0.2274
  824MOL0     N 8653   8.961   5.592   7.014 -0.5142 -0.1284 -0.1590
  824MOL0     C 8654   8.919   5.619   7.142 -0.2070 -0.1754 -0.1824
  824MOL0     C 8655   8.965   5.741   7.168  0.9110 -0.3038 -0.1707
  824MOL0     C 8656   8.917   5.817   7.283 -0.2214  0.4926  0.1479
  824MOL0     C 8657   8.792   5.908   7.242 -0.6288 -0.5970 -0.3272
  824MOL0     C 8658   8.668   5.827   7.276  0.1559 -0.4196 -0.0103
  824MOL0     C 8659   8.543   5.898   7.231 -0.6541 -0.2973  0.5457
  824MOL0     O 8660   8.437   5.804   7.236 -0.6768 -0.3011 -1.1286
  824MOL0     C 8661   8.311   5.842   7.252  0.5800 -0.1613  0.0808
  824MOL0     C 8662   8.252   5.955   7.197  0.2342  0.1317  0.0237
  824MOL0     C 8663   8.113   5.969   7.205 -0.1453 -0.0442  0.0452
  824MOL0     C 8664   8.031   5.880   7.280  0.9424  0.3711 -0.4685
  824MOL0     C 8665   7.885   5.895   7.299  0.6326  0.2076 -0.0661
  824MOL0     O 8666   7.829   6.008   7.254  0.2201 -0.3864 -0.3408
  824MOL0     C 8667   7.690   6.024   7.249 -0.1354 -1.7886 -0.1423
  824MOL0     C 8668   7.583   5.931   7.267 -0.7871  0.1537 -0.6142
  824MOL0     C 8669   7.453   5.969   7.239 -0.1400  0.0046  0.8304
  824MOL0     C 8670   7.426   6.109   7.215  0.4506  0.6047  0.6941
  824MOL0     O 8671   7.295   6.151   7.208  0.1923  0.4893 -0.0340
  824MOL0     C 8672   7.193   6.051   7.189  0.2710 -0.5286  0.2327
  824MOL0     C 8673   7.139   5.995   7.318 -0.3298 -0.2867  0.7048
  824MOL0     C 8674   7.020   6.068   7.378  0.2898 -0.1758 -0.8150
  824MOL0     C 8675   6.957   5.979   7.484  0.6734  0.0743 -0.1402
  824MOL0     C 8676   6.841   6.061   7.553  0.7819  0.2684  0.1900
  824MOL0     C 8677   6.745   5.972   7.622  0.6458 -0.0489 -0.6576
  824MOL0     C 8678   6.804   5.913   7.748 -0.0413 -0.2626  0.2348
  824MOL0     C 8679   6.702   5.855   7.846  0.1176  1.2947  0.1479
  824MOL0    Cl 8680   6.791   5.816   7.998  0.2181  0.2096 -0.7293
  824MOL0     C 8681   7.535   6.200   7.211 -1.0088  0.1348 -0.5890
  824MOL0     C 8682   7.668   6.155   7.214  0.8402 -1.0398 -1.0306
  824MOL0     O 8683   7.828   5.812   7.368  0.3271  0.1798  0.3126
  824MOL0     C 8684   8.096   5.774   7.335 -0.8090  1.0981 -0.4016
  824MOL0     C 8685   8.232   5.752   7.320  0.1611 -1.0351  0.3571
  824MOL0     N 8686   9.028   5.792   7.053 -1.2180  0.3867 -0.4082
  824MOL0     N 8687   9.034   5.699   6.961  0.1586  0.1321  0.2850
  824MOL0     C 8688   7.788   5.504   6.939 -0.0940 -0.0375  0.9696
  824MOL0     C 8689   7.660   5.500   6.989  0.6722 -0.0646 -0.2181
  824MOL0     C 8690   7.269   5.531   7.209  0.3570  0.1759  0.7055
  824MOL0     C 8691   7.282   5.579   7.340  0.5456 -0.4522  0.9644
  824MOL0     C 8692   7.169   5.602   7.416 -0.6229  0.3048  0.2119
  824MOL0     C 8693   7.043   5.555   7.381  0.1450 -0.0024 -0.1930
  824MOL0     O 8694   6.935   5.593   7.460  0.2097 -0.1495  0.1682
  824MOL0     C 8695   6.817   5.507   7.448 -0.0613 -0.9962 -0.3299
  824MOL0     C 8696   6.711   5.531   7.557  0.6315 -0.0064  0.7260
  824MOL0     C 8697   6.764   5.506   7.695  0.1871 -0.2161  0.7516
  824MOL0     C 8698   6.798   5.365   7.723  0.0234 -0.4002 -0.2227
  824MOL0     C 8699   6.815   5.343   7.869  0.1143 -0.6565  0.4181
  824MOL0     C 8700   6.827   5.322   7.986 -0.1853  0.0000  0.9372
  824MOL0     C 8701   7.032   5.513   7.242 -0.2919 -0.2788 -0.0302
  824MOL0     C 8702   7.140   5.508   7.155 -0.4894  0.3540 -0.2239
  824MOL0     H 8703   7.724   5.532   7.320  1.2866  1.1196 -0.4641
  824MOL0     H 8704   7.955   5.500   7.234  1.5782 -0.6074 -0.8293
  824MOL0     H 8705   8.037   5.623   6.860 -0.7630  0.2275  3.3177
  824MOL0     H 8706   8.011   5.461   6.784  1.7542  0.2321 -1.9524
  824MOL0     H 8707   8.240   5.572   6.745 -3.0854  0.6492 -0.5485
  824MOL0     H 8708   8.254   5.426   6.840 -3.6842 -0.3359  1.2267
  824MOL0     H 8709   8.268   5.580   7.049  1.5517 -0.7869 -0.0979
  824MOL0     H 8710   8.220   5.713   6.944  0.9176  0.5574 -2.7224
  824MOL0     H 8711   8.432   5.687   6.811 -3.5477  2.7340  0.5361
  824MOL0     H 8712   8.442   5.739   6.982 -1.8014 -0.1191  0.1199
  824MOL0     H 8713   8.505   5.481   6.846  1.2260 -2.6184  1.3082
  824MOL0     H 8714   8.510   5.474   7.014  0.3660 -1.4510 -1.2323
  824MOL0     H 8715   8.694   5.660   7.010  3.0364 -1.4534  0.3672
  824MOL0     H 8716   8.702   5.629   6.828  1.5728  0.8432 -0.3521
  824MOL0     H 8717   8.721   5.436   7.060 -1.2672  3.0749  0.5394
  824MOL0     H 8718   8.720   5.400   6.882  2.0538  0.7704 -1.9574
  824MOL0     H 8719   8.933   5.461   6.842 -2.6441 -2.4221 -0.5325
  824MOL0     H 8720   8.946   5.375   6.994  1.7069 -0.3677 -0.7774
  824MOL0     H 8721   8.860   5.553   7.206 -0.8431 -0.4197 -0.9961
  824MOL0     H 8722   8.991   5.880   7.334 -0.6999 -0.0124  1.4885
  824MOL0     H 8723   8.893   5.745   7.361 -3.8642 -0.9253 -2.0384
  824MOL0     H 8724   8.783   5.939   7.137  0.8078 -1.6294 -0.7823
  824MOL0     H 8725   8.786   6.004   7.294  1.3211  0.0316 -1.1713
  824MOL0     H 8726   8.656   5.726   7.236 -2.9554  0.3087 -1.2985
  824MOL0     H 8727   8.658   5.803   7.382 -0.7318 -1.1485 -0.2450
  824MOL0     H 8728   8.549   5.933   7.127 -1.4332  0.9305  0.8916
  824MOL0     H 8729   8.523   5.987   7.291 -2.6126  0.0471 -0.5122
  824MOL0     H 8730   8.305   6.030   7.138 -0.2158 -1.7682 -3.0098
  824MOL0     H 8731   8.064   6.052   7.155 -0.4753 -1.6882 -2.5716
  824MOL0     H 8732   7.599   5.831   7.304  0.3853  1.1688  1.8545
  824MOL0     H 8733   7.368   5.902   7.249  0.0910 -0.2266  1.2848
  824MOL0     H 8734   7.231   5.977   7.117 -0.2217  1.8204 -2.6370
  824MOL0     H 8735   7.116   6.108   7.136 -0.3112 -1.6010 -0.1084
  824MOL0     H 8736   7.228   5.999   7.380  0.8679 -0.0864 -0.9660
  824MOL0     H 8737   7.112   5.890   7.302 -0.4602 -0.1835  0.1951
  824MOL0     H 8738   6.945   6.085   7.300 -1.3322  1.4139  0.9587
  824MOL0     H 8739   7.045   6.162   7.429  0.3372 -0.4263 -0.3714
  824MOL0     H 8740   6.931   5.882   7.440 -0.5664  1.2307 -2.1018
  824MOL0     H 8741   7.030   5.954   7.562  1.7010 -0.6834 -1.3133
  824MOL0     H 8742   6.784   6.111   7.474  0.1569 -0.8524 -0.0969
  824MOL0     H 8743   6.873   6.124   7.637 -1.8569  1.6441  0.2722
  824MOL0     H 8744   6.711   5.894   7.553  2.4731 -2.1154  0.6454
  824MOL0     H 8745   6.658   6.035   7.645  0.9728  0.0817  0.2685
  824MOL0     H 8746   6.871   5.831   7.724 -1.4122 -1.1199 -0.8055
  824MOL0     H 8747   6.851   5.994   7.805 -1.3732  0.7541 -0.0508
  824MOL0     H 8748   6.655   5.768   7.798  0.4558  1.6132 -0.7915
  824MOL0     H 8749   6.626   5.930   7.869  0.6158  1.8607 -0.0454
  824MOL0     H 8750   7.507   6.300   7.181 -3.4135 -0.2959  0.0056
  824MOL0     H 8751   7.746   6.229   7.195  1.5432 -0.8556  1.9664
  824MOL0     H 8752   8.043   5.700   7.394  0.8147  2.1405  2.6053
  824MOL0     H 8753   8.279   5.664   7.362  1.4819 -1.0749 -1.0919
  824MOL0     H 8754   7.809   5.505   6.832 -1.1031 -1.0169  0.7492
  824MOL0     H 8755   7.581   5.508   6.915  0.1030  1.3607  0.5087
  824MOL0     H 8756   7.376   5.610   7.385  1.1131 -2.3422  1.1614
  824MOL0     H 8757   7.169   5.654   7.511 -4.6680  3.9590 -1.4293
  824MOL0     H 8758   6.844   5.401   7.448  0.8241 -0.7764 -0.4189
  824MOL0     H 8759   6.766   5.525   7.353 -2.1433 -1.4947  0.6337
  824MOL0     H 8760   6.675   5.634   7.552  1.4806  0.2853  0.2700
  824MOL0     H 8761   6.633   5.457   7.538 -1.4084  1.7795  1.7817
  824MOL0     H 8762   6.691   5.545   7.767 -2.3604 -1.5045 -1.0132
  824MOL0     H 8763   6.853   5.569   7.709  2.2107 -2.6565 -0.4453
  824MOL0     H 8764   6.717   5.302   7.685  0.6680 -2.3123  1.3568
  824MOL0     H 8765   6.890   5.333   7.673 -0.0474 -0.4194 -0.3389
  824MOL0     H 8766   6.834   5.307   8.092 -3.5445 -1.9480  0.9980
  824MOL0     H 8767   6.939   5.479   7.198  0.9883 -1.6164 -1.8808
  824MOL0     H 8768   7.134   5.463   7.056 -3.4188 -0.1081  0.0808
  825MOL0     O 8769   0.261   0.263   1.678  0.6595 -0.5548 -0.0876
  825MOL0     C 8770   0.287   0.383   1.658  0.3854 -0.0303  0.2561
  825MOL0     O 8771   0.208   0.494   1.689 -0.4257  0.0121  0.0284
  825MOL0     C 8772   0.076   0.495   1.724 -0.7043  0.3771 -0.1865
  825MOL0     C 8773  -0.010   0.387   1.735  0.0485  0.1879 -0.4468
  825MOL0     C 8774  -0.137   0.394   1.774 -0.3019  0.6767  0.1586
  825MOL0     C 8775  -0.200   0.517   1.811 -0.5280  0.4078  0.8764
  825MOL0     O 8776  -0.332   0.533   1.839 -0.1953  0.7557  0.7821
  825MOL0     C 8777  -0.365   0.453   1.951 -0.4820  0.1314 -0.5719
  825MOL0     C 8778  -0.492   0.378   1.920  0.0694  0.3425 -0.3377
  825MOL0     C 8779  -0.600   0.476   1.919  0.4876 -0.1636  0.6419
  825MOL0     C 8780  -0.744   0.433   1.885  0.4841  0.0887  0.6209
  825MOL0     C 8781  -0.835   0.557   1.850 -0.0769  0.5701 -0.3435
  825MOL0     C 8782  -0.983   0.525   1.839 -0.2409 -0.5576 -0.7909
  825MOL0     C 8783  -1.058   0.655   1.792  0.8993 -0.4509  1.0324
  825MOL0     C 8784  -1.210   0.639   1.797 -0.9845  0.0952 -0.0068
  825MOL0     N 8785  -1.267   0.577   1.680 -0.2654  0.2214 -0.7371
  825MOL0     C 8786  -1.251   0.610   1.552 -0.1082 -0.7251 -0.1391
  825MOL0     C 8787  -1.336   0.522   1.486  0.3285 -0.7334  0.1071
  825MOL0     C 8788  -1.357   0.506   1.343  0.2999 -1.0569 -0.5340
  825MOL0     C 8789  -1.355   0.644   1.265  0.1772  1.0229 -0.0163
  825MOL0     C 8790  -1.454   0.634   1.144 -0.5517  0.6126  0.1259
  825MOL0     C 8791  -1.455   0.757   1.053 -0.1922  0.2360  0.1785
  825MOL0     O 8792  -1.508   0.868   1.130 -0.0390 -0.2122  0.0160
  825MOL0     C 8793  -1.646   0.893   1.119  0.0246 -0.5554 -0.1783
  825MOL0     C 8794  -1.728   0.886   0.998 -0.1016 -0.2571 -0.2284
  825MOL0     C 8795  -1.860   0.932   0.998  0.0267  0.0586 -0.1183
  825MOL0     C 8796  -1.925   0.979   1.121 -0.5274  0.0223 -0.0819
  825MOL0     C 8797  -2.070   1.027   1.136  0.4307 -0.2394  0.6415
  825MOL0     O 8798  -2.110   1.078   1.259 -0.4783 -0.1271  0.4775
  825MOL0     C 8799  -2.242   1.112   1.288 -0.2350  0.4885 -0.8439
  825MOL0     C 8800  -2.255   1.182   1.407 -0.1155  0.5107  0.4664
  825MOL0     C 8801  -2.375   1.234   1.448 -0.6833  0.2434  0.8807
  825MOL0     C 8802  -2.492   1.200   1.371 -0.1642 -0.0608 -0.1225
  825MOL0     O 8803  -2.614   1.255   1.411 -0.0175  0.0463  0.3441
  825MOL0     C 8804  -2.654   1.192   1.540 -0.3722  0.4449 -0.0061
  825MOL0     C 8805  -2.761   1.100   1.507  0.1793  0.6262  0.5733
  825MOL0     C 8806  -2.843   1.045   1.624  0.2379 -0.2081  0.0734
  825MOL0     C 8807  -2.965   1.133   1.666  0.4007  0.5486  0.2596
  825MOL0     C 8808  -3.081   1.058   1.739 -0.4511  0.5238  0.2534
  825MOL0     C 8809  -3.212   1.139   1.764 -0.6378  0.1317 -0.2565
  825MOL0     C 8810  -3.253   1.195   1.636 -0.0033 -0.3451 -0.0956
  825MOL0     C 8811  -3.409   1.204   1.622 -0.2272  0.2563  0.9871
  825MOL0    Cl 8812  -3.431   1.234   1.457  0.2026  0.0117 -0.1567
  825MOL0     C 8813  -2.483   1.127   1.253 -0.0857 -0.9341 -0.3050
  825MOL0     C 8814  -2.351   1.092   1.211  0.7758  0.4474  0.2527
  825MOL0     O 8815  -2.136   1.036   1.030 -1.0751 -0.1938 -0.0812
  825MOL0     C 8816  -1.841   0.982   1.238  1.0373 -0.0915 -0.4873
  825MOL0     C 8817  -1.704   0.934   1.240  0.7949 -0.6458  0.5706
  825MOL0     N 8818  -1.403   0.447   1.585  0.1282 -0.4463  0.4997
  825MOL0     N 8819  -1.360   0.481   1.696  0.2276  0.1486 -0.5536
  825MOL0     C 8820  -0.116   0.632   1.788 -0.1892 -0.4899 -0.1233
  825MOL0     C 8821   0.024   0.622   1.752  0.0186  0.4828  0.5096
  825MOL0     C 8822   0.423   0.395   1.612  0.0223  0.4521  0.5929
  825MOL0     C 8823   0.502   0.279   1.581  0.1161 -0.2110 -0.5596
  825MOL0     C 8824   0.626   0.296   1.518 -1.0072 -0.2884  0.0605
  825MOL0     C 8825   0.669   0.423   1.471  0.1306 -1.0160  0.0020
  825MOL0     O 8826   0.779   0.462   1.404 -0.5294  0.1766  0.1818
  825MOL0     C 8827   0.884   0.360   1.386  0.9055 -0.7486  0.3330
  825MOL0     C 8828   0.986   0.370   1.496 -0.0091  0.1028  0.1560
  825MOL0     C 8829   1.082   0.242   1.480  0.2521 -0.0530  0.1480
  825MOL0     C 8830   1.186   0.230   1.589  0.2480 -0.5679 -0.4273
  825MOL0     C 8831   1.299   0.321   1.555  0.0560 -0.2576 -0.4044
  825MOL0     C 8832   1.402   0.377   1.542 -0.6607 -0.0026 -0.1761
  825MOL0     C 8833   0.589   0.530   1.497  0.1810 -0.5897  0.0416
  825MOL0     C 8834   0.464   0.522   1.561 -0.1707 -0.1491 -0.9639
  825MOL0     H 8835   0.023   0.287   1.706  0.6701  0.1825  0.2280
  825MOL0     H 8836  -0.189   0.299   1.779  1.7522 -0.4312  2.9252
  825MOL0     H 8837  -0.371   0.522   2.036  3.3915  0.8856 -0.7252
  825MOL0     H 8838  -0.289   0.378   1.975 -0.7628  0.3001  0.9592
  825MOL0     H 8839  -0.511   0.295   1.989  1.1021 -0.3390 -0.8573
  825MOL0     H 8840  -0.484   0.345   1.816  2.3857  2.8183 -1.0596
  825MOL0     H 8841  -0.584   0.557   1.848 -2.3830  2.4554  2.6769
  825MOL0     H 8842  -0.606   0.525   2.017 -0.2722  1.1913 -0.0478
  825MOL0     H 8843  -0.749   0.355   1.808  1.8331  0.5404  0.0266
  825MOL0     H 8844  -0.791   0.394   1.975  0.2777  3.5468  2.1766
  825MOL0     H 8845  -0.814   0.599   1.751  0.4267  4.5075  1.2059
  825MOL0     H 8846  -0.823   0.643   1.917 -2.1902 -0.0375  0.9062
  825MOL0     H 8847  -1.024   0.499   1.937 -0.1937 -0.8932 -0.8613
  825MOL0     H 8848  -0.995   0.446   1.764 -0.0810  1.0790 -2.6239
  825MOL0     H 8849  -1.026   0.740   1.853  3.1690 -1.3637  1.2097
  825MOL0     H 8850  -1.025   0.674   1.689  0.7387 -1.2941  0.8154
  825MOL0     H 8851  -1.239   0.743   1.815  3.2630  0.9958  3.2052
  825MOL0     H 8852  -1.241   0.590   1.890 -2.3368 -0.7863 -0.8790
  825MOL0     H 8853  -1.188   0.691   1.519 -0.2448 -0.7338 -0.4229
  825MOL0     H 8854  -1.450   0.453   1.322  0.1437 -1.1430  0.3268
  825MOL0     H 8855  -1.280   0.446   1.295  0.8771  0.2989 -1.3682
  825MOL0     H 8856  -1.256   0.658   1.219 -0.0114 -2.4185 -1.8158
  825MOL0     H 8857  -1.374   0.727   1.333  2.7640  0.8638  1.0273
  825MOL0     H 8858  -1.427   0.544   1.087 -1.6343  1.5504 -1.9813
  825MOL0     H 8859  -1.553   0.621   1.190  0.1421  1.2170  1.8636
  825MOL0     H 8860  -1.506   0.726   0.961  1.2540  0.3134 -0.6726
  825MOL0     H 8861  -1.355   0.769   1.011 -0.1840 -1.0617 -0.2164
  825MOL0     H 8862  -1.691   0.865   0.898 -1.2507 -1.0147 -0.5240
  825MOL0     H 8863  -1.923   0.927   0.910  1.9923  0.0063 -1.5929
  825MOL0     H 8864  -2.169   1.205   1.469  0.7612 -0.5245 -0.3116
  825MOL0     H 8865  -2.375   1.310   1.527 -0.4578  1.5479 -0.3369
  825MOL0     H 8866  -2.685   1.269   1.612  0.2610  1.1242 -0.4408
  825MOL0     H 8867  -2.578   1.134   1.593 -2.7034 -0.3355  2.7138
  825MOL0     H 8868  -2.710   1.011   1.468 -0.4473 -0.0084  1.1689
  825MOL0     H 8869  -2.821   1.144   1.427  0.4646 -1.9861 -1.2315
  825MOL0     H 8870  -2.777   1.034   1.710 -3.0062 -0.1081  2.7871
  825MOL0     H 8871  -2.884   0.945   1.611 -1.0930  0.6577 -3.6515
  825MOL0     H 8872  -2.928   1.215   1.728  0.5049 -1.3663  2.9003
  825MOL0     H 8873  -2.999   1.176   1.571  1.4055  1.6812  0.3947
  825MOL0     H 8874  -3.040   1.016   1.831  1.4292  0.2159 -0.6884
  825MOL0     H 8875  -3.110   0.966   1.688  1.8159 -0.2385  0.2215
  825MOL0     H 8876  -3.197   1.223   1.831 -1.0727 -1.0906  1.4375
  825MOL0     H 8877  -3.290   1.086   1.819  1.3791 -0.1847  2.4450
  825MOL0     H 8878  -3.210   1.296   1.638  2.1373 -1.1582 -1.6466
  825MOL0     H 8879  -3.216   1.143   1.548 -1.4952 -0.4283 -0.7077
  825MOL0     H 8880  -3.460   1.279   1.682 -3.6897 -1.4020  0.3634
  825MOL0     H 8881  -3.460   1.109   1.641 -0.8998  0.3395 -0.2978
  825MOL0     H 8882  -2.573   1.125   1.193 -1.4093 -1.1095  1.6120
  825MOL0     H 8883  -2.360   1.037   1.118  2.3756  1.4023 -0.5074
  825MOL0     H 8884  -1.878   1.027   1.329  1.3651  1.7658 -1.2295
  825MOL0     H 8885  -1.648   0.947   1.332  0.8747  0.6742  0.3476
  825MOL0     H 8886  -0.150   0.734   1.803  0.6830 -0.1359 -0.4480
  825MOL0     H 8887   0.081   0.714   1.751  0.5382  0.1838  1.6004
  825MOL0     H 8888   0.465   0.180   1.606 -2.9332  1.5698  3.0194
  825MOL0     H 8889   0.695   0.213   1.504  0.3035  1.0367 -1.9291
  825MOL0     H 8890   0.929   0.388   1.290  0.7267  1.0899  0.7482
  825MOL0     H 8891   0.843   0.260   1.373 -3.1943  0.8438 -0.5324
  825MOL0     H 8892   1.044   0.463   1.489 -1.9003  1.4710  1.6829
  825MOL0     H 8893   0.942   0.373   1.596 -1.4677  0.0837 -0.4675
  825MOL0     H 8894   1.130   0.241   1.381  0.3733  0.3903  0.1983
  825MOL0     H 8895   1.021   0.152   1.486  0.1441 -0.2666 -2.6746
  825MOL0     H 8896   1.159   0.257   1.692  0.3531  0.9285 -0.7689
  825MOL0     H 8897   1.223   0.128   1.601 -0.0534 -0.4022  2.9120
  825MOL0     H 8898   1.492   0.431   1.520  0.5257 -1.6006  0.5172
  825MOL0     H 8899   0.625   0.629   1.473 -0.7682 -0.0092  0.9290
  825MOL0     H 8900   0.399   0.608   1.572 -1.5750 -0.8026 -3.4132
  826MOL0     O 8901   9.821   8.495   9.785  0.5904 -0.1360 -0.2247
  826MOL0     C 8902   9.774   8.505   9.673  0.7905  0.7379 -0.0131
  826MOL0     O 8903   9.848   8.472   9.557  0.5900  0.5226  0.4189
  826MOL0     C 8904   9.971   8.433   9.575 -0.4117  0.6542  0.7485
  826MOL0     C 8905  10.071   8.533   9.574  0.2754  0.1423  0.2390
  826MOL0     C 8906  10.206   8.500   9.604 -0.1036 -0.9034  0.6169
  826MOL0     C 8907  10.255   8.372   9.610  0.0762 -0.6232  0.0612
  826MOL0     O 8908  10.386   8.350   9.643  0.2516 -0.6442  0.3718
  826MOL0     C 8909  10.421   8.214   9.635 -0.7392 -0.0388  0.3875
  826MOL0     C 8910  10.567   8.213   9.663 -0.1509 -0.2097 -0.5541
  826MOL0     C 8911  10.654   8.273   9.555  0.3097 -0.5932  1.0942
  826MOL0     C 8912  10.807   8.269   9.596 -0.2994  0.1573 -0.1389
  826MOL0     C 8913  10.908   8.312   9.490  0.4112 -0.1885 -0.3710
  826MOL0     C 8914  10.898   8.245   9.348 -0.3224  0.1190 -0.3281
  826MOL0     C 8915  10.996   8.284   9.239  0.3503 -0.8227  1.0159
  826MOL0     C 8916  11.143   8.254   9.277  0.7974  0.1372 -0.5636
  826MOL0     N 8917  11.230   8.279   9.159 -0.6616 -0.0195  0.0166
  826MOL0     C 8918  11.266   8.392   9.093  0.2440 -0.0203 -0.6272
  826MOL0     C 8919  11.374   8.364   9.012  0.6244  0.9174 -0.4446
  826MOL0     C 8920  11.439   8.454   8.913  0.4618  0.4008 -0.4880
  826MOL0     C 8921  11.352   8.474   8.794  0.8099 -0.0620  1.1914
  826MOL0     C 8922  11.344   8.331   8.721 -0.0797  0.4604 -0.3750
  826MOL0     C 8923  11.317   8.350   8.573  0.6125  0.1903  0.3861
  826MOL0     O 8924  11.196   8.434   8.573  0.5601 -0.2602 -0.1272
  826MOL0     C 8925  11.130   8.454   8.456  0.0843  0.3610 -0.0624
  826MOL0     C 8926  11.007   8.514   8.461  0.6123  0.6357 -0.1436
  826MOL0     C 8927  10.930   8.532   8.350  0.1780 -0.2021 -0.3496
  826MOL0     C 8928  10.984   8.508   8.219 -0.1951  0.3279  0.2982
  826MOL0     C 8929  10.895   8.524   8.100  0.7212 -0.5009 -0.1064
  826MOL0     O 8930  10.796   8.611   8.119 -0.0755  0.7817  0.5076
  826MOL0     C 8931  10.714   8.644   8.009  0.1903 -0.2904 -0.9839
  826MOL0     C 8932  10.750   8.700   7.886  0.5642  0.7230 -0.1624
  826MOL0     C 8933  10.653   8.746   7.797 -0.2806  0.3655 -0.0915
  826MOL0     C 8934  10.520   8.738   7.822  0.6012 -0.1874  0.0823
  826MOL0     O 8935  10.421   8.766   7.729  1.1306  0.0067 -0.0618
  826MOL0     C 8936  10.289   8.807   7.750  0.6010 -0.3422 -0.0149
  826MOL0     C 8937  10.229   8.847   7.615  0.1032 -0.6582 -0.3659
  826MOL0     C 8938  10.253   8.988   7.575 -0.0160  0.7212  0.4746
  826MOL0     C 8939  10.201   9.003   7.430 -0.4168 -0.1582  0.3897
  826MOL0     C 8940  10.153   9.146   7.402 -0.3879  0.5457  0.0388
  826MOL0     C 8941  10.101   9.160   7.262  0.3282  0.3917  0.4800
  826MOL0     C 8942  10.046   9.301   7.231  0.6785 -0.4915  0.2102
  826MOL0     C 8943   9.911   9.301   7.159 -0.1401 -0.6302  0.6533
  826MOL0    Cl 8944   9.786   9.209   7.255 -0.1758  0.1512  0.0740
  826MOL0     C 8945  10.480   8.684   7.947  0.2918  0.2167  0.2305
  826MOL0     C 8946  10.579   8.636   8.036  0.1948 -0.0137  0.4336
  826MOL0     O 8947  10.921   8.464   7.996 -0.5219 -0.5644  0.5355
  826MOL0     C 8948  11.110   8.444   8.214  0.0404 -0.6283  0.6256
  826MOL0     C 8949  11.179   8.417   8.335  0.5216 -0.2947 -0.3823
  826MOL0     N 8950  11.401   8.232   9.032 -0.6034 -0.4201  0.0309
  826MOL0     N 8951  11.325   8.187   9.123  0.4000  0.8698 -0.1233
  826MOL0     C 8952  10.149   8.268   9.607 -0.1586 -0.0719 -0.6376
  826MOL0     C 8953  10.016   8.301   9.590 -0.0158  0.3922  0.7755
  826MOL0     C 8954   9.634   8.563   9.652  1.1338 -0.1207 -0.2955
  826MOL0     C 8955   9.581   8.584   9.527 -0.2326 -0.4882 -0.1835
  826MOL0     C 8956   9.461   8.648   9.506 -0.2790  0.5722 -0.7978
  826MOL0     C 8957   9.388   8.699   9.617  0.0770 -0.4965  0.9211
  826MOL0     O 8958   9.281   8.779   9.600  0.0045  0.2684 -0.2576
  826MOL0     C 8959   9.184   8.761   9.499  0.6936  0.3354  0.6731
  826MOL0     C 8960   9.107   8.628   9.512  0.1809 -0.5392 -0.4021
  826MOL0     C 8961   9.042   8.597   9.646 -0.1518  0.5742 -0.6720
  826MOL0     C 8962   8.952   8.472   9.645 -0.8506  0.4478  0.3920
  826MOL0     C 8963   8.828   8.486   9.567  0.5970 -0.2382  0.3752
  826MOL0     C 8964   8.716   8.510   9.514  0.1342 -0.5705 -0.2501
  826MOL0     C 8965   9.430   8.678   9.747  0.4484  0.0042  0.3799
  826MOL0     C 8966   9.548   8.599   9.762  1.0891  0.0095 -0.0642
  826MOL0     H 8967  10.041   8.637   9.582 -1.1080 -0.0216 -1.9035
  826MOL0     H 8968  10.275   8.582   9.595  0.4568 -1.6109 -2.7117
  826MOL0     H 8969  10.395   8.168   9.539  0.3393 -1.7520  0.8819
  826MOL0     H 8970  10.375   8.142   9.703  1.3557 -2.1700 -0.2989
  826MOL0     H 8971  10.600   8.109   9.677 -3.0807 -0.9868  1.6897
  826MOL0     H 8972  10.587   8.261   9.759 -1.0785 -0.8702 -0.0130
  826MOL0     H 8973  10.635   8.377   9.530  0.3064 -0.2863  2.2892
  826MOL0     H 8974  10.633   8.208   9.470  2.3603 -2.8575  2.1896
  826MOL0     H 8975  10.821   8.310   9.696  0.2666 -1.7876  0.6150
  826MOL0     H 8976  10.824   8.166   9.626 -3.0082 -0.0855  0.7917
  826MOL0     H 8977  11.000   8.273   9.534  1.0050  0.2336 -1.2249
  826MOL0     H 8978  10.906   8.422   9.482 -1.5935 -0.2204 -0.8726
  826MOL0     H 8979  10.793   8.248   9.319 -0.2637  1.2392 -0.4768
  826MOL0     H 8980  10.914   8.140   9.374  0.0463  0.2566  0.0123
  826MOL0     H 8981  10.966   8.221   9.155 -0.5663  0.8303  0.0449
  826MOL0     H 8982  10.971   8.387   9.209 -3.6697 -1.1443  2.5631
  826MOL0     H 8983  11.156   8.148   9.303 -2.2885 -0.5669 -1.5035
  826MOL0     H 8984  11.171   8.320   9.359 -0.8753 -0.2882  0.3972
  826MOL0     H 8985  11.216   8.488   9.101 -1.9463 -1.2515  2.2218
  826MOL0     H 8986  11.539   8.415   8.893  1.2237  0.2760  3.0159
  826MOL0     H 8987  11.459   8.550   8.961  0.4697  0.8416 -1.3523
  826MOL0     H 8988  11.391   8.547   8.723 -0.7261 -0.2607  0.0820
  826MOL0     H 8989  11.257   8.513   8.833  1.4747  0.5129  2.2840
  826MOL0     H 8990  11.440   8.279   8.727 -0.8827 -1.5111 -2.6513
  826MOL0     H 8991  11.264   8.270   8.764  1.7117 -0.0215  2.4960
  826MOL0     H 8992  11.295   8.262   8.511  0.8992 -0.1285  0.7369
  826MOL0     H 8993  11.408   8.401   8.541  1.2098 -1.1147 -0.0782
  826MOL0     H 8994  10.969   8.535   8.560 -0.9461  3.7904 -1.2882
  826MOL0     H 8995  10.828   8.564   8.366 -0.5176 -1.7588 -1.4160
  826MOL0     H 8996  10.853   8.686   7.852  0.1430 -1.7473 -0.6187
  826MOL0     H 8997  10.692   8.787   7.705  2.0882 -0.7849  0.3427
  826MOL0     H 8998  10.283   8.893   7.817  1.4246  1.4746 -2.1381
  826MOL0     H 8999  10.233   8.725   7.796  1.0919 -0.4475  0.4055
  826MOL0     H 9000  10.122   8.826   7.611  0.1924 -0.9759 -1.6551
  826MOL0     H 9001  10.280   8.787   7.538  0.1804  0.2996 -1.0786
  826MOL0     H 9002  10.358   9.021   7.574 -0.0876  0.9594  0.7924
  826MOL0     H 9003  10.199   9.057   7.639  1.0599 -0.9713  3.4083
  826MOL0     H 9004  10.273   8.968   7.355  0.5554  0.2866  1.0898
  826MOL0     H 9005  10.109   8.945   7.431 -1.6628  1.7418  0.8043
  826MOL0     H 9006  10.234   9.219   7.409 -0.5157  0.5753  1.5734
  826MOL0     H 9007  10.076   9.176   7.473 -0.7150  1.3438 -0.6471
  826MOL0     H 9008  10.012   9.097   7.266 -0.0212  0.9353  1.7550
  826MOL0     H 9009  10.177   9.133   7.188  1.1561  1.6362  0.8475
  826MOL0     H 9010  10.035   9.348   7.329 -2.9394 -0.1710 -0.1938
  826MOL0     H 9011  10.115   9.359   7.169  2.6892 -1.4818  1.4278
  826MOL0     H 9012   9.929   9.241   7.069  0.0175 -0.6723  0.7133
  826MOL0     H 9013   9.874   9.398   7.123 -1.1578 -1.6277 -1.1785
  826MOL0     H 9014  10.378   8.685   7.984  0.4862  0.5080  0.7694
  826MOL0     H 9015  10.539   8.595   8.128 -2.8828 -0.8106 -1.1232
  826MOL0     H 9016  11.157   8.424   8.118  0.2516  2.3704  0.0008
  826MOL0     H 9017  11.276   8.370   8.329  0.2434 -1.0597  0.6608
  826MOL0     H 9018  10.176   8.164   9.623  3.3490  1.0499  1.7988
  826MOL0     H 9019   9.938   8.225   9.591 -0.9561  1.2537 -1.2781
  826MOL0     H 9020   9.650   8.564   9.446  1.8237 -3.5839  2.0828
  826MOL0     H 9021   9.435   8.667   9.402  4.8351 -0.3127 -2.4975
  826MOL0     H 9022   9.236   8.763   9.403 -0.4276  1.4171  0.0598
  826MOL0     H 9023   9.112   8.843   9.510  0.8369  0.3094  1.9683
  826MOL0     H 9024   9.018   8.647   9.451  0.0689  6.3594  1.1155
  826MOL0     H 9025   9.168   8.545   9.474 -0.3747 -1.1057 -0.0713
  826MOL0     H 9026   8.978   8.682   9.671  1.5309  1.6696  0.0574
  826MOL0     H 9027   9.110   8.587   9.731 -2.7305 -3.0874  1.2188
  826MOL0     H 9028   9.007   8.384   9.610 -3.8119 -2.0941  1.6842
  826MOL0     H 9029   8.924   8.445   9.747 -0.1417  0.4422  0.5955
  826MOL0     H 9030   8.620   8.545   9.481 -0.4528  2.1634  3.6493
  826MOL0     H 9031   9.374   8.718   9.831  3.1768  1.9532  1.4488
  826MOL0     H 9032   9.583   8.590   9.865 -2.8299  0.2494  1.4615
  827MOL0     O 9033  10.244   1.420  10.441  0.7004  0.1027 -0.5814
  827MOL0     C 9034  10.263   1.360  10.550  0.4336 -0.6631 -0.9077
  827MOL0     O 9035  10.167   1.319  10.633  0.9745  0.4229 -0.1775
  827MOL0     C 9036  10.037   1.368  10.609  0.3429  0.3472  0.2904
  827MOL0     C 9037   9.926   1.282  10.607 -0.5599 -0.2989  0.7457
  827MOL0     C 9038   9.801   1.339  10.571  0.5679 -0.1254  0.6568
  827MOL0     C 9039   9.781   1.468  10.535  0.3567 -0.3946  0.3971
  827MOL0     O 9040   9.667   1.520  10.496 -0.2039 -0.9684  0.0526
  827MOL0     C 9041   9.561   1.438  10.453  0.6479  0.0457 -0.7298
  827MOL0     C 9042   9.451   1.531  10.393  0.5168 -0.0303 -0.2123
  827MOL0     C 9043   9.379   1.616  10.504  0.1140  0.4957  0.7844
  827MOL0     C 9044   9.250   1.660  10.443  1.0077 -0.3523 -1.3633
  827MOL0     C 9045   9.176   1.745  10.551 -0.6439  0.3219  0.4259
  827MOL0     C 9046   9.226   1.883  10.587  0.3522  0.2547  0.4160
  827MOL0     C 9047   9.114   1.956  10.658  0.5127  0.2012  0.1808
  827MOL0     C 9048   9.142   2.103  10.662 -0.1615  0.8016 -0.2609
  827MOL0     N 9049   9.029   2.170  10.727  0.2738 -0.8505  0.2728
  827MOL0     C 9050   8.899   2.176  10.680  0.1211  0.6189 -0.2132
  827MOL0     C 9051   8.836   2.262  10.765  0.5397  0.6094  0.4627
  827MOL0     C 9052   8.687   2.273  10.768  0.0985 -0.1545 -0.3641
  827MOL0     C 9053   8.649   2.417  10.737  0.1219 -0.2865 -0.1816
  827MOL0     C 9054   8.497   2.426  10.734  0.1895  0.6076 -0.2994
  827MOL0     C 9055   8.428   2.334  10.628  0.4651  0.0854 -0.7238
  827MOL0     O 9056   8.291   2.375  10.615 -0.1614  0.1951  0.5142
  827MOL0     C 9057   8.216   2.325  10.512 -0.0179 -0.3628 -0.4089
  827MOL0     C 9058   8.248   2.215  10.434  0.1980 -0.2866  0.8094
  827MOL0     C 9059   8.177   2.176  10.322 -0.4995 -0.1983 -1.1685
  827MOL0     C 9060   8.058   2.255  10.286  0.0963  0.0470 -0.0139
  827MOL0     C 9061   7.969   2.202  10.173  0.6951 -0.0620 -0.8357
  827MOL0     O 9062   7.978   2.070  10.147  0.5161 -0.3815  0.2194
  827MOL0     C 9063   7.912   2.032  10.035 -0.5700 -0.5877 -0.9778
  827MOL0     C 9064   7.828   1.920  10.051  0.0336  0.1760 -0.2092
  827MOL0     C 9065   7.764   1.865   9.935 -0.2483  0.4191  0.7229
  827MOL0     C 9066   7.794   1.912   9.806 -0.1814 -0.3384 -0.5514
  827MOL0     O 9067   7.755   1.851   9.694 -0.2550 -0.9069  0.0539
  827MOL0     C 9068   7.652   1.754   9.699 -0.1865  0.1797 -0.1860
  827MOL0     C 9069   7.508   1.808   9.728 -0.1046  0.5277  0.0128
  827MOL0     C 9070   7.398   1.691   9.744  0.1651  0.0521 -0.0284
  827MOL0     C 9071   7.257   1.746   9.761 -0.5838 -0.1169 -0.1121
  827MOL0     C 9072   7.163   1.629   9.796  1.1952  0.5516  0.1649
  827MOL0     C 9073   7.015   1.667   9.790  0.4353 -0.7829  0.5285
  827MOL0     C 9074   6.925   1.542   9.778  0.3877 -0.7833  0.4816
  827MOL0     C 9075   6.770   1.571   9.776  0.1421  0.1690  0.4445
  827MOL0    Cl 9076   6.727   1.614   9.602 -0.5263  0.2360  0.2327
  827MOL0     C 9077   7.877   2.022   9.798  0.1504 -0.1628  0.3010
  827MOL0     C 9078   7.937   2.076   9.910  0.6359 -1.2628  0.3338
  827MOL0     O 9079   7.879   2.278  10.135  0.2803 -0.2169 -0.0656
  827MOL0     C 9080   8.023   2.360  10.370 -0.4631  0.3267 -0.6215
  827MOL0     C 9081   8.101   2.388  10.481  0.4876  0.1913 -1.0988
  827MOL0     N 9082   8.926   2.287  10.866  0.6494  0.3574 -0.1824
  827MOL0     N 9083   9.039   2.234  10.840 -0.0787  0.3538  0.1446
  827MOL0     C 9084   9.894   1.560  10.547  0.1368  0.7236 -0.0263
  827MOL0     C 9085  10.009   1.501  10.584 -0.6175 -0.1767  0.5081
  827MOL0     C 9086  10.409   1.332  10.597  0.7085  0.8152  0.4573
  827MOL0     C 9087  10.429   1.307  10.736 -0.3675  0.5226  1.0460
  827MOL0     C 9088  10.560   1.286  10.788  0.7203  0.1404  0.5071
  827MOL0     C 9089  10.672   1.284  10.703  1.2593  0.0439  0.0956
  827MOL0     O 9090  10.785   1.239  10.761  0.1486  0.5528 -0.2671
  827MOL0     C 9091  10.910   1.248  10.677  0.2835  0.4200  0.2771
  827MOL0     C 9092  11.029   1.162  10.735 -0.4146 -0.1831 -0.2848
  827MOL0     C 9093  11.014   1.009  10.720 -0.6103 -0.0384 -0.2736
  827MOL0     C 9094  11.133   0.937  10.786 -0.7857 -0.8104 -0.5597
  827MOL0     C 9095  11.151   0.973  10.921 -0.0889  0.1997 -0.2660
  827MOL0     C 9096  11.186   0.989  11.036  0.6418 -0.1562 -0.3946
  827MOL0     C 9097  10.646   1.307  10.570  0.5123 -0.9016 -0.6689
  827MOL0     C 9098  10.517   1.334  10.514  0.3997 -0.7725 -0.1050
  827MOL0     H 9099   9.943   1.176  10.618 -0.6097 -0.2713  1.0887
  827MOL0     H 9100   9.723   1.265  10.559 -0.8655  1.4635 -0.3513
  827MOL0     H 9101   9.522   1.378  10.536  0.2755  1.4025  0.1154
  827MOL0     H 9102   9.594   1.363  10.380 -0.4403 -1.3526  0.1644
  827MOL0     H 9103   9.384   1.471  10.329  0.6094  1.2952 -1.6115
  827MOL0     H 9104   9.502   1.608  10.334  2.9202  0.1920  1.9810
  827MOL0     H 9105   9.436   1.701  10.543  1.8440 -0.7262  1.0107
  827MOL0     H 9106   9.355   1.551  10.589 -2.0558  2.7130  2.0192
  827MOL0     H 9107   9.275   1.729  10.361  1.0294  1.7453  0.3340
  827MOL0     H 9108   9.189   1.574  10.413 -0.4301 -0.6871  2.1329
  827MOL0     H 9109   9.174   1.683  10.641  0.8662 -1.1023 -0.4624
  827MOL0     H 9110   9.079   1.751  10.501  0.3599 -0.5667 -1.8130
  827MOL0     H 9111   9.251   1.936  10.494  1.2400  0.5073  0.7886
  827MOL0     H 9112   9.317   1.868  10.645  2.0493  1.9871 -1.5995
  827MOL0     H 9113   9.015   1.927  10.622 -1.3758  1.4974  3.7599
  827MOL0     H 9114   9.110   1.914  10.759  3.2521 -0.2148  0.1867
  827MOL0     H 9115   9.153   2.140  10.559  0.5567 -0.9622 -0.8483
  827MOL0     H 9116   9.231   2.129  10.720 -0.9208  0.8892  0.9024
  827MOL0     H 9117   8.853   2.125  10.596 -1.5730  0.3867  0.7982
  827MOL0     H 9118   8.652   2.244  10.868 -1.4954  1.1652 -0.5056
  827MOL0     H 9119   8.643   2.208  10.692  0.2516 -0.7839  0.0732
  827MOL0     H 9120   8.679   2.445  10.635 -2.6909  1.0782 -0.7257
  827MOL0     H 9121   8.684   2.487  10.812  0.1511  0.0203 -0.4798
  827MOL0     H 9122   8.449   2.399  10.828 -2.2395 -0.7878 -1.8339
  827MOL0     H 9123   8.465   2.529  10.714 -3.4764 -0.7124 -2.0295
  827MOL0     H 9124   8.421   2.229  10.659 -0.3970  0.6118  0.9724
  827MOL0     H 9125   8.488   2.331  10.536  2.2750 -0.0205  0.4039
  827MOL0     H 9126   8.346   2.168  10.441  0.3484  0.0484  0.9916
  827MOL0     H 9127   8.210   2.085  10.274  1.6261 -1.0616  1.7276
  827MOL0     H 9128   7.795   1.880  10.146  0.0525 -2.0786 -1.0891
  827MOL0     H 9129   7.693   1.786   9.957  0.7474 -1.0741 -1.1003
  827MOL0     H 9130   7.672   1.673   9.770  0.6998  0.0437 -0.5714
  827MOL0     H 9131   7.643   1.698   9.605 -3.1967  0.7787 -0.3424
  827MOL0     H 9132   7.487   1.879   9.648  1.3976  1.5263  0.4616
  827MOL0     H 9133   7.524   1.870   9.817 -0.4999 -1.6684  1.6979
  827MOL0     H 9134   7.422   1.627   9.829  0.1422 -4.6094 -3.1902
  827MOL0     H 9135   7.408   1.620   9.662 -1.6611 -1.1223  0.6931
  827MOL0     H 9136   7.260   1.827   9.834 -0.6661  1.1073 -1.4337
  827MOL0     H 9137   7.229   1.801   9.671  0.7432 -1.0736 -1.1508
  827MOL0     H 9138   7.179   1.594   9.898 -0.6176 -3.1188 -0.6585
  827MOL0     H 9139   7.170   1.536   9.740 -0.1489 -1.0744  2.5008
  827MOL0     H 9140   6.996   1.721   9.697  1.4059  1.0482  1.3413
  827MOL0     H 9141   6.982   1.732   9.872 -0.7249 -0.2549 -0.3305
  827MOL0     H 9142   6.950   1.476   9.695  0.5714 -0.7809  0.5340
  827MOL0     H 9143   6.937   1.484   9.870 -0.4051 -0.8051  0.5775
  827MOL0     H 9144   6.728   1.640   9.850 -0.4613 -0.2836  0.5345
  827MOL0     H 9145   6.714   1.483   9.808 -2.4721  1.6604  0.2703
  827MOL0     H 9146   7.890   2.057   9.697 -2.1459 -2.4580 -0.9223
  827MOL0     H 9147   8.008   2.155   9.888  2.0267 -3.0304 -1.9842
  827MOL0     H 9148   7.934   2.422  10.369 -1.9285 -1.6752 -0.1319
  827MOL0     H 9149   8.077   2.479  10.536  1.5112 -1.9561  3.3798
  827MOL0     H 9150   9.893   1.663  10.511 -0.2416  0.1534 -1.7201
  827MOL0     H 9151  10.091   1.570  10.602  2.2565 -3.1340 -0.2194
  827MOL0     H 9152  10.348   1.298  10.807 -2.4356 -1.9637 -1.3737
  827MOL0     H 9153  10.572   1.267  10.894 -4.4266 -1.6683  1.0743
  827MOL0     H 9154  10.950   1.348  10.657  1.5969 -0.3153 -0.9096
  827MOL0     H 9155  10.887   1.214  10.576  3.0993 -2.4086  0.4366
  827MOL0     H 9156  11.119   1.209  10.694 -0.7898  0.5805 -0.2357
  827MOL0     H 9157  11.036   1.174  10.844  1.0784  0.4791 -0.4319
  827MOL0     H 9158  11.004   0.976  10.616  1.9298  0.1931 -0.6460
  827MOL0     H 9159  10.925   0.978  10.775 -2.1830  1.6887 -1.6971
  827MOL0     H 9160  11.114   0.830  10.777  0.2831 -1.0624  0.0528
  827MOL0     H 9161  11.228   0.966  10.740  0.2288  1.2622  2.4602
  827MOL0     H 9162  11.210   0.992  11.140  1.5697 -0.0777 -0.6016
  827MOL0     H 9163  10.725   1.321  10.497 -0.6508  2.6059 -1.4391
  827MOL0     H 9164  10.509   1.372  10.412  2.8186 -1.3838 -0.5811
  828MOL0     O 9165   9.345   5.051   9.867 -0.5790 -0.3946  0.4791
  828MOL0     C 9166   9.375   5.164   9.912  0.6275  0.2236 -0.2834
  828MOL0     O 9167   9.307   5.280   9.888  0.4003 -0.6067 -0.0007
  828MOL0     C 9168   9.190   5.280   9.817  0.2211  0.1605  0.0997
  828MOL0     C 9169   9.170   5.381   9.724  0.1713  0.2271 -0.3540
  828MOL0     C 9170   9.056   5.395   9.645  0.0037  0.9895  0.2674
  828MOL0     C 9171   8.963   5.285   9.637 -0.8585 -0.0177 -0.5500
  828MOL0     O 9172   8.859   5.279   9.551  0.1537 -0.2799  0.2465
  828MOL0     C 9173   8.804   5.408   9.515 -0.5055 -0.3018  0.4736
  828MOL0     C 9174   8.653   5.396   9.471  0.3832 -0.3555 -0.3970
  828MOL0     C 9175   8.632   5.303   9.356 -0.1329  0.6522  0.2494
  828MOL0     C 9176   8.589   5.162   9.398  0.9952  0.6107  0.6057
  828MOL0     C 9177   8.425   5.155   9.407 -0.7055 -0.6032 -0.1215
  828MOL0     C 9178   8.393   5.012   9.465 -0.3076 -0.0971 -0.0626
  828MOL0     C 9179   8.241   4.994   9.463  0.3524 -0.5983 -0.3484
  828MOL0     C 9180   8.176   4.869   9.524  0.1601  0.0256  0.7358
  828MOL0     N 9181   8.160   4.744   9.448  0.4747 -1.0945 -0.4300
  828MOL0     C 9182   8.247   4.640   9.438 -0.3407 -0.1690 -0.2900
  828MOL0     C 9183   8.191   4.554   9.354 -0.4581  0.0247 -0.0063
  828MOL0     C 9184   8.263   4.422   9.313  0.1928 -0.1432 -1.0146
  828MOL0     C 9185   8.190   4.291   9.314  0.6433  0.4756 -0.1133
  828MOL0     C 9186   8.186   4.231   9.173 -0.5514  0.9646  0.3927
  828MOL0     C 9187   8.080   4.307   9.090  0.4906  0.2490  0.3390
  828MOL0     O 9188   7.958   4.287   9.153  0.0406 -0.9957 -0.4090
  828MOL0     C 9189   7.853   4.355   9.096  0.3275  0.5703  0.1004
  828MOL0     C 9190   7.741   4.370   9.184  0.7515 -0.6318  0.6578
  828MOL0     C 9191   7.623   4.443   9.143 -0.5136  0.1317 -0.2723
  828MOL0     C 9192   7.614   4.495   9.012 -0.2938  0.0495  0.3393
  828MOL0     C 9193   7.487   4.554   8.968  0.1533  0.7232  1.1537
  828MOL0     O 9194   7.468   4.573   8.829 -0.0073  0.0815 -0.7437
  828MOL0     C 9195   7.352   4.643   8.790 -0.7145  0.1803  0.0078
  828MOL0     C 9196   7.247   4.570   8.733  0.2679 -0.4141 -0.5765
  828MOL0     C 9197   7.130   4.641   8.713  0.1928 -0.3565  0.1210
  828MOL0     C 9198   7.122   4.779   8.713 -0.0727  0.1213  0.5189
  828MOL0     O 9199   7.002   4.835   8.667  0.1378 -0.4895 -0.4071
  828MOL0     C 9200   7.009   4.906   8.543 -0.9848  0.5886  0.4689
  828MOL0     C 9201   6.870   4.900   8.477 -0.6289 -0.1882  0.2231
  828MOL0     C 9202   6.758   4.988   8.545 -0.9882  0.4365 -0.0550
  828MOL0     C 9203   6.778   5.126   8.497 -0.2575  0.0157 -0.1661
  828MOL0     C 9204   6.679   5.228   8.538  0.1845  0.0960 -1.1245
  828MOL0     C 9205   6.651   5.338   8.430 -0.7549  0.3891  0.2936
  828MOL0     C 9206   6.544   5.434   8.482  0.2491 -0.0514 -0.0487
  828MOL0     C 9207   6.490   5.524   8.376  0.2015 -0.8877 -0.5667
  828MOL0    Cl 9208   6.621   5.626   8.319  0.1637 -0.0186  0.1090
  828MOL0     C 9209   7.222   4.858   8.771 -0.0719  0.9255  0.6205
  828MOL0     C 9210   7.341   4.788   8.818  0.2617 -0.3500 -0.3617
  828MOL0     O 9211   7.405   4.582   9.054  0.3910 -0.5470 -0.5163
  828MOL0     C 9212   7.720   4.480   8.918 -0.4967 -0.5040  0.0216
  828MOL0     C 9213   7.837   4.424   8.972 -0.4052  0.2932 -0.2315
  828MOL0     N 9214   8.064   4.593   9.324 -0.1755  0.1369 -0.3071
  828MOL0     N 9215   8.048   4.711   9.383  0.3630 -0.0623 -0.5660
  828MOL0     C 9216   8.990   5.175   9.725  0.9417 -0.7304 -0.0394
  828MOL0     C 9217   9.096   5.179   9.814  0.7195 -0.5755 -0.8394
  828MOL0     C 9218   9.505   5.188   9.989  0.4830  0.2690  0.1463
  828MOL0     C 9219   9.602   5.082  10.018  0.3816 -1.6713  0.5321
  828MOL0     C 9220   9.720   5.119  10.084  0.8392  0.2706  1.1869
  828MOL0     C 9221   9.745   5.246  10.128 -0.0635 -0.2609 -0.0906
  828MOL0     O 9222   9.848   5.280  10.208 -0.8609  0.3650  0.5735
  828MOL0     C 9223   9.931   5.181  10.255 -0.6953  0.0799 -0.2484
  828MOL0     C 9224   9.994   5.219  10.396  0.4307  0.7637  0.2194
  828MOL0     C 9225  10.080   5.105  10.445  0.4048 -0.2136  0.2759
  828MOL0     C 9226  10.161   5.157  10.575  0.0905 -0.4568  0.3416
  828MOL0     C 9227  10.225   5.048  10.640  0.4149  0.7632  0.4322
  828MOL0     C 9228  10.295   4.974  10.698  0.5830  0.2427 -0.5367
  828MOL0     C 9229   9.647   5.343  10.111  0.2819  0.1279  0.2174
  828MOL0     C 9230   9.532   5.313  10.044  0.7897 -0.1047  0.1500
  828MOL0     H 9231   9.238   5.466   9.717  1.7164 -0.5770  2.8192
  828MOL0     H 9232   9.057   5.481   9.578  0.2392 -0.3717 -1.5382
  828MOL0     H 9233   8.857   5.451   9.429 -1.9750 -0.4965 -0.5777
  828MOL0     H 9234   8.816   5.470   9.604 -0.3974  2.8358 -1.5934
  828MOL0     H 9235   8.608   5.490   9.440 -0.4815 -0.3086  0.9217
  828MOL0     H 9236   8.606   5.359   9.563  0.8721 -0.7859 -0.3126
  828MOL0     H 9237   8.726   5.293   9.300 -1.0956  1.1322 -1.5314
  828MOL0     H 9238   8.554   5.342   9.290 -0.7231 -1.8720 -0.6389
  828MOL0     H 9239   8.626   5.100   9.316 -2.0309  0.7984 -1.0285
  828MOL0     H 9240   8.635   5.118   9.487  0.0892  0.3423  0.9500
  828MOL0     H 9241   8.403   5.180   9.303  3.1285  3.0178 -0.3111
  828MOL0     H 9242   8.391   5.236   9.471  0.7222  0.8616 -1.1377
  828MOL0     H 9243   8.423   5.015   9.570 -1.4008 -2.6149  0.4110
  828MOL0     H 9244   8.458   4.935   9.423 -1.2220 -1.2507  0.5703
  828MOL0     H 9245   8.204   5.071   9.531  1.0034 -3.4080  3.5628
  828MOL0     H 9246   8.204   5.016   9.362 -0.6080  3.0468  0.6574
  828MOL0     H 9247   8.077   4.899   9.559 -1.0797 -0.5201 -2.0779
  828MOL0     H 9248   8.224   4.839   9.618  0.4257  2.6351  1.5163
  828MOL0     H 9249   8.354   4.636   9.459  0.0616  0.7127 -1.9792
  828MOL0     H 9250   8.330   4.411   9.399 -2.3161  4.3184  1.9207
  828MOL0     H 9251   8.311   4.430   9.215 -1.5907 -1.1770 -2.0276
  828MOL0     H 9252   8.096   4.301   9.369  1.2404  3.3982  0.4995
  828MOL0     H 9253   8.250   4.225   9.378 -0.7361  0.8244  1.6104
  828MOL0     H 9254   8.290   4.243   9.141  0.4335  2.2504  3.6567
  828MOL0     H 9255   8.165   4.124   9.166 -0.9797  1.0514  0.2844
  828MOL0     H 9256   8.074   4.269   8.988 -4.9775 -2.5940  1.3308
  828MOL0     H 9257   8.111   4.412   9.097  0.9364  0.1731 -0.3865
  828MOL0     H 9258   7.757   4.330   9.283  2.8488  0.3020  0.7513
  828MOL0     H 9259   7.540   4.460   9.210 -0.9891  1.1943 -1.1124
  828MOL0     H 9260   7.265   4.464   8.719  0.0468 -0.7351  1.2704
  828MOL0     H 9261   7.047   4.579   8.680  2.0356 -2.4136 -0.9005
  828MOL0     H 9262   7.079   4.853   8.479  0.0957 -0.0368  2.0949
  828MOL0     H 9263   7.042   5.011   8.543  2.9895 -0.4821  2.2221
  828MOL0     H 9264   6.842   4.794   8.477 -0.8293 -0.3294  4.4556
  828MOL0     H 9265   6.875   4.925   8.371  1.7620 -1.3735 -0.0071
  828MOL0     H 9266   6.775   4.989   8.653  2.7353  2.8010 -0.4739
  828MOL0     H 9267   6.658   4.946   8.526 -2.0121  2.6544  0.1658
  828MOL0     H 9268   6.872   5.170   8.532  0.9640 -2.4882 -0.1079
  828MOL0     H 9269   6.775   5.124   8.388  1.8021 -1.3691 -0.2742
  828MOL0     H 9270   6.711   5.272   8.633 -4.0303  1.1259  0.0340
  828MOL0     H 9271   6.579   5.187   8.552  0.8413 -1.6387 -1.3233
  828MOL0     H 9272   6.624   5.288   8.337  1.2160 -0.8841  0.3457
  828MOL0     H 9273   6.744   5.391   8.409 -0.1328  0.9194  3.6783
  828MOL0     H 9274   6.465   5.375   8.530  1.6953 -2.4989 -0.5077
  828MOL0     H 9275   6.593   5.501   8.554 -1.6796  0.8096  0.5311
  828MOL0     H 9276   6.409   5.585   8.417  0.5686  0.5527 -1.8797
  828MOL0     H 9277   6.448   5.471   8.290  0.8261  0.0513 -1.4854
  828MOL0     H 9278   7.206   4.965   8.774  0.0275  1.1458 -2.9031
  828MOL0     H 9279   7.428   4.842   8.853 -1.3118  2.0865  0.0194
  828MOL0     H 9280   7.717   4.506   8.813  2.4470 -1.6389 -0.4398
  828MOL0     H 9281   7.916   4.417   8.898  0.9525 -3.3414  1.2922
  828MOL0     H 9282   8.922   5.092   9.737  1.4475 -0.8552  2.2527
  828MOL0     H 9283   9.103   5.094   9.881 -1.4584 -1.5480 -1.7553
  828MOL0     H 9284   9.585   4.978   9.990  0.1658 -1.3510 -0.5690
  828MOL0     H 9285   9.785   5.035  10.106 -1.5511 -0.9211  4.7741
  828MOL0     H 9286  10.012   5.157  10.185 -0.0512 -1.1257  0.8764
  828MOL0     H 9287   9.879   5.087  10.271  0.4668 -0.4531  0.5671
  828MOL0     H 9288  10.058   5.307  10.387  0.8881  0.3481 -0.7919
  828MOL0     H 9289   9.912   5.236  10.467 -0.2637  0.3932 -0.4743
  828MOL0     H 9290  10.145   5.075  10.362 -0.9647  0.1405 -0.9643
  828MOL0     H 9291  10.011   5.026  10.476 -0.7580  1.0291  0.9158
  828MOL0     H 9292  10.234   5.229  10.539  1.2181 -1.4985  0.4784
  828MOL0     H 9293  10.099   5.212  10.646  0.7214 -0.1781  0.6847
  828MOL0     H 9294  10.363   4.899  10.735  0.3696 -0.7966 -2.1395
  828MOL0     H 9295   9.667   5.442  10.152  1.4920 -0.7568  1.9229
  828MOL0     H 9296   9.464   5.397  10.047 -1.3472 -1.7599  2.0754
  829MOL0     O 9297   9.064   0.439   0.243 -0.0239  0.5892  0.7099
  829MOL0     C 9298   9.184   0.464   0.263 -0.0497  0.6715  0.1808
  829MOL0     O 9299   9.228   0.590   0.281  0.1768  0.3834  0.3854
  829MOL0     C 9300   9.150   0.695   0.263  0.4368 -0.9234 -0.1507
  829MOL0     C 9301   9.201   0.792   0.171 -0.5396  1.1318 -0.5054
  829MOL0     C 9302   9.130   0.915   0.136  0.4094 -0.4006 -1.2217
  829MOL0     C 9303   8.998   0.937   0.187  0.2448 -0.4389 -0.7878
  829MOL0     O 9304   8.924   1.044   0.142  0.0507 -0.0846  0.0816
  829MOL0     C 9305   8.980   1.134   0.045 -1.2335  0.1753 -0.3507
  829MOL0     C 9306   8.865   1.219  -0.009  0.0268  0.3820 -0.8552
  829MOL0     C 9307   8.935   1.328  -0.094  0.3098 -0.5084  0.1466
  829MOL0     C 9308   8.830   1.438  -0.149  0.0169  0.9006  0.5740
  829MOL0     C 9309   8.891   1.554  -0.209  0.3457 -0.0597  0.4016
  829MOL0     C 9310   8.798   1.671  -0.232 -0.6038  0.0075  0.0355
  829MOL0     C 9311   8.873   1.780  -0.301 -0.4716 -1.2380  0.6939
  829MOL0     C 9312   8.791   1.909  -0.333 -0.5182 -0.0563  0.3646
  829MOL0     N 9313   8.694   1.886  -0.436  0.1894  0.4093  0.0856
  829MOL0     C 9314   8.564   1.929  -0.438 -0.2672 -0.7939 -0.4015
  829MOL0     C 9315   8.518   1.916  -0.566  0.5260  0.4093 -0.9212
  829MOL0     C 9316   8.380   1.940  -0.615  0.5914  0.6474 -0.0333
  829MOL0     C 9317   8.305   1.801  -0.649 -0.1329 -1.0036  0.1822
  829MOL0     C 9318   8.184   1.815  -0.748  0.2060 -0.2776  0.1268
  829MOL0     C 9319   8.073   1.899  -0.686  0.1010 -0.4103 -0.3442
  829MOL0     O 9320   8.016   1.834  -0.568 -0.1101 -0.5569  0.6133
  829MOL0     C 9321   7.944   1.719  -0.583 -0.8434 -0.2013  0.4515
  829MOL0     C 9322   7.881   1.681  -0.703  0.7237  0.5350 -0.0195
  829MOL0     C 9323   7.823   1.554  -0.715 -0.3124  0.2109  0.0228
  829MOL0     C 9324   7.818   1.459  -0.610 -0.4001 -0.2679  0.2054
  829MOL0     C 9325   7.737   1.339  -0.613 -0.2396  0.1591 -0.3158
  829MOL0     O 9326   7.770   1.241  -0.529  0.3845  0.0025  0.0188
  829MOL0     C 9327   7.695   1.131  -0.523 -0.3151  0.1414  0.3143
  829MOL0     C 9328   7.691   1.038  -0.629 -0.5551 -0.5283  0.4366
  829MOL0     C 9329   7.615   0.922  -0.620  0.1565  0.2318  0.9279
  829MOL0     C 9330   7.534   0.898  -0.507 -0.4229 -0.9298 -0.1798
  829MOL0     O 9331   7.454   0.784  -0.500 -0.4727 -0.4593  0.7468
  829MOL0     C 9332   7.406   0.723  -0.619 -0.3838  0.4236 -0.3868
  829MOL0     C 9333   7.272   0.657  -0.575  0.5459  0.0851 -0.5027
  829MOL0     C 9334   7.183   0.591  -0.686 -1.0315  0.1409 -0.8490
  829MOL0     C 9335   7.259   0.484  -0.767 -0.1983 -0.1873 -0.0430
  829MOL0     C 9336   7.162   0.419  -0.868  0.1571 -0.4683 -0.2418
  829MOL0     C 9337   7.235   0.334  -0.976  0.3688 -0.4497 -0.7986
  829MOL0     C 9338   7.324   0.223  -0.911  0.4039 -0.3125 -0.5172
  829MOL0     C 9339   7.422   0.171  -1.018 -0.0238 -0.7452  0.2226
  829MOL0    Cl 9340   7.527   0.307  -1.089  0.3117 -0.5717  0.1227
  829MOL0     C 9341   7.543   0.982  -0.391  0.3098 -0.0401 -0.4367
  829MOL0     C 9342   7.621   1.094  -0.398 -0.8141  0.1098  0.2858
  829MOL0     O 9343   7.647   1.333  -0.699  0.2192 -1.0694 -0.3294
  829MOL0     C 9344   7.876   1.492  -0.493 -0.9091  0.3133 -0.5013
  829MOL0     C 9345   7.942   1.620  -0.482 -1.0202 -0.4444  0.1049
  829MOL0     N 9346   8.621   1.864  -0.641 -0.7699  0.0058 -0.0624
  829MOL0     N 9347   8.726   1.857  -0.569  0.3126  0.6043  0.6088
  829MOL0     C 9348   8.949   0.836   0.275 -0.6749 -0.2899  0.5314
  829MOL0     C 9349   9.022   0.719   0.314 -0.4939 -0.4043 -0.9759
  829MOL0     C 9350   9.279   0.362   0.256  0.3571  0.4925 -0.5693
  829MOL0     C 9351   9.415   0.385   0.247 -0.1095  0.3025  0.0708
  829MOL0     C 9352   9.511   0.284   0.239  0.1879 -0.0145 -0.2534
  829MOL0     C 9353   9.472   0.147   0.243 -0.2991 -0.5589 -0.0789
  829MOL0     O 9354   9.574   0.059   0.261 -0.3425 -0.3889  0.6968
  829MOL0     C 9355   9.544  -0.080   0.287  0.0500  1.1184 -0.6392
  829MOL0     C 9356   9.676  -0.151   0.328  0.1168 -0.0243  0.1939
  829MOL0     C 9357   9.754  -0.196   0.200  0.5844 -0.1846  0.2039
  829MOL0     C 9358   9.865  -0.285   0.241 -0.8146  0.0429 -0.3073
  829MOL0     C 9359   9.913  -0.376   0.139  0.2492 -0.7001  0.6451
  829MOL0     C 9360   9.964  -0.441   0.049 -0.8393 -1.0021  0.2532
  829MOL0     C 9361   9.332   0.119   0.249 -0.2759  0.1597 -0.5561
  829MOL0     C 9362   9.239   0.227   0.255 -1.2967 -0.3110  0.0404
  829MOL0     H 9363   9.295   0.766   0.124  0.0076 -1.5466  1.7683
  829MOL0     H 9364   9.192   0.976   0.071  1.8754  0.7470  1.1342
  829MOL0     H 9365   9.039   1.093  -0.037 -0.6816 -0.8544  0.5413
  829MOL0     H 9366   9.042   1.204   0.101  0.1435 -0.9562 -0.4344
  829MOL0     H 9367   8.810   1.270   0.071  2.8044 -1.3452  2.4207
  829MOL0     H 9368   8.793   1.154  -0.060 -3.5746  2.1969  1.4988
  829MOL0     H 9369   8.992   1.282  -0.176  0.7232  0.8217 -0.3442
  829MOL0     H 9370   9.007   1.384  -0.034  0.9653 -1.4805  0.2991
  829MOL0     H 9371   8.774   1.380  -0.223  0.8401  0.0805  0.5758
  829MOL0     H 9372   8.765   1.477  -0.070  0.5548  0.0618  1.4736
  829MOL0     H 9373   8.937   1.521  -0.303  3.4688 -2.7215  2.6718
  829MOL0     H 9374   8.974   1.587  -0.147  1.7344 -1.3407 -0.7023
  829MOL0     H 9375   8.763   1.707  -0.135  2.9114 -1.2302  1.9309
  829MOL0     H 9376   8.712   1.648  -0.296 -2.1276 -1.9753  2.5820
  829MOL0     H 9377   8.955   1.817  -0.239  0.3980  0.3847 -1.3256
  829MOL0     H 9378   8.932   1.750  -0.387 -0.2601  0.1015  0.3495
  829MOL0     H 9379   8.861   1.984  -0.372 -0.8730 -0.0565 -0.2824
  829MOL0     H 9380   8.735   1.945  -0.246 -0.7395 -0.0191  0.2074
  829MOL0     H 9381   8.506   1.975  -0.358  1.2348 -2.2656  1.6356
  829MOL0     H 9382   8.391   2.010  -0.699 -2.3469  1.5055  0.1998
  829MOL0     H 9383   8.317   1.997  -0.546 -1.1016 -0.5684 -0.5231
  829MOL0     H 9384   8.275   1.748  -0.559 -0.4055 -0.5553  0.3559
  829MOL0     H 9385   8.380   1.744  -0.704  3.0081  2.7184  0.2146
  829MOL0     H 9386   8.220   1.864  -0.838  1.5088  1.5918  1.5775
  829MOL0     H 9387   8.161   1.711  -0.771  0.0647 -0.0925 -0.5991
  829MOL0     H 9388   7.991   1.910  -0.757  0.1123 -2.7998 -0.8219
  829MOL0     H 9389   8.114   2.000  -0.673 -0.2276 -0.4089  0.7742
  829MOL0     H 9390   7.865   1.751  -0.785  1.1148 -0.5284 -1.0327
  829MOL0     H 9391   7.786   1.523  -0.812  2.3647 -2.0500 -0.4047
  829MOL0     H 9392   7.742   1.067  -0.720 -0.2406 -0.4188  0.6442
  829MOL0     H 9393   7.623   0.845  -0.696 -0.0393 -0.5028  1.6329
  829MOL0     H 9394   7.487   0.651  -0.629 -0.1907  0.4793  0.6397
  829MOL0     H 9395   7.392   0.796  -0.699  1.5522  2.1521  0.7589
  829MOL0     H 9396   7.205   0.740  -0.552  2.6914  2.0207 -0.9373
  829MOL0     H 9397   7.286   0.585  -0.494 -0.2849  1.2052  0.6586
  829MOL0     H 9398   7.144   0.665  -0.757 -2.3526 -0.0856 -0.3770
  829MOL0     H 9399   7.095   0.546  -0.642 -0.1193 -1.1459 -0.2818
  829MOL0     H 9400   7.349   0.531  -0.808  1.1314 -0.3122  2.5191
  829MOL0     H 9401   7.299   0.409  -0.699  2.4205 -2.3441 -3.5695
  829MOL0     H 9402   7.104   0.496  -0.920  0.4563 -1.6058 -2.3650
  829MOL0     H 9403   7.089   0.364  -0.807  1.8032 -1.6782  0.7182
  829MOL0     H 9404   7.282   0.403  -1.046  0.4902  0.9175  0.5832
  829MOL0     H 9405   7.163   0.286  -1.044 -0.1745  2.1995 -2.1967
  829MOL0     H 9406   7.382   0.268  -0.830 -0.2416 -2.1750  1.0680
  829MOL0     H 9407   7.264   0.141  -0.870  1.5106 -0.7316  0.3214
  829MOL0     H 9408   7.368   0.125  -1.101  2.2550  0.4858 -2.0937
  829MOL0     H 9409   7.495   0.098  -0.981  2.7055  1.8173  0.2688
  829MOL0     H 9410   7.495   0.950  -0.299 -2.1119 -0.1378 -1.6394
  829MOL0     H 9411   7.651   1.155  -0.313  2.8736  0.0619 -0.7956
  829MOL0     H 9412   7.881   1.423  -0.409  1.3787  2.6458  1.4715
  829MOL0     H 9413   7.999   1.630  -0.390 -2.5772 -0.2876  1.1005
  829MOL0     H 9414   8.848   0.842   0.312 -1.2661 -3.8446 -0.1327
  829MOL0     H 9415   8.970   0.650   0.379  1.1073 -1.5774 -0.8790
  829MOL0     H 9416   9.442   0.490   0.249 -1.6811  0.7610 -1.1584
  829MOL0     H 9417   9.613   0.320   0.247  0.4026 -0.9443  1.9099
  829MOL0     H 9418   9.499  -0.129   0.199 -0.5036  0.2341  0.1193
  829MOL0     H 9419   9.474  -0.091   0.370  1.2452  0.2625  0.2757
  829MOL0     H 9420   9.734  -0.082   0.391  1.6885 -1.3419  0.2518
  829MOL0     H 9421   9.644  -0.239   0.384 -1.3632  1.1073  1.2086
  829MOL0     H 9422   9.786  -0.102   0.154  1.3785 -0.8369 -0.6218
  829MOL0     H 9423   9.678  -0.244   0.136  0.2048 -1.5361  1.6117
  829MOL0     H 9424   9.941  -0.222   0.288 -0.2186 -1.2244  0.4779
  829MOL0     H 9425   9.821  -0.340   0.324  2.5466 -0.0214  1.5699
  829MOL0     H 9426  10.007  -0.485  -0.039 -2.4922  0.9964 -1.6963
  829MOL0     H 9427   9.296   0.017   0.262 -0.4128  0.1143 -1.2520
  829MOL0     H 9428   9.134   0.207   0.276 -1.6161  0.3113 -0.8783
  830MOL0     O 9429   8.901   1.755   1.435 -0.4006  0.4372  0.0802
  830MOL0     C 9430   8.976   1.798   1.524  0.5232 -0.6676  0.2487
  830MOL0     O 9431   8.974   1.931   1.564  0.0102 -0.7362  0.5498
  830MOL0     C 9432   8.881   2.016   1.494 -0.2336  0.4315  0.1617
  830MOL0     C 9433   8.904   2.067   1.365 -0.6794  0.0738  0.0027
  830MOL0     C 9434   8.822   2.161   1.311 -0.7864  0.5068  0.7186
  830MOL0     C 9435   8.707   2.206   1.380 -0.2918 -0.1612 -0.0464
  830MOL0     O 9436   8.611   2.280   1.326 -0.1016  0.6455 -0.3552
  830MOL0     C 9437   8.657   2.395   1.257  0.5441  0.7942  0.5855
  830MOL0     C 9438   8.536   2.483   1.240 -1.0559 -0.4121 -0.3191
  830MOL0     C 9439   8.476   2.552   1.373  0.3800  0.3077 -0.5202
  830MOL0     C 9440   8.438   2.701   1.366  0.2885 -0.3362 -0.4049
  830MOL0     C 9441   8.400   2.771   1.497  0.1603 -0.0945 -0.5666
  830MOL0     C 9442   8.252   2.746   1.527  0.1682  0.4809 -0.3448
  830MOL0     C 9443   8.203   2.853   1.623 -0.2221  0.2032  0.1782
  830MOL0     C 9444   8.185   2.996   1.570  0.8022  0.6969 -0.0697
  830MOL0     N 9445   8.127   2.998   1.436  0.3523  0.1246 -0.7064
  830MOL0     C 9446   7.993   3.031   1.404 -0.4709  0.8481  0.4319
  830MOL0     C 9447   7.992   3.052   1.268  0.5897  0.1050 -0.0129
  830MOL0     C 9448   7.881   3.091   1.165  0.4971 -0.8009 -0.1513
  830MOL0     C 9449   7.734   3.097   1.209  0.6510 -0.3848 -0.3307
  830MOL0     C 9450   7.700   3.238   1.279 -0.0628  0.3804  0.3146
  830MOL0     C 9451   7.557   3.259   1.311  1.4088 -0.3338 -0.3060
  830MOL0     O 9452   7.475   3.274   1.190 -0.3695 -0.4754  0.6507
  830MOL0     C 9453   7.342   3.279   1.224  0.6309  0.3579 -0.0955
  830MOL0     C 9454   7.276   3.162   1.251 -0.1307 -0.1230  0.2201
  830MOL0     C 9455   7.144   3.155   1.290  0.8262 -0.2482  0.6554
  830MOL0     C 9456   7.071   3.283   1.305 -0.4600  1.0261 -0.0139
  830MOL0     C 9457   6.928   3.297   1.347  0.8926 -0.1136 -0.0749
  830MOL0     O 9458   6.856   3.186   1.370  0.6683  1.2732  0.4660
  830MOL0     C 9459   6.725   3.187   1.400 -0.4093  0.1051  0.4296
  830MOL0     C 9460   6.654   3.276   1.479 -0.0770  0.4610  0.0789
  830MOL0     C 9461   6.514   3.278   1.498  0.4833 -0.1511 -1.0359
  830MOL0     C 9462   6.441   3.180   1.446  0.3650  0.3599  0.1932
  830MOL0     O 9463   6.302   3.180   1.449 -1.2461  0.8037 -0.3639
  830MOL0     C 9464   6.256   3.199   1.585 -0.1007  0.0027 -0.8657
  830MOL0     C 9465   6.102   3.171   1.587 -0.1190 -0.3743  0.7658
  830MOL0     C 9466   6.031   3.298   1.570 -0.4228  0.6100  0.2972
  830MOL0     C 9467   5.882   3.285   1.561 -0.8301  0.1849 -0.9767
  830MOL0     C 9468   5.820   3.414   1.532  0.2217 -0.4218  0.0024
  830MOL0     C 9469   5.662   3.399   1.516  0.3345 -0.4604 -0.3998
  830MOL0     C 9470   5.594   3.544   1.521 -0.5966  0.3559 -0.4547
  830MOL0     C 9471   5.449   3.519   1.557 -0.5585  0.0838  0.6264
  830MOL0    Cl 9472   5.361   3.668   1.602  0.1318 -0.3231 -0.4644
  830MOL0     C 9473   6.506   3.079   1.389  0.3099  0.1018  0.7629
  830MOL0     C 9474   6.643   3.081   1.360  0.2702 -0.3553 -0.2533
  830MOL0     O 9475   6.888   3.409   1.365 -0.0487 -0.2962 -0.4152
  830MOL0     C 9476   7.146   3.394   1.287  0.7176 -0.6779 -0.3043
  830MOL0     C 9477   7.275   3.402   1.241 -0.1444  0.6994 -1.1867
  830MOL0     N 9478   8.118   3.038   1.222  0.8822  1.0264  0.5727
  830MOL0     N 9479   8.198   3.013   1.323  0.6153  0.0536  0.4455
  830MOL0     C 9480   8.683   2.155   1.508  0.5338 -0.2342  0.2987
  830MOL0     C 9481   8.771   2.068   1.564 -0.2739  0.4132 -0.1919
  830MOL0     C 9482   9.074   1.707   1.581  0.5578 -0.9672  0.4871
  830MOL0     C 9483   9.060   1.572   1.569  0.5485 -0.3405  0.5074
  830MOL0     C 9484   9.146   1.488   1.637  0.3506 -0.7466 -0.7743
  830MOL0     C 9485   9.263   1.525   1.700 -0.0225  1.1716  1.2326
  830MOL0     O 9486   9.356   1.438   1.736  0.2009 -0.0708 -0.8274
  830MOL0     C 9487   9.458   1.467   1.837 -0.1308 -0.8810 -0.3269
  830MOL0     C 9488   9.529   1.345   1.879  0.4770  0.1478 -0.2261
  830MOL0     C 9489   9.685   1.345   1.880  0.1003 -1.0533 -0.8217
  830MOL0     C 9490   9.747   1.222   1.937  0.0091  0.2181  0.8224
  830MOL0     C 9491   9.796   1.142   1.833  0.1512  0.7084 -0.6047
  830MOL0     C 9492   9.850   1.073   1.745 -0.1065 -0.7597 -0.1822
  830MOL0     C 9493   9.284   1.664   1.697 -0.4876 -0.4621 -0.3728
  830MOL0     C 9494   9.193   1.752   1.650  0.0419  0.7901  0.4529
  830MOL0     H 9495   8.982   2.024   1.303 -0.8985 -1.9985  1.0891
  830MOL0     H 9496   8.843   2.185   1.207  1.7853 -1.8683  0.5740
  830MOL0     H 9497   8.687   2.367   1.155  1.0088 -0.3932  1.0253
  830MOL0     H 9498   8.735   2.450   1.310 -2.6960  5.3304  1.1590
  830MOL0     H 9499   8.456   2.432   1.186 -1.6469  1.9325 -1.8283
  830MOL0     H 9500   8.577   2.563   1.178  3.3259 -1.7967  0.4438
  830MOL0     H 9501   8.551   2.530   1.450  1.4347 -2.1426 -2.1154
  830MOL0     H 9502   8.389   2.495   1.405  1.4069  0.1103  2.1467
  830MOL0     H 9503   8.524   2.756   1.328 -0.0851  3.6693  3.6559
  830MOL0     H 9504   8.357   2.709   1.292 -0.3493 -1.8698  0.0801
  830MOL0     H 9505   8.420   2.877   1.478 -3.3664  0.7568 -0.2038
  830MOL0     H 9506   8.453   2.742   1.587 -2.8222  0.9259  1.6891
  830MOL0     H 9507   8.249   2.648   1.576  0.1181 -0.6026 -2.4240
  830MOL0     H 9508   8.186   2.752   1.441  1.1417  1.4947 -1.0516
  830MOL0     H 9509   8.108   2.815   1.662 -0.2068 -0.4801 -0.4421
  830MOL0     H 9510   8.275   2.872   1.703 -1.3325 -4.1811  2.5341
  830MOL0     H 9511   8.276   3.056   1.572  0.6359  1.0056 -1.2749
  830MOL0     H 9512   8.107   3.042   1.632  1.5254  0.0609  1.3482
  830MOL0     H 9513   7.908   3.043   1.469 -1.0895 -2.4431  0.4266
  830MOL0     H 9514   7.892   3.012   1.090  1.6655 -0.9037  0.1049
  830MOL0     H 9515   7.904   3.185   1.115 -0.1268  1.4943  3.5010
  830MOL0     H 9516   7.708   3.015   1.277  4.0926 -3.8764 -2.7713
  830MOL0     H 9517   7.669   3.098   1.121  1.1187 -0.6908 -0.6848
  830MOL0     H 9518   7.750   3.254   1.374  1.5795 -0.2840 -0.3950
  830MOL0     H 9519   7.743   3.308   1.206  2.0314  0.2789  1.3868
  830MOL0     H 9520   7.535   3.340   1.381 -2.5270 -0.2080 -1.3996
  830MOL0     H 9521   7.521   3.169   1.362 -0.8373  0.2949 -0.6724
  830MOL0     H 9522   7.324   3.065   1.238 -0.9976 -1.0782  3.2877
  830MOL0     H 9523   7.097   3.058   1.299  1.8364 -0.8767 -0.5607
  830MOL0     H 9524   6.710   3.352   1.533  1.9120 -0.4916 -0.5800
  830MOL0     H 9525   6.468   3.350   1.563  2.0639  0.9079 -1.0371
  830MOL0     H 9526   6.270   3.298   1.630 -0.4534 -0.3924  0.1337
  830MOL0     H 9527   6.287   3.123   1.657  0.0627  1.0493  0.2058
  830MOL0     H 9528   6.070   3.116   1.677  0.9668  0.0921  1.4530
  830MOL0     H 9529   6.088   3.104   1.501 -0.0168 -0.7408  1.0296
  830MOL0     H 9530   6.075   3.341   1.479  0.3338  1.7037  1.1525
  830MOL0     H 9531   6.057   3.375   1.643  2.5387  0.2097 -0.1850
  830MOL0     H 9532   5.865   3.209   1.483  0.0740 -2.1888  1.0105
  830MOL0     H 9533   5.846   3.247   1.657 -0.3943  0.8792 -0.5345
  830MOL0     H 9534   5.859   3.442   1.433  1.3277 -1.1902  0.2031
  830MOL0     H 9535   5.841   3.489   1.608 -0.6504  1.3706 -1.4348
  830MOL0     H 9536   5.617   3.336   1.594 -1.3227  2.5062  1.2444
  830MOL0     H 9537   5.633   3.345   1.426 -1.0318  0.1094 -0.3411
  830MOL0     H 9538   5.630   3.593   1.612 -0.0803  0.6828 -0.8330
  830MOL0     H 9539   5.613   3.601   1.429 -1.1944  1.3369  0.0099
  830MOL0     H 9540   5.444   3.445   1.638 -3.3126 -2.0996 -1.3123
  830MOL0     H 9541   5.386   3.471   1.481 -1.7024  1.5607  0.5906
  830MOL0     H 9542   6.444   2.999   1.348 -0.5453  0.8404  0.5847
  830MOL0     H 9543   6.692   3.002   1.305 -0.5242 -0.6437 -0.5694
  830MOL0     H 9544   7.104   3.491   1.312 -0.0638 -1.4532  1.5672
  830MOL0     H 9545   7.337   3.487   1.215  2.5586 -0.3028  1.4651
  830MOL0     H 9546   8.600   2.192   1.568  2.5895  1.2581  2.3668
  830MOL0     H 9547   8.749   2.013   1.655  0.7644  0.1543 -0.0767
  830MOL0     H 9548   8.974   1.533   1.515  0.0737 -0.0576  1.0447
  830MOL0     H 9549   9.133   1.380   1.631 -1.2758 -0.5155 -2.3618
  830MOL0     H 9550   9.419   1.525   1.922 -1.1435  0.8248 -1.8950
  830MOL0     H 9551   9.535   1.529   1.792  0.1117  0.1813  1.4608
  830MOL0     H 9552   9.500   1.305   1.977  2.4661  2.6951  1.5384
  830MOL0     H 9553   9.495   1.276   1.801  2.8392 -1.4073  0.0173
  830MOL0     H 9554   9.706   1.419   1.957 -2.5181 -2.6551  1.6494
  830MOL0     H 9555   9.719   1.361   1.777 -0.9549 -1.6849 -1.2911
  830MOL0     H 9556   9.834   1.235   2.002  0.8500 -2.0399  0.2585
  830MOL0     H 9557   9.674   1.164   1.995  0.1401  2.2722  3.1828
  830MOL0     H 9558   9.897   1.015   1.668  0.8328 -0.2727  0.0141
  830MOL0     H 9559   9.372   1.705   1.747 -1.1065 -1.8415  1.9942
  830MOL0     H 9560   9.203   1.858   1.668 -2.8313  0.9831  1.3946
  831MOL0     O 9561   9.354   9.618   3.480 -0.3820 -0.4311 -0.3850
  831MOL0     C 9562   9.440   9.678   3.415  0.0633 -0.2029  0.3394
  831MOL0     O 9563   9.423   9.796   3.342 -0.6302 -0.1148 -0.6265
  831MOL0     C 9564   9.303   9.866   3.350 -0.0775 -0.1790  0.5802
  831MOL0     C 9565   9.299   9.985   3.277  0.6049 -0.1612 -0.2066
  831MOL0     C 9566   9.186  10.070   3.274 -0.3213  0.2147  1.0146
  831MOL0     C 9567   9.068  10.028   3.325 -0.5800  0.8110  0.3472
  831MOL0     O 9568   8.955  10.102   3.337 -0.0498  0.1357 -0.7127
  831MOL0     C 9569   8.947  10.232   3.279 -0.7184  0.1709 -0.2194
  831MOL0     C 9570   8.806  10.278   3.295  0.5454  0.8112 -0.5554
  831MOL0     C 9571   8.753  10.286   3.431  0.1695 -0.9738 -0.1949
  831MOL0     C 9572   8.595  10.308   3.430  0.7255  0.7317  0.6275
  831MOL0     C 9573   8.544  10.450   3.399 -0.1767 -0.4251  0.3860
  831MOL0     C 9574   8.401  10.487   3.431  0.0105  0.2247  0.1716
  831MOL0     C 9575   8.297  10.420   3.344  0.4797  0.5855  0.0292
  831MOL0     C 9576   8.297  10.466   3.197 -0.4632 -0.2069 -0.2704
  831MOL0     N 9577   8.224  10.586   3.167 -0.2247  0.4376 -0.3650
  831MOL0     C 9578   8.086  10.597   3.178 -0.6774  0.1305 -0.4312
  831MOL0     C 9579   8.050  10.711   3.124  0.2065 -0.2538 -0.5595
  831MOL0     C 9580   7.915  10.770   3.129  0.6135  0.2906 -0.4921
  831MOL0     C 9581   7.832  10.707   3.025  0.7138 -1.1476 -0.5011
  831MOL0     C 9582   7.693  10.770   3.004  0.0388 -0.2561  0.1591
  831MOL0     C 9583   7.699  10.915   2.975 -0.7919  0.4236 -0.4609
  831MOL0     O 9584   7.578  10.959   2.909 -0.5840  0.3823 -1.2179
  831MOL0     C 9585   7.457  10.934   2.954  0.1499 -0.0388 -0.2840
  831MOL0     C 9586   7.424  10.907   3.082 -0.2430  0.3029 -0.1275
  831MOL0     C 9587   7.284  10.882   3.113  0.0881 -0.3558  0.5823
  831MOL0     C 9588   7.183  10.875   3.010 -0.5058  0.1669 -0.0913
  831MOL0     C 9589   7.042  10.835   3.031  0.4772 -0.3460  0.9967
  831MOL0     O 9590   6.991  10.847   3.160 -1.0377 -0.3092  0.0237
  831MOL0     C 9591   6.856  10.870   3.174 -0.1152 -0.6354  0.2557
  831MOL0     C 9592   6.796  10.813   3.283  0.8150  0.0032 -0.4131
  831MOL0     C 9593   6.662  10.818   3.318  0.5789 -0.3182 -0.2889
  831MOL0     C 9594   6.577  10.894   3.236  1.3961  0.4673  0.2714
  831MOL0     O 9595   6.434  10.909   3.252 -0.2911  0.4166 -0.3245
  831MOL0     C 9596   6.376  10.837   3.366 -0.6722 -0.1898 -0.3838
  831MOL0     C 9597   6.224  10.866   3.385  0.0598 -0.2334  0.0659
  831MOL0     C 9598   6.192  11.007   3.426 -0.3141  1.1790 -0.0708
  831MOL0     C 9599   6.046  11.021   3.405  1.5202  0.2317 -0.6381
  831MOL0     C 9600   6.000  11.160   3.441  0.4671  0.2521 -0.1371
  831MOL0     C 9601   5.853  11.161   3.460  0.4328 -1.2217 -0.9914
  831MOL0     C 9602   5.816  11.303   3.514 -0.7774  0.3957 -0.4996
  831MOL0     C 9603   5.668  11.320   3.540 -0.2620 -0.1489 -0.6725
  831MOL0    Cl 9604   5.636  11.217   3.685  0.0093 -0.2461 -0.6856
  831MOL0     C 9605   6.636  10.960   3.130  0.3704  0.0181  0.6992
  831MOL0     C 9606   6.770  10.948   3.093 -0.9447 -0.2983 -0.2191
  831MOL0     O 9607   6.981  10.787   2.935 -0.2824  0.0993  0.4067
  831MOL0     C 9608   7.232  10.884   2.880  0.0387 -0.5975  0.0862
  831MOL0     C 9609   7.360  10.921   2.850 -0.1584 -0.0421 -0.1220
  831MOL0     N 9610   8.166  10.771   3.070  0.3883  0.3077  0.8460
  831MOL0     N 9611   8.265  10.698   3.100  0.6307  0.4840 -0.3337
  831MOL0     C 9612   9.066   9.902   3.392 -0.6963  0.0041  0.4876
  831MOL0     C 9613   9.183   9.822   3.403 -0.0471  0.2155 -0.8234
  831MOL0     C 9614   9.585   9.641   3.428  0.3705  0.8670 -0.0080
  831MOL0     C 9615   9.632   9.570   3.539 -0.0458 -0.8139 -0.9367
  831MOL0     C 9616   9.764   9.527   3.548 -0.0419  1.1692  0.0376
  831MOL0     C 9617   9.861   9.559   3.450  0.4392  0.3150  0.5504
  831MOL0     O 9618   9.995   9.526   3.455  0.1885 -0.2383 -0.1027
  831MOL0     C 9619  10.041   9.445   3.564  0.4480  0.0583 -0.6269
  831MOL0     C 9620  10.077   9.534   3.689  0.4484 -0.2785  1.4374
  831MOL0     C 9621  10.192   9.635   3.659 -0.2423  0.6276  0.7252
  831MOL0     C 9622  10.241   9.703   3.781 -1.0040 -0.6412  0.2371
  831MOL0     C 9623  10.376   9.765   3.750 -0.2437 -0.2435 -0.3861
  831MOL0     C 9624  10.490   9.809   3.753  0.2498  1.3408 -0.1657
  831MOL0     C 9625   9.817   9.636   3.342 -0.3201  0.3180 -0.6938
  831MOL0     C 9626   9.678   9.675   3.328  0.7832  0.1210 -0.1508
  831MOL0     H 9627   9.387  10.026   3.229 -0.3284  1.8285 -0.3199
  831MOL0     H 9628   9.192  10.159   3.212  1.5589 -0.4363  0.1837
  831MOL0     H 9629   8.979  10.232   3.175  1.4517 -3.5680  0.2673
  831MOL0     H 9630   9.015  10.288   3.343 -3.1094 -0.0825  2.8136
  831MOL0     H 9631   8.741  10.218   3.230 -2.3592  4.0037 -0.9053
  831MOL0     H 9632   8.804  10.377   3.248 -1.6614  1.0091 -0.1526
  831MOL0     H 9633   8.802  10.372   3.477 -0.6051  0.6132 -2.2042
  831MOL0     H 9634   8.773  10.198   3.494 -0.5801 -0.2188  1.1490
  831MOL0     H 9635   8.556  10.234   3.360  0.9082 -0.4395  1.7380
  831MOL0     H 9636   8.565  10.271   3.528 -0.4200 -1.9379 -0.6253
  831MOL0     H 9637   8.560  10.470   3.293  0.5568 -1.7534  0.2130
  831MOL0     H 9638   8.608  10.521   3.452  0.0059 -0.3613  0.0809
  831MOL0     H 9639   8.375  10.592   3.416 -0.5573 -0.0619 -0.9371
  831MOL0     H 9640   8.373  10.449   3.530 -1.0966  0.2190 -0.1228
  831MOL0     H 9641   8.304  10.311   3.346  1.9282  0.6692  1.7632
  831MOL0     H 9642   8.202  10.446   3.391 -0.4080 -2.4252  0.0970
  831MOL0     H 9643   8.257  10.380   3.143  3.4978 -1.9406 -0.8017
  831MOL0     H 9644   8.398  10.470   3.156 -0.1670  2.5683  0.5123
  831MOL0     H 9645   8.022  10.528   3.233  0.3159  0.3403  1.0549
  831MOL0     H 9646   7.921  10.877   3.109 -1.3485  0.4914 -0.1703
  831MOL0     H 9647   7.868  10.766   3.227 -0.0679  2.8906 -0.6394
  831MOL0     H 9648   7.820  10.608   3.070 -2.3550 -0.8062 -0.3381
  831MOL0     H 9649   7.891  10.715   2.934 -0.6102  0.3485 -1.2636
  831MOL0     H 9650   7.643  10.724   2.918 -0.4785  0.6449 -0.0470
  831MOL0     H 9651   7.634  10.749   3.093  1.3160 -0.8849  0.8720
  831MOL0     H 9652   7.787  10.939   2.915  3.6151 -1.2819  4.5744
  831MOL0     H 9653   7.720  10.968   3.068 -1.5985  1.0816 -0.6393
  831MOL0     H 9654   7.496  10.925   3.162 -1.7210  2.2129  0.8756
  831MOL0     H 9655   7.240  10.873   3.212 -1.5224 -1.6868 -0.1970
  831MOL0     H 9656   6.852  10.752   3.353  1.2304  2.1119  1.2010
  831MOL0     H 9657   6.634  10.772   3.412 -0.0206  0.2023 -0.2085
  831MOL0     H 9658   6.418  10.876   3.459  0.9058  1.4800 -1.7177
  831MOL0     H 9659   6.409  10.733   3.361  1.3208  0.3681  0.2641
  831MOL0     H 9660   6.195  10.796   3.464 -1.9860 -0.8812 -1.1896
  831MOL0     H 9661   6.177  10.843   3.289 -1.1698  1.4017  0.2194
  831MOL0     H 9662   6.245  11.074   3.357  1.8531 -1.2905 -0.9454
  831MOL0     H 9663   6.222  11.028   3.529 -0.2138 -1.1230  0.4115
  831MOL0     H 9664   6.007  11.004   3.304  2.3643  2.9661 -1.4931
  831MOL0     H 9665   6.003  10.949   3.475  1.8489  2.8333  2.4584
  831MOL0     H 9666   6.038  11.233   3.369 -0.1836  0.4359 -0.3022
  831MOL0     H 9667   6.044  11.198   3.534 -1.1038  2.0678 -0.0796
  831MOL0     H 9668   5.822  11.089   3.537 -0.8407  2.1632  1.9299
  831MOL0     H 9669   5.800  11.141   3.367 -1.8463 -0.2020  0.0053
  831MOL0     H 9670   5.872  11.331   3.604 -0.2535  0.8559 -0.9627
  831MOL0     H 9671   5.826  11.374   3.432 -2.3190  0.1530 -0.9333
  831MOL0     H 9672   5.598  11.288   3.462 -0.7268 -0.7459 -0.0217
  831MOL0     H 9673   5.652  11.424   3.570  0.9753  0.1618 -1.0295
  831MOL0     H 9674   6.570  11.024   3.072 -0.1320 -1.5721 -0.5675
  831MOL0     H 9675   6.815  10.992   3.005 -1.9697  0.2361 -0.5008
  831MOL0     H 9676   7.168  10.872   2.793  0.5032 -0.6566 -0.2550
  831MOL0     H 9677   7.394  10.940   2.749 -0.1967  1.5206  0.1404
  831MOL0     H 9678   8.973   9.884   3.444 -0.4573  1.5578  1.5336
  831MOL0     H 9679   9.161   9.728   3.453  0.6910 -0.1088 -1.0992
  831MOL0     H 9680   9.566   9.553   3.623  0.8370  0.6768  0.1065
  831MOL0     H 9681   9.794   9.468   3.634 -1.7732 -0.4449 -0.4037
  831MOL0     H 9682  10.137   9.409   3.526  2.0137  3.2781 -0.0858
  831MOL0     H 9683   9.971   9.366   3.591  3.4240 -2.0627  1.5942
  831MOL0     H 9684   9.991   9.596   3.717 -0.1724 -1.2665  1.7547
  831MOL0     H 9685  10.119   9.476   3.771  0.6747 -3.8215 -0.9802
  831MOL0     H 9686  10.164   9.712   3.587 -0.6310  4.3577  4.4553
  831MOL0     H 9687  10.267   9.569   3.615  0.4436  2.3886 -0.9100
  831MOL0     H 9688  10.175   9.786   3.810 -0.0466  0.5726 -0.8901
  831MOL0     H 9689  10.244   9.633   3.865  0.7952 -1.2542 -0.2892
  831MOL0     H 9690  10.591   9.843   3.749  1.9644 -2.9768  0.8206
  831MOL0     H 9691   9.881   9.666   3.260  2.0469  0.5816  1.1415
  831MOL0     H 9692   9.645   9.724   3.237  2.4735  1.1086 -0.2648
  832MOL0     O 9693   1.046   7.630  10.090  0.4896 -0.1543 -0.0324
  832MOL0     C 9694   1.017   7.591   9.982  0.4354  0.7850 -0.0760
  832MOL0     O 9695   0.908   7.529   9.950  0.5088  0.1864 -0.0757
  832MOL0     C 9696   0.806   7.523  10.045 -0.8953  1.0697 -0.2939
  832MOL0     C 9697   0.752   7.403  10.084 -0.6345 -0.3087  0.2818
  832MOL0     C 9698   0.651   7.393  10.183  0.6422  0.5272  0.3496
  832MOL0     C 9699   0.599   7.507  10.239  0.8043 -0.0399 -0.3831
  832MOL0     O 9700   0.502   7.493  10.326  0.5511 -0.2071 -0.7102
  832MOL0     C 9701   0.435   7.609  10.387  0.1933  0.4999  0.1456
  832MOL0     C 9702   0.307   7.560  10.463 -0.6465 -0.5908 -0.4380
  832MOL0     C 9703   0.202   7.668  10.492  0.0050  0.1639 -0.4010
  832MOL0     C 9704   0.073   7.618  10.558 -0.3662 -0.6415 -0.4985
  832MOL0     C 9705  -0.036   7.733  10.570  0.9694  0.2170 -0.2014
  832MOL0     C 9706  -0.053   7.777  10.716  0.2059 -0.4049 -0.2738
  832MOL0     C 9707  -0.131   7.907  10.726  0.6509 -0.0498  0.0468
  832MOL0     C 9708  -0.117   7.954  10.870 -0.2444 -0.3753  1.0863
  832MOL0     N 9709  -0.205   8.066  10.894  0.7174 -0.0571  0.8647
  832MOL0     C 9710  -0.174   8.201  10.884 -0.4724  0.2517 -0.3864
  832MOL0     C 9711  -0.295   8.260  10.893  0.5944  0.4894  0.3749
  832MOL0     C 9712  -0.327   8.405  10.890  0.0183 -0.3044  0.6402
  832MOL0     C 9713  -0.430   8.458  10.787 -0.6809 -0.4790  0.3650
  832MOL0     C 9714  -0.568   8.410  10.829 -0.5280  0.1945  0.3395
  832MOL0     C 9715  -0.681   8.507  10.778  0.4720 -0.1515  0.5324
  832MOL0     O 9716  -0.795   8.479  10.854  0.2628 -1.0226 -0.1214
  832MOL0     C 9717  -0.901   8.576  10.855 -0.0197  0.0816  0.6035
  832MOL0     C 9718  -0.892   8.694  10.785 -0.0861  0.8497 -0.0694
  832MOL0     C 9719  -0.991   8.791  10.801 -0.3814  1.1752  0.3803
  832MOL0     C 9720  -1.115   8.757  10.872  1.0192 -0.3518  0.3265
  832MOL0     C 9721  -1.235   8.841  10.867 -0.1541 -0.0072  0.1600
  832MOL0     O 9722  -1.341   8.822  10.955 -0.0608  0.2706  0.6979
  832MOL0     C 9723  -1.445   8.910  10.932  0.2956  0.1344  1.2219
  832MOL0     C 9724  -1.456   9.033  11.002 -0.7409  0.4837  0.5637
  832MOL0     C 9725  -1.547   9.125  10.955 -0.3643  0.5099 -0.5884
  832MOL0     C 9726  -1.624   9.102  10.844  1.1856 -1.1258  0.2316
  832MOL0     O 9727  -1.706   9.205  10.799  0.4744  0.2773 -0.4387
  832MOL0     C 9728  -1.845   9.169  10.789  1.5365 -0.1172 -0.6800
  832MOL0     C 9729  -1.926   9.193  10.920  0.1047  0.6782 -0.0989
  832MOL0     C 9730  -1.943   9.347  10.953  0.4780  0.3125 -0.3176
  832MOL0     C 9731  -2.007   9.381  11.091  0.4460  0.3386 -0.0206
  832MOL0     C 9732  -1.970   9.523  11.142  0.8051 -0.4660  0.0279
  832MOL0     C 9733  -2.009   9.548  11.290  1.0129  0.4154  0.1192
  832MOL0     C 9734  -1.928   9.664  11.343 -0.3995  0.3419  1.0807
  832MOL0     C 9735  -1.968   9.803  11.287 -0.1327  0.8349 -0.5293
  832MOL0    Cl 9736  -2.140   9.824  11.335 -0.0489 -0.1534  0.3817
  832MOL0     C 9737  -1.620   8.978  10.778  0.4063  0.2315 -0.3855
  832MOL0     C 9738  -1.527   8.882  10.813 -0.5094  0.6447  0.0944
  832MOL0     O 9739  -1.243   8.917  10.769 -0.0080  0.5849 -0.4803
  832MOL0     C 9740  -1.123   8.629  10.933  0.2390 -0.8944 -0.3805
  832MOL0     C 9741  -1.013   8.544  10.922  0.2250  0.1740  0.2429
  832MOL0     N 9742  -0.389   8.171  10.928  0.1145 -0.6518  0.5789
  832MOL0     N 9743  -0.329   8.056  10.941  0.5290 -0.1601 -0.2091
  832MOL0     C 9744   0.643   7.635  10.190  0.0593  0.1953 -0.9080
  832MOL0     C 9745   0.754   7.643  10.095  0.0409  0.1565 -0.0733
  832MOL0     C 9746   1.107   7.615   9.873  0.2541  0.1586 -0.7470
  832MOL0     C 9747   1.078   7.590   9.740 -0.7280 -0.9173  0.3993
  832MOL0     C 9748   1.177   7.605   9.637  0.3679 -0.3791  0.0532
  832MOL0     C 9749   1.309   7.641   9.675 -0.5677 -1.3469  0.0491
  832MOL0     O 9750   1.421   7.641   9.590 -0.0547 -0.3974 -0.8196
  832MOL0     C 9751   1.387   7.610   9.450  0.2238  0.1751  1.0510
  832MOL0     C 9752   1.499   7.603   9.347 -0.7391 -0.3180 -0.9701
  832MOL0     C 9753   1.476   7.603   9.191 -0.2480  0.8985 -0.5762
  832MOL0     C 9754   1.362   7.689   9.143 -0.2063 -0.5494  0.3540
  832MOL0     C 9755   1.366   7.823   9.203  0.1940  0.2047 -0.5930
  832MOL0     C 9756   1.358   7.931   9.259  0.7951  0.0959 -0.0144
  832MOL0     C 9757   1.340   7.665   9.811 -0.1232  0.9685  0.3710
  832MOL0     C 9758   1.238   7.653   9.906 -0.1940  0.9965 -0.2537
  832MOL0     H 9759   0.799   7.314  10.044  0.6172  0.8719 -0.9570
  832MOL0     H 9760   0.614   7.297  10.218  1.1557 -0.7697 -2.4551
  832MOL0     H 9761   0.407   7.675  10.304  0.0859  0.6975  0.3385
  832MOL0     H 9762   0.503   7.657  10.458  0.9524 -2.6829  1.7515
  832MOL0     H 9763   0.336   7.508  10.555 -1.3131  0.5842  0.4607
  832MOL0     H 9764   0.249   7.487  10.406 -1.0593 -0.0294 -0.7511
  832MOL0     H 9765   0.166   7.719  10.403  2.2752  0.1011 -1.4449
  832MOL0     H 9766   0.246   7.746  10.555  2.9606 -0.6375 -1.3011
  832MOL0     H 9767   0.049   7.548  10.478  1.3827 -0.8433 -0.8866
  832MOL0     H 9768   0.094   7.574  10.656  0.6418  1.1713  0.1575
  832MOL0     H 9769  -0.136   7.704  10.536  1.4386 -1.5702 -0.1600
  832MOL0     H 9770   0.001   7.813  10.505 -1.9515  0.5432 -1.6075
  832MOL0     H 9771   0.044   7.795  10.762 -0.2084 -0.2351  0.5558
  832MOL0     H 9772  -0.110   7.703  10.772 -1.1019  0.6299 -0.1807
  832MOL0     H 9773  -0.078   7.979  10.662  2.2414 -1.9583 -0.9016
  832MOL0     H 9774  -0.237   7.891  10.705  1.2027 -0.8062 -2.5834
  832MOL0     H 9775  -0.014   7.980  10.895  0.3732  0.2553 -1.7613
  832MOL0     H 9776  -0.158   7.879  10.938 -1.5606  0.1934  0.9415
  832MOL0     H 9777  -0.078   8.246  10.861 -0.2915  0.8277  1.3393
  832MOL0     H 9778  -0.231   8.456  10.892  0.6970 -1.5348  0.7424
  832MOL0     H 9779  -0.373   8.422  10.988 -1.9094 -0.6203 -0.1437
  832MOL0     H 9780  -0.404   8.412  10.691  0.4843 -2.2660  1.4698
  832MOL0     H 9781  -0.424   8.567  10.772  3.9810 -0.5407  0.1918
  832MOL0     H 9782  -0.582   8.310  10.788 -1.2108  0.8351 -1.0798
  832MOL0     H 9783  -0.573   8.394  10.937 -0.2990 -0.6090  0.2390
  832MOL0     H 9784  -0.697   8.493  10.671 -0.5456  0.3499  0.6107
  832MOL0     H 9785  -0.651   8.611  10.793 -0.1143  0.1831 -0.4929
  832MOL0     H 9786  -0.813   8.701  10.712 -0.5749 -1.1581 -0.8716
  832MOL0     H 9787  -0.981   8.885  10.748  3.0431  0.0412 -1.2750
  832MOL0     H 9788  -1.382   9.044  11.081 -0.9653  0.3116  0.8019
  832MOL0     H 9789  -1.567   9.219  11.004 -1.8670 -0.9502  1.7772
  832MOL0     H 9790  -1.857   9.074  10.736  2.3608 -0.7260  0.1937
  832MOL0     H 9791  -1.872   9.243  10.714  1.0887 -1.7639 -2.2155
  832MOL0     H 9792  -1.881   9.144  11.006  0.2062 -1.4876 -1.3101
  832MOL0     H 9793  -2.020   9.138  10.909  2.1856 -4.0798  2.5434
  832MOL0     H 9794  -2.004   9.396  10.876  1.5439 -0.0683 -1.4431
  832MOL0     H 9795  -1.844   9.393  10.951  0.4579  0.5761  2.3171
  832MOL0     H 9796  -2.116   9.380  11.084  0.4982 -2.0587 -2.0472
  832MOL0     H 9797  -1.972   9.309  11.165  2.5296 -0.2152 -1.4464
  832MOL0     H 9798  -2.013   9.607  11.087  0.4608 -0.3538  0.4727
  832MOL0     H 9799  -1.861   9.535  11.137  0.7215  0.2366 -0.1878
  832MOL0     H 9800  -1.978   9.459  11.347  1.8283  1.3184  1.1260
  832MOL0     H 9801  -2.117   9.560  11.301  0.4685 -1.1921 -2.5905
  832MOL0     H 9802  -1.943   9.666  11.451 -0.1996  2.0435  1.1038
  832MOL0     H 9803  -1.822   9.654  11.320 -0.6294 -2.2810  0.8847
  832MOL0     H 9804  -1.963   9.793  11.178  0.6177  0.1393 -0.4362
  832MOL0     H 9805  -1.898   9.878  11.323  1.9540 -1.8600  1.4494
  832MOL0     H 9806  -1.684   8.955  10.694 -2.8694 -1.4366  2.3346
  832MOL0     H 9807  -1.514   8.787  10.763  0.0316  1.3971 -1.2354
  832MOL0     H 9808  -1.217   8.606  10.981  0.0324 -1.2215 -0.9326
  832MOL0     H 9809  -1.008   8.447  10.970 -0.3018  0.6504  1.2984
  832MOL0     H 9810   0.604   7.730  10.225  2.1536  0.5103  0.7789
  832MOL0     H 9811   0.788   7.743  10.069 -2.4066  0.9921 -0.3078
  832MOL0     H 9812   0.984   7.554   9.700 -1.2657  2.6303 -1.9576
  832MOL0     H 9813   1.150   7.590   9.533  1.4029  0.7114 -0.4046
  832MOL0     H 9814   1.312   7.674   9.403  1.6525 -1.5465 -4.2731
  832MOL0     H 9815   1.346   7.509   9.441  2.9377 -0.7923 -2.6971
  832MOL0     H 9816   1.559   7.690   9.374 -0.6571 -0.7164  0.1765
  832MOL0     H 9817   1.558   7.515   9.374  0.5792  1.0752  0.9343
  832MOL0     H 9818   1.457   7.498   9.165 -0.8794 -0.1680  3.5324
  832MOL0     H 9819   1.564   7.644   9.140  1.2053  1.3332  2.1089
  832MOL0     H 9820   1.360   7.704   9.035 -1.1249 -2.9172 -0.0220
  832MOL0     H 9821   1.268   7.637   9.165 -0.5261  0.6984  2.2207
  832MOL0     H 9822   1.355   8.028   9.304  0.0442  0.4276 -0.7512
  832MOL0     H 9823   1.444   7.675   9.843  0.4653 -0.6956 -0.9000
  832MOL0     H 9824   1.260   7.673  10.011 -3.7187  0.3834  0.7309
  833MOL0     O 9825  11.074   2.022  10.701  0.9930 -0.6016  0.4606
  833MOL0     C 9826  11.133   2.129  10.714 -0.1024 -0.5523  0.7936
  833MOL0     O 9827  11.071   2.247  10.761 -0.4076 -0.9368  0.4292
  833MOL0     C 9828  10.947   2.236  10.823 -0.6118  0.7233  0.0218
  833MOL0     C 9829  10.835   2.172  10.772 -0.8982  0.1655  0.0471
  833MOL0     C 9830  10.709   2.185  10.837 -0.2968  0.0835 -0.5536
  833MOL0     C 9831  10.685   2.265  10.947 -0.0999  0.1249 -0.0951
  833MOL0     O 9832  10.552   2.280  10.988 -0.0809  0.1127  0.3657
  833MOL0     C 9833  10.522   2.327  11.118 -0.2725 -0.4349 -0.1510
  833MOL0     C 9834  10.378   2.384  11.115  0.5380 -0.4171  0.5174
  833MOL0     C 9835  10.351   2.475  11.232  0.3269  0.4052 -0.2046
  833MOL0     C 9836  10.333   2.404  11.364 -0.1353 -0.7367  0.7494
  833MOL0     C 9837  10.326   2.493  11.489 -0.2398 -0.3628  0.1071
  833MOL0     C 9838  10.439   2.586  11.506 -1.1411  0.1799 -0.2845
  833MOL0     C 9839  10.430   2.654  11.650 -0.5777  0.6745  0.4966
  833MOL0     C 9840  10.301   2.719  11.682  0.3601 -0.4665 -0.2129
  833MOL0     N 9841  10.271   2.749  11.824 -0.3038  0.0644 -0.3488
  833MOL0     C 9842  10.241   2.659  11.925 -0.0537 -0.1799 -0.1183
  833MOL0     C 9843  10.215   2.743  12.032  0.9766  0.7729  0.1432
  833MOL0     C 9844  10.180   2.693  12.172 -0.1559 -0.1694 -0.5826
  833MOL0     C 9845  10.164   2.806  12.278 -0.7733 -0.3643  0.0757
  833MOL0     C 9846  10.031   2.880  12.264  1.1738  0.1803 -0.2549
  833MOL0     C 9847  10.029   3.009  12.343  0.1596 -0.8559 -0.9167
  833MOL0     O 9848   9.917   3.091  12.299 -0.6253  0.0381  0.8624
  833MOL0     C 9849   9.819   3.137  12.383 -0.1524 -0.1632 -0.0818
  833MOL0     C 9850   9.710   3.203  12.314  0.3481 -0.0868 -0.4085
  833MOL0     C 9851   9.601   3.262  12.390 -0.1196 -0.1459 -0.3354
  833MOL0     C 9852   9.606   3.272  12.533 -0.1592  0.4984 -0.2559
  833MOL0     C 9853   9.496   3.345  12.601  0.4633 -0.6980  0.1552
  833MOL0     O 9854   9.501   3.336  12.737 -0.6541  0.4744  0.6000
  833MOL0     C 9855   9.407   3.389  12.811  0.6699  0.0314 -0.0481
  833MOL0     C 9856   9.275   3.344  12.815 -0.0411  0.1013  0.7748
  833MOL0     C 9857   9.184   3.394  12.912 -0.9365 -0.6994  0.6184
  833MOL0     C 9858   9.221   3.492  13.008 -0.0213 -1.0481  0.0259
  833MOL0     O 9859   9.143   3.552  13.105  0.5439 -0.3147 -1.2570
  833MOL0     C 9860   9.004   3.521  13.104  1.0971 -0.5804  0.0943
  833MOL0     C 9861   8.917   3.599  13.198 -0.8168  0.7818  0.2819
  833MOL0     C 9862   8.767   3.568  13.179 -0.0355  0.2647 -0.2195
  833MOL0     C 9863   8.681   3.675  13.223  0.0829 -0.2375  0.2726
  833MOL0     C 9864   8.701   3.734  13.361 -0.8195 -0.2753 -0.0420
  833MOL0     C 9865   8.630   3.656  13.464  0.2903  0.3375 -0.5788
  833MOL0     C 9866   8.635   3.727  13.599 -0.3719  0.0119 -0.7863
  833MOL0     C 9867   8.653   3.647  13.729  0.0065 -0.3375  0.5010
  833MOL0    Cl 9868   8.809   3.567  13.751 -0.2507  0.2153 -0.1903
  833MOL0     C 9869   9.352   3.527  13.011 -0.2755 -0.3098 -0.3875
  833MOL0     C 9870   9.442   3.471  12.919 -0.5764 -0.3781 -0.4423
  833MOL0     O 9871   9.409   3.417  12.544 -0.2676  0.9519 -0.2202
  833MOL0     C 9872   9.719   3.212  12.599 -0.3566  1.1390 -0.6899
  833MOL0     C 9873   9.813   3.139  12.525 -0.7217 -0.7608  0.1707
  833MOL0     N 9874  10.235   2.874  12.007  0.3844  0.1359  0.0412
  833MOL0     N 9875  10.280   2.870  11.881 -0.9006 -1.1402  0.1292
  833MOL0     C 9876  10.802   2.329  10.997  1.0145  0.0657  0.1371
  833MOL0     C 9877  10.927   2.303  10.936 -0.0374  0.3487 -0.0089
  833MOL0     C 9878  11.274   2.129  10.683  0.6292  0.8579 -0.0869
  833MOL0     C 9879  11.353   2.014  10.682 -0.6663  0.3598  0.1096
  833MOL0     C 9880  11.489   2.020  10.658  0.2808 -0.4371  0.1313
  833MOL0     C 9881  11.549   2.143  10.619 -0.1126  0.7061  0.4604
  833MOL0     O 9882  11.682   2.160  10.577 -0.3841  0.2499 -0.3050
  833MOL0     C 9883  11.756   2.033  10.572  0.0603 -1.1935  1.2031
  833MOL0     C 9884  11.890   2.056  10.511 -0.7058  0.1844  0.0601
  833MOL0     C 9885  11.978   1.925  10.512  0.3252  0.0650 -0.6627
  833MOL0     C 9886  12.044   1.891  10.650  0.2727  0.0152  0.2849
  833MOL0     C 9887  12.125   2.004  10.701 -0.7583  1.1460  0.9210
  833MOL0     C 9888  12.194   2.091  10.756  0.3436  0.4295  0.3611
  833MOL0     C 9889  11.476   2.262  10.625 -0.0324 -0.4342  0.4116
  833MOL0     C 9890  11.339   2.253  10.651  0.1729  0.2701  0.2951
  833MOL0     H 9891  10.845   2.120  10.677 -2.5362 -0.2454  0.0557
  833MOL0     H 9892  10.621   2.131  10.805 -0.3369  0.2906 -0.8032
  833MOL0     H 9893  10.601   2.393  11.155  1.4668 -3.1883  1.4033
  833MOL0     H 9894  10.519   2.243  11.187  0.1916  0.3445  0.8405
  833MOL0     H 9895  10.308   2.300  11.111 -0.4310  0.4239 -1.9866
  833MOL0     H 9896  10.369   2.438  11.021 -0.8511 -2.1408 -0.3975
  833MOL0     H 9897  10.261   2.529  11.202 -0.2636  0.1495  1.0602
  833MOL0     H 9898  10.428   2.553  11.236 -0.6738  1.5534 -1.9684
  833MOL0     H 9899  10.245   2.339  11.353  0.9959 -1.8500 -3.2406
  833MOL0     H 9900  10.421   2.342  11.378  0.6355 -0.0029 -0.6652
  833MOL0     H 9901  10.334   2.422  11.571  0.6403  0.6776  0.9467
  833MOL0     H 9902  10.230   2.544  11.478 -1.1256 -2.0153 -0.2478
  833MOL0     H 9903  10.435   2.665  11.431 -1.7994  0.7127  0.2972
  833MOL0     H 9904  10.534   2.531  11.499 -1.2801 -0.0076 -0.6968
  833MOL0     H 9905  10.447   2.573  11.722  4.7635 -0.5653 -1.7202
  833MOL0     H 9906  10.514   2.722  11.664 -1.3914  1.6972  0.5469
  833MOL0     H 9907  10.211   2.680  11.634  1.1557  1.5730 -3.7357
  833MOL0     H 9908  10.321   2.813  11.630 -2.2434 -0.1886 -0.8659
  833MOL0     H 9909  10.237   2.551  11.925  0.7000 -0.2564  1.8354
  833MOL0     H 9910  10.266   2.631  12.197  2.4001  2.3807 -2.4340
  833MOL0     H 9911  10.092   2.627  12.175  1.9078 -3.1023  0.7149
  833MOL0     H 9912  10.255   2.868  12.276 -2.5131  2.4021 -2.8514
  833MOL0     H 9913  10.162   2.757  12.376  2.7444 -0.4348  0.2405
  833MOL0     H 9914  10.000   2.897  12.160  2.1945  1.5157 -0.3756
  833MOL0     H 9915   9.954   2.819  12.312  2.5251 -0.6169  0.9698
  833MOL0     H 9916  10.123   3.062  12.323 -0.1968  0.5723  0.9198
  833MOL0     H 9917  10.013   2.989  12.449  2.4400 -0.1686 -0.3831
  833MOL0     H 9918   9.711   3.215  12.206 -0.7393 -1.3993 -0.5947
  833MOL0     H 9919   9.517   3.302  12.335 -0.0007 -0.8309 -1.0337
  833MOL0     H 9920   9.236   3.276  12.739  1.1923  2.5160 -2.2476
  833MOL0     H 9921   9.078   3.371  12.899 -1.3624  2.0182 -1.6378
  833MOL0     H 9922   8.990   3.414  13.122  2.1575 -1.0015 -1.4473
  833MOL0     H 9923   8.969   3.539  13.002  3.6897 -1.6364 -1.0660
  833MOL0     H 9924   8.928   3.706  13.179 -2.5926  1.1070  0.9179
  833MOL0     H 9925   8.948   3.577  13.301 -0.0070  0.2003 -0.0673
  833MOL0     H 9926   8.761   3.484  13.249 -0.4560  0.0039 -0.5636
  833MOL0     H 9927   8.738   3.525  13.083  0.7211 -2.5847  0.7127
  833MOL0     H 9928   8.705   3.756  13.154  2.3601 -0.6678  0.5050
  833MOL0     H 9929   8.574   3.651  13.216 -0.4911  1.3069  2.7045
  833MOL0     H 9930   8.674   3.840  13.361 -0.2270 -0.0990 -1.5454
  833MOL0     H 9931   8.807   3.739  13.386  0.3460  0.0672 -4.2600
  833MOL0     H 9932   8.675   3.559  13.483  2.4804  1.6359  1.4932
  833MOL0     H 9933   8.527   3.646  13.426 -0.7859  0.6547  2.0737
  833MOL0     H 9934   8.713   3.804  13.596  0.1854 -0.5618 -2.7995
  833MOL0     H 9935   8.534   3.767  13.609  0.5683  1.9933  2.0013
  833MOL0     H 9936   8.574   3.571  13.734  0.0662 -0.3923  0.5956
  833MOL0     H 9937   8.642   3.721  13.809 -3.0290 -0.1333  0.0165
  833MOL0     H 9938   9.388   3.582  13.098 -2.9181 -2.2886  2.1253
  833MOL0     H 9939   9.543   3.504  12.939 -0.2586 -0.8168 -1.2735
  833MOL0     H 9940   9.743   3.228  12.704 -0.4620 -2.7408  0.0620
  833MOL0     H 9941   9.890   3.093  12.586 -0.4397 -0.2384  0.2175
  833MOL0     H 9942  10.787   2.386  11.089  0.6068 -3.5394  2.5379
  833MOL0     H 9943  11.013   2.355  10.975 -0.3351  1.2914 -0.5673
  833MOL0     H 9944  11.318   1.911  10.684  1.1393 -0.4437 -3.0776
  833MOL0     H 9945  11.552   1.932  10.666  4.2022  2.2836  4.2229
  833MOL0     H 9946  11.713   1.958  10.504  1.0744  2.2773 -3.8726
  833MOL0     H 9947  11.777   2.000  10.674  1.5745 -3.3848  0.2637
  833MOL0     H 9948  11.880   2.086  10.406 -0.5468 -1.4831 -0.4528
  833MOL0     H 9949  11.942   2.139  10.560 -2.1943  0.2775  1.6124
  833MOL0     H 9950  12.046   1.932  10.427  0.7819  0.7207 -0.2552
  833MOL0     H 9951  11.910   1.841  10.494  0.1413  0.2817 -0.9877
  833MOL0     H 9952  11.957   1.879  10.715  1.4187  2.8047  2.5821
  833MOL0     H 9953  12.108   1.802  10.644 -0.6024 -0.7917  2.1547
  833MOL0     H 9954  12.275   2.151  10.790 -0.8541  1.3644  1.6342
  833MOL0     H 9955  11.516   2.362  10.612  1.4481 -1.1320 -0.7084
  833MOL0     H 9956  11.281   2.345  10.650  0.6129  0.5786 -2.0856
  834MOL0     O 9957   5.788   8.718   4.825  0.4708  0.4107  0.4970
  834MOL0     C 9958   5.755   8.752   4.710 -0.7896  0.7717  0.1795
  834MOL0     O 9959   5.645   8.713   4.638 -0.4297 -0.2807  0.2483
  834MOL0     C 9960   5.539   8.650   4.704  0.4706 -1.2716  0.9780
  834MOL0     C 9961   5.542   8.542   4.791 -0.7798 -0.5331 -0.1572
  834MOL0     C 9962   5.424   8.481   4.843 -0.3239 -0.6971  0.6210
  834MOL0     C 9963   5.297   8.529   4.803  0.1556 -0.6217  0.3494
  834MOL0     O 9964   5.196   8.461   4.857  0.4529  0.9103  0.1196
  834MOL0     C 9965   5.062   8.508   4.838  0.2459 -0.1842  0.5914
  834MOL0     C 9966   4.966   8.404   4.890 -0.3568  0.0132  0.1701
  834MOL0     C 9967   4.979   8.367   5.040 -0.0269  0.4802  0.5533
  834MOL0     C 9968   4.899   8.241   5.070 -0.1222  0.1816  0.0163
  834MOL0     C 9969   4.743   8.255   5.090  0.1413  0.5302 -0.1970
  834MOL0     C 9970   4.677   8.175   5.202 -0.1131 -0.3670 -0.0741
  834MOL0     C 9971   4.538   8.226   5.222  0.2215 -0.7463  0.2535
  834MOL0     C 9972   4.476   8.164   5.349  0.2567 -0.2849 -0.3868
  834MOL0     N 9973   4.333   8.203   5.344  0.3876 -0.7302 -0.3048
  834MOL0     C 9974   4.281   8.314   5.411 -0.9730  0.3852 -1.1277
  834MOL0     C 9975   4.148   8.285   5.428  0.7973 -0.5782 -0.4360
  834MOL0     C 9976   4.039   8.365   5.489  0.1989 -0.6773  0.0511
  834MOL0     C 9977   4.073   8.414   5.631 -0.3822 -0.8547  1.0404
  834MOL0     C 9978   3.958   8.500   5.673 -0.5912 -0.6588  0.0726
  834MOL0     C 9979   3.814   8.436   5.665 -0.1045 -0.2518 -0.3049
  834MOL0     O 9980   3.732   8.493   5.764  0.5552 -0.5988  0.6247
  834MOL0     C 9981   3.685   8.620   5.748  0.0630  0.7482  0.4161
  834MOL0     C 9982   3.688   8.709   5.638 -0.1575  0.4534 -0.7638
  834MOL0     C 9983   3.614   8.826   5.645  0.2998  0.2104  0.7075
  834MOL0     C 9984   3.545   8.864   5.761 -0.5276 -0.2366 -0.2069
  834MOL0     C 9985   3.471   8.989   5.783 -0.8566 -0.5108 -0.0848
  834MOL0     O 9986   3.463   9.068   5.675 -0.5887 -0.0294  0.1992
  834MOL0     C 9987   3.393   9.179   5.690  0.3072 -0.1013 -0.2768
  834MOL0     C 9988   3.430   9.274   5.781  0.2990 -0.8141 -0.5778
  834MOL0     C 9989   3.340   9.383   5.807 -0.8701 -0.5350 -0.5275
  834MOL0     C 9990   3.227   9.404   5.735  0.3784 -0.5011  0.2955
  834MOL0     O 9991   3.157   9.515   5.765 -0.0300  0.3257 -0.2094
  834MOL0     C 9992   3.016   9.501   5.793 -1.0191 -0.3822 -0.3919
  834MOL0     C 9993   2.973   9.625   5.886  0.0036 -0.0318 -0.6003
  834MOL0     C 9994   2.853   9.587   5.972  0.2350  0.6919  0.8856
  834MOL0     C 9995   2.721   9.600   5.881  0.3211 -0.3502 -0.0541
  834MOL0     C 9996   2.597   9.626   5.965  0.1483 -0.7275 -0.3917
  834MOL0     C 9997   2.471   9.570   5.907  0.5159  0.5877 -0.5241
  834MOL0     C 9998   2.353   9.635   5.984  0.1477 -0.5057  0.2776
  834MOL0     C 9999   2.218   9.589   5.930  0.5262  0.8844 -0.2914
  834MOL0    Cl10000   2.172   9.431   6.013  0.1568 -0.5392  0.1529
  834MOL0     C10001   3.192   9.310   5.638 -0.1456 -0.3149 -0.3131
  834MOL0     C10002   3.275   9.194   5.619  0.0649 -0.1830 -0.6274
  834MOL0     O10003   3.414   9.005   5.891  0.1534  0.1303 -0.5492
  834MOL0     C10004   3.549   8.774   5.872 -0.0413 -0.1467  0.1966
  834MOL0     C10005   3.606   8.653   5.854 -0.6882  1.1503 -0.1288
  834MOL0     N10006   4.117   8.173   5.360 -0.6895  0.9565  1.0689
  834MOL0     N10007   4.229   8.126   5.312  0.5005 -0.1239 -0.4005
  834MOL0     C10008   5.295   8.629   4.698  0.4939 -0.2125 -0.0611
  834MOL0     C10009   5.412   8.693   4.654 -0.3835  0.6667  0.4698
  834MOL0     C10010   5.833   8.854   4.634 -0.2670  0.9778 -0.3695
  834MOL0     C10011   5.932   8.921   4.702  0.1365  0.7655 -0.0273
  834MOL0     C10012   6.010   9.009   4.631  0.8262 -0.3385 -1.1361
  834MOL0     C10013   5.987   9.040   4.498  0.8400 -0.3223 -0.1405
  834MOL0     O10014   6.047   9.132   4.424 -0.1342 -0.2966 -0.0039
  834MOL0     C10015   6.183   9.169   4.462 -0.0652  0.3713  0.1141
  834MOL0     C10016   6.263   9.197   4.332 -0.8672  0.0431  0.3111
  834MOL0     C10017   6.410   9.219   4.369 -0.4606 -0.4054 -0.4460
  834MOL0     C10018   6.494   9.180   4.249 -0.0943 -0.3527  0.1559
  834MOL0     C10019   6.635   9.183   4.279  0.9884 -0.6620  0.4541
  834MOL0     C10020   6.747   9.188   4.318  0.0565 -0.5037  0.0876
  834MOL0     C10021   5.874   8.980   4.431  0.6065 -0.5458 -0.4391
  834MOL0     C10022   5.802   8.878   4.495  0.5215 -0.4926  0.4197
  834MOL0     H10023   5.638   8.502   4.823 -0.7068 -0.9018 -0.8286
  834MOL0     H10024   5.428   8.414   4.928 -2.8458 -1.1362  0.4880
  834MOL0     H10025   5.042   8.510   4.730 -3.1380  1.2143  1.1156
  834MOL0     H10026   5.043   8.602   4.891  1.5186  0.8528 -0.6955
  834MOL0     H10027   4.973   8.308   4.837 -2.5637 -0.0936 -0.0172
  834MOL0     H10028   4.862   8.421   4.864 -0.2577 -3.4423 -3.6051
  834MOL0     H10029   4.940   8.455   5.092  0.7884  1.3121 -0.2097
  834MOL0     H10030   5.084   8.362   5.070 -0.4762 -0.8277  2.0660
  834MOL0     H10031   4.930   8.163   5.001  0.5709  1.4501 -1.1449
  834MOL0     H10032   4.933   8.195   5.164  0.2653 -0.4593 -0.4276
  834MOL0     H10033   4.699   8.243   4.990 -0.0488 -3.0896  0.2012
  834MOL0     H10034   4.725   8.361   5.109 -1.8301  0.0165  0.9724
  834MOL0     H10035   4.723   8.192   5.299 -0.6713  5.0318 -0.4403
  834MOL0     H10036   4.668   8.069   5.175 -0.6091 -0.1541 -0.7913
  834MOL0     H10037   4.528   8.335   5.226 -2.0481 -0.9296  0.4784
  834MOL0     H10038   4.476   8.195   5.138  0.4168 -1.5200  0.3904
  834MOL0     H10039   4.517   8.199   5.443  0.4506 -1.1883 -0.1206
  834MOL0     H10040   4.488   8.055   5.340 -0.4909 -0.4208  0.1524
  834MOL0     H10041   4.337   8.393   5.459 -0.2814 -0.7194 -0.0402
  834MOL0     H10042   3.956   8.294   5.488 -1.0525  0.7213 -1.0144
  834MOL0     H10043   4.021   8.451   5.424  0.6023  0.3348  1.2340
  834MOL0     H10044   4.157   8.481   5.611 -2.1734  0.7785 -1.9697
  834MOL0     H10045   4.100   8.336   5.702  1.0117 -2.1111 -0.7672
  834MOL0     H10046   3.975   8.526   5.778 -1.0079 -1.4398  0.3435
  834MOL0     H10047   3.951   8.591   5.612 -1.7790 -1.0046 -0.3334
  834MOL0     H10048   3.831   8.330   5.691  0.4521 -0.6925 -2.2985
  834MOL0     H10049   3.764   8.459   5.571 -0.3210  3.7260  0.6274
  834MOL0     H10050   3.730   8.681   5.541 -0.9925 -1.2318 -0.6870
  834MOL0     H10051   3.622   8.900   5.566  4.9722 -0.7900 -0.0871
  834MOL0     H10052   3.515   9.271   5.849  0.2033  3.7862  0.0448
  834MOL0     H10053   3.369   9.455   5.883 -0.2266 -3.5221  2.2876
  834MOL0     H10054   2.994   9.410   5.849  1.8514 -1.4855 -0.8704
  834MOL0     H10055   2.965   9.503   5.696 -0.4445  0.4603 -0.6944
  834MOL0     H10056   2.964   9.717   5.828 -0.0807  0.1514 -0.2974
  834MOL0     H10057   3.059   9.647   5.951 -0.8766 -1.5061  1.1471
  834MOL0     H10058   2.857   9.650   6.061  0.0268 -1.2656  2.3444
  834MOL0     H10059   2.845   9.485   6.009 -1.7787  1.1315  1.8222
  834MOL0     H10060   2.720   9.689   5.818 -2.8021  1.0161  1.6982
  834MOL0     H10061   2.709   9.508   5.824  2.6670 -0.2283 -0.8586
  834MOL0     H10062   2.583   9.733   5.981 -1.9984 -1.0786  0.3044
  834MOL0     H10063   2.600   9.587   6.067 -3.1852  2.7870  1.2969
  834MOL0     H10064   2.477   9.462   5.925 -2.0188 -0.1300 -3.3463
  834MOL0     H10065   2.467   9.589   5.800 -1.5513  1.7466 -0.2996
  834MOL0     H10066   2.355   9.617   6.092  3.3538 -2.3851  0.0249
  834MOL0     H10067   2.363   9.742   5.963  0.5835 -0.3362  1.2530
  834MOL0     H10068   2.224   9.572   5.822  0.9535  0.4346 -0.2033
  834MOL0     H10069   2.139   9.658   5.961 -1.2145 -0.2317 -2.0424
  834MOL0     H10070   3.096   9.321   5.588  0.0370 -1.8303 -1.0524
  834MOL0     H10071   3.252   9.121   5.541 -0.5855 -3.5770  2.4732
  834MOL0     H10072   3.495   8.785   5.966 -0.3563  2.0048 -0.1951
  834MOL0     H10073   3.585   8.575   5.927 -0.3516  0.0198 -1.1962
  834MOL0     H10074   5.194   8.655   4.668  0.1347 -0.4498  0.9060
  834MOL0     H10075   5.423   8.763   4.572  1.7427 -1.7085 -1.4374
  834MOL0     H10076   5.953   8.900   4.806  3.2453 -1.3264 -0.9235
  834MOL0     H10077   6.082   9.060   4.694 -2.2965  2.3811  0.5359
  834MOL0     H10078   6.223   9.088   4.524 -3.8601  0.8740  3.6481
  834MOL0     H10079   6.189   9.255   4.529  0.8960  1.8886 -1.7993
  834MOL0     H10080   6.257   9.119   4.255  2.7141 -3.6267  3.2736
  834MOL0     H10081   6.224   9.291   4.293  0.0417  1.4306  2.5618
  834MOL0     H10082   6.450   9.154   4.447 -0.3947  1.9487  1.5781
  834MOL0     H10083   6.421   9.324   4.397 -0.3225 -0.4446 -0.3534
  834MOL0     H10084   6.457   9.079   4.230 -0.5318 -0.4410  1.4004
  834MOL0     H10085   6.480   9.250   4.166  2.2162  1.4327  1.1415
  834MOL0     H10086   6.849   9.182   4.350  1.4178  1.2563 -3.3607
  834MOL0     H10087   5.847   8.995   4.327 -1.5287  1.4598  0.3363
  834MOL0     H10088   5.715   8.842   4.441 -0.7618  1.4634  1.0852
  835MOL0     O10089   3.791   5.273   6.766 -0.1975 -0.0032 -0.1749
  835MOL0     C10090   3.862   5.228   6.857  1.0792  0.0598  0.3037
  835MOL0     O10091   3.825   5.126   6.942 -0.0348 -0.7120  0.0707
  835MOL0     C10092   3.695   5.083   6.947 -0.3039 -0.0254  0.0621
  835MOL0     C10093   3.693   4.970   7.027 -0.2651  0.3629 -0.7016
  835MOL0     C10094   3.570   4.904   7.062 -1.2168 -0.6650  0.2427
  835MOL0     C10095   3.450   4.957   7.008 -0.7703  0.0096 -1.0413
  835MOL0     O10096   3.325   4.895   7.022 -0.3470 -0.2601  0.2318
  835MOL0     C10097   3.308   4.783   7.106 -0.1755 -0.2566  0.3965
  835MOL0     C10098   3.182   4.787   7.184 -0.7494  0.4194  0.5469
  835MOL0     C10099   3.058   4.770   7.094  1.0242 -0.0936  0.0348
  835MOL0     C10100   2.942   4.729   7.194 -0.1273 -0.4056 -0.8944
  835MOL0     C10101   2.812   4.762   7.147 -0.7466 -0.8422  0.0450
  835MOL0     C10102   2.697   4.738   7.250 -0.1052 -0.1471 -0.1718
  835MOL0     C10103   2.571   4.798   7.185 -0.2913 -0.0560  0.2050
  835MOL0     C10104   2.433   4.733   7.251  0.2508 -0.5892 -0.8465
  835MOL0     N10105   2.395   4.818   7.365  0.0662 -0.1100 -0.0624
  835MOL0     C10106   2.305   4.921   7.350 -0.1447 -0.1710 -0.2056
  835MOL0     C10107   2.286   4.976   7.475 -0.1581 -0.4506  0.2079
  835MOL0     C10108   2.194   5.084   7.504 -0.6245 -0.2293  0.3797
  835MOL0     C10109   2.061   5.034   7.572  0.2263 -0.7448 -0.6036
  835MOL0     C10110   1.995   5.150   7.652 -0.6783 -0.0910  0.2304
  835MOL0     C10111   1.982   5.286   7.589  0.2794 -0.8536 -0.7442
  835MOL0     O10112   1.934   5.280   7.455  0.1771 -0.0205 -0.5866
  835MOL0     C10113   1.794   5.267   7.440 -0.4652 -0.1221 -0.2564
  835MOL0     C10114   1.733   5.217   7.321 -0.0117 -0.7489 -0.2514
  835MOL0     C10115   1.599   5.214   7.302 -0.0995  0.0634  0.2594
  835MOL0     C10116   1.515   5.266   7.397 -0.4831 -1.2754 -0.8416
  835MOL0     C10117   1.371   5.269   7.381  0.0288  0.1482  0.5943
  835MOL0     O10118   1.322   5.184   7.291  0.1850  0.7667  0.6572
  835MOL0     C10119   1.187   5.181   7.247 -0.5455  0.2604  0.2866
  835MOL0     C10120   1.133   5.054   7.204  0.0246 -0.6563 -0.3536
  835MOL0     C10121   0.996   5.046   7.169 -0.4567 -0.8434 -1.0536
  835MOL0     C10122   0.922   5.166   7.139 -0.5797 -0.0265  0.4505
  835MOL0     O10123   0.795   5.167   7.080  0.5560 -0.0362 -1.2631
  835MOL0     C10124   0.742   5.045   7.031  0.8515  0.6280 -0.0091
  835MOL0     C10125   0.623   5.081   6.945  0.1682  0.2735  0.0598
  835MOL0     C10126   0.558   4.962   6.886  0.5699  0.2334  0.0712
  835MOL0     C10127   0.455   5.000   6.779 -0.8914 -0.7719  0.5793
  835MOL0     C10128   0.381   4.878   6.746 -0.6393  0.5556  0.1983
  835MOL0     C10129   0.269   4.927   6.656  0.3180 -0.1007  0.4917
  835MOL0     C10130   0.169   4.810   6.624 -0.0143 -0.0990  0.0774
  835MOL0     C10131   0.157   4.771   6.473  0.5593 -0.6258  0.2602
  835MOL0    Cl10132   0.121   4.904   6.360  0.3379 -0.1332  0.0617
  835MOL0     C10133   0.984   5.288   7.169 -0.3303  0.5828 -0.6559
  835MOL0     C10134   1.107   5.302   7.237 -0.6766  0.6623 -0.4473
  835MOL0     O10135   1.306   5.341   7.463 -0.3848 -0.2646 -0.2118
  835MOL0     C10136   1.565   5.316   7.521  0.1781  0.5312  0.3600
  835MOL0     C10137   1.699   5.317   7.536 -0.9881  0.4324 -0.0774
  835MOL0     N10138   2.370   4.909   7.562 -0.7124  0.9328 -0.6171
  835MOL0     N10139   2.437   4.809   7.495  0.6490 -0.2823 -0.2571
  835MOL0     C10140   3.456   5.077   6.930  0.7381  0.6720 -0.3819
  835MOL0     C10141   3.576   5.138   6.907 -0.3165 -0.9788  0.2836
  835MOL0     C10142   3.993   5.296   6.873  0.6130 -0.5460 -0.1948
  835MOL0     C10143   4.016   5.430   6.821  1.2648 -0.4627 -1.5834
  835MOL0     C10144   4.140   5.487   6.823  0.0445  0.3103  0.0052
  835MOL0     C10145   4.253   5.421   6.879  0.2132 -0.4725  0.6252
  835MOL0     O10146   4.383   5.466   6.880  0.2454 -0.3804  0.7302
  835MOL0     C10147   4.410   5.606   6.870  0.4224 -0.8285  0.1000
  835MOL0     C10148   4.382   5.694   6.989 -0.5127 -0.2061 -0.0555
  835MOL0     C10149   4.441   5.634   7.123 -0.9116  0.0916 -0.8202
  835MOL0     C10150   4.432   5.730   7.248  0.0066 -0.2148 -0.9449
  835MOL0     C10151   4.517   5.853   7.237 -0.5012 -0.0377  0.8499
  835MOL0     C10152   4.591   5.949   7.236 -0.3468  0.2312  0.6951
  835MOL0     C10153   4.230   5.298   6.942 -1.3692 -0.2420  0.0073
  835MOL0     C10154   4.099   5.241   6.941  0.0609  0.6165  0.5229
  835MOL0     H10155   3.786   4.938   7.074 -0.0391  1.8128 -0.1028
  835MOL0     H10156   3.569   4.811   7.117 -1.7596 -1.2614 -0.7438
  835MOL0     H10157   3.390   4.765   7.175 -0.8768 -1.2439  1.0009
  835MOL0     H10158   3.306   4.692   7.044 -2.0031 -1.3382  1.9324
  835MOL0     H10159   3.179   4.883   7.236 -0.8456 -0.6290  2.5396
  835MOL0     H10160   3.193   4.710   7.261  2.6676  0.1785 -0.0133
  835MOL0     H10161   3.067   4.702   7.009  1.2356  3.1742 -2.7432
  835MOL0     H10162   3.027   4.865   7.049 -1.9400 -1.4642 -1.0620
  835MOL0     H10163   2.946   4.621   7.208 -2.4429 -0.3294  1.0331
  835MOL0     H10164   2.955   4.782   7.289  3.1365  1.4320 -2.1955
  835MOL0     H10165   2.802   4.701   7.057 -0.3582 -1.5866  0.4867
  835MOL0     H10166   2.814   4.867   7.115 -0.4847 -1.1813 -1.1021
  835MOL0     H10167   2.719   4.779   7.349 -1.9037  2.3934 -0.7331
  835MOL0     H10168   2.674   4.632   7.261 -2.7306  0.6538  4.4762
  835MOL0     H10169   2.563   4.905   7.206 -2.7554 -0.5736  2.4745
  835MOL0     H10170   2.570   4.788   7.076 -1.6560 -0.6389  0.2566
  835MOL0     H10171   2.446   4.633   7.294 -0.3777 -0.6346 -0.7554
  835MOL0     H10172   2.358   4.739   7.172 -1.1007 -0.4746  0.4125
  835MOL0     H10173   2.266   4.960   7.256  0.0089  0.6483  0.0666
  835MOL0     H10174   2.177   5.142   7.412  2.1022 -0.2880 -0.2473
  835MOL0     H10175   2.249   5.155   7.565  1.9436 -0.2653 -1.7262
  835MOL0     H10176   2.081   4.954   7.644 -2.8624 -1.6426 -0.5972
  835MOL0     H10177   1.993   5.000   7.493 -0.5988 -1.6122  0.4633
  835MOL0     H10178   1.899   5.116   7.691 -1.7215 -0.2343 -2.2979
  835MOL0     H10179   2.067   5.166   7.734 -0.5054 -1.3804  0.3607
  835MOL0     H10180   2.081   5.332   7.580  0.2335 -0.3130  1.1156
  835MOL0     H10181   1.921   5.348   7.655 -1.4038  1.0430 -3.8668
  835MOL0     H10182   1.790   5.182   7.235  0.1734 -0.0247 -0.4340
  835MOL0     H10183   1.557   5.163   7.215  0.0805 -3.6438  2.1479
  835MOL0     H10184   1.178   4.957   7.217 -2.8057 -2.3464 -2.1920
  835MOL0     H10185   0.964   4.943   7.152  1.1091 -1.6410  0.5147
  835MOL0     H10186   0.705   4.979   7.111 -0.8879  1.2871 -0.2299
  835MOL0     H10187   0.811   4.984   6.972 -0.6520  0.1812 -1.3978
  835MOL0     H10188   0.656   5.161   6.878  2.9879  0.4834  1.5253
  835MOL0     H10189   0.554   5.128   7.017  1.2273  2.4463 -0.2428
  835MOL0     H10190   0.511   4.906   6.968 -1.4698  2.0235  0.2129
  835MOL0     H10191   0.641   4.904   6.843  0.1018 -2.2217  2.2158
  835MOL0     H10192   0.387   5.078   6.814 -0.3639  0.3379 -0.7839
  835MOL0     H10193   0.505   5.045   6.693 -2.5211  0.0576  0.0392
  835MOL0     H10194   0.345   4.848   6.845  1.6422 -1.2357  0.5806
  835MOL0     H10195   0.452   4.814   6.693  0.1162  1.8308 -0.3746
  835MOL0     H10196   0.311   4.970   6.565 -0.0604 -2.6501 -0.9808
  835MOL0     H10197   0.213   5.010   6.700  1.6434  1.1689 -0.1598
  835MOL0     H10198   0.201   4.719   6.675  2.8024  0.4073 -0.6048
  835MOL0     H10199   0.070   4.840   6.660 -0.1702 -0.1556 -0.2961
  835MOL0     H10200   0.089   4.686   6.458  1.0732 -0.4646 -4.4568
  835MOL0     H10201   0.257   4.733   6.448  0.9943  0.4939  0.2471
  835MOL0     H10202   0.922   5.376   7.156  0.0480  0.8372 -0.7635
  835MOL0     H10203   1.146   5.401   7.255 -1.9199  1.3133 -1.2773
  835MOL0     H10204   1.502   5.354   7.601 -1.9562 -1.7559 -0.1151
  835MOL0     H10205   1.739   5.370   7.622 -0.2581  1.0923 -0.8013
  835MOL0     H10206   3.366   5.119   6.887  1.2215 -0.1539 -2.3380
  835MOL0     H10207   3.555   5.234   6.861 -0.9899 -0.7279  1.0927
  835MOL0     H10208   3.937   5.493   6.782  2.5635  2.0455 -0.3278
  835MOL0     H10209   4.164   5.577   6.767 -1.8311  0.0188 -1.3891
  835MOL0     H10210   4.349   5.650   6.790 -1.1746 -0.5757  1.4022
  835MOL0     H10211   4.518   5.617   6.856  0.5958 -1.6399  0.7523
  835MOL0     H10212   4.433   5.788   6.963  1.2997 -1.0998  0.0904
  835MOL0     H10213   4.274   5.709   6.998 -0.7307 -2.5380  2.9211
  835MOL0     H10214   4.544   5.606   7.099 -1.5513 -0.2462 -3.5393
  835MOL0     H10215   4.387   5.542   7.149 -2.3261  1.1768  0.2482
  835MOL0     H10216   4.330   5.765   7.262  1.2349  2.8306  1.5792
  835MOL0     H10217   4.464   5.680   7.341  3.4402 -0.0542 -1.8836
  835MOL0     H10218   4.653   6.034   7.216  1.4243 -0.7676  1.7531
  835MOL0     H10219   4.316   5.238   6.971 -0.7946  0.0593 -1.0128
  835MOL0     H10220   4.082   5.148   6.994  1.0872 -0.9875 -1.7919
  836MOL0     O10221  10.182   5.649   3.413  0.4186  0.4210 -0.1265
  836MOL0     C10222  10.182   5.755   3.482  0.6841 -0.9548  0.0525
  836MOL0     O10223  10.084   5.856   3.474 -0.5437 -0.0379  0.2967
  836MOL0     C10224   9.977   5.846   3.397 -0.3263  0.2754 -0.1512
  836MOL0     C10225   9.848   5.860   3.448 -0.4084 -1.3136  0.1369
  836MOL0     C10226   9.731   5.848   3.371 -0.5202  1.1364  0.4262
  836MOL0     C10227   9.742   5.841   3.228 -0.8025 -0.5493 -0.5316
  836MOL0     O10228   9.637   5.855   3.140  0.4009 -0.6044  0.4124
  836MOL0     C10229   9.502   5.866   3.200 -0.9809 -0.0828  1.0208
  836MOL0     C10230   9.431   5.950   3.100  0.0704  0.2196  0.1291
  836MOL0     C10231   9.280   5.941   3.105  0.9939  0.8881  0.2755
  836MOL0     C10232   9.214   6.062   3.053 -0.6397  0.1135  0.3334
  836MOL0     C10233   9.065   6.050   3.013 -0.1094  0.1109  0.1385
  836MOL0     C10234   9.003   6.163   2.938 -0.0793  0.1213 -0.2310
  836MOL0     C10235   8.859   6.129   2.888 -0.4246  0.3998 -0.8215
  836MOL0     C10236   8.769   6.252   2.867  0.6890 -0.0433  0.1426
  836MOL0     N10237   8.654   6.203   2.792  0.0946 -0.0178 -0.8439
  836MOL0     C10238   8.535   6.154   2.835 -0.5659  0.0382 -0.3300
  836MOL0     C10239   8.478   6.094   2.726  0.2512 -0.9075  0.3596
  836MOL0     C10240   8.349   6.029   2.706 -0.2941 -0.0682  0.1317
  836MOL0     C10241   8.356   5.879   2.698 -0.0353 -0.7685 -0.7546
  836MOL0     C10242   8.359   5.816   2.843  0.2040 -0.4397 -0.2189
  836MOL0     C10243   8.476   5.723   2.870  0.2786  0.3482  0.1288
  836MOL0     O10244   8.465   5.599   2.791 -0.2727  0.2650 -0.5967
  836MOL0     C10245   8.487   5.470   2.846 -0.2359  0.2000  0.3291
  836MOL0     C10246   8.472   5.368   2.760 -0.0748  0.7638  0.8491
  836MOL0     C10247   8.485   5.234   2.797 -0.4015 -0.6504  0.9781
  836MOL0     C10248   8.533   5.198   2.925  0.3153 -0.9395  0.5592
  836MOL0     C10249   8.567   5.060   2.955  0.9071  1.2103 -0.4964
  836MOL0     O10250   8.554   4.964   2.853 -0.4103 -0.5647 -0.3544
  836MOL0     C10251   8.595   4.836   2.880  0.4635 -0.0114 -0.2770
  836MOL0     C10252   8.581   4.755   2.994 -0.9566  0.2322  0.4791
  836MOL0     C10253   8.657   4.635   3.004  0.2038 -0.7428  0.6543
  836MOL0     C10254   8.745   4.597   2.897  0.3856 -0.3200  0.1646
  836MOL0     O10255   8.825   4.484   2.896  0.0745  0.6355  0.2183
  836MOL0     C10256   8.788   4.386   2.993 -0.0168  0.4149 -1.4996
  836MOL0     C10257   8.906   4.287   2.995  0.0961 -0.0868  0.5373
  836MOL0     C10258   8.935   4.241   2.847  0.3120 -0.3752 -0.1173
  836MOL0     C10259   8.810   4.169   2.788 -0.1955 -0.1526 -0.1250
  836MOL0     C10260   8.853   4.077   2.675  0.2776  1.0544 -0.4134
  836MOL0     C10261   8.958   3.977   2.710 -0.1721 -0.3184 -0.9559
  836MOL0     C10262   8.962   3.851   2.624  0.7145 -0.3638  0.0263
  836MOL0     C10263   8.967   3.903   2.479  0.6010  0.5837  0.8610
  836MOL0    Cl10264   9.061   3.816   2.353  0.4860 -0.6894  0.2400
  836MOL0     C10265   8.759   4.679   2.788  0.5348 -0.3384  0.1490
  836MOL0     C10266   8.694   4.801   2.789 -0.4908  0.7556  0.4598
  836MOL0     O10267   8.604   5.027   3.072 -0.7514  0.2708  0.2573
  836MOL0     C10268   8.562   5.300   3.015  0.8268 -0.8086  0.4597
  836MOL0     C10269   8.530   5.434   2.976  0.1520 -0.4055  0.2204
  836MOL0     N10270   8.562   6.116   2.621  0.4676  0.2998  0.2237
  836MOL0     N10271   8.658   6.196   2.656  0.0082  0.8387  1.1415
  836MOL0     C10272   9.877   5.840   3.180  0.6077  0.5938  0.9012
  836MOL0     C10273   9.990   5.831   3.256 -0.1858 -0.3548 -1.6574
  836MOL0     C10274  10.298   5.786   3.574  0.6855 -0.3594 -0.3238
  836MOL0     C10275  10.294   5.886   3.683 -0.5440  1.0137  0.7707
  836MOL0     C10276  10.400   5.902   3.774 -0.6613  0.0776  0.3099
  836MOL0     C10277  10.511   5.812   3.768  0.2815  0.3736 -0.5598
  836MOL0     O10278  10.606   5.838   3.862 -0.0963  0.7553  0.3259
  836MOL0     C10279  10.718   5.746   3.862 -0.1722  0.5258  0.1468
  836MOL0     C10280  10.823   5.794   3.950  0.6059  0.3761 -0.3156
  836MOL0     C10281  10.904   5.910   3.890  0.1041  0.4800  0.1530
  836MOL0     C10282  10.994   5.976   3.996  0.6248  0.9450 -0.0122
  836MOL0     C10283  11.077   6.072   3.931  0.3386  0.5785  0.4486
  836MOL0     C10284  11.137   6.168   3.883  0.9641 -0.4951  0.7600
  836MOL0     C10285  10.520   5.719   3.661  0.4238 -0.0993 -0.4254
  836MOL0     C10286  10.414   5.705   3.571 -0.3179 -0.1421  0.6765
  836MOL0     H10287   9.841   5.884   3.554 -0.0005 -1.8743  0.3004
  836MOL0     H10288   9.637   5.839   3.424 -0.1163 -0.3564  0.9424
  836MOL0     H10289   9.496   5.917   3.296 -0.0853 -0.5329  1.3291
  836MOL0     H10290   9.465   5.764   3.213  1.4003 -0.9307  1.6041
  836MOL0     H10291   9.473   5.932   3.000 -0.9243  2.1630 -0.7035
  836MOL0     H10292   9.458   6.053   3.123 -0.0627  0.7695 -1.9419
  836MOL0     H10293   9.251   5.931   3.210 -0.1123  2.5265  0.1634
  836MOL0     H10294   9.258   5.848   3.052  1.8870  1.5996 -1.4281
  836MOL0     H10295   9.227   6.151   3.116  2.4183  2.9307 -3.7231
  836MOL0     H10296   9.276   6.091   2.967 -1.1514 -0.7352 -0.3312
  836MOL0     H10297   9.002   6.036   3.101 -0.1918 -0.2726  0.0203
  836MOL0     H10298   9.045   5.962   2.951 -0.4587  0.9948 -1.0493
  836MOL0     H10299   9.061   6.196   2.851 -0.4065  0.1424 -0.4383
  836MOL0     H10300   8.995   6.247   3.008 -1.9415 -1.2457  1.3111
  836MOL0     H10301   8.866   6.069   2.797  0.4092 -2.6982  1.1618
  836MOL0     H10302   8.815   6.069   2.968  4.5252 -3.2982 -0.4656
  836MOL0     H10303   8.819   6.331   2.810 -1.9001  1.9934  0.5352
  836MOL0     H10304   8.745   6.294   2.965  0.5000  2.3025 -0.8450
  836MOL0     H10305   8.495   6.157   2.936 -0.0500  0.5226 -0.1380
  836MOL0     H10306   8.307   6.065   2.612 -0.7152  0.3518  0.4751
  836MOL0     H10307   8.274   6.062   2.778 -1.5423 -0.4676 -0.9634
  836MOL0     H10308   8.442   5.843   2.642  1.3497  2.3803 -0.9055
  836MOL0     H10309   8.266   5.850   2.645  0.2501  1.9543 -2.9787
  836MOL0     H10310   8.355   5.900   2.913  2.3750 -0.1730 -0.3456
  836MOL0     H10311   8.261   5.770   2.855  0.7206 -1.2523  1.0778
  836MOL0     H10312   8.479   5.697   2.977  4.8433  2.8274  0.8775
  836MOL0     H10313   8.569   5.775   2.847 -0.5140  1.7153 -0.0712
  836MOL0     H10314   8.452   5.402   2.658  1.3277  1.9136  0.9338
  836MOL0     H10315   8.470   5.165   2.714 -0.8783 -1.4568  1.7235
  836MOL0     H10316   8.513   4.777   3.075  0.1867 -1.2637  1.8997
  836MOL0     H10317   8.640   4.577   3.094  1.4514 -3.2506 -0.6295
  836MOL0     H10318   8.704   4.323   2.964  1.3697 -2.3141  0.0040
  836MOL0     H10319   8.774   4.419   3.096  1.2613 -0.7354 -0.9256
  836MOL0     H10320   8.885   4.197   3.054  2.6158 -0.9834  0.1736
  836MOL0     H10321   8.984   4.338   3.052  0.2618 -2.2845  2.4259
  836MOL0     H10322   9.030   4.187   2.844 -1.0291 -2.8848 -0.7736
  836MOL0     H10323   8.961   4.325   2.783  0.7477 -0.8503 -0.5732
  836MOL0     H10324   8.766   4.114   2.871  0.7866 -0.3373  0.2926
  836MOL0     H10325   8.743   4.239   2.737  0.9826  0.1032 -1.3980
  836MOL0     H10326   8.877   4.135   2.584 -0.1716  1.5206 -0.2401
  836MOL0     H10327   8.764   4.023   2.644 -0.7873  2.2362  0.4751
  836MOL0     H10328   8.946   3.952   2.815  1.3988 -1.1915 -0.9549
  836MOL0     H10329   9.057   4.023   2.700  0.2335 -1.4963 -3.1425
  836MOL0     H10330   9.053   3.795   2.646  1.0581 -1.9261 -4.3839
  836MOL0     H10331   8.881   3.778   2.637  0.2052  0.2759  0.4962
  836MOL0     H10332   9.017   4.000   2.483  0.3751  0.9708 -2.6387
  836MOL0     H10333   8.869   3.919   2.433  0.6516  1.5532  1.0811
  836MOL0     H10334   8.837   4.657   2.716  1.0450 -1.1101  0.9124
  836MOL0     H10335   8.720   4.867   2.706  1.1313 -0.3083  0.0823
  836MOL0     H10336   8.612   5.278   3.109  1.6423  0.2626  0.2960
  836MOL0     H10337   8.552   5.510   3.051  1.2046 -0.1999 -0.2816
  836MOL0     H10338   9.879   5.822   3.073 -0.6028 -1.6169  1.1783
  836MOL0     H10339  10.090   5.810   3.221  0.3558 -1.1208  0.2240
  836MOL0     H10340  10.205   5.946   3.702  0.1211  2.9554 -1.6152
  836MOL0     H10341  10.388   5.973   3.855  0.7784  0.3887  0.2682
  836MOL0     H10342  10.762   5.750   3.762  1.5045  3.6126  0.8940
  836MOL0     H10343  10.683   5.648   3.897  0.7296  0.6748  1.5251
  836MOL0     H10344  10.764   5.835   4.032 -0.1533 -1.1232 -0.0680
  836MOL0     H10345  10.890   5.713   3.983  0.9687  1.0656  0.6634
  836MOL0     H10346  10.836   5.977   3.837 -1.1559 -0.5614  0.3945
  836MOL0     H10347  10.969   5.862   3.817 -1.1616 -0.7409 -0.2128
  836MOL0     H10348  10.935   6.021   4.077 -0.0855 -2.3013  1.4691
  836MOL0     H10349  11.059   5.901   4.042  0.5294 -0.5833 -2.2409
  836MOL0     H10350  11.194   6.256   3.858 -0.9586  1.7415  3.5453
  836MOL0     H10351  10.606   5.657   3.637 -1.7229 -3.6144  0.2648
  836MOL0     H10352  10.429   5.628   3.496  1.0414  2.2898 -1.7589
  837MOL0     O10353   4.236   6.082   3.054  0.4004  0.0095 -0.5914
  837MOL0     C10354   4.164   6.164   2.991 -0.0352 -0.9541 -0.2728
  837MOL0     O10355   4.201   6.277   2.912  0.4232  0.0222 -0.5077
  837MOL0     C10356   4.332   6.328   2.899 -0.0372 -1.5802 -1.0677
  837MOL0     C10357   4.442   6.268   2.941 -0.6423 -0.2017 -0.1709
  837MOL0     C10358   4.565   6.321   2.909 -0.0901  0.5720  0.5105
  837MOL0     C10359   4.573   6.433   2.817 -0.4809  0.6002 -0.7545
  837MOL0     O10360   4.699   6.483   2.781  0.4044 -0.0717 -0.1501
  837MOL0     C10361   4.701   6.541   2.652 -0.2395  0.4252  0.6328
  837MOL0     C10362   4.792   6.460   2.568  0.9139 -0.3274  0.1918
  837MOL0     C10363   4.808   6.526   2.435 -0.2542 -0.0314  0.2884
  837MOL0     C10364   4.927   6.453   2.369  0.9302  0.2432 -0.3439
  837MOL0     C10365   4.957   6.492   2.227 -0.2595  0.2482 -0.1158
  837MOL0     C10366   5.017   6.626   2.201 -0.3220  0.5900 -0.1968
  837MOL0     C10367   5.084   6.637   2.070  0.0296  0.0912 -0.9484
  837MOL0     C10368   4.981   6.616   1.955 -1.0248 -1.0607  0.7625
  837MOL0     N10369   4.893   6.730   1.941  0.7027  0.1123 -0.2350
  837MOL0     C10370   4.784   6.763   2.017 -0.0774 -0.1339  0.5951
  837MOL0     C10371   4.725   6.866   1.946 -0.2523  0.3927  0.0313
  837MOL0     C10372   4.589   6.926   1.984 -0.5424 -0.4427 -0.5952
  837MOL0     C10373   4.490   6.817   1.964  0.2515  0.0331  0.4437
  837MOL0     C10374   4.348   6.844   2.014  0.2641  1.1075 -0.2420
  837MOL0     C10375   4.277   6.717   1.992  0.3978  0.8112 -0.4952
  837MOL0     O10376   4.158   6.727   2.067  0.6575 -0.1001 -0.8438
  837MOL0     C10377   4.063   6.623   2.068 -0.5237 -0.5309 -0.1142
  837MOL0     C10378   3.964   6.650   2.163  0.4829  0.6353  0.4607
  837MOL0     C10379   3.866   6.552   2.185 -0.0803  0.3429 -0.6799
  837MOL0     C10380   3.857   6.434   2.109  0.3777 -0.9262 -0.0261
  837MOL0     C10381   3.753   6.342   2.142 -0.0473 -0.0848  0.6839
  837MOL0     O10382   3.755   6.230   2.061  0.0281 -0.0700 -0.2660
  837MOL0     C10383   3.649   6.145   2.080 -0.1129 -0.5594 -0.1043
  837MOL0     C10384   3.559   6.128   1.973 -0.1812  0.2245 -0.3248
  837MOL0     C10385   3.457   6.032   1.978 -0.0671  0.1797  0.7183
  837MOL0     C10386   3.453   5.950   2.094 -0.2410 -0.0187 -0.3662
  837MOL0     O10387   3.370   5.842   2.100 -0.1622  0.5283 -0.0158
  837MOL0     C10388   3.400   5.740   2.000  1.1476  0.4053 -0.6094
  837MOL0     C10389   3.279   5.729   1.906  0.1321 -0.6742  0.0710
  837MOL0     C10390   3.148   5.688   1.981 -0.2893  0.5663  0.5125
  837MOL0     C10391   3.040   5.658   1.875  0.0981  0.2043  0.0023
  837MOL0     C10392   2.910   5.610   1.945 -0.5060  0.1719 -0.2321
  837MOL0     C10393   2.797   5.556   1.843 -0.0678 -0.4117 -0.0142
  837MOL0     C10394   2.843   5.444   1.756  0.5724  0.3438  0.2956
  837MOL0     C10395   2.730   5.342   1.730  0.7537 -0.2287  0.6470
  837MOL0    Cl10396   2.603   5.434   1.638  0.1508 -0.5274 -0.3071
  837MOL0     C10397   3.540   5.973   2.202 -0.3550 -0.6682 -0.0230
  837MOL0     C10398   3.638   6.068   2.195 -0.5604 -0.0025  0.6271
  837MOL0     O10399   3.680   6.358   2.238 -0.4014 -0.3111 -0.3654
  837MOL0     C10400   3.963   6.411   2.014 -0.1419 -0.3278 -0.7666
  837MOL0     C10401   4.062   6.501   2.003 -0.6093 -0.2276  0.5861
  837MOL0     N10402   4.805   6.897   1.838 -0.1240 -0.7372  0.3424
  837MOL0     N10403   4.911   6.835   1.852  0.5009  0.4232  0.0603
  837MOL0     C10404   4.456   6.497   2.780 -0.5614 -0.1340  0.5921
  837MOL0     C10405   4.333   6.439   2.811 -0.2308 -0.1928  0.5984
  837MOL0     C10406   4.016   6.142   3.013 -1.0272 -0.0668  0.2323
  837MOL0     C10407   3.970   6.032   3.087 -0.0246 -0.1213 -0.8859
  837MOL0     C10408   3.838   6.022   3.126  0.1074 -0.4483  0.2277
  837MOL0     C10409   3.734   6.110   3.087  0.4692  0.2025  1.0681
  837MOL0     O10410   3.600   6.109   3.109 -0.2598 -0.2231 -0.5316
  837MOL0     C10411   3.548   5.986   3.149 -0.5741 -0.5507  0.4319
  837MOL0     C10412   3.402   5.993   3.121  0.1101 -0.1795 -0.7497
  837MOL0     C10413   3.374   6.065   2.991  0.6088  0.8607  0.9490
  837MOL0     C10414   3.227   6.040   2.934 -0.7502 -0.1061  0.1729
  837MOL0     C10415   3.125   6.070   3.043  0.8329 -0.5617  0.2843
  837MOL0     C10416   3.031   6.110   3.123 -0.8277 -0.0037  0.4650
  837MOL0     C10417   3.782   6.213   3.009  0.0908 -0.8978  0.2667
  837MOL0     C10418   3.918   6.235   2.971 -0.3753  0.5932  0.8526
  837MOL0     H10419   4.446   6.186   3.012 -2.2925 -1.9039 -1.9406
  837MOL0     H10420   4.655   6.267   2.938 -0.0083 -0.6580 -1.7740
  837MOL0     H10421   4.737   6.644   2.656 -1.5864  0.9041  0.8792
  837MOL0     H10422   4.609   6.526   2.594 -0.6900 -0.8505  1.6192
  837MOL0     H10423   4.746   6.362   2.558 -2.1931  0.9426  0.9294
  837MOL0     H10424   4.885   6.438   2.623  0.2755  1.2658  2.0384
  837MOL0     H10425   4.813   6.635   2.447 -1.8182  0.0002  0.9710
  837MOL0     H10426   4.721   6.497   2.376  0.5912 -3.5621  0.5455
  837MOL0     H10427   5.011   6.462   2.438 -0.4762  0.4295  1.4238
  837MOL0     H10428   4.905   6.346   2.373  1.3909  0.1751  0.6269
  837MOL0     H10429   4.868   6.481   2.165 -0.9962  0.9417  0.7832
  837MOL0     H10430   5.030   6.422   2.184 -2.7359 -1.0875 -2.4537
  837MOL0     H10431   5.100   6.636   2.272 -1.7596 -0.4790  1.7368
  837MOL0     H10432   4.943   6.704   2.219  2.0605  2.2602  3.7627
  837MOL0     H10433   5.117   6.741   2.059 -0.6705  0.4090 -0.1639
  837MOL0     H10434   5.171   6.571   2.061  0.9541  1.1531 -0.1119
  837MOL0     H10435   4.925   6.523   1.968  0.4194 -1.6884  3.1421
  837MOL0     H10436   5.044   6.604   1.867 -1.5427 -0.4328  0.3034
  837MOL0     H10437   4.750   6.719   2.110 -0.0730  0.7475  1.0163
  837MOL0     H10438   4.572   7.013   1.921 -0.1678 -0.0344 -0.1393
  837MOL0     H10439   4.589   6.949   2.091  0.3526 -1.2829 -0.4031
  837MOL0     H10440   4.532   6.723   1.999  1.3132  0.0068 -0.8300
  837MOL0     H10441   4.489   6.788   1.859  0.0733 -0.5234  0.5971
  837MOL0     H10442   4.355   6.851   2.123  2.3736 -1.7077 -0.0966
  837MOL0     H10443   4.292   6.929   1.974  0.3321  1.8396  1.1293
  837MOL0     H10444   4.334   6.632   2.028  0.1882  0.8051 -0.1770
  837MOL0     H10445   4.257   6.703   1.885  0.2170 -1.8046 -0.1855
  837MOL0     H10446   3.976   6.734   2.231 -1.1531  0.0948  1.4643
  837MOL0     H10447   3.798   6.571   2.267 -0.2439  2.3189 -1.2337
  837MOL0     H10448   3.565   6.181   1.879  3.4447 -1.9691 -1.5438
  837MOL0     H10449   3.391   6.013   1.894  1.1093 -2.2570  0.2348
  837MOL0     H10450   3.411   5.641   2.045  1.3249 -0.0218 -1.5754
  837MOL0     H10451   3.484   5.766   1.935  1.0733  0.2215 -0.7790
  837MOL0     H10452   3.306   5.664   1.823  0.9186 -1.2028  0.7176
  837MOL0     H10453   3.275   5.824   1.852  0.3149  0.3248  1.7202
  837MOL0     H10454   3.110   5.772   2.040 -2.2888 -0.6301  1.0219
  837MOL0     H10455   3.160   5.595   2.036 -1.1979 -0.6746 -1.2798
  837MOL0     H10456   3.021   5.744   1.810 -0.6814 -0.2081 -0.3329
  837MOL0     H10457   3.075   5.573   1.815 -0.1298 -0.1374  0.3489
  837MOL0     H10458   2.869   5.689   2.009  2.4530  1.1027  0.7044
  837MOL0     H10459   2.925   5.523   2.010 -1.9465  0.6736  0.8268
  837MOL0     H10460   2.763   5.644   1.787  1.2719 -0.3694 -0.8063
  837MOL0     H10461   2.710   5.519   1.899 -1.5928  1.0591 -1.2828
  837MOL0     H10462   2.869   5.481   1.656 -2.9951 -1.4127 -1.4704
  837MOL0     H10463   2.925   5.392   1.806 -0.3177 -0.6558  0.7463
  837MOL0     H10464   2.703   5.293   1.824  1.5087 -1.2036  0.3708
  837MOL0     H10465   2.758   5.268   1.655 -0.2179  0.8577 -0.8586
  837MOL0     H10466   3.538   5.920   2.297  0.0401 -1.1873 -0.2992
  837MOL0     H10467   3.706   6.087   2.276 -0.7872  2.5523  0.3028
  837MOL0     H10468   3.978   6.314   1.968  0.4838  0.3173 -1.9798
  837MOL0     H10469   4.133   6.477   1.924 -0.4500  0.5146  0.4940
  837MOL0     H10470   4.446   6.585   2.716 -3.4240 -1.9212 -1.6958
  837MOL0     H10471   4.245   6.493   2.777  0.0142 -0.7706 -1.0383
  837MOL0     H10472   4.035   5.953   3.123  0.4042 -0.1095 -1.6190
  837MOL0     H10473   3.803   5.933   3.179 -0.4207 -2.8846 -3.8206
  837MOL0     H10474   3.580   5.969   3.252 -1.7199 -3.9672  0.3452
  837MOL0     H10475   3.592   5.904   3.092  1.3843 -0.4708  1.7121
  837MOL0     H10476   3.364   5.890   3.123 -1.6538  0.4342 -0.3715
  837MOL0     H10477   3.350   6.043   3.204  0.6124 -2.7716  1.2884
  837MOL0     H10478   3.442   6.044   2.908 -1.7220 -0.4895 -0.7137
  837MOL0     H10479   3.383   6.172   3.011  0.2386  0.7251  1.8806
  837MOL0     H10480   3.205   6.109   2.852 -0.1249  2.4537  2.0187
  837MOL0     H10481   3.235   5.934   2.910  0.0168 -0.1194  0.4628
  837MOL0     H10482   2.960   6.161   3.186  0.4456  0.9511  1.1618
  837MOL0     H10483   3.711   6.291   2.984  2.9100  1.8281  0.0940
  837MOL0     H10484   3.943   6.328   2.919 -1.5332  0.3789 -0.1460
  838MOL0     O10485   3.733   0.482   4.095  0.0228  0.0152  0.0000
  838MOL0     C10486   3.792   0.587   4.077  1.1781  0.0956 -0.5838
  838MOL0     O10487   3.734   0.715   4.068  0.0660  0.7227 -0.5127
  838MOL0     C10488   3.593   0.716   4.063 -0.6048  0.7879 -0.3666
  838MOL0     C10489   3.538   0.775   3.954  0.3608  0.3725 -0.3628
  838MOL0     C10490   3.403   0.772   3.930  1.0160  0.3549  0.1552
  838MOL0     C10491   3.325   0.714   4.025 -0.0380 -0.3085  0.6323
  838MOL0     O10492   3.190   0.711   4.000  0.2304 -0.1154  0.2104
  838MOL0     C10493   3.102   0.626   4.082 -0.1188  0.2354  0.4370
  838MOL0     C10494   2.956   0.636   4.011  1.1271 -0.3338  0.8317
  838MOL0     C10495   2.853   0.558   4.093 -0.2633 -1.2707  0.0182
  838MOL0     C10496   2.713   0.580   4.037  0.4004 -0.3859  0.3233
  838MOL0     C10497   2.617   0.484   4.106 -0.6166 -0.4614 -0.1774
  838MOL0     C10498   2.467   0.512   4.090 -0.3012 -0.9718  0.0268
  838MOL0     C10499   2.365   0.409   4.147 -0.8372 -0.4344 -0.0209
  838MOL0     C10500   2.271   0.339   4.049 -0.8130  0.1285  0.1085
  838MOL0     N10501   2.192   0.248   4.131  0.0055 -0.0220 -0.0403
  838MOL0     C10502   2.088   0.276   4.226 -0.3468  0.9624  0.6257
  838MOL0     C10503   2.072   0.153   4.290  0.3400 -0.4676 -0.5251
  838MOL0     C10504   1.965   0.129   4.394 -0.2705 -1.0279 -0.5097
  838MOL0     C10505   1.821   0.109   4.343 -0.4644  0.8684  0.5062
  838MOL0     C10506   1.747   0.231   4.343  0.2550 -0.1771  0.2391
  838MOL0     C10507   1.618   0.222   4.257 -0.8034 -0.0395 -0.2009
  838MOL0     O10508   1.542   0.345   4.287  0.4721 -0.6816  0.2206
  838MOL0     C10509   1.409   0.343   4.252  0.1004  0.0033 -0.0600
  838MOL0     C10510   1.317   0.448   4.310 -0.2943  0.1328 -0.2919
  838MOL0     C10511   1.179   0.438   4.302  0.0662 -0.3734  0.2876
  838MOL0     C10512   1.133   0.359   4.195  0.5932 -0.1575 -0.8731
  838MOL0     C10513   0.988   0.352   4.169 -0.5309 -0.2550 -0.2205
  838MOL0     O10514   0.944   0.254   4.091  0.4198  0.2351  0.5581
  838MOL0     C10515   0.814   0.263   4.050  0.3419 -0.5797 -0.2867
  838MOL0     C10516   0.701   0.239   4.130  0.3270 -0.4095 -0.4648
  838MOL0     C10517   0.572   0.250   4.084 -0.0874 -0.8974 -0.2232
  838MOL0     C10518   0.552   0.283   3.946  0.0478  0.5830  0.0080
  838MOL0     O10519   0.424   0.285   3.888  0.3168 -0.5092 -0.2221
  838MOL0     C10520   0.320   0.359   3.956  0.8436 -0.1240  0.0680
  838MOL0     C10521   0.179   0.279   3.956 -0.2230 -0.8174  0.2840
  838MOL0     C10522   0.058   0.374   3.966  0.3232  0.0956  0.1321
  838MOL0     C10523  -0.061   0.286   4.004  0.4556  0.2710 -0.7676
  838MOL0     C10524  -0.109   0.184   3.901  0.3990 -0.5387  0.5441
  838MOL0     C10525  -0.248   0.131   3.931  0.0858 -0.0296  0.3124
  838MOL0     C10526  -0.291   0.007   3.844 -0.1543 -0.2457  0.0594
  838MOL0     C10527  -0.264  -0.130   3.910 -0.1735 -0.9755  0.0589
  838MOL0    Cl10528  -0.099  -0.121   3.986 -0.1896  0.3306  0.3752
  838MOL0     C10529   0.661   0.307   3.863 -0.3878 -0.1154  0.3862
  838MOL0     C10530   0.795   0.299   3.912  0.6984 -0.0088 -0.2236
  838MOL0     O10531   0.916   0.443   4.214  0.3830 -0.8948 -0.3505
  838MOL0     C10532   1.212   0.263   4.134 -0.8795 -0.6352  0.3517
  838MOL0     C10533   1.356   0.259   4.155  0.1429  0.2033  0.9836
  838MOL0     N10534   2.165   0.064   4.248  0.2229 -0.5353 -0.4080
  838MOL0     N10535   2.228   0.123   4.150 -0.7620  0.6394 -0.1210
  838MOL0     C10536   3.376   0.663   4.146 -0.6653  0.7620 -1.1908
  838MOL0     C10537   3.513   0.665   4.164 -0.6738  0.8753  0.5300
  838MOL0     C10538   3.941   0.582   4.080 -0.1355  0.6530  0.4582
  838MOL0     C10539   4.008   0.460   4.095 -0.3395  0.6202  0.4140
  838MOL0     C10540   4.148   0.461   4.113 -0.3470  0.0245 -0.0476
  838MOL0     C10541   4.216   0.585   4.114  0.2077  0.5127 -1.2786
  838MOL0     O10542   4.350   0.580   4.146  0.4182 -0.6819  0.1011
  838MOL0     C10543   4.436   0.607   4.033  0.3514  0.0446 -0.4369
  838MOL0     C10544   4.569   0.684   4.068  0.6651 -0.2331  0.5932
  838MOL0     C10545   4.687   0.603   4.100  0.3695  0.4434 -0.8784
  838MOL0     C10546   4.805   0.689   4.169  1.5948  0.6839  0.9985
  838MOL0     C10547   4.899   0.595   4.229 -0.5266 -0.6237 -0.3411
  838MOL0     C10548   4.983   0.525   4.285 -0.8140 -0.1648 -0.0097
  838MOL0     C10549   4.147   0.704   4.099  0.1902  0.0854 -0.2648
  838MOL0     C10550   4.011   0.701   4.086 -0.4837  0.3243  0.2890
  838MOL0     H10551   3.608   0.815   3.881  0.4369 -2.3689 -1.9291
  838MOL0     H10552   3.357   0.805   3.837  0.4303 -0.2270  0.2288
  838MOL0     H10553   3.088   0.675   4.179  0.4686  0.7364  0.2835
  838MOL0     H10554   3.137   0.523   4.086 -1.5767 -0.2349  2.5782
  838MOL0     H10555   2.968   0.587   3.914  2.3647  0.0386  0.7821
  838MOL0     H10556   2.931   0.742   4.000  1.6234 -0.1812  1.1288
  838MOL0     H10557   2.839   0.603   4.191 -1.1232 -0.7408 -0.3379
  838MOL0     H10558   2.882   0.453   4.095  0.0835 -1.2414 -1.7436
  838MOL0     H10559   2.682   0.683   4.055 -1.1623 -1.1418  2.2454
  838MOL0     H10560   2.714   0.572   3.928  0.6926  1.8340  0.1193
  838MOL0     H10561   2.645   0.478   4.212 -0.5410  0.9636 -0.0979
  838MOL0     H10562   2.634   0.384   4.066 -1.9291  0.2087 -2.6149
  838MOL0     H10563   2.455   0.517   3.981 -2.7870  0.2727  0.2850
  838MOL0     H10564   2.448   0.610   4.134  1.7411 -2.0564  3.7837
  838MOL0     H10565   2.414   0.333   4.208 -1.4194 -0.6379  0.1965
  838MOL0     H10566   2.303   0.473   4.211  2.2119  0.5610  2.1516
  838MOL0     H10567   2.328   0.273   3.983 -1.0736  0.0152 -0.0025
  838MOL0     H10568   2.205   0.409   3.997 -0.4429 -2.1184 -3.8192
  838MOL0     H10569   2.046   0.375   4.239  1.1784  1.4541  2.3276
  838MOL0     H10570   1.968   0.214   4.463  1.6506 -2.2941  1.0569
  838MOL0     H10571   1.996   0.040   4.449  1.0750 -0.4328 -0.2655
  838MOL0     H10572   1.770   0.032   4.401  1.2081 -2.4324 -2.0899
  838MOL0     H10573   1.814   0.067   4.242  0.2994 -1.3070  1.2906
  838MOL0     H10574   1.718   0.248   4.447  0.4035  1.2912  0.0549
  838MOL0     H10575   1.809   0.316   4.314  1.1388 -0.6061  0.8208
  838MOL0     H10576   1.566   0.131   4.287  0.0949 -0.5664 -0.2002
  838MOL0     H10577   1.653   0.215   4.154 -1.2352  0.2736 -0.3729
  838MOL0     H10578   1.356   0.522   4.379 -0.9242 -0.6211  0.9093
  838MOL0     H10579   1.124   0.507   4.365  2.6254  2.1068  0.0036
  838MOL0     H10580   0.704   0.242   4.239 -1.7377 -0.8086 -0.3492
  838MOL0     H10581   0.480   0.241   4.140 -1.6441 -1.1211 -2.6471
  838MOL0     H10582   0.320   0.457   3.908 -1.1389 -0.3660 -0.5180
  838MOL0     H10583   0.343   0.380   4.061  0.6472  2.4469 -0.3482
  838MOL0     H10584   0.182   0.200   4.031 -1.1837 -0.4422  0.7396
  838MOL0     H10585   0.162   0.238   3.856 -0.9395  0.0595  0.0292
  838MOL0     H10586   0.028   0.412   3.868 -1.7148 -0.6483  0.4119
  838MOL0     H10587   0.073   0.457   4.034 -1.9725  1.1824 -0.5791
  838MOL0     H10588  -0.040   0.247   4.104  2.6174 -2.7507 -2.2433
  838MOL0     H10589  -0.143   0.355   4.023 -1.7046 -2.3176 -0.1868
  838MOL0     H10590  -0.032   0.109   3.881  1.0117  0.4673 -1.1004
  838MOL0     H10591  -0.123   0.241   3.808  0.4672 -0.5336  0.5370
  838MOL0     H10592  -0.322   0.211   3.914  1.3665  0.6952 -2.3602
  838MOL0     H10593  -0.256   0.104   4.037 -1.4425  0.5327  0.3701
  838MOL0     H10594  -0.399   0.013   3.826  0.0960 -0.3853 -1.7316
  838MOL0     H10595  -0.245   0.017   3.745  2.1951  1.6629  1.2573
  838MOL0     H10596  -0.279  -0.200   3.827 -0.3209  1.1625 -1.8116
  838MOL0     H10597  -0.339  -0.152   3.986 -0.6654  2.7141  0.8274
  838MOL0     H10598   0.632   0.324   3.760  0.2610  0.9194  0.3676
  838MOL0     H10599   0.881   0.316   3.848  0.8740 -2.3290 -0.6641
  838MOL0     H10600   1.167   0.190   4.068  1.4689 -3.5484  1.7334
  838MOL0     H10601   1.409   0.190   4.091 -2.0603  0.9575 -1.8932
  838MOL0     H10602   3.318   0.613   4.223 -1.2289  0.8046 -1.5881
  838MOL0     H10603   3.563   0.631   4.254 -0.5237 -0.6182 -0.0926
  838MOL0     H10604   3.973   0.357   4.104  1.9616 -0.0288  3.9832
  838MOL0     H10605   4.202   0.370   4.139 -1.0331 -0.9772 -1.8849
  838MOL0     H10606   4.379   0.661   3.957  2.1713  0.4444 -1.5853
  838MOL0     H10607   4.455   0.508   3.989  0.9219  0.9162 -2.2387
  838MOL0     H10608   4.605   0.738   3.980  1.4310 -1.9423 -0.2108
  838MOL0     H10609   4.546   0.754   4.148 -0.9907 -0.2336  0.1484
  838MOL0     H10610   4.722   0.548   4.012 -1.6441  1.0944 -2.1538
  838MOL0     H10611   4.659   0.535   4.180  1.4542 -0.7845 -1.4831
  838MOL0     H10612   4.858   0.754   4.098  2.4207 -0.3529  0.6394
  838MOL0     H10613   4.752   0.759   4.234 -3.0176 -2.3395  0.9462
  838MOL0     H10614   5.054   0.454   4.323 -0.3513  0.3924  0.1892
  838MOL0     H10615   4.200   0.798   4.098  0.7587 -0.2304  0.1020
  838MOL0     H10616   3.980   0.804   4.089  3.9744  1.8915  0.2913
  839MOL0     O10617   3.208   9.768   1.856  0.0569 -0.2892  0.1514
  839MOL0     C10618   3.129   9.865   1.880 -0.3985 -0.5812 -0.7005
  839MOL0     O10619   3.170   9.988   1.927  0.2400 -0.7761  0.3258
  839MOL0     C10620   3.305  10.016   1.912 -0.0761  0.8680 -0.8348
  839MOL0     C10621   3.365  10.090   2.018 -0.7433 -0.4568  0.1057
  839MOL0     C10622   3.503  10.120   2.011 -0.7577 -0.2347 -0.2934
  839MOL0     C10623   3.592  10.068   1.910 -0.6607 -0.0405 -0.0317
  839MOL0     O10624   3.728  10.081   1.904 -0.2555  0.7396 -0.0739
  839MOL0     C10625   3.783  10.071   2.033 -0.5151 -0.1230  1.1637
  839MOL0     C10626   3.942  10.071   2.030 -0.1271  1.0332 -0.2991
  839MOL0     C10627   3.984   9.921   2.002 -0.7617  0.0392 -0.3871
  839MOL0     C10628   4.120   9.894   2.052 -0.8270  0.1462 -0.3183
  839MOL0     C10629   4.121   9.763   2.124  0.2412  1.0147 -0.1093
  839MOL0     C10630   4.122   9.651   2.026  0.0237 -0.1195 -0.1006
  839MOL0     C10631   4.171   9.521   2.091 -0.0375 -0.7997  0.3360
  839MOL0     C10632   4.197   9.413   1.985  0.4001 -0.1669 -0.7507
  839MOL0     N10633   4.246   9.295   2.047  0.0021  0.2289  0.7312
  839MOL0     C10634   4.211   9.167   2.001 -0.0667 -0.6406  0.0097
  839MOL0     C10635   4.240   9.085   2.102 -0.2661 -0.6142  0.2352
  839MOL0     C10636   4.207   8.939   2.110  0.9941  0.6453  0.8616
  839MOL0     C10637   4.059   8.905   2.128 -0.4427  0.4966 -0.1677
  839MOL0     C10638   4.015   8.905   2.275 -0.4526 -0.2623  0.2893
  839MOL0     C10639   3.859   8.917   2.272 -0.0260 -0.4741 -0.7424
  839MOL0     O10640   3.800   8.806   2.200  0.2077  0.1675 -0.2210
  839MOL0     C10641   3.665   8.812   2.191 -0.0700  0.8181  0.7435
  839MOL0     C10642   3.580   8.920   2.223 -0.1357  0.4858  1.2309
  839MOL0     C10643   3.439   8.901   2.208  0.1274  0.5064 -0.0660
  839MOL0     C10644   3.386   8.771   2.164 -0.0801 -0.0800 -0.1865
  839MOL0     C10645   3.237   8.761   2.143  0.2368 -0.4797 -0.7072
  839MOL0     O10646   3.198   8.683   2.046 -0.3894  0.2497 -0.5315
  839MOL0     C10647   3.067   8.642   2.019 -0.1816  0.8486  0.4442
  839MOL0     C10648   2.971   8.631   2.116  0.4369 -0.2976  0.7536
  839MOL0     C10649   2.837   8.595   2.087  0.5854  0.2289  0.2986
  839MOL0     C10650   2.789   8.577   1.959 -0.4408  0.2021  0.8164
  839MOL0     O10651   2.661   8.536   1.941  0.4199  0.2610  0.6807
  839MOL0     C10652   2.559   8.638   1.942  0.0939 -0.0264  0.5830
  839MOL0     C10653   2.419   8.566   1.917 -0.5435 -0.6456 -0.1125
  839MOL0     C10654   2.424   8.495   1.782  0.5825  0.3230  0.2285
  839MOL0     C10655   2.300   8.409   1.758  0.3448 -0.4970  0.0179
  839MOL0     C10656   2.315   8.320   1.636 -0.2421  0.3582 -0.1286
  839MOL0     C10657   2.184   8.301   1.566 -0.0226  0.1925 -0.7422
  839MOL0     C10658   2.091   8.191   1.632 -0.7246  0.3897 -0.3104
  839MOL0     C10659   1.972   8.135   1.555  0.1478 -0.6865 -0.8552
  839MOL0    Cl10660   2.017   8.002   1.444 -0.1604  0.0681 -0.2952
  839MOL0     C10661   2.889   8.584   1.860  0.1435 -0.1334  0.9033
  839MOL0     C10662   3.024   8.611   1.890  0.4985 -0.0282  0.6177
  839MOL0     O10663   3.166   8.831   2.217  0.0206  0.1116  0.5813
  839MOL0     C10664   3.473   8.668   2.149 -0.3526  0.7688  0.8572
  839MOL0     C10665   3.612   8.685   2.153  0.1022  0.2242 -0.1747
  839MOL0     N10666   4.277   9.158   2.217 -0.8154  1.3429 -0.2121
  839MOL0     N10667   4.283   9.276   2.179  0.3816  0.2726 -0.2597
  839MOL0     C10668   3.526   9.998   1.809  0.3785  0.0516 -0.8087
  839MOL0     C10669   3.389   9.971   1.813  0.2127  0.8051 -0.4250
  839MOL0     C10670   2.988   9.840   1.859  1.3190 -0.4927 -0.1116
  839MOL0     C10671   2.943   9.708   1.829 -0.6693  0.5985  0.2179
  839MOL0     C10672   2.804   9.685   1.818 -0.2694 -1.6594  0.3242
  839MOL0     C10673   2.707   9.786   1.844  0.0286  0.1339  0.2180
  839MOL0     O10674   2.570   9.766   1.860  0.5773 -0.6244 -0.1519
  839MOL0     C10675   2.504   9.644   1.826  0.5295 -0.4126 -0.5554
  839MOL0     C10676   2.352   9.676   1.811  0.1813 -1.3129 -0.7503
  839MOL0     C10677   2.332   9.788   1.704 -0.3749 -1.1155  0.7427
  839MOL0     C10678   2.186   9.844   1.713 -0.4871 -0.6986  0.3352
  839MOL0     C10679   2.178   9.933   1.602  0.4660 -0.0435  0.1047
  839MOL0     C10680   2.157  10.006   1.510 -0.1116  0.1481  0.2881
  839MOL0     C10681   2.758   9.909   1.879 -0.4814 -0.9572 -0.2517
  839MOL0     C10682   2.892   9.935   1.894  0.5009 -0.8737  0.2342
  839MOL0     H10683   3.299  10.136   2.091 -0.7609  0.0978 -0.2478
  839MOL0     H10684   3.552  10.173   2.091 -0.8893 -0.2885 -0.1765
  839MOL0     H10685   3.743   9.988   2.091  0.2536 -1.0937  0.3576
  839MOL0     H10686   3.765  10.164   2.089 -1.0567  0.0601  0.6942
  839MOL0     H10687   3.986  10.111   2.122  0.3739 -1.5951  0.6832
  839MOL0     H10688   3.992  10.139   1.960  2.1517 -0.6943 -0.4825
  839MOL0     H10689   3.989   9.904   1.894 -0.5052  3.8102 -1.0858
  839MOL0     H10690   3.916   9.856   2.058 -0.7233  0.5416  0.2564
  839MOL0     H10691   4.197   9.888   1.975  0.5906 -3.9225  1.1478
  839MOL0     H10692   4.142   9.967   2.131 -1.5870 -0.7933  0.7849
  839MOL0     H10693   4.044   9.751   2.200  1.3622 -1.3248  0.7854
  839MOL0     H10694   4.202   9.757   2.197 -2.1633  1.8300  2.7912
  839MOL0     H10695   4.195   9.683   1.951 -1.5880  1.8294 -0.9267
  839MOL0     H10696   4.027   9.646   1.973  1.8097  1.1731 -3.7679
  839MOL0     H10697   4.267   9.542   2.139  2.0604 -2.1346 -2.9343
  839MOL0     H10698   4.098   9.483   2.163 -0.5021 -0.3373  0.1197
  839MOL0     H10699   4.263   9.451   1.906 -1.4496  0.3742 -2.0809
  839MOL0     H10700   4.097   9.393   1.947 -0.0101 -2.0497  1.1618
  839MOL0     H10701   4.156   9.163   1.908 -2.2793  1.6963  1.1134
  839MOL0     H10702   4.263   8.893   2.192  1.5272  1.1695  0.8028
  839MOL0     H10703   4.239   8.900   2.013 -0.5665 -0.8054  0.8871
  839MOL0     H10704   4.034   8.808   2.083  0.0404  0.6856 -0.8597
  839MOL0     H10705   4.001   8.975   2.067  1.0776  0.9923 -1.0981
  839MOL0     H10706   4.042   8.812   2.327 -1.2202 -0.5730  0.1458
  839MOL0     H10707   4.060   8.990   2.327 -1.4736  1.0512 -0.8790
  839MOL0     H10708   3.835   9.011   2.222 -1.2513 -2.5373 -4.4266
  839MOL0     H10709   3.816   8.913   2.373 -0.7777 -0.7173 -1.0622
  839MOL0     H10710   3.618   9.015   2.260 -0.9359  0.7378  1.4295
  839MOL0     H10711   3.372   8.985   2.221  1.0705  1.1049  1.1768
  839MOL0     H10712   3.003   8.646   2.219  1.9817 -0.3749  0.3165
  839MOL0     H10713   2.769   8.586   2.172  1.6632  0.0830  1.1715
  839MOL0     H10714   2.580   8.707   1.859  1.3926 -2.2475 -1.0581
  839MOL0     H10715   2.550   8.688   2.038  3.4464  1.0043  0.4716
  839MOL0     H10716   2.332   8.632   1.912  0.9613  1.3555 -1.0846
  839MOL0     H10717   2.412   8.508   2.010  0.2114 -0.9518 -0.2430
  839MOL0     H10718   2.508   8.426   1.769  0.2287 -0.1421  0.3737
  839MOL0     H10719   2.425   8.573   1.706 -0.8555 -1.9802 -2.3531
  839MOL0     H10720   2.289   8.358   1.854  2.2087  0.7043  0.9402
  839MOL0     H10721   2.215   8.477   1.743 -0.7700 -1.2769  2.2595
  839MOL0     H10722   2.358   8.222   1.660 -0.8178 -0.7914 -3.3541
  839MOL0     H10723   2.377   8.373   1.563 -0.5544  0.7039 -0.1461
  839MOL0     H10724   2.215   8.282   1.462  1.2075  2.9471 -0.9746
  839MOL0     H10725   2.140   8.401   1.558  1.0810  0.6626 -1.1132
  839MOL0     H10726   2.152   8.104   1.658  0.9220  1.1281 -1.4834
  839MOL0     H10727   2.046   8.237   1.720  0.7413 -3.1094  2.4879
  839MOL0     H10728   1.910   8.211   1.508 -2.4931 -1.3659  1.2427
  839MOL0     H10729   1.906   8.098   1.634  0.0409 -0.3603 -0.7907
  839MOL0     H10730   2.864   8.567   1.756  0.8069  1.7719  0.4001
  839MOL0     H10731   3.099   8.607   1.811  0.9705  0.4588  1.0353
  839MOL0     H10732   3.431   8.577   2.106 -0.5843  2.6698 -3.5290
  839MOL0     H10733   3.680   8.603   2.134 -2.4798 -2.1324 -0.0441
  839MOL0     H10734   3.594   9.958   1.734  1.8527  0.5706  0.1909
  839MOL0     H10735   3.342   9.919   1.730  3.2938 -1.2530 -1.0400
  839MOL0     H10736   3.012   9.627   1.810  0.4852  1.1554  1.8107
  839MOL0     H10737   2.768   9.587   1.787 -0.8606 -1.8679  1.6060
  839MOL0     H10738   2.540   9.553   1.875  1.7130 -0.2435 -1.0920
  839MOL0     H10739   2.532   9.618   1.724  0.5180 -2.3563 -0.1089
  839MOL0     H10740   2.305   9.586   1.770 -0.8731 -0.4048 -1.6228
  839MOL0     H10741   2.307   9.698   1.909 -0.5763 -3.8484 -0.4700
  839MOL0     H10742   2.361   9.756   1.603  1.2536  2.7353 -0.1716
  839MOL0     H10743   2.397   9.871   1.731 -0.7255 -1.3022  2.2472
  839MOL0     H10744   2.115   9.761   1.700  1.4634 -2.3612 -0.3300
  839MOL0     H10745   2.179   9.891   1.811  1.6186  1.1718 -0.3448
  839MOL0     H10746   2.133  10.077   1.434  1.5088  2.0653  1.4422
  839MOL0     H10747   2.698   9.996   1.905  0.2599 -0.2260 -0.9104
  839MOL0     H10748   2.919  10.036   1.922  0.6327 -1.1071  0.9650
  840MOL0     O10749   2.575   7.766   2.534 -1.2027  0.6151 -0.1519
  840MOL0     C10750   2.552   7.881   2.563 -0.5813 -0.0293 -0.2690
  840MOL0     O10751   2.427   7.930   2.600 -0.0407  0.4278 -0.5696
  840MOL0     C10752   2.321   7.851   2.580  0.8595 -0.3219 -0.2193
  840MOL0     C10753   2.209   7.919   2.526  0.7655  0.5868  0.2881
  840MOL0     C10754   2.095   7.850   2.499  0.7575  0.8761  0.2873
  840MOL0     C10755   2.072   7.729   2.558 -0.3662 -0.8540 -0.0117
  840MOL0     O10756   1.938   7.684   2.549  0.7652 -0.3951  0.8018
  840MOL0     C10757   1.850   7.727   2.658 -0.7690 -0.1733  0.5637
  840MOL0     C10758   1.726   7.788   2.592  1.1259  0.4079 -0.1018
  840MOL0     C10759   1.597   7.786   2.688 -0.2629  0.0915  0.4143
  840MOL0     C10760   1.547   7.640   2.691 -0.5903 -0.1090 -0.2592
  840MOL0     C10761   1.440   7.630   2.794  0.6415  0.3480  0.0928
  840MOL0     C10762   1.377   7.487   2.816 -0.0862 -0.3788  0.3882
  840MOL0     C10763   1.264   7.482   2.924 -0.4817 -0.3015 -0.0886
  840MOL0     C10764   1.128   7.492   2.858 -0.6035 -0.4701  0.4434
  840MOL0     N10765   1.022   7.534   2.956  0.1268 -0.1508 -0.0239
  840MOL0     C10766   1.023   7.508   3.091 -0.9589 -0.7135  0.1341
  840MOL0     C10767   0.898   7.543   3.127 -0.7380  0.2471  0.0857
  840MOL0     C10768   0.847   7.554   3.269 -0.0739 -0.1956  0.2250
  840MOL0     C10769   0.896   7.458   3.378 -0.2689 -0.2302 -0.0081
  840MOL0     C10770   0.859   7.312   3.348 -0.3147  0.0689 -0.4618
  840MOL0     C10771   0.706   7.300   3.334  0.5687  0.9612  0.2355
  840MOL0     O10772   0.681   7.159   3.327 -0.0794  0.3664  0.1762
  840MOL0     C10773   0.549   7.132   3.300  0.6458 -0.2183 -0.3492
  840MOL0     C10774   0.510   7.005   3.334  1.5640  0.7082 -0.1315
  840MOL0     C10775   0.379   6.959   3.319  0.0536 -0.3767  0.3934
  840MOL0     C10776   0.279   7.051   3.274 -0.5475 -0.1314  0.1013
  840MOL0     C10777   0.133   7.016   3.280  1.3490  0.3703 -0.9735
  840MOL0     O10778   0.040   7.117   3.243  0.0990 -0.4552  0.0004
  840MOL0     C10779  -0.083   7.071   3.215 -0.0757 -0.4415  0.6059
  840MOL0     C10780  -0.100   6.986   3.107  0.0123  0.2399  0.7037
  840MOL0     C10781  -0.225   6.930   3.070 -0.0496  0.0183  0.2356
  840MOL0     C10782  -0.343   6.977   3.144  0.2252 -0.1779  0.1094
  840MOL0     O10783  -0.464   6.908   3.124 -0.0703  0.4948 -0.8652
  840MOL0     C10784  -0.574   6.998   3.111  0.7051  0.4191  0.3732
  840MOL0     C10785  -0.689   6.926   3.057  0.0722 -0.1189 -0.5285
  840MOL0     C10786  -0.805   7.017   3.065  0.3112  0.5685 -0.3376
  840MOL0     C10787  -0.927   6.953   3.001 -0.2635 -0.3295 -0.0817
  840MOL0     C10788  -1.056   7.036   3.023  0.2223 -0.1274 -0.4497
  840MOL0     C10789  -1.179   6.990   2.944  0.7385  0.2204  0.5321
  840MOL0     C10790  -1.313   7.032   3.004  1.0106  0.4132 -0.1022
  840MOL0     C10791  -1.444   6.968   2.950  0.8395  0.2652  0.9212
  840MOL0    Cl10792  -1.579   7.043   3.035  0.4096  0.0530  0.3332
  840MOL0     C10793  -0.320   7.062   3.254 -0.5573 -0.6592  0.3332
  840MOL0     C10794  -0.193   7.113   3.286  0.2055 -0.3187  0.4523
  840MOL0     O10795   0.113   6.897   3.312 -0.0269 -0.2793  0.2137
  840MOL0     C10796   0.323   7.185   3.238  0.5167  0.7147 -1.0120
  840MOL0     C10797   0.454   7.224   3.255 -0.6094 -0.0262 -0.1194
  840MOL0     N10798   0.830   7.592   3.019  0.0899  1.1352 -0.5311
  840MOL0     N10799   0.909   7.575   2.916  0.4138  0.7133  0.9431
  840MOL0     C10800   2.182   7.662   2.624  0.2861 -0.6338 -0.0953
  840MOL0     C10801   2.309   7.724   2.643  0.0627 -0.7872 -0.0480
  840MOL0     C10802   2.665   7.979   2.568 -1.7031 -0.4045  0.6494
  840MOL0     C10803   2.643   8.114   2.603  0.4223  0.3783  0.5804
  840MOL0     C10804   2.740   8.207   2.617  0.6251 -0.3494  0.0621
  840MOL0     C10805   2.872   8.172   2.585  0.7278  0.1395  0.4302
  840MOL0     O10806   2.969   8.265   2.611 -0.3586  0.0361 -0.0269
  840MOL0     C10807   3.108   8.213   2.628  0.3439  0.9312  0.9985
  840MOL0     C10808   3.207   8.329   2.654 -0.4279 -0.3718  0.4237
  840MOL0     C10809   3.265   8.411   2.535  0.6193  0.0184  0.0554
  840MOL0     C10810   3.161   8.505   2.475  0.1999 -0.0692  0.2179
  840MOL0     C10811   3.131   8.623   2.562 -0.2066  0.3038  1.1441
  840MOL0     C10812   3.127   8.703   2.653  0.2638  0.1359 -0.2879
  840MOL0     C10813   2.900   8.039   2.534  0.1515 -0.5738 -1.0414
  840MOL0     C10814   2.793   7.943   2.538 -0.6730  0.4793  0.7177
  840MOL0     H10815   2.214   8.024   2.498  0.4510  0.7425  0.8102
  840MOL0     H10816   2.011   7.897   2.449  0.9749 -0.2554 -1.1858
  840MOL0     H10817   1.910   7.806   2.706 -0.8589  1.4568 -1.8465
  840MOL0     H10818   1.839   7.641   2.725 -4.4263  1.5159  2.4144
  840MOL0     H10819   1.685   7.737   2.504 -0.2278  0.9810  0.1640
  840MOL0     H10820   1.754   7.887   2.555  0.2154  1.1550  1.1155
  840MOL0     H10821   1.521   7.854   2.648  1.1321  0.8272 -1.1698
  840MOL0     H10822   1.620   7.818   2.790  0.4029 -2.7723  1.2612
  840MOL0     H10823   1.511   7.618   2.590 -1.6733  2.1397 -0.4214
  840MOL0     H10824   1.626   7.573   2.727 -2.1717 -1.5429  0.7243
  840MOL0     H10825   1.356   7.698   2.773 -1.1684 -2.2354 -1.7412
  840MOL0     H10826   1.494   7.653   2.886  1.6630 -0.3407 -0.3172
  840MOL0     H10827   1.463   7.424   2.843  1.4377  1.1920 -0.5766
  840MOL0     H10828   1.333   7.452   2.722  0.0713  1.1571 -0.2863
  840MOL0     H10829   1.271   7.385   2.975 -1.9131 -1.1539 -1.4254
  840MOL0     H10830   1.296   7.562   2.992  2.6288  1.8136 -3.6661
  840MOL0     H10831   1.101   7.397   2.812  1.8848 -0.5078 -1.1289
  840MOL0     H10832   1.135   7.564   2.776  0.7246  1.0991  1.8488
  840MOL0     H10833   1.089   7.466   3.166 -1.4787 -0.4399  0.7518
  840MOL0     H10834   0.738   7.556   3.262 -0.0455 -2.2868 -3.7636
  840MOL0     H10835   0.873   7.655   3.301  1.1255 -0.2921 -0.3439
  840MOL0     H10836   0.840   7.491   3.466  0.6091  1.6686 -0.1217
  840MOL0     H10837   1.002   7.475   3.400 -0.7030  1.7662  0.7508
  840MOL0     H10838   0.912   7.299   3.253  1.5505 -1.0992  0.6807
  840MOL0     H10839   0.888   7.247   3.431  2.2078  0.0184 -1.2959
  840MOL0     H10840   0.686   7.348   3.237 -0.1080  0.9417  0.3634
  840MOL0     H10841   0.645   7.339   3.415 -1.5786 -2.7676  0.6282
  840MOL0     H10842   0.581   6.944   3.387 -0.8185 -2.6955 -0.5311
  840MOL0     H10843   0.336   6.864   3.349 -1.9949 -1.2534 -4.4404
  840MOL0     H10844  -0.014   6.952   3.049 -0.9089 -1.8981  0.5075
  840MOL0     H10845  -0.229   6.858   2.988  3.8152 -0.9276  0.7265
  840MOL0     H10846  -0.554   7.092   3.058  1.3760  0.0855  0.0155
  840MOL0     H10847  -0.596   7.032   3.213  0.9931 -1.8557  1.2444
  840MOL0     H10848  -0.711   6.833   3.111 -0.8239  1.1282  1.3661
  840MOL0     H10849  -0.667   6.913   2.951  0.4934  0.5192 -0.5264
  840MOL0     H10850  -0.780   7.110   3.014  0.1791  0.4776 -0.5706
  840MOL0     H10851  -0.825   7.036   3.171 -1.4316 -1.6899 -0.1621
  840MOL0     H10852  -0.898   6.940   2.896  2.2311  0.3302  0.4484
  840MOL0     H10853  -0.946   6.860   3.056  0.9296  0.0114  0.9471
  840MOL0     H10854  -1.040   7.144   3.034 -2.2319  0.3116 -0.6373
  840MOL0     H10855  -1.075   7.016   3.129 -2.2859  2.8327 -0.1904
  840MOL0     H10856  -1.175   6.881   2.935 -0.5665  0.1933 -0.0116
  840MOL0     H10857  -1.169   7.032   2.844 -0.1688 -1.3808 -0.2755
  840MOL0     H10858  -1.303   6.995   3.106  1.7097  0.2080 -0.2375
  840MOL0     H10859  -1.327   7.140   3.008  2.3039  0.6101 -0.3515
  840MOL0     H10860  -1.433   6.859   2.953 -2.5173 -0.3871 -2.4844
  840MOL0     H10861  -1.455   6.993   2.844  1.1122 -0.3614  0.7379
  840MOL0     H10862  -0.409   7.084   3.312 -1.6306 -1.9422 -0.7541
  840MOL0     H10863  -0.195   7.183   3.369  1.8518 -1.9204  1.9366
  840MOL0     H10864   0.254   7.253   3.189 -0.3431 -0.2759 -1.2042
  840MOL0     H10865   0.477   7.324   3.219 -0.9636 -0.4317 -1.5362
  840MOL0     H10866   2.162   7.568   2.675 -0.4513 -0.2978  0.2416
  840MOL0     H10867   2.392   7.674   2.692 -0.0395 -1.6443 -0.7380
  840MOL0     H10868   2.541   8.138   2.631  0.0487  0.7664 -0.9768
  840MOL0     H10869   2.723   8.308   2.653 -0.1636  0.1358 -1.5953
  840MOL0     H10870   3.146   8.166   2.537 -1.1157  4.5531 -1.7416
  840MOL0     H10871   3.119   8.137   2.706 -0.8487  0.7325  0.9950
  840MOL0     H10872   3.142   8.398   2.710  0.3006  0.8694 -0.2356
  840MOL0     H10873   3.284   8.289   2.721  0.1621  1.0722  0.6568
  840MOL0     H10874   3.302   8.341   2.460  1.6292 -1.2754  1.6839
  840MOL0     H10875   3.352   8.467   2.571  0.9083  1.0079 -2.0290
  840MOL0     H10876   3.190   8.547   2.378  2.5809 -1.9264  0.0233
  840MOL0     H10877   3.072   8.446   2.454 -1.3896  1.9333  1.0262
  840MOL0     H10878   3.135   8.765   2.740  0.2505 -1.4316  0.8852
  840MOL0     H10879   3.006   8.019   2.522  1.5946  3.2801  2.6264
  840MOL0     H10880   2.825   7.844   2.507 -1.0577  0.0254  1.7213
  841MOL0     O10881   6.310   1.030   7.849  0.7280 -0.3314  0.0894
  841MOL0     C10882   6.266   1.133   7.796 -0.4387  0.8985  0.5167
  841MOL0     O10883   6.133   1.171   7.793  0.2105 -0.1096 -0.1746
  841MOL0     C10884   6.031   1.095   7.839 -0.2681 -0.0731 -0.4984
  841MOL0     C10885   5.912   1.162   7.875  0.6644 -0.7220  0.7307
  841MOL0     C10886   5.801   1.090   7.930  0.3365 -0.6400 -0.0825
  841MOL0     C10887   5.798   0.949   7.927 -0.6962 -0.2894  0.4268
  841MOL0     O10888   5.697   0.857   7.950 -0.0469  1.1055 -0.0245
  841MOL0     C10889   5.561   0.906   7.933 -0.0650  0.0977 -0.2153
  841MOL0     C10890   5.462   0.785   7.933 -0.7301 -0.7466 -0.7715
  841MOL0     C10891   5.319   0.842   7.967  1.1538 -0.2116 -0.3105
  841MOL0     C10892   5.271   0.924   7.849  0.8604 -0.5780 -0.3948
  841MOL0     C10893   5.128   0.980   7.863  0.8941  0.9327  0.4388
  841MOL0     C10894   5.021   0.875   7.825  0.3582 -0.6241  0.3794
  841MOL0     C10895   4.894   0.921   7.897 -0.4505 -0.3190  0.1642
  841MOL0     C10896   4.790   0.815   7.854 -0.1487 -0.1116 -0.0302
  841MOL0     N10897   4.657   0.856   7.904 -0.4428 -0.4855  0.0237
  841MOL0     C10898   4.543   0.799   7.857  0.1822 -0.3940 -0.3981
  841MOL0     C10899   4.447   0.871   7.915  0.1232  0.1175  0.7944
  841MOL0     C10900   4.297   0.855   7.889 -0.4708 -0.2366  0.1269
  841MOL0     C10901   4.236   0.775   8.010  0.1837  0.2177  0.7802
  841MOL0     C10902   4.078   0.770   8.025  0.3307 -0.7766 -0.6330
  841MOL0     C10903   4.010   0.900   8.077 -0.0263  0.3539 -0.4605
  841MOL0     O10904   3.872   0.899   8.086  0.1599 -0.4044 -0.2595
  841MOL0     C10905   3.811   0.992   8.164  0.6844  0.2965  0.1680
  841MOL0     C10906   3.876   1.085   8.248  0.4031 -0.2225  0.6476
  841MOL0     C10907   3.796   1.171   8.326  0.7062  0.1794  0.4484
  841MOL0     C10908   3.656   1.156   8.317  0.2376 -0.6063  0.1573
  841MOL0     C10909   3.565   1.234   8.406 -0.6872 -0.7794  0.0687
  841MOL0     O10910   3.439   1.210   8.389  0.3358  0.5239  0.5458
  841MOL0     C10911   3.346   1.275   8.473  0.3656 -0.9029  0.2386
  841MOL0     C10912   3.278   1.195   8.574  0.5895 -0.1473  0.6546
  841MOL0     C10913   3.169   1.252   8.639 -0.2459  0.4611 -0.7297
  841MOL0     C10914   3.140   1.387   8.631 -1.5001  0.6723 -0.8648
  841MOL0     O10915   3.056   1.434   8.727 -0.1551 -0.4485  0.0056
  841MOL0     C10916   3.030   1.576   8.730 -0.3549  0.1536  0.8544
  841MOL0     C10917   2.960   1.631   8.847  0.0809  0.0637 -0.1649
  841MOL0     C10918   2.953   1.794   8.840  0.4167  0.9926  0.0523
  841MOL0     C10919   2.875   1.864   8.723  0.2779  0.7237 -0.1328
  841MOL0     C10920   2.808   1.991   8.752  0.4157  0.1538 -0.7821
  841MOL0     C10921   2.915   2.098   8.802 -0.6681 -0.7361 -0.2062
  841MOL0     C10922   2.846   2.237   8.804  0.4235  0.1606 -0.1065
  841MOL0     C10923   2.944   2.341   8.860  0.4806 -0.3103  0.7645
  841MOL0    Cl10924   2.864   2.503   8.856  0.1341 -0.1967  0.1499
  841MOL0     C10925   3.200   1.465   8.527  0.2492 -0.2904  0.7138
  841MOL0     C10926   3.304   1.413   8.446 -0.9191 -0.4114 -0.2906
  841MOL0     O10927   3.605   1.319   8.487 -1.1289  0.2782  0.4986
  841MOL0     C10928   3.586   1.073   8.218 -0.5413  0.0515 -0.1695
  841MOL0     C10929   3.672   0.990   8.149 -0.9923 -0.1890  0.6933
  841MOL0     N10930   4.496   0.968   8.000  0.4925 -0.7396 -0.5489
  841MOL0     N10931   4.623   0.959   7.993  0.2087  0.2383 -0.0999
  841MOL0     C10932   5.918   0.890   7.891 -0.1676  0.2931 -0.3198
  841MOL0     C10933   6.034   0.958   7.842 -0.0966  0.7694 -0.3001
  841MOL0     C10934   6.359   1.228   7.724 -0.6187 -0.6293  0.1069
  841MOL0     C10935   6.500   1.242   7.744  0.8106 -0.4265  0.0898
  841MOL0     C10936   6.576   1.310   7.652 -0.5705 -0.1192  0.5801
  841MOL0     C10937   6.521   1.383   7.543 -0.0464 -0.0104  0.0888
  841MOL0     O10938   6.613   1.449   7.465 -0.3290 -0.0213  0.1273
  841MOL0     C10939   6.563   1.504   7.347 -0.8750  0.0310 -1.0810
  841MOL0     C10940   6.675   1.570   7.271 -0.0757 -0.1618  0.7421
  841MOL0     C10941   6.722   1.714   7.322 -0.7504 -0.0181  0.2524
  841MOL0     C10942   6.858   1.752   7.264  0.1454  0.2990  0.0048
  841MOL0     C10943   6.856   1.771   7.120 -0.7519 -0.0287  0.6657
  841MOL0     C10944   6.880   1.793   7.003  0.0130 -0.8309  0.6413
  841MOL0     C10945   6.381   1.384   7.538 -0.3818  0.5851 -0.3616
  841MOL0     C10946   6.301   1.311   7.626 -0.7955 -0.4126  0.5151
  841MOL0     H10947   5.909   1.270   7.867  1.1408 -0.6317  1.6242
  841MOL0     H10948   5.708   1.142   7.952  0.3189 -0.8106  0.2564
  841MOL0     H10949   5.542   0.966   7.843 -3.6833 -0.2920  0.1206
  841MOL0     H10950   5.539   0.975   8.015  2.5458  1.5007 -0.6063
  841MOL0     H10951   5.480   0.715   8.014 -1.5998  1.5988  1.5835
  841MOL0     H10952   5.464   0.724   7.842  1.8614  0.0837 -1.3636
  841MOL0     H10953   5.303   0.906   8.055 -0.5662  1.6663 -1.8752
  841MOL0     H10954   5.256   0.753   7.972  0.3870  0.2330 -1.5660
  841MOL0     H10955   5.336   1.008   7.825 -0.4487  0.7626  0.5671
  841MOL0     H10956   5.263   0.850   7.769  0.8774 -0.0040 -0.9321
  841MOL0     H10957   5.123   1.063   7.793  1.9997  2.5613  2.1833
  841MOL0     H10958   5.104   1.017   7.963 -4.6631 -1.0111  0.1525
  841MOL0     H10959   5.046   0.774   7.859 -0.1578 -0.6988  0.5425
  841MOL0     H10960   5.012   0.860   7.717 -2.0854 -1.0056  0.5811
  841MOL0     H10961   4.895   0.928   8.006 -0.0900  1.4906  0.0748
  841MOL0     H10962   4.865   1.021   7.865  2.0590 -0.2912 -2.3991
  841MOL0     H10963   4.826   0.722   7.899 -0.9117 -1.6451 -2.4356
  841MOL0     H10964   4.780   0.801   7.746  0.1424  5.4924 -1.1055
  841MOL0     H10965   4.532   0.722   7.782  1.0415  0.5484 -1.5328
  841MOL0     H10966   4.265   0.822   7.789  0.3624  0.2132 -0.3026
  841MOL0     H10967   4.256   0.956   7.896 -0.3479 -0.2782  1.6120
  841MOL0     H10968   4.266   0.819   8.105 -1.6041 -1.2078  2.0852
  841MOL0     H10969   4.269   0.672   7.999 -0.5223 -0.0965  1.4877
  841MOL0     H10970   4.027   0.738   7.934  0.8275 -3.9658  0.1146
  841MOL0     H10971   4.059   0.702   8.108  1.3223 -3.2354 -2.3146
  841MOL0     H10972   4.024   0.975   7.999 -0.0853  0.9315  0.0789
  841MOL0     H10973   4.065   0.927   8.168  2.4145  1.2510 -2.1225
  841MOL0     H10974   3.980   1.112   8.262  0.4958  0.1635 -0.6603
  841MOL0     H10975   3.842   1.239   8.397  1.9067  0.6616 -0.7514
  841MOL0     H10976   3.321   1.097   8.588  0.7810  0.1073  1.9824
  841MOL0     H10977   3.116   1.189   8.709  0.2197  2.2895  1.3869
  841MOL0     H10978   2.985   1.593   8.632 -1.5899  1.0346  1.5436
  841MOL0     H10979   3.128   1.626   8.728 -0.3000  0.0297  0.3585
  841MOL0     H10980   3.016   1.593   8.934 -0.1861 -1.1311 -0.5025
  841MOL0     H10981   2.859   1.592   8.858 -0.8001  2.1523 -0.3902
  841MOL0     H10982   3.054   1.835   8.842  1.2367 -0.8834 -0.0724
  841MOL0     H10983   2.895   1.821   8.929 -0.2241  0.2138 -0.1152
  841MOL0     H10984   2.950   1.876   8.645  0.6888 -1.5338 -0.1448
  841MOL0     H10985   2.794   1.796   8.693  0.2931  0.2631  0.8421
  841MOL0     H10986   2.731   1.976   8.829  1.4906 -1.5740  0.0078
  841MOL0     H10987   2.761   2.011   8.655 -0.8085 -5.0797 -1.5693
  841MOL0     H10988   3.002   2.096   8.736  1.4421  1.0197  2.3079
  841MOL0     H10989   2.941   2.077   8.906  1.8821  2.3140 -0.1043
  841MOL0     H10990   2.817   2.269   8.704  1.2559 -1.3955 -0.8927
  841MOL0     H10991   2.748   2.233   8.851  0.0369 -0.3976 -0.9521
  841MOL0     H10992   3.033   2.346   8.797  0.7850 -0.3122  1.1920
  841MOL0     H10993   2.975   2.327   8.964 -0.5617 -1.3818  0.9624
  841MOL0     H10994   3.181   1.571   8.511  2.6942  0.1206  0.0824
  841MOL0     H10995   3.363   1.473   8.378 -0.0142 -1.8700 -0.8436
  841MOL0     H10996   3.478   1.065   8.225 -0.5531 -0.2112 -0.6472
  841MOL0     H10997   3.639   0.914   8.080  3.5384 -1.7739 -0.0427
  841MOL0     H10998   5.926   0.782   7.879  0.9951  0.2539  0.6653
  841MOL0     H10999   6.118   0.901   7.802  0.7434  2.5354 -1.1605
  841MOL0     H11000   6.549   1.186   7.824  1.3425 -0.2774 -0.1233
  841MOL0     H11001   6.684   1.312   7.657 -0.4328 -2.3330 -0.1769
  841MOL0     H11002   6.494   1.587   7.363  2.3048  3.0165 -1.4040
  841MOL0     H11003   6.525   1.427   7.279 -1.1057 -2.9578  2.1696
  841MOL0     H11004   6.762   1.504   7.267  1.4886  1.7431  1.4472
  841MOL0     H11005   6.640   1.586   7.168  0.8180 -1.2621  0.2502
  841MOL0     H11006   6.740   1.698   7.428 -2.3979  0.1866  0.5875
  841MOL0     H11007   6.645   1.788   7.301 -1.6416 -1.0384 -0.2096
  841MOL0     H11008   6.887   1.845   7.314  0.7082 -0.2366  0.6938
  841MOL0     H11009   6.927   1.669   7.281 -2.2801 -2.1835 -1.3913
  841MOL0     H11010   6.916   1.799   6.902  0.4076 -2.3070  0.6742
  841MOL0     H11011   6.341   1.442   7.455 -3.2428 -3.0128 -1.7621
  841MOL0     H11012   6.193   1.319   7.615 -0.6977  0.5940  0.1603
  842MOL0     O11013   1.300   4.595   3.292  0.1117 -0.6487  0.0207
  842MOL0     C11014   1.344   4.628   3.186  0.0619  0.2428  1.0766
  842MOL0     O11015   1.284   4.597   3.069  0.4008 -0.2115  0.2231
  842MOL0     C11016   1.147   4.606   3.081 -0.7235 -0.4006  0.4061
  842MOL0     C11017   1.079   4.726   3.061 -0.1825 -0.4655 -0.2500
  842MOL0     C11018   0.939   4.737   3.090 -0.2480  0.4808 -0.5694
  842MOL0     C11019   0.870   4.633   3.144  0.9518  0.0936  0.5154
  842MOL0     O11020   0.736   4.621   3.155  0.3281  0.0986  0.3092
  842MOL0     C11021   0.660   4.706   3.060 -0.0438 -0.3034 -0.0357
  842MOL0     C11022   0.520   4.676   3.108  0.7877 -0.2808  0.2269
  842MOL0     C11023   0.410   4.751   3.034  0.5213  0.3343  0.4578
  842MOL0     C11024   0.268   4.749   3.101 -0.0462 -0.3886  0.6938
  842MOL0     C11025   0.160   4.817   3.022  0.3227 -0.5641 -0.1808
  842MOL0     C11026   0.038   4.847   3.105  0.7175  0.2687 -0.6233
  842MOL0     C11027  -0.094   4.890   3.034 -0.6065  0.5263 -0.5412
  842MOL0     C11028  -0.232   4.860   3.101  0.2398  0.2046  0.3155
  842MOL0     N11029  -0.327   4.858   2.987 -0.8146 -0.2450  0.3600
  842MOL0     C11030  -0.354   4.968   2.911  0.5175  0.3324 -0.0883
  842MOL0     C11031  -0.446   4.929   2.829  0.4877  0.0753  0.4690
  842MOL0     C11032  -0.489   5.018   2.718  0.4513  0.0034 -0.3657
  842MOL0     C11033  -0.498   4.952   2.584  0.3340 -0.3144  0.5140
  842MOL0     C11034  -0.540   5.065   2.484  0.1813 -0.5713  0.9248
  842MOL0     C11035  -0.568   5.000   2.344  0.7458 -0.7455  0.1913
  842MOL0     O11036  -0.666   5.077   2.271  0.1949 -0.1389 -0.4058
  842MOL0     C11037  -0.793   5.035   2.299 -0.0222 -0.4503  0.3111
  842MOL0     C11038  -0.842   4.904   2.310 -0.5859 -0.3513  0.1702
  842MOL0     C11039  -0.975   4.870   2.314 -0.1300  0.3066 -0.1826
  842MOL0     C11040  -1.072   4.971   2.303 -0.6279 -0.3011  0.3209
  842MOL0     C11041  -1.218   4.946   2.312  0.3103  0.3695  0.4208
  842MOL0     O11042  -1.243   4.812   2.339 -0.2414  0.1872  0.4618
  842MOL0     C11043  -1.365   4.776   2.389  0.1386  0.3756 -0.0916
  842MOL0     C11044  -1.420   4.837   2.502  0.1698 -0.3941  0.5126
  842MOL0     C11045  -1.539   4.796   2.562  1.3721  0.2717  0.9472
  842MOL0     C11046  -1.621   4.694   2.494 -0.2293 -0.4398  0.5000
  842MOL0     O11047  -1.744   4.654   2.540 -0.1878 -0.9724  0.0618
  842MOL0     C11048  -1.807   4.737   2.641 -0.0678 -0.1817  0.2924
  842MOL0     C11049  -1.873   4.862   2.567 -0.1984  0.6230  0.0735
  842MOL0     C11050  -1.965   4.942   2.656 -0.8109  0.1653 -0.3102
  842MOL0     C11051  -2.025   5.077   2.600  0.5984  0.4376 -0.3836
  842MOL0     C11052  -2.109   5.151   2.698  0.4312 -1.4292 -0.8133
  842MOL0     C11053  -2.238   5.078   2.718 -0.5543 -0.7349 -0.3308
  842MOL0     C11054  -2.338   5.162   2.804  0.5493  0.5638  0.8136
  842MOL0     C11055  -2.413   5.277   2.725  0.6498 -0.0826 -0.2278
  842MOL0    Cl11056  -2.498   5.215   2.583  0.2266 -0.1315  0.3944
  842MOL0     C11057  -1.567   4.643   2.375 -0.4808  0.2498  0.4280
  842MOL0     C11058  -1.437   4.670   2.334 -0.8078  0.2229 -0.3146
  842MOL0     O11059  -1.300   5.033   2.294  0.3547  0.1010 -0.6471
  842MOL0     C11060  -1.022   5.109   2.290  0.9869 -0.6525 -0.2082
  842MOL0     C11061  -0.889   5.135   2.296  0.2631 -0.1022  0.4256
  842MOL0     N11062  -0.470   4.793   2.856 -0.0057  0.2794  0.5468
  842MOL0     N11063  -0.393   4.751   2.944  0.3428  0.1514 -1.5931
  842MOL0     C11064   0.944   4.514   3.179  0.3067  0.4266 -0.6728
  842MOL0     C11065   1.080   4.503   3.147  0.4003 -0.2773  0.1709
  842MOL0     C11066   1.477   4.697   3.190 -0.5807 -0.0196  1.0181
  842MOL0     C11067   1.549   4.703   3.313  0.7903 -0.6743  0.8445
  842MOL0     C11068   1.675   4.776   3.314 -0.1908 -0.2845  0.0952
  842MOL0     C11069   1.731   4.830   3.197  0.1527  0.1352  0.7308
  842MOL0     O11070   1.841   4.910   3.197 -0.6941 -0.4406 -0.5195
  842MOL0     C11071   1.947   4.883   3.292 -0.3294 -0.7015  0.1379
  842MOL0     C11072   2.069   4.927   3.207 -0.2013  0.4012  0.8037
  842MOL0     C11073   2.199   4.948   3.287  0.6408  0.5372  0.8306
  842MOL0     C11074   2.232   4.839   3.385  1.0798 -0.1110  0.3440
  842MOL0     C11075   2.241   4.716   3.309  0.3399  0.6171  0.8735
  842MOL0     C11076   2.257   4.617   3.234  0.2306 -1.4138  0.0415
  842MOL0     C11077   1.659   4.817   3.077  0.6314  0.1476 -0.1407
  842MOL0     C11078   1.532   4.752   3.075  0.4868  0.1698  0.3809
  842MOL0     H11079   1.131   4.813   3.023 -1.5780  0.5921  0.1775
  842MOL0     H11080   0.882   4.828   3.074  2.6388  2.7435  0.9740
  842MOL0     H11081   0.675   4.686   2.953 -2.3031  4.2279 -1.4398
  842MOL0     H11082   0.680   4.812   3.078 -0.4017 -0.2825  0.2310
  842MOL0     H11083   0.508   4.697   3.215 -0.1511  0.4346 -0.0049
  842MOL0     H11084   0.505   4.568   3.100  0.1169 -0.1498 -0.3947
  842MOL0     H11085   0.394   4.706   2.936 -0.2310  1.8826 -0.1577
  842MOL0     H11086   0.435   4.856   3.014  0.1886  0.6917  1.8018
  842MOL0     H11087   0.235   4.648   3.127  0.5741 -1.6566 -2.9046
  842MOL0     H11088   0.275   4.812   3.190 -3.1843  0.9702  0.1370
  842MOL0     H11089   0.127   4.758   2.936 -1.3331 -0.1530  0.1319
  842MOL0     H11090   0.195   4.911   2.979  1.2176 -0.6421  0.3546
  842MOL0     H11091   0.057   4.925   3.179 -0.6124  0.5676 -0.5738
  842MOL0     H11092   0.011   4.756   3.158 -0.6316  1.0824  0.1481
  842MOL0     H11093  -0.095   4.998   3.019 -2.3271  0.5522 -0.4874
  842MOL0     H11094  -0.075   4.841   2.938  0.0139 -1.4492  0.5367
  842MOL0     H11095  -0.271   4.937   3.169 -0.3004 -0.1324  0.3948
  842MOL0     H11096  -0.226   4.763   3.150  1.0057 -1.5332 -2.9522
  842MOL0     H11097  -0.308   5.066   2.909 -1.5289  1.3284 -1.0770
  842MOL0     H11098  -0.407   5.089   2.711 -0.2520  1.1284  1.8673
  842MOL0     H11099  -0.584   5.061   2.752  0.2520 -1.7322  1.4025
  842MOL0     H11100  -0.577   4.875   2.589 -0.1287  0.1416  0.3549
  842MOL0     H11101  -0.401   4.912   2.555  0.6365  1.3559 -0.9780
  842MOL0     H11102  -0.626   5.129   2.506 -0.7243 -1.4940  0.2087
  842MOL0     H11103  -0.457   5.136   2.478 -0.4572  0.1035 -0.6307
  842MOL0     H11104  -0.603   4.898   2.360 -3.2741  0.6637  1.6107
  842MOL0     H11105  -0.468   5.001   2.298  0.2399 -1.0691 -0.9407
  842MOL0     H11106  -0.782   4.813   2.308 -0.4959 -0.2873 -0.3001
  842MOL0     H11107  -1.012   4.768   2.318 -0.8242  0.5030 -1.1956
  842MOL0     H11108  -1.362   4.910   2.557  0.0122 -1.5864  2.3446
  842MOL0     H11109  -1.582   4.856   2.642 -1.7510 -1.2689  0.6061
  842MOL0     H11110  -1.755   4.753   2.736  2.3240 -0.3146 -0.9256
  842MOL0     H11111  -1.892   4.672   2.666 -2.1923  2.5330  0.6082
  842MOL0     H11112  -1.938   4.817   2.491 -0.3972 -0.7657  1.0326
  842MOL0     H11113  -1.806   4.930   2.513  0.6394 -0.9868 -0.9878
  842MOL0     H11114  -1.920   4.978   2.748 -3.1243  2.3260  0.0932
  842MOL0     H11115  -2.042   4.872   2.691 -0.7831 -0.4048 -1.3200
  842MOL0     H11116  -1.937   5.138   2.575  0.6894  0.4288 -0.0931
  842MOL0     H11117  -2.078   5.055   2.507  1.1154 -1.9743 -0.1800
  842MOL0     H11118  -2.136   5.247   2.652  2.1033  0.4171  1.7838
  842MOL0     H11119  -2.060   5.173   2.793 -1.2630  1.4952 -0.4721
  842MOL0     H11120  -2.214   4.987   2.775 -1.1479  1.3508  3.5830
  842MOL0     H11121  -2.282   5.037   2.627  0.3408 -2.5613  0.0066
  842MOL0     H11122  -2.421   5.099   2.840  0.1931  1.5746  1.8280
  842MOL0     H11123  -2.293   5.211   2.891 -0.1808  2.9567 -0.0939
  842MOL0     H11124  -2.338   5.349   2.692 -1.4000  2.5949  0.5218
  842MOL0     H11125  -2.481   5.328   2.794 -0.5707  1.9602 -2.7555
  842MOL0     H11126  -1.627   4.576   2.313 -0.4107  2.0074 -1.6359
  842MOL0     H11127  -1.404   4.622   2.243  1.5960 -0.8288  0.9955
  842MOL0     H11128  -1.100   5.182   2.271  1.1903  0.9636  4.0881
  842MOL0     H11129  -0.862   5.238   2.273  0.8930 -0.6955 -1.8198
  842MOL0     H11130   0.894   4.435   3.233  1.4074 -0.4303 -0.8800
  842MOL0     H11131   1.143   4.416   3.163  3.8908  1.7553 -1.4397
  842MOL0     H11132   1.508   4.651   3.399 -2.1712 -1.3100 -0.8006
  842MOL0     H11133   1.730   4.780   3.408 -0.6343 -1.1610  0.3973
  842MOL0     H11134   1.960   4.778   3.319  0.5499 -0.8940 -0.9455
  842MOL0     H11135   1.936   4.942   3.383  1.6139  3.6865 -2.1498
  842MOL0     H11136   2.087   4.858   3.125  2.5911 -0.6543  2.1939
  842MOL0     H11137   2.055   5.025   3.160  3.4874  2.2300  3.0149
  842MOL0     H11138   2.195   5.044   3.339  2.1525  2.2164 -1.8927
  842MOL0     H11139   2.276   4.966   3.211  0.0484  2.8057  0.6994
  842MOL0     H11140   2.330   4.860   3.428  0.9439  1.0365  0.1188
  842MOL0     H11141   2.155   4.831   3.462 -2.1586  1.1735 -2.5066
  842MOL0     H11142   2.254   4.524   3.182 -0.6060 -1.2517 -0.2194
  842MOL0     H11143   1.710   4.866   2.994  0.6137  2.8421  1.3401
  842MOL0     H11144   1.472   4.754   2.985 -1.2389 -2.0331  1.3919
  843MOL0     O11145   0.348   2.744   9.924  0.1432  0.0780 -0.0616
  843MOL0     C11146   0.334   2.768  10.040  0.1298 -0.1608 -0.4805
  843MOL0     O11147   0.220   2.754  10.117  0.4323 -0.4023  0.0305
  843MOL0     C11148   0.113   2.709  10.048 -0.2537 -0.0385  0.8269
  843MOL0     C11149   0.109   2.588   9.979 -0.8025 -0.2463 -0.0333
  843MOL0     C11150  -0.017   2.532   9.943  0.0724 -0.1402 -0.4654
  843MOL0     C11151  -0.139   2.597   9.984 -1.1443  0.0957  0.2164
  843MOL0     O11152  -0.249   2.522   9.956 -0.2776 -0.1800 -0.0298
  843MOL0     C11153  -0.383   2.573   9.972 -0.0205 -0.7663  0.2804
  843MOL0     C11154  -0.475   2.454   9.954  0.0083  0.9063 -0.1861
  843MOL0     C11155  -0.627   2.477   9.961 -1.1548  0.4344  0.1613
  843MOL0     C11156  -0.693   2.340   9.986  0.2403 -0.1569 -0.8257
  843MOL0     C11157  -0.831   2.374  10.048  0.5525  0.2370  0.0737
  843MOL0     C11158  -0.908   2.244  10.064  0.2756  0.7689 -0.4864
  843MOL0     C11159  -1.059   2.266  10.096 -0.3089  0.7466 -0.0751
  843MOL0     C11160  -1.068   2.317  10.239  1.3313 -0.4764 -0.1151
  843MOL0     N11161  -1.206   2.357  10.269  0.1364 -0.1725 -0.9813
  843MOL0     C11162  -1.302   2.291  10.356 -0.2799  0.0644 -0.2879
  843MOL0     C11163  -1.418   2.368  10.342 -0.5631 -1.0258  0.5300
  843MOL0     C11164  -1.558   2.327  10.379  0.0571 -0.8184 -0.8890
  843MOL0     C11165  -1.621   2.416  10.499  0.4677 -0.0519 -0.1823
  843MOL0     C11166  -1.595   2.571  10.481 -0.0878 -0.2396 -0.6455
  843MOL0     C11167  -1.680   2.661  10.569 -0.2972  0.1122  0.6924
  843MOL0     O11168  -1.698   2.789  10.500 -1.1771 -0.2559 -0.3121
  843MOL0     C11169  -1.811   2.809  10.418 -0.3695  0.1459  0.2249
  843MOL0     C11170  -1.918   2.713  10.381  0.0501 -0.5983 -0.5111
  843MOL0     C11171  -2.029   2.748  10.304  0.4832  0.0514  0.5143
  843MOL0     C11172  -2.033   2.874  10.248 -0.7677 -0.4368  1.0877
  843MOL0     C11173  -2.141   2.928  10.158 -0.1240 -0.0201 -0.4742
  843MOL0     O11174  -2.253   2.864  10.175 -0.8091 -0.3957  0.3535
  843MOL0     C11175  -2.375   2.916  10.133 -1.0204 -0.5625  0.3250
  843MOL0     C11176  -2.431   3.016  10.209  0.3647  0.9766 -0.1092
  843MOL0     C11177  -2.566   3.056  10.179  0.2784 -0.9564  0.6884
  843MOL0     C11178  -2.634   3.000  10.064  0.0091 -0.7534 -0.0955
  843MOL0     O11179  -2.756   3.034  10.025 -0.4170  0.2199  0.6706
  843MOL0     C11180  -2.857   3.063  10.120  0.0089 -0.0081  1.4613
  843MOL0     C11181  -2.874   2.945  10.219  0.7638  0.2133 -0.0715
  843MOL0     C11182  -2.900   2.810  10.149  0.0473 -0.7611  1.0174
  843MOL0     C11183  -3.026   2.738  10.202 -1.0548  1.1011 -1.4326
  843MOL0     C11184  -3.045   2.612  10.131 -0.0026 -0.6368  0.4799
  843MOL0     C11185  -3.050   2.614   9.981  0.3879 -0.0659  0.6753
  843MOL0     C11186  -3.100   2.485   9.916  0.2606  0.1371 -0.8034
  843MOL0     C11187  -3.144   2.505   9.771 -0.4407 -0.2950 -0.4917
  843MOL0    Cl11188  -3.200   2.365   9.682 -0.1399 -0.0112  0.0315
  843MOL0     C11189  -2.571   2.900   9.990  0.3937 -0.7696  0.4849
  843MOL0     C11190  -2.450   2.855  10.031 -0.9005  0.2196 -0.9774
  843MOL0     O11191  -2.124   3.035  10.100 -0.1191 -0.2404 -0.5025
  843MOL0     C11192  -1.931   2.967  10.285  0.4319  0.9368  0.1491
  843MOL0     C11193  -1.821   2.938  10.374 -0.1354  0.0149  0.5142
  843MOL0     N11194  -1.387   2.483  10.261  0.0497 -0.1084 -0.6729
  843MOL0     N11195  -1.260   2.475  10.227 -0.3906 -0.5334 -0.0666
  843MOL0     C11196  -0.133   2.726  10.032 -0.1156  0.0145  0.0632
  843MOL0     C11197  -0.005   2.776  10.067 -0.9314  0.2038 -0.4618
  843MOL0     C11198   0.450   2.813  10.116  0.4896 -0.7771 -0.5355
  843MOL0     C11199   0.570   2.850  10.047  0.1999 -0.0574  0.4578
  843MOL0     C11200   0.686   2.878  10.115  0.5913  1.0338  0.5465
  843MOL0     C11201   0.690   2.882  10.249 -0.6645  0.7270 -0.2421
  843MOL0     O11202   0.816   2.903  10.308  0.2534 -0.2977 -0.4586
  843MOL0     C11203   0.814   2.855  10.443  0.3455  0.0479  0.5100
  843MOL0     C11204   0.954   2.842  10.491  1.1850  0.1023  0.7863
  843MOL0     C11205   1.047   2.766  10.397 -0.2422  0.1003  0.4008
  843MOL0     C11206   1.188   2.751  10.447 -0.4630  0.3169 -0.5422
  843MOL0     C11207   1.256   2.873  10.405 -0.7789 -0.5999  0.0240
  843MOL0     C11208   1.312   2.976  10.370 -0.2074 -0.2466  0.3554
  843MOL0     C11209   0.566   2.856  10.317 -0.2165  0.4135 -1.0394
  843MOL0     C11210   0.441   2.828  10.257 -0.6914 -0.5585  0.3660
  843MOL0     H11211   0.201   2.531   9.971 -1.5276 -1.5344  0.5168
  843MOL0     H11212  -0.023   2.430   9.906 -0.4607 -0.1086 -0.4687
  843MOL0     H11213  -0.408   2.655   9.904 -0.1326 -0.4403  0.7167
  843MOL0     H11214  -0.398   2.610  10.074  0.1327 -1.3598  0.5236
  843MOL0     H11215  -0.438   2.373  10.016 -1.1951  2.6004  2.9668
  843MOL0     H11216  -0.464   2.413   9.853 -0.9681 -3.2555  1.2102
  843MOL0     H11217  -0.654   2.526   9.867  3.9714 -1.9562 -2.9878
  843MOL0     H11218  -0.638   2.535  10.053  0.6386  1.1666 -0.0469
  843MOL0     H11219  -0.700   2.289   9.889  2.9436 -0.9576 -0.6790
  843MOL0     H11220  -0.645   2.275  10.059  1.2374  0.7488 -0.6524
  843MOL0     H11221  -0.893   2.444   9.990  2.4338  0.0108 -2.3663
  843MOL0     H11222  -0.817   2.422  10.145 -0.2315  0.6000  0.0215
  843MOL0     H11223  -0.860   2.188  10.145 -0.2147  1.6244  0.4173
  843MOL0     H11224  -0.914   2.187   9.971  1.0447 -3.4476  1.7614
  843MOL0     H11225  -1.103   2.340  10.028 -0.1812  0.2597 -0.7012
  843MOL0     H11226  -1.111   2.171  10.086  0.1439  0.2174  2.1274
  843MOL0     H11227  -1.016   2.412  10.255  2.1085 -0.8948 -0.0862
  843MOL0     H11228  -1.047   2.245  10.318  0.0267 -1.9144 -1.0141
  843MOL0     H11229  -1.297   2.207  10.425 -2.3402 -1.1496 -1.5389
  843MOL0     H11230  -1.561   2.220  10.405 -1.6293 -0.9358 -1.4760
  843MOL0     H11231  -1.634   2.328  10.300 -0.3752 -0.2799 -0.4771
  843MOL0     H11232  -1.602   2.385  10.602  0.3937  0.7571  0.0744
  843MOL0     H11233  -1.728   2.394  10.489  0.0749  1.0966  1.2338
  843MOL0     H11234  -1.489   2.593  10.494 -0.5202  1.2765  0.7641
  843MOL0     H11235  -1.626   2.585  10.377 -0.4626  0.9781 -0.3866
  843MOL0     H11236  -1.622   2.677  10.661  0.8932 -1.7668  0.3330
  843MOL0     H11237  -1.776   2.620  10.600 -0.2688 -1.5210 -1.1931
  843MOL0     H11238  -1.916   2.611  10.416  1.0074 -1.2248 -2.2768
  843MOL0     H11239  -2.107   2.673  10.297  0.9471 -0.4511  0.6381
  843MOL0     H11240  -2.371   3.055  10.290  0.7453 -0.7828  0.4937
  843MOL0     H11241  -2.617   3.135  10.235 -0.2863 -1.1095  0.4008
  843MOL0     H11242  -2.954   3.071  10.071  0.5952 -0.5151  0.1632
  843MOL0     H11243  -2.820   3.158  10.158  0.0032  1.1036 -1.1078
  843MOL0     H11244  -2.967   2.963  10.274  0.9114  1.8584 -0.2908
  843MOL0     H11245  -2.798   2.939  10.298 -0.1995  1.3870  0.9995
  843MOL0     H11246  -2.806   2.753  10.152  1.3990  1.0375 -2.3994
  843MOL0     H11247  -2.912   2.823  10.042 -0.3054 -2.2970  0.8513
  843MOL0     H11248  -3.004   2.716  10.307 -1.4505 -0.5820 -1.6743
  843MOL0     H11249  -3.117   2.797  10.202 -0.8808  1.5292  1.2392
  843MOL0     H11250  -3.144   2.581  10.166  0.4523 -1.3140  1.1820
  843MOL0     H11251  -2.980   2.534  10.172 -0.4756 -0.8898  0.7532
  843MOL0     H11252  -2.962   2.650   9.928 -0.3381  1.4816  0.4577
  843MOL0     H11253  -3.123   2.692   9.956 -0.3028 -0.5241  1.2118
  843MOL0     H11254  -3.024   2.406   9.922  1.4247  0.9374 -3.5746
  843MOL0     H11255  -3.188   2.446   9.969  1.7520 -0.6956  1.1902
  843MOL0     H11256  -3.062   2.550   9.714  1.1166 -2.3666 -0.0033
  843MOL0     H11257  -3.220   2.583   9.762  0.1799  0.4527  0.5026
  843MOL0     H11258  -2.627   2.856   9.907 -0.5722  2.6923 -0.8593
  843MOL0     H11259  -2.400   2.771   9.984 -1.8325 -1.2929  0.5710
  843MOL0     H11260  -1.924   3.067  10.245 -0.7042  0.5488 -1.0896
  843MOL0     H11261  -1.753   3.018  10.402 -1.2201  0.7204  1.1686
  843MOL0     H11262  -0.221   2.783  10.061 -0.5652  1.1141 -3.0984
  843MOL0     H11263  -0.007   2.852  10.145 -0.7594 -0.0965 -0.1621
  843MOL0     H11264   0.559   2.855   9.939 -1.1075  1.2699  0.6240
  843MOL0     H11265   0.775   2.900  10.056 -0.9020  1.2800 -1.7354
  843MOL0     H11266   0.762   2.759  10.447 -1.7763  1.0650 -1.0030
  843MOL0     H11267   0.752   2.920  10.505 -2.6389 -0.8933 -1.2992
  843MOL0     H11268   0.994   2.944  10.502 -0.4153  1.5012 -3.9251
  843MOL0     H11269   0.947   2.787  10.585  0.3714 -1.7984 -0.3427
  843MOL0     H11270   1.037   2.807  10.296 -1.3030  2.3827  1.3558
  843MOL0     H11271   1.003   2.667  10.380  1.8459 -0.6412 -1.1204
  843MOL0     H11272   1.193   2.735  10.555 -0.3074  1.9566 -0.2781
  843MOL0     H11273   1.236   2.668  10.394 -2.2494 -0.6876 -0.6821
  843MOL0     H11274   1.370   3.063  10.347 -0.6018  0.1788  0.9337
  843MOL0     H11275   0.562   2.861  10.425  2.8638  2.4659 -0.8924
  843MOL0     H11276   0.353   2.810  10.318 -0.4000 -0.5496  0.7932
  844MOL0     O11277   1.714  10.015   4.168 -0.1399  0.1481 -0.6046
  844MOL0     C11278   1.774  10.070   4.077  0.4055 -0.7134 -0.1104
  844MOL0     O11279   1.756  10.196   4.029  0.0393  0.2209  0.1266
  844MOL0     C11280   1.669  10.276   4.099 -0.9775  1.4708 -0.7427
  844MOL0     C11281   1.553  10.328   4.046  0.3336 -0.0024  0.9730
  844MOL0     C11282   1.481  10.437   4.107  0.4612  0.7939  0.1853
  844MOL0     C11283   1.532  10.495   4.223  0.3112  0.3328  0.1633
  844MOL0     O11284   1.480  10.610   4.281 -0.2922 -0.2203  0.5082
  844MOL0     C11285   1.391  10.702   4.217  0.7885 -0.6010 -0.2654
  844MOL0     C11286   1.303  10.768   4.325 -0.4206  0.8475 -0.3135
  844MOL0     C11287   1.218  10.661   4.399  0.1358  0.1419  0.0329
  844MOL0     C11288   1.106  10.716   4.471 -0.1177 -0.3871 -0.2783
  844MOL0     C11289   1.031  10.619   4.560 -0.4990 -0.7209 -0.7973
  844MOL0     C11290   0.933  10.524   4.490  0.0700 -0.0506  0.0155
  844MOL0     C11291   0.810  10.603   4.430 -0.1975 -0.1814 -0.1257
  844MOL0     C11292   0.724  10.499   4.354 -0.0989  0.4540 -1.0237
  844MOL0     N11293   0.630  10.414   4.435  0.8971 -0.0557  0.3537
  844MOL0     C11294   0.543  10.465   4.519  0.0353 -0.2419 -0.5498
  844MOL0     C11295   0.447  10.367   4.535  0.4733  0.0011  0.1844
  844MOL0     C11296   0.335  10.373   4.627  0.2450 -0.0085  0.7049
  844MOL0     C11297   0.205  10.424   4.570 -0.5519  0.2626  0.3430
  844MOL0     C11298   0.095  10.453   4.680  0.2298 -1.0256 -0.2297
  844MOL0     C11299  -0.045  10.454   4.624  0.6238 -0.2276 -0.1584
  844MOL0     O11300  -0.144  10.466   4.726  0.2068 -0.0407 -0.3187
  844MOL0     C11301  -0.265  10.516   4.679 -0.0364  0.6174  0.2585
  844MOL0     C11302  -0.293  10.643   4.696 -0.1274 -1.1583 -0.0351
  844MOL0     C11303  -0.426  10.688   4.705  0.5816  0.6708 -0.8404
  844MOL0     C11304  -0.533  10.603   4.684 -0.4848 -0.0700 -0.1321
  844MOL0     C11305  -0.670  10.660   4.664 -0.2234  0.7833 -0.0188
  844MOL0     O11306  -0.690  10.799   4.681 -0.4525  0.0255  0.2911
  844MOL0     C11307  -0.816  10.835   4.686  0.1240  0.5053 -0.2862
  844MOL0     C11308  -0.875  10.862   4.815 -0.1623 -0.0763 -0.4176
  844MOL0     C11309  -1.010  10.895   4.820 -0.2004 -0.2735 -0.2382
  844MOL0     C11310  -1.090  10.900   4.700 -1.3820  0.2621 -0.3158
  844MOL0     O11311  -1.219  10.941   4.702  0.3260 -0.5120  0.4496
  844MOL0     C11312  -1.288  10.915   4.824 -0.3798 -0.2454  0.0695
  844MOL0     C11313  -1.444  10.899   4.809  0.1552 -0.2814 -0.2404
  844MOL0     C11314  -1.482  10.763   4.744 -0.2059 -0.9863 -0.1562
  844MOL0     C11315  -1.634  10.758   4.728  0.3046  0.7227 -0.1161
  844MOL0     C11316  -1.669  10.696   4.593  0.1896  0.5726  0.1920
  844MOL0     C11317  -1.823  10.725   4.575 -0.2656  0.2750 -0.0749
  844MOL0     C11318  -1.904  10.655   4.682  0.6442  0.5645 -0.3048
  844MOL0     C11319  -2.044  10.682   4.689  0.7797  0.5914 -0.7321
  844MOL0    Cl11320  -2.130  10.600   4.817 -0.1150 -0.0359 -0.1431
  844MOL0     C11321  -1.027  10.886   4.577 -0.4750  0.1326  0.2472
  844MOL0     C11322  -0.898  10.837   4.565 -0.7455 -1.4340 -0.7336
  844MOL0     O11323  -0.761  10.583   4.651 -0.5343  0.8022 -0.5317
  844MOL0     C11324  -0.500  10.472   4.646 -0.3676  0.5699  0.3737
  844MOL0     C11325  -0.366  10.429   4.645 -1.1054 -0.3716 -0.1875
  844MOL0     N11326   0.486  10.252   4.465  0.0347 -0.1972  0.4593
  844MOL0     N11327   0.600  10.286   4.409 -0.2127 -0.3353 -0.2419
  844MOL0     C11328   1.651  10.438   4.276  0.2878 -0.5104 -0.1726
  844MOL0     C11329   1.719  10.335   4.212  0.2307 -0.7982 -0.1139
  844MOL0     C11330   1.881   9.996   4.000  0.2182 -0.0639 -0.7985
  844MOL0     C11331   1.906   9.862   4.036  0.2149  0.4585 -0.6224
  844MOL0     C11332   2.002   9.790   3.961 -0.7060 -0.4177 -0.0000
  844MOL0     C11333   2.081   9.844   3.852  0.1231 -0.5124  0.0864
  844MOL0     O11334   2.174   9.773   3.777 -0.5431 -0.4880  0.2319
  844MOL0     C11335   2.198   9.639   3.819  0.0461 -0.4076  0.1421
  844MOL0     C11336   2.332   9.609   3.756  0.1505  0.9471 -0.7791
  844MOL0     C11337   2.439   9.711   3.774  0.1845  0.4472  0.0249
  844MOL0     C11338   2.563   9.645   3.718  0.2218  0.4705 -0.4343
  844MOL0     C11339   2.675   9.740   3.691  0.9939 -0.4118 -0.1118
  844MOL0     C11340   2.767   9.818   3.678  0.0147  0.7732  0.2993
  844MOL0     C11341   2.053   9.977   3.817  0.1980  0.2762 -0.1812
  844MOL0     C11342   1.948  10.053   3.884  0.3787  0.4808 -0.9091
  844MOL0     H11343   1.523  10.300   3.945 -3.0591  0.5566  1.6979
  844MOL0     H11344   1.388  10.472   4.063 -0.1539 -0.5074  0.3945
  844MOL0     H11345   1.329  10.649   4.145  0.1846  0.0658 -0.2407
  844MOL0     H11346   1.441  10.785   4.166  0.1459 -0.2946 -0.4083
  844MOL0     H11347   1.240  10.845   4.278  2.3130  2.1425 -2.0990
  844MOL0     H11348   1.366  10.809   4.404 -1.3525 -1.4054  1.7135
  844MOL0     H11349   1.273  10.592   4.463  0.1135  0.4363  0.3709
  844MOL0     H11350   1.176  10.602   4.317  0.9315  0.2898 -0.4923
  844MOL0     H11351   1.141  10.800   4.532 -0.8391  0.0842 -0.5014
  844MOL0     H11352   1.042  10.773   4.403  0.4782  1.6777  0.7834
  844MOL0     H11353   0.969  10.674   4.631  0.4310  1.7264 -1.7755
  844MOL0     H11354   1.099  10.557   4.619 -0.8317  0.4297  0.8598
  844MOL0     H11355   0.888  10.459   4.565 -0.2778 -0.6478 -0.6974
  844MOL0     H11356   0.982  10.478   4.404  0.3186  1.5647 -0.7592
  844MOL0     H11357   0.752  10.650   4.509 -1.2435 -0.0564 -0.9470
  844MOL0     H11358   0.846  10.683   4.364  3.0114 -0.4470  1.1205
  844MOL0     H11359   0.786  10.430   4.296  0.8504 -1.0935  1.6657
  844MOL0     H11360   0.656  10.559   4.293 -1.4278 -1.0204 -1.0550
  844MOL0     H11361   0.533  10.566   4.559  0.7564 -0.6165  0.6132
  844MOL0     H11362   0.363  10.432   4.714  2.4693  0.8549 -0.5214
  844MOL0     H11363   0.319  10.272   4.665 -1.7083  0.4173  1.1557
  844MOL0     H11364   0.173  10.348   4.497  1.5668 -1.3540  0.9915
  844MOL0     H11365   0.217  10.513   4.507 -0.8990  0.0399 -0.0470
  844MOL0     H11366   0.103  10.377   4.758 -2.7489 -0.6736  0.5474
  844MOL0     H11367   0.115  10.552   4.721 -1.3565 -0.8322  0.1397
  844MOL0     H11368  -0.053  10.356   4.576  1.6406  0.1118 -1.0367
  844MOL0     H11369  -0.060  10.541   4.560 -2.1820  0.4555  1.2445
  844MOL0     H11370  -0.209  10.706   4.725 -0.1101 -0.5197 -1.4205
  844MOL0     H11371  -0.452  10.792   4.718 -0.6422  0.3576 -0.6269
  844MOL0     H11372  -0.823  10.840   4.908 -1.0367 -1.0352 -0.1343
  844MOL0     H11373  -1.040  10.917   4.922 -2.5264 -3.7658  0.0039
  844MOL0     H11374  -1.267  10.997   4.893 -1.2513 -2.1488  2.7703
  844MOL0     H11375  -1.249  10.818   4.857 -0.8877  0.5536  3.2863
  844MOL0     H11376  -1.482  10.983   4.750  1.6790  0.5715 -0.0634
  844MOL0     H11377  -1.487  10.908   4.910  0.9877  0.4759  0.0530
  844MOL0     H11378  -1.446  10.677   4.802  2.7164 -1.8847 -3.0178
  844MOL0     H11379  -1.429  10.758   4.649  1.1312  1.0841  0.4301
  844MOL0     H11380  -1.674  10.717   4.821 -1.1274 -0.4423 -1.1912
  844MOL0     H11381  -1.678  10.858   4.729 -0.6947  0.3022  1.0376
  844MOL0     H11382  -1.642  10.590   4.588 -0.4444  0.3274  1.4055
  844MOL0     H11383  -1.631  10.755   4.509 -1.6036  2.0608  0.3387
  844MOL0     H11384  -1.861  10.689   4.479 -0.9374 -1.7416  0.9022
  844MOL0     H11385  -1.840  10.833   4.573 -1.7343  0.0869  0.5664
  844MOL0     H11386  -1.887  10.548   4.663 -0.4766  0.7981 -3.1304
  844MOL0     H11387  -1.863  10.683   4.779  0.5867  1.0068 -0.4087
  844MOL0     H11388  -2.097  10.659   4.596 -0.9103 -1.8382  0.7226
  844MOL0     H11389  -2.051  10.790   4.706  2.0090  0.3469  1.8606
  844MOL0     H11390  -1.083  10.904   4.486 -0.3675 -2.8574 -0.5118
  844MOL0     H11391  -0.853  10.819   4.468  1.1818  1.0606 -0.4107
  844MOL0     H11392  -0.576  10.397   4.625 -1.1400  1.8336 -1.6201
  844MOL0     H11393  -0.349  10.326   4.614 -2.0122 -1.0847  1.5348
  844MOL0     H11394   1.692  10.472   4.371 -0.4313  0.8853 -0.3314
  844MOL0     H11395   1.819  10.321   4.252  1.0752 -0.4208 -2.0169
  844MOL0     H11396   1.862   9.799   4.112  3.7950 -2.6641 -0.8013
  844MOL0     H11397   2.014   9.683   3.975 -2.4529 -1.0869 -2.7154
  844MOL0     H11398   2.119   9.570   3.787 -0.2501 -0.1363  0.2957
  844MOL0     H11399   2.199   9.638   3.928 -1.3744  0.8575  0.1960
  844MOL0     H11400   2.381   9.522   3.801  0.5460  1.5448 -0.0136
  844MOL0     H11401   2.309   9.590   3.651 -2.2507  3.0755 -0.7338
  844MOL0     H11402   2.447   9.736   3.880 -0.7372  1.9710 -0.2385
  844MOL0     H11403   2.414   9.807   3.730 -1.5766 -0.2466 -0.5689
  844MOL0     H11404   2.596   9.565   3.784  1.5641 -0.4637 -2.1624
  844MOL0     H11405   2.534   9.597   3.624 -1.9051 -1.4882  1.0816
  844MOL0     H11406   2.849   9.886   3.667  1.0523 -0.6816 -1.4896
  844MOL0     H11407   2.101  10.024   3.732 -2.3568  0.5441 -1.5707
  844MOL0     H11408   1.934  10.156   3.852  3.3495  1.4515  0.5318
  845MOL0     O11409   3.077  10.009   4.374 -0.2918  0.1500 -0.1430
  845MOL0     C11410   3.183  10.008   4.447 -0.2095 -0.2385 -0.6896
  845MOL0     O11411   3.208   9.942   4.561  0.0014  0.4043 -0.8225
  845MOL0     C11412   3.107   9.847   4.596 -0.5710 -0.5203  0.6897
  845MOL0     C11413   3.036   9.864   4.713  0.4338 -0.1424  1.0257
  845MOL0     C11414   2.947   9.771   4.764 -0.6218 -0.1648 -0.7818
  845MOL0     C11415   2.921   9.660   4.690 -0.6465 -1.2500  0.5346
  845MOL0     O11416   2.843   9.565   4.744  0.3124 -0.1533  0.1129
  845MOL0     C11417   2.708   9.557   4.690  0.0540 -0.0747  1.1308
  845MOL0     C11418   2.632   9.436   4.744 -0.8036  0.1594  0.8295
  845MOL0     C11419   2.483   9.438   4.725  0.5650 -0.3266  0.1873
  845MOL0     C11420   2.444   9.374   4.583 -0.0108  0.6747 -0.0375
  845MOL0     C11421   2.292   9.349   4.571  0.2171  0.0853 -0.4041
  845MOL0     C11422   2.230   9.487   4.540  0.3340 -0.1677 -0.5792
  845MOL0     C11423   2.087   9.461   4.497 -0.3237 -0.3387  0.2475
  845MOL0     C11424   2.024   9.596   4.465 -0.7685 -1.0758 -0.4145
  845MOL0     N11425   1.915   9.586   4.373 -0.4192 -0.3348 -0.5878
  845MOL0     C11426   1.781   9.613   4.392 -0.5121  0.2665  0.3593
  845MOL0     C11427   1.712   9.575   4.276 -0.0865 -0.0026 -0.4936
  845MOL0     C11428   1.558   9.574   4.244 -0.8044 -0.1040 -0.0306
  845MOL0     C11429   1.513   9.707   4.197  0.2317 -0.2594 -1.0184
  845MOL0     C11430   1.516   9.818   4.307 -0.4571 -0.0357 -0.4593
  845MOL0     C11431   1.429   9.786   4.433 -0.8383 -0.8658  0.6741
  845MOL0     O11432   1.295   9.746   4.384 -0.1250  0.3828 -0.3068
  845MOL0     C11433   1.203   9.715   4.484 -0.0135  0.1046 -0.1208
  845MOL0     C11434   1.084   9.656   4.434 -0.2494  0.1498  0.0036
  845MOL0     C11435   0.973   9.619   4.513 -0.3137 -0.1034  0.6021
  845MOL0     C11436   0.983   9.646   4.650  0.7323 -1.1425 -0.2735
  845MOL0     C11437   0.867   9.615   4.741 -0.5991  1.0697  0.1454
  845MOL0     O11438   0.862   9.675   4.868 -0.9014 -0.8101  0.6366
  845MOL0     C11439   0.765   9.636   4.954 -0.1573 -0.0095 -1.0731
  845MOL0     C11440   0.629   9.666   4.949 -0.2309  0.1306  0.4055
  845MOL0     C11441   0.540   9.617   5.046  0.4637 -0.3179  0.1783
  845MOL0     C11442   0.599   9.565   5.163  0.8179 -0.5454 -0.3821
  845MOL0     O11443   0.519   9.545   5.273  0.1987 -0.5880 -1.0440
  845MOL0     C11444   0.415   9.634   5.306 -0.2390 -0.8304 -0.6976
  845MOL0     C11445   0.280   9.582   5.280  0.8966  0.3450 -0.4560
  845MOL0     C11446   0.168   9.688   5.304  0.0860  0.0885  0.7310
  845MOL0     C11447   0.028   9.630   5.308  0.2470  0.2270  0.3041
  845MOL0     C11448  -0.066   9.739   5.288 -0.3802  0.1263  0.3650
  845MOL0     C11449  -0.206   9.673   5.280  0.0845  0.2805  0.4265
  845MOL0     C11450  -0.303   9.781   5.261  0.1274  0.5116  0.7684
  845MOL0     C11451  -0.441   9.734   5.217  0.0711  0.6664  0.3771
  845MOL0    Cl11452  -0.498   9.610   5.334 -0.0829  0.1526  0.0849
  845MOL0     C11453   0.730   9.554   5.189  0.1720  0.5037 -0.2175
  845MOL0     C11454   0.816   9.580   5.078 -0.5381 -0.0812  0.5042
  845MOL0     O11455   0.774   9.537   4.695  0.2894  0.0956  0.2461
  845MOL0     C11456   1.103   9.704   4.697  0.0882  0.4752 -0.3560
  845MOL0     C11457   1.220   9.729   4.621 -0.6815 -0.5982 -0.6089
  845MOL0     N11458   1.808   9.530   4.184  0.5384  0.3019 -0.1037
  845MOL0     N11459   1.925   9.539   4.244  0.6564  0.0844  0.7755
  845MOL0     C11460   2.984   9.641   4.566 -0.1936 -0.7175 -0.4877
  845MOL0     C11461   3.080   9.735   4.519  0.1025  0.0810 -0.3394
  845MOL0     C11462   3.291  10.100   4.410  0.3256  0.6044  0.8899
  845MOL0     C11463   3.291  10.141   4.273 -0.1864  0.1233  0.4662
  845MOL0     C11464   3.397  10.219   4.232 -0.4758 -0.4224 -0.3683
  845MOL0     C11465   3.501  10.264   4.317  1.1677 -0.7614  0.1304
  845MOL0     O11466   3.599  10.353   4.280 -0.0651 -0.0940  0.5008
  845MOL0     C11467   3.704  10.285   4.204  0.7674  0.3135  0.5419
  845MOL0     C11468   3.785  10.401   4.156 -0.3084 -1.1195  0.3087
  845MOL0     C11469   3.826  10.492   4.268 -0.2064 -0.2384 -1.3154
  845MOL0     C11470   3.938  10.440   4.357  0.2123  0.3073 -0.9324
  845MOL0     C11471   4.022  10.557   4.391  0.2384 -0.2873 -0.2335
  845MOL0     C11472   4.088  10.657   4.416  0.1636  0.4674  0.6484
  845MOL0     C11473   3.504  10.218   4.447  0.1893  0.8034  0.1205
  845MOL0     C11474   3.405  10.133   4.494 -0.2900  1.3357  0.1476
  845MOL0     H11475   3.076   9.942   4.777  0.5015  4.5394 -4.0078
  845MOL0     H11476   2.918   9.807   4.862  1.5583  1.1574 -0.5512
  845MOL0     H11477   2.712   9.542   4.582 -0.4066  0.8768  0.9702
  845MOL0     H11478   2.657   9.651   4.714  1.4793  0.6434  1.4140
  845MOL0     H11479   2.652   9.441   4.851  2.8049  1.9798  0.1998
  845MOL0     H11480   2.675   9.338   4.720 -3.1639 -1.6710  3.3976
  845MOL0     H11481   2.445   9.539   4.741 -0.4586 -0.8316  1.0607
  845MOL0     H11482   2.442   9.379   4.807  0.7674  0.6135  0.9946
  845MOL0     H11483   2.479   9.429   4.495 -1.6484  1.0952 -0.4746
  845MOL0     H11484   2.496   9.278   4.588 -2.3802 -0.7894 -1.2662
  845MOL0     H11485   2.253   9.299   4.660 -0.0215  0.7906 -0.1085
  845MOL0     H11486   2.270   9.278   4.490  1.1562  0.1999 -0.7686
  845MOL0     H11487   2.290   9.536   4.463 -1.7262  0.3927 -1.9049
  845MOL0     H11488   2.248   9.553   4.625 -2.0955  1.3017 -1.1087
  845MOL0     H11489   2.088   9.404   4.404 -0.5987  2.8374 -1.8783
  845MOL0     H11490   2.033   9.407   4.575 -1.1919 -1.4572 -1.0813
  845MOL0     H11491   2.092   9.672   4.425 -0.0121 -0.6100  1.5942
  845MOL0     H11492   1.992   9.634   4.563  1.8854 -0.3265  0.2478
  845MOL0     H11493   1.737   9.641   4.487 -1.0877 -2.0850  0.8489
  845MOL0     H11494   1.499   9.546   4.331  1.6980 -1.0647  1.4484
  845MOL0     H11495   1.536   9.496   4.170  4.3599 -1.3101 -0.7137
  845MOL0     H11496   1.408   9.700   4.168 -0.1925 -1.3566  0.6578
  845MOL0     H11497   1.580   9.748   4.121  0.2216  1.7944  0.0093
  845MOL0     H11498   1.618   9.839   4.340 -0.2271 -1.8774  0.1749
  845MOL0     H11499   1.474   9.913   4.275 -2.9169 -0.0668  2.2778
  845MOL0     H11500   1.407   9.871   4.498 -1.5349 -1.1322  0.7968
  845MOL0     H11501   1.477   9.700   4.481  0.4854 -1.6224 -1.8142
  845MOL0     H11502   1.073   9.642   4.327  0.2151  2.4260 -0.3922
  845MOL0     H11503   0.882   9.583   4.467  1.2002 -0.1034 -2.6737
  845MOL0     H11504   0.597   9.719   4.859  0.0449 -2.3666 -1.2654
  845MOL0     H11505   0.432   9.630   5.036  0.3399 -2.2207 -1.6851
  845MOL0     H11506   0.427   9.726   5.249 -0.6034  0.0697  0.6175
  845MOL0     H11507   0.414   9.659   5.413 -1.7674 -0.6462 -0.7457
  845MOL0     H11508   0.267   9.493   5.343  0.9382  0.2692 -0.5553
  845MOL0     H11509   0.277   9.550   5.176 -0.1850 -0.8334 -0.0872
  845MOL0     H11510   0.168   9.761   5.222  1.9098  2.3441  2.6014
  845MOL0     H11511   0.181   9.742   5.398  0.6077  0.4143  0.4785
  845MOL0     H11512   0.015   9.561   5.224 -2.3999 -3.4192  3.3442
  845MOL0     H11513   0.001   9.563   5.391 -0.4234 -1.8505 -1.4978
  845MOL0     H11514  -0.040   9.797   5.199  0.1579 -0.7701 -0.0787
  845MOL0     H11515  -0.065   9.809   5.372 -2.8232  1.3905 -0.5562
  845MOL0     H11516  -0.229   9.623   5.375  0.7986  0.8748  0.9173
  845MOL0     H11517  -0.218   9.609   5.192 -1.8179  0.4688  0.4952
  845MOL0     H11518  -0.329   9.832   5.355 -2.9871 -1.1479  0.9534
  845MOL0     H11519  -0.263   9.858   5.195 -3.8970  3.4582  1.3400
  845MOL0     H11520  -0.427   9.692   5.117 -2.3126  0.3254  0.1222
  845MOL0     H11521  -0.516   9.814   5.217 -0.4745  0.1657  0.2955
  845MOL0     H11522   0.763   9.513   5.283  3.3710 -0.1406 -1.5133
  845MOL0     H11523   0.923   9.572   5.092 -0.7626 -0.2615  2.3698
  845MOL0     H11524   1.116   9.721   4.804 -1.4117 -2.0331  0.3068
  845MOL0     H11525   1.318   9.758   4.656  1.3824 -1.1533 -5.2087
  845MOL0     H11526   2.954   9.547   4.520 -1.6480 -2.7587  4.0348
  845MOL0     H11527   3.141   9.715   4.431  2.4408  0.9044  0.9877
  845MOL0     H11528   3.207  10.124   4.206  0.1044 -2.1779  0.6117
  845MOL0     H11529   3.410  10.256   4.131  0.6760 -0.7601 -0.3594
  845MOL0     H11530   3.664  10.232   4.117 -3.0697 -0.1065  2.3768
  845MOL0     H11531   3.766  10.223   4.270 -0.4024  0.1333  1.5084
  845MOL0     H11532   3.868  10.353   4.103  0.1318 -2.1853  1.9008
  845MOL0     H11533   3.724  10.453   4.081 -0.3797 -1.1976  0.3119
  845MOL0     H11534   3.743  10.522   4.333  1.2948  0.1497  0.5200
  845MOL0     H11535   3.847  10.588   4.221  0.0756 -0.8486 -2.4583
  845MOL0     H11536   3.891  10.406   4.450 -0.4483 -0.0566 -1.3921
  845MOL0     H11537   3.991  10.354   4.314 -2.6593 -2.1528  0.0699
  845MOL0     H11538   4.149  10.740   4.445 -2.1835  3.1721 -1.6138
  845MOL0     H11539   3.590  10.261   4.498 -0.3773  1.0405  0.8960
  845MOL0     H11540   3.417  10.105   4.598 -1.5996  2.0871  0.5216
  846MOL0     O11541   3.027   2.166  10.390 -0.5912  0.2307 -0.2134
  846MOL0     C11542   3.085   2.271  10.393  0.0333 -0.5111 -0.1217
  846MOL0     O11543   3.020   2.386  10.378  0.6417 -0.5150 -0.5182
  846MOL0     C11544   2.890   2.399  10.410 -0.1221 -0.3455 -0.0832
  846MOL0     C11545   2.809   2.481  10.329 -0.5082 -0.4421 -0.1144
  846MOL0     C11546   2.674   2.490  10.356  0.4077 -0.6757 -0.3037
  846MOL0     C11547   2.615   2.427  10.469 -1.1047  0.3556 -0.3871
  846MOL0     O11548   2.482   2.449  10.500 -0.7099 -0.4558 -0.0910
  846MOL0     C11549   2.384   2.455  10.395 -0.1418 -0.0000  0.2209
  846MOL0     C11550   2.240   2.465  10.451  0.5434 -0.0148  0.4082
  846MOL0     C11551   2.208   2.618  10.478  0.0652  0.5421  0.0051
  846MOL0     C11552   2.081   2.646  10.561 -0.9339  0.7471 -0.2983
  846MOL0     C11553   1.965   2.591  10.486  0.4180  0.2302  0.5083
  846MOL0     C11554   1.829   2.639  10.537 -0.7093 -0.3248  0.1288
  846MOL0     C11555   1.716   2.573  10.461  0.4973 -0.5941  0.0288
  846MOL0     C11556   1.582   2.650  10.468  0.1952  0.7699  0.4192
  846MOL0     N11557   1.541   2.641  10.607  0.2167  0.1354  0.5756
  846MOL0     C11558   1.468   2.534  10.658  0.3245 -0.2545 -0.0974
  846MOL0     C11559   1.433   2.567  10.784 -0.0636 -0.1129  0.3246
  846MOL0     C11560   1.358   2.482  10.882  0.3666  0.3254  0.6665
  846MOL0     C11561   1.212   2.477  10.841  0.1699 -0.3032 -0.8039
  846MOL0     C11562   1.129   2.608  10.870 -0.3674  0.2861  0.2664
  846MOL0     C11563   0.996   2.584  10.785 -0.0909  1.3861 -0.4379
  846MOL0     O11564   0.897   2.675  10.823 -0.4729  0.1757  0.4863
  846MOL0     C11565   0.771   2.638  10.781 -0.5529  0.4129  0.2500
  846MOL0     C11566   0.733   2.549  10.682  0.2360  0.6431 -0.0491
  846MOL0     C11567   0.607   2.551  10.631 -0.9335 -0.2322 -0.3885
  846MOL0     C11568   0.502   2.638  10.676 -0.8913 -0.3326 -0.5348
  846MOL0     C11569   0.366   2.633  10.623  0.1455 -0.1875  0.0048
  846MOL0     O11570   0.267   2.670  10.698  0.3864 -0.0271 -0.0923
  846MOL0     C11571   0.141   2.667  10.644 -0.2257  0.2495 -0.4079
  846MOL0     C11572   0.102   2.710  10.513  0.1120  0.1135 -0.1857
  846MOL0     C11573  -0.035   2.700  10.471 -0.9931  0.3517  0.0591
  846MOL0     C11574  -0.139   2.641  10.550  0.2625  0.7275 -0.1030
  846MOL0     O11575  -0.273   2.628  10.510 -0.5156 -0.6658  0.4667
  846MOL0     C11576  -0.318   2.516  10.438 -0.6479  0.0847  0.2300
  846MOL0     C11577  -0.454   2.543  10.388  0.4818 -0.5065 -0.4807
  846MOL0     C11578  -0.563   2.588  10.497 -0.6314  0.4433  0.4930
  846MOL0     C11579  -0.605   2.474  10.585  0.3183  0.6738 -0.5956
  846MOL0     C11580  -0.751   2.496  10.644 -0.0056 -0.0348  0.2455
  846MOL0     C11581  -0.859   2.433  10.560 -0.5276 -0.2148 -0.0635
  846MOL0     C11582  -0.987   2.477  10.600  0.9366 -0.8186 -0.1274
  846MOL0     C11583  -1.025   2.430  10.740  0.3866 -0.4026 -0.3027
  846MOL0    Cl11584  -1.024   2.246  10.756  0.2177  0.5142 -0.1475
  846MOL0     C11585  -0.091   2.600  10.675  0.4800 -0.5133  0.5602
  846MOL0     C11586   0.041   2.623  10.722 -0.1907 -0.1263 -0.3092
  846MOL0     O11587   0.360   2.587  10.512  0.2856  0.7221 -0.1023
  846MOL0     C11588   0.544   2.724  10.782  0.7099  1.0900  0.7361
  846MOL0     C11589   0.669   2.717  10.835 -0.4859  0.5938  0.2961
  846MOL0     N11590   1.490   2.697  10.810 -0.3443 -0.2661  0.4244
  846MOL0     N11591   1.556   2.738  10.703  0.2965  0.1805  0.9085
  846MOL0     C11592   2.697   2.348  10.550  0.7156  0.3154 -0.3537
  846MOL0     C11593   2.833   2.333  10.521  0.4636 -0.1069  0.6060
  846MOL0     C11594   3.232   2.272  10.403  0.0421  0.7634 -0.6381
  846MOL0     C11595   3.298   2.141  10.395 -0.1281  0.2084 -0.2698
  846MOL0     C11596   3.432   2.135  10.383 -0.9062 -0.2563  0.1630
  846MOL0     C11597   3.507   2.248  10.376 -0.4404  0.0391 -0.3118
  846MOL0     O11598   3.645   2.231  10.375 -0.0373  0.5498 -0.2439
  846MOL0     C11599   3.741   2.331  10.371 -0.0342 -0.4707  0.4313
  846MOL0     C11600   3.885   2.275  10.345 -0.3160  0.2260  0.7076
  846MOL0     C11601   3.981   2.392  10.334  0.6445 -0.0346 -1.0063
  846MOL0     C11602   4.126   2.360  10.303 -0.4713  0.1165 -0.7406
  846MOL0     C11603   4.187   2.256  10.397  0.0795 -0.3132  0.3965
  846MOL0     C11604   4.258   2.186  10.462 -0.8821 -0.0892  0.3525
  846MOL0     C11605   3.453   2.377  10.391  0.9986 -0.4868 -0.2821
  846MOL0     C11606   3.312   2.391  10.398  0.1287  0.1181  0.3129
  846MOL0     H11607   2.857   2.520  10.240  1.3738 -0.5481  0.7985
  846MOL0     H11608   2.624   2.556  10.286 -0.3525 -1.6065 -0.6461
  846MOL0     H11609   2.386   2.372  10.324 -1.0067 -0.5041  0.7611
  846MOL0     H11610   2.397   2.545  10.335 -1.9003  0.0116 -0.1831
  846MOL0     H11611   2.223   2.415  10.547 -1.8075 -1.9113 -0.8738
  846MOL0     H11612   2.166   2.415  10.387  0.0298  0.2946  0.7501
  846MOL0     H11613   2.204   2.678  10.386  0.7313 -0.8547 -0.9697
  846MOL0     H11614   2.292   2.658  10.536  3.4745 -2.6437 -2.3067
  846MOL0     H11615   2.097   2.601  10.660 -0.7060  0.3569 -0.5111
  846MOL0     H11616   2.066   2.750  10.592 -1.0237  0.5617  0.2963
  846MOL0     H11617   1.966   2.482  10.493  3.2629  0.1899  0.9298
  846MOL0     H11618   1.966   2.614  10.380  1.7568  1.0308  0.6636
  846MOL0     H11619   1.822   2.748  10.535 -0.9377 -0.3497 -0.6976
  846MOL0     H11620   1.824   2.602  10.640 -3.4892 -1.0300 -0.1775
  846MOL0     H11621   1.748   2.568  10.357  0.0871 -0.6566 -0.0984
  846MOL0     H11622   1.694   2.476  10.508  1.2188 -0.7855 -0.0126
  846MOL0     H11623   1.512   2.608  10.395  1.3512  1.1805 -0.9667
  846MOL0     H11624   1.586   2.756  10.441 -2.1968  1.3789  2.0941
  846MOL0     H11625   1.442   2.440  10.611  1.2666 -1.1260  1.0791
  846MOL0     H11626   1.355   2.522  10.984 -3.0396 -0.4667  1.0018
  846MOL0     H11627   1.410   2.387  10.900  4.4872  2.6215  2.2483
  846MOL0     H11628   1.164   2.395  10.895 -1.0191  1.3103  0.6635
  846MOL0     H11629   1.214   2.457  10.733 -0.8110 -0.6807 -0.7648
  846MOL0     H11630   1.107   2.613  10.977  0.8073  0.6603  0.4977
  846MOL0     H11631   1.176   2.704  10.847  0.3105 -0.2494 -0.6710
  846MOL0     H11632   0.961   2.481  10.794 -3.1909  2.4365  1.1787
  846MOL0     H11633   1.008   2.609  10.679  0.6845  0.2430 -0.6359
  846MOL0     H11634   0.805   2.483  10.633  0.3371  0.2775  0.5691
  846MOL0     H11635   0.585   2.489  10.545 -1.0976 -1.7781  0.7108
  846MOL0     H11636   0.178   2.754  10.449 -0.2083  2.2327  0.8158
  846MOL0     H11637  -0.047   2.730  10.368 -0.6886 -1.0134 -0.4009
  846MOL0     H11638  -0.312   2.424  10.498  0.2958 -0.3231 -0.4652
  846MOL0     H11639  -0.259   2.504  10.347 -1.5996  0.7006 -0.4882
  846MOL0     H11640  -0.485   2.449  10.343 -0.3739 -2.1188  3.1199
  846MOL0     H11641  -0.455   2.626  10.316  0.2635 -0.3607 -0.3117
  846MOL0     H11642  -0.648   2.629  10.442 -0.1336  1.4435  0.4428
  846MOL0     H11643  -0.519   2.673  10.551  0.2530  2.2515 -2.7873
  846MOL0     H11644  -0.604   2.375  10.539  2.7371 -0.0438  0.8619
  846MOL0     H11645  -0.541   2.472  10.673 -0.7582  2.7494  0.3136
  846MOL0     H11646  -0.767   2.604  10.650 -0.8647 -0.1669  0.5414
  846MOL0     H11647  -0.750   2.463  10.748 -2.3841  1.9321  0.9890
  846MOL0     H11648  -0.856   2.325  10.573  0.4101 -0.7910 -3.8830
  846MOL0     H11649  -0.847   2.458  10.454 -1.3675  1.2528  0.1641
  846MOL0     H11650  -0.986   2.586  10.587  0.9347 -0.8926 -0.7992
  846MOL0     H11651  -1.068   2.443  10.535  0.4701 -0.3202  0.1881
  846MOL0     H11652  -1.128   2.463  10.758  0.6470 -0.4108  1.3928
  846MOL0     H11653  -0.970   2.473  10.824 -2.5437 -2.5273  3.0098
  846MOL0     H11654  -0.171   2.567  10.741  0.6946  3.7518  3.2852
  846MOL0     H11655   0.066   2.608  10.827 -1.6394 -0.8840 -0.0407
  846MOL0     H11656   0.470   2.783  10.835 -0.0367  0.0554  0.8776
  846MOL0     H11657   0.709   2.796  10.898 -1.2471  1.5739 -0.4079
  846MOL0     H11658   2.662   2.286  10.631  2.3814  2.0093  1.7662
  846MOL0     H11659   2.895   2.270  10.583  0.8393 -3.3477 -2.7072
  846MOL0     H11660   3.238   2.051  10.381 -2.2828  1.6655 -0.8468
  846MOL0     H11661   3.479   2.038  10.381 -1.3873 -0.4854 -0.1606
  846MOL0     H11662   3.738   2.374  10.472 -1.2199 -2.2247  1.1766
  846MOL0     H11663   3.717   2.413  10.302  1.4673  0.7464  1.3004
  846MOL0     H11664   3.914   2.228  10.439 -2.2898 -2.5450  0.0820
  846MOL0     H11665   3.893   2.207  10.260 -1.9923  0.0560  0.6495
  846MOL0     H11666   3.980   2.457  10.422  0.3141 -2.9153  1.2563
  846MOL0     H11667   3.921   2.444  10.259 -2.5687 -0.0402  1.3315
  846MOL0     H11668   4.140   2.336  10.197 -1.9055  0.3748 -1.0183
  846MOL0     H11669   4.185   2.451  10.320  0.5016 -0.6044 -0.2172
  846MOL0     H11670   4.321   2.134  10.531 -1.4284  2.3364  2.8768
  846MOL0     H11671   3.507   2.470  10.379  1.1281 -0.9228 -5.2702
  846MOL0     H11672   3.265   2.488  10.396  0.4504  0.2649 -0.4823
  847MOL0     O11673   4.018   2.599   1.757  0.5975 -0.6677  0.5712
  847MOL0     C11674   4.040   2.512   1.841  0.0151 -0.1627  0.2430
  847MOL0     O11675   4.147   2.508   1.919 -0.3199  0.3200  0.5428
  847MOL0     C11676   4.255   2.579   1.889  0.1249 -0.0592  0.5683
  847MOL0     C11677   4.302   2.583   1.751 -0.0692 -0.8330 -1.1455
  847MOL0     C11678   4.428   2.647   1.725 -0.1158 -0.3555  0.6848
  847MOL0     C11679   4.509   2.696   1.835 -1.1496  1.1716  0.6772
  847MOL0     O11680   4.634   2.763   1.821  0.2790  0.3163 -0.0236
  847MOL0     C11681   4.689   2.773   1.690  0.1087  0.2693  0.5573
  847MOL0     C11682   4.835   2.831   1.711  0.3913 -0.6122  0.2175
  847MOL0     C11683   4.887   2.901   1.587 -0.3713  0.0721 -0.0470
  847MOL0     C11684   5.034   2.943   1.614  0.3627 -0.2475  0.3519
  847MOL0     C11685   5.050   3.044   1.501 -0.5364  0.6067  0.4313
  847MOL0     C11686   5.187   3.107   1.497 -0.0545  0.1512 -0.7439
  847MOL0     C11687   5.191   3.231   1.393  0.6792  0.2781  0.0730
  847MOL0     C11688   5.164   3.206   1.242 -0.2292 -0.5053  0.3046
  847MOL0     N11689   5.025   3.172   1.213  0.8436 -0.1519 -0.6474
  847MOL0     C11690   4.918   3.263   1.220 -0.5899  0.5888  0.2131
  847MOL0     C11691   4.805   3.192   1.187 -1.2177 -0.8033 -0.3446
  847MOL0     C11692   4.672   3.246   1.210  0.2041  0.0587 -0.7637
  847MOL0     C11693   4.580   3.143   1.279 -0.8245  0.7702  0.1551
  847MOL0     C11694   4.432   3.184   1.281 -0.1621  0.2174  0.4455
  847MOL0     C11695   4.395   3.269   1.394 -0.2609 -0.3671  0.3822
  847MOL0     O11696   4.260   3.325   1.384 -0.6857 -0.3625  1.2351
  847MOL0     C11697   4.157   3.241   1.428 -0.4822  0.9776  0.2900
  847MOL0     C11698   4.161   3.153   1.537  0.4795  0.0449 -0.5057
  847MOL0     C11699   4.037   3.097   1.581 -1.0980  0.8586 -0.1205
  847MOL0     C11700   3.924   3.109   1.502  0.6584 -0.3525  0.2115
  847MOL0     C11701   3.806   3.037   1.539 -1.2187  0.6280 -0.1076
  847MOL0     O11702   3.683   3.094   1.498  0.5548 -0.0216 -0.2580
  847MOL0     C11703   3.563   3.067   1.561  0.5740  0.1979 -0.5784
  847MOL0     C11704   3.454   3.070   1.476  0.4158  0.1892  0.9752
  847MOL0     C11705   3.324   3.048   1.534 -0.2364 -0.3265  0.6353
  847MOL0     C11706   3.304   3.034   1.675 -0.2860 -0.4203 -0.1695
  847MOL0     O11707   3.183   3.027   1.729 -0.1727 -0.4888  0.3025
  847MOL0     C11708   3.163   3.089   1.860 -0.0542 -0.2513 -0.7809
  847MOL0     C11709   3.025   3.147   1.864  1.1495  0.5251  0.8875
  847MOL0     C11710   3.009   3.259   1.750 -0.1192 -0.4198 -0.1384
  847MOL0     C11711   3.108   3.381   1.750 -0.5528  1.1265  1.1030
  847MOL0     C11712   3.074   3.492   1.639 -0.4707  0.1481  0.3802
  847MOL0     C11713   3.109   3.458   1.494  0.1599 -0.6868 -0.7664
  847MOL0     C11714   3.256   3.424   1.468 -0.6679  0.5714  0.9234
  847MOL0     C11715   3.277   3.367   1.323 -0.6903 -0.1978  1.1378
  847MOL0    Cl11716   3.446   3.365   1.279 -0.5493  0.5184 -0.3992
  847MOL0     C11717   3.422   3.033   1.754 -0.7909  0.0473  0.6276
  847MOL0     C11718   3.552   3.039   1.696  0.8561 -0.3671 -0.2932
  847MOL0     O11719   3.817   2.937   1.616 -0.1354 -0.1071 -0.6025
  847MOL0     C11720   3.921   3.189   1.389  0.3181  0.4428  0.5968
  847MOL0     C11721   4.037   3.255   1.355 -0.4912  0.7087  0.5791
  847MOL0     N11722   4.844   3.060   1.147 -0.9357  0.1702  0.0307
  847MOL0     N11723   4.980   3.053   1.155 -0.2283 -0.4295  0.4855
  847MOL0     C11724   4.464   2.667   1.958  0.3846 -1.0346  0.8394
  847MOL0     C11725   4.339   2.617   1.993  0.3876 -0.3062  0.3889
  847MOL0     C11726   3.934   2.412   1.867  0.4513  0.1419 -0.2674
  847MOL0     C11727   3.946   2.305   1.964  0.0061 -0.9799  0.9426
  847MOL0     C11728   3.839   2.217   1.981  0.4460  0.4931  0.0541
  847MOL0     C11729   3.715   2.228   1.914  0.3284  0.4340  0.4079
  847MOL0     O11730   3.605   2.138   1.935 -1.0519  0.3678 -0.0012
  847MOL0     C11731   3.483   2.145   1.859 -0.0041 -0.5172  0.3533
  847MOL0     C11732   3.377   2.061   1.937 -0.0013 -0.1502  0.1295
  847MOL0     C11733   3.228   2.087   1.892 -0.3133 -0.8791  0.0976
  847MOL0     C11734   3.178   2.225   1.897  0.4133  0.7388 -0.3474
  847MOL0     C11735   3.203   2.287   2.029  0.2824 -0.1186 -0.3365
  847MOL0     C11736   3.228   2.317   2.148  0.6013 -0.5716  0.4696
  847MOL0     C11737   3.707   2.322   1.812 -0.1615  0.7009  0.5200
  847MOL0     C11738   3.809   2.418   1.801  0.1682  0.3702 -0.1374
  847MOL0     H11739   4.243   2.538   1.672  1.7955 -1.7415 -2.0895
  847MOL0     H11740   4.471   2.642   1.626  0.5038  1.5817  0.8188
  847MOL0     H11741   4.632   2.843   1.628 -0.9987  1.2959  2.6112
  847MOL0     H11742   4.698   2.678   1.637 -1.5596  0.2733  0.2258
  847MOL0     H11743   4.903   2.751   1.741 -0.0763 -1.5862 -1.2118
  847MOL0     H11744   4.835   2.900   1.796  1.0444 -1.2440  0.7345
  847MOL0     H11745   4.837   2.997   1.570  0.6222  0.5122 -0.5644
  847MOL0     H11746   4.880   2.836   1.499 -0.4726  0.9406 -0.6989
  847MOL0     H11747   5.055   2.991   1.710  0.6207 -1.1347  0.7517
  847MOL0     H11748   5.100   2.858   1.593  0.3836  0.1997 -1.5949
  847MOL0     H11749   4.992   3.136   1.511 -0.5850  0.6252 -0.0094
  847MOL0     H11750   5.028   2.989   1.409  0.7447 -3.7379  2.4862
  847MOL0     H11751   5.259   3.030   1.467  0.8138  1.0534 -1.0626
  847MOL0     H11752   5.210   3.149   1.595  1.3186  1.2668 -1.5011
  847MOL0     H11753   5.123   3.308   1.429  1.0346 -0.8905  3.5841
  847MOL0     H11754   5.293   3.268   1.411  0.0636  1.5642  1.0396
  847MOL0     H11755   5.229   3.124   1.209  0.7467  1.0243 -1.9000
  847MOL0     H11756   5.190   3.298   1.188 -2.4808 -0.1570 -0.3013
  847MOL0     H11757   4.923   3.369   1.244  1.1566  0.3085  1.3184
  847MOL0     H11758   4.627   3.282   1.117 -2.4354  2.0436  1.1181
  847MOL0     H11759   4.664   3.333   1.275 -0.5348 -0.3924 -0.2362
  847MOL0     H11760   4.614   3.110   1.378 -1.8747 -1.4569 -0.1740
  847MOL0     H11761   4.581   3.050   1.222  0.1472 -0.2584  1.7777
  847MOL0     H11762   4.400   3.234   1.189 -1.3495  0.5196  0.9999
  847MOL0     H11763   4.371   3.093   1.273 -0.7377  0.7316 -1.8875
  847MOL0     H11764   4.468   3.349   1.408 -1.8720  1.2757 -0.3311
  847MOL0     H11765   4.412   3.206   1.483 -0.9591 -1.0205  0.0637
  847MOL0     H11766   4.241   3.146   1.609  2.2479 -1.2265 -2.4781
  847MOL0     H11767   4.031   3.056   1.681  0.3088  2.3332  0.6013
  847MOL0     H11768   3.464   3.098   1.372 -0.7031 -2.5160  0.0536
  847MOL0     H11769   3.232   3.063   1.480  1.6308  2.3840 -2.1710
  847MOL0     H11770   3.232   3.170   1.884 -1.4774  0.3700  1.5253
  847MOL0     H11771   3.169   3.010   1.936 -3.1036 -0.0615 -0.2030
  847MOL0     H11772   2.999   3.181   1.965  0.8720  2.8492  0.1010
  847MOL0     H11773   2.949   3.073   1.837  0.3499  2.0625 -1.3710
  847MOL0     H11774   2.908   3.299   1.753 -0.0584 -0.3282  1.0674
  847MOL0     H11775   3.008   3.218   1.648 -1.6280  2.1922 -1.2809
  847MOL0     H11776   3.107   3.425   1.851 -1.6727  0.1977  1.5121
  847MOL0     H11777   3.212   3.351   1.734 -0.3724  1.4122  1.6727
  847MOL0     H11778   3.140   3.577   1.658 -0.6347  0.4073 -0.1660
  847MOL0     H11779   2.970   3.525   1.649 -0.8693 -0.9713  0.0312
  847MOL0     H11780   3.077   3.544   1.435 -0.6186 -1.0788 -0.9311
  847MOL0     H11781   3.053   3.375   1.450  2.8266 -3.2487  0.3361
  847MOL0     H11782   3.321   3.509   1.489  1.7171 -1.2217  1.2642
  847MOL0     H11783   3.285   3.340   1.533 -0.5835 -0.3214 -0.2295
  847MOL0     H11784   3.218   3.434   1.259 -0.5498  0.5554  1.7753
  847MOL0     H11785   3.243   3.264   1.312  2.1814 -0.9699 -1.6387
  847MOL0     H11786   3.423   3.010   1.860 -3.1888  2.3347  1.2601
  847MOL0     H11787   3.639   3.048   1.761  1.3372 -0.5693 -0.9005
  847MOL0     H11788   3.833   3.191   1.324  2.0821 -0.3365 -1.9776
  847MOL0     H11789   4.038   3.317   1.267 -3.6788 -0.6687 -0.5710
  847MOL0     H11790   4.527   2.696   2.042 -0.2355  2.4311  0.2716
  847MOL0     H11791   4.310   2.595   2.096 -0.0990  4.3680  1.4465
  847MOL0     H11792   4.039   2.282   2.016  0.8322 -1.3730 -0.6247
  847MOL0     H11793   3.860   2.135   2.048  0.3283 -1.7899 -2.5516
  847MOL0     H11794   3.509   2.096   1.765  1.6318 -0.7062  0.8852
  847MOL0     H11795   3.456   2.251   1.847  0.0599 -0.5904 -0.5264
  847MOL0     H11796   3.406   1.957   1.918  1.7873 -0.0227  1.7733
  847MOL0     H11797   3.390   2.087   2.043  0.7804  0.0068  0.0008
  847MOL0     H11798   3.175   2.029   1.968 -0.4836 -2.3588 -1.0871
  847MOL0     H11799   3.210   2.037   1.796 -0.6837 -2.2635  0.8584
  847MOL0     H11800   3.230   2.274   1.815  1.7326 -0.6715 -0.4071
  847MOL0     H11801   3.069   2.230   1.891  0.5180  2.5973 -1.2366
  847MOL0     H11802   3.251   2.330   2.252  2.3318 -1.8179  0.3024
  847MOL0     H11803   3.619   2.345   1.753 -0.2952  2.0715  1.2110
  847MOL0     H11804   3.785   2.476   1.712 -0.7548 -0.4351 -0.4365
  848MOL0     O11805   2.532   0.409   1.261 -0.2894  0.0848  0.0378
  848MOL0     C11806   2.537   0.311   1.337  0.3181 -0.3447 -0.2590
  848MOL0     O11807   2.433   0.252   1.395 -0.2176  0.4752 -0.1677
  848MOL0     C11808   2.309   0.291   1.383 -0.6919 -0.1149  0.6259
  848MOL0     C11809   2.268   0.417   1.408  0.5049 -0.2958  0.3247
  848MOL0     C11810   2.135   0.454   1.420 -1.9601 -0.0146 -0.0761
  848MOL0     C11811   2.040   0.361   1.403  0.9750  0.6393 -0.0878
  848MOL0     O11812   1.905   0.385   1.421  0.2442 -0.7614 -0.6162
  848MOL0     C11813   1.808   0.336   1.320 -0.1322 -0.2657 -0.7845
  848MOL0     C11814   1.779   0.440   1.212 -0.1685 -0.3627  0.6375
  848MOL0     C11815   1.688   0.550   1.257  0.5371  0.3254 -0.3440
  848MOL0     C11816   1.659   0.641   1.137 -0.1058 -0.1687  0.3426
  848MOL0     C11817   1.551   0.741   1.163  0.1062  0.5133 -0.3550
  848MOL0     C11818   1.471   0.800   1.038 -0.7224 -0.7492  0.4214
  848MOL0     C11819   1.555   0.892   0.956  0.6873  0.5835 -0.6275
  848MOL0     C11820   1.485   0.951   0.836  0.3961  0.6734  0.0136
  848MOL0     N11821   1.394   0.857   0.762  0.1395 -0.0433 -0.3064
  848MOL0     C11822   1.429   0.737   0.698 -0.2844 -1.3511  0.1569
  848MOL0     C11823   1.312   0.687   0.640  0.5337 -0.4917 -0.2319
  848MOL0     C11824   1.295   0.559   0.574  0.0388  0.0547 -0.1570
  848MOL0     C11825   1.302   0.563   0.422  0.5257 -0.5182 -0.0708
  848MOL0     C11826   1.199   0.661   0.354  0.8850 -0.6446 -0.0222
  848MOL0     C11827   1.046   0.627   0.372 -0.1773 -0.4641 -0.1616
  848MOL0     O11828   1.041   0.487   0.333  0.6190 -0.2140 -0.0780
  848MOL0     C11829   0.933   0.416   0.380 -0.1741 -0.7365 -0.1897
  848MOL0     C11830   0.910   0.294   0.323 -0.2012 -0.5463  0.1759
  848MOL0     C11831   0.817   0.208   0.380  0.7569  0.0615 -0.1849
  848MOL0     C11832   0.747   0.245   0.494 -0.2263 -0.5092 -0.2265
  848MOL0     C11833   0.647   0.151   0.559  0.7953  0.0841 -0.2985
  848MOL0     O11834   0.578   0.193   0.671  0.2226  0.3945 -0.3066
  848MOL0     C11835   0.469   0.140   0.731 -0.6112 -0.4350  0.1441
  848MOL0     C11836   0.434   0.010   0.745  0.5359  1.2787 -0.6058
  848MOL0     C11837   0.319  -0.025   0.808 -0.6079 -0.3750  0.3649
  848MOL0     C11838   0.228   0.074   0.857 -0.0574  0.0513 -0.3855
  848MOL0     O11839   0.106   0.051   0.923 -0.3295  0.2104 -0.5145
  848MOL0     C11840   0.047  -0.077   0.888 -0.4194  0.3600 -0.5336
  848MOL0     C11841  -0.085  -0.091   0.972 -0.0720  0.2122  0.9403
  848MOL0     C11842  -0.177   0.025   0.938 -0.2872  0.0615  0.3308
  848MOL0     C11843  -0.323  -0.002   0.981  0.1609  0.2358 -0.5752
  848MOL0     C11844  -0.420   0.094   0.924  0.2597  0.1337  0.3875
  848MOL0     C11845  -0.555   0.095   0.991  0.1345  0.5155  0.1359
  848MOL0     C11846  -0.662   0.188   0.942  0.1149 -0.3356 -0.5916
  848MOL0     C11847  -0.640   0.340   0.975  0.1354  0.1523 -1.0782
  848MOL0    Cl11848  -0.673   0.361   1.151 -0.0149  0.3468  0.7233
  848MOL0     C11849   0.269   0.213   0.848  1.0878 -0.9305  0.1334
  848MOL0     C11850   0.389   0.242   0.789 -0.2629  0.1954  0.3005
  848MOL0     O11851   0.624   0.039   0.503 -0.4610 -0.5223 -0.0981
  848MOL0     C11852   0.771   0.374   0.544 -0.2876  0.0594  0.7266
  848MOL0     C11853   0.852   0.466   0.489 -0.2411 -1.5037 -0.6590
  848MOL0     N11854   1.209   0.773   0.678 -0.7301 -0.3042  0.3363
  848MOL0     N11855   1.258   0.877   0.749  0.5139  0.0040  1.5179
  848MOL0     C11856   2.079   0.223   1.383 -0.3984 -0.6897 -0.0563
  848MOL0     C11857   2.210   0.195   1.369  0.1920  0.0149 -0.2460
  848MOL0     C11858   2.671   0.263   1.385  0.7656 -0.0753  0.8466
  848MOL0     C11859   2.782   0.304   1.307  1.0822 -0.6436 -0.4306
  848MOL0     C11860   2.912   0.261   1.323  0.2482  0.1476 -0.5668
  848MOL0     C11861   2.938   0.183   1.437  0.6750  1.2623 -0.9486
  848MOL0     O11862   3.066   0.132   1.474  0.0634 -0.0724 -0.0563
  848MOL0     C11863   3.179   0.162   1.396  0.4316 -0.5719  0.7091
  848MOL0     C11864   3.234   0.296   1.437 -0.0669  0.3107 -0.6194
  848MOL0     C11865   3.324   0.297   1.562 -0.1869 -0.5114  0.3805
  848MOL0     C11866   3.367   0.432   1.623 -0.5870 -0.5304  0.2446
  848MOL0     C11867   3.254   0.519   1.646 -0.6629 -0.4780 -0.9848
  848MOL0     C11868   3.165   0.587   1.693  0.2613  0.3789 -0.6783
  848MOL0     C11869   2.824   0.137   1.516  0.4686 -0.3070  0.3080
  848MOL0     C11870   2.690   0.178   1.491 -0.6192 -0.1446  1.0139
  848MOL0     H11871   2.346   0.491   1.425  0.1406  0.9212 -2.5675
  848MOL0     H11872   2.100   0.551   1.454  0.3788 -0.3541  3.8915
  848MOL0     H11873   1.722   0.297   1.375 -0.9435  1.3300 -0.8882
  848MOL0     H11874   1.853   0.248   1.273 -0.6566 -0.8314 -0.2476
  848MOL0     H11875   1.733   0.390   1.126  0.8747 -1.6216  0.7758
  848MOL0     H11876   1.875   0.478   1.177 -0.9084 -1.0953 -2.4833
  848MOL0     H11877   1.726   0.614   1.337  2.4219 -2.2642  0.9838
  848MOL0     H11878   1.599   0.498   1.293 -1.6482  1.6502 -3.3772
  848MOL0     H11879   1.749   0.697   1.110 -0.7207  0.8721  0.4276
  848MOL0     H11880   1.616   0.584   1.053  0.3074  0.9539 -0.6572
  848MOL0     H11881   1.596   0.819   1.224 -1.9747 -0.1255  2.1752
  848MOL0     H11882   1.481   0.677   1.217  0.1934  0.4894 -0.2706
  848MOL0     H11883   1.391   0.855   1.089 -0.3841  1.7950 -1.5880
  848MOL0     H11884   1.429   0.719   0.978 -2.3013  0.0814  0.3493
  848MOL0     H11885   1.584   0.968   1.029 -3.0161  2.8474 -1.2074
  848MOL0     H11886   1.649   0.851   0.918  0.6649  1.3266 -1.5515
  848MOL0     H11887   1.560   0.993   0.769  1.3421 -1.6197 -0.4491
  848MOL0     H11888   1.430   1.040   0.868 -0.7956  0.1781 -0.5920
  848MOL0     H11889   1.533   0.704   0.695 -0.3319 -1.5910  0.8578
  848MOL0     H11890   1.201   0.519   0.612 -0.9191 -1.4713 -3.6772
  848MOL0     H11891   1.368   0.481   0.598 -0.4053 -0.8877 -1.6991
  848MOL0     H11892   1.279   0.460   0.391 -0.9092 -0.1968 -0.1046
  848MOL0     H11893   1.408   0.573   0.397  0.6879 -1.3058  0.2570
  848MOL0     H11894   1.213   0.763   0.391 -2.4577  1.2484 -3.2958
  848MOL0     H11895   1.223   0.676   0.249 -0.8153 -2.2752 -0.7137
  848MOL0     H11896   0.973   0.686   0.316 -1.7942 -0.9944  1.2673
  848MOL0     H11897   1.034   0.650   0.478  0.7572 -0.0578 -0.1379
  848MOL0     H11898   0.972   0.273   0.236 -1.0618  1.9396 -1.1303
  848MOL0     H11899   0.805   0.110   0.333  0.7066  0.6212 -1.3769
  848MOL0     H11900   0.507  -0.065   0.717  0.7899  1.8295 -1.4443
  848MOL0     H11901   0.297  -0.130   0.822 -2.8960 -0.0094 -0.1555
  848MOL0     H11902   0.112  -0.158   0.922 -1.3374  0.1534  0.8057
  848MOL0     H11903   0.019  -0.088   0.783  0.7465  0.6812 -0.8965
  848MOL0     H11904  -0.057  -0.098   1.078 -0.4795 -3.3577  0.9503
  848MOL0     H11905  -0.128  -0.188   0.943  3.2506 -1.3681  0.8355
  848MOL0     H11906  -0.175   0.042   0.830 -3.0118 -1.4890 -0.0468
  848MOL0     H11907  -0.144   0.112   0.996 -0.6041 -0.9118  2.0725
  848MOL0     H11908  -0.356  -0.104   0.955  0.4612 -0.0513  0.1604
  848MOL0     H11909  -0.328   0.007   1.090 -2.1444 -1.8648 -0.4131
  848MOL0     H11910  -0.440   0.076   0.818 -2.0632  2.1123  0.3816
  848MOL0     H11911  -0.378   0.194   0.935 -1.0479  0.6930  0.5491
  848MOL0     H11912  -0.530   0.105   1.097  1.2975  2.5033 -0.2651
  848MOL0     H11913  -0.611   0.002   0.983 -0.0458  0.4978  1.4361
  848MOL0     H11914  -0.669   0.188   0.832 -1.2042 -0.7215 -0.5161
  848MOL0     H11915  -0.763   0.158   0.970 -1.3590  4.6000  0.3639
  848MOL0     H11916  -0.709   0.397   0.912  1.2997  0.8634 -1.7540
  848MOL0     H11917  -0.537   0.370   0.957 -0.6018  2.6185 -1.5819
  848MOL0     H11918   0.197   0.285   0.886 -1.4716 -2.7878 -0.8547
  848MOL0     H11919   0.422   0.345   0.776 -0.9929  0.0506 -4.4222
  848MOL0     H11920   0.705   0.413   0.621 -0.8390  0.8648 -0.1257
  848MOL0     H11921   0.860   0.565   0.533 -2.2534 -2.0008  0.9639
  848MOL0     H11922   2.006   0.143   1.377 -0.5690 -0.4581 -1.3286
  848MOL0     H11923   2.241   0.092   1.354 -2.9489 -0.7879 -2.2242
  848MOL0     H11924   2.765   0.358   1.214 -1.0259  1.1945  0.9302
  848MOL0     H11925   2.990   0.296   1.256  0.4770  1.9012  0.5638
  848MOL0     H11926   3.151   0.164   1.290 -1.7047  0.6625  1.2483
  848MOL0     H11927   3.254   0.082   1.404 -0.2919 -1.2048  1.3083
  848MOL0     H11928   3.296   0.331   1.354  0.9757 -2.5997 -1.2071
  848MOL0     H11929   3.158   0.371   1.462 -0.1009 -0.2721  1.1644
  848MOL0     H11930   3.415   0.239   1.549  2.0962  1.7140  4.4372
  848MOL0     H11931   3.263   0.241   1.635 -1.0816 -2.7003 -1.8983
  848MOL0     H11932   3.421   0.423   1.717  0.8992  1.9238 -0.2783
  848MOL0     H11933   3.431   0.487   1.553  0.0221  2.7540  3.1248
  848MOL0     H11934   3.091   0.636   1.752  0.4838 -1.2603  1.0497
  848MOL0     H11935   2.842   0.081   1.607  1.3178  2.4591  1.9664
  848MOL0     H11936   2.608   0.145   1.554 -2.7040  1.4444 -0.7423
  849MOL0     O11937   2.233   9.709   4.879 -0.1761 -0.2553  0.4871
  849MOL0     C11938   2.228   9.816   4.942 -0.0525 -0.0803 -1.0204
  849MOL0     O11939   2.111   9.866   4.996  0.6609  0.5274 -0.9186
  849MOL0     C11940   2.007   9.778   4.994 -0.2058 -0.3321 -0.7186
  849MOL0     C11941   1.929   9.756   4.879  0.6738  0.5294 -0.3805
  849MOL0     C11942   1.812   9.675   4.884 -0.0453 -0.0663  0.3649
  849MOL0     C11943   1.773   9.617   5.005  0.4029  0.3626  1.0411
  849MOL0     O11944   1.667   9.539   5.019  0.4480  0.7348  0.2177
  849MOL0     C11945   1.557   9.560   4.931 -1.0103  0.3238  0.2412
  849MOL0     C11946   1.437   9.502   5.002 -0.9903 -0.2795 -0.3520
  849MOL0     C11947   1.312   9.486   4.916 -0.1091  0.7517  0.9608
  849MOL0     C11948   1.221   9.396   5.001  0.3021 -0.5585 -0.2308
  849MOL0     C11949   1.105   9.359   4.912 -0.2396  0.6447 -0.2834
  849MOL0     C11950   1.030   9.245   4.982  0.2303 -0.0375  0.2268
  849MOL0     C11951   0.894   9.212   4.915  0.3887  0.4544 -0.1508
  849MOL0     C11952   0.891   9.089   4.830  0.0448 -0.6496  0.5010
  849MOL0     N11953   0.963   9.094   4.707 -0.2397  0.4504  0.6908
  849MOL0     C11954   0.941   9.184   4.610  1.1389  0.0871  0.2740
  849MOL0     C11955   1.053   9.173   4.530  1.0046  0.8217  0.4546
  849MOL0     C11956   1.097   9.254   4.415 -0.4955  0.8570 -0.2250
  849MOL0     C11957   1.217   9.187   4.345 -0.0637 -0.0246 -0.2947
  849MOL0     C11958   1.251   9.266   4.219 -0.5431  0.4105  0.3800
  849MOL0     C11959   1.381   9.205   4.151 -0.3202  0.3513 -0.1776
  849MOL0     O11960   1.498   9.211   4.235  0.1926  0.6113 -0.2181
  849MOL0     C11961   1.618   9.176   4.189  0.7654 -0.1340  0.3041
  849MOL0     C11962   1.729   9.236   4.246 -0.0619 -0.6220 -0.1784
  849MOL0     C11963   1.860   9.190   4.220 -0.7221 -0.2215  0.0534
  849MOL0     C11964   1.878   9.089   4.126  0.2143 -0.4756 -1.0482
  849MOL0     C11965   2.015   9.043   4.093  0.1927  0.3150 -0.0653
  849MOL0     O11966   2.014   8.971   3.977  0.4461  0.6615  0.5436
  849MOL0     C11967   2.131   8.925   3.931 -0.1687 -0.1666  1.2621
  849MOL0     C11968   2.157   8.934   3.795 -0.0471  0.3843 -0.7264
  849MOL0     C11969   2.263   8.862   3.734  0.5381  0.4352  1.2187
  849MOL0     C11970   2.352   8.789   3.817 -0.3728 -0.0192 -0.4340
  849MOL0     O11971   2.439   8.701   3.758 -0.4988 -0.3511  0.4653
  849MOL0     C11972   2.557   8.673   3.836  0.6092  0.2377  0.3284
  849MOL0     C11973   2.664   8.611   3.741 -0.2713 -0.4511  0.2081
  849MOL0     C11974   2.715   8.707   3.635 -0.0340 -0.3907  0.3496
  849MOL0     C11975   2.819   8.646   3.541 -0.7360  0.1059  1.0278
  849MOL0     C11976   2.766   8.543   3.433 -0.0971  0.6610  0.0210
  849MOL0     C11977   2.652   8.612   3.348 -0.0703 -0.2870  0.3279
  849MOL0     C11978   2.505   8.566   3.379 -0.3620 -0.2371 -0.5453
  849MOL0     C11979   2.479   8.415   3.347 -0.1110 -0.5512  0.7100
  849MOL0    Cl11980   2.455   8.395   3.167 -0.1480 -0.2428 -0.2142
  849MOL0     C11981   2.333   8.791   3.959 -0.2055 -0.9574  0.0080
  849MOL0     C11982   2.227   8.865   4.012  0.4673  0.4748 -0.0286
  849MOL0     O11983   2.114   9.083   4.157  1.2612  0.2973 -0.5104
  849MOL0     C11984   1.763   9.050   4.050 -0.1356  0.1260  0.4552
  849MOL0     C11985   1.633   9.087   4.082 -0.3053  0.5004  0.1983
  849MOL0     N11986   1.129   9.070   4.582 -0.5864 -0.1616 -0.2570
  849MOL0     N11987   1.080   9.027   4.688 -0.4005 -1.4098 -0.0953
  849MOL0     C11988   1.849   9.637   5.110  0.3792  0.5430  0.0138
  849MOL0     C11989   1.956   9.722   5.111  0.7300  0.2500 -0.4490
  849MOL0     C11990   2.346   9.895   4.965 -0.7030 -0.1075 -0.1981
  849MOL0     C11991   2.464   9.871   4.893 -0.3981 -0.0114 -0.0647
  849MOL0     C11992   2.572   9.956   4.908 -1.2182 -0.1048 -0.2031
  849MOL0     C11993   2.582  10.060   5.009  0.3086  0.6949 -0.3909
  849MOL0     O11994   2.688  10.140   5.039  0.6258 -1.1802 -0.1597
  849MOL0     C11995   2.730  10.222   4.933  0.3461 -1.0597  0.6212
  849MOL0     C11996   2.869  10.192   4.896  0.8519  0.0115 -0.1966
  849MOL0     C11997   2.919  10.295   4.790  1.0363  0.0113  0.4324
  849MOL0     C11998   3.064  10.259   4.755 -0.1147  0.4823 -0.1076
  849MOL0     C11999   3.123  10.339   4.653 -0.5626 -0.0567  0.1602
  849MOL0     C12000   3.160  10.417   4.568  0.3403 -1.0459 -0.1933
  849MOL0     C12001   2.464  10.073   5.091 -0.3095  0.1601  0.4023
  849MOL0     C12002   2.350   9.996   5.066 -0.8254  0.9481  0.3317
  849MOL0     H12003   1.972   9.789   4.785  0.1364 -1.3452 -1.3424
  849MOL0     H12004   1.768   9.636   4.792 -0.5983  1.1957  0.0800
  849MOL0     H12005   1.568   9.510   4.835  0.2371 -0.0438  0.5536
  849MOL0     H12006   1.537   9.665   4.910 -0.8375 -0.2459 -3.3534
  849MOL0     H12007   1.425   9.553   5.098  1.2366  1.9027 -1.1055
  849MOL0     H12008   1.470   9.402   5.032 -1.5100 -0.1865  0.5641
  849MOL0     H12009   1.333   9.426   4.827 -2.3548  0.0293  0.8667
  849MOL0     H12010   1.265   9.578   4.882 -3.8595 -1.1653  0.4044
  849MOL0     H12011   1.272   9.309   5.043  1.4343  0.5501  0.7672
  849MOL0     H12012   1.181   9.454   5.085 -2.9679  0.7083 -2.4675
  849MOL0     H12013   1.128   9.324   4.810 -2.6104  1.3199 -1.1196
  849MOL0     H12014   1.039   9.445   4.898 -0.1205  1.0368  1.4458
  849MOL0     H12015   0.999   9.275   5.083 -1.9926  0.6683 -0.5992
  849MOL0     H12016   1.092   9.155   4.985  2.3241  1.3230 -0.1013
  849MOL0     H12017   0.811   9.203   4.986 -0.4290  0.9812 -1.0135
  849MOL0     H12018   0.864   9.305   4.865 -0.2698  0.3094 -0.0319
  849MOL0     H12019   0.784   9.068   4.820 -0.6880  3.2010 -1.2960
  849MOL0     H12020   0.935   9.004   4.882  1.7337 -1.1049 -1.5402
  849MOL0     H12021   0.867   9.264   4.608 -0.6948 -1.4565 -3.5785
  849MOL0     H12022   1.113   9.353   4.459 -2.8391  0.8006  0.8937
  849MOL0     H12023   1.009   9.262   4.351 -1.7506  2.8554  1.6134
  849MOL0     H12024   1.193   9.083   4.319  4.7307 -1.5203  0.4281
  849MOL0     H12025   1.306   9.190   4.408  1.0122  0.3698 -1.7902
  849MOL0     H12026   1.164   9.256   4.154  0.1259 -1.0188 -0.3501
  849MOL0     H12027   1.267   9.372   4.243 -4.5395  0.9082  1.5174
  849MOL0     H12028   1.408   9.267   4.064  2.8396 -1.3760 -0.5641
  849MOL0     H12029   1.355   9.101   4.132 -3.0291  0.7629  0.8841
  849MOL0     H12030   1.705   9.312   4.319  1.0142 -0.5385  0.1093
  849MOL0     H12031   1.944   9.242   4.266  0.8904 -2.7042  0.1161
  849MOL0     H12032   2.085   8.985   3.731  0.2216 -0.2235 -1.5292
  849MOL0     H12033   2.286   8.851   3.629 -0.0865 -1.6774  1.2744
  849MOL0     H12034   2.540   8.593   3.909  2.4691 -0.8646 -0.3681
  849MOL0     H12035   2.587   8.766   3.885 -2.2679  1.6066 -0.3149
  849MOL0     H12036   2.620   8.521   3.697 -0.0631 -0.4677  0.0319
  849MOL0     H12037   2.749   8.586   3.805  0.4906  1.3956 -0.0159
  849MOL0     H12038   2.753   8.801   3.676 -1.2868  0.2407  0.1375
  849MOL0     H12039   2.627   8.742   3.580  1.0661 -0.4453 -1.5495
  849MOL0     H12040   2.881   8.714   3.481  2.5074 -1.6479  2.1275
  849MOL0     H12041   2.889   8.598   3.610  1.6036  3.1899  1.0208
  849MOL0     H12042   2.746   8.443   3.473  5.6196 -0.9503 -0.2827
  849MOL0     H12043   2.837   8.517   3.354 -2.2137 -1.3443 -1.3731
  849MOL0     H12044   2.660   8.574   3.246 -0.5145 -3.8874  1.4689
  849MOL0     H12045   2.659   8.720   3.359 -0.2165 -0.4088  2.0364
  849MOL0     H12046   2.483   8.566   3.486 -1.0511  0.8439 -0.6701
  849MOL0     H12047   2.442   8.636   3.323 -1.3556  0.0678  0.8845
  849MOL0     H12048   2.392   8.390   3.409 -0.2972 -0.1089  0.6294
  849MOL0     H12049   2.563   8.353   3.382 -0.8776 -0.4854  2.8107
  849MOL0     H12050   2.401   8.750   4.033  0.8215  1.0757  0.2703
  849MOL0     H12051   2.220   8.865   4.120 -0.6689 -1.7989 -0.0368
  849MOL0     H12052   1.778   8.987   3.963 -1.4404  0.0134  0.2922
  849MOL0     H12053   1.561   9.029   4.025  1.5798 -2.3046  0.4706
  849MOL0     H12054   1.831   9.573   5.196 -3.0760 -0.9786 -1.6682
  849MOL0     H12055   2.006   9.741   5.205 -1.7497 -0.0585  1.0145
  849MOL0     H12056   2.464   9.798   4.812 -2.6041 -1.1918  0.9100
  849MOL0     H12057   2.658   9.940   4.843 -1.2009 -0.0294 -0.1991
  849MOL0     H12058   2.712  10.327   4.956 -0.9202 -0.2909 -3.1179
  849MOL0     H12059   2.664  10.210   4.846  0.0852 -0.0133  0.6649
  849MOL0     H12060   2.943  10.200   4.977  0.1582 -1.3864  0.6098
  849MOL0     H12061   2.867  10.091   4.855  0.3910 -1.1025  2.4141
  849MOL0     H12062   2.914  10.397   4.830 -1.3160  0.3491 -0.5440
  849MOL0     H12063   2.860  10.281   4.699  2.4139  1.1945 -0.6994
  849MOL0     H12064   3.128  10.270   4.844  1.6858 -1.1648 -1.1211
  849MOL0     H12065   3.065  10.154   4.724  3.2878  0.4966 -0.4178
  849MOL0     H12066   3.205  10.488   4.502 -0.7043 -1.2573 -1.1658
  849MOL0     H12067   2.468  10.155   5.162  0.5225 -0.4873  1.1243
  849MOL0     H12068   2.267   9.999   5.136  0.0737 -0.3865  1.5072
  850MOL0     O12069   4.892   8.847   7.855  0.4332  0.2347 -0.3092
  850MOL0     C12070   4.969   8.864   7.949 -0.2511 -0.3525  0.3575
  850MOL0     O12071   4.931   8.875   8.079 -0.2131 -0.2037  0.3343
  850MOL0     C12072   4.794   8.859   8.097  0.4291 -0.5046 -0.1465
  850MOL0     C12073   4.714   8.972   8.144 -0.0928  0.4424 -0.1089
  850MOL0     C12074   4.578   8.954   8.173  0.7353  0.8643  0.6742
  850MOL0     C12075   4.513   8.831   8.168 -0.3647 -0.3506 -0.0585
  850MOL0     O12076   4.377   8.818   8.187  0.1819  0.4198 -0.1673
  850MOL0     C12077   4.307   8.881   8.291  0.1173  0.1284  0.4322
  850MOL0     C12078   4.165   8.828   8.315  0.7718 -0.4241  0.0423
  850MOL0     C12079   4.167   8.671   8.325  0.7732  0.0485  0.8129
  850MOL0     C12080   4.045   8.599   8.392 -0.2100 -1.1103 -0.2372
  850MOL0     C12081   4.016   8.463   8.342  0.2843  0.3946  0.5296
  850MOL0     C12082   3.868   8.428   8.381  0.3757 -0.1443 -0.9226
  850MOL0     C12083   3.860   8.369   8.519 -0.3861 -0.3112  0.2554
  850MOL0     C12084   3.719   8.379   8.572  0.7852 -0.3086 -0.2520
  850MOL0     N12085   3.720   8.313   8.701  0.4936  0.5875 -0.1340
  850MOL0     C12086   3.798   8.358   8.809 -0.5666 -0.6448 -0.5329
  850MOL0     C12087   3.753   8.286   8.911  0.5466  0.4220  0.2820
  850MOL0     C12088   3.801   8.302   9.047 -1.3940  0.0958  0.4982
  850MOL0     C12089   3.893   8.199   9.092 -0.8891  0.0374 -0.1999
  850MOL0     C12090   3.961   8.231   9.229 -0.1536  0.1729 -0.6716
  850MOL0     C12091   3.872   8.220   9.359 -0.0298  0.7559  0.0973
  850MOL0     O12092   3.827   8.086   9.366  0.3055 -0.8030 -0.0331
  850MOL0     C12093   3.732   8.054   9.460  0.0072  1.0520  0.3389
  850MOL0     C12094   3.642   7.944   9.436 -0.1085  0.6255 -0.2286
  850MOL0     C12095   3.521   7.930   9.518 -0.2704 -0.3641  0.4374
  850MOL0     C12096   3.490   8.027   9.622 -0.3536 -0.1613  0.4666
  850MOL0     C12097   3.373   8.012   9.709 -0.1117  0.0407 -0.3188
  850MOL0     O12098   3.265   7.938   9.661 -0.0784 -0.5239  0.1303
  850MOL0     C12099   3.160   7.926   9.740 -0.2400  0.3435 -0.3323
  850MOL0     C12100   3.162   7.923   9.886 -0.3999 -0.4231 -0.1035
  850MOL0     C12101   3.042   7.910   9.951 -0.0227 -0.6471  0.3942
  850MOL0     C12102   2.918   7.914   9.882 -0.9465 -0.7471 -0.1898
  850MOL0     O12103   2.805   7.914   9.948  0.0524  0.3636 -0.1658
  850MOL0     C12104   2.675   7.929   9.873  0.0387  0.7909 -0.7479
  850MOL0     C12105   2.564   7.932   9.982 -0.7897 -0.3255  0.2107
  850MOL0     C12106   2.428   7.953   9.920 -0.6163  0.3355  0.5229
  850MOL0     C12107   2.376   8.096   9.934 -0.8474 -0.1077  0.2223
  850MOL0     C12108   2.247   8.126   9.871  0.6069  0.0858 -0.2491
  850MOL0     C12109   2.237   8.095   9.724  0.8130 -0.2670  0.6908
  850MOL0     C12110   2.339   8.173   9.635 -0.0915  0.0782 -0.2536
  850MOL0     C12111   2.309   8.145   9.493 -0.2496 -0.3975  0.8435
  850MOL0    Cl12112   2.159   8.222   9.429 -0.0440 -0.6054  0.1232
  850MOL0     C12113   2.921   7.930   9.740 -0.1354  0.3479  0.0280
  850MOL0     C12114   3.036   7.929   9.662 -0.2011  0.6590  0.2065
  850MOL0     O12115   3.385   8.066   9.818 -0.2250 -0.7323  0.0601
  850MOL0     C12116   3.575   8.135   9.634  0.1528 -0.4849 -0.5444
  850MOL0     C12117   3.697   8.146   9.560  0.8305  0.0963  0.5980
  850MOL0     N12118   3.663   8.190   8.863 -0.4658 -0.7745  0.0927
  850MOL0     N12119   3.643   8.205   8.740  0.1647 -0.6919 -0.0297
  850MOL0     C12120   4.593   8.723   8.120  0.9441 -0.9210  0.3149
  850MOL0     C12121   4.730   8.735   8.084 -0.1148  0.9419  0.1113
  850MOL0     C12122   5.111   8.872   7.909  0.4429  0.7961  0.8910
  850MOL0     C12123   5.148   8.869   7.774 -0.4810  0.0487 -0.1772
  850MOL0     C12124   5.286   8.883   7.743  0.3449 -0.6993  0.9945
  850MOL0     C12125   5.383   8.878   7.838  0.4198  0.3775 -0.0271
  850MOL0     O12126   5.514   8.889   7.790  0.1564 -0.8368 -0.6937
  850MOL0     C12127   5.625   8.862   7.889  0.2854 -0.5703 -0.0872
  850MOL0     C12128   5.632   8.716   7.902  0.0459  0.7342  0.4020
  850MOL0     C12129   5.753   8.685   8.013  0.8216  0.1747  0.1706
  850MOL0     C12130   5.752   8.531   8.021 -0.0215 -0.4084  0.2540
  850MOL0     C12131   5.631   8.480   8.079 -0.0530 -0.4242  0.0747
  850MOL0     C12132   5.522   8.443   8.104  0.1078 -0.7950  0.1933
  850MOL0     C12133   5.342   8.854   7.970  0.2703  0.2018  0.3169
  850MOL0     C12134   5.210   8.874   8.006 -0.0533  0.3404  0.0209
  850MOL0     H12135   4.762   9.069   8.151 -0.3721  0.5665  0.0727
  850MOL0     H12136   4.517   9.036   8.212  0.1776  0.1168  1.4296
  850MOL0     H12137   4.302   8.986   8.260 -0.0838 -0.3059 -1.0631
  850MOL0     H12138   4.368   8.878   8.382  1.1609  0.2864 -0.2384
  850MOL0     H12139   4.089   8.846   8.238 -0.5894 -0.4755  1.3362
  850MOL0     H12140   4.124   8.868   8.408 -1.3426 -1.4106 -0.4145
  850MOL0     H12141   4.263   8.641   8.369  2.3206 -0.1705 -2.4402
  850MOL0     H12142   4.174   8.644   8.219 -0.9197  1.7465  0.2172
  850MOL0     H12143   4.057   8.595   8.501  1.4217  2.4390 -0.1603
  850MOL0     H12144   3.962   8.666   8.372  0.8670  0.2485 -0.2809
  850MOL0     H12145   4.099   8.401   8.376  1.8096  1.6609 -0.7177
  850MOL0     H12146   4.020   8.463   8.233  0.2534  0.1033  0.5276
  850MOL0     H12147   3.827   8.356   8.309 -2.9699  1.1478 -0.4546
  850MOL0     H12148   3.808   8.518   8.378  0.3730  0.1915  3.2354
  850MOL0     H12149   3.895   8.266   8.501 -0.0574  0.2219 -2.7826
  850MOL0     H12150   3.927   8.416   8.591 -2.3238 -0.7646  2.4944
  850MOL0     H12151   3.641   8.336   8.508 -0.1454  1.2524 -0.2264
  850MOL0     H12152   3.682   8.481   8.587 -0.1945 -0.4160 -1.7446
  850MOL0     H12153   3.872   8.437   8.809 -2.5180  1.2614 -1.1220
  850MOL0     H12154   3.710   8.317   9.105 -2.1412 -2.6973  0.2093
  850MOL0     H12155   3.862   8.392   9.041  1.3295 -1.5680  1.3868
  850MOL0     H12156   3.974   8.189   9.020 -0.4225 -2.0626  0.5332
  850MOL0     H12157   3.846   8.101   9.108 -1.4255  0.6241  2.2607
  850MOL0     H12158   4.051   8.170   9.241 -0.8093 -1.0811 -1.8512
  850MOL0     H12159   3.995   8.333   9.210  0.1410  0.3220  0.5805
  850MOL0     H12160   3.789   8.289   9.343 -0.0641  0.5299 -0.7596
  850MOL0     H12161   3.939   8.238   9.444 -0.5153  1.5644  0.3126
  850MOL0     H12162   3.666   7.866   9.364 -0.1027 -0.0397  0.4755
  850MOL0     H12163   3.449   7.851   9.502 -0.6230  0.1599 -0.7087
  850MOL0     H12164   3.238   7.922   9.964 -3.2127 -0.9994  2.8919
  850MOL0     H12165   3.037   7.899  10.059 -0.3605  0.6649  0.5252
  850MOL0     H12166   2.649   7.847   9.805 -4.1097 -1.6781  3.2480
  850MOL0     H12167   2.662   8.027   9.826 -1.6899  0.7910 -0.3282
  850MOL0     H12168   2.592   8.026  10.031  0.9101 -0.4560 -0.4331
  850MOL0     H12169   2.572   7.857  10.062  3.1906  0.4000  0.7078
  850MOL0     H12170   2.362   7.877   9.963 -1.2303  0.2024 -0.6261
  850MOL0     H12171   2.433   7.937   9.812 -1.0234 -0.1662  0.5734
  850MOL0     H12172   2.373   8.098  10.043 -3.6439 -4.3071  0.4394
  850MOL0     H12173   2.446   8.167   9.890  0.1508 -1.4761 -0.5052
  850MOL0     H12174   2.240   8.235   9.881  2.4566  0.1205  1.4180
  850MOL0     H12175   2.164   8.079   9.925 -0.1514  1.1400 -0.4681
  850MOL0     H12176   2.142   8.123   9.679  1.1912  0.7990  0.5130
  850MOL0     H12177   2.244   7.986   9.715 -1.3349 -0.3791 -0.1031
  850MOL0     H12178   2.333   8.278   9.662  1.2116  0.1185 -0.0454
  850MOL0     H12179   2.441   8.140   9.656  0.1328 -0.7225 -2.3618
  850MOL0     H12180   2.304   8.036   9.484 -0.1812 -0.3230 -0.2034
  850MOL0     H12181   2.397   8.183   9.441 -2.3801  1.4379 -1.7050
  850MOL0     H12182   2.829   7.922   9.683  0.2924 -4.7511 -0.4135
  850MOL0     H12183   3.038   7.927   9.553  1.5592  0.9647  0.2111
  850MOL0     H12184   3.560   8.219   9.702 -1.5397 -0.2279 -1.1922
  850MOL0     H12185   3.746   8.239   9.583 -1.1577  0.6520  3.0027
  850MOL0     H12186   4.546   8.626   8.112 -0.7632 -0.1306  0.3906
  850MOL0     H12187   4.772   8.643   8.046  0.6822  1.2951  0.1197
  850MOL0     H12188   5.082   8.879   7.688 -0.4168 -0.7604 -0.3247
  850MOL0     H12189   5.320   8.899   7.641  0.3959  0.6542  1.2060
  850MOL0     H12190   5.609   8.903   7.990  0.9125 -0.0593 -0.1919
  850MOL0     H12191   5.716   8.906   7.847  0.0921 -1.4334 -1.4666
  850MOL0     H12192   5.540   8.672   7.940 -0.4058  1.6528  0.3753
  850MOL0     H12193   5.665   8.664   7.811  1.2082  1.1345  0.5749
  850MOL0     H12194   5.736   8.737   8.108  0.3171  0.2355  0.0529
  850MOL0     H12195   5.850   8.717   7.975  0.9901 -0.7643 -0.2128
  850MOL0     H12196   5.776   8.501   7.919  2.5114  0.9884  0.3718
  850MOL0     H12197   5.824   8.484   8.089  3.0222  2.4465 -0.7573
  850MOL0     H12198   5.431   8.405   8.146  1.2686 -2.5499  1.2589
  850MOL0     H12199   5.419   8.841   8.045 -0.3532 -0.9784  0.7865
  850MOL0     H12200   5.179   8.875   8.110  1.0965 -0.3628  0.3851
  851MOL0     O12201   0.355   1.892   2.479  0.0796  0.5345  0.0708
  851MOL0     C12202   0.431   1.937   2.392  0.1593 -1.0467 -0.0646
  851MOL0     O12203   0.389   2.026   2.294 -0.7868 -0.5000  0.4354
  851MOL0     C12204   0.276   2.097   2.312  0.8493 -0.8357  0.4801
  851MOL0     C12205   0.196   2.116   2.201 -0.2923 -0.1571  0.3754
  851MOL0     C12206   0.064   2.166   2.221 -0.5903 -0.4106  0.8360
  851MOL0     C12207   0.013   2.192   2.344 -0.4139  0.4704 -0.0948
  851MOL0     O12208  -0.112   2.242   2.370  0.5144 -0.0058  0.0017
  851MOL0     C12209  -0.221   2.218   2.277  0.0150 -0.2427  0.2627
  851MOL0     C12210  -0.349   2.269   2.345 -0.7340 -0.2413 -0.1924
  851MOL0     C12211  -0.348   2.420   2.322  0.1650 -0.2997  0.4783
  851MOL0     C12212  -0.457   2.499   2.394  0.1735  0.1292  0.3040
  851MOL0     C12213  -0.585   2.408   2.425 -0.2631  0.3760  0.1950
  851MOL0     C12214  -0.704   2.495   2.465  0.2176 -0.3679  0.7691
  851MOL0     C12215  -0.729   2.596   2.359 -0.0015 -0.1837 -0.3916
  851MOL0     C12216  -0.879   2.644   2.353 -0.1631  0.1894  1.4046
  851MOL0     N12217  -0.939   2.716   2.464 -0.2893  0.9565  0.1614
  851MOL0     C12218  -0.953   2.853   2.463  0.1641 -0.1766  0.2486
  851MOL0     C12219  -1.012   2.883   2.581  0.4873 -0.4385  0.0988
  851MOL0     C12220  -1.050   3.017   2.623  0.6788 -0.6019  0.4930
  851MOL0     C12221  -1.118   3.025   2.761 -0.3258  0.1779  0.2861
  851MOL0     C12222  -1.254   2.958   2.772  0.0062  0.0856 -0.2331
  851MOL0     C12223  -1.357   3.064   2.746  0.2504 -0.3411 -0.0835
  851MOL0     O12224  -1.496   3.026   2.730 -0.8905 -0.5781  0.1965
  851MOL0     C12225  -1.572   3.071   2.828 -0.1484 -0.4483 -1.1384
  851MOL0     C12226  -1.636   3.196   2.823 -0.6449 -0.6134 -1.2270
  851MOL0     C12227  -1.737   3.242   2.912 -0.5468  0.2490 -0.4043
  851MOL0     C12228  -1.772   3.158   3.016  0.5405 -0.3406 -0.2090
  851MOL0     C12229  -1.882   3.192   3.114  0.2370 -0.4523  0.4565
  851MOL0     O12230  -1.924   3.093   3.205  0.8382 -0.6634  0.3319
  851MOL0     C12231  -2.028   3.124   3.293  0.2689 -0.4473  0.1232
  851MOL0     C12232  -2.151   3.160   3.243  0.3712 -0.3621 -0.2694
  851MOL0     C12233  -2.253   3.175   3.339 -0.3191  0.3399 -0.4798
  851MOL0     C12234  -2.240   3.176   3.476  0.7732 -0.5678 -0.2326
  851MOL0     O12235  -2.348   3.183   3.565  0.0966 -0.2853 -0.0229
  851MOL0     C12236  -2.329   3.165   3.705  0.1596  0.3740  0.0603
  851MOL0     C12237  -2.462   3.195   3.781  1.0566 -0.3038 -0.2496
  851MOL0     C12238  -2.578   3.102   3.745  0.5505 -0.7383 -0.7860
  851MOL0     C12239  -2.681   3.089   3.854  0.0432 -0.6763  0.4667
  851MOL0     C12240  -2.797   2.996   3.827  0.2206 -0.0406 -0.2509
  851MOL0     C12241  -2.875   3.032   3.689  0.2946  0.4533 -0.4633
  851MOL0     C12242  -3.011   2.953   3.695 -1.5696 -0.7359 -0.4177
  851MOL0     C12243  -3.084   2.970   3.567 -0.5442 -0.6872  0.2379
  851MOL0    Cl12244  -3.005   2.858   3.448  0.3982  0.3229  0.0762
  851MOL0     C12245  -2.105   3.149   3.522  0.8091 -0.1942 -0.4580
  851MOL0     C12246  -2.006   3.114   3.436 -0.0859  0.1201  0.4216
  851MOL0     O12247  -1.918   3.303   3.106 -0.0109  0.4567 -0.7970
  851MOL0     C12248  -1.703   3.035   3.035 -0.0630 -0.2407  0.0824
  851MOL0     C12249  -1.601   2.997   2.947  0.1705  0.2232 -0.0648
  851MOL0     N12250  -1.057   2.765   2.638  0.0105  0.3319  0.1085
  851MOL0     N12251  -1.007   2.670   2.567  0.4842  0.7084  0.3570
  851MOL0     C12252   0.100   2.189   2.454  0.7796 -0.1143  0.9554
  851MOL0     C12253   0.227   2.135   2.438 -0.3468  0.2219  0.0330
  851MOL0     C12254   0.572   1.909   2.405  0.4280  0.0075  0.1453
  851MOL0     C12255   0.663   1.939   2.305  0.4854 -0.6551 -0.0659
  851MOL0     C12256   0.792   1.897   2.318 -0.0589  0.0461 -0.6916
  851MOL0     C12257   0.847   1.843   2.433 -0.3503 -0.1693  0.0713
  851MOL0     O12258   0.977   1.788   2.428  0.4397  0.3314  0.3438
  851MOL0     C12259   1.015   1.722   2.555  0.4024 -0.4739 -0.1465
  851MOL0     C12260   1.160   1.679   2.546  1.0814 -0.2079 -1.0805
  851MOL0     C12261   1.203   1.594   2.665  0.3195 -0.0001 -0.6724
  851MOL0     C12262   1.348   1.541   2.665  0.2104  0.1815 -0.1111
  851MOL0     C12263   1.444   1.643   2.636  0.4996 -1.3189  0.3127
  851MOL0     C12264   1.525   1.731   2.611  0.0957 -0.1215  0.5002
  851MOL0     C12265   0.751   1.824   2.536 -0.6774 -0.4841 -0.4961
  851MOL0     C12266   0.621   1.873   2.531  0.3111  0.4538  0.4216
  851MOL0     H12267   0.229   2.091   2.101 -3.4797  0.5873 -0.9901
  851MOL0     H12268   0.005   2.194   2.134  0.9006 -1.7962 -0.7187
  851MOL0     H12269  -0.226   2.116   2.239  0.1339 -0.5319  1.0075
  851MOL0     H12270  -0.199   2.281   2.190  2.0821  0.2101  1.0587
  851MOL0     H12271  -0.340   2.235   2.449 -1.3163  0.4733  0.0922
  851MOL0     H12272  -0.432   2.214   2.300  1.8759 -3.0261 -2.0324
  851MOL0     H12273  -0.367   2.445   2.217  0.4711  2.2932  0.9890
  851MOL0     H12274  -0.249   2.458   2.348  0.3785 -1.8818  2.1877
  851MOL0     H12275  -0.423   2.528   2.494 -1.6208 -1.3689  1.4138
  851MOL0     H12276  -0.483   2.585   2.331  0.4085 -0.0709 -0.0673
  851MOL0     H12277  -0.563   2.334   2.503  0.5110  1.5160  1.0983
  851MOL0     H12278  -0.606   2.351   2.334  2.8751  1.3683 -1.2786
  851MOL0     H12279  -0.676   2.560   2.547 -1.0691  1.5813 -0.2645
  851MOL0     H12280  -0.791   2.433   2.488  1.1693 -1.6001  1.2036
  851MOL0     H12281  -0.666   2.684   2.372  0.6039 -0.2530 -2.5023
  851MOL0     H12282  -0.703   2.559   2.259  0.3762  1.1117 -0.7948
  851MOL0     H12283  -0.936   2.554   2.330  1.8477 -0.6084 -0.9458
  851MOL0     H12284  -0.892   2.704   2.262 -1.9771 -3.1337 -0.7364
  851MOL0     H12285  -0.919   2.925   2.390 -0.7320  0.3037  0.2802
  851MOL0     H12286  -1.107   3.072   2.548  0.8487  1.2868  1.6969
  851MOL0     H12287  -0.962   3.080   2.636 -0.7917  1.9737 -1.1326
  851MOL0     H12288  -1.122   3.125   2.803  0.1659  0.7433 -0.9617
  851MOL0     H12289  -1.052   2.966   2.826 -1.9829 -1.7454  0.3503
  851MOL0     H12290  -1.268   2.889   2.688 -1.1257  0.7153 -0.5875
  851MOL0     H12291  -1.270   2.909   2.868 -1.3111  0.9836  0.0278
  851MOL0     H12292  -1.339   3.103   2.646  3.8919 -0.8352  0.2479
  851MOL0     H12293  -1.354   3.143   2.822 -3.0505  0.9774 -1.1107
  851MOL0     H12294  -1.608   3.254   2.735  1.0881 -1.2532 -1.1253
  851MOL0     H12295  -1.784   3.338   2.899 -0.6262  0.1849 -0.5880
  851MOL0     H12296  -2.160   3.159   3.135 -0.3116 -1.3176 -0.2160
  851MOL0     H12297  -2.356   3.188   3.305 -0.7465 -0.1954  0.5604
  851MOL0     H12298  -2.251   3.234   3.740  1.7712 -1.3825  0.0993
  851MOL0     H12299  -2.302   3.066   3.740 -0.1842  1.3352  3.3408
  851MOL0     H12300  -2.493   3.298   3.761 -2.3042 -0.9553  0.8347
  851MOL0     H12301  -2.439   3.204   3.887 -0.9654  0.2016  0.1870
  851MOL0     H12302  -2.542   3.004   3.712  0.1460 -0.4379 -2.1801
  851MOL0     H12303  -2.628   3.138   3.655  1.2364  0.1960 -0.7998
  851MOL0     H12304  -2.619   3.050   3.935  1.4891  0.6964  0.0818
  851MOL0     H12305  -2.724   3.186   3.881  1.8523 -0.0275  1.1720
  851MOL0     H12306  -2.866   3.017   3.909  1.4441  2.4766  0.2688
  851MOL0     H12307  -2.754   2.896   3.824  0.9637  0.2558  0.0991
  851MOL0     H12308  -2.821   3.012   3.597  2.2554 -0.1411  0.7442
  851MOL0     H12309  -2.889   3.141   3.692  1.8339  0.7527  3.7612
  851MOL0     H12310  -2.986   2.851   3.726  0.0682  0.1817  1.5695
  851MOL0     H12311  -3.070   2.997   3.776 -0.0698  0.5597  0.0450
  851MOL0     H12312  -3.087   3.072   3.528  0.7703  0.0587  1.9645
  851MOL0     H12313  -3.189   2.942   3.582 -1.0923 -0.0641 -2.0090
  851MOL0     H12314  -2.090   3.131   3.628 -0.0975 -2.3509 -0.6459
  851MOL0     H12315  -1.913   3.084   3.484  0.5343  2.3955  0.7800
  851MOL0     H12316  -1.729   2.965   3.114 -2.0966 -0.2630 -0.5389
  851MOL0     H12317  -1.551   2.901   2.950 -0.2806 -0.1321 -2.1014
  851MOL0     H12318   0.064   2.224   2.550 -2.4297 -0.0468 -0.1441
  851MOL0     H12319   0.291   2.116   2.524  1.5841 -0.4813 -1.4948
  851MOL0     H12320   0.616   1.983   2.217 -1.4455 -1.9391  0.2488
  851MOL0     H12321   0.857   1.917   2.233  0.7446  1.7125  0.2501
  851MOL0     H12322   0.949   1.635   2.563  1.4391 -1.2060  0.8507
  851MOL0     H12323   0.987   1.781   2.643  0.3762  0.1230 -0.5504
  851MOL0     H12324   1.185   1.626   2.454 -0.4590  3.0099 -3.5908
  851MOL0     H12325   1.221   1.770   2.540  0.0291  0.6581  0.4407
  851MOL0     H12326   1.141   1.504   2.662 -1.8912  1.3985  0.2244
  851MOL0     H12327   1.177   1.647   2.757 -2.6301 -1.8571 -0.3217
  851MOL0     H12328   1.363   1.496   2.764 -0.2827 -2.2108 -1.0530
  851MOL0     H12329   1.364   1.457   2.597  0.2607  0.0593  0.0515
  851MOL0     H12330   1.601   1.803   2.588  0.9907 -0.9138  0.9176
  851MOL0     H12331   0.788   1.775   2.625 -1.0089  2.4848  1.4342
  851MOL0     H12332   0.555   1.862   2.617 -0.1387 -0.6104 -0.0450
  852MOL0     O12333   7.997   1.521   1.417  0.1862  0.4644  0.7723
  852MOL0     C12334   8.094   1.510   1.492  0.1829 -0.4402  0.2703
  852MOL0     O12335   8.210   1.450   1.459  0.5172 -0.1188  0.2489
  852MOL0     C12336   8.222   1.393   1.333 -0.8521  0.8443  1.0842
  852MOL0     C12337   8.349   1.374   1.275 -0.1793  0.4756  1.0669
  852MOL0     C12338   8.368   1.304   1.153  0.6991  0.1475 -0.6874
  852MOL0     C12339   8.259   1.233   1.089 -0.1692  0.6171 -1.0557
  852MOL0     O12340   8.306   1.159   0.990 -0.0965 -0.1165  0.0166
  852MOL0     C12341   8.226   1.076   0.902  0.3007  0.4894  0.6980
  852MOL0     C12342   8.310   0.986   0.808 -0.3409  0.5477 -0.4454
  852MOL0     C12343   8.340   1.044   0.676 -0.2194  0.1358  0.3394
  852MOL0     C12344   8.440   0.951   0.600  0.1564 -0.2704 -0.1671
  852MOL0     C12345   8.470   0.992   0.451 -0.1587  0.1354 -0.0247
  852MOL0     C12346   8.556   1.117   0.429  0.1970  0.0245  0.3119
  852MOL0     C12347   8.620   1.141   0.300  0.9434  1.3100  0.5489
  852MOL0     C12348   8.529   1.198   0.195  0.7537  1.3668  0.7447
  852MOL0     N12349   8.512   1.344   0.181 -0.0512  0.8165 -0.6618
  852MOL0     C12350   8.482   1.413   0.060 -0.2849  0.2771  1.1378
  852MOL0     C12351   8.473   1.543   0.101  0.6955 -0.3268 -0.1425
  852MOL0     C12352   8.465   1.654   0.004 -0.0206 -0.7142 -0.1847
  852MOL0     C12353   8.323   1.690  -0.035 -0.4122 -0.3431  1.0837
  852MOL0     C12354   8.332   1.795  -0.153  0.1816 -0.5756 -0.1288
  852MOL0     C12355   8.193   1.834  -0.201 -0.3898 -1.0927  0.3255
  852MOL0     O12356   8.124   1.909  -0.099  0.0772 -0.2716  0.6366
  852MOL0     C12357   8.003   1.974  -0.117 -0.2254  0.1211 -1.0739
  852MOL0     C12358   7.914   1.942  -0.211 -0.9390  0.1811 -0.2936
  852MOL0     C12359   7.789   2.001  -0.222  0.4498 -1.3239 -0.2792
  852MOL0     C12360   7.736   2.094  -0.123 -0.2004 -0.1555  0.1049
  852MOL0     C12361   7.614   2.158  -0.148  0.5665 -0.0481  0.2846
  852MOL0     O12362   7.572   2.253  -0.053 -0.1563  0.0124  0.1030
  852MOL0     C12363   7.468   2.338  -0.092  0.1751 -0.7081  0.1204
  852MOL0     C12364   7.477   2.421  -0.204  0.1031 -0.0971  1.0793
  852MOL0     C12365   7.368   2.503  -0.244  0.1978  0.7259 -0.0703
  852MOL0     C12366   7.244   2.486  -0.182  0.2963 -0.3344 -0.1758
  852MOL0     O12367   7.129   2.547  -0.233  0.9058 -0.1969  0.2678
  852MOL0     C12368   7.147   2.632  -0.349  0.8574 -0.3738 -0.4357
  852MOL0     C12369   7.007   2.648  -0.407 -1.1383 -0.7128  0.3114
  852MOL0     C12370   7.011   2.707  -0.543  0.0723  0.0775 -0.3208
  852MOL0     C12371   6.872   2.718  -0.610 -0.2716 -0.5215  0.3745
  852MOL0     C12372   6.783   2.817  -0.539  0.2606 -0.0043 -0.0274
  852MOL0     C12373   6.653   2.840  -0.620  0.3077  0.3695  0.2814
  852MOL0     C12374   6.522   2.857  -0.547 -0.1214  0.2405  0.0398
  852MOL0     C12375   6.414   2.894  -0.650  1.4981 -0.3426  0.6507
  852MOL0    Cl12376   6.254   2.926  -0.580 -0.1795 -0.1845 -0.3484
  852MOL0     C12377   7.235   2.406  -0.078 -0.2943 -0.5138  0.2283
  852MOL0     C12378   7.345   2.326  -0.035 -0.1135  0.4836 -0.2723
  852MOL0     O12379   7.559   2.137  -0.257  0.0464 -0.2313 -0.4937
  852MOL0     C12380   7.826   2.126  -0.015  0.6556  0.0127 -0.1360
  852MOL0     C12381   7.954   2.061  -0.013 -0.3852 -0.2384  0.5164
  852MOL0     N12382   8.491   1.543   0.236  0.0863 -0.5426  0.4633
  852MOL0     N12383   8.513   1.432   0.285  0.2957  0.1328  0.6535
  852MOL0     C12384   8.136   1.235   1.153  0.4065  0.4042  0.1370
  852MOL0     C12385   8.122   1.318   1.268 -0.1556 -0.4404 -0.1188
  852MOL0     C12386   8.089   1.563   1.634  0.1591 -0.7253  0.3852
  852MOL0     C12387   7.989   1.650   1.669  0.0972  0.4071 -0.4257
  852MOL0     C12388   7.980   1.717   1.791  0.4200 -0.7240 -0.4896
  852MOL0     C12389   8.079   1.693   1.889 -0.4003  0.5704  0.7764
  852MOL0     O12390   8.108   1.772   2.007  0.7184 -0.2856  0.1634
  852MOL0     C12391   8.067   1.916   1.991 -0.0946  0.5861  0.2003
  852MOL0     C12392   7.947   1.954   2.076  0.3268 -0.9955  0.2487
  852MOL0     C12393   7.986   1.911   2.218 -0.5518  0.1414  0.0208
  852MOL0     C12394   7.908   1.790   2.251  0.4037  0.2639  0.3176
  852MOL0     C12395   7.943   1.760   2.397  0.7600  0.2471  0.2809
  852MOL0     C12396   7.951   1.732   2.515  0.4183  0.2173  0.4784
  852MOL0     C12397   8.183   1.595   1.856  0.8729 -0.2522  0.1272
  852MOL0     C12398   8.192   1.541   1.729  0.6934 -0.6046 -0.3417
  852MOL0     H12399   8.434   1.426   1.318  0.1188  1.1132 -0.2250
  852MOL0     H12400   8.468   1.307   1.111  0.7153 -1.6715 -0.8595
  852MOL0     H12401   8.154   1.134   0.844 -0.5581 -0.9262  0.2997
  852MOL0     H12402   8.161   1.017   0.967 -0.8737 -2.5155 -2.8957
  852MOL0     H12403   8.256   0.892   0.790 -1.0743  1.0948 -1.1917
  852MOL0     H12404   8.404   0.977   0.863 -1.3808  0.3835  1.4069
  852MOL0     H12405   8.382   1.142   0.702  2.2908 -0.7772  0.0112
  852MOL0     H12406   8.243   1.046   0.627 -1.8749  0.4817  3.3745
  852MOL0     H12407   8.534   0.941   0.655 -1.1962 -0.9033  2.1714
  852MOL0     H12408   8.394   0.852   0.599  1.2211 -0.9388 -4.5879
  852MOL0     H12409   8.378   0.983   0.391  0.1374 -3.4532 -0.1576
  852MOL0     H12410   8.522   0.906   0.409  2.8158  1.6023  0.4480
  852MOL0     H12411   8.643   1.101   0.494  1.2052 -0.9852 -1.2138
  852MOL0     H12412   8.505   1.208   0.463  1.6576  1.2972 -0.7626
  852MOL0     H12413   8.700   1.213   0.320  1.8444  1.2085 -2.3442
  852MOL0     H12414   8.662   1.044   0.270 -0.8906  1.0506 -1.4341
  852MOL0     H12415   8.429   1.157   0.202  0.9775  0.5109 -0.7581
  852MOL0     H12416   8.559   1.161   0.097 -5.3311 -1.6302 -0.4259
  852MOL0     H12417   8.477   1.364  -0.036  1.0995 -4.7576  3.2821
  852MOL0     H12418   8.520   1.630  -0.087  0.6019  0.2299 -0.0672
  852MOL0     H12419   8.509   1.744   0.048 -2.5582  0.8323 -0.5625
  852MOL0     H12420   8.264   1.727   0.049 -2.0593 -3.0115  1.2462
  852MOL0     H12421   8.264   1.611  -0.084 -0.4401  0.4526 -0.2304
  852MOL0     H12422   8.376   1.884  -0.105  0.1121 -0.7598  0.2818
  852MOL0     H12423   8.408   1.756  -0.221  2.3606  0.2808  1.6762
  852MOL0     H12424   8.139   1.741  -0.222 -2.0703 -0.3050  0.9491
  852MOL0     H12425   8.201   1.890  -0.294  0.4262  1.3264  1.7559
  852MOL0     H12426   7.940   1.866  -0.285 -0.2884 -2.3622  2.3397
  852MOL0     H12427   7.722   1.964  -0.299 -1.4515  0.2848  0.4875
  852MOL0     H12428   7.567   2.428  -0.264 -1.5196  1.8424 -1.3117
  852MOL0     H12429   7.387   2.564  -0.332  1.8139  0.2811 -0.0569
  852MOL0     H12430   7.206   2.589  -0.430 -1.6092 -0.4746 -2.2656
  852MOL0     H12431   7.182   2.732  -0.322 -0.5726 -0.2416  1.0942
  852MOL0     H12432   6.964   2.720  -0.337  1.1651  0.7652  0.2818
  852MOL0     H12433   6.963   2.548  -0.412 -2.3274 -0.1552 -1.3188
  852MOL0     H12434   7.065   2.636  -0.605 -1.3052 -0.7522 -0.6165
  852MOL0     H12435   7.062   2.804  -0.541  1.1985 -0.5062  1.2986
  852MOL0     H12436   6.882   2.750  -0.714  2.2309 -1.3654  0.2887
  852MOL0     H12437   6.823   2.621  -0.612 -0.5732 -0.4639 -3.7579
  852MOL0     H12438   6.832   2.912  -0.518  1.0161 -0.4935  0.4927
  852MOL0     H12439   6.754   2.781  -0.440 -1.1566  0.7938 -0.1284
  852MOL0     H12440   6.622   2.754  -0.681 -2.6138  0.4204  1.5297
  852MOL0     H12441   6.663   2.929  -0.683  1.3000  1.3815  1.7958
  852MOL0     H12442   6.497   2.754  -0.522  0.5243 -1.4412 -5.0685
  852MOL0     H12443   6.529   2.928  -0.464 -0.1164  2.1257 -1.4980
  852MOL0     H12444   6.419   2.813  -0.724 -0.9866  1.2291 -1.4131
  852MOL0     H12445   6.444   2.988  -0.697 -2.4024  1.8599  2.1168
  852MOL0     H12446   7.135   2.388  -0.039 -1.2804  0.6584 -1.6429
  852MOL0     H12447   7.323   2.256   0.044  0.0898  1.6822  0.8811
  852MOL0     H12448   7.788   2.180   0.071  1.0240  0.6967 -0.3955
  852MOL0     H12449   8.011   2.090   0.074 -1.3728  1.2663  0.6971
  852MOL0     H12450   8.045   1.181   1.127 -0.3454  1.0011  1.3993
  852MOL0     H12451   8.021   1.305   1.307 -0.5943 -0.2247 -1.1424
  852MOL0     H12452   7.908   1.670   1.600  0.6582 -1.2886 -1.6325
  852MOL0     H12453   7.900   1.789   1.806 -0.5405 -1.0631 -3.2032
  852MOL0     H12454   8.050   1.943   1.886  0.3899 -1.3047 -0.4065
  852MOL0     H12455   8.153   1.974   2.026  1.1816 -1.7203  1.0686
  852MOL0     H12456   7.927   2.060   2.057  1.1448 -0.7418  0.7439
  852MOL0     H12457   7.860   1.900   2.039 -0.1160 -0.2164  0.1220
  852MOL0     H12458   7.952   1.997   2.277  2.6609  3.0977 -2.0097
  852MOL0     H12459   8.093   1.903   2.240 -0.5519  2.9445  1.5099
  852MOL0     H12460   7.803   1.818   2.241  0.3792  0.1921  0.3770
  852MOL0     H12461   7.918   1.709   2.178  1.7948  1.4489 -0.8877
  852MOL0     H12462   7.960   1.695   2.616 -0.0681 -2.9784 -0.5479
  852MOL0     H12463   8.268   1.576   1.920  1.8263  1.8591 -0.4120
  852MOL0     H12464   8.270   1.469   1.705  0.0130 -0.8252 -1.9724
  853MOL0     O12465   6.210   1.252   9.845  0.1912  0.5432  0.5089
  853MOL0     C12466   6.172   1.197   9.742  0.7638  0.8248  0.7057
  853MOL0     O12467   6.255   1.153   9.637  0.0605  0.6488  0.7076
  853MOL0     C12468   6.391   1.178   9.635 -0.4884  0.4229 -0.3449
  853MOL0     C12469   6.472   1.130   9.743 -1.1301 -0.1424  0.1642
  853MOL0     C12470   6.610   1.152   9.735  1.2717  0.1715 -0.0194
  853MOL0     C12471   6.660   1.224   9.631 -0.6548  0.2093  0.3806
  853MOL0     O12472   6.796   1.235   9.629 -0.3139 -0.1071 -0.1200
  853MOL0     C12473   6.869   1.207   9.508 -0.5864  0.0873 -0.1643
  853MOL0     C12474   7.014   1.189   9.559 -0.4976 -0.4185  0.5544
  853MOL0     C12475   7.022   1.090   9.679 -0.3207 -0.6575  0.0475
  853MOL0     C12476   7.167   1.067   9.727 -0.2231 -0.6257 -0.1986
  853MOL0     C12477   7.187   1.172   9.840  0.0744 -0.7129  0.3772
  853MOL0     C12478   7.336   1.188   9.885 -0.0947 -0.3606  0.4003
  853MOL0     C12479   7.341   1.305   9.984 -0.4211 -0.4877 -0.0148
  853MOL0     C12480   7.478   1.330  10.052  0.6808  0.5199  0.3706
  853MOL0     N12481   7.468   1.458  10.122  0.1202  0.0648  0.5826
  853MOL0     C12482   7.440   1.470  10.255  0.9905  0.4346  0.4675
  853MOL0     C12483   7.431   1.608  10.270  0.5219 -0.2318 -0.6014
  853MOL0     C12484   7.397   1.664  10.406 -0.7918 -0.1203 -0.0015
  853MOL0     C12485   7.524   1.684  10.489 -0.4439  0.1210  0.4476
  853MOL0     C12486   7.496   1.768  10.606 -0.2286  1.4020 -0.6881
  853MOL0     C12487   7.405   1.703  10.708  0.3658  0.0140  0.8616
  853MOL0     O12488   7.451   1.565  10.739 -0.4088 -0.7374 -0.7171
  853MOL0     C12489   7.360   1.478  10.805 -0.6637  0.3861 -1.4999
  853MOL0     C12490   7.274   1.534  10.895  0.3738  0.4387 -0.1671
  853MOL0     C12491   7.189   1.455  10.968  0.4838 -0.4090 -0.1946
  853MOL0     C12492   7.181   1.314  10.938 -0.1191 -0.3046  0.0306
  853MOL0     C12493   7.084   1.230  11.011  0.1314  0.1673  0.1622
  853MOL0     O12494   7.098   1.094  11.001  0.2864  0.6777  0.1768
  853MOL0     C12495   7.017   1.003  11.064  0.4371  0.4889 -0.3803
  853MOL0     C12496   6.991   0.882  11.000  0.2504  0.2254  0.3365
  853MOL0     C12497   6.899   0.788  11.055 -0.6833  0.1741  0.5705
  853MOL0     C12498   6.834   0.816  11.173  0.6489 -0.9207  0.0446
  853MOL0     O12499   6.758   0.734  11.246  0.6565 -0.3393  1.0774
  853MOL0     C12500   6.618   0.728  11.192  0.2080  0.6503 -0.0021
  853MOL0     C12501   6.542   0.628  11.287  0.7664  0.4733 -0.4880
  853MOL0     C12502   6.628   0.502  11.307  0.3651  0.5412 -0.5140
  853MOL0     C12503   6.551   0.380  11.375  0.0618  0.2591 -0.0929
  853MOL0     C12504   6.423   0.327  11.306 -0.1397 -0.1918 -0.8214
  853MOL0     C12505   6.417   0.312  11.152  0.8631  0.6197 -0.2399
  853MOL0     C12506   6.301   0.225  11.093  0.6578 -1.1627  0.4273
  853MOL0     C12507   6.165   0.287  11.092  0.3958 -0.3783  0.3420
  853MOL0    Cl12508   6.043   0.174  11.054 -0.2597  0.1502 -0.1323
  853MOL0     C12509   6.854   0.938  11.236 -0.1331 -0.0098 -0.6716
  853MOL0     C12510   6.949   1.025  11.189  0.4277  1.1612  0.7379
  853MOL0     O12511   7.000   1.289  11.077  0.9959  0.5557 -0.4170
  853MOL0     C12512   7.263   1.265  10.838  0.1851  0.0294 -0.4350
  853MOL0     C12513   7.362   1.342  10.780  0.4336 -0.0279  0.4095
  853MOL0     N12514   7.451   1.674  10.148 -0.6633 -0.4667 -0.1583
  853MOL0     N12515   7.477   1.584  10.065 -0.1104 -0.4799 -1.0383
  853MOL0     C12516   6.581   1.266   9.524 -0.1441 -0.2429 -0.3727
  853MOL0     C12517   6.446   1.238   9.525 -0.4585  0.0467  0.1063
  853MOL0     C12518   6.025   1.180   9.733 -0.1781 -0.0233 -0.5510
  853MOL0     C12519   5.937   1.232   9.830  1.1814  0.7248  0.1396
  853MOL0     C12520   5.796   1.234   9.822  0.1327 -0.4833  0.1116
  853MOL0     C12521   5.733   1.165   9.718 -0.4882  0.0478 -1.2589
  853MOL0     O12522   5.596   1.140   9.703  0.8951  0.0393 -0.0370
  853MOL0     C12523   5.502   1.209   9.790  0.1795  0.4021  0.6312
  853MOL0     C12524   5.357   1.192   9.727 -0.0865  0.1114  0.3179
  853MOL0     C12525   5.290   1.062   9.756 -0.6879  0.2844  0.1040
  853MOL0     C12526   5.148   1.059   9.718  0.1265 -0.1808  0.9777
  853MOL0     C12527   5.079   0.933   9.732  0.0079 -0.0115 -0.3007
  853MOL0     C12528   5.039   0.816   9.733 -0.4383  0.3239 -0.2746
  853MOL0     C12529   5.818   1.110   9.620 -0.2509 -0.5763 -0.6869
  853MOL0     C12530   5.956   1.125   9.622  0.4139  0.1944 -0.3721
  853MOL0     H12531   6.431   1.073   9.826 -0.3309 -1.6648 -0.4413
  853MOL0     H12532   6.673   1.113   9.814 -1.3426 -0.5151  1.8975
  853MOL0     H12533   6.874   1.274   9.422  2.2042 -0.1466 -0.2671
  853MOL0     H12534   6.833   1.111   9.469  2.4711 -0.3336 -2.2912
  853MOL0     H12535   7.065   1.282   9.587 -1.1862  0.3188 -0.5549
  853MOL0     H12536   7.081   1.153   9.480  0.2640 -3.8222  2.5606
  853MOL0     H12537   6.971   0.995   9.658 -1.6094 -0.2027  0.9679
  853MOL0     H12538   6.960   1.129   9.761  2.6131  1.5409  1.3823
  853MOL0     H12539   7.190   0.968   9.767  3.2660  0.0103 -0.3130
  853MOL0     H12540   7.242   1.080   9.648  0.4214  1.8600  0.7188
  853MOL0     H12541   7.134   1.138   9.929  0.2783  0.4469  0.9678
  853MOL0     H12542   7.154   1.272   9.810  0.7907 -0.3447  0.7912
  853MOL0     H12543   7.395   1.225   9.801 -2.0569  0.7872 -0.5365
  853MOL0     H12544   7.367   1.089   9.919 -1.3160 -0.9327 -0.0917
  853MOL0     H12545   7.312   1.392   9.924  1.5853 -0.1690 -0.5921
  853MOL0     H12546   7.270   1.279  10.064  0.7261  0.5209  1.3984
  853MOL0     H12547   7.553   1.340   9.973  1.8470 -2.0217  1.0733
  853MOL0     H12548   7.508   1.249  10.119  1.9105 -1.6734 -2.6027
  853MOL0     H12549   7.427   1.400  10.337  0.0230  1.4620  1.2298
  853MOL0     H12550   7.315   1.608  10.453  0.4101 -1.4873  0.5341
  853MOL0     H12551   7.346   1.759  10.386 -0.6757  0.3243  1.6146
  853MOL0     H12552   7.606   1.724  10.428 -1.3797  0.6512 -0.5055
  853MOL0     H12553   7.550   1.585  10.528 -0.8392 -0.2908 -0.3060
  853MOL0     H12554   7.592   1.789  10.655 -0.7341  0.0999  0.9442
  853MOL0     H12555   7.451   1.864  10.577 -1.4428  1.1311  0.2601
  853MOL0     H12556   7.303   1.701  10.669  1.0650 -0.1319 -1.0607
  853MOL0     H12557   7.405   1.767  10.797  0.4686  0.3622  0.6179
  853MOL0     H12558   7.267   1.640  10.917  0.8809  0.3419  0.4820
  853MOL0     H12559   7.127   1.501  11.044  1.2939  0.4807 -0.0519
  853MOL0     H12560   7.043   0.868  10.905 -1.4098 -1.1155 -0.4256
  853MOL0     H12561   6.883   0.701  10.991  0.8797  0.1601  0.1382
  853MOL0     H12562   6.621   0.691  11.089  0.2231 -0.1417  0.2742
  853MOL0     H12563   6.570   0.826  11.198  0.6133  0.7636  3.0120
  853MOL0     H12564   6.445   0.607  11.242  0.0842  0.5408  0.9076
  853MOL0     H12565   6.515   0.684  11.377 -1.9027  2.7870 -2.5683
  853MOL0     H12566   6.714   0.531  11.368  0.6135  2.1522 -1.5645
  853MOL0     H12567   6.663   0.464  11.210 -0.5592  1.3743 -1.1901
  853MOL0     H12568   6.618   0.294  11.368  0.2625  0.4613 -0.8627
  853MOL0     H12569   6.530   0.411  11.477  0.8567  2.0455 -0.4221
  853MOL0     H12570   6.346   0.398  11.337  1.0144 -0.1682  2.3915
  853MOL0     H12571   6.401   0.227  11.346 -1.3467 -0.9441 -3.1668
  853MOL0     H12572   6.513   0.277  11.115  1.2238  1.0019  0.3270
  853MOL0     H12573   6.423   0.412  11.108  3.5829  1.3247  1.5006
  853MOL0     H12574   6.328   0.193  10.992  4.0403 -1.4983  1.3091
  853MOL0     H12575   6.292   0.134  11.153 -0.5757 -1.5774 -0.3567
  853MOL0     H12576   6.167   0.366  11.016 -1.9470 -0.6281 -0.0613
  853MOL0     H12577   6.143   0.336  11.187  0.9330 -2.2482  1.4927
  853MOL0     H12578   6.809   0.965  11.331  4.2878  3.5606  0.7789
  853MOL0     H12579   6.955   1.117  11.246 -0.7238  0.2340  2.4186
  853MOL0     H12580   7.273   1.161  10.811 -3.1913 -0.9054  1.3541
  853MOL0     H12581   7.437   1.305  10.712  1.6234  1.4045  0.8952
  853MOL0     H12582   6.620   1.327   9.444 -2.2891 -1.7574 -2.7230
  853MOL0     H12583   6.390   1.256   9.433 -0.0374  2.1827  0.2113
  853MOL0     H12584   5.983   1.277   9.917  2.9444 -1.5795  0.5190
  853MOL0     H12585   5.746   1.285   9.904 -1.5178 -0.0709 -1.1007
  853MOL0     H12586   5.529   1.314   9.801  1.4849  0.2966 -1.0494
  853MOL0     H12587   5.503   1.165   9.890 -0.6024 -3.1783 -0.7602
  853MOL0     H12588   5.284   1.260   9.772 -2.7399 -1.9036 -0.7021
  853MOL0     H12589   5.373   1.190   9.619  0.0787 -2.5258  0.3292
  853MOL0     H12590   5.303   1.043   9.863  0.1873 -0.4733 -0.1196
  853MOL0     H12591   5.341   0.981   9.702 -0.8015 -0.9375  1.7430
  853MOL0     H12592   5.089   1.123   9.784 -2.4761  2.4166 -3.3946
  853MOL0     H12593   5.123   1.100   9.620 -4.0103 -1.7869  1.1802
  853MOL0     H12594   4.983   0.725   9.741  0.9440 -0.6235 -0.8448
  853MOL0     H12595   5.768   1.075   9.530 -1.1258  0.5059 -0.6456
  853MOL0     H12596   6.010   1.078   9.541  0.1499 -2.1126  0.7152
  854MOL0     O12597   3.042  10.151  10.969  0.0170  0.4169 -0.6909
  854MOL0     C12598   2.946  10.072  10.979 -0.4523  0.2040 -0.6246
  854MOL0     O12599   2.832  10.105  11.049  0.6228 -0.5053 -0.4638
  854MOL0     C12600   2.812  10.240  11.085  0.1507 -0.2228  0.3394
  854MOL0     C12601   2.709  10.307  11.033 -0.1265 -0.5944  0.1927
  854MOL0     C12602   2.687  10.442  11.054  0.6061 -0.0933  0.0661
  854MOL0     C12603   2.766  10.515  11.146  0.3614  0.5364  0.0107
  854MOL0     O12604   2.715  10.642  11.168  0.1335  0.6766  0.4633
  854MOL0     C12605   2.795  10.723  11.251 -0.4295  0.3376 -0.4814
  854MOL0     C12606   2.745  10.872  11.280 -0.7257 -1.0890  0.7393
  854MOL0     C12607   2.598  10.869  11.320 -0.7882 -0.3166 -0.5020
  854MOL0     C12608   2.567  10.768  11.439 -0.2640  0.4682  0.2213
  854MOL0     C12609   2.427  10.795  11.501 -0.3161  0.1887 -0.1793
  854MOL0     C12610   2.410  10.733  11.636 -0.7850  0.6163  0.1068
  854MOL0     C12611   2.276  10.711  11.705  0.4698 -0.7174 -0.2210
  854MOL0     C12612   2.263  10.577  11.779 -0.4688 -0.0666 -1.0139
  854MOL0     N12613   2.275  10.457  11.696 -0.1184 -0.3762  0.2361
  854MOL0     C12614   2.210  10.431  11.581 -0.0366 -0.1497  0.0611
  854MOL0     C12615   2.249  10.310  11.543  0.2485 -0.8818 -0.2709
  854MOL0     C12616   2.234  10.247  11.409  0.8594  0.0916 -0.8019
  854MOL0     C12617   2.352  10.256  11.316 -0.7103 -0.0605  0.2774
  854MOL0     C12618   2.429  10.395  11.333  0.6550  0.0793 -0.5964
  854MOL0     C12619   2.353  10.506  11.249  0.1836 -0.8194  0.8185
  854MOL0     O12620   2.371  10.459  11.113  0.2344  0.1362 -0.5016
  854MOL0     C12621   2.283  10.502  11.018  0.1739  0.0317  0.0060
  854MOL0     C12622   2.198  10.612  11.025 -0.5545  0.6259 -0.2123
  854MOL0     C12623   2.122  10.645  10.918 -0.0598 -0.5746  0.8218
  854MOL0     C12624   2.126  10.570  10.799  0.2584  0.0293  0.9280
  854MOL0     C12625   2.039  10.603  10.682  0.1152 -0.5867 -0.1742
  854MOL0     O12626   1.917  10.668  10.708 -0.2809  0.5242  0.6377
  854MOL0     C12627   1.845  10.719  10.611  0.6267  0.4316 -0.0758
  854MOL0     C12628   1.703  10.744  10.624  0.2078 -0.1268 -0.6951
  854MOL0     C12629   1.635  10.828  10.531  0.2429  0.2453 -0.5047
  854MOL0     C12630   1.705  10.886  10.433 -0.2035 -1.3469  0.1183
  854MOL0     O12631   1.633  10.975  10.353  0.5859  0.0312 -1.1628
  854MOL0     C12632   1.691  11.103  10.344 -0.1551 -0.2102  0.0923
  854MOL0     C12633   1.581  11.200  10.308 -0.1452 -0.4851  0.3072
  854MOL0     C12634   1.516  11.156  10.166 -0.0954  0.2209  0.0560
  854MOL0     C12635   1.426  11.268  10.115 -0.3523  0.2137  0.0820
  854MOL0     C12636   1.350  11.223   9.990 -1.0149  0.8925  0.0081
  854MOL0     C12637   1.221  11.307   9.967 -0.1018  0.1092 -0.7791
  854MOL0     C12638   1.138  11.274   9.847 -0.4322 -0.1488  0.4694
  854MOL0     C12639   1.014  11.365   9.831 -0.2616  0.7395 -0.4343
  854MOL0    Cl12640   0.886  11.325   9.949  0.2572 -0.6985 -0.5501
  854MOL0     C12641   1.838  10.858  10.413 -0.5145 -0.0405  0.2431
  854MOL0     C12642   1.906  10.777  10.505 -0.4165  0.4782  0.1868
  854MOL0     O12643   2.078  10.575  10.566 -0.2098  0.3484  0.9962
  854MOL0     C12644   2.233  10.491  10.782  1.1106  0.0585  0.5573
  854MOL0     C12645   2.319  10.458  10.886  0.3819  0.0530  0.1137
  854MOL0     N12646   2.336  10.262  11.638  0.0699 -1.1729 -0.5883
  854MOL0     N12647   2.343  10.348  11.736  0.6674 -0.3253  0.0164
  854MOL0     C12648   2.869  10.447  11.213 -0.7081 -0.4036  0.1477
  854MOL0     C12649   2.895  10.314  11.172  0.0631 -0.1500 -0.3522
  854MOL0     C12650   2.955   9.943  10.920  0.0494 -1.0240  0.1268
  854MOL0     C12651   2.880   9.829  10.967 -0.6620 -0.5935 -0.0853
  854MOL0     C12652   2.884   9.702  10.903 -0.7994 -0.1059  0.1394
  854MOL0     C12653   2.970   9.692  10.785  0.1877 -0.3879  0.0155
  854MOL0     O12654   2.991   9.584  10.714  0.6116  0.1949 -0.0380
  854MOL0     C12655   2.967   9.449  10.768  0.2539  0.4529  0.0905
  854MOL0     C12656   3.044   9.415  10.883 -0.8738 -0.2182  0.4409
  854MOL0     C12657   3.013   9.283  10.957  0.8970 -0.4055 -0.5908
  854MOL0     C12658   2.862   9.293  11.012  0.3605 -0.2380  0.2055
  854MOL0     C12659   2.845   9.186  11.112  0.5461  0.8723 -0.3408
  854MOL0     C12660   2.833   9.106  11.205 -0.8291 -0.5061  0.1849
  854MOL0     C12661   3.055   9.804  10.748  0.6011  0.8724  0.3438
  854MOL0     C12662   3.039   9.922  10.808  0.7664 -0.5388  0.3777
  854MOL0     H12663   2.650  10.245  10.966 -1.4682 -0.2134  0.9728
  854MOL0     H12664   2.611  10.495  10.997  2.0089 -0.5118 -2.3209
  854MOL0     H12665   2.892  10.740  11.203 -0.2283 -0.1414 -0.2543
  854MOL0     H12666   2.808  10.670  11.346  0.0935  2.9778  1.0208
  854MOL0     H12667   2.764  10.925  11.186 -0.7935 -1.4000  0.5516
  854MOL0     H12668   2.808  10.929  11.349 -2.1858  1.4876  0.0693
  854MOL0     H12669   2.543  10.826  11.235 -0.7724 -1.5995  0.1101
  854MOL0     H12670   2.565  10.970  11.342  2.3096  1.1232 -1.8394
  854MOL0     H12671   2.579  10.666  11.403  1.5130  0.7005  0.0831
  854MOL0     H12672   2.644  10.779  11.517 -0.7810  1.5071  0.6105
  854MOL0     H12673   2.358  10.755  11.426  0.1564 -1.4113  0.2004
  854MOL0     H12674   2.414  10.903  11.500  0.6658  0.3539  1.4843
  854MOL0     H12675   2.460  10.796  11.711 -1.2371  0.0071  0.9405
  854MOL0     H12676   2.460  10.637  11.624  0.1086  1.0558  0.2398
  854MOL0     H12677   2.262  10.799  11.768  2.4073  1.2816 -2.4033
  854MOL0     H12678   2.198  10.704  11.629 -0.2370 -0.8430  0.5053
  854MOL0     H12679   2.171  10.580  11.837  0.0657 -0.3303 -0.1357
  854MOL0     H12680   2.351  10.567  11.843  0.0228 -0.5746 -1.7551
  854MOL0     H12681   2.158  10.502  11.517 -0.3609 -1.6957 -1.4715
  854MOL0     H12682   2.157  10.298  11.350 -0.5876 -2.2855 -1.1134
  854MOL0     H12683   2.207  10.141  11.419 -1.4695  0.7905  1.3909
  854MOL0     H12684   2.324  10.234  11.213 -1.6302 -1.9858  0.8795
  854MOL0     H12685   2.414  10.171  11.348 -1.4548  0.0509  2.1411
  854MOL0     H12686   2.438  10.430  11.437  1.9566 -0.1881 -0.5930
  854MOL0     H12687   2.534  10.390  11.301  0.7885  1.8161 -0.5410
  854MOL0     H12688   2.393  10.607  11.256 -0.4504 -0.5487  0.6426
  854MOL0     H12689   2.250  10.493  11.282 -0.0914  0.3823  0.4980
  854MOL0     H12690   2.182  10.678  11.110  0.0690  2.0376 -1.1410
  854MOL0     H12691   2.040  10.716  10.922 -0.3875 -0.7106 -1.6629
  854MOL0     H12692   1.641  10.706  10.705  0.9545  0.0695 -0.0200
  854MOL0     H12693   1.531  10.852  10.553 -0.0461 -0.6953 -0.7839
  854MOL0     H12694   1.766  11.107  10.264  0.2006 -1.6666  0.3304
  854MOL0     H12695   1.745  11.126  10.437  0.5194  1.0985 -0.6005
  854MOL0     H12696   1.627  11.298  10.316 -0.5141 -0.4181  1.9024
  854MOL0     H12697   1.493  11.183  10.372 -1.2654  1.1712 -0.7138
  854MOL0     H12698   1.463  11.061  10.173 -1.3669  0.9315  0.4627
  854MOL0     H12699   1.597  11.146  10.093  0.1287 -2.0595  0.5468
  854MOL0     H12700   1.359  11.298  10.196 -1.2329  0.0303 -0.5617
  854MOL0     H12701   1.485  11.355  10.084 -3.2663  1.2634 -3.1871
  854MOL0     H12702   1.323  11.117   9.991  0.4118  0.5161  0.5346
  854MOL0     H12703   1.418  11.241   9.906 -0.6470  1.4587  0.4269
  854MOL0     H12704   1.246  11.414   9.976 -1.6268  0.4348 -0.1609
  854MOL0     H12705   1.154  11.296  10.053  1.4326 -0.7055  0.3649
  854MOL0     H12706   1.205  11.290   9.762  2.4910  0.6990  2.7288
  854MOL0     H12707   1.119  11.167   9.836  0.5960 -0.2446 -0.5388
  854MOL0     H12708   0.971  11.339   9.734 -1.3754 -0.4445  0.3393
  854MOL0     H12709   1.036  11.471   9.842 -0.8086  0.5940  3.5037
  854MOL0     H12710   1.881  10.884  10.316  0.7556 -0.7818  0.5824
  854MOL0     H12711   2.013  10.777  10.488 -0.7705 -1.4715 -2.5940
  854MOL0     H12712   2.251  10.450  10.683  0.5735 -1.5321  1.0714
  854MOL0     H12713   2.391  10.377  10.882 -2.3763 -2.6380  0.9844
  854MOL0     H12714   2.936  10.492  11.286 -1.6153 -0.3145  0.9403
  854MOL0     H12715   2.980  10.257  11.209  0.2015  1.9547  3.0215
  854MOL0     H12716   2.830   9.834  11.063  0.1070  4.2035  0.3313
  854MOL0     H12717   2.830   9.613  10.934  0.5115 -1.7234 -1.9744
  854MOL0     H12718   2.999   9.379  10.692 -0.7331  0.3895 -0.2772
  854MOL0     H12719   2.861   9.435  10.790  0.2332 -0.8627 -0.7954
  854MOL0     H12720   3.148   9.419  10.849 -0.6823  0.3406  1.0642
  854MOL0     H12721   3.036   9.491  10.961 -1.9774 -1.7568  1.8897
  854MOL0     H12722   3.084   9.282  11.040  0.7103  0.9590 -0.3771
  854MOL0     H12723   3.023   9.203  10.884  0.1978 -1.1935  0.1593
  854MOL0     H12724   2.844   9.390  11.060  1.8987  1.1755 -1.8467
  854MOL0     H12725   2.795   9.278  10.927  1.0780 -2.7766  0.0233
  854MOL0     H12726   2.814   9.029  11.277 -1.4135  1.1275  1.8597
  854MOL0     H12727   3.114   9.792  10.658  0.8056  1.0872  0.4472
  854MOL0     H12728   3.096  10.006  10.769  2.2245 -0.7098  2.0164
  855MOL0     O12729   5.418   9.581   5.603  0.5788  0.6298  0.2750
  855MOL0     C12730   5.428   9.677   5.530  0.0964  0.8624 -0.1801
  855MOL0     O12731   5.322   9.741   5.472 -0.0774  0.7188 -0.0670
  855MOL0     C12732   5.196   9.688   5.506  0.1589 -0.0030  0.4327
  855MOL0     C12733   5.135   9.774   5.595  0.1079  0.4215  0.1188
  855MOL0     C12734   5.004   9.745   5.645  0.6480 -0.3704 -0.3947
  855MOL0     C12735   4.933   9.640   5.587  1.1955  0.1302  0.0826
  855MOL0     O12736   4.803   9.610   5.630 -0.1256 -0.1093 -0.3847
  855MOL0     C12737   4.722   9.720   5.658 -0.5421  0.3101 -0.5455
  855MOL0     C12738   4.581   9.669   5.679  0.2089  0.3970  0.2122
  855MOL0     C12739   4.494   9.716   5.564  0.6214 -0.2824  0.2489
  855MOL0     C12740   4.346   9.685   5.595 -0.6730  0.3242 -1.1395
  855MOL0     C12741   4.262   9.716   5.470 -0.2611 -0.3674 -0.0889
  855MOL0     C12742   4.115   9.762   5.486  0.2552  0.7321  0.1697
  855MOL0     C12743   4.089   9.918   5.519 -0.3646  0.3950 -0.4172
  855MOL0     C12744   4.128   9.972   5.651 -0.2377  0.9816  0.4981
  855MOL0     N12745   4.126  10.117   5.662 -0.3027  0.3465 -0.0712
  855MOL0     C12746   4.039  10.200   5.604 -1.1456  0.0718 -0.1255
  855MOL0     C12747   4.054  10.320   5.669 -0.0463  0.0892  1.6421
  855MOL0     C12748   3.959  10.432   5.652  0.5906 -1.2006 -0.2897
  855MOL0     C12749   3.848  10.431   5.763 -0.0894  0.1349 -0.1742
  855MOL0     C12750   3.746  10.326   5.726 -0.4935 -0.1413  0.0085
  855MOL0     C12751   3.623  10.354   5.810 -0.5016  0.1080  0.0739
  855MOL0     O12752   3.641  10.305   5.946  0.5473  0.0442 -0.2043
  855MOL0     C12753   3.523  10.307   6.023 -0.5677  0.6612  0.8390
  855MOL0     C12754   3.537  10.243   6.148  0.7161 -0.3117  0.5171
  855MOL0     C12755   3.436  10.268   6.238 -0.3711  0.2376  0.2247
  855MOL0     C12756   3.315  10.339   6.202  0.6224 -0.2235 -0.0896
  855MOL0     C12757   3.203  10.355   6.294 -0.6454 -0.3351  0.8453
  855MOL0     O12758   3.079  10.359   6.226 -0.2790 -0.1979 -0.3395
  855MOL0     C12759   2.952  10.353   6.295 -0.5566  0.4827  0.0963
  855MOL0     C12760   2.930  10.238   6.383  0.1910 -1.1957 -1.3705
  855MOL0     C12761   2.814  10.247   6.463 -0.0166  0.5980 -0.0773
  855MOL0     C12762   2.719  10.347   6.432 -0.1844  0.3091 -0.1732
  855MOL0     O12763   2.602  10.367   6.503  0.2383  0.3107  0.9702
  855MOL0     C12764   2.529  10.262   6.575  0.9485  0.4253 -0.2268
  855MOL0     C12765   2.390  10.324   6.601 -0.3653  0.1895 -0.7086
  855MOL0     C12766   2.310  10.357   6.475  0.1893  0.5581  0.2923
  855MOL0     C12767   2.250  10.232   6.404 -0.1527  0.2600  0.3413
  855MOL0     C12768   2.117  10.168   6.466 -0.1686 -0.1771 -0.0208
  855MOL0     C12769   1.991  10.247   6.441 -0.0320  0.3210  0.1478
  855MOL0     C12770   1.936  10.237   6.298  0.0348  0.6553 -1.2994
  855MOL0     C12771   1.789  10.276   6.267  0.1707 -0.1354  0.1033
  855MOL0    Cl12772   1.758  10.435   6.350  0.0297 -0.2085  0.1113
  855MOL0     C12773   2.744  10.434   6.328 -0.3877 -0.0940  0.5047
  855MOL0     C12774   2.862  10.439   6.256 -0.2558  0.0086  0.2449
  855MOL0     O12775   3.220  10.349   6.417 -0.1002  0.8392 -0.0146
  855MOL0     C12776   3.307  10.403   6.079 -0.0116  0.7591  0.3041
  855MOL0     C12777   3.409  10.386   5.987 -0.0639  0.1835 -0.4219
  855MOL0     N12778   4.164  10.297   5.750  0.4226 -0.8611 -0.3318
  855MOL0     N12779   4.216  10.186   5.734  0.0902 -0.3391 -0.1674
  855MOL0     C12780   4.992   9.551   5.495  0.4357  0.1481  0.1176
  855MOL0     C12781   5.124   9.577   5.454  0.0117  0.0772 -0.3858
  855MOL0     C12782   5.561   9.738   5.517  0.0372  0.1766  0.5258
  855MOL0     C12783   5.582   9.841   5.423  0.0427  0.0885 -0.4042
  855MOL0     C12784   5.702   9.906   5.416 -0.2759 -0.7202 -0.1611
  855MOL0     C12785   5.809   9.869   5.499  0.2582  0.2231 -0.2973
  855MOL0     O12786   5.922   9.942   5.494  0.3417 -0.4735  0.4003
  855MOL0     C12787   6.048   9.885   5.538 -0.3916  0.7350 -0.7027
  855MOL0     C12788   6.156   9.981   5.499  0.2432 -0.4345 -0.0526
  855MOL0     C12789   6.301   9.921   5.521 -0.4150  0.1102  0.1276
  855MOL0     C12790   6.411  10.006   5.447  0.5418  0.2020  0.3894
  855MOL0     C12791   6.416   9.972   5.309 -0.4494 -0.0675  0.4504
  855MOL0     C12792   6.426   9.946   5.190 -0.5960  0.4883 -1.3227
  855MOL0     C12793   5.798   9.764   5.590 -0.0737  0.3030 -0.5715
  855MOL0     C12794   5.666   9.704   5.602 -0.1832 -0.8135  0.4798
  855MOL0     H12795   5.187   9.854   5.646 -0.7874  2.2113 -1.6254
  855MOL0     H12796   4.963   9.812   5.720  2.3144 -2.1220  2.2350
  855MOL0     H12797   4.727   9.805   5.590  0.8663 -0.3895 -1.3662
  855MOL0     H12798   4.745   9.753   5.759  0.6457  0.0398 -0.7212
  855MOL0     H12799   4.538   9.708   5.771  0.5294 -0.0382  0.5479
  855MOL0     H12800   4.580   9.561   5.691  1.5009  0.4120  0.6175
  855MOL0     H12801   4.517   9.671   5.466 -1.6872  3.3995 -2.2063
  855MOL0     H12802   4.505   9.823   5.547 -0.1576 -0.4874 -1.9322
  855MOL0     H12803   4.338   9.581   5.629  0.8828  0.7716  0.7253
  855MOL0     H12804   4.314   9.739   5.684 -1.2286 -2.1138  0.2445
  855MOL0     H12805   4.265   9.631   5.401 -2.1148 -1.6908  1.3479
  855MOL0     H12806   4.300   9.812   5.434  1.2882  0.9415  4.3632
  855MOL0     H12807   4.070   9.690   5.554 -2.1461  1.3904 -0.6165
  855MOL0     H12808   4.052   9.740   5.400 -0.6540 -0.6632  1.1665
  855MOL0     H12809   4.155   9.964   5.445  0.1526  0.5407  0.1309
  855MOL0     H12810   3.986   9.952   5.503 -0.4821 -0.0818 -0.7027
  855MOL0     H12811   4.229   9.937   5.677 -0.6411 -1.5143 -1.0257
  855MOL0     H12812   4.063   9.927   5.726 -0.8637 -0.5007 -0.8937
  855MOL0     H12813   3.956  10.172   5.540 -0.9990 -2.3421  0.6658
  855MOL0     H12814   3.910  10.429   5.554 -2.5322  0.0864  1.0867
  855MOL0     H12815   4.002  10.532   5.665  0.3438 -1.3839  2.8609
  855MOL0     H12816   3.806  10.532   5.752 -1.5929 -0.4769 -0.1999
  855MOL0     H12817   3.885  10.432   5.866  1.3370  0.1109 -0.6647
  855MOL0     H12818   3.731  10.328   5.618  0.4354  4.0457 -0.2245
  855MOL0     H12819   3.794  10.230   5.749 -1.6691 -1.2940 -2.0684
  855MOL0     H12820   3.547  10.297   5.755 -1.2613  0.5034  0.6902
  855MOL0     H12821   3.582  10.455   5.815 -1.1675 -0.2012  1.3651
  855MOL0     H12822   3.629  10.191   6.173  1.0204 -0.6143 -1.1602
  855MOL0     H12823   3.433  10.220   6.335 -0.6441 -3.0132 -1.2591
  855MOL0     H12824   3.011  10.186   6.434 -0.1987  1.4352  2.3882
  855MOL0     H12825   2.804  10.172   6.540 -0.2974 -0.3491 -1.0184
  855MOL0     H12826   2.574  10.247   6.674  0.1787  2.7766  0.5388
  855MOL0     H12827   2.527  10.165   6.524  1.1120  0.7273 -0.8223
  855MOL0     H12828   2.405  10.422   6.647 -0.2816 -1.4546  3.1437
  855MOL0     H12829   2.324  10.281   6.678 -1.2764  4.3290  1.1173
  855MOL0     H12830   2.375  10.403   6.400  1.0038  0.2519  0.7977
  855MOL0     H12831   2.238  10.435   6.499  1.6637  2.5224 -1.2589
  855MOL0     H12832   2.233  10.269   6.303  1.2773 -0.5086 -0.2123
  855MOL0     H12833   2.324  10.152   6.399 -1.5159 -0.9697 -1.2154
  855MOL0     H12834   2.135  10.165   6.574  0.0894  1.2824 -0.0089
  855MOL0     H12835   2.105  10.064   6.433 -2.3136 -0.6262  1.9146
  855MOL0     H12836   2.001  10.352   6.472  0.4740 -0.1972  1.8319
  855MOL0     H12837   1.909  10.209   6.503  0.1745 -0.7484 -0.2254
  855MOL0     H12838   2.006  10.283   6.227  0.0288 -0.0657 -1.7880
  855MOL0     H12839   1.930  10.129   6.278 -4.0291  0.5983 -0.6795
  855MOL0     H12840   1.711  10.207   6.303  1.3450 -0.1961  2.7657
  855MOL0     H12841   1.765  10.298   6.163 -5.2522  1.6721  1.3672
  855MOL0     H12842   2.668  10.501   6.290 -0.7756 -0.2519  0.9910
  855MOL0     H12843   2.884  10.521   6.188 -0.5031 -0.5035 -0.4686
  855MOL0     H12844   3.220  10.468   6.067 -1.8225 -1.7799 -1.5991
  855MOL0     H12845   3.391  10.436   5.892 -0.0643  0.3650 -0.3268
  855MOL0     H12846   4.955   9.462   5.446  0.6254 -0.8142  1.6614
  855MOL0     H12847   5.169   9.506   5.385 -1.4319 -2.3024  0.9413
  855MOL0     H12848   5.501   9.883   5.363 -1.5882  1.4148  2.5334
  855MOL0     H12849   5.735   9.986   5.350  0.5986  0.9045  2.1052
  855MOL0     H12850   6.065   9.790   5.486  0.7992 -0.5675  1.8721
  855MOL0     H12851   6.055   9.852   5.643 -2.1775  0.6049 -0.5855
  855MOL0     H12852   6.136  10.010   5.396 -1.5962  0.2606  0.4449
  855MOL0     H12853   6.130  10.070   5.558 -3.4281 -0.1553 -1.7648
  855MOL0     H12854   6.301   9.824   5.471 -1.4668  1.0247 -1.7514
  855MOL0     H12855   6.319   9.920   5.629  0.6597  0.3384 -0.0349
  855MOL0     H12856   6.378  10.110   5.446  1.4143  0.4787 -0.0116
  855MOL0     H12857   6.504  10.000   5.504 -0.5575 -0.1958  2.2175
  855MOL0     H12858   6.442   9.911   5.090  0.4650  0.4062 -1.1383
  855MOL0     H12859   5.873   9.729   5.660 -1.2770 -1.4512 -0.0717
  855MOL0     H12860   5.654   9.636   5.686  0.6201 -1.4052  0.1223
  856MOL0     O12861  10.896   6.220   3.029  0.0626 -0.7533 -0.3152
  856MOL0     C12862  10.845   6.331   3.053 -0.3383  0.8164  0.1037
  856MOL0     O12863  10.920   6.435   3.070 -0.0011  0.6499 -0.6583
  856MOL0     C12864  11.062   6.445   3.081 -0.5729  0.0612  0.7300
  856MOL0     C12865  11.107   6.579   3.097  0.1130 -0.3523 -0.0306
  856MOL0     C12866  11.246   6.603   3.103 -0.4869 -0.8710  0.5638
  856MOL0     C12867  11.337   6.495   3.106  0.1863  0.6080 -1.0412
  856MOL0     O12868  11.462   6.526   3.126  0.3619  0.5293 -0.3924
  856MOL0     C12869  11.560   6.427   3.116  0.0281  0.1775  0.7408
  856MOL0     C12870  11.695   6.492   3.138  0.6038  0.8577 -0.7458
  856MOL0     C12871  11.710   6.533   3.275  0.2841 -0.3484 -0.0720
  856MOL0     C12872  11.863   6.558   3.309  0.1798 -0.4843  0.0726
  856MOL0     C12873  11.908   6.552   3.460 -0.1054 -0.7682  0.2909
  856MOL0     C12874  11.897   6.692   3.520  0.4553  0.0644  0.3790
  856MOL0     C12875  11.961   6.693   3.655 -0.0598  0.1473 -0.3629
  856MOL0     C12876  11.892   6.802   3.740 -0.1162 -0.2365  0.6496
  856MOL0     N12877  11.956   6.930   3.719  0.3053  0.0040 -0.1325
  856MOL0     C12878  12.085   6.959   3.752  0.0610 -0.6107 -0.3368
  856MOL0     C12879  12.110   7.084   3.697 -0.0252  0.4201 -0.4611
  856MOL0     C12880  12.242   7.145   3.700  0.4196 -0.3043  0.3238
  856MOL0     C12881  12.305   7.160   3.843 -0.9407 -0.5584  0.0692
  856MOL0     C12882  12.218   7.229   3.954  0.4601  0.2688  0.6844
  856MOL0     C12883  12.160   7.368   3.900 -0.2193 -0.2031 -0.1662
  856MOL0     O12884  12.098   7.436   4.007 -0.4359  0.2515  0.3812
  856MOL0     C12885  11.960   7.428   4.021  0.0599  0.7763  0.4398
  856MOL0     C12886  11.901   7.496   4.132 -0.0751  0.5203 -0.0464
  856MOL0     C12887  11.765   7.488   4.146 -0.0112  0.0901  0.8305
  856MOL0     C12888  11.679   7.414   4.064 -0.6672  0.5933 -0.7932
  856MOL0     C12889  11.538   7.407   4.097  0.2769 -0.4959 -0.4652
  856MOL0     O12890  11.453   7.343   4.009 -0.1239  0.3101 -0.3200
  856MOL0     C12891  11.324   7.380   4.012 -0.1260  0.1873  0.0984
  856MOL0     C12892  11.243   7.362   4.126  0.6778 -0.0405 -0.1631
  856MOL0     C12893  11.106   7.404   4.127  0.1783  0.9338 -0.1712
  856MOL0     C12894  11.049   7.449   4.008  0.5625  0.4649 -0.6912
  856MOL0     O12895  10.910   7.458   3.990 -0.5421  0.5838  0.8966
  856MOL0     C12896  10.824   7.444   4.105  0.2318  0.2740 -0.2254
  856MOL0     C12897  10.670   7.466   4.063 -0.5390  0.1560  0.7075
  856MOL0     C12898  10.590   7.504   4.176  0.2594  0.0237 -0.3044
  856MOL0     C12899  10.451   7.556   4.139 -0.1782  0.9986  0.5339
  856MOL0     C12900  10.346   7.552   4.256  0.8861  0.0620 -0.0447
  856MOL0     C12901  10.401   7.620   4.388 -0.0682  0.2606 -0.1060
  856MOL0     C12902  10.305   7.606   4.509  0.0154  0.6518  0.0591
  856MOL0     C12903  10.262   7.745   4.556 -0.4052 -0.6933  0.6688
  856MOL0    Cl12904  10.402   7.845   4.614  0.2307  0.1240  0.2650
  856MOL0     C12905  11.128   7.453   3.896 -0.1155 -0.5617 -0.2733
  856MOL0     C12906  11.264   7.427   3.895 -0.8956 -0.3636 -0.7433
  856MOL0     O12907  11.496   7.458   4.199 -0.4524  0.0161 -0.3566
  856MOL0     C12908  11.746   7.354   3.949  0.4700 -0.3470  0.0503
  856MOL0     C12909  11.876   7.355   3.932  0.2436  0.4037  0.1709
  856MOL0     N12910  11.989   7.130   3.649 -0.8788  0.7948  0.4087
  856MOL0     N12911  11.899   7.040   3.661  0.4725  0.0345  0.5283
  856MOL0     C12912  11.287   6.367   3.099  0.0845  0.0427  0.4321
  856MOL0     C12913  11.156   6.345   3.085  0.4589 -0.4667 -0.1723
  856MOL0     C12914  10.697   6.343   3.037  0.3218  0.2174  0.2162
  856MOL0     C12915  10.609   6.260   2.963 -0.5061 -0.1805 -0.7479
  856MOL0     C12916  10.474   6.295   2.939 -0.3551  0.8771  0.4721
  856MOL0     C12917  10.418   6.409   2.990 -0.2304 -0.3000 -0.5566
  856MOL0     O12918  10.278   6.435   2.995 -0.5468 -0.6824  0.2170
  856MOL0     C12919  10.198   6.398   2.883 -0.1802  0.6505 -0.6498
  856MOL0     C12920  10.074   6.481   2.863  0.0884 -0.8452  0.4639
  856MOL0     C12921  10.085   6.584   2.762 -0.5166 -0.2130 -0.2266
  856MOL0     C12922  10.202   6.678   2.775 -0.5318  0.5116  0.0392
  856MOL0     C12923  10.191   6.798   2.689 -0.0087 -0.4273  0.0312
  856MOL0     C12924  10.179   6.906   2.630  0.2079 -0.4821 -0.4567
  856MOL0     C12925  10.502   6.482   3.081  0.2212  0.7819 -0.0299
  856MOL0     C12926  10.640   6.460   3.102  0.2172  0.2146  0.9401
  856MOL0     H12927  11.030   6.656   3.094 -2.8620 -2.9394  2.0825
  856MOL0     H12928  11.292   6.697   3.131  2.5453 -2.9254  3.2072
  856MOL0     H12929  11.558   6.403   3.009  0.6914  0.8515  0.5752
  856MOL0     H12930  11.529   6.342   3.178 -2.7019 -0.1498 -0.8664
  856MOL0     H12931  11.720   6.564   3.060  2.0883 -1.8681 -3.0037
  856MOL0     H12932  11.763   6.409   3.114 -2.2201 -1.8655 -0.0341
  856MOL0     H12933  11.677   6.448   3.335  1.3181 -0.2949  0.6076
  856MOL0     H12934  11.633   6.609   3.291 -1.6828 -2.0398 -1.1329
  856MOL0     H12935  11.908   6.481   3.245 -1.5874 -1.2396 -0.3246
  856MOL0     H12936  11.885   6.653   3.261 -0.6033 -0.5419 -0.4052
  856MOL0     H12937  12.009   6.510   3.461  0.0450 -0.6846 -2.4879
  856MOL0     H12938  11.841   6.485   3.515  0.3198  0.1372  1.9989
  856MOL0     H12939  11.789   6.709   3.534  0.7030  1.1039  1.2174
  856MOL0     H12940  11.952   6.767   3.462  0.8371 -0.6739 -0.2279
  856MOL0     H12941  11.950   6.600   3.713 -2.6085  0.9042  0.5338
  856MOL0     H12942  12.064   6.730   3.663 -0.5875  1.3599  5.1043
  856MOL0     H12943  11.903   6.771   3.845 -1.6648 -3.8385 -0.1218
  856MOL0     H12944  11.785   6.799   3.723 -0.0433  1.0239 -0.1704
  856MOL0     H12945  12.156   6.892   3.799  0.8517 -0.5668 -1.4408
  856MOL0     H12946  12.237   7.249   3.667  1.9162  0.4200  2.1942
  856MOL0     H12947  12.313   7.083   3.643 -0.0488 -1.7168  1.2119
  856MOL0     H12948  12.400   7.208   3.821 -0.3675 -1.8212 -0.2718
  856MOL0     H12949  12.336   7.061   3.877 -0.5074 -0.7254 -0.7862
  856MOL0     H12950  12.123   7.176   3.969  0.7845 -0.4423  0.2803
  856MOL0     H12951  12.276   7.245   4.045  2.9330 -0.1443 -0.7432
  856MOL0     H12952  12.101   7.357   3.808  1.1792 -0.8511 -1.0099
  856MOL0     H12953  12.243   7.433   3.875 -2.0965  3.3497  1.9693
  856MOL0     H12954  11.968   7.548   4.200  0.8490  0.3272 -0.7875
  856MOL0     H12955  11.726   7.538   4.234 -2.4785 -0.5056  0.1562
  856MOL0     H12956  11.272   7.304   4.213 -1.5364 -2.3721 -0.8303
  856MOL0     H12957  11.053   7.388   4.220  0.5846 -2.1406 -0.3539
  856MOL0     H12958  10.858   7.514   4.182 -0.4779  1.3448 -0.8582
  856MOL0     H12959  10.828   7.339   4.136 -2.0216 -0.6648 -2.6763
  856MOL0     H12960  10.627   7.372   4.030  1.8606 -0.4631 -0.8889
  856MOL0     H12961  10.657   7.555   4.001  0.7398 -1.2796 -1.7888
  856MOL0     H12962  10.637   7.582   4.237  2.6949 -0.4375 -1.4613
  856MOL0     H12963  10.565   7.413   4.231  0.1218 -0.0654 -0.5128
  856MOL0     H12964  10.451   7.662   4.114  1.6733  1.6636  2.9660
  856MOL0     H12965  10.418   7.498   4.052 -1.4666 -0.5065  1.9567
  856MOL0     H12966  10.341   7.443   4.264 -0.5206  0.0086 -1.1858
  856MOL0     H12967  10.246   7.573   4.217 -0.7747 -5.5888  0.1869
  856MOL0     H12968  10.420   7.724   4.359  1.3618 -0.0537 -0.3196
  856MOL0     H12969  10.497   7.585   4.424  0.2996  0.0341 -1.2752
  856MOL0     H12970  10.219   7.544   4.482 -0.7794  0.2244  3.1503
  856MOL0     H12971  10.354   7.555   4.593  1.9081  2.1518 -0.0694
  856MOL0     H12972  10.172   7.739   4.617 -1.4174  1.7314 -0.4389
  856MOL0     H12973  10.219   7.798   4.470 -0.3942 -0.1048  1.0152
  856MOL0     H12974  11.078   7.474   3.802 -0.5161  0.1084  0.0861
  856MOL0     H12975  11.332   7.449   3.814 -0.1841  1.8399  0.3777
  856MOL0     H12976  11.675   7.315   3.878 -0.2628 -1.3752  1.3129
  856MOL0     H12977  11.911   7.311   3.839 -0.0525  1.3236 -0.4018
  856MOL0     H12978  11.346   6.276   3.102 -1.4574 -1.0429 -0.4746
  856MOL0     H12979  11.118   6.243   3.077 -1.9587  0.3638 -0.2506
  856MOL0     H12980  10.661   6.187   2.902  0.0523  1.9552 -2.9966
  856MOL0     H12981  10.412   6.223   2.887  0.5992  2.1199 -2.6084
  856MOL0     H12982  10.164   6.295   2.898  1.7119 -0.0676 -1.0259
  856MOL0     H12983  10.257   6.402   2.791 -1.1479 -0.1498 -1.3228
  856MOL0     H12984   9.995   6.413   2.827  1.3167 -2.1540  0.1685
  856MOL0     H12985  10.030   6.518   2.956 -1.6683 -1.7703  0.0686
  856MOL0     H12986   9.991   6.639   2.750  0.5255  1.4144 -1.1827
  856MOL0     H12987  10.093   6.525   2.670 -0.2734  0.3052 -0.5371
  856MOL0     H12988  10.220   6.711   2.878 -1.3719  4.1318 -0.8516
  856MOL0     H12989  10.290   6.622   2.743  1.8481  4.0936 -0.1648
  856MOL0     H12990  10.181   6.997   2.574  2.6269 -0.3721 -0.2908
  856MOL0     H12991  10.471   6.577   3.126 -1.2429  0.6384 -0.6928
  856MOL0     H12992  10.697   6.523   3.170 -1.2128  0.6082  1.8195
  857MOL0     O12993   3.252   3.110   0.288  0.2486 -0.4906 -0.9413
  857MOL0     C12994   3.186   3.202   0.239 -0.9546  1.1273 -0.2306
  857MOL0     O12995   3.073   3.252   0.290 -0.5079 -0.8939 -0.3161
  857MOL0     C12996   3.005   3.184   0.387  0.3359 -0.7031 -0.2854
  857MOL0     C12997   3.039   3.188   0.525 -0.5389  0.4780  0.8122
  857MOL0     C12998   2.960   3.110   0.619  0.8760  0.0349  0.8486
  857MOL0     C12999   2.849   3.037   0.572  0.6244  0.3879  0.4798
  857MOL0     O13000   2.754   2.976   0.657  0.4019  0.4231  0.0698
  857MOL0     C13001   2.761   2.995   0.799 -0.3795  0.7776 -0.1621
  857MOL0     C13002   2.649   2.909   0.860  0.2274 -0.6524  0.3041
  857MOL0     C13003   2.667   2.881   1.011 -0.5838 -0.3952 -0.0604
  857MOL0     C13004   2.541   2.818   1.079 -0.3957  1.0960  0.5454
  857MOL0     C13005   2.449   2.925   1.129 -0.1069  0.1718 -0.2308
  857MOL0     C13006   2.332   2.868   1.211 -0.8493 -0.5804  0.4340
  857MOL0     C13007   2.205   2.951   1.210  0.6179 -0.2021 -0.5062
  857MOL0     C13008   2.214   3.076   1.288 -0.1148 -0.3108 -1.6142
  857MOL0     N13009   2.097   3.156   1.298  0.0509 -0.5179 -1.2009
  857MOL0     C13010   1.980   3.125   1.357  0.2715 -0.9787  0.4056
  857MOL0     C13011   1.891   3.205   1.298 -0.0837  0.2355  0.5136
  857MOL0     C13012   1.750   3.208   1.338 -0.7864  1.0520 -0.7255
  857MOL0     C13013   1.648   3.155   1.236 -0.2320 -0.0419 -0.0362
  857MOL0     C13014   1.657   3.001   1.215 -0.0771 -0.0960  0.2084
  857MOL0     C13015   1.539   2.944   1.137 -0.2559  0.3328 -1.1389
  857MOL0     O13016   1.553   2.965   0.990  0.6437 -0.0489 -0.1286
  857MOL0     C13017   1.451   2.926   0.913  0.7806 -0.1843  1.0244
  857MOL0     C13018   1.461   2.927   0.771  0.0110  0.5363 -0.1119
  857MOL0     C13019   1.355   2.910   0.683  0.7552 -0.0459 -0.2039
  857MOL0     C13020   1.223   2.889   0.729  0.4194 -0.2198 -0.0609
  857MOL0     C13021   1.115   2.854   0.636 -1.1367 -0.0730 -0.3236
  857MOL0     O13022   0.995   2.868   0.693  0.3450  0.4708  0.6693
  857MOL0     C13023   0.880   2.818   0.639  0.6938 -0.3711  0.7949
  857MOL0     C13024   0.765   2.906   0.631 -0.1454  0.1300 -0.3411
  857MOL0     C13025   0.642   2.866   0.582  0.1150 -0.4733  0.3658
  857MOL0     C13026   0.624   2.744   0.527 -0.6486  0.6169  0.0227
  857MOL0     O13027   0.504   2.711   0.476 -0.0763  0.5795 -0.1623
  857MOL0     C13028   0.491   2.612   0.370 -1.2508 -0.4571 -0.1746
  857MOL0     C13029   0.358   2.623   0.296 -0.1402 -0.2928 -1.0857
  857MOL0     C13030   0.237   2.582   0.383  0.2760  0.0813 -1.0994
  857MOL0     C13031   0.209   2.433   0.383  0.2705 -0.9839  0.2087
  857MOL0     C13032   0.078   2.398   0.465 -1.0764  0.0173  0.0558
  857MOL0     C13033   0.112   2.266   0.534 -0.5343 -0.2262  0.2258
  857MOL0     C13034  -0.002   2.242   0.628  0.1403  0.0482 -0.7579
  857MOL0     C13035  -0.002   2.093   0.692 -0.3536 -0.1998  0.0387
  857MOL0    Cl13036   0.014   1.979   0.552  0.2890 -0.1865  0.1302
  857MOL0     C13037   0.734   2.651   0.524  1.3132 -0.6658  0.3214
  857MOL0     C13038   0.857   2.696   0.583 -0.6889  0.9562 -0.1963
  857MOL0     O13039   1.142   2.792   0.531 -0.2510 -0.3741 -0.4541
  857MOL0     C13040   1.204   2.896   0.871 -0.5499  0.1072  0.6381
  857MOL0     C13041   1.319   2.914   0.959  0.7404 -0.9855 -0.2110
  857MOL0     N13042   1.960   3.287   1.204  0.3927  0.3641 -0.3767
  857MOL0     N13043   2.081   3.252   1.211 -1.0166  0.6967  1.0434
  857MOL0     C13044   2.817   3.038   0.432 -0.5276 -0.2046  0.3247
  857MOL0     C13045   2.890   3.116   0.344 -0.3326 -0.5355  0.7118
  857MOL0     C13046   3.227   3.264   0.113 -0.1783  0.2065 -0.0006
  857MOL0     C13047   3.133   3.337   0.043  1.1972 -0.1752  1.5583
  857MOL0     C13048   3.161   3.390  -0.083 -0.0352 -0.6024  0.0644
  857MOL0     C13049   3.292   3.390  -0.125  0.0822  0.0814  0.7545
  857MOL0     O13050   3.333   3.456  -0.243 -0.0563 -0.0099 -0.2455
  857MOL0     C13051   3.251   3.536  -0.323  0.6041  0.7710  0.3609
  857MOL0     C13052   3.324   3.628  -0.420 -0.0709 -0.6512  0.1010
  857MOL0     C13053   3.424   3.554  -0.502 -0.7722 -0.6321 -0.0276
  857MOL0     C13054   3.494   3.650  -0.601  0.2381  0.7123  0.0538
  857MOL0     C13055   3.606   3.579  -0.682 -0.1444 -0.7096  0.4521
  857MOL0     C13056   3.673   3.507  -0.753  0.6462  0.2118  0.4871
  857MOL0     C13057   3.385   3.320  -0.052  0.2414  0.5960 -0.0612
  857MOL0     C13058   3.357   3.252   0.059  0.5798  0.0043  0.2672
  857MOL0     H13059   3.129   3.240   0.559  0.9230 -1.3525 -0.0775
  857MOL0     H13060   2.978   3.125   0.725  2.1577 -0.8937  0.7810
  857MOL0     H13061   2.745   3.101   0.824  0.4771  0.8133  0.2452
  857MOL0     H13062   2.859   2.974   0.841 -0.4636 -0.0791 -0.3789
  857MOL0     H13063   2.651   2.818   0.800 -0.2210 -1.0044  0.8095
  857MOL0     H13064   2.563   2.972   0.836  2.4239  2.3169 -0.3872
  857MOL0     H13065   2.686   2.980   1.055 -2.1406  1.2419 -2.7285
  857MOL0     H13066   2.753   2.814   1.020  0.0460  0.0909 -1.8099
  857MOL0     H13067   2.490   2.764   0.999  3.6544  0.6080 -1.9883
  857MOL0     H13068   2.581   2.763   1.165  0.8304  2.2875  0.7533
  857MOL0     H13069   2.421   2.980   1.039  0.0739 -3.1964 -2.5353
  857MOL0     H13070   2.507   2.996   1.189  0.4788  0.2815 -0.9192
  857MOL0     H13071   2.355   2.848   1.316 -2.7054 -0.9344  0.8081
  857MOL0     H13072   2.309   2.770   1.168  1.5038 -0.5882 -1.0117
  857MOL0     H13073   2.166   2.968   1.109 -1.3401  0.5417  0.3104
  857MOL0     H13074   2.129   2.900   1.270  0.1174  0.0348 -0.9318
  857MOL0     H13075   2.295   3.134   1.243  1.1805  0.7948  1.8420
  857MOL0     H13076   2.237   3.049   1.392  0.6217 -1.4325 -2.0489
  857MOL0     H13077   1.965   3.045   1.430  0.4436 -2.5104 -1.1651
  857MOL0     H13078   1.718   3.312   1.353  0.8619  1.1576  2.8068
  857MOL0     H13079   1.739   3.172   1.440 -0.5033  5.4150  1.0755
  857MOL0     H13080   1.658   3.213   1.144  1.4551  0.1139  0.2161
  857MOL0     H13081   1.543   3.172   1.262 -0.0957 -1.5164  1.7394
  857MOL0     H13082   1.748   2.965   1.165 -1.3556 -0.7991 -1.7163
  857MOL0     H13083   1.643   2.959   1.316 -1.8192  1.4600  0.6540
  857MOL0     H13084   1.457   3.006   1.173 -0.9540 -0.7490 -0.8444
  857MOL0     H13085   1.524   2.842   1.172 -2.4434  0.8009 -0.5552
  857MOL0     H13086   1.550   2.948   0.713 -2.0309  0.1086 -3.6774
  857MOL0     H13087   1.380   2.928   0.579  0.1884  1.5535 -0.0811
  857MOL0     H13088   0.770   3.006   0.673 -2.4287 -0.1726  0.7862
  857MOL0     H13089   0.564   2.941   0.588  1.3774  0.8677  0.5938
  857MOL0     H13090   0.507   2.511   0.409  0.1728 -0.0494  0.3409
  857MOL0     H13091   0.568   2.636   0.297 -0.5859  0.6306  0.8471
  857MOL0     H13092   0.356   2.578   0.196  1.8207 -1.3276 -0.7072
  857MOL0     H13093   0.333   2.730   0.292 -2.5373 -0.6520  1.4387
  857MOL0     H13094   0.149   2.632   0.343 -1.0027 -0.4357  0.9389
  857MOL0     H13095   0.258   2.617   0.485  1.4925  2.8504 -2.2149
  857MOL0     H13096   0.197   2.400   0.280  3.3951  0.9228 -0.8996
  857MOL0     H13097   0.295   2.391   0.436 -1.6552 -3.6094  1.4917
  857MOL0     H13098  -0.008   2.381   0.399 -1.2496 -1.6042  0.6502
  857MOL0     H13099   0.067   2.475   0.541  2.3673  0.4156  0.2886
  857MOL0     H13100   0.207   2.274   0.587 -0.5858 -0.4168  0.3438
  857MOL0     H13101   0.117   2.189   0.456 -2.7252 -0.4287  0.2205
  857MOL0     H13102  -0.007   2.315   0.709  2.4931 -2.7093  2.1885
  857MOL0     H13103  -0.099   2.241   0.577 -2.1668 -4.5902  2.9125
  857MOL0     H13104  -0.097   2.078   0.745  0.1622 -3.0629  0.3162
  857MOL0     H13105   0.078   2.080   0.766 -1.3619 -1.6507  0.9219
  857MOL0     H13106   0.727   2.549   0.488 -2.3302 -0.1603 -0.8620
  857MOL0     H13107   0.942   2.630   0.573 -1.5218 -0.0807 -0.5102
  857MOL0     H13108   1.101   2.889   0.904 -1.5033  3.9166 -0.9256
  857MOL0     H13109   1.303   2.918   1.066  2.1535 -1.2497  0.0327
  857MOL0     H13110   2.727   2.992   0.390  1.2512  1.1730 -6.1421
  857MOL0     H13111   2.863   3.116   0.239  1.0477 -0.7245  0.3364
  857MOL0     H13112   3.029   3.339   0.073  0.5547  0.8698 -0.5161
  857MOL0     H13113   3.086   3.440  -0.143  1.4648  2.0139  0.2216
  857MOL0     H13114   3.187   3.603  -0.264 -2.0698 -0.9302 -0.4411
  857MOL0     H13115   3.183   3.469  -0.375  0.5537  1.2335 -0.1763
  857MOL0     H13116   3.239   3.667  -0.475 -0.8458 -2.2169  0.1341
  857MOL0     H13117   3.368   3.717  -0.375 -2.8788  1.4820 -1.1069
  857MOL0     H13118   3.379   3.461  -0.540 -0.7286 -0.2768 -0.9763
  857MOL0     H13119   3.500   3.524  -0.430 -1.3410 -2.2021 -0.0443
  857MOL0     H13120   3.430   3.692  -0.680  0.6905  0.9416 -0.1951
  857MOL0     H13121   3.534   3.739  -0.551  1.1506  0.5148 -0.2978
  857MOL0     H13122   3.747   3.442  -0.795  1.3270  0.6997  0.9028
  857MOL0     H13123   3.486   3.310  -0.093  0.9555 -1.5422  1.9537
  857MOL0     H13124   3.429   3.192   0.114 -0.8040 -0.8589  1.2115
  858MOL0     O13125   3.800   5.897   7.312 -0.0152  0.3485 -0.0202
  858MOL0     C13126   3.793   6.020   7.315  0.3896 -0.3742  0.1833
  858MOL0     O13127   3.673   6.092   7.324 -0.6310  0.7845  0.5402
  858MOL0     C13128   3.558   6.025   7.365  0.4581 -0.3967  0.0108
  858MOL0     C13129   3.442   6.018   7.287  0.2261  0.1421 -0.1508
  858MOL0     C13130   3.333   5.935   7.331  0.1414 -0.6602 -0.1752
  858MOL0     C13131   3.328   5.877   7.457 -0.1971  0.1164  1.0743
  858MOL0     O13132   3.211   5.828   7.491  0.6594  0.2957  0.0214
  858MOL0     C13133   3.202   5.744   7.599  0.2473  0.1275  0.5503
  858MOL0     C13134   3.053   5.711   7.630  0.5266 -0.1673  1.2100
  858MOL0     C13135   3.036   5.598   7.727 -1.3386 -0.4176 -0.4540
  858MOL0     C13136   2.889   5.561   7.764 -0.6903  1.1733  0.1430
  858MOL0     C13137   2.835   5.672   7.853  0.5253  0.5955 -0.7669
  858MOL0     C13138   2.686   5.643   7.881 -0.2519  0.2308 -0.0099
  858MOL0     C13139   2.620   5.753   7.972 -0.0499  0.4195  0.2488
  858MOL0     C13140   2.664   5.744   8.122 -0.4854  0.5362 -0.3500
  858MOL0     N13141   2.576   5.839   8.193 -0.4772 -0.4370  0.2815
  858MOL0     C13142   2.611   5.963   8.229 -0.0883  1.6681  0.2730
  858MOL0     C13143   2.508   6.004   8.315 -0.9590  0.0749 -0.1188
  858MOL0     C13144   2.485   6.144   8.380  1.1037  0.2225  0.3130
  858MOL0     C13145   2.402   6.246   8.300  0.3579  0.2278 -0.2406
  858MOL0     C13146   2.272   6.182   8.246 -0.5421 -0.2572  0.6309
  858MOL0     C13147   2.189   6.297   8.187  0.0176  0.5130  0.3569
  858MOL0     O13148   2.144   6.378   8.302 -0.3432 -0.2906  1.0428
  858MOL0     C13149   2.034   6.447   8.273 -0.0672  0.0192 -0.8662
  858MOL0     C13150   1.908   6.399   8.289 -0.3570  0.3332  0.1405
  858MOL0     C13151   1.790   6.481   8.262 -0.5948 -0.2081  0.1968
  858MOL0     C13152   1.805   6.612   8.219  0.1976 -0.3858  0.2724
  858MOL0     C13153   1.684   6.690   8.197 -1.0830  0.7183 -0.0024
  858MOL0     O13154   1.564   6.616   8.182 -0.2632 -0.2168  0.0979
  858MOL0     C13155   1.445   6.674   8.135 -0.0073 -0.3291 -0.4555
  858MOL0     C13156   1.383   6.636   8.018  0.2599  0.3991  0.5746
  858MOL0     C13157   1.252   6.683   7.998  0.6778 -0.5898  0.4706
  858MOL0     C13158   1.185   6.765   8.085  0.0665 -0.2720 -0.4265
  858MOL0     O13159   1.052   6.796   8.054 -0.5451  0.5771 -0.3341
  858MOL0     C13160   1.017   6.937   8.067  0.4856  0.1329 -0.4212
  858MOL0     C13161   1.044   7.016   7.941  0.7256  0.5573  0.1855
  858MOL0     C13162   0.993   6.952   7.811  0.4333  0.7026  0.0422
  858MOL0     C13163   0.837   6.938   7.796  0.5744  0.4965  0.6899
  858MOL0     C13164   0.796   6.842   7.675 -0.1104 -0.1753 -0.1710
  858MOL0     C13165   0.827   6.698   7.704 -0.1788  0.9246 -0.4958
  858MOL0     C13166   0.908   6.612   7.611  0.2211  0.8294  0.0404
  858MOL0     C13167   0.923   6.461   7.642 -0.4183  0.3621  0.1894
  858MOL0    Cl13168   0.768   6.362   7.653 -0.0782 -0.4720  0.4481
  858MOL0     C13169   1.250   6.805   8.203 -1.0125  0.2730 -0.3413
  858MOL0     C13170   1.380   6.760   8.232 -0.2676 -0.5256 -0.0690
  858MOL0     O13171   1.694   6.808   8.161  0.0426  0.5206 -0.3217
  858MOL0     C13172   1.933   6.655   8.180 -0.0325  0.6999  0.0402
  858MOL0     C13173   2.045   6.575   8.214  0.9322  0.2252 -0.7649
  858MOL0     N13174   2.410   5.906   8.310  0.5586  0.2729 -0.0453
  858MOL0     N13175   2.449   5.806   8.235  1.0153 -0.6846  0.0081
  858MOL0     C13176   3.443   5.893   7.536  0.1427  0.5925 -0.3259
  858MOL0     C13177   3.552   5.959   7.494  1.2537 -1.1079  1.0559
  858MOL0     C13178   3.923   6.097   7.287 -0.0763  0.1104 -0.9638
  858MOL0     C13179   4.023   6.026   7.224 -0.2954 -0.7053 -0.8051
  858MOL0     C13180   4.138   6.098   7.197  0.3449  0.8895 -0.5233
  858MOL0     C13181   4.154   6.234   7.226  0.3188  0.6369  0.4322
  858MOL0     O13182   4.277   6.294   7.192 -0.7688 -0.1750 -0.1356
  858MOL0     C13183   4.352   6.357   7.298  0.1840  0.1856  0.0084
  858MOL0     C13184   4.504   6.347   7.266 -0.2300 -1.1117 -0.3636
  858MOL0     C13185   4.581   6.465   7.313  0.7928 -0.7124 -0.2920
  858MOL0     C13186   4.732   6.460   7.279  0.6339 -0.1979  0.0464
  858MOL0     C13187   4.812   6.339   7.303 -0.3460 -0.2257 -0.7003
  858MOL0     C13188   4.873   6.228   7.306  0.0761 -0.4946  0.5334
  858MOL0     C13189   4.050   6.305   7.282  0.4979  0.6329  0.1381
  858MOL0     C13190   3.936   6.236   7.312  0.2117  0.2711  0.5450
  858MOL0     H13191   3.417   6.059   7.190 -0.8831  1.5034  0.6574
  858MOL0     H13192   3.239   5.928   7.277 -0.6282 -0.5319  1.1032
  858MOL0     H13193   3.241   5.791   7.690 -2.1438  0.5170  1.4583
  858MOL0     H13194   3.253   5.651   7.576  3.5580  2.2415 -1.3907
  858MOL0     H13195   3.004   5.674   7.539 -0.4449  1.2494  1.1248
  858MOL0     H13196   3.004   5.805   7.658 -1.3130 -0.7881  0.3035
  858MOL0     H13197   3.091   5.616   7.820 -1.5400 -2.8297  0.1995
  858MOL0     H13198   3.068   5.508   7.672 -0.0551 -0.5398  0.4473
  858MOL0     H13199   2.833   5.535   7.674  0.2173 -1.5579  0.2602
  858MOL0     H13200   2.883   5.468   7.822 -0.8736  1.5236  0.6929
  858MOL0     H13201   2.845   5.772   7.811 -0.0511  0.1362 -2.0448
  858MOL0     H13202   2.882   5.669   7.952 -1.0881 -1.1817  0.0166
  858MOL0     H13203   2.670   5.552   7.940 -1.4720  0.9226  0.7494
  858MOL0     H13204   2.634   5.646   7.785 -0.0031  0.9238 -0.1277
  858MOL0     H13205   2.641   5.849   7.925  1.4351 -0.2351 -0.4843
  858MOL0     H13206   2.512   5.735   7.971  0.5330 -4.3028  0.5670
  858MOL0     H13207   2.769   5.775   8.126 -0.4117  0.2030  0.3364
  858MOL0     H13208   2.647   5.646   8.167 -0.8464 -0.4481 -2.4910
  858MOL0     H13209   2.706   6.005   8.199  2.4369 -3.5723 -0.0843
  858MOL0     H13210   2.580   6.194   8.401  2.2621 -2.0219  0.7376
  858MOL0     H13211   2.436   6.138   8.477  1.2922  0.7745  0.4460
  858MOL0     H13212   2.462   6.292   8.221 -0.7454 -0.5073 -1.5386
  858MOL0     H13213   2.376   6.322   8.374  3.1343  3.0788 -1.9623
  858MOL0     H13214   2.298   6.107   8.171 -1.7132 -1.2725  1.1943
  858MOL0     H13215   2.222   6.126   8.327  1.0398 -0.6440  1.3785
  858MOL0     H13216   2.106   6.258   8.126  1.2582  0.8308 -1.6414
  858MOL0     H13217   2.250   6.361   8.122  2.6926 -1.0562  1.1672
  858MOL0     H13218   1.905   6.297   8.327  2.3832 -0.1890 -0.8296
  858MOL0     H13219   1.694   6.431   8.272 -0.4753 -0.8461 -1.4861
  858MOL0     H13220   1.425   6.582   7.934  1.9508  2.1187  0.2291
  858MOL0     H13221   1.199   6.652   7.909  1.2489  2.4823 -1.0585
  858MOL0     H13222   1.054   6.980   8.160  0.6000 -2.0070  0.6018
  858MOL0     H13223   0.911   6.957   8.087  0.1623 -2.3373  0.8461
  858MOL0     H13224   1.149   7.049   7.946  1.3130 -0.8486 -1.7144
  858MOL0     H13225   0.985   7.108   7.950 -0.7099 -0.3059 -0.1950
  858MOL0     H13226   1.038   6.855   7.792  2.1506  1.1099  1.7566
  858MOL0     H13227   1.016   7.025   7.733  1.6147  0.1327 -0.1558
  858MOL0     H13228   0.791   6.886   7.881  0.1751 -2.7381 -1.3642
  858MOL0     H13229   0.790   7.036   7.782 -1.7823 -0.4805  1.2968
  858MOL0     H13230   0.848   6.887   7.590 -1.4487  3.1949  0.6088
  858MOL0     H13231   0.687   6.842   7.670 -0.1826 -2.8029  0.0291
  858MOL0     H13232   0.740   6.635   7.723  1.2828 -2.3451 -3.3965
  858MOL0     H13233   0.877   6.683   7.800 -1.8613  1.1433  0.4549
  858MOL0     H13234   0.872   6.619   7.508  0.6333 -3.6820 -0.6234
  858MOL0     H13235   1.006   6.657   7.595  0.0403  0.8458 -1.1055
  858MOL0     H13236   0.972   6.450   7.739  1.4390  2.2861 -0.4542
  858MOL0     H13237   0.971   6.410   7.558 -1.1236  0.1780 -0.1089
  858MOL0     H13238   1.210   6.884   8.265 -2.5560  0.0269 -0.9770
  858MOL0     H13239   1.436   6.791   8.320  0.2521 -1.4454 -0.0552
  858MOL0     H13240   1.945   6.737   8.109  0.8046 -2.0451 -3.2783
  858MOL0     H13241   2.139   6.605   8.169  2.8256 -0.9260  2.1547
  858MOL0     H13242   3.436   5.856   7.637 -0.6815 -2.1985 -1.3085
  858MOL0     H13243   3.634   5.977   7.563  0.5504  1.0608  1.3973
  858MOL0     H13244   4.009   5.927   7.180  1.4807 -1.7897  0.9052
  858MOL0     H13245   4.214   6.036   7.151 -1.9783 -3.4178  0.8825
  858MOL0     H13246   4.331   6.328   7.401  1.2359  1.2922  0.5552
  858MOL0     H13247   4.326   6.463   7.300 -1.6147 -0.2247 -0.3741
  858MOL0     H13248   4.559   6.263   7.310  3.0947 -1.0075 -3.8438
  858MOL0     H13249   4.519   6.341   7.158  0.3846 -0.0991 -0.3430
  858MOL0     H13250   4.566   6.463   7.421  1.2867  0.4731 -0.1962
  858MOL0     H13251   4.531   6.554   7.272 -0.2582 -1.6061 -1.0343
  858MOL0     H13252   4.740   6.477   7.171 -1.7417  1.6756  0.0819
  858MOL0     H13253   4.774   6.541   7.338  0.0665  0.2920 -0.2099
  858MOL0     H13254   4.927   6.136   7.297  0.0463 -0.3561 -1.5606
  858MOL0     H13255   4.071   6.404   7.322 -0.3488  0.2016  1.7815
  858MOL0     H13256   3.854   6.285   7.363  1.6047  2.9537  0.3506
  859MOL0     O13257   2.592  11.225   1.155 -0.2725 -0.2527 -0.0558
  859MOL0     C13258   2.658  11.263   1.056  0.1772 -0.7919 -0.8000
  859MOL0     O13259   2.606  11.339   0.943 -0.3949  0.6041 -0.1808
  859MOL0     C13260   2.473  11.363   0.937  0.4258  0.2090  0.0956
  859MOL0     C13261   2.402  11.428   1.037 -0.4309 -0.5216 -0.3670
  859MOL0     C13262   2.263  11.461   1.038 -0.0256  0.0712  0.3853
  859MOL0     C13263   2.183  11.416   0.929 -0.0742 -0.3634 -0.0944
  859MOL0     O13264   2.045  11.437   0.929 -0.1159 -0.2966  0.1196
  859MOL0     C13265   1.974  11.317   0.981  0.9585 -0.7826  1.5083
  859MOL0     C13266   1.829  11.350   0.963  0.1402 -0.1231  0.9197
  859MOL0     C13267   1.803  11.384   0.818  0.1294 -0.7662  0.9525
  859MOL0     C13268   1.658  11.355   0.797 -0.0657  0.2820  0.8902
  859MOL0     C13269   1.611  11.409   0.658 -0.3278  0.1585 -0.2740
  859MOL0     C13270   1.669  11.335   0.536 -0.4550 -0.4678  0.0294
  859MOL0     C13271   1.591  11.207   0.527  0.7277 -0.3083  0.1795
  859MOL0     C13272   1.605  11.134   0.389 -0.4069  0.0562  0.7711
  859MOL0     N13273   1.541  11.001   0.390 -0.6348 -0.2978 -0.3190
  859MOL0     C13274   1.403  10.976   0.366 -0.0874  0.2074 -0.7484
  859MOL0     C13275   1.395  10.840   0.379  0.8349 -0.4098  0.7078
  859MOL0     C13276   1.284  10.739   0.350  0.6443 -0.4288 -0.0417
  859MOL0     C13277   1.158  10.816   0.319 -1.0109  0.2017  0.3002
  859MOL0     C13278   1.034  10.733   0.305  0.8254  0.3723 -0.1403
  859MOL0     C13279   0.906  10.811   0.248  0.1301  0.1973 -0.1059
  859MOL0     O13280   0.865  10.903   0.353 -0.1478 -0.4012 -0.5375
  859MOL0     C13281   0.729  10.913   0.354  0.2568  0.1816 -0.2686
  859MOL0     C13282   0.651  10.959   0.247  0.0349  0.5002 -0.2501
  859MOL0     C13283   0.519  10.978   0.260  0.3329 -0.2111 -0.8530
  859MOL0     C13284   0.454  10.962   0.384 -0.4059 -0.3551 -0.2226
  859MOL0     C13285   0.314  10.978   0.402 -0.0843 -0.1175 -0.1227
  859MOL0     O13286   0.260  10.978   0.533  0.8801 -0.2057 -0.4955
  859MOL0     C13287   0.131  11.000   0.546  0.1358  0.7210  0.3701
  859MOL0     C13288   0.071  11.109   0.486 -0.3852 -0.1261  0.7770
  859MOL0     C13289  -0.064  11.129   0.496  0.5471  0.3150 -0.1362
  859MOL0     C13290  -0.148  11.040   0.561  0.3001  0.0598  0.2899
  859MOL0     O13291  -0.281  11.063   0.549  0.3938  0.1014 -0.0912
  859MOL0     C13292  -0.372  10.989   0.630  0.0013 -0.5862 -0.4011
  859MOL0     C13293  -0.514  11.047   0.624  0.8074  0.4490  0.3298
  859MOL0     C13294  -0.629  10.958   0.675  1.0461  0.0253  0.3008
  859MOL0     C13295  -0.596  10.853   0.780  0.0130 -0.5496 -0.1816
  859MOL0     C13296  -0.643  10.719   0.736 -0.1357  0.1187 -0.3734
  859MOL0     C13297  -0.586  10.602   0.816 -0.3650  0.3211  0.4952
  859MOL0     C13298  -0.608  10.474   0.738  0.4525  0.0837 -0.7957
  859MOL0     C13299  -0.749  10.428   0.778 -0.2407 -0.4019 -0.2039
  859MOL0    Cl13300  -0.785  10.281   0.675  0.3440  0.2140 -0.2136
  859MOL0     C13301  -0.092  10.926   0.624  0.1284  0.9706  0.4140
  859MOL0     C13302   0.047  10.904   0.608 -0.3262  0.6944 -0.5162
  859MOL0     O13303   0.244  10.968   0.299  0.1126 -0.4430 -0.4753
  859MOL0     C13304   0.530  10.937   0.499  0.0398 -0.0379  0.0412
  859MOL0     C13305   0.674  10.911   0.486  0.1467  0.6512  0.7707
  859MOL0     N13306   1.520  10.787   0.400  0.3221  0.3317  0.3654
  859MOL0     N13307   1.602  10.879   0.404 -0.1051 -0.2386 -0.0709
  859MOL0     C13308   2.247  11.351   0.825  0.0849  0.4868  0.2597
  859MOL0     C13309   2.390  11.332   0.828 -0.0837  0.2117 -0.0826
  859MOL0     C13310   2.804  11.257   1.060 -0.5159 -0.1519 -0.8845
  859MOL0     C13311   2.881  11.328   0.967 -0.4451 -0.6481  0.4044
  859MOL0     C13312   3.017  11.340   0.971  0.4576  0.3247  0.1629
  859MOL0     C13313   3.092  11.256   1.060  0.6387  0.4394  0.5832
  859MOL0     O13314   3.232  11.234   1.055  0.2035 -0.3536 -0.1586
  859MOL0     C13315   3.308  11.324   0.977  0.3935 -0.0971 -0.6378
  859MOL0     C13316   3.460  11.300   1.003  0.1296  0.1011 -0.7361
  859MOL0     C13317   3.548  11.424   0.986 -0.8963 -0.3112 -1.1618
  859MOL0     C13318   3.693  11.382   0.961 -1.3832 -0.4051 -0.1507
  859MOL0     C13319   3.790  11.491   0.966 -0.4774 -0.5203  0.7214
  859MOL0     C13320   3.865  11.587   0.990 -0.7334  0.4230 -0.1377
  859MOL0     C13321   3.012  11.189   1.156 -1.0978 -0.8591 -0.5976
  859MOL0     C13322   2.873  11.185   1.158 -0.1121 -1.3309 -0.1444
  859MOL0     H13323   2.443  11.457   1.133 -1.1363 -1.4889  0.2567
  859MOL0     H13324   2.230  11.515   1.126  0.3300  0.2398  0.4159
  859MOL0     H13325   2.000  11.293   1.085  0.1882 -0.1517  1.8582
  859MOL0     H13326   1.994  11.230   0.918 -1.0831 -0.0472 -0.2484
  859MOL0     H13327   1.786  11.435   1.018 -3.0585 -0.6621 -0.5249
  859MOL0     H13328   1.769  11.266   1.001  0.1717  1.0341  3.7902
  859MOL0     H13329   1.865  11.329   0.746 -2.5583 -0.4379 -1.8423
  859MOL0     H13330   1.828  11.489   0.798  0.5162 -1.3511 -2.1012
  859MOL0     H13331   1.638  11.248   0.806 -1.6508  0.5899  1.4520
  859MOL0     H13332   1.591  11.399   0.872 -3.8564 -1.2055 -1.3486
  859MOL0     H13333   1.637  11.515   0.656  0.8726 -0.1198 -1.2138
  859MOL0     H13334   1.502  11.401   0.658 -0.5617  2.5885  0.6229
  859MOL0     H13335   1.776  11.322   0.556 -0.2168  0.8350 -0.3303
  859MOL0     H13336   1.654  11.396   0.446  1.0386  2.1885  1.4735
  859MOL0     H13337   1.603  11.141   0.613  0.7554  0.9653  1.1902
  859MOL0     H13338   1.487  11.241   0.530  1.0206  0.5813  2.1205
  859MOL0     H13339   1.711  11.110   0.379 -0.2930  0.2463  1.5025
  859MOL0     H13340   1.575  11.199   0.307  3.4585  0.3516 -0.6166
  859MOL0     H13341   1.322  11.045   0.348 -1.7197 -0.7552  2.3202
  859MOL0     H13342   1.280  10.672   0.437  1.1695  0.6629  0.8483
  859MOL0     H13343   1.310  10.682   0.260  0.2898 -0.8975  0.1467
  859MOL0     H13344   1.155  10.881   0.231 -2.1977  2.5060  1.9527
  859MOL0     H13345   1.137  10.883   0.403 -0.5976  2.1487 -1.0790
  859MOL0     H13346   1.057  10.658   0.228  0.4602  2.9308 -2.9138
  859MOL0     H13347   1.004  10.692   0.402  3.3539  0.2919  0.6816
  859MOL0     H13348   0.834  10.731   0.231  0.8911 -0.3206 -0.9268
  859MOL0     H13349   0.936  10.862   0.156  1.8072 -1.1549 -0.3450
  859MOL0     H13350   0.696  10.970   0.149 -0.1856 -0.7838 -0.5064
  859MOL0     H13351   0.462  11.006   0.172  1.2442  2.5976 -0.6569
  859MOL0     H13352   0.124  11.185   0.430 -0.5097 -0.8545 -0.3744
  859MOL0     H13353  -0.097  11.215   0.439 -4.2814  0.9066  3.0002
  859MOL0     H13354  -0.342  10.982   0.735 -0.4736 -3.1539 -0.3918
  859MOL0     H13355  -0.381  10.886   0.595 -0.3094 -1.2665  1.5505
  859MOL0     H13356  -0.537  11.070   0.519 -0.9435  0.2804  0.6509
  859MOL0     H13357  -0.519  11.146   0.670 -1.9428  0.5254  0.0118
  859MOL0     H13358  -0.677  10.910   0.589  1.9679  2.2224 -1.5351
  859MOL0     H13359  -0.704  11.028   0.711  0.9297 -0.2074  0.5150
  859MOL0     H13360  -0.487  10.852   0.773 -0.0078 -2.8863 -1.1016
  859MOL0     H13361  -0.621  10.876   0.884 -0.3398  2.2579 -0.8121
  859MOL0     H13362  -0.621  10.713   0.629  0.5684  3.5193 -0.5192
  859MOL0     H13363  -0.753  10.715   0.736 -0.1281 -0.1178 -0.2770
  859MOL0     H13364  -0.629  10.594   0.916 -0.8926 -0.2575  0.2244
  859MOL0     H13365  -0.478  10.616   0.826 -0.5911  0.9692  2.6370
  859MOL0     H13366  -0.593  10.494   0.631 -0.4462 -0.1882 -0.9836
  859MOL0     H13367  -0.539  10.394   0.762 -1.4568 -2.2991 -2.7174
  859MOL0     H13368  -0.827  10.502   0.761  2.8336  3.0244 -0.5602
  859MOL0     H13369  -0.746  10.400   0.883 -0.9043 -1.4205 -0.4312
  859MOL0     H13370  -0.153  10.857   0.682  0.5282  1.8137  1.8737
  859MOL0     H13371   0.096  10.817   0.650 -0.7820 -0.6692 -2.6504
  859MOL0     H13372   0.474  10.928   0.591 -2.8022 -4.4871 -1.7598
  859MOL0     H13373   0.736  10.888   0.571  0.4140 -2.0734 -0.0534
  859MOL0     H13374   2.195  11.318   0.736  0.1571  1.2622 -0.0808
  859MOL0     H13375   2.430  11.292   0.735 -1.5567 -0.7933 -0.3174
  859MOL0     H13376   2.841  11.381   0.881  1.7144 -1.5207 -1.2383
  859MOL0     H13377   3.069  11.395   0.893  0.2842  0.3562  0.0703
  859MOL0     H13378   3.273  11.423   1.007 -1.7763 -1.2203  0.7663
  859MOL0     H13379   3.288  11.317   0.869 -1.3272 -2.5144 -0.2331
  859MOL0     H13380   3.481  11.263   1.104  0.2171  0.8693 -0.4672
  859MOL0     H13381   3.482  11.230   0.922 -0.0920 -0.2003 -0.5363
  859MOL0     H13382   3.551  11.474   1.083  2.3228  2.2586 -2.4096
  859MOL0     H13383   3.511  11.499   0.915 -1.6507 -0.0815 -0.5412
  859MOL0     H13384   3.731  11.308   1.031  1.4452 -1.0121 -2.1440
  859MOL0     H13385   3.704  11.343   0.859 -1.1233  0.3685 -0.4243
  859MOL0     H13386   3.938  11.645   1.042 -1.3546  2.4929 -1.4565
  859MOL0     H13387   3.070  11.124   1.221  2.0543  1.6665 -0.6342
  859MOL0     H13388   2.814  11.129   1.231  0.1616 -4.0798 -1.9051
  860MOL0     O13389   1.280   5.755   7.401  0.2812  0.0138 -0.2086
  860MOL0     C13390   1.359   5.706   7.323 -0.1869 -0.7086 -0.1244
  860MOL0     O13391   1.331   5.679   7.198  0.0881  1.2200  0.0066
  860MOL0     C13392   1.221   5.731   7.142  0.9172  0.2839  0.6818
  860MOL0     C13393   1.185   5.869   7.133  0.6677 -0.2269  0.9069
  860MOL0     C13394   1.072   5.906   7.059 -0.7793 -0.0265 -0.3737
  860MOL0     C13395   0.992   5.813   7.004 -0.5332 -0.3282  0.2566
  860MOL0     O13396   0.888   5.877   6.942  0.6832 -0.1035  0.5419
  860MOL0     C13397   0.770   5.794   6.910 -0.6050 -0.2741  0.3168
  860MOL0     C13398   0.667   5.885   6.841  0.3221 -0.2152  0.7096
  860MOL0     C13399   0.553   5.813   6.785 -0.2488  0.0621  0.1139
  860MOL0     C13400   0.475   5.884   6.679  0.3562  0.5705 -0.2574
  860MOL0     C13401   0.342   5.800   6.635 -0.1402 -0.3691  0.4424
  860MOL0     C13402   0.281   5.846   6.502 -0.7652 -0.3118 -0.2056
  860MOL0     C13403   0.166   5.766   6.445 -0.2231 -0.4547  0.2392
  860MOL0     C13404   0.104   5.833   6.322  0.1211 -0.3313  0.6559
  860MOL0     N13405  -0.008   5.760   6.255 -0.7711 -0.0369 -0.4520
  860MOL0     C13406  -0.043   5.772   6.119 -0.5588  0.8200 -0.8357
  860MOL0     C13407  -0.149   5.687   6.101 -0.2623 -0.0900 -0.1233
  860MOL0     C13408  -0.225   5.654   5.983 -0.3741  0.0196  0.3818
  860MOL0     C13409  -0.374   5.698   5.988 -0.3084  0.7666  0.5272
  860MOL0     C13410  -0.442   5.699   5.855  0.0787 -1.5297 -0.7684
  860MOL0     C13411  -0.447   5.565   5.791 -0.1013 -0.6099 -0.0322
  860MOL0     O13412  -0.539   5.565   5.675 -0.8902  0.0370  0.6246
  860MOL0     C13413  -0.677   5.547   5.694  0.1597 -0.3186 -0.3288
  860MOL0     C13414  -0.760   5.559   5.583  0.3135 -0.0969  0.3083
  860MOL0     C13415  -0.901   5.557   5.603  0.1723 -0.2200  0.1728
  860MOL0     C13416  -0.959   5.518   5.719  0.4165 -0.4045 -0.0999
  860MOL0     C13417  -1.100   5.525   5.742 -0.1024  0.4323  0.8158
  860MOL0     O13418  -1.148   5.538   5.869 -0.5809  0.1964 -0.3732
  860MOL0     C13419  -1.276   5.531   5.904  0.6283 -0.5700  0.0283
  860MOL0     C13420  -1.382   5.588   5.835  0.2351 -0.1341 -0.3926
  860MOL0     C13421  -1.509   5.577   5.879 -0.1487  0.5558  0.2571
  860MOL0     C13422  -1.540   5.496   5.992 -0.4396  0.0274 -1.4024
  860MOL0     O13423  -1.664   5.473   6.043  0.7434 -0.4207  0.0650
  860MOL0     C13424  -1.776   5.548   5.996 -0.4529  0.2556  0.4245
  860MOL0     C13425  -1.845   5.474   5.886  1.3760  0.3167  0.1845
  860MOL0     C13426  -1.974   5.548   5.843 -0.0092 -0.1119 -0.4450
  860MOL0     C13427  -2.038   5.467   5.726  0.1124 -0.5946 -0.3704
  860MOL0     C13428  -2.169   5.539   5.680 -0.0532 -0.0531  0.5677
  860MOL0     C13429  -2.257   5.461   5.576  0.1748 -0.6599 -0.5339
  860MOL0     C13430  -2.368   5.548   5.544 -0.2275 -0.4567  0.1580
  860MOL0     C13431  -2.465   5.466   5.464  0.0701  0.7303  0.1752
  860MOL0    Cl13432  -2.411   5.432   5.292 -0.1259 -0.4759 -0.5487
  860MOL0     C13433  -1.436   5.441   6.070 -0.3085 -0.0209  0.0182
  860MOL0     C13434  -1.305   5.460   6.022  0.3068  0.0416 -0.4654
  860MOL0     O13435  -1.167   5.515   5.639  0.0199 -0.3548 -0.4164
  860MOL0     C13436  -0.874   5.503   5.825 -0.0686 -0.0396  0.5812
  860MOL0     C13437  -0.734   5.523   5.819 -0.4303 -1.3687 -0.5037
  860MOL0     N13438  -0.168   5.619   6.223 -0.8996  0.0163 -0.3313
  860MOL0     N13439  -0.090   5.670   6.313  0.0511  0.3564 -0.4558
  860MOL0     C13440   1.015   5.675   7.010 -0.3709 -0.4996  0.5092
  860MOL0     C13441   1.129   5.640   7.081 -0.6984  0.2332 -0.6861
  860MOL0     C13442   1.495   5.683   7.376 -0.2681 -0.3648  0.6041
  860MOL0     C13443   1.532   5.719   7.505  0.0741 -0.4137  0.7666
  860MOL0     C13444   1.658   5.705   7.563  0.8631 -0.3672  0.2068
  860MOL0     C13445   1.761   5.642   7.484 -0.4766  0.6235  0.3439
  860MOL0     O13446   1.892   5.624   7.522  0.3090 -0.1806 -0.2594
  860MOL0     C13447   1.922   5.651   7.659  0.5595  0.1644 -0.4399
  860MOL0     C13448   2.071   5.673   7.678  0.5314 -0.3117 -0.0734
  860MOL0     C13449   2.104   5.792   7.588 -0.1126  0.3082 -0.3513
  860MOL0     C13450   2.250   5.815   7.605 -0.3303 -0.2652  0.2418
  860MOL0     C13451   2.287   5.873   7.740  0.0409 -0.1180  0.0412
  860MOL0     C13452   2.309   5.900   7.851 -1.4962  0.1208 -0.4886
  860MOL0     C13453   1.730   5.617   7.346  0.4224 -0.2040  0.1922
  860MOL0     C13454   1.600   5.643   7.292  0.6122 -0.3379 -0.1508
  860MOL0     H13455   1.233   5.947   7.192 -2.8315  1.6031  1.6492
  860MOL0     H13456   1.035   6.007   7.046  1.3963  0.6445 -2.0572
  860MOL0     H13457   0.724   5.762   7.003 -1.9814 -1.3755 -0.7110
  860MOL0     H13458   0.809   5.714   6.846  0.3041  0.6097 -0.2662
  860MOL0     H13459   0.718   5.926   6.754  2.0788 -2.4660  0.5711
  860MOL0     H13460   0.616   5.964   6.896 -2.6340  0.7687 -3.0125
  860MOL0     H13461   0.491   5.774   6.866  2.1584 -1.8302  1.1327
  860MOL0     H13462   0.584   5.721   6.734  2.7277  2.2719 -2.4280
  860MOL0     H13463   0.434   5.977   6.720 -0.7207 -0.1034  0.2297
  860MOL0     H13464   0.541   5.902   6.593  3.7609  2.1300  2.4235
  860MOL0     H13465   0.267   5.804   6.715  2.9079  3.6505  3.5278
  860MOL0     H13466   0.375   5.696   6.628 -0.6786 -0.6713  1.9717
  860MOL0     H13467   0.353   5.846   6.419  0.7224  1.2830  1.0199
  860MOL0     H13468   0.255   5.951   6.515 -1.1296 -0.4208 -0.0295
  860MOL0     H13469   0.181   5.660   6.420 -2.1145 -0.5717 -0.5955
  860MOL0     H13470   0.094   5.756   6.527 -1.0362 -1.6925 -0.5827
  860MOL0     H13471   0.180   5.850   6.244 -0.3009  2.1022  0.7126
  860MOL0     H13472   0.069   5.932   6.350  1.5576  0.1441  0.8597
  860MOL0     H13473   0.019   5.835   6.056  1.3592  1.6830  1.7760
  860MOL0     H13474  -0.209   5.551   5.950  2.1273  0.2118  0.7552
  860MOL0     H13475  -0.178   5.715   5.904  2.4069 -3.0365 -0.5496
  860MOL0     H13476  -0.379   5.795   6.039 -3.1285  0.8898  0.1603
  860MOL0     H13477  -0.428   5.626   6.051 -1.4145  1.3978  0.3286
  860MOL0     H13478  -0.543   5.737   5.870 -0.0211 -2.4550  1.2447
  860MOL0     H13479  -0.384   5.772   5.797 -1.2280 -0.8608 -1.2587
  860MOL0     H13480  -0.472   5.496   5.873  0.3333  0.6274  1.1946
  860MOL0     H13481  -0.351   5.536   5.749 -0.6740 -0.0314 -1.8104
  860MOL0     H13482  -0.713   5.577   5.487  0.6016  2.1077  0.7951
  860MOL0     H13483  -0.966   5.582   5.520  1.7495  3.4282 -0.1351
  860MOL0     H13484  -1.368   5.644   5.742 -2.4150  2.9926  0.9034
  860MOL0     H13485  -1.595   5.613   5.823 -0.4694 -0.8585 -0.2036
  860MOL0     H13486  -1.756   5.648   5.956  0.0748 -0.0636 -0.1201
  860MOL0     H13487  -1.847   5.554   6.080  0.1697  0.8721  0.9181
  860MOL0     H13488  -1.859   5.367   5.908  2.0196 -0.0723 -1.1820
  860MOL0     H13489  -1.770   5.468   5.806 -0.3304  1.0618 -1.5680
  860MOL0     H13490  -1.956   5.648   5.801 -0.0165  0.5709  1.0954
  860MOL0     H13491  -2.048   5.551   5.924 -1.9248  1.0110 -2.1531
  860MOL0     H13492  -1.966   5.476   5.644  0.1177 -0.6312 -0.3698
  860MOL0     H13493  -2.042   5.360   5.746  0.8600 -0.2551  1.8768
  860MOL0     H13494  -2.141   5.634   5.635 -1.4436 -0.8367 -2.1708
  860MOL0     H13495  -2.236   5.553   5.766  1.0893 -0.4988  1.5670
  860MOL0     H13496  -2.291   5.373   5.632  0.2188 -0.2022  0.2286
  860MOL0     H13497  -2.198   5.445   5.485  1.0875  0.9401 -0.2551
  860MOL0     H13498  -2.418   5.590   5.632 -1.5910  2.6263 -1.8958
  860MOL0     H13499  -2.337   5.630   5.478  0.1342 -0.7640 -0.0572
  860MOL0     H13500  -2.557   5.524   5.453 -0.9382 -0.6659  0.8671
  860MOL0     H13501  -2.483   5.375   5.523 -2.3309  0.9327 -0.1128
  860MOL0     H13502  -1.452   5.398   6.169  0.6639  1.2818  0.7619
  860MOL0     H13503  -1.219   5.420   6.074  1.4254  1.6613 -0.9833
  860MOL0     H13504  -0.914   5.482   5.924  1.0337 -0.5907  0.9221
  860MOL0     H13505  -0.671   5.515   5.906 -0.4500  0.5919 -0.2637
  860MOL0     H13506   0.960   5.594   6.963 -1.2735 -0.0567  0.7867
  860MOL0     H13507   1.156   5.536   7.092  2.0793  1.0361  1.3959
  860MOL0     H13508   1.449   5.747   7.570 -1.0575 -0.6208 -0.5514
  860MOL0     H13509   1.666   5.721   7.670 -2.2507 -2.8711  0.9743
  860MOL0     H13510   1.880   5.577   7.729 -2.2015  1.5209 -0.5469
  860MOL0     H13511   1.878   5.744   7.697  0.2057 -0.6845  1.3398
  860MOL0     H13512   2.086   5.690   7.785 -2.3731  0.3687  0.3100
  860MOL0     H13513   2.126   5.584   7.644  3.1403  1.7893 -1.8107
  860MOL0     H13514   2.054   5.885   7.616  1.5337  1.7849 -2.0327
  860MOL0     H13515   2.076   5.771   7.485 -2.7606 -0.3199  0.4134
  860MOL0     H13516   2.302   5.720   7.591 -1.8305 -1.3273  1.6299
  860MOL0     H13517   2.292   5.887   7.534  1.7987  0.2811  1.9474
  860MOL0     H13518   2.326   5.934   7.952 -1.7865 -1.7939  0.2516
  860MOL0     H13519   1.807   5.588   7.275  1.7015 -0.9942  1.8343
  860MOL0     H13520   1.585   5.627   7.186  0.5409 -0.4950 -0.1176
  861MOL0     O13521   4.017   2.447  10.770 -0.4434  0.2349  0.6297
  861MOL0     C13522   4.092   2.435  10.864  0.6022 -0.3869  0.1501
  861MOL0     O13523   4.052   2.440  10.991  0.2027 -0.1303 -0.1025
  861MOL0     C13524   3.925   2.400  11.011  0.6483 -1.3335 -1.1162
  861MOL0     C13525   3.927   2.280  11.078  0.0451  0.1487 -0.8819
  861MOL0     C13526   3.805   2.228  11.129  0.8344  0.1774  0.5512
  861MOL0     C13527   3.683   2.294  11.112  0.1115 -0.4587 -0.7755
  861MOL0     O13528   3.569   2.227  11.149 -0.8504  0.0338 -0.4083
  861MOL0     C13529   3.453   2.306  11.180  0.2594  0.8105 -0.5241
  861MOL0     C13530   3.358   2.219  11.257  0.3757  1.0962  0.5531
  861MOL0     C13531   3.234   2.291  11.311 -1.0901 -0.0972 -0.0674
  861MOL0     C13532   3.114   2.196  11.326  0.1457 -0.2055 -0.4887
  861MOL0     C13533   2.998   2.260  11.381  1.1190  0.1733 -0.5776
  861MOL0     C13534   2.868   2.169  11.396 -1.4611  0.2215 -0.2457
  861MOL0     C13535   2.757   2.253  11.470  0.0564 -0.0872 -0.6350
  861MOL0     C13536   2.685   2.343  11.369 -1.1502  0.5639 -0.1296
  861MOL0     N13537   2.550   2.360  11.384 -0.0655 -0.0044 -0.7827
  861MOL0     C13538   2.454   2.357  11.289 -0.3519  1.4523  0.0698
  861MOL0     C13539   2.333   2.383  11.350  0.6928  1.3781  0.2163
  861MOL0     C13540   2.207   2.439  11.279 -0.1718  0.6598  0.6641
  861MOL0     C13541   2.107   2.326  11.251 -0.3347  0.2643  0.5737
  861MOL0     C13542   2.169   2.215  11.159  0.2843  0.1695  0.6348
  861MOL0     C13543   2.054   2.126  11.100 -0.2141  0.1883 -0.0090
  861MOL0     O13544   1.978   2.062  11.205 -0.4042 -0.5970 -0.1177
  861MOL0     C13545   1.860   1.996  11.176 -0.1306  0.1495  0.0015
  861MOL0     C13546   1.793   1.951  11.283  0.0344 -0.3609 -0.0173
  861MOL0     C13547   1.680   1.880  11.267  0.1065 -0.2950 -0.4931
  861MOL0     C13548   1.627   1.857  11.140 -0.8555 -0.4854  0.6477
  861MOL0     C13549   1.506   1.788  11.114  0.4995  0.8033  0.0849
  861MOL0     O13550   1.405   1.832  11.189  0.1781  0.4066 -1.0280
  861MOL0     C13551   1.283   1.776  11.164  0.1012  0.2830 -0.1804
  861MOL0     C13552   1.231   1.675  11.243  0.0063  0.4526 -0.5947
  861MOL0     C13553   1.103   1.625  11.219  0.0215  1.1203 -0.0962
  861MOL0     C13554   1.028   1.674  11.112  0.6241  0.2124  0.4761
  861MOL0     O13555   0.906   1.607  11.089 -0.5187  0.2017 -0.0163
  861MOL0     C13556   0.834   1.648  10.965  0.9214 -0.6748  0.3729
  861MOL0     C13557   0.686   1.590  10.976  0.3314  0.1539 -0.6154
  861MOL0     C13558   0.603   1.632  10.857 -0.7951  0.1587 -0.0124
  861MOL0     C13559   0.469   1.568  10.840 -0.1640 -0.1783  0.6989
  861MOL0     C13560   0.409   1.591  10.695  0.5742 -0.0417 -0.2815
  861MOL0     C13561   0.276   1.513  10.672 -1.0870 -0.5908  0.0955
  861MOL0     C13562   0.221   1.547  10.532 -0.0999 -0.0070 -0.9953
  861MOL0     C13563   0.117   1.446  10.489 -0.1172 -0.8110 -0.4875
  861MOL0    Cl13564   0.004   1.447  10.628  0.7506  0.2372  0.5480
  861MOL0     C13565   1.084   1.783  11.039  0.1785 -0.4564  0.0082
  861MOL0     C13566   1.208   1.836  11.067  0.3931  0.0339  0.2155
  861MOL0     O13567   1.500   1.710  11.015  0.5450  0.1264  0.4150
  861MOL0     C13568   1.697   1.905  11.030  0.3345 -0.8327 -0.2609
  861MOL0     C13569   1.815   1.977  11.046  0.2377 -0.7656 -0.2121
  861MOL0     N13570   2.361   2.401  11.486  0.4424  0.5563 -0.1770
  861MOL0     N13571   2.490   2.405  11.502 -0.0744  0.0675 -0.0132
  861MOL0     C13572   3.689   2.412  11.031  0.3789 -0.0161 -0.0931
  861MOL0     C13573   3.801   2.462  10.975  0.1312  0.1787  0.1238
  861MOL0     C13574   4.239   2.435  10.832 -0.2062  0.6332 -0.6360
  861MOL0     C13575   4.282   2.444  10.702  0.1877 -0.7842  0.8239
  861MOL0     C13576   4.414   2.421  10.675 -0.6531 -0.6382  0.0212
  861MOL0     C13577   4.508   2.399  10.766 -0.5934 -0.4067 -0.7066
  861MOL0     O13578   4.643   2.377  10.734  0.5148  0.5149 -0.1966
  861MOL0     C13579   4.740   2.439  10.822 -0.1595 -0.2489  0.3760
  861MOL0     C13580   4.858   2.497  10.728 -0.5182 -0.0117 -0.1272
  861MOL0     C13581   4.929   2.386  10.646  0.4151  0.1057  0.2256
  861MOL0     C13582   5.032   2.441  10.554  0.1204  0.8583  0.5142
  861MOL0     C13583   5.155   2.478  10.615  0.6270  0.7019  0.6572
  861MOL0     C13584   5.258   2.518  10.667  0.0690 -0.0642  0.1269
  861MOL0     C13585   4.474   2.408  10.898 -0.2311  0.5065 -0.0754
  861MOL0     C13586   4.334   2.411  10.935 -0.3318  0.4705 -0.4119
  861MOL0     H13587   4.025   2.235  11.096 -0.0579 -0.4494 -1.7913
  861MOL0     H13588   3.806   2.134  11.182  3.3807 -1.4702 -2.0935
  861MOL0     H13589   3.409   2.337  11.085 -0.4316 -0.4894 -0.6479
  861MOL0     H13590   3.483   2.395  11.236  1.2462  0.6108 -0.7273
  861MOL0     H13591   3.410   2.192  11.350 -1.5527  0.8220  1.6046
  861MOL0     H13592   3.330   2.131  11.198  0.0850  1.9389 -0.5873
  861MOL0     H13593   3.202   2.379  11.254 -0.4199 -0.2458 -0.6849
  861MOL0     H13594   3.264   2.316  11.413  0.0939  3.7768 -1.1855
  861MOL0     H13595   3.091   2.150  11.230 -2.0283  0.6401 -0.4270
  861MOL0     H13596   3.148   2.117  11.395 -1.6021  0.5178  1.2961
  861MOL0     H13597   2.960   2.336  11.313  0.2042 -0.7698 -1.1688
  861MOL0     H13598   3.016   2.311  11.476  1.2191 -0.6910 -0.1204
  861MOL0     H13599   2.903   2.090  11.463 -1.2647  1.9696  1.8008
  861MOL0     H13600   2.834   2.123  11.302 -0.1335  0.4030 -0.8373
  861MOL0     H13601   2.683   2.194  11.524 -1.0618  1.2014 -0.7181
  861MOL0     H13602   2.791   2.323  11.546 -1.6148  1.8663 -1.5915
  861MOL0     H13603   2.709   2.312  11.267  2.7520 -2.0916  1.3635
  861MOL0     H13604   2.730   2.442  11.374 -1.2154  0.5351  1.4657
  861MOL0     H13605   2.467   2.346  11.182  2.8451  0.3834  0.4679
  861MOL0     H13606   2.229   2.485  11.182 -0.6203  0.6325  0.5481
  861MOL0     H13607   2.159   2.515  11.341  0.6486  2.0752 -0.3678
  861MOL0     H13608   2.019   2.377  11.211 -1.4689  0.0327  2.6311
  861MOL0     H13609   2.090   2.288  11.352  0.0748  0.5231  0.7458
  861MOL0     H13610   2.230   2.254  11.077 -0.4663 -2.8361 -1.5575
  861MOL0     H13611   2.228   2.160  11.232  1.2468 -0.2956 -0.4581
  861MOL0     H13612   2.089   2.054  11.026  0.1009 -0.1306  0.4415
  861MOL0     H13613   1.980   2.191  11.052 -1.9635 -0.5903  1.5050
  861MOL0     H13614   1.825   1.967  11.385 -0.1423 -1.9577  0.3092
  861MOL0     H13615   1.629   1.854  11.359  1.0603  2.8953  1.0904
  861MOL0     H13616   1.302   1.632  11.312  0.7303 -1.6102 -2.4811
  861MOL0     H13617   1.063   1.540  11.272  2.2153  1.0225  1.5600
  861MOL0     H13618   0.889   1.611  10.878  1.1242  1.1078 -0.2839
  861MOL0     H13619   0.821   1.756  10.956 -0.7601 -0.9369 -0.6915
  861MOL0     H13620   0.642   1.628  11.069 -0.8278  1.2281 -1.5768
  861MOL0     H13621   0.678   1.481  10.982  0.3577  0.1234 -1.1083
  861MOL0     H13622   0.658   1.626  10.763  2.7316  0.1292  1.8929
  861MOL0     H13623   0.583   1.736  10.883  1.3865  0.1435  2.0796
  861MOL0     H13624   0.484   1.463  10.868 -2.7513 -0.4692  1.2660
  861MOL0     H13625   0.399   1.602  10.917  0.4705  0.0809  1.1598
  861MOL0     H13626   0.480   1.567  10.615  0.6920  0.4495 -0.3259
  861MOL0     H13627   0.387   1.696  10.674  1.2895  0.0543 -0.5844
  861MOL0     H13628   0.207   1.534  10.754  1.3731 -1.6126  2.6101
  861MOL0     H13629   0.308   1.409  10.683 -1.8132 -1.0459 -1.6888
  861MOL0     H13630   0.160   1.638  10.536 -2.1443 -1.3453  2.0479
  861MOL0     H13631   0.312   1.545  10.472  2.3948 -1.4913  2.5051
  861MOL0     H13632   0.161   1.348  10.469  0.0214 -0.9508  0.4943
  861MOL0     H13633   0.063   1.485  10.402 -1.5928  2.5814  1.7391
  861MOL0     H13634   1.037   1.826  10.951 -0.0811 -2.0973 -0.6839
  861MOL0     H13635   1.240   1.924  11.011  2.0763 -2.9830 -4.0976
  861MOL0     H13636   1.657   1.888  10.931  0.3654 -0.2744 -0.3727
  861MOL0     H13637   1.859   2.019  10.956 -2.6157  2.1711 -0.4352
  861MOL0     H13638   3.599   2.459  10.992  1.8529  1.4018 -1.9208
  861MOL0     H13639   3.788   2.560  10.930 -2.4736  0.1963  0.7514
  861MOL0     H13640   4.221   2.476  10.619 -2.1749 -0.8223  2.4600
  861MOL0     H13641   4.460   2.434  10.578  0.3795 -2.9677  0.1224
  861MOL0     H13642   4.767   2.350  10.881 -0.7074  0.0252  1.0501
  861MOL0     H13643   4.698   2.519  10.883 -3.2378 -0.7621 -0.9040
  861MOL0     H13644   4.809   2.578  10.674 -1.9926  0.5767  1.9513
  861MOL0     H13645   4.929   2.541  10.799  2.1230 -0.5850 -2.2367
  861MOL0     H13646   4.850   2.343  10.585  0.9889  1.1454 -1.3092
  861MOL0     H13647   4.965   2.313  10.720  1.6788  1.4477  0.9852
  861MOL0     H13648   5.051   2.363  10.480  1.9664 -0.7167  2.5295
  861MOL0     H13649   4.989   2.520  10.491 -3.9081 -2.0886 -0.8575
  861MOL0     H13650   5.347   2.568  10.700  1.6966  0.4020 -4.3012
  861MOL0     H13651   4.547   2.377  10.972 -0.6308  1.3809  0.7133
  861MOL0     H13652   4.289   2.417  11.034 -3.6140 -0.3113 -1.7196
  862MOL0     O13653   2.451   2.950   9.551 -0.3376 -0.4450  0.1164
  862MOL0     C13654   2.501   3.001   9.452 -0.5504 -0.0939 -0.1905
  862MOL0     O13655   2.432   3.029   9.345 -0.7051 -0.0295 -0.1147
  862MOL0     C13656   2.290   3.023   9.351 -0.1060 -0.7997 -0.5066
  862MOL0     C13657   2.219   2.932   9.259 -0.6272 -0.3727  0.2804
  862MOL0     C13658   2.082   2.938   9.240  0.2442 -0.0239  0.7443
  862MOL0     C13659   2.001   3.002   9.334 -0.9034 -0.1700 -0.6666
  862MOL0     O13660   1.869   2.975   9.324 -0.6639 -0.2641 -0.7892
  862MOL0     C13661   1.787   3.037   9.423  1.0704  0.2374  0.3471
  862MOL0     C13662   1.642   2.996   9.391 -0.6608 -0.9737 -0.4286
  862MOL0     C13663   1.549   3.095   9.463 -0.0947 -0.2633 -0.3278
  862MOL0     C13664   1.401   3.062   9.451  0.0054 -0.6191  0.5519
  862MOL0     C13665   1.301   3.176   9.473  0.6746  0.3150  0.0597
  862MOL0     C13666   1.160   3.138   9.446  0.6174 -0.0812 -0.0418
  862MOL0     C13667   1.061   3.253   9.469 -0.1104 -0.1480  0.7610
  862MOL0     C13668   0.927   3.185   9.453 -0.2128  0.5270 -0.2865
  862MOL0     N13669   0.811   3.269   9.434 -0.6329 -0.0783  0.3930
  862MOL0     C13670   0.706   3.289   9.516  0.2534 -0.2413 -0.1117
  862MOL0     C13671   0.629   3.379   9.445  0.3613  0.0691  0.3871
  862MOL0     C13672   0.492   3.426   9.493 -0.4231 -0.1524  0.5189
  862MOL0     C13673   0.377   3.378   9.404  0.2231 -0.6843  0.5800
  862MOL0     C13674   0.321   3.240   9.430  0.4197  2.1776  0.7644
  862MOL0     C13675   0.198   3.221   9.347  0.1952  0.3231 -0.0491
  862MOL0     O13676   0.093   3.306   9.395 -0.4269 -0.4764 -0.0693
  862MOL0     C13677  -0.033   3.308   9.338 -0.0141 -0.3791  0.9755
  862MOL0     C13678  -0.054   3.256   9.214 -0.5994  0.7659  0.1759
  862MOL0     C13679  -0.180   3.258   9.157 -0.0890  0.2741  0.0838
  862MOL0     C13680  -0.285   3.324   9.222  0.3097  0.3482  0.4356
  862MOL0     C13681  -0.422   3.341   9.169  0.4548 -0.2039 -0.2063
  862MOL0     O13682  -0.491   3.454   9.195 -0.4833  0.4820 -0.0770
  862MOL0     C13683  -0.619   3.459   9.145 -0.1541 -0.6713  0.2357
  862MOL0     C13684  -0.706   3.358   9.154  0.6421 -0.2423 -0.1111
  862MOL0     C13685  -0.841   3.372   9.119 -0.3806  0.5228  0.5101
  862MOL0     C13686  -0.874   3.502   9.064  0.1103 -0.5424 -0.0505
  862MOL0     O13687  -0.999   3.536   9.020  0.1080 -0.4616  0.1408
  862MOL0     C13688  -1.101   3.429   9.011  0.9397  0.1735 -0.1343
  862MOL0     C13689  -1.206   3.484   8.923  0.0780 -0.9112 -0.5317
  862MOL0     C13690  -1.326   3.404   8.898  0.5828  0.3406  0.2345
  862MOL0     C13691  -1.413   3.468   8.785 -0.6140 -0.7919 -0.4735
  862MOL0     C13692  -1.530   3.373   8.763 -0.1907  0.9380 -0.3169
  862MOL0     C13693  -1.620   3.403   8.649 -0.1955 -0.6045 -0.0776
  862MOL0     C13694  -1.705   3.526   8.676 -0.0448 -0.5144  0.4645
  862MOL0     C13695  -1.794   3.554   8.556 -0.1859 -0.1557  0.0537
  862MOL0    Cl13696  -1.874   3.713   8.554  0.2492 -0.2700 -0.2743
  862MOL0     C13697  -0.784   3.609   9.049 -0.7761 -0.6365  0.6710
  862MOL0     C13698  -0.650   3.577   9.095 -0.3400  0.7891  0.3450
  862MOL0     O13699  -0.457   3.247   9.101 -0.5105 -0.7475  0.2007
  862MOL0     C13700  -0.261   3.369   9.353  1.0231  0.3689 -0.6646
  862MOL0     C13701  -0.136   3.368   9.404 -0.6488 -0.6222 -0.8331
  862MOL0     N13702   0.693   3.421   9.330 -0.1813  1.0075  0.8884
  862MOL0     N13703   0.800   3.349   9.326 -0.4691 -0.0226  0.6380
  862MOL0     C13704   2.061   3.088   9.432 -0.4403 -0.0174 -1.6622
  862MOL0     C13705   2.205   3.106   9.435 -0.6269  1.1755  1.0565
  862MOL0     C13706   2.641   3.018   9.433  0.2245  0.1808  0.4582
  862MOL0     C13707   2.718   2.986   9.540 -0.8789  0.6419  1.0423
  862MOL0     C13708   2.854   3.020   9.529 -0.3649 -0.1334 -0.9728
  862MOL0     C13709   2.905   3.078   9.412 -0.1861 -0.1655 -0.0154
  862MOL0     O13710   3.039   3.090   9.418 -0.0805 -0.1917 -0.0590
  862MOL0     C13711   3.110   3.185   9.332 -0.8539 -0.6108 -0.3458
  862MOL0     C13712   3.259   3.204   9.345  0.5719  0.3426  0.0161
  862MOL0     C13713   3.285   3.278   9.479 -0.2504  0.7119 -0.3069
  862MOL0     C13714   3.432   3.310   9.494  0.3181  0.2381  0.2602
  862MOL0     C13715   3.483   3.397   9.389  0.3136  0.1866  0.6847
  862MOL0     C13716   3.540   3.461   9.304 -0.2403  0.2080  0.2480
  862MOL0     C13717   2.826   3.107   9.303  0.4686  0.8607 -0.0833
  862MOL0     C13718   2.694   3.080   9.312  0.3900  0.1270  0.2466
  862MOL0     H13719   2.280   2.877   9.187 -0.5962 -0.5962  0.4742
  862MOL0     H13720   2.043   2.872   9.162 -0.6925  0.1392  1.0662
  862MOL0     H13721   1.803   3.145   9.427  1.3515  0.1960  0.3925
  862MOL0     H13722   1.800   2.990   9.521 -1.8675  1.6424  1.5361
  862MOL0     H13723   1.622   2.900   9.439 -2.2840  1.7076  5.0663
  862MOL0     H13724   1.624   2.997   9.283  2.7556  0.2303 -1.1236
  862MOL0     H13725   1.556   3.192   9.413 -0.6532 -0.6377 -1.1468
  862MOL0     H13726   1.571   3.111   9.569 -0.8475  4.0713 -0.6152
  862MOL0     H13727   1.385   3.027   9.349 -1.7034 -2.3733  1.3731
  862MOL0     H13728   1.381   2.975   9.515 -0.6129 -0.4231  0.6315
  862MOL0     H13729   1.309   3.256   9.399 -0.7715  0.1910 -0.2597
  862MOL0     H13730   1.314   3.218   9.573 -0.5471  2.3334 -0.5700
  862MOL0     H13731   1.140   3.049   9.507  0.0171 -0.1302 -0.3012
  862MOL0     H13732   1.154   3.103   9.343 -2.1674 -0.6254  0.2232
  862MOL0     H13733   1.082   3.286   9.571 -0.2457  1.5461  0.2576
  862MOL0     H13734   1.080   3.341   9.408 -0.0229  0.7065  1.9875
  862MOL0     H13735   0.909   3.110   9.531  2.1508 -0.2539 -0.4228
  862MOL0     H13736   0.930   3.130   9.359  0.9590 -0.9224  0.5484
  862MOL0     H13737   0.678   3.248   9.613  1.2445  2.3713  1.3998
  862MOL0     H13738   0.479   3.533   9.509  2.0386  0.7409 -2.5420
  862MOL0     H13739   0.478   3.379   9.591  0.7728 -0.5427  0.5221
  862MOL0     H13740   0.402   3.392   9.298  3.6039  0.9746  1.4551
  862MOL0     H13741   0.298   3.453   9.415 -0.8022 -1.6746  0.1420
  862MOL0     H13742   0.395   3.163   9.405 -0.0021  2.1400 -0.4065
  862MOL0     H13743   0.284   3.217   9.531  2.9220 -3.0350  0.8520
  862MOL0     H13744   0.164   3.118   9.349 -0.3386  0.5105  0.7097
  862MOL0     H13745   0.226   3.258   9.247  2.8560  2.7896  1.4650
  862MOL0     H13746   0.030   3.204   9.168 -1.2269 -0.0020 -0.1285
  862MOL0     H13747  -0.185   3.220   9.056  2.1674 -0.8798  0.3511
  862MOL0     H13748  -0.690   3.258   9.190 -2.5565 -1.5566 -1.8469
  862MOL0     H13749  -0.902   3.282   9.125  2.8645 -1.9127  0.2458
  862MOL0     H13750  -1.147   3.430   9.111 -1.4317  3.5664 -1.0504
  862MOL0     H13751  -1.075   3.335   8.963 -2.9094  0.2090 -2.7572
  862MOL0     H13752  -1.163   3.509   8.826 -1.6274  1.0154 -0.8673
  862MOL0     H13753  -1.249   3.574   8.968  1.8766 -0.7989  1.0849
  862MOL0     H13754  -1.394   3.390   8.983 -1.6307  1.7551 -1.1800
  862MOL0     H13755  -1.293   3.309   8.854 -0.0772  0.0262  0.3974
  862MOL0     H13756  -1.445   3.568   8.815 -1.9268 -1.3258 -0.0020
  862MOL0     H13757  -1.355   3.482   8.693  2.4941  0.6836  1.5284
  862MOL0     H13758  -1.587   3.378   8.856  1.6846  2.4632  0.8301
  862MOL0     H13759  -1.504   3.268   8.747 -1.8114  0.8256 -2.7091
  862MOL0     H13760  -1.693   3.321   8.645  0.3320 -1.0363 -1.8616
  862MOL0     H13761  -1.566   3.416   8.555  1.6628 -0.3095  0.9879
  862MOL0     H13762  -1.768   3.506   8.764  2.6771 -1.7094  2.2961
  862MOL0     H13763  -1.648   3.616   8.701 -2.2685  0.7737  1.1942
  862MOL0     H13764  -1.875   3.483   8.538  0.7527 -2.1962  3.0697
  862MOL0     H13765  -1.747   3.566   8.458 -0.3442  2.1898  0.2106
  862MOL0     H13766  -0.807   3.700   8.996 -1.8929 -1.2637  0.0389
  862MOL0     H13767  -0.573   3.654   9.095 -0.9622  1.4802 -1.9998
  862MOL0     H13768  -0.342   3.414   9.410  1.7929 -1.4213  2.0627
  862MOL0     H13769  -0.124   3.417   9.500  1.8347 -2.1406 -0.2862
  862MOL0     H13770   2.001   3.154   9.493  0.6157 -0.4645 -0.0681
  862MOL0     H13771   2.251   3.183   9.495  2.3434  1.2676 -1.1431
  862MOL0     H13772   2.683   2.956   9.638  0.0341  1.4513  1.6329
  862MOL0     H13773   2.905   2.985   9.619 -0.6211 -0.7508 -1.0619
  862MOL0     H13774   3.066   3.283   9.352 -3.0434 -1.3797 -1.1114
  862MOL0     H13775   3.082   3.152   9.232 -1.7378 -3.1131  0.6389
  862MOL0     H13776   3.308   3.106   9.348  0.4717  0.3218  1.2636
  862MOL0     H13777   3.295   3.257   9.256 -0.6086 -1.0900 -1.3793
  862MOL0     H13778   3.249   3.217   9.562 -1.3557 -1.2625 -2.1160
  862MOL0     H13779   3.227   3.370   9.492  1.8925  2.4247 -2.1283
  862MOL0     H13780   3.454   3.369   9.584  2.2479  1.3899 -0.9107
  862MOL0     H13781   3.489   3.217   9.500 -0.4364 -0.3611 -1.2611
  862MOL0     H13782   3.600   3.505   9.227  3.3806 -0.5485  2.3954
  862MOL0     H13783   2.868   3.150   9.213  1.8408  3.5564  1.7163
  862MOL0     H13784   2.626   3.103   9.231  0.1597  1.6245  0.8489
  863MOL0     O13785   4.423   3.846   9.309 -0.2962 -0.7156  0.7516
  863MOL0     C13786   4.426   3.951   9.245  0.3731 -0.6666 -0.4678
  863MOL0     O13787   4.342   4.057   9.257 -0.0580  0.0875  1.1235
  863MOL0     C13788   4.229   4.046   9.333 -0.7209 -0.0764  0.0829
  863MOL0     C13789   4.154   3.928   9.354  0.0310  0.5269  0.5905
  863MOL0     C13790   4.031   3.930   9.410 -0.1904  0.1399 -0.3877
  863MOL0     C13791   3.971   4.046   9.456  0.2693 -0.0865 -1.0600
  863MOL0     O13792   3.843   4.042   9.506 -0.3786  0.2614 -0.0978
  863MOL0     C13793   3.755   4.148   9.463 -0.5308  0.5008 -0.1462
  863MOL0     C13794   3.758   4.251   9.576  0.3779  0.6961 -0.3361
  863MOL0     C13795   3.769   4.190   9.722 -0.0443 -0.5435  0.1621
  863MOL0     C13796   3.761   4.312   9.814  0.1925  0.5508 -0.4230
  863MOL0     C13797   3.773   4.263   9.960  0.8029 -0.5552  0.0652
  863MOL0     C13798   3.755   4.380  10.058 -0.2494 -0.1183  1.2041
  863MOL0     C13799   3.751   4.320  10.197 -0.7091  0.3058  0.4196
  863MOL0     C13800   3.699   4.422  10.296  0.6749 -1.0685  0.1857
  863MOL0     N13801   3.559   4.456  10.281  0.6532 -0.3518  0.1733
  863MOL0     C13802   3.446   4.371  10.257  1.3328  0.8526 -0.1538
  863MOL0     C13803   3.347   4.455  10.224 -0.3878 -0.5900 -0.1271
  863MOL0     C13804   3.201   4.433  10.212  0.1126  0.3851  0.2274
  863MOL0     C13805   3.128   4.399  10.347 -0.8869  0.3226  0.3445
  863MOL0     C13806   2.979   4.409  10.322  0.3888  0.5853  0.0207
  863MOL0     C13807   2.896   4.395  10.460  0.0177 -0.3372 -0.1144
  863MOL0     O13808   2.930   4.272  10.531 -0.2398  0.0053  0.6436
  863MOL0     C13809   2.835   4.218  10.615  0.7019  0.3326 -0.1333
  863MOL0     C13810   2.730   4.304  10.656  1.1466 -0.4253 -0.4136
  863MOL0     C13811   2.616   4.261  10.718 -0.1484  0.3484 -0.5241
  863MOL0     C13812   2.590   4.120  10.745 -0.1056 -0.8092 -0.7962
  863MOL0     C13813   2.463   4.053  10.797  0.4282 -0.2858 -0.4303
  863MOL0     O13814   2.455   3.923  10.802 -0.2320  0.1397  0.1474
  863MOL0     C13815   2.368   3.854  10.883 -1.2199 -0.0945  0.1913
  863MOL0     C13816   2.418   3.781  10.988 -0.0399  0.5291  0.5773
  863MOL0     C13817   2.321   3.717  11.072 -0.0255 -0.2833  0.3621
  863MOL0     C13818   2.182   3.733  11.052 -1.0332 -0.2294  0.1451
  863MOL0     O13819   2.097   3.693  11.142  0.3001 -0.7525  0.4393
  863MOL0     C13820   2.111   3.734  11.277  0.7396 -1.1008  0.9632
  863MOL0     C13821   1.989   3.716  11.356  0.5043  0.2786 -0.5210
  863MOL0     C13822   1.904   3.849  11.368  0.0047  1.0475  0.0857
  863MOL0     C13823   1.762   3.824  11.414  0.0172  0.2261 -0.0206
  863MOL0     C13824   1.678   3.951  11.369 -0.5060  0.1209  0.1021
  863MOL0     C13825   1.734   4.088  11.422  1.0254  0.8246 -0.5933
  863MOL0     C13826   1.630   4.194  11.433 -0.0720 -0.5978 -0.9044
  863MOL0     C13827   1.558   4.212  11.299  0.4583 -0.3753  0.0594
  863MOL0    Cl13828   1.420   4.331  11.333 -0.4876 -0.1227 -0.2504
  863MOL0     C13829   2.139   3.811  10.945 -0.1178 -0.4558  0.6381
  863MOL0     C13830   2.234   3.868  10.866  0.6142 -0.3839 -0.1619
  863MOL0     O13831   2.375   4.134  10.841 -0.2400 -0.0225  0.3141
  863MOL0     C13832   2.694   4.032  10.706 -0.9108  0.1131  0.5525
  863MOL0     C13833   2.816   4.083  10.651 -0.4202  1.2240 -0.4139
  863MOL0     N13834   3.401   4.582  10.226 -0.1079 -0.5111 -0.1154
  863MOL0     N13835   3.523   4.584  10.263 -0.5443 -0.4541 -0.0384
  863MOL0     C13836   4.039   4.170   9.427 -0.1722  0.5330 -0.2075
  863MOL0     C13837   4.166   4.168   9.367 -0.4631  0.2195 -0.5514
  863MOL0     C13838   4.532   3.957   9.148 -0.5024  0.3399 -0.5067
  863MOL0     C13839   4.580   3.840   9.083 -0.5711  0.1251 -0.8164
  863MOL0     C13840   4.693   3.846   8.999  0.4524 -0.3380 -0.4656
  863MOL0     C13841   4.758   3.967   8.981 -0.8223 -0.1069  0.8656
  863MOL0     O13842   4.855   3.978   8.891  0.6234  0.0827 -0.2099
  863MOL0     C13843   4.903   3.861   8.812 -0.3533 -0.8250  0.6713
  863MOL0     C13844   5.044   3.893   8.759  0.0889  0.1420  0.5728
  863MOL0     C13845   5.156   3.898   8.873  0.1060 -0.1574  0.0922
  863MOL0     C13846   5.255   4.015   8.862 -0.5816  0.2931 -0.3723
  863MOL0     C13847   5.330   4.023   8.739  0.4888  0.0238 -0.3597
  863MOL0     C13848   5.396   4.014   8.640 -0.5307 -0.2509 -0.1868
  863MOL0     C13849   4.722   4.081   9.052  0.6089  0.6786  0.4167
  863MOL0     C13850   4.602   4.075   9.125 -0.5646  0.1464  1.1627
  863MOL0     H13851   4.170   3.829   9.311 -0.9753 -0.8702  3.1772
  863MOL0     H13852   3.985   3.832   9.421  0.1305 -0.4424 -3.4902
  863MOL0     H13853   3.655   4.111   9.440 -1.3116  2.1741  0.4056
  863MOL0     H13854   3.795   4.187   9.368 -0.0792  2.5633  0.8337
  863MOL0     H13855   3.658   4.294   9.581 -0.9961 -2.2826 -0.1433
  863MOL0     H13856   3.836   4.327   9.567  1.4946  0.0317  2.6286
  863MOL0     H13857   3.862   4.135   9.736  0.2728 -0.0382  0.0873
  863MOL0     H13858   3.684   4.124   9.738 -0.5459 -0.0979 -0.6217
  863MOL0     H13859   3.835   4.383   9.775 -2.5760  1.4654 -4.7232
  863MOL0     H13860   3.679   4.380   9.790  0.7439  1.4206  0.1022
  863MOL0     H13861   3.866   4.209   9.981  0.9960  0.2495  1.4230
  863MOL0     H13862   3.696   4.186   9.974  0.3167 -0.7381 -2.9165
  863MOL0     H13863   3.672   4.445  10.029  0.3970  0.4007  0.4628
  863MOL0     H13864   3.844   4.441  10.039 -0.9306  0.5168 -0.0917
  863MOL0     H13865   3.688   4.231  10.207  0.8952 -0.8642  0.4931
  863MOL0     H13866   3.855   4.311  10.229 -0.8326  4.2668  2.5999
  863MOL0     H13867   3.757   4.514  10.290 -1.8215  0.4853 -2.4129
  863MOL0     H13868   3.690   4.373  10.394  1.7159  0.2317  0.9650
  863MOL0     H13869   3.420   4.268  10.278 -0.0429  1.8161  3.6529
  863MOL0     H13870   3.181   4.346  10.149 -2.8282  0.6982  0.5708
  863MOL0     H13871   3.152   4.523  10.174 -1.7876 -0.4166  0.6711
  863MOL0     H13872   3.146   4.476  10.422  0.2785 -0.6070  1.0505
  863MOL0     H13873   3.168   4.310  10.396  2.1404  1.3247 -0.1383
  863MOL0     H13874   2.952   4.498  10.264  1.1476 -1.4124 -3.7265
  863MOL0     H13875   2.937   4.331  10.259  0.3528  0.0145  0.7384
  863MOL0     H13876   2.791   4.382  10.433 -0.1334 -0.6141  0.6003
  863MOL0     H13877   2.924   4.485  10.515  3.0522 -0.7900 -0.7383
  863MOL0     H13878   2.746   4.411  10.651 -0.3928 -0.0542  1.4167
  863MOL0     H13879   2.535   4.331  10.738 -0.2238 -0.2719  1.5754
  863MOL0     H13880   2.523   3.775  11.016 -0.2765  1.5522  1.7497
  863MOL0     H13881   2.363   3.663  11.157 -0.7864  2.0359  2.3339
  863MOL0     H13882   2.139   3.839  11.295 -1.4063 -0.4541  0.7958
  863MOL0     H13883   2.192   3.673  11.318  3.6426  2.2952  0.7155
  863MOL0     H13884   2.023   3.693  11.457 -2.8978 -0.7679  0.5272
  863MOL0     H13885   1.933   3.636  11.306  1.7065  1.5221 -4.2544
  863MOL0     H13886   1.905   3.906  11.274 -2.2513  0.2429 -0.4986
  863MOL0     H13887   1.949   3.902  11.452 -0.5196  1.6796 -0.0319
  863MOL0     H13888   1.730   3.732  11.364 -1.2418  2.4632 -3.6952
  863MOL0     H13889   1.755   3.820  11.523 -2.1361  3.3582  0.0778
  863MOL0     H13890   1.576   3.932  11.406 -0.3868 -0.3735  0.1919
  863MOL0     H13891   1.676   3.957  11.260  1.4499 -0.2491  0.0085
  863MOL0     H13892   1.829   4.115  11.374  2.2492 -1.4323  0.3957
  863MOL0     H13893   1.763   4.068  11.525 -0.3377 -0.4564 -0.4356
  863MOL0     H13894   1.565   4.172  11.519 -1.3465  1.2206 -1.3416
  863MOL0     H13895   1.675   4.293  11.443 -1.4420 -0.0196 -0.1417
  863MOL0     H13896   1.505   4.123  11.265 -3.5980  2.6629 -2.3045
  863MOL0     H13897   1.626   4.254  11.224 -2.3733  2.1358 -1.3039
  863MOL0     H13898   2.034   3.832  10.931  0.3784  1.9431  0.0733
  863MOL0     H13899   2.197   3.924  10.781 -0.3390 -2.5599 -1.2591
  863MOL0     H13900   2.677   3.925  10.710  0.2206 -0.0728  0.5848
  863MOL0     H13901   2.890   4.012  10.615  1.0918  1.3732  2.1285
  863MOL0     H13902   3.988   4.262   9.453  1.3764  1.0911  1.0534
  863MOL0     H13903   4.220   4.260   9.347  3.0362 -1.7105 -0.8406
  863MOL0     H13904   4.521   3.751   9.106  0.2196 -0.5673 -1.4011
  863MOL0     H13905   4.717   3.749   8.956 -1.8722  0.2624 -3.4300
  863MOL0     H13906   4.835   3.846   8.727  1.1505 -1.3436 -0.4828
  863MOL0     H13907   4.899   3.770   8.873  1.5649 -1.1716  0.3222
  863MOL0     H13908   5.078   3.811   8.694  0.9837 -0.3454  1.6332
  863MOL0     H13909   5.051   3.990   8.709  0.9689  0.0819  0.5667
  863MOL0     H13910   5.220   3.809   8.873 -0.6533 -0.7336  1.5426
  863MOL0     H13911   5.104   3.903   8.968  0.7544  0.0451  0.4450
  863MOL0     H13912   5.192   4.104   8.860  0.3687  1.0024  0.6634
  863MOL0     H13913   5.325   4.030   8.944 -0.2331  2.4465 -1.0068
  863MOL0     H13914   5.467   4.017   8.559  1.0001  2.0107  1.1174
  863MOL0     H13915   4.762   4.180   9.029 -4.0212  3.0307  1.2888
  863MOL0     H13916   4.562   4.168   9.166 -0.0841  1.2077 -0.6425
  864MOL0     O13917   3.269   5.686  10.884  0.0013 -0.1420  0.3233
  864MOL0     C13918   3.203   5.583  10.871  0.1237 -0.0034 -0.6674
  864MOL0     O13919   3.071   5.572  10.817 -0.9020  0.0326 -0.1472
  864MOL0     C13920   2.999   5.668  10.769  0.4118 -0.1772  0.1079
  864MOL0     C13921   3.047   5.781  10.705  0.2450 -0.0003  0.2382
  864MOL0     C13922   2.969   5.885  10.663  0.6255 -0.2169  0.4286
  864MOL0     C13923   2.832   5.889  10.684 -0.7145  0.1045  0.7348
  864MOL0     O13924   2.756   5.987  10.632  0.0812  0.1747 -0.4213
  864MOL0     C13925   2.724   6.096  10.716 -0.2789  0.3725  0.1661
  864MOL0     C13926   2.653   6.206  10.632  0.7102 -0.3667  0.0877
  864MOL0     C13927   2.512   6.165  10.589 -0.6086  0.3833  0.6985
  864MOL0     C13928   2.431   6.291  10.551 -1.1448 -0.0505 -0.6413
  864MOL0     C13929   2.287   6.246  10.521  0.3193 -0.0136 -1.0057
  864MOL0     C13930   2.187   6.355  10.495  0.2014 -0.4996  0.7975
  864MOL0     C13931   2.046   6.305  10.486  0.8618  0.1475  0.6516
  864MOL0     C13932   1.951   6.426  10.456  0.0630  0.9092 -0.0322
  864MOL0     N13933   1.818   6.382  10.424  0.4278 -0.1032  0.2070
  864MOL0     C13934   1.737   6.312  10.506 -1.1598  0.4646  0.1013
  864MOL0     C13935   1.614   6.328  10.457  0.2289 -0.7091  0.0106
  864MOL0     C13936   1.486   6.281  10.530 -0.0803 -0.0844  0.2414
  864MOL0     C13937   1.407   6.177  10.448 -0.0113 -0.2749 -0.6374
  864MOL0     C13938   1.275   6.120  10.517  0.5717 -0.7411 -1.0562
  864MOL0     C13939   1.166   6.224  10.541 -0.1161  0.1579  0.5576
  864MOL0     O13940   1.059   6.162  10.627 -0.4862 -0.3128  0.9083
  864MOL0     C13941   0.969   6.066  10.571  0.5529  0.1099 -0.1097
  864MOL0     C13942   0.888   6.023  10.676 -0.4198 -0.1512  0.1101
  864MOL0     C13943   0.768   5.950  10.646  0.3517  0.2412 -0.4165
  864MOL0     C13944   0.754   5.903  10.512  0.3185  0.3616 -0.3696
  864MOL0     C13945   0.633   5.829  10.473  0.1788 -0.4021 -0.2486
  864MOL0     O13946   0.643   5.734  10.379 -0.6911 -0.7035 -0.2864
  864MOL0     C13947   0.541   5.681  10.306 -0.6163 -0.4158 -0.0769
  864MOL0     C13948   0.407   5.638  10.347 -0.5529 -0.7677 -0.2318
  864MOL0     C13949   0.315   5.577  10.258 -0.7747 -1.0899  0.3673
  864MOL0     C13950   0.364   5.563  10.123  0.9402 -0.0977  0.3067
  864MOL0     O13951   0.268   5.506  10.041  0.3277 -0.2503 -0.0564
  864MOL0     C13952   0.240   5.595   9.937  0.0412 -0.0196 -0.1815
  864MOL0     C13953   0.151   5.721   9.984 -1.0341  0.7747  0.2431
  864MOL0     C13954  -0.005   5.694  10.008 -1.0765 -0.2420 -0.5347
  864MOL0     C13955  -0.079   5.686   9.874  0.3761  0.6024 -0.6982
  864MOL0     C13956  -0.227   5.640   9.897  0.2956 -0.4223 -0.2307
  864MOL0     C13957  -0.322   5.692   9.782 -0.1098 -0.2559 -0.0121
  864MOL0     C13958  -0.463   5.621   9.770 -0.6932  0.1654 -0.4741
  864MOL0     C13959  -0.545   5.695   9.666 -0.8010  0.2062 -0.2725
  864MOL0    Cl13960  -0.724   5.667   9.659 -0.1763  0.1215  0.5576
  864MOL0     C13961   0.494   5.597  10.087 -1.0000  0.0383 -0.6116
  864MOL0     C13962   0.587   5.657  10.177 -0.2587 -0.0373  0.2812
  864MOL0     O13963   0.533   5.860  10.535 -0.0218 -0.4927  0.3186
  864MOL0     C13964   0.845   5.939  10.410 -0.3313  0.3051 -0.3458
  864MOL0     C13965   0.958   6.020  10.436  0.4387 -0.5170 -0.5073
  864MOL0     N13966   1.627   6.407  10.340 -0.0859  0.3232  0.1699
  864MOL0     N13967   1.748   6.450  10.334  0.3340  0.4585  0.5551
  864MOL0     C13968   2.773   5.767  10.737  0.2730 -0.8610  0.2294
  864MOL0     C13969   2.854   5.659  10.778  0.0173  0.2982 -0.4285
  864MOL0     C13970   3.276   5.468  10.915 -0.2360 -0.6656  0.1288
  864MOL0     C13971   3.209   5.343  10.931 -0.2037  0.2030 -0.4640
  864MOL0     C13972   3.280   5.223  10.958  0.0785  0.0263 -0.7084
  864MOL0     C13973   3.421   5.226  10.971  0.1978 -0.1781  0.7554
  864MOL0     O13974   3.493   5.114  10.982 -0.2523 -0.4061 -0.1994
  864MOL0     C13975   3.479   5.059  11.114  1.0184 -0.4343 -0.3619
  864MOL0     C13976   3.595   4.959  11.140  0.1790 -0.5844 -0.0407
  864MOL0     C13977   3.572   4.838  11.059  0.4867 -0.6084 -0.0349
  864MOL0     C13978   3.683   4.730  11.071  0.3825  0.6294 -0.9203
  864MOL0     C13979   3.737   4.699  11.206  0.0344  1.3589 -0.3563
  864MOL0     C13980   3.785   4.686  11.317 -1.3288  0.4292  1.1750
  864MOL0     C13981   3.490   5.342  10.952  0.2469 -0.1392 -0.6791
  864MOL0     C13982   3.415   5.460  10.927  0.1923  0.5551 -0.4489
  864MOL0     H13983   3.153   5.778  10.684 -0.2305 -2.6414 -2.5078
  864MOL0     H13984   3.020   5.964  10.608  0.5233 -1.4552 -1.5442
  864MOL0     H13985   2.817   6.132  10.761 -1.2553  2.4774  0.5979
  864MOL0     H13986   2.655   6.067  10.795 -1.4285  1.4320 -0.4041
  864MOL0     H13987   2.717   6.217  10.545 -1.2324 -0.4075 -1.4055
  864MOL0     H13988   2.653   6.305  10.679 -1.0431 -0.6171  0.6911
  864MOL0     H13989   2.457   6.115  10.670 -0.4390 -1.1922 -0.1062
  864MOL0     H13990   2.520   6.093  10.507  0.8863 -0.4438  1.5399
  864MOL0     H13991   2.443   6.357  10.637  0.1238 -0.6187 -0.3599
  864MOL0     H13992   2.479   6.346  10.470  1.3024  1.2187  1.5251
  864MOL0     H13993   2.248   6.176  10.596 -3.2152  1.3350 -1.3951
  864MOL0     H13994   2.273   6.176  10.438 -2.1418 -0.0069 -0.6722
  864MOL0     H13995   2.224   6.405  10.405 -2.2612  2.2011  1.1402
  864MOL0     H13996   2.196   6.428  10.576 -1.4977 -2.1509  2.5640
  864MOL0     H13997   2.036   6.229  10.407 -3.2895  2.7130 -1.6652
  864MOL0     H13998   2.019   6.258  10.581 -2.7531  0.4728 -0.0728
  864MOL0     H13999   2.000   6.480  10.374 -0.0640  2.1317  0.6676
  864MOL0     H14000   1.945   6.504  10.533  0.6246  0.2822  0.6518
  864MOL0     H14001   1.766   6.266  10.599  2.3563  1.4984 -0.3501
  864MOL0     H14002   1.429   6.374  10.545  0.1084  0.1888 -0.6751
  864MOL0     H14003   1.502   6.243  10.631 -2.2282  3.3511  2.0618
  864MOL0     H14004   1.471   6.091  10.426  1.4796  0.4487  0.6981
  864MOL0     H14005   1.379   6.217  10.350  0.2119  1.8467  0.1328
  864MOL0     H14006   1.235   6.040  10.454 -0.9500 -0.2390 -0.7728
  864MOL0     H14007   1.309   6.082  10.613 -0.3094 -1.6720 -1.0953
  864MOL0     H14008   1.127   6.267  10.448  1.8139 -0.3136 -0.5296
  864MOL0     H14009   1.198   6.316  10.590 -3.5058  1.7269  0.1007
  864MOL0     H14010   0.904   6.064  10.775 -0.7020 -0.1344  0.1501
  864MOL0     H14011   0.693   5.922  10.720  1.9661  0.0528  1.2347
  864MOL0     H14012   0.376   5.660  10.448 -2.1468 -1.8343 -0.4666
  864MOL0     H14013   0.213   5.550  10.284 -1.0011 -1.3080 -0.6864
  864MOL0     H14014   0.164   5.549   9.873  0.0765  0.5341 -0.6225
  864MOL0     H14015   0.328   5.615   9.875  0.8077 -2.6368 -0.0915
  864MOL0     H14016   0.165   5.806   9.916  0.2714  2.7996  2.8314
  864MOL0     H14017   0.192   5.770  10.074  1.5587 -1.2126  0.2658
  864MOL0     H14018  -0.055   5.763  10.077 -2.5121 -2.9382  1.3152
  864MOL0     H14019  -0.022   5.602  10.065  2.0759 -1.7802 -1.7872
  864MOL0     H14020  -0.065   5.780   9.821  1.7988  1.5361  1.2058
  864MOL0     H14021  -0.034   5.613   9.805 -3.2432  0.1532 -2.8142
  864MOL0     H14022  -0.262   5.669   9.996  2.1144 -2.1849  1.0196
  864MOL0     H14023  -0.225   5.531   9.907  1.3604 -0.2192  2.5081
  864MOL0     H14024  -0.266   5.685   9.688  0.2524 -1.1460  0.2513
  864MOL0     H14025  -0.335   5.798   9.805 -2.8447 -0.3920 -0.6471
  864MOL0     H14026  -0.438   5.521   9.733  1.7554  0.4801  0.1233
  864MOL0     H14027  -0.511   5.601   9.866 -1.3358  0.7409 -0.6664
  864MOL0     H14028  -0.499   5.676   9.569 -1.9162  1.4371 -1.0921
  864MOL0     H14029  -0.541   5.803   9.687 -0.4337  0.1683 -0.1430
  864MOL0     H14030   0.537   5.586   9.988  2.2305  1.3769  0.5216
  864MOL0     H14031   0.691   5.671  10.149  0.0862 -2.4838  0.1485
  864MOL0     H14032   0.836   5.913  10.305  0.9171  2.9756 -1.2154
  864MOL0     H14033   1.020   6.056  10.354 -3.7466  1.2012 -3.2312
  864MOL0     H14034   2.669   5.767  10.769  0.5320  1.3396  1.2799
  864MOL0     H14035   2.814   5.566  10.816  1.9822 -0.2766  0.3662
  864MOL0     H14036   3.102   5.342  10.914 -0.0638  0.5844 -1.3946
  864MOL0     H14037   3.234   5.125  10.970  1.2375 -0.2968  1.7612
  864MOL0     H14038   3.378   5.023  11.137  1.3455  0.0811  2.1509
  864MOL0     H14039   3.489   5.142  11.184 -2.6118  0.2681 -0.4758
  864MOL0     H14040   3.689   5.008  11.110 -0.7953  1.6764  0.3723
  864MOL0     H14041   3.600   4.931  11.245  3.3645 -1.8200 -0.3972
  864MOL0     H14042   3.558   4.877  10.958  1.7498  1.2065  0.4436
  864MOL0     H14043   3.477   4.797  11.097 -0.6676  0.5379 -1.5537
  864MOL0     H14044   3.658   4.635  11.024  2.7023 -0.6389  0.2431
  864MOL0     H14045   3.765   4.778  11.017 -1.0196  1.8323 -2.0568
  864MOL0     H14046   3.812   4.681  11.421 -2.9125  1.4970  1.6738
  864MOL0     H14047   3.598   5.353  10.957  0.0829  1.8007  4.0547
  864MOL0     H14048   3.468   5.555  10.915  0.2982  0.4494 -0.8510
  865MOL0     O14049   9.475   2.216   1.774  1.0158 -1.0712 -0.6878
  865MOL0     C14050   9.435   2.118   1.716  0.3481 -0.2329  0.1167
  865MOL0     O14051   9.310   2.091   1.676  0.2220  0.3322  0.0931
  865MOL0     C14052   9.211   2.186   1.692  1.0616 -0.5646 -0.1093
  865MOL0     C14053   9.119   2.213   1.596  0.5172 -0.0724 -0.2727
  865MOL0     C14054   9.006   2.304   1.605 -0.2316 -0.0972 -1.3060
  865MOL0     C14055   8.996   2.372   1.732 -0.6745 -0.2133 -0.2770
  865MOL0     O14056   8.889   2.458   1.768 -0.2388 -0.0101 -0.7555
  865MOL0     C14057   8.824   2.536   1.667 -0.5613  0.2976  1.0096
  865MOL0     C14058   8.689   2.575   1.723 -0.8066  0.4736 -0.0938
  865MOL0     C14059   8.598   2.454   1.744 -0.8157  0.3694 -0.0786
  865MOL0     C14060   8.460   2.488   1.787 -0.1470 -1.1213 -0.6821
  865MOL0     C14061   8.452   2.569   1.921  0.2755  0.0427 -0.8730
  865MOL0     C14062   8.303   2.587   1.959 -0.1420  0.5074  0.2217
  865MOL0     C14063   8.291   2.676   2.082  0.2778 -0.0674 -0.6375
  865MOL0     C14064   8.152   2.707   2.127  0.6185 -0.0828  0.4151
  865MOL0     N14065   8.077   2.792   2.038  0.4759 -0.2645 -0.7438
  865MOL0     C14066   7.942   2.787   2.030 -0.4797  0.0326 -0.4739
  865MOL0     C14067   7.911   2.875   1.931 -0.2367 -0.9845  0.0019
  865MOL0     C14068   7.770   2.918   1.882  0.3699 -0.2405 -0.0041
  865MOL0     C14069   7.761   2.931   1.739  0.0115  1.0022 -0.0277
  865MOL0     C14070   7.623   2.958   1.683  0.5184  0.1382 -0.3309
  865MOL0     C14071   7.595   3.110   1.706 -0.2699 -0.2481 -0.1627
  865MOL0     O14072   7.477   3.149   1.634 -0.4116 -0.4245  0.5652
  865MOL0     C14073   7.361   3.153   1.703 -0.7120  0.9267  0.3584
  865MOL0     C14074   7.271   3.229   1.633 -0.3231 -0.3450 -0.3833
  865MOL0     C14075   7.142   3.247   1.689  0.9359  0.4634 -0.5401
  865MOL0     C14076   7.104   3.191   1.808  0.0967  0.6484  0.6829
  865MOL0     C14077   6.967   3.195   1.855  0.8911  0.3410 -0.2174
  865MOL0     O14078   6.878   3.259   1.772 -0.2537  0.5498  0.1229
  865MOL0     C14079   6.743   3.263   1.815  0.3142  0.0748  0.0393
  865MOL0     C14080   6.659   3.151   1.830 -0.2489 -0.3069  0.6328
  865MOL0     C14081   6.529   3.173   1.874  0.5235 -0.1469  0.3198
  865MOL0     C14082   6.478   3.299   1.911 -0.4196 -1.1875 -0.6272
  865MOL0     O14083   6.355   3.326   1.959 -0.0690 -0.5415  0.1445
  865MOL0     C14084   6.274   3.226   2.028  0.6931 -1.2599 -0.5414
  865MOL0     C14085   6.154   3.299   2.086  0.3471 -0.1429  0.6941
  865MOL0     C14086   6.068   3.364   1.982 -0.5764  0.5370  0.1784
  865MOL0     C14087   5.967   3.459   2.054 -0.0186 -0.4122  0.0943
  865MOL0     C14088   5.844   3.481   1.971 -1.0727 -0.3797  0.1008
  865MOL0     C14089   5.773   3.611   2.021 -0.9143 -0.4514 -0.2477
  865MOL0     C14090   5.638   3.631   1.955  0.3492 -0.1946  0.2733
  865MOL0     C14091   5.569   3.756   1.998  0.0031 -0.0101 -0.2208
  865MOL0    Cl14092   5.573   3.788   2.174 -0.3638 -0.1181 -0.0421
  865MOL0     C14093   6.565   3.410   1.888  0.1462  0.5457 -0.1293
  865MOL0     C14094   6.692   3.383   1.832  0.1271  0.0074 -0.4415
  865MOL0     O14095   6.933   3.138   1.958  0.0777 -0.4355 -0.4474
  865MOL0     C14096   7.198   3.105   1.870 -0.0612  0.0742 -0.4364
  865MOL0     C14097   7.329   3.086   1.821  0.9410 -0.4102 -0.1869
  865MOL0     N14098   8.030   2.928   1.892  0.0304 -0.5075  0.3482
  865MOL0     N14099   8.127   2.875   1.947  0.5261 -0.2305 -0.4659
  865MOL0     C14100   9.093   2.348   1.834 -1.1634 -0.5782 -0.1102
  865MOL0     C14101   9.192   2.251   1.817  0.4335 -0.6056  0.3283
  865MOL0     C14102   9.534   2.014   1.694 -0.3632  0.0592  0.4523
  865MOL0     C14103   9.528   1.937   1.572  1.5111  0.7088 -0.2759
  865MOL0     C14104   9.627   1.848   1.541 -0.3333  0.1949 -0.5627
  865MOL0     C14105   9.727   1.812   1.634  0.7632 -0.4433  0.1646
  865MOL0     O14106   9.820   1.712   1.611 -0.3144 -1.1736 -0.1464
  865MOL0     C14107   9.816   1.646   1.484  0.3116  0.2590 -0.0253
  865MOL0     C14108   9.939   1.575   1.446 -0.1243  0.0458 -0.8247
  865MOL0     C14109   9.987   1.469   1.546  0.6136  0.2338  0.1884
  865MOL0     C14110  10.110   1.390   1.497  0.6581  0.0859 -0.7293
  865MOL0     C14111  10.139   1.275   1.590 -0.3669 -0.0347 -0.1831
  865MOL0     C14112  10.159   1.196   1.670  0.0832 -1.1891  0.0074
  865MOL0     C14113   9.739   1.887   1.749  0.6506  0.0326  0.5145
  865MOL0     C14114   9.646   1.989   1.781  0.7285  0.6869 -0.2762
  865MOL0     H14115   9.117   2.146   1.511 -0.7895  0.7988 -0.9771
  865MOL0     H14116   8.945   2.313   1.516 -0.3621  3.5409 -0.9927
  865MOL0     H14117   8.815   2.486   1.570  3.4511 -2.9374  2.0234
  865MOL0     H14118   8.882   2.629   1.658 -0.0189 -0.1612 -0.6262
  865MOL0     H14119   8.642   2.650   1.659 -0.0042  1.4723  0.4393
  865MOL0     H14120   8.700   2.628   1.819 -0.0773 -1.2963  0.8598
  865MOL0     H14121   8.634   2.380   1.817 -1.5177 -0.8784 -0.9725
  865MOL0     H14122   8.591   2.410   1.645  0.6838 -1.9520  0.7694
  865MOL0     H14123   8.410   2.552   1.713 -1.9757 -0.9783  0.6110
  865MOL0     H14124   8.397   2.399   1.795 -0.8437 -0.5539  0.3581
  865MOL0     H14125   8.495   2.667   1.898  2.4170 -0.0143  2.3587
  865MOL0     H14126   8.510   2.527   2.004  2.9287  1.0923 -2.0523
  865MOL0     H14127   8.261   2.489   1.982 -0.2320  1.3247  4.1944
  865MOL0     H14128   8.250   2.630   1.874 -3.0062 -0.7636  1.2419
  865MOL0     H14129   8.345   2.638   2.169  0.8749  3.1457  0.5314
  865MOL0     H14130   8.352   2.767   2.073  1.7261 -0.7109  1.7542
  865MOL0     H14131   8.157   2.754   2.226  1.1939  2.2030 -0.6520
  865MOL0     H14132   8.102   2.610   2.134  0.5241 -0.0235  0.5688
  865MOL0     H14133   7.872   2.732   2.093 -1.9760  2.1637 -0.1266
  865MOL0     H14134   7.730   3.006   1.933  3.4224  0.7393  0.9024
  865MOL0     H14135   7.715   2.833   1.923  2.8338 -0.5516  3.0798
  865MOL0     H14136   7.789   2.841   1.685  0.1477  0.3933  1.0252
  865MOL0     H14137   7.824   3.011   1.699  1.9685  0.1250  1.1386
  865MOL0     H14138   7.614   2.936   1.576 -2.3794  0.3063 -0.2206
  865MOL0     H14139   7.550   2.892   1.732  0.7694  0.2425  0.1909
  865MOL0     H14140   7.683   3.160   1.663 -0.1090 -2.5294 -2.8299
  865MOL0     H14141   7.584   3.143   1.809  1.5843  2.4809 -0.7362
  865MOL0     H14142   7.301   3.264   1.534  2.5297  0.3928  0.6429
  865MOL0     H14143   7.073   3.307   1.631 -1.2384 -3.6903 -2.7273
  865MOL0     H14144   6.707   3.054   1.823  1.0060  0.3888 -1.1717
  865MOL0     H14145   6.456   3.093   1.885 -0.2270  0.1955 -1.7301
  865MOL0     H14146   6.335   3.179   2.105  2.0991 -0.3094 -1.0389
  865MOL0     H14147   6.241   3.147   1.959  1.5881 -3.5865  1.5357
  865MOL0     H14148   6.187   3.379   2.153 -0.4638  0.8509 -0.0518
  865MOL0     H14149   6.092   3.228   2.142 -0.1741 -0.0327  0.2742
  865MOL0     H14150   6.007   3.284   1.940  0.4063  0.7388 -1.7149
  865MOL0     H14151   6.128   3.416   1.907 -2.3709  3.1291  0.4154
  865MOL0     H14152   5.933   3.412   2.147  0.8013 -0.9102  0.1537
  865MOL0     H14153   6.006   3.559   2.076 -0.2295 -0.6066  1.4577
  865MOL0     H14154   5.769   3.401   1.973 -1.4115 -0.0593  1.5041
  865MOL0     H14155   5.878   3.485   1.867  3.7542 -2.1977  1.3368
  865MOL0     H14156   5.825   3.701   1.984 -1.3529 -0.3677 -0.6674
  865MOL0     H14157   5.760   3.595   2.128 -0.7096 -0.7190 -0.2631
  865MOL0     H14158   5.654   3.631   1.846  2.5358 -1.8998  0.5296
  865MOL0     H14159   5.576   3.546   1.985 -2.0666  1.8772  1.5466
  865MOL0     H14160   5.467   3.743   1.961 -0.4057  0.3159  0.7549
  865MOL0     H14161   5.604   3.849   1.952  1.9816  1.1801  3.2327
  865MOL0     H14162   6.526   3.510   1.902 -1.1560 -0.0477  0.6842
  865MOL0     H14163   6.757   3.468   1.812  2.3012 -1.7938 -1.3999
  865MOL0     H14164   7.170   3.049   1.958 -0.8507 -1.3392 -1.5404
  865MOL0     H14165   7.399   3.020   1.870 -0.1249 -0.2583  1.6416
  865MOL0     H14166   9.086   2.417   1.917  1.1714  0.4088 -0.6670
  865MOL0     H14167   9.258   2.230   1.901  0.9288 -1.2000 -0.1941
  865MOL0     H14168   9.458   1.961   1.493  1.4795  1.6268  0.0211
  865MOL0     H14169   9.622   1.795   1.446 -0.1221 -0.7202 -0.0729
  865MOL0     H14170   9.797   1.718   1.404  1.6205  0.5645 -0.0771
  865MOL0     H14171   9.734   1.573   1.485 -0.5521  1.2006  1.7775
  865MOL0     H14172   9.938   1.535   1.345  1.0055  2.4177 -1.8563
  865MOL0     H14173  10.022   1.647   1.446  1.4561 -1.6684  0.9237
  865MOL0     H14174   9.904   1.398   1.562 -0.4630  1.4091 -0.0145
  865MOL0     H14175  10.015   1.527   1.635  3.5653  2.4695 -2.0239
  865MOL0     H14176  10.087   1.343   1.401 -1.7711 -0.2200 -0.0589
  865MOL0     H14177  10.199   1.453   1.492  1.3433 -0.1575  3.8790
  865MOL0     H14178  10.177   1.119   1.742  1.0152 -1.0372 -0.0518
  865MOL0     H14179   9.828   1.862   1.806  1.5036 -0.2893 -0.9275
  865MOL0     H14180   9.656   2.041   1.875 -2.3969  0.5057  0.2654
  866MOL0     O14181   8.714   1.925   2.557 -0.5314  0.1735  0.8858
  866MOL0     C14182   8.753   1.946   2.667  0.4961 -1.0619  0.5818
  866MOL0     O14183   8.676   1.983   2.771  0.3853  0.8571  0.4023
  866MOL0     C14184   8.545   1.984   2.746 -0.3020  0.2445  1.0823
  866MOL0     C14185   8.487   2.105   2.690 -0.1429  0.5879  0.7763
  866MOL0     C14186   8.347   2.112   2.651  0.2325 -0.3176  0.0470
  866MOL0     C14187   8.276   1.994   2.660  0.5563 -0.5484 -0.4965
  866MOL0     O14188   8.140   1.988   2.642 -0.0803  0.2199 -0.8111
  866MOL0     C14189   8.073   2.112   2.601  0.4159 -0.0500 -0.7196
  866MOL0     C14190   7.918   2.102   2.607 -0.1740 -0.1115  0.5185
  866MOL0     C14191   7.840   2.209   2.528  0.9601  0.1530  0.7348
  866MOL0     C14192   7.694   2.173   2.538  0.3370  0.2138 -0.0223
  866MOL0     C14193   7.609   2.257   2.440  0.5339  0.0546 -0.7301
  866MOL0     C14194   7.461   2.205   2.450 -0.1674  0.2671 -0.0675
  866MOL0     C14195   7.353   2.282   2.370 -0.3841  0.0171  0.5187
  866MOL0     C14196   7.397   2.310   2.228 -0.1659  0.3346 -0.4945
  866MOL0     N14197   7.413   2.179   2.157 -0.1831  0.5639 -0.3038
  866MOL0     C14198   7.530   2.118   2.108  0.2240 -0.3453 -0.7047
  866MOL0     C14199   7.479   2.000   2.055 -0.4714  0.3311 -0.2514
  866MOL0     C14200   7.552   1.884   1.982  1.2317 -0.5733 -0.5727
  866MOL0     C14201   7.614   1.923   1.845  0.6398 -0.2723  0.2823
  866MOL0     C14202   7.518   1.970   1.729  0.0464 -0.1210  0.3629
  866MOL0     C14203   7.460   1.851   1.645 -0.1693  0.2588 -0.9726
  866MOL0     O14204   7.405   1.746   1.722 -0.1493  0.1363 -0.3542
  866MOL0     C14205   7.271   1.725   1.720 -0.8841  0.1496  0.2228
  866MOL0     C14206   7.199   1.743   1.838 -0.0760  0.8998  0.6947
  866MOL0     C14207   7.064   1.721   1.843  0.5296  0.2609  0.5861
  866MOL0     C14208   6.990   1.664   1.742 -0.1978 -0.5406  0.2753
  866MOL0     C14209   6.843   1.658   1.749 -0.4954 -0.1677  0.2925
  866MOL0     O14210   6.777   1.630   1.625 -0.1698 -0.1220 -0.0579
  866MOL0     C14211   6.644   1.640   1.605 -0.0393  0.1853 -0.6922
  866MOL0     C14212   6.587   1.724   1.498  0.1026  0.2528 -0.3624
  866MOL0     C14213   6.453   1.742   1.483 -0.1874 -0.3811  0.1560
  866MOL0     C14214   6.365   1.682   1.566  0.0168  0.7261  0.8318
  866MOL0     O14215   6.233   1.719   1.563 -0.2360  0.3314 -0.8973
  866MOL0     C14216   6.198   1.793   1.680 -0.1183  0.4466  0.4164
  866MOL0     C14217   6.046   1.816   1.664 -0.9385 -0.6031 -0.2852
  866MOL0     C14218   5.968   1.688   1.672 -0.2915  0.4130 -0.0446
  866MOL0     C14219   5.824   1.720   1.668  0.6800 -0.2394  0.4379
  866MOL0     C14220   5.755   1.589   1.648  0.0992 -0.9723 -0.5782
  866MOL0     C14221   5.607   1.600   1.647  0.6818 -1.2106  0.3575
  866MOL0     C14222   5.550   1.642   1.513 -0.0179  0.8131 -0.3153
  866MOL0     C14223   5.390   1.636   1.508  0.4924 -0.1248 -0.0081
  866MOL0    Cl14224   5.341   1.730   1.372  0.0642 -0.3650 -0.0598
  866MOL0     C14225   6.410   1.585   1.667 -0.2704  0.0039  0.3815
  866MOL0     C14226   6.552   1.565   1.678  0.5089 -0.7374 -0.1027
  866MOL0     O14227   6.783   1.693   1.855 -1.0121  0.5957 -0.2969
  866MOL0     C14228   7.066   1.637   1.627 -0.0318  0.2313 -0.4843
  866MOL0     C14229   7.204   1.662   1.611 -0.2394 -0.8215 -0.3742
  866MOL0     N14230   7.349   2.002   2.070  0.2099  0.3279  0.3578
  866MOL0     N14231   7.311   2.108   2.120 -0.2555 -0.0214 -0.2185
  866MOL0     C14232   8.329   1.880   2.715 -0.7500  0.2850  0.0521
  866MOL0     C14233   8.458   1.874   2.760 -0.0218 -0.2982 -0.5488
  866MOL0     C14234   8.896   1.941   2.685 -0.5435 -0.0240  1.6470
  866MOL0     C14235   8.961   1.989   2.797  0.1541  0.3884  0.0903
  866MOL0     C14236   9.098   1.994   2.817  0.0909 -0.0064  0.6121
  866MOL0     C14237   9.180   1.938   2.723 -0.3816 -0.0294  0.9999
  866MOL0     O14238   9.310   1.928   2.754  0.1920  0.2447 -0.7458
  866MOL0     C14239   9.404   1.857   2.666 -0.0792 -0.0695  1.1379
  866MOL0     C14240   9.538   1.818   2.741  0.5260  0.3451  0.0437
  866MOL0     C14241   9.637   1.775   2.632  0.1816 -0.6609  1.0396
  866MOL0     C14242   9.783   1.758   2.688  1.2871  0.6867  0.2657
  866MOL0     C14243   9.872   1.688   2.595 -0.3446 -0.3450  0.5639
  866MOL0     C14244   9.958   1.643   2.523 -0.0368  0.2003 -0.7188
  866MOL0     C14245   9.124   1.907   2.597 -0.1833  0.4358 -1.0353
  866MOL0     C14246   8.984   1.897   2.582 -0.8338 -0.4637  0.6930
  866MOL0     H14247   8.550   2.192   2.677  0.2324  0.5626  2.2503
  866MOL0     H14248   8.312   2.210   2.621  2.5948  0.1181 -1.5426
  866MOL0     H14249   8.096   2.152   2.502  2.1616  2.4843  0.5754
  866MOL0     H14250   8.081   2.196   2.671 -2.5678  1.5951 -2.1369
  866MOL0     H14251   7.887   2.094   2.712 -0.5251 -1.0334  0.3540
  866MOL0     H14252   7.891   2.002   2.574 -2.1440  0.7454 -0.5943
  866MOL0     H14253   7.860   2.216   2.420  1.1002  0.4025  0.7763
  866MOL0     H14254   7.867   2.309   2.565  0.6447  0.3609  0.4097
  866MOL0     H14255   7.683   2.069   2.504 -0.5817  0.3701 -0.2325
  866MOL0     H14256   7.660   2.179   2.642 -1.8636 -1.7813 -0.5315
  866MOL0     H14257   7.644   2.239   2.338  1.8408  1.9808 -0.6704
  866MOL0     H14258   7.612   2.364   2.459  1.0199 -0.3542  1.9202
  866MOL0     H14259   7.445   2.228   2.555  0.7701 -0.3652  0.2245
  866MOL0     H14260   7.444   2.100   2.424 -0.9489  0.1572  0.8229
  866MOL0     H14261   7.265   2.217   2.371 -0.1245 -0.3413  1.0539
  866MOL0     H14262   7.334   2.372   2.429  3.7754  0.9862  0.6550
  866MOL0     H14263   7.497   2.353   2.236  1.4010 -3.2805  1.7580
  866MOL0     H14264   7.318   2.371   2.184 -0.3013  0.8739  0.4685
  866MOL0     H14265   7.635   2.138   2.121  0.3688 -1.7459  0.5814
  866MOL0     H14266   7.480   1.802   1.975  0.4240 -0.1036  1.5488
  866MOL0     H14267   7.632   1.845   2.046  0.7799  1.0897  1.0996
  866MOL0     H14268   7.675   1.841   1.806  0.7699 -0.3092  0.5635
  866MOL0     H14269   7.682   2.007   1.861  0.5619  0.0191 -0.8656
  866MOL0     H14270   7.430   2.016   1.776 -0.2064 -1.8063  1.6147
  866MOL0     H14271   7.572   2.029   1.655 -1.7263  0.3345 -0.6287
  866MOL0     H14272   7.543   1.814   1.584  0.4413 -1.3452  0.7778
  866MOL0     H14273   7.383   1.895   1.581  0.1630  0.4668 -1.2376
  866MOL0     H14274   7.248   1.775   1.929  1.6887 -0.6772  0.3542
  866MOL0     H14275   7.009   1.758   1.929  5.0312 -1.6977  4.7960
  866MOL0     H14276   6.648   1.793   1.440 -1.3213  1.9949  0.1139
  866MOL0     H14277   6.409   1.801   1.404 -0.9167 -1.1931 -0.0650
  866MOL0     H14278   6.244   1.891   1.663 -0.8971  1.0571  1.6974
  866MOL0     H14279   6.222   1.754   1.779  3.6819 -2.0939 -1.2596
  866MOL0     H14280   6.026   1.871   1.572 -1.0737 -0.2027 -0.0205
  866MOL0     H14281   6.014   1.888   1.740 -2.0809 -2.9225  1.5974
  866MOL0     H14282   6.004   1.640   1.764 -1.4211  1.4622  0.9936
  866MOL0     H14283   6.000   1.621   1.592 -0.3921 -1.6249  1.5508
  866MOL0     H14284   5.801   1.776   1.759  0.9235  0.1982  0.2336
  866MOL0     H14285   5.797   1.782   1.582 -2.7121  0.4476  1.8326
  866MOL0     H14286   5.775   1.532   1.740 -6.2722 -0.5259  1.6284
  866MOL0     H14287   5.798   1.542   1.559 -0.5345 -0.9905 -0.8778
  866MOL0     H14288   5.577   1.685   1.708  1.8951  0.5462 -1.3780
  866MOL0     H14289   5.562   1.510   1.690  0.6904 -0.5326  1.8627
  866MOL0     H14290   5.581   1.745   1.493  0.9259  0.3059 -1.6111
  866MOL0     H14291   5.593   1.588   1.428 -2.9267  0.0757 -1.4446
  866MOL0     H14292   5.351   1.683   1.599  0.5717 -2.9772  1.5942
  866MOL0     H14293   5.357   1.532   1.504  0.0496 -0.0190  0.7879
  866MOL0     H14294   6.339   1.531   1.728 -0.4215 -1.1173 -0.7276
  866MOL0     H14295   6.583   1.484   1.743 -1.1910 -2.4795 -1.3716
  866MOL0     H14296   7.022   1.595   1.537  2.9056  1.9808 -2.9764
  866MOL0     H14297   7.270   1.630   1.531  0.7165  1.9078 -0.8062
  866MOL0     H14298   8.270   1.789   2.715  0.7371 -0.7189 -0.6515
  866MOL0     H14299   8.488   1.780   2.806 -0.2919  0.2918  0.9016
  866MOL0     H14300   8.890   2.036   2.864 -2.3578  1.9163 -3.3560
  866MOL0     H14301   9.126   2.023   2.918 -0.7336 -1.3417  1.2640
  866MOL0     H14302   9.427   1.923   2.582  0.5526 -0.5496  0.9205
  866MOL0     H14303   9.357   1.771   2.617  3.0875 -0.0636 -2.4283
  866MOL0     H14304   9.582   1.907   2.788  1.7092  0.4524 -1.1788
  866MOL0     H14305   9.514   1.742   2.816  1.2916 -1.2303 -1.2419
  866MOL0     H14306   9.640   1.837   2.543 -2.1334 -2.7942 -0.6594
  866MOL0     H14307   9.597   1.678   2.600 -2.1960  0.0474  1.6663
  866MOL0     H14308   9.834   1.855   2.695  0.9398  0.9293 -0.4526
  866MOL0     H14309   9.772   1.700   2.780 -3.8153  0.2149 -0.3263
  866MOL0     H14310  10.029   1.602   2.454 -0.3967 -0.4337 -0.7172
  866MOL0     H14311   9.190   1.875   2.517 -0.9104  1.7676 -2.2140
  866MOL0     H14312   8.942   1.866   2.487  2.0381 -1.4382 -0.3642
  867MOL0     O14313   4.922   6.071   1.748  0.2592  0.9534  0.0057
  867MOL0     C14314   4.896   5.988   1.662  1.1078  0.3023  0.1810
  867MOL0     O14315   4.773   5.967   1.603 -0.2027  0.6592 -0.0295
  867MOL0     C14316   4.659   6.023   1.642  0.9565 -1.0789  0.5804
  867MOL0     C14317   4.630   6.099   1.766  0.5434 -0.3777  0.9758
  867MOL0     C14318   4.502   6.156   1.784  0.0640 -0.0114 -0.4819
  867MOL0     C14319   4.402   6.149   1.685 -0.2708 -0.3152  0.2490
  867MOL0     O14320   4.287   6.222   1.725  0.1901  0.5618  0.4733
  867MOL0     C14321   4.184   6.265   1.634  0.0912 -0.5683  0.2999
  867MOL0     C14322   4.065   6.177   1.653  0.3686  0.4284 -0.1176
  867MOL0     C14323   3.940   6.233   1.582 -0.1379 -0.5245 -0.6139
  867MOL0     C14324   3.809   6.154   1.619  0.5950  0.7453  0.2909
  867MOL0     C14325   3.676   6.214   1.573  0.3008 -0.7672 -0.2893
  867MOL0     C14326   3.571   6.100   1.578  0.9347  0.1735  0.0815
  867MOL0     C14327   3.424   6.141   1.596 -0.0969  0.9511  0.4136
  867MOL0     C14328   3.322   6.031   1.566  0.2413  0.1811  0.6816
  867MOL0     N14329   3.192   6.093   1.593  0.6800 -0.4239  0.3191
  867MOL0     C14330   3.119   6.069   1.707  0.2474  0.5819 -0.2840
  867MOL0     C14331   3.005   6.151   1.702  0.4531  0.1414 -0.0805
  867MOL0     C14332   2.886   6.161   1.795 -0.4730 -0.7888  1.2604
  867MOL0     C14333   2.816   6.031   1.815 -0.0306 -0.5286 -0.5317
  867MOL0     C14334   2.682   6.047   1.899 -0.5086 -0.0962  1.8475
  867MOL0     C14335   2.621   5.911   1.909 -0.2318  0.3133 -1.1494
  867MOL0     O14336   2.582   5.858   1.779  0.5252 -0.2412 -0.0406
  867MOL0     C14337   2.467   5.890   1.723  0.7678 -0.2415  0.3340
  867MOL0     C14338   2.429   5.807   1.619 -0.1311  0.2429  0.4946
  867MOL0     C14339   2.305   5.838   1.552  0.4111  0.3644  0.7173
  867MOL0     C14340   2.223   5.944   1.588  0.0903  0.2273  0.0103
  867MOL0     C14341   2.086   5.975   1.540  0.4242  0.2705  0.2371
  867MOL0     O14342   2.031   6.095   1.573  0.8499 -0.0318 -0.4947
  867MOL0     C14343   1.899   6.108   1.530  0.0473 -0.1780 -0.2763
  867MOL0     C14344   1.791   6.012   1.551 -0.7252 -0.1157 -0.1831
  867MOL0     C14345   1.662   6.040   1.530  0.5111  0.2636  0.1605
  867MOL0     C14346   1.619   6.159   1.477 -0.2487 -0.5964  0.9527
  867MOL0     O14347   1.485   6.185   1.440 -0.1469 -0.6619  0.4570
  867MOL0     C14348   1.385   6.078   1.436 -0.6410  0.5988 -0.2620
  867MOL0     C14349   1.267   6.121   1.336  0.0027  0.1471 -0.4603
  867MOL0     C14350   1.220   6.266   1.341  0.0427  1.1799 -0.1126
  867MOL0     C14351   1.094   6.282   1.254 -0.6126  0.6482 -0.6949
  867MOL0     C14352   1.057   6.430   1.238  0.7212  0.4664 -0.6561
  867MOL0     C14353   0.937   6.462   1.151  0.4206 -0.3191  0.4213
  867MOL0     C14354   0.948   6.403   1.017  0.6386  0.2383 -0.3014
  867MOL0     C14355   0.818   6.433   0.943 -0.2097 -0.4041 -0.9202
  867MOL0    Cl14356   0.816   6.620   0.904 -0.8245 -0.1588 -0.6627
  867MOL0     C14357   1.717   6.258   1.447 -0.1571  0.2736  0.5877
  867MOL0     C14358   1.859   6.230   1.468  0.0119 -0.3237 -0.0318
  867MOL0     O14359   2.026   5.884   1.481 -1.0456 -0.2118 -0.3450
  867MOL0     C14360   2.269   6.021   1.693 -0.1312  0.0459  1.2143
  867MOL0     C14361   2.384   5.997   1.762 -0.8925  0.0025 -0.6581
  867MOL0     N14362   3.020   6.226   1.590  0.1964 -0.1975 -0.2479
  867MOL0     N14363   3.139   6.202   1.535  0.0319  0.4538 -0.0708
  867MOL0     C14364   4.424   6.073   1.575 -0.6439  0.7616 -0.0125
  867MOL0     C14365   4.549   6.018   1.546  0.7520 -0.4628 -0.6137
  867MOL0     C14366   5.015   5.910   1.618  0.2173  0.5760  0.1444
  867MOL0     C14367   5.138   5.910   1.685 -0.1347  0.0970 -0.2997
  867MOL0     C14368   5.244   5.833   1.632  0.2055 -0.3918  0.7260
  867MOL0     C14369   5.224   5.755   1.516 -1.0222 -0.4224  0.9239
  867MOL0     O14370   5.330   5.682   1.471 -0.2709 -0.2681 -0.2905
  867MOL0     C14371   5.434   5.760   1.414  0.2858  0.8286  0.7558
  867MOL0     C14372   5.555   5.683   1.384 -0.2984 -0.0939 -0.0636
  867MOL0     C14373   5.681   5.754   1.315  0.0030 -0.6313 -0.3721
  867MOL0     C14374   5.631   5.848   1.199  0.3768 -0.9287  0.6390
  867MOL0     C14375   5.742   5.869   1.105  0.5119 -0.7280 -0.0956
  867MOL0     C14376   5.828   5.914   1.025  0.1364  0.5337 -0.0531
  867MOL0     C14377   5.103   5.744   1.454 -0.5543 -0.3820 -0.0429
  867MOL0     C14378   4.999   5.824   1.508  0.1077 -0.6747 -0.1795
  867MOL0     H14379   4.704   6.119   1.844  1.6677 -1.5439  0.2538
  867MOL0     H14380   4.491   6.213   1.876  2.1433 -1.0816  0.5010
  867MOL0     H14381   4.225   6.257   1.533 -1.4165  1.3716 -0.5242
  867MOL0     H14382   4.165   6.371   1.653  1.3468  0.0285 -1.5012
  867MOL0     H14383   4.033   6.159   1.756  0.5196 -1.6362 -0.3856
  867MOL0     H14384   4.079   6.073   1.620 -3.1650 -1.0579  2.3625
  867MOL0     H14385   3.952   6.246   1.475  3.0043  4.0025  0.0206
  867MOL0     H14386   3.920   6.338   1.605 -1.8742 -1.1958  1.2801
  867MOL0     H14387   3.824   6.055   1.575 -1.8581  1.1071 -1.5322
  867MOL0     H14388   3.805   6.129   1.725  1.9713 -2.6140 -0.3075
  867MOL0     H14389   3.689   6.255   1.472  4.2548 -0.2257  0.2472
  867MOL0     H14390   3.668   6.291   1.650  0.8988 -0.4270 -0.5554
  867MOL0     H14391   3.596   6.021   1.651 -3.8339  1.1464  3.2053
  867MOL0     H14392   3.577   6.050   1.481 -0.9930  1.9598 -1.0244
  867MOL0     H14393   3.409   6.184   1.696 -2.2851  1.6075 -0.1395
  867MOL0     H14394   3.405   6.222   1.525  1.1800  0.9562  0.0460
  867MOL0     H14395   3.336   5.940   1.624  0.7814  1.0476  1.9643
  867MOL0     H14396   3.330   6.011   1.459  0.5495 -0.8475  0.8885
  867MOL0     H14397   3.132   5.983   1.772 -2.0152  0.0596 -0.4322
  867MOL0     H14398   2.820   6.234   1.747  0.2702  1.1907  3.1125
  867MOL0     H14399   2.921   6.201   1.890 -0.9922  1.4646  0.5646
  867MOL0     H14400   2.874   5.954   1.868  0.2308  1.7832  2.8496
  867MOL0     H14401   2.808   5.984   1.716  0.4555 -0.3985 -0.6357
  867MOL0     H14402   2.691   6.093   1.998 -3.6672  1.9729  1.3116
  867MOL0     H14403   2.612   6.111   1.844  0.7372 -0.8574 -0.7638
  867MOL0     H14404   2.541   5.910   1.983  0.3773 -1.7184 -0.4346
  867MOL0     H14405   2.700   5.850   1.955 -0.4354  0.6559 -0.3448
  867MOL0     H14406   2.490   5.723   1.587 -0.8916 -0.5761  1.1522
  867MOL0     H14407   2.265   5.770   1.478 -0.3871  0.6148  0.9088
  867MOL0     H14408   1.825   5.924   1.605  2.0415  0.2429 -1.1766
  867MOL0     H14409   1.586   5.967   1.553 -2.5689  3.2031  0.1021
  867MOL0     H14410   1.344   6.057   1.535  0.5969  0.3524  0.2171
  867MOL0     H14411   1.427   5.986   1.393  0.5100 -0.1720  2.3249
  867MOL0     H14412   1.183   6.051   1.344 -0.3064  0.7175  3.4593
  867MOL0     H14413   1.300   6.120   1.232  0.6703  3.2224 -0.3592
  867MOL0     H14414   1.294   6.333   1.296 -0.9462  2.6630  0.3999
  867MOL0     H14415   1.210   6.290   1.447  3.3698 -0.0417  0.5825
  867MOL0     H14416   1.100   6.235   1.156 -2.3301  1.6477 -1.3223
  867MOL0     H14417   1.008   6.231   1.299 -0.7582  0.8414 -0.7503
  867MOL0     H14418   1.145   6.479   1.195  0.9603  3.7692  2.9897
  867MOL0     H14419   1.043   6.479   1.335  0.7718 -0.3886 -0.1972
  867MOL0     H14420   0.946   6.570   1.142  2.5960 -0.4224  0.7661
  867MOL0     H14421   0.842   6.439   1.201  0.0888 -2.6236 -1.1044
  867MOL0     H14422   1.032   6.457   0.972  1.3301 -0.5646  0.0032
  867MOL0     H14423   0.971   6.297   1.009 -0.0612  0.1761 -1.9618
  867MOL0     H14424   0.731   6.404   1.002 -0.2142  0.1836 -0.6266
  867MOL0     H14425   0.805   6.373   0.852  1.1353  0.2011 -1.5586
  867MOL0     H14426   1.691   6.346   1.390  1.2869 -1.3059 -2.8032
  867MOL0     H14427   1.936   6.304   1.448 -0.2438  1.0719  3.4824
  867MOL0     H14428   2.216   6.102   1.743  1.9772  1.8333  0.7418
  867MOL0     H14429   2.400   6.054   1.853 -3.6898 -2.8189  1.8649
  867MOL0     H14430   4.356   6.056   1.492  0.7493 -1.4589 -0.8164
  867MOL0     H14431   4.557   5.966   1.452 -0.4790 -2.3356  0.2553
  867MOL0     H14432   5.159   5.964   1.776 -1.7596 -0.8567  0.6865
  867MOL0     H14433   5.340   5.825   1.683  0.5268 -2.7092 -0.1180
  867MOL0     H14434   5.468   5.842   1.478  3.5954  2.4063 -2.6111
  867MOL0     H14435   5.388   5.799   1.322  0.2088  0.2273  0.5391
  867MOL0     H14436   5.591   5.637   1.477  0.6595  1.8220  0.5601
  867MOL0     H14437   5.523   5.605   1.314 -1.1867  1.6751 -1.7282
  867MOL0     H14438   5.762   5.686   1.289 -0.5337 -0.7738 -1.7191
  867MOL0     H14439   5.717   5.826   1.390  0.9014  0.1019 -1.4672
  867MOL0     H14440   5.560   5.795   1.135  2.4438 -1.1814 -1.6060
  867MOL0     H14441   5.589   5.941   1.238 -1.5843 -1.6037  0.2400
  867MOL0     H14442   5.878   5.971   0.949 -1.1945  0.8071 -0.7486
  867MOL0     H14443   5.080   5.675   1.374 -3.8059 -0.3692  0.7349
  867MOL0     H14444   4.903   5.812   1.459  0.9130  0.0013 -2.0181
  868MOL0     O14445   6.711   4.040   2.134 -0.4656 -0.8427 -0.4328
  868MOL0     C14446   6.597   4.036   2.170 -0.0735  0.3984  0.2115
  868MOL0     O14447   6.548   4.088   2.291  0.2488  0.0032  0.3277
  868MOL0     C14448   6.633   4.145   2.376  0.1082  1.3357  0.4802
  868MOL0     C14449   6.754   4.076   2.406 -0.6493 -0.9613  0.2076
  868MOL0     C14450   6.841   4.122   2.492 -0.4525 -0.3758 -1.4432
  868MOL0     C14451   6.816   4.246   2.567 -0.3043  0.1717  0.1217
  868MOL0     O14452   6.900   4.285   2.662  0.0504 -0.8679  0.2074
  868MOL0     C14453   7.039   4.283   2.621  0.9125  0.0175 -0.5489
  868MOL0     C14454   7.111   4.405   2.677  0.2177  0.7770 -0.2923
  868MOL0     C14455   7.259   4.389   2.627 -0.5036 -0.2582 -0.0811
  868MOL0     C14456   7.341   4.502   2.694 -0.3400  0.7928 -0.3347
  868MOL0     C14457   7.335   4.501   2.852  0.3248  0.9544  0.5254
  868MOL0     C14458   7.372   4.368   2.921  0.0279 -0.4445 -0.5026
  868MOL0     C14459   7.380   4.375   3.080 -0.6447  0.1170  0.0492
  868MOL0     C14460   7.507   4.449   3.141  1.0483  0.0981  0.2890
  868MOL0     N14461   7.472   4.497   3.275 -0.9435 -0.5332 -0.5732
  868MOL0     C14462   7.381   4.599   3.287  0.0824 -0.5486  0.0730
  868MOL0     C14463   7.380   4.624   3.420  1.5633  0.2007 -0.8682
  868MOL0     C14464   7.280   4.706   3.504 -0.7940 -0.2005 -0.0621
  868MOL0     C14465   7.132   4.664   3.486 -0.0760 -0.6974  0.5303
  868MOL0     C14466   7.112   4.530   3.547  0.0100  0.2206  0.3284
  868MOL0     C14467   6.964   4.493   3.579 -0.1362  0.5991  0.0468
  868MOL0     O14468   6.881   4.577   3.504 -0.2010  0.2480  0.2350
  868MOL0     C14469   6.748   4.552   3.498  0.1082  0.0316  0.1440
  868MOL0     C14470   6.668   4.626   3.406 -0.6021  0.1931  0.3550
  868MOL0     C14471   6.533   4.599   3.392 -0.5753  0.3343 -0.1984
  868MOL0     C14472   6.465   4.517   3.484 -0.1414  0.5382 -1.0446
  868MOL0     C14473   6.320   4.513   3.485  0.2178  0.0740  0.1820
  868MOL0     O14474   6.259   4.512   3.363  0.1105  0.9258 -0.0001
  868MOL0     C14475   6.132   4.456   3.356 -0.5444 -0.2145  0.1380
  868MOL0     C14476   6.024   4.519   3.422 -1.0434 -0.1126  0.1586
  868MOL0     C14477   5.896   4.478   3.387 -0.2412 -0.2599  1.0968
  868MOL0     C14478   5.869   4.373   3.298 -0.1145  0.1080 -0.3662
  868MOL0     O14479   5.737   4.354   3.273  0.0542  0.1050  0.4645
  868MOL0     C14480   5.703   4.258   3.173  0.2159  0.2714 -0.4846
  868MOL0     C14481   5.554   4.203   3.193  0.3453 -0.0694  0.6945
  868MOL0     C14482   5.520   4.085   3.103  0.4481  0.0917  1.1062
  868MOL0     C14483   5.366   4.044   3.113 -0.5292  0.7664  0.3616
  868MOL0     C14484   5.332   3.928   3.027 -0.6599  0.6640  0.0955
  868MOL0     C14485   5.186   3.914   3.007 -0.7326 -0.3433 -0.7836
  868MOL0     C14486   5.155   3.810   2.896  0.2132  0.4005  0.0396
  868MOL0     C14487   5.039   3.716   2.934  0.1528  0.4277  0.4405
  868MOL0    Cl14488   5.062   3.566   2.838  0.1270  0.3339  0.2792
  868MOL0     C14489   5.976   4.304   3.247  0.3447  0.5515 -0.7869
  868MOL0     C14490   6.109   4.347   3.274 -0.5461  0.0336 -0.3404
  868MOL0     O14491   6.266   4.495   3.593 -0.3653 -0.2092  0.3290
  868MOL0     C14492   6.547   4.450   3.576  0.8246 -1.0616 -0.2404
  868MOL0     C14493   6.682   4.456   3.580 -0.1479  0.3091  0.1773
  868MOL0     N14494   7.489   4.565   3.477 -0.7824  0.7399 -0.1099
  868MOL0     N14495   7.537   4.486   3.388  0.0318  0.3995  0.0615
  868MOL0     C14496   6.691   4.308   2.548  0.4483 -0.3185  1.0781
  868MOL0     C14497   6.594   4.254   2.458 -0.3117 -0.3882 -0.0245
  868MOL0     C14498   6.502   3.956   2.097 -0.8400  0.2770 -0.7719
  868MOL0     C14499   6.548   3.874   1.987  0.0562  0.6364  0.7690
  868MOL0     C14500   6.456   3.797   1.909 -0.1454 -0.6547 -0.1101
  868MOL0     C14501   6.324   3.804   1.939 -0.2521 -0.0767  0.4433
  868MOL0     O14502   6.239   3.722   1.876  0.0580  0.8187 -0.7024
  868MOL0     C14503   6.101   3.764   1.864 -0.0435 -0.3738 -0.4535
  868MOL0     C14504   6.093   3.885   1.764 -0.3885  0.1555 -0.4443
  868MOL0     C14505   5.948   3.903   1.706  0.1058  0.2325 -0.1536
  868MOL0     C14506   5.887   3.795   1.613  0.1674  0.5606  0.9368
  868MOL0     C14507   5.975   3.784   1.498  0.1542 -0.8997  0.0519
  868MOL0     C14508   6.044   3.792   1.399  0.5602  0.2165 -0.3696
  868MOL0     C14509   6.284   3.877   2.051  0.6576  0.0798  0.3618
  868MOL0     C14510   6.371   3.950   2.122  0.4060 -0.4528 -0.1827
  868MOL0     H14511   6.775   3.978   2.364  1.6630  0.1907 -1.5044
  868MOL0     H14512   6.922   4.055   2.521  0.4285  2.1398  2.8019
  868MOL0     H14513   7.031   4.284   2.512 -0.8331 -0.2701 -0.4506
  868MOL0     H14514   7.092   4.196   2.663  1.6507  0.2131 -1.0619
  868MOL0     H14515   7.100   4.404   2.786 -2.5033  0.2634 -0.4921
  868MOL0     H14516   7.066   4.497   2.640  0.6841  0.0269 -2.8890
  868MOL0     H14517   7.269   4.391   2.518  1.5817 -1.5192  0.0268
  868MOL0     H14518   7.298   4.296   2.669  0.9312  0.3648  0.0485
  868MOL0     H14519   7.444   4.483   2.663 -0.6071  1.4322 -1.6879
  868MOL0     H14520   7.305   4.599   2.657 -2.3113  0.2948  0.1638
  868MOL0     H14521   7.236   4.531   2.889  0.1968 -0.8565  1.8304
  868MOL0     H14522   7.404   4.582   2.877  1.3520  0.8608 -1.7262
  868MOL0     H14523   7.459   4.311   2.887 -0.9926 -2.0499 -0.5376
  868MOL0     H14524   7.279   4.315   2.900 -0.2486  0.3275 -1.3177
  868MOL0     H14525   7.285   4.417   3.114 -1.2207 -1.8925  1.0824
  868MOL0     H14526   7.384   4.275   3.123 -0.7305  0.1375  0.1047
  868MOL0     H14527   7.527   4.531   3.072 -2.7404  0.1885 -0.9307
  868MOL0     H14528   7.590   4.378   3.137  0.6066 -0.3997 -0.3154
  868MOL0     H14529   7.315   4.650   3.218 -1.2728 -0.9602  1.0302
  868MOL0     H14530   7.285   4.813   3.483 -0.4126  0.5518  3.3192
  868MOL0     H14531   7.326   4.692   3.602 -1.8983  0.0584  0.5161
  868MOL0     H14532   7.101   4.660   3.381 -0.1272  0.3625  0.4984
  868MOL0     H14533   7.075   4.742   3.539  1.7251 -0.8002  2.7483
  868MOL0     H14534   7.154   4.457   3.477 -1.5754  1.4744 -2.0491
  868MOL0     H14535   7.175   4.538   3.636  2.0580 -1.9040 -0.7968
  868MOL0     H14536   6.946   4.490   3.687  1.7575 -0.2789  0.3849
  868MOL0     H14537   6.952   4.390   3.546  2.8806  0.5798 -1.2941
  868MOL0     H14538   6.718   4.689   3.333 -2.2764  0.3539 -0.7034
  868MOL0     H14539   6.477   4.638   3.308  3.7957  0.1669 -3.5236
  868MOL0     H14540   6.030   4.609   3.482  0.4437  1.0116 -1.5468
  868MOL0     H14541   5.813   4.544   3.410  1.6724  2.8949 -0.3431
  868MOL0     H14542   5.769   4.172   3.186  0.8743  0.9008  0.5607
  868MOL0     H14543   5.726   4.297   3.074 -0.6115 -3.2509 -2.2217
  868MOL0     H14544   5.494   4.294   3.183  0.5504  0.1848  1.6925
  868MOL0     H14545   5.540   4.180   3.299  2.7943  1.1161  1.3535
  868MOL0     H14546   5.571   3.994   3.139 -0.7835 -0.6880  0.9328
  868MOL0     H14547   5.551   4.091   2.998 -1.2741 -0.8975  0.5096
  868MOL0     H14548   5.348   4.021   3.218  0.5828  0.4574  0.5027
  868MOL0     H14549   5.304   4.128   3.081 -0.4250  1.4276  1.8291
  868MOL0     H14550   5.377   3.838   3.071  0.3037  0.9136 -0.3554
  868MOL0     H14551   5.382   3.957   2.933 -0.2680  2.0731  0.7139
  868MOL0     H14552   5.140   4.012   2.991 -2.8405 -0.6175  2.6094
  868MOL0     H14553   5.154   3.890   3.109 -1.8281  3.5386 -0.0267
  868MOL0     H14554   5.136   3.859   2.801  2.5958  0.8698 -0.2453
  868MOL0     H14555   5.238   3.742   2.877  0.5540  0.5701  0.8492
  868MOL0     H14556   4.949   3.772   2.905 -0.0647  1.0671  2.2553
  868MOL0     H14557   5.033   3.684   3.038 -0.6578 -2.2892 -0.3511
  868MOL0     H14558   5.956   4.217   3.184 -0.6489  0.7068 -0.7114
  868MOL0     H14559   6.195   4.286   3.247 -0.5738 -0.1988  0.1034
  868MOL0     H14560   6.497   4.392   3.653  0.5908 -1.8628 -0.9827
  868MOL0     H14561   6.725   4.402   3.663 -2.3805 -0.4211  0.9295
  868MOL0     H14562   6.660   4.395   2.604  0.7898  0.5366 -0.0175
  868MOL0     H14563   6.500   4.307   2.450 -0.1699 -0.0109  0.7006
  868MOL0     H14564   6.654   3.870   1.964  0.3474  0.1144  2.1118
  868MOL0     H14565   6.481   3.732   1.825  0.0500 -1.1044  0.2937
  868MOL0     H14566   6.045   3.792   1.953 -1.5819  2.4558 -2.1447
  868MOL0     H14567   6.048   3.683   1.813 -0.2086 -0.0683 -0.7744
  868MOL0     H14568   6.120   3.976   1.820 -0.5074 -0.0044 -0.1274
  868MOL0     H14569   6.157   3.851   1.682 -0.6662  1.1770 -1.1036
  868MOL0     H14570   5.948   3.992   1.641  0.1239  0.4269  0.1105
  868MOL0     H14571   5.872   3.913   1.784 -2.0175 -0.5055 -2.0214
  868MOL0     H14572   5.878   3.694   1.655 -0.6999  0.3092  0.1812
  868MOL0     H14573   5.785   3.829   1.592  0.6175  0.6049 -1.5979
  868MOL0     H14574   6.112   3.787   1.316 -0.5977 -0.6482 -1.3079
  868MOL0     H14575   6.179   3.882   2.077  0.1210  2.7760 -1.8586
  868MOL0     H14576   6.327   4.016   2.196 -1.9347 -2.2771  0.1615
  869MOL0     O14577   7.661  10.816   9.166 -0.3228  0.6860 -0.1630
  869MOL0     C14578   7.703  10.753   9.068  0.0617 -0.4295 -0.2919
  869MOL0     O14579   7.638  10.653   9.011 -0.1001 -0.4902 -0.4198
  869MOL0     C14580   7.509  10.644   9.052 -0.3396  0.6261  0.4577
  869MOL0     C14581   7.406  10.744   9.033  0.2659 -0.2616 -0.3639
  869MOL0     C14582   7.270  10.719   9.065  0.0932  0.5015 -0.2020
  869MOL0     C14583   7.226  10.593   9.102 -0.3316  0.0705 -0.5642
  869MOL0     O14584   7.103  10.553   9.138  0.0007  0.2888  0.3051
  869MOL0     C14585   6.992  10.644   9.156  0.0946 -0.8845 -1.0566
  869MOL0     C14586   6.867  10.591   9.212  0.3996  0.2314 -0.2630
  869MOL0     C14587   6.751  10.692   9.202 -0.9707  0.2295  1.1018
  869MOL0     C14588   6.625  10.643   9.282 -0.6962  0.5372  0.4030
  869MOL0     C14589   6.485  10.668   9.215 -0.0500  0.5307  0.2330
  869MOL0     C14590   6.448  10.814   9.214  0.4392 -0.3345 -0.0228
  869MOL0     C14591   6.299  10.830   9.206 -1.2609 -0.3716  0.4857
  869MOL0     C14592   6.265  10.983   9.212 -0.0288 -1.6244 -0.1731
  869MOL0     N14593   6.117  11.000   9.179  0.0402 -0.5935  0.3636
  869MOL0     C14594   6.064  11.019   9.051 -0.0331 -0.0998  0.1057
  869MOL0     C14595   5.928  11.021   9.074  0.6074 -0.6195 -0.9163
  869MOL0     C14596   5.824  11.057   8.972  0.4521 -0.5483  1.4504
  869MOL0     C14597   5.681  10.998   9.017 -0.3967  0.3764  0.5366
  869MOL0     C14598   5.584  11.063   8.915 -0.5793 -0.0830  0.3799
  869MOL0     C14599   5.441  11.025   8.951  1.3727  0.3821 -0.0789
  869MOL0     O14600   5.347  11.089   8.868 -0.7357 -0.2633  0.3237
  869MOL0     C14601   5.213  11.068   8.875  0.3891 -0.1362  0.4793
  869MOL0     C14602   5.158  10.956   8.932 -0.7933 -0.3802  0.6756
  869MOL0     C14603   5.021  10.948   8.931  0.6444 -1.3938  0.4215
  869MOL0     C14604   4.941  11.057   8.878 -0.3251  0.5606  0.0248
  869MOL0     C14605   4.793  11.053   8.881  0.1484  0.2158 -0.0645
  869MOL0     O14606   4.725  11.144   8.809 -0.1718 -0.5143  0.4986
  869MOL0     C14607   4.589  11.125   8.791  1.2915  0.3677 -0.3974
  869MOL0     C14608   4.493  11.217   8.831  0.3528 -0.5098  0.3439
  869MOL0     C14609   4.355  11.198   8.818  0.1108 -0.2644 -0.2906
  869MOL0     C14610   4.302  11.085   8.751  0.2831 -0.5513  1.0900
  869MOL0     O14611   4.166  11.067   8.716 -1.1268  0.3166 -0.2082
  869MOL0     C14612   4.070  11.147   8.780  0.3421 -0.2455 -0.2899
  869MOL0     C14613   3.936  11.068   8.775  0.3682 -0.4204  0.5806
  869MOL0     C14614   3.859  11.088   8.647  0.0224 -0.2750 -0.6616
  869MOL0     C14615   3.734  11.004   8.661 -0.8074  0.5230  0.1580
  869MOL0     C14616   3.640  10.999   8.543  1.0454 -0.2845 -0.2900
  869MOL0     C14617   3.563  11.135   8.515 -0.2243 -0.1519 -0.2067
  869MOL0     C14618   3.438  11.145   8.607  0.5168  0.2321  0.4001
  869MOL0     C14619   3.322  11.216   8.541  0.8205 -0.0553  0.6300
  869MOL0    Cl14620   3.174  11.208   8.637  0.3697  0.1790  0.1296
  869MOL0     C14621   4.398  10.995   8.706  0.1759  0.2848  0.1932
  869MOL0     C14622   4.538  11.014   8.715  0.4082 -0.6241 -0.4992
  869MOL0     O14623   4.733  10.977   8.952  0.4394 -0.3020 -1.0908
  869MOL0     C14624   4.999  11.167   8.828  0.8139  0.1525  0.0284
  869MOL0     C14625   5.136  11.170   8.825  0.7411  0.2050  0.0536
  869MOL0     N14626   5.893  10.994   9.205 -0.7343  0.1582 -0.0917
  869MOL0     N14627   6.012  10.989   9.270  0.1684 -0.2510  0.2071
  869MOL0     C14628   7.325  10.499   9.117 -0.1821  0.1752 -0.6730
  869MOL0     C14629   7.459  10.522   9.093  0.8442 -0.5583 -0.3617
  869MOL0     C14630   7.843  10.772   9.040 -0.3805 -0.0411 -0.3651
  869MOL0     C14631   7.917  10.661   8.988 -0.3304 -0.0482  0.6291
  869MOL0     C14632   8.055  10.676   8.962 -0.7072 -0.0696  0.0323
  869MOL0     C14633   8.122  10.797   8.978  0.2491  0.3273 -0.1569
  869MOL0     O14634   8.252  10.818   8.945  0.0837  0.5045 -0.0773
  869MOL0     C14635   8.353  10.724   8.964  0.1584 -0.5322  0.3217
  869MOL0     C14636   8.398  10.716   9.110 -0.5616  0.3225 -0.3405
  869MOL0     C14637   8.482  10.833   9.165  0.0825  1.5820  0.0088
  869MOL0     C14638   8.509  10.801   9.314 -0.2853 -0.2847 -0.5624
  869MOL0     C14639   8.592  10.680   9.327  0.3457 -0.2900 -0.2141
  869MOL0     C14640   8.660  10.577   9.340  0.1140 -0.2997 -0.2010
  869MOL0     C14641   8.038  10.912   9.010 -0.4724  0.1635  0.3495
  869MOL0     C14642   7.899  10.901   9.043  0.8614  0.2980  0.2917
  869MOL0     H14643   7.428  10.843   8.995  0.1347  1.7795  4.2188
  869MOL0     H14644   7.195  10.797   9.055 -0.2956  0.7509  3.3637
  869MOL0     H14645   6.962  10.676   9.055  2.0360 -0.5479 -1.5554
  869MOL0     H14646   7.026  10.733   9.210  1.7628 -0.5800 -2.5268
  869MOL0     H14647   6.883  10.580   9.320  0.6777  2.8529  0.0250
  869MOL0     H14648   6.845  10.495   9.163  1.5498 -1.5821  2.5013
  869MOL0     H14649   6.727  10.698   9.096  1.6043 -0.2006  0.4110
  869MOL0     H14650   6.779  10.791   9.238 -3.0488  0.5577  1.9009
  869MOL0     H14651   6.637  10.535   9.294  0.2840 -0.0429 -3.9295
  869MOL0     H14652   6.630  10.687   9.382 -1.4802  2.2971 -0.2758
  869MOL0     H14653   6.410  10.629   9.284 -0.4902 -1.9098 -1.5177
  869MOL0     H14654   6.483  10.604   9.126 -1.0050  1.2436 -0.2773
  869MOL0     H14655   6.493  10.862   9.126  2.5985  1.1366  1.7678
  869MOL0     H14656   6.478  10.856   9.310 -2.3167 -1.4371  1.4236
  869MOL0     H14657   6.258  10.787   9.114 -0.9081  0.1447  0.0788
  869MOL0     H14658   6.258  10.787   9.297 -1.0762  2.5280  2.0491
  869MOL0     H14659   6.331  11.032   9.141 -0.9843 -1.2041 -0.8038
  869MOL0     H14660   6.294  11.028   9.307  0.2267  0.1621 -1.0623
  869MOL0     H14661   6.111  11.024   8.954 -1.9520 -3.1671 -1.1239
  869MOL0     H14662   5.855  11.012   8.877  0.1525 -1.3359  1.7134
  869MOL0     H14663   5.811  11.165   8.964  1.8880 -0.4478  0.0861
  869MOL0     H14664   5.648  11.030   9.116 -0.9223 -2.8936  1.5609
  869MOL0     H14665   5.677  10.890   9.001 -0.0948  0.3706  0.4950
  869MOL0     H14666   5.600  11.171   8.924  2.7657 -0.6173  2.2785
  869MOL0     H14667   5.604  11.022   8.815  2.9623  0.4100  0.7531
  869MOL0     H14668   5.417  11.060   9.052 -3.4811 -0.0139 -0.8494
  869MOL0     H14669   5.416  10.919   8.943  2.0736  0.1617  0.5703
  869MOL0     H14670   5.206  10.872   8.980 -0.7219 -0.8053 -0.1388
  869MOL0     H14671   4.980  10.860   8.979  2.4190 -2.8203 -0.5819
  869MOL0     H14672   4.523  11.303   8.891 -3.1986  1.6323 -0.6253
  869MOL0     H14673   4.296  11.285   8.845  0.5825  0.7793 -2.4013
  869MOL0     H14674   4.055  11.237   8.719  3.1236 -0.3211 -1.2075
  869MOL0     H14675   4.104  11.173   8.881  0.1336  2.3221 -0.8051
  869MOL0     H14676   3.877  11.096   8.863  0.0840  0.4990  0.1157
  869MOL0     H14677   3.953  10.963   8.801 -1.6137 -0.4210  2.1882
  869MOL0     H14678   3.918  11.057   8.560 -1.2400  0.5450 -1.8573
  869MOL0     H14679   3.828  11.191   8.626  0.4806  0.1546  0.6196
  869MOL0     H14680   3.759  10.899   8.679 -2.5573  0.0421  0.0254
  869MOL0     H14681   3.690  11.037   8.756  2.1499  2.5249  0.9386
  869MOL0     H14682   3.559  10.927   8.555  0.1493  0.5636 -1.0777
  869MOL0     H14683   3.696  10.986   8.450  1.4653  1.4315 -0.3125
  869MOL0     H14684   3.539  11.125   8.408  0.4619 -1.3578 -0.2701
  869MOL0     H14685   3.628  11.218   8.541  0.5665 -0.0051 -2.4369
  869MOL0     H14686   3.402  11.047   8.640 -0.6900  0.4258 -0.2941
  869MOL0     H14687   3.464  11.192   8.702 -0.8068 -3.3685  2.7541
  869MOL0     H14688   3.297  11.168   8.446 -0.6348  1.2733  0.3152
  869MOL0     H14689   3.346  11.322   8.539 -0.0513  0.2202  2.5180
  869MOL0     H14690   4.364  10.904   8.655  0.1067  0.4062  0.0202
  869MOL0     H14691   4.604  10.951   8.656  1.4742  0.4099 -0.4561
  869MOL0     H14692   4.949  11.253   8.787  1.3055  0.1379 -0.6166
  869MOL0     H14693   5.182  11.263   8.796 -1.0409  2.0763  2.7501
  869MOL0     H14694   7.293  10.400   9.148  0.9583 -0.8081 -2.4410
  869MOL0     H14695   7.520  10.433   9.096 -0.6707 -1.6474 -0.5194
  869MOL0     H14696   7.864  10.566   8.983 -1.0653  0.3044  1.3766
  869MOL0     H14697   8.111  10.592   8.922  0.2007 -0.3298  1.7300
  869MOL0     H14698   8.435  10.761   8.902  0.7946 -0.2139  1.3347
  869MOL0     H14699   8.321  10.624   8.933  1.7220 -0.8730 -0.2749
  869MOL0     H14700   8.307  10.708   9.171  2.5164 -0.0474  4.8109
  869MOL0     H14701   8.446  10.618   9.119 -0.2621  0.2823 -2.1211
  869MOL0     H14702   8.423  10.925   9.162 -1.3244  0.7028  0.1152
  869MOL0     H14703   8.578  10.840   9.111  0.9253 -3.3767  0.4018
  869MOL0     H14704   8.582  10.866   9.364 -0.0551 -0.4441 -0.6888
  869MOL0     H14705   8.421  10.800   9.378 -1.7132 -1.5174 -2.4616
  869MOL0     H14706   8.725  10.492   9.351  2.3711  1.3047 -0.6714
  869MOL0     H14707   8.074  11.014   9.012 -2.0593  0.7653 -0.6774
  869MOL0     H14708   7.851  10.996   9.062 -1.2044 -0.4083 -1.0317
  870MOL0     O14709   2.049   4.877   9.068  0.3066  0.1864  0.0406
  870MOL0     C14710   2.116   4.919   9.159  0.0020 -0.2182 -0.1457
  870MOL0     O14711   2.107   4.884   9.289 -0.0040  0.7420 -0.6984
  870MOL0     C14712   2.025   4.781   9.336 -0.5211  0.5425 -0.2227
  870MOL0     C14713   1.927   4.713   9.260  0.3897 -0.3337  0.0125
  870MOL0     C14714   1.862   4.605   9.318 -0.4845 -0.1490 -0.3454
  870MOL0     C14715   1.898   4.555   9.445 -0.3241  0.1431  0.1071
  870MOL0     O14716   1.824   4.456   9.508  0.3511  1.0258  0.7189
  870MOL0     C14717   1.699   4.411   9.448 -0.0961 -0.6659  0.1943
  870MOL0     C14718   1.614   4.332   9.547  0.9141  0.5109  0.3261
  870MOL0     C14719   1.481   4.282   9.481  0.0756  0.3608 -0.5375
  870MOL0     C14720   1.390   4.218   9.588  0.3654  0.1470  0.6683
  870MOL0     C14721   1.246   4.172   9.539 -0.8577  0.1888  0.1147
  870MOL0     C14722   1.165   4.110   9.652  0.0032  1.1706 -0.1446
  870MOL0     C14723   1.050   4.019   9.598 -0.4012  0.8301  0.3093
  870MOL0     C14724   0.983   3.950   9.720 -0.4622 -0.3838  0.0655
  870MOL0     N14725   0.890   4.036   9.800  0.0876  1.1520 -0.8722
  870MOL0     C14726   0.768   4.070   9.754 -0.9739  0.3063 -0.9686
  870MOL0     C14727   0.733   4.180   9.823 -0.0525  1.1399 -0.8400
  870MOL0     C14728   0.608   4.255   9.791  0.1101 -0.3968  0.3299
  870MOL0     C14729   0.487   4.188   9.859 -0.9587  0.3245 -0.0106
  870MOL0     C14730   0.471   4.041   9.811 -1.1266 -0.2012  0.5454
  870MOL0     C14731   0.322   4.006   9.805  0.4323 -0.4108 -0.1083
  870MOL0     O14732   0.255   4.003   9.941 -0.2905 -0.9644 -0.5409
  870MOL0     C14733   0.117   3.976   9.944 -0.8428  0.4497  0.4060
  870MOL0     C14734   0.037   3.974   9.834 -0.7187 -1.5903  1.2466
  870MOL0     C14735  -0.103   3.953   9.838 -0.8233 -0.3510  0.1043
  870MOL0     C14736  -0.158   3.909   9.964  0.4355  0.6926  0.4534
  870MOL0     C14737  -0.296   3.870   9.978  0.1971 -0.3830 -0.9313
  870MOL0     O14738  -0.359   3.857   9.858 -0.2188 -0.4535 -0.0143
  870MOL0     C14739  -0.491   3.844   9.866 -0.3663  1.0997  0.3398
  870MOL0     C14740  -0.565   3.943   9.814 -0.0063  0.6998  1.7013
  870MOL0     C14741  -0.701   3.946   9.827 -0.1874 -0.2538 -0.2484
  870MOL0     C14742  -0.768   3.840   9.889 -0.0184  0.0739 -0.0000
  870MOL0     O14743  -0.906   3.834   9.896 -0.4420 -0.5948 -0.5067
  870MOL0     C14744  -0.975   3.921   9.801  0.4923 -0.1290 -0.3707
  870MOL0     C14745  -1.123   3.877   9.772  0.1353  0.3611 -0.0196
  870MOL0     C14746  -1.125   3.722   9.745 -0.2065 -0.1621 -0.5005
  870MOL0     C14747  -1.242   3.674   9.676  0.0557  0.5483  0.3318
  870MOL0     C14748  -1.384   3.706   9.736  0.4404  0.0140  0.4185
  870MOL0     C14749  -1.500   3.651   9.645 -0.0627 -0.0519  0.6884
  870MOL0     C14750  -1.633   3.695   9.709  0.4923 -0.4418 -0.3525
  870MOL0     C14751  -1.738   3.600   9.675 -0.2739  0.3538  0.0965
  870MOL0    Cl14752  -1.787   3.619   9.500 -0.1461  0.2821 -0.1002
  870MOL0     C14753  -0.696   3.733   9.933 -0.4841 -0.0873  0.1192
  870MOL0     C14754  -0.556   3.734   9.917 -1.0946  1.3946 -0.0117
  870MOL0     O14755  -0.352   3.869  10.090  0.0758 -0.1986  0.5536
  870MOL0     C14756  -0.076   3.891  10.076 -0.0733 -0.8028 -0.2190
  870MOL0     C14757   0.060   3.930  10.065 -0.0586 -0.8323  0.7640
  870MOL0     N14758   0.814   4.186   9.933 -0.4357  0.2175  0.1461
  870MOL0     N14759   0.913   4.102   9.914 -0.3991 -0.4879  0.5345
  870MOL0     C14760   2.002   4.620   9.509 -0.2289 -0.3757 -0.9083
  870MOL0     C14761   2.071   4.730   9.460  0.5222  0.1997  0.4390
  870MOL0     C14762   2.196   5.045   9.128 -0.6380  0.8343  0.6455
  870MOL0     C14763   2.316   5.060   9.198  0.3659 -0.6542 -0.4994
  870MOL0     C14764   2.403   5.166   9.168  0.4047 -0.7848 -0.6460
  870MOL0     C14765   2.368   5.252   9.057 -1.0071 -0.0209 -0.4566
  870MOL0     O14766   2.434   5.368   9.013  0.1535 -0.2353  0.6759
  870MOL0     C14767   2.552   5.412   9.068  0.1149  0.0029  0.0681
  870MOL0     C14768   2.663   5.326   9.002 -0.4935  0.4032 -1.3805
  870MOL0     C14769   2.797   5.359   9.064 -0.3527 -0.1773 -0.6077
  870MOL0     C14770   2.910   5.287   9.003 -0.4420  0.2548 -0.0424
  870MOL0     C14771   2.935   5.313   8.859  0.2360  0.4228 -0.4178
  870MOL0     C14772   2.923   5.357   8.749 -0.3113 -0.2862 -0.3543
  870MOL0     C14773   2.242   5.232   8.990 -0.1592  0.9087  0.0205
  870MOL0     C14774   2.151   5.133   9.031 -0.2144 -0.2554  0.1510
  870MOL0     H14775   1.899   4.741   9.160  0.1892  1.4581  0.5417
  870MOL0     H14776   1.782   4.561   9.259 -0.7462 -1.0976  0.6925
  870MOL0     H14777   1.717   4.349   9.359  2.1783  1.3391 -0.8465
  870MOL0     H14778   1.648   4.503   9.415 -1.6922 -0.8832  1.8966
  870MOL0     H14779   1.584   4.410   9.618 -2.7667 -1.0225  0.7170
  870MOL0     H14780   1.664   4.251   9.601  1.0851 -2.2503 -3.5668
  870MOL0     H14781   1.492   4.206   9.403  0.8699 -1.2889  1.1185
  870MOL0     H14782   1.431   4.372   9.443 -0.1770  0.6507  0.4618
  870MOL0     H14783   1.440   4.127   9.624 -0.0562 -0.7464 -0.9036
  870MOL0     H14784   1.368   4.289   9.669  0.5614 -0.7508  1.5298
  870MOL0     H14785   1.253   4.093   9.464  0.8866 -1.5129  1.9593
  870MOL0     H14786   1.197   4.257   9.491  1.6349  0.0583 -2.9659
  870MOL0     H14787   1.116   4.187   9.711  1.0475  0.7856  1.2702
  870MOL0     H14788   1.236   4.050   9.710  0.7653  1.6113 -0.5993
  870MOL0     H14789   0.983   4.077   9.533  1.2337 -1.0759 -3.4265
  870MOL0     H14790   1.100   3.943   9.537 -2.0526 -0.4485  0.4451
  870MOL0     H14791   1.065   3.919   9.786  0.9737 -0.1135 -1.5185
  870MOL0     H14792   0.924   3.866   9.682  0.6225  0.0572 -2.8604
  870MOL0     H14793   0.726   4.033   9.661  1.0577 -0.5217 -1.6022
  870MOL0     H14794   0.592   4.264   9.684  2.2671  0.3290  0.0248
  870MOL0     H14795   0.613   4.358   9.826 -2.2035  0.3816 -1.3834
  870MOL0     H14796   0.396   4.244   9.836 -1.9797 -1.0720  0.4239
  870MOL0     H14797   0.509   4.200   9.966  0.2372 -1.1271 -0.0538
  870MOL0     H14798   0.515   4.028   9.712  0.7456  0.4340  1.2361
  870MOL0     H14799   0.520   3.966   9.875  0.1929 -1.1268 -1.4683
  870MOL0     H14800   0.303   3.913   9.751 -0.7336  0.4157 -1.2068
  870MOL0     H14801   0.277   4.093   9.755 -0.9279 -0.5492  0.8241
  870MOL0     H14802   0.089   3.991   9.740 -0.5413 -1.5768  1.3462
  870MOL0     H14803  -0.165   3.967   9.750 -2.7030  1.1624  1.5714
  870MOL0     H14804  -0.510   4.025   9.767  1.2919 -0.6953  0.6674
  870MOL0     H14805  -0.744   4.042   9.800  0.8226  0.1486 -0.4759
  870MOL0     H14806  -0.911   3.926   9.712  4.1531 -1.4050  1.9653
  870MOL0     H14807  -0.983   4.017   9.852 -2.4048 -0.5342  0.1174
  870MOL0     H14808  -1.164   3.928   9.684  0.0965 -0.5967 -0.5705
  870MOL0     H14809  -1.170   3.897   9.869 -0.7862 -1.4029 -0.0619
  870MOL0     H14810  -1.129   3.666   9.839 -1.0392 -1.3976 -1.2456
  870MOL0     H14811  -1.033   3.696   9.692  1.5737  1.1109  1.7635
  870MOL0     H14812  -1.240   3.692   9.568 -0.5392  0.4747  0.3052
  870MOL0     H14813  -1.233   3.565   9.677 -1.4370  0.3379 -1.6119
  870MOL0     H14814  -1.384   3.815   9.744 -0.5431  0.0608 -0.1231
  870MOL0     H14815  -1.389   3.663   9.837 -0.6696 -2.6088 -0.6608
  870MOL0     H14816  -1.487   3.545   9.625  2.8259  0.6124 -1.5641
  870MOL0     H14817  -1.512   3.703   9.549 -1.4852  0.5628  1.1619
  870MOL0     H14818  -1.626   3.701   9.818  2.3960  0.6043 -0.4972
  870MOL0     H14819  -1.668   3.796   9.685  0.2445  0.2518  2.5438
  870MOL0     H14820  -1.824   3.604   9.743 -1.7719 -1.2584 -1.6022
  870MOL0     H14821  -1.705   3.497   9.693  0.8008  0.9817  2.0705
  870MOL0     H14822  -0.748   3.649   9.978  0.2137 -0.9608 -0.6658
  870MOL0     H14823  -0.499   3.648   9.951 -1.3139  0.9979 -0.6307
  870MOL0     H14824  -0.123   3.841  10.160 -2.3391  1.2825 -0.1019
  870MOL0     H14825   0.123   3.921  10.152  1.6283 -1.9016 -0.5064
  870MOL0     H14826   2.029   4.589   9.609 -2.2882  2.3906  0.6527
  870MOL0     H14827   2.143   4.779   9.524 -0.2619 -2.0735  3.2653
  870MOL0     H14828   2.325   4.987   9.278 -2.6994 -0.0697  0.5469
  870MOL0     H14829   2.492   5.173   9.230  0.0533 -1.6805 -0.0196
  870MOL0     H14830   2.549   5.398   9.177 -2.3630  5.8732  1.1484
  870MOL0     H14831   2.570   5.519   9.050 -1.3027  0.1028 -0.8607
  870MOL0     H14832   2.639   5.220   9.015 -2.7703  0.9887 -0.2813
  870MOL0     H14833   2.670   5.344   8.895  1.7098 -1.9172 -1.7020
  870MOL0     H14834   2.790   5.334   9.170 -2.0267 -0.3809 -0.7356
  870MOL0     H14835   2.811   5.467   9.054 -2.7419  0.2950  0.6296
  870MOL0     H14836   3.001   5.318   9.055  0.7618  0.4035 -2.1288
  870MOL0     H14837   2.906   5.179   9.021  1.8072  0.1999  0.4317
  870MOL0     H14838   2.906   5.406   8.655  1.8956 -1.6705 -1.5579
  870MOL0     H14839   2.227   5.299   8.907  2.3631 -0.5276 -1.7114
  870MOL0     H14840   2.071   5.103   8.964 -0.5883  2.3313 -0.6651
  871MOL0     O14841   4.083   3.854   4.113 -0.3119  0.2681  0.7578
  871MOL0     C14842   4.139   3.967   4.126 -0.0406  0.1441 -0.1302
  871MOL0     O14843   4.096   4.061   4.213  0.2353  0.6198 -0.2348
  871MOL0     C14844   3.975   4.046   4.274 -0.3636 -0.6454 -0.6684
  871MOL0     C14845   3.949   3.937   4.361  0.8748 -0.7391  1.1102
  871MOL0     C14846   3.826   3.920   4.428  0.5179 -0.1377 -0.3612
  871MOL0     C14847   3.734   4.027   4.433  0.0655  0.0939  0.9518
  871MOL0     O14848   3.625   4.013   4.515  0.5033  0.3459  0.3388
  871MOL0     C14849   3.583   4.141   4.575  0.0486 -1.0367 -0.0402
  871MOL0     C14850   3.494   4.105   4.687 -0.2510 -0.1628  0.1446
  871MOL0     C14851   3.363   4.031   4.631 -0.4873  0.2355  0.6028
  871MOL0     C14852   3.258   4.057   4.744  0.1908  0.3718 -0.0691
  871MOL0     C14853   3.118   3.988   4.714  0.6438  0.1596 -1.0294
  871MOL0     C14854   3.029   4.029   4.831 -0.2559 -0.6371 -1.1003
  871MOL0     C14855   2.881   3.990   4.822  0.0688 -1.2560  0.7341
  871MOL0     C14856   2.793   4.077   4.922  0.1536  0.1060 -0.1659
  871MOL0     N14857   2.650   4.057   4.883 -0.2076 -0.2473 -1.0717
  871MOL0     C14858   2.552   4.118   4.945 -0.3577  0.6538  0.7383
  871MOL0     C14859   2.438   4.067   4.900  0.2598 -0.5438  0.0830
  871MOL0     C14860   2.293   4.098   4.958 -0.3140  0.2846  0.1535
  871MOL0     C14861   2.204   3.973   4.968  0.2052  0.7805 -0.3051
  871MOL0     C14862   2.131   3.945   4.837 -0.0856  0.1643  0.2744
  871MOL0     C14863   2.083   3.794   4.833 -0.7189  0.2235  0.8886
  871MOL0     O14864   1.961   3.769   4.909  0.1874 -0.2941  0.2675
  871MOL0     C14865   1.860   3.708   4.843  0.2951  0.4202  0.0539
  871MOL0     C14866   1.779   3.758   4.739 -0.6146  0.2319 -0.8054
  871MOL0     C14867   1.682   3.676   4.674 -0.0054 -0.5565 -0.0151
  871MOL0     C14868   1.657   3.546   4.727 -0.7374  0.4329  0.2107
  871MOL0     C14869   1.554   3.456   4.663 -0.1805  0.5637  0.0238
  871MOL0     O14870   1.546   3.330   4.719  0.1544  0.0223 -0.5559
  871MOL0     C14871   1.444   3.246   4.676  0.4319  0.1134  0.9866
  871MOL0     C14872   1.470   3.172   4.560 -0.5704  0.5405 -0.3748
  871MOL0     C14873   1.383   3.075   4.518 -0.0398  0.4870 -1.0911
  871MOL0     C14874   1.253   3.068   4.567 -0.2765  0.2590 -0.5185
  871MOL0     O14875   1.163   2.978   4.508  0.3195  0.0644  0.1126
  871MOL0     C14876   1.017   2.985   4.516 -0.7891  1.1224  0.2506
  871MOL0     C14877   0.947   2.908   4.397  0.2548 -0.9596  0.4976
  871MOL0     C14878   0.799   2.897   4.410  1.3179 -0.0120 -0.2918
  871MOL0     C14879   0.752   2.848   4.545 -0.4856  0.2254 -0.6438
  871MOL0     C14880   0.610   2.797   4.536  0.1371  0.0425  0.6465
  871MOL0     C14881   0.513   2.909   4.504  1.5281  0.2467  0.1929
  871MOL0     C14882   0.366   2.856   4.494 -0.3685 -0.2980 -0.3696
  871MOL0     C14883   0.296   2.806   4.621  0.4909  0.5125 -0.2006
  871MOL0    Cl14884   0.224   2.948   4.707 -0.1693  0.2463  0.0025
  871MOL0     C14885   1.221   3.145   4.681 -0.3066 -0.3457 -0.7560
  871MOL0     C14886   1.314   3.226   4.736  0.3539  0.2307  0.0727
  871MOL0     O14887   1.496   3.502   4.567  0.3359 -0.2626  0.3627
  871MOL0     C14888   1.715   3.512   4.850 -0.1596  0.4662 -0.6689
  871MOL0     C14889   1.824   3.587   4.902  0.1893  0.1961 -0.8971
  871MOL0     N14890   2.471   3.971   4.811 -0.1370  0.3132  0.3673
  871MOL0     N14891   2.595   3.960   4.797 -0.0341  0.2469  0.1510
  871MOL0     C14892   3.770   4.148   4.354  0.1459  0.1848 -0.2246
  871MOL0     C14893   3.887   4.156   4.270  0.8166 -0.5903  0.4637
  871MOL0     C14894   4.265   3.995   4.062  1.3096  0.0401  0.3025
  871MOL0     C14895   4.319   3.904   3.970  0.7441  0.2043 -0.1640
  871MOL0     C14896   4.434   3.939   3.898 -0.7773 -0.1675 -0.7247
  871MOL0     C14897   4.507   4.055   3.925  1.2447 -0.0722 -0.0030
  871MOL0     O14898   4.628   4.065   3.855 -0.1566  0.6350 -0.3870
  871MOL0     C14899   4.723   4.173   3.881  0.5522  0.4485  0.3320
  871MOL0     C14900   4.849   4.149   3.790 -0.2547 -0.3969  0.0341
  871MOL0     C14901   4.927   4.019   3.841  0.0804 -0.5641 -0.4129
  871MOL0     C14902   5.074   4.046   3.814 -0.2733  0.0184  0.7742
  871MOL0     C14903   5.085   4.068   3.671 -0.1405  0.9769 -0.8934
  871MOL0     C14904   5.102   4.099   3.551  0.8578 -0.1012  0.9032
  871MOL0     C14905   4.457   4.130   4.022 -0.6461 -0.5012  0.0366
  871MOL0     C14906   4.330   4.112   4.082  0.1303  0.3594 -1.1688
  871MOL0     H14907   4.013   3.850   4.350 -0.8290 -1.7360 -2.4903
  871MOL0     H14908   3.808   3.829   4.484 -1.6924  0.3802 -0.1398
  871MOL0     H14909   3.521   4.200   4.508 -3.2941 -2.9084  1.1537
  871MOL0     H14910   3.669   4.193   4.617 -0.1804 -0.8969  0.2627
  871MOL0     H14911   3.457   4.198   4.733 -1.6812 -1.6805  2.2329
  871MOL0     H14912   3.546   4.040   4.758  0.6825 -0.0590 -0.4284
  871MOL0     H14913   3.392   3.928   4.608  1.1204  1.1146 -1.6455
  871MOL0     H14914   3.319   4.077   4.542  0.5390  2.7722  1.3196
  871MOL0     H14915   3.298   4.021   4.839 -1.4075 -0.0627  0.4785
  871MOL0     H14916   3.247   4.162   4.772  0.0223 -0.1388  2.0069
  871MOL0     H14917   3.127   3.879   4.726  0.5077 -0.0777 -2.8046
  871MOL0     H14918   3.075   4.016   4.618 -1.0639  4.0456  0.6459
  871MOL0     H14919   3.040   4.138   4.835 -2.2008 -0.4562  0.3138
  871MOL0     H14920   3.065   3.999   4.929 -2.5460 -0.2731 -0.0963
  871MOL0     H14921   2.843   3.998   4.719 -1.5695  0.7970  1.4301
  871MOL0     H14922   2.871   3.884   4.849 -1.4121 -1.5778 -0.8183
  871MOL0     H14923   2.816   4.183   4.910 -0.1704  0.2809  0.6755
  871MOL0     H14924   2.804   4.037   5.023  1.0551 -1.0157 -0.6788
  871MOL0     H14925   2.564   4.192   5.024  1.5869  0.6461  0.4857
  871MOL0     H14926   2.254   4.189   4.912  2.6450  2.3321  1.3347
  871MOL0     H14927   2.320   4.119   5.062 -0.8721  1.6221  0.0477
  871MOL0     H14928   2.118   3.981   5.035  0.3357 -0.8585  0.1152
  871MOL0     H14929   2.268   3.891   5.002 -1.7237 -0.1581  1.2793
  871MOL0     H14930   2.042   4.007   4.820  1.7809  2.9468  0.0518
  871MOL0     H14931   2.199   3.958   4.752 -2.8939  0.6565 -2.0928
  871MOL0     H14932   2.151   3.725   4.883  2.6805  3.3007  0.8651
  871MOL0     H14933   2.064   3.770   4.728  0.3811 -2.5928  1.2591
  871MOL0     H14934   1.800   3.856   4.699  0.1762  0.1539 -0.5955
  871MOL0     H14935   1.625   3.711   4.589 -3.0884  0.3146  2.2141
  871MOL0     H14936   1.560   3.185   4.502 -0.0344 -1.2813 -0.0215
  871MOL0     H14937   1.391   3.018   4.426 -1.1966  0.9257 -1.4822
  871MOL0     H14938   0.997   3.092   4.526  2.1359  1.5590  3.3203
  871MOL0     H14939   0.988   2.947   4.614  1.5111  2.8216  1.6973
  871MOL0     H14940   0.998   2.811   4.402 -0.8056 -1.4922  1.2504
  871MOL0     H14941   0.970   2.959   4.303 -0.6439  1.3546  1.4396
  871MOL0     H14942   0.769   2.833   4.327  0.6149  2.1764 -1.8122
  871MOL0     H14943   0.746   2.993   4.402 -1.9006 -1.7105 -0.5832
  871MOL0     H14944   0.820   2.769   4.580  1.2568  2.2046  0.7681
  871MOL0     H14945   0.755   2.931   4.616 -2.7958  0.8163 -1.1642
  871MOL0     H14946   0.591   2.763   4.639  3.5997 -2.8211  0.5272
  871MOL0     H14947   0.616   2.704   4.478  2.4549 -0.6715  1.9210
  871MOL0     H14948   0.534   2.951   4.405  0.1997 -1.1786 -0.7472
  871MOL0     H14949   0.527   2.989   4.577  1.0076 -0.0283  0.6000
  871MOL0     H14950   0.300   2.932   4.451  0.9202  0.8319 -0.4302
  871MOL0     H14951   0.369   2.773   4.423 -1.2453 -0.6426 -0.0073
  871MOL0     H14952   0.372   2.754   4.680 -0.4566  0.5535  1.1067
  871MOL0     H14953   0.212   2.740   4.600 -0.7882  1.6021  1.3178
  871MOL0     H14954   1.124   3.126   4.725 -0.4508 -1.0173 -1.3383
  871MOL0     H14955   1.298   3.264   4.836  0.1293 -1.7612  0.8228
  871MOL0     H14956   1.689   3.417   4.895 -0.5767  0.2504 -1.3561
  871MOL0     H14957   1.880   3.553   4.989 -3.3901 -0.1676  1.4961
  871MOL0     H14958   3.710   4.235   4.375  2.6093  2.3321 -1.4904
  871MOL0     H14959   3.918   4.243   4.212 -1.5254 -0.4318 -0.6644
  871MOL0     H14960   4.272   3.812   3.936  1.8726  0.1491 -1.6554
  871MOL0     H14961   4.486   3.863   3.840  0.2104  0.0357 -0.1280
  871MOL0     H14962   4.760   4.178   3.984 -0.5113 -2.0470  0.9087
  871MOL0     H14963   4.673   4.268   3.858 -1.9540 -1.3737 -2.4673
  871MOL0     H14964   4.812   4.132   3.689 -2.2215 -0.8878  0.7744
  871MOL0     H14965   4.910   4.238   3.775  0.1659 -0.9467 -1.6526
  871MOL0     H14966   4.898   3.934   3.777  0.7240 -0.3956 -0.9294
  871MOL0     H14967   4.902   3.997   3.945 -2.5066  1.8125 -0.4040
  871MOL0     H14968   5.112   4.133   3.868 -1.4138 -0.0204  1.6803
  871MOL0     H14969   5.143   3.965   3.839  0.5989  0.4785 -0.0762
  871MOL0     H14970   5.117   4.133   3.450  0.0081  0.6310  1.0088
  871MOL0     H14971   4.520   4.216   4.044 -0.5430 -0.6444  0.3040
  871MOL0     H14972   4.290   4.194   4.141  2.5001  3.1527 -3.1085
  872MOL0     O14973   5.073   2.175   3.666 -0.2808 -0.2020 -0.0835
  872MOL0     C14974   5.086   2.285   3.720 -0.4451  0.3798  0.5262
  872MOL0     O14975   4.986   2.339   3.796  0.0523  0.0228  0.1202
  872MOL0     C14976   4.853   2.306   3.784 -0.3242  0.6310  0.8684
  872MOL0     C14977   4.796   2.219   3.684 -0.0001 -0.3055  0.2922
  872MOL0     C14978   4.666   2.174   3.707 -0.3855 -0.3205  0.4687
  872MOL0     C14979   4.591   2.207   3.817 -0.9368 -0.1547  0.2638
  872MOL0     O14980   4.467   2.159   3.846  0.1098  0.4772 -0.4145
  872MOL0     C14981   4.393   2.080   3.748 -0.2233 -0.0792 -0.1287
  872MOL0     C14982   4.251   2.065   3.789  0.3457 -0.7090 -0.1311
  872MOL0     C14983   4.198   1.935   3.732 -0.4519 -0.7191  0.2052
  872MOL0     C14984   4.052   1.923   3.769 -0.1027 -0.1155 -0.8293
  872MOL0     C14985   3.952   2.042   3.749 -0.4596 -0.0601 -0.2557
  872MOL0     C14986   3.804   1.984   3.757  0.0973  0.5818  0.6992
  872MOL0     C14987   3.709   2.072   3.676  0.2241 -0.0477  0.2213
  872MOL0     C14988   3.576   2.053   3.744  0.0279 -0.6106  0.3115
  872MOL0     N14989   3.476   1.986   3.662  0.0150  0.4846  1.0136
  872MOL0     C14990   3.464   1.849   3.650 -0.0132  0.1040  0.2954
  872MOL0     C14991   3.371   1.824   3.548 -0.4213 -0.9754  0.0207
  872MOL0     C14992   3.318   1.692   3.522 -0.3071  0.2692  1.2373
  872MOL0     C14993   3.173   1.674   3.552  0.6686  0.2383  0.2677
  872MOL0     C14994   3.119   1.539   3.498 -1.1657 -0.0562 -0.6274
  872MOL0     C14995   2.980   1.498   3.553  0.3429 -0.8394 -0.2644
  872MOL0     O14996   2.940   1.363   3.515 -0.2755  0.7624 -0.4212
  872MOL0     C14997   2.809   1.345   3.539  0.0789  0.4974  0.2880
  872MOL0     C14998   2.721   1.433   3.599  0.3424 -0.0594  0.0119
  872MOL0     C14999   2.590   1.400   3.620 -0.7295  0.0043  0.1003
  872MOL0     C15000   2.549   1.270   3.586 -1.3062  0.1450  0.3419
  872MOL0     C15001   2.406   1.237   3.603  0.4094  0.7043 -0.0820
  872MOL0     O15002   2.362   1.115   3.590  0.1496 -0.0948  0.6297
  872MOL0     C15003   2.227   1.098   3.603  0.0817 -0.0958  0.1282
  872MOL0     C15004   2.156   1.106   3.724 -0.7892  0.1880 -0.3917
  872MOL0     C15005   2.023   1.067   3.734 -0.2582  0.4970 -0.0035
  872MOL0     C15006   1.958   1.027   3.614  0.1199 -0.8514 -0.0641
  872MOL0     O15007   1.818   0.988   3.617 -0.9905 -0.8256 -0.3737
  872MOL0     C15008   1.778   0.915   3.501  0.4529  0.3169  0.1934
  872MOL0     C15009   1.649   0.846   3.517  0.0423  0.4321  0.3773
  872MOL0     C15010   1.524   0.938   3.570 -0.4305 -0.3325 -0.2352
  872MOL0     C15011   1.402   0.848   3.575  0.1004 -0.9564 -0.1282
  872MOL0     C15012   1.285   0.914   3.630 -0.0952 -0.3019  0.5035
  872MOL0     C15013   1.170   0.812   3.621 -0.1585 -0.0309 -0.2777
  872MOL0     C15014   1.037   0.870   3.664 -0.0584  0.1300 -0.1135
  872MOL0     C15015   0.948   0.768   3.725 -0.0556 -0.7145 -1.1381
  872MOL0    Cl15016   0.924   0.616   3.634  0.2530  0.0202  0.0263
  872MOL0     C15017   2.029   1.030   3.491  0.0688  0.0319  0.1530
  872MOL0     C15018   2.159   1.067   3.485  0.1069  0.3570 -0.4290
  872MOL0     O15019   2.331   1.330   3.632 -0.2909  0.2177  0.0899
  872MOL0     C15020   2.644   1.175   3.539  0.5278 -0.6116  0.3553
  872MOL0     C15021   2.769   1.215   3.521 -0.3020  0.2620  0.7529
  872MOL0     N15022   3.329   1.946   3.499  0.1588  0.3477  0.3272
  872MOL0     N15023   3.384   2.037   3.578  0.6568 -0.3541  0.4783
  872MOL0     C15024   4.640   2.301   3.909 -0.0102 -0.4782  0.2932
  872MOL0     C15025   4.770   2.352   3.885  0.6958 -0.0541 -0.6422
  872MOL0     C15026   5.222   2.351   3.733  1.0580 -0.3115  0.1157
  872MOL0     C15027   5.232   2.487   3.753  0.4804  0.2192 -0.3408
  872MOL0     C15028   5.351   2.547   3.769  0.0220 -0.5267  0.3748
  872MOL0     C15029   5.474   2.493   3.772  0.2365 -0.4836  0.8493
  872MOL0     O15030   5.586   2.578   3.790  0.5060 -0.4921  0.2449
  872MOL0     C15031   5.711   2.520   3.791 -0.2566 -0.0078  0.5711
  872MOL0     C15032   5.825   2.620   3.810  0.1117  0.8327 -0.0049
  872MOL0     C15033   5.850   2.716   3.691 -0.0965  0.3160 -0.2577
  872MOL0     C15034   5.926   2.838   3.734  0.4734  0.2750 -0.4364
  872MOL0     C15035   6.034   2.896   3.641  0.5309  0.1828 -0.2513
  872MOL0     C15036   6.129   2.940   3.577 -0.1864 -0.3676 -0.0831
  872MOL0     C15037   5.466   2.357   3.755 -0.9433  0.5591 -0.1192
  872MOL0     C15038   5.349   2.286   3.729 -0.4813 -0.0130  0.5760
  872MOL0     H15039   4.846   2.191   3.592 -2.9207 -0.9628 -1.2114
  872MOL0     H15040   4.619   2.124   3.624  0.0124 -0.2618  0.2065
  872MOL0     H15041   4.449   1.986   3.745  2.8257  1.5885 -2.9390
  872MOL0     H15042   4.399   2.130   3.650  1.8611  1.7122  0.8266
  872MOL0     H15043   4.189   2.148   3.755  0.7911  0.3732  1.5892
  872MOL0     H15044   4.245   2.060   3.898  0.3357  1.9199  0.0436
  872MOL0     H15045   4.253   1.844   3.755 -2.0215 -1.3655  1.5791
  872MOL0     H15046   4.205   1.955   3.625  3.9512  2.7206  0.8580
  872MOL0     H15047   4.008   1.837   3.718  0.3149  0.4634 -2.2193
  872MOL0     H15048   4.049   1.905   3.877  0.4206  0.9161 -0.6311
  872MOL0     H15049   3.964   2.093   3.653  3.2819  2.0548  1.1192
  872MOL0     H15050   3.969   2.121   3.823  0.5123  0.7564 -1.3241
  872MOL0     H15051   3.787   1.978   3.865 -2.4244  1.2189  0.3840
  872MOL0     H15052   3.802   1.881   3.718 -1.1398  0.8517  0.0030
  872MOL0     H15053   3.735   2.178   3.675 -0.2995  0.0797 -0.6469
  872MOL0     H15054   3.710   2.048   3.570 -1.4168 -2.1607  0.6074
  872MOL0     H15055   3.543   2.155   3.768  1.2465  0.0676 -0.7694
  872MOL0     H15056   3.573   2.010   3.844  0.8192  2.9633  2.0147
  872MOL0     H15057   3.516   1.780   3.716  0.4999  2.4710  2.5463
  872MOL0     H15058   3.359   1.607   3.578 -0.8277 -0.9529 -0.1582
  872MOL0     H15059   3.341   1.671   3.417 -0.0821  3.4209  0.5457
  872MOL0     H15060   3.107   1.758   3.527  0.4633  1.3627  3.9920
  872MOL0     H15061   3.170   1.679   3.661 -1.2520 -2.8899  0.5011
  872MOL0     H15062   3.126   1.524   3.390 -2.5016 -2.4512 -0.4592
  872MOL0     H15063   3.184   1.463   3.542  0.0027  0.3463 -1.6228
  872MOL0     H15064   2.909   1.568   3.507  0.1884  0.0630  1.3017
  872MOL0     H15065   2.977   1.502   3.662  2.9007 -1.5433 -0.0956
  872MOL0     H15066   2.752   1.535   3.619  0.2553  0.4366 -2.1665
  872MOL0     H15067   2.520   1.472   3.661  0.5505 -0.7025  3.9225
  872MOL0     H15068   2.191   1.140   3.820 -4.4776  0.7634  0.9052
  872MOL0     H15069   1.971   1.063   3.829 -1.6490  1.2426 -0.6984
  872MOL0     H15070   1.847   0.836   3.473 -0.7372 -0.5484 -0.3764
  872MOL0     H15071   1.781   0.989   3.421 -0.1030 -2.7371 -2.9132
  872MOL0     H15072   1.667   0.766   3.589  0.4180  1.1016  1.0452
  872MOL0     H15073   1.619   0.794   3.426 -1.9468 -1.0425  1.7959
  872MOL0     H15074   1.501   1.021   3.503 -0.3264  0.6871  0.9531
  872MOL0     H15075   1.543   0.984   3.667  2.9501 -0.6670 -0.6133
  872MOL0     H15076   1.364   0.829   3.474 -0.3321 -1.6224  0.1551
  872MOL0     H15077   1.416   0.753   3.627 -2.3429 -1.4222 -0.1988
  872MOL0     H15078   1.272   1.006   3.572  0.7800 -0.7144 -0.3743
  872MOL0     H15079   1.304   0.940   3.735 -1.1598  0.9407  0.4199
  872MOL0     H15080   1.197   0.721   3.676  1.4908  1.9550  2.4871
  872MOL0     H15081   1.155   0.787   3.516  1.7806 -0.9471 -0.3661
  872MOL0     H15082   1.048   0.945   3.743  0.0483 -0.7908  0.7764
  872MOL0     H15083   0.991   0.908   3.573 -0.6703  0.0603  0.1644
  872MOL0     H15084   0.850   0.812   3.743 -0.0747 -0.8536 -0.8912
  872MOL0     H15085   0.984   0.739   3.824  1.9517  2.3185 -0.8303
  872MOL0     H15086   1.983   1.005   3.395 -2.0031 -0.8529  1.3038
  872MOL0     H15087   2.228   1.060   3.402 -0.1231  0.1974 -0.6058
  872MOL0     H15088   2.623   1.071   3.516 -2.8571  0.4845 -2.3467
  872MOL0     H15089   2.843   1.145   3.483 -2.0554 -1.1647 -0.2211
  872MOL0     H15090   4.588   2.329   4.000  0.0288  0.3016  0.0826
  872MOL0     H15091   4.818   2.416   3.958 -0.7013 -0.8594  1.0966
  872MOL0     H15092   5.144   2.547   3.775 -0.7133 -1.9126  1.0994
  872MOL0     H15093   5.363   2.655   3.776  1.4874 -0.1514 -4.5548
  872MOL0     H15094   5.717   2.475   3.691 -0.3479 -0.7739  0.9057
  872MOL0     H15095   5.717   2.442   3.867  0.8666 -0.0540  0.4506
  872MOL0     H15096   5.807   2.676   3.902 -0.4222  0.0318  0.3943
  872MOL0     H15097   5.914   2.559   3.824 -1.3460 -1.7898 -1.2734
  872MOL0     H15098   5.756   2.751   3.647 -0.0069  1.5087  0.4437
  872MOL0     H15099   5.906   2.664   3.613 -1.7026 -2.5027  0.3085
  872MOL0     H15100   5.860   2.926   3.742 -0.5579 -0.1102 -3.3277
  872MOL0     H15101   5.977   2.813   3.827 -1.3874 -0.8796  0.3215
  872MOL0     H15102   6.215   2.983   3.530  1.0055 -0.2433  2.0640
  872MOL0     H15103   5.557   2.305   3.785 -2.4381 -2.5289 -0.6054
  872MOL0     H15104   5.359   2.179   3.736 -1.1036 -0.0705  0.6584
  873MOL0     O15105   2.250   0.185   5.775  0.1860 -0.4353  0.4954
  873MOL0     C15106   2.266   0.305   5.793  0.6980 -0.1858  0.3290
  873MOL0     O15107   2.173   0.402   5.780  0.2222  0.2099 -0.6650
  873MOL0     C15108   2.042   0.367   5.752 -0.1498 -0.6341 -0.2455
  873MOL0     C15109   1.956   0.377   5.860 -0.4034  1.0784  0.3549
  873MOL0     C15110   1.822   0.352   5.843 -0.1031 -0.3282 -0.5775
  873MOL0     C15111   1.765   0.338   5.718  0.3918  0.5168  0.2264
  873MOL0     O15112   1.626   0.325   5.684 -0.6546 -0.0223  0.8025
  873MOL0     C15113   1.526   0.314   5.787  0.2192  0.1492  0.4833
  873MOL0     C15114   1.392   0.314   5.716  0.0819 -1.7097 -0.6699
  873MOL0     C15115   1.276   0.349   5.818 -0.5238  0.0232 -0.4268
  873MOL0     C15116   1.149   0.294   5.759  1.0341 -0.3900  0.3148
  873MOL0     C15117   1.039   0.292   5.864  0.0268 -0.4671 -0.3292
  873MOL0     C15118   0.919   0.204   5.826  0.5969 -0.0799 -0.8618
  873MOL0     C15119   0.799   0.214   5.927 -0.3738  0.4121 -0.2857
  873MOL0     C15120   0.693   0.108   5.884  0.0144  0.2171  0.1802
  873MOL0     N15121   0.569   0.123   5.969 -0.4331  0.4228 -0.0771
  873MOL0     C15122   0.481   0.224   5.969  0.7487 -0.2742  0.1104
  873MOL0     C15123   0.393   0.188   6.068  0.2278 -0.5565  0.4121
  873MOL0     C15124   0.268   0.266   6.114  0.0469 -0.4423 -0.1279
  873MOL0     C15125   0.144   0.233   6.023  0.9166  0.1036 -0.1484
  873MOL0     C15126   0.012   0.317   6.062  0.2331  0.4065  0.3626
  873MOL0     C15127  -0.107   0.263   5.987  0.6080  0.7589  0.4152
  873MOL0     O15128  -0.209   0.367   6.009  0.7295 -0.0531  0.3069
  873MOL0     C15129  -0.337   0.317   6.003 -0.9906  1.9988 -0.5165
  873MOL0     C15130  -0.382   0.198   5.933  0.8779 -0.0499 -0.9859
  873MOL0     C15131  -0.512   0.136   5.948  1.1527 -0.5574  0.4292
  873MOL0     C15132  -0.602   0.207   6.034  0.3256 -0.7960 -0.0883
  873MOL0     C15133  -0.741   0.157   6.045  0.4343  0.3276  0.9030
  873MOL0     O15134  -0.851   0.240   6.082  0.7939 -0.4437 -0.2418
  873MOL0     C15135  -0.979   0.180   6.095 -0.3947 -0.1373 -0.7203
  873MOL0     C15136  -1.014   0.055   6.149 -0.5522  0.6350 -0.5677
  873MOL0     C15137  -1.147   0.009   6.155  0.1243 -0.6177  0.3770
  873MOL0     C15138  -1.249   0.091   6.117  0.0582  0.4712 -0.1264
  873MOL0     O15139  -1.372   0.054   6.154  0.3763  0.7039 -1.2258
  873MOL0     C15140  -1.403  -0.092   6.159 -0.3706 -0.9297 -0.4974
  873MOL0     C15141  -1.549  -0.123   6.150  0.0108  0.3822 -0.3441
  873MOL0     C15142  -1.567  -0.255   6.082 -0.4425  1.3806 -0.0093
  873MOL0     C15143  -1.713  -0.270   6.034 -0.5964  0.1429 -0.1121
  873MOL0     C15144  -1.814  -0.274   6.150 -0.1340  0.7830  0.4017
  873MOL0     C15145  -1.950  -0.288   6.087 -0.0052 -0.0588  0.5178
  873MOL0     C15146  -1.995  -0.430   6.032  0.4483 -1.0168  0.2912
  873MOL0     C15147  -2.142  -0.446   6.041  0.8043  0.1430  0.4021
  873MOL0    Cl15148  -2.213  -0.326   5.937  0.2424 -0.2820  0.0369
  873MOL0     C15149  -1.218   0.215   6.057  0.1058 -0.3613  0.1061
  873MOL0     C15150  -1.085   0.263   6.051  0.2296 -1.1321  0.1503
  873MOL0     O15151  -0.754   0.036   6.019 -0.1632  0.1321 -0.5040
  873MOL0     C15152  -0.557   0.320   6.097 -0.0656  0.4849  0.1435
  873MOL0     C15153  -0.424   0.378   6.086 -0.1095  0.1456  1.1266
  873MOL0     N15154   0.437   0.069   6.125 -0.1189 -1.0841  0.1600
  873MOL0     N15155   0.544   0.029   6.072 -0.8365  0.1487  0.0625
  873MOL0     C15156   1.856   0.316   5.614  0.4652 -0.2823 -0.6387
  873MOL0     C15157   1.992   0.326   5.631  0.5345 -0.1090  0.4579
  873MOL0     C15158   2.402   0.344   5.844 -0.4548  0.2405 -0.4975
  873MOL0     C15159   2.481   0.239   5.893  0.0285  0.1007  0.7741
  873MOL0     C15160   2.608   0.265   5.951 -1.1437 -0.4360  0.3192
  873MOL0     C15161   2.651   0.397   5.965  0.7666  0.3134 -0.1591
  873MOL0     O15162   2.770   0.417   6.022  0.3004  0.6185  0.7423
  873MOL0     C15163   2.848   0.537   6.015 -0.8192  0.0255  0.4527
  873MOL0     C15164   2.921   0.551   5.886 -1.1455 -0.3934  0.3879
  873MOL0     C15165   3.026   0.442   5.861  0.7655 -0.2828 -0.4861
  873MOL0     C15166   3.125   0.470   5.751 -1.5487  0.0346  0.1024
  873MOL0     C15167   3.233   0.570   5.779 -0.4741 -0.3051  0.6299
  873MOL0     C15168   3.328   0.641   5.796 -0.2612  0.8462  0.2807
  873MOL0     C15169   2.573   0.498   5.905 -1.4802  0.0095  0.4984
  873MOL0     C15170   2.454   0.470   5.839  0.3672  0.4343  1.0685
  873MOL0     H15171   1.986   0.397   5.963 -1.3174  0.7656  0.6849
  873MOL0     H15172   1.763   0.367   5.933 -3.5789 -0.2498 -2.6722
  873MOL0     H15173   1.537   0.396   5.859  1.9010  0.7542 -0.3920
  873MOL0     H15174   1.549   0.220   5.837  2.0192  0.1049 -0.3653
  873MOL0     H15175   1.381   0.208   5.696  3.2357 -2.1078 -0.8897
  873MOL0     H15176   1.392   0.368   5.621 -2.7500 -3.0834 -1.5441
  873MOL0     H15177   1.275   0.458   5.825  2.3677  0.2100 -1.4510
  873MOL0     H15178   1.287   0.304   5.917 -3.9221 -1.8727 -0.7479
  873MOL0     H15179   1.122   0.339   5.663  0.2296 -3.3547 -0.9462
  873MOL0     H15180   1.176   0.191   5.736  0.1439 -1.0674  2.1021
  873MOL0     H15181   1.009   0.396   5.883  0.8316 -0.4551  0.9640
  873MOL0     H15182   1.084   0.239   5.948  0.1597 -1.3855 -0.9652
  873MOL0     H15183   0.956   0.101   5.814  3.4844  0.7547 -0.0795
  873MOL0     H15184   0.897   0.244   5.727  1.9330  1.8362 -0.4388
  873MOL0     H15185   0.827   0.179   6.027 -2.7013 -0.1389  0.2325
  873MOL0     H15186   0.766   0.318   5.930  0.4737  0.6741  0.1665
  873MOL0     H15187   0.744   0.013   5.897 -0.8042 -0.1389  0.9103
  873MOL0     H15188   0.667   0.114   5.778  0.9178  0.0801 -0.0546
  873MOL0     H15189   0.477   0.304   5.895  0.3138 -2.5102 -2.4239
  873MOL0     H15190   0.289   0.373   6.120 -2.5827  0.1168 -0.0703
  873MOL0     H15191   0.252   0.234   6.217  1.6843  3.8974  1.7074
  873MOL0     H15192   0.126   0.125   6.023  2.5244 -0.2015 -1.4788
  873MOL0     H15193   0.161   0.257   5.917  0.1501 -1.0333 -0.5488
  873MOL0     H15194   0.009   0.317   6.172  2.7326 -0.6466  0.4894
  873MOL0     H15195   0.024   0.424   6.042  0.1378  0.8891  2.5280
  873MOL0     H15196  -0.131   0.170   6.041  3.2607  1.0844  2.3803
  873MOL0     H15197  -0.088   0.240   5.882  0.0207 -4.2714  1.1701
  873MOL0     H15198  -0.314   0.131   5.880  0.5648 -3.0614  2.0809
  873MOL0     H15199  -0.540   0.046   5.895  3.0502 -0.4213 -0.9226
  873MOL0     H15200  -0.932  -0.010   6.180  0.4261  3.5067  3.6533
  873MOL0     H15201  -1.156  -0.085   6.209  3.4309 -0.1099  2.0928
  873MOL0     H15202  -1.370  -0.123   6.258  2.6493  0.9726 -0.8006
  873MOL0     H15203  -1.352  -0.148   6.080 -0.9687  0.8620 -2.2534
  873MOL0     H15204  -1.594  -0.048   6.084 -1.7531 -1.3157 -1.1644
  873MOL0     H15205  -1.609  -0.127   6.241 -1.7540  1.8617 -1.3733
  873MOL0     H15206  -1.550  -0.343   6.145  0.1776  1.7590  0.3597
  873MOL0     H15207  -1.497  -0.261   5.998 -0.9494 -0.3985 -0.3571
  873MOL0     H15208  -1.725  -0.202   5.949  0.5219  0.6896  0.1428
  873MOL0     H15209  -1.714  -0.368   5.986  1.7638 -0.0855  0.1836
  873MOL0     H15210  -1.810  -0.179   6.203  3.9330 -0.8561  3.6039
  873MOL0     H15211  -1.801  -0.349   6.228  3.5368 -1.5838 -2.1261
  873MOL0     H15212  -1.957  -0.211   6.010  1.9435 -0.7091 -0.3690
  873MOL0     H15213  -2.027  -0.262   6.161 -0.3826 -2.1895  0.9296
  873MOL0     H15214  -1.960  -0.438   5.928 -1.2535 -4.2310 -0.1840
  873MOL0     H15215  -1.948  -0.509   6.092  1.7129 -0.1417  0.4752
  873MOL0     H15216  -2.174  -0.448   6.145  1.5147 -0.1138  0.6221
  873MOL0     H15217  -2.177  -0.539   5.994  2.0692 -0.4124  0.5226
  873MOL0     H15218  -1.302   0.281   6.035 -2.4959 -2.4480  2.8479
  873MOL0     H15219  -1.070   0.365   6.014 -3.1092 -0.5800 -0.0378
  873MOL0     H15220  -0.628   0.368   6.164 -2.4541 -0.0464 -1.8598
  873MOL0     H15221  -0.406   0.468   6.145  0.1203 -0.0009  1.2800
  873MOL0     H15222   1.817   0.288   5.517 -2.6797 -0.2063  0.4705
  873MOL0     H15223   2.058   0.314   5.545 -1.3938 -0.1644 -1.0963
  873MOL0     H15224   2.449   0.136   5.897  0.0596  0.1092  1.2871
  873MOL0     H15225   2.676   0.185   5.981 -0.1813  0.5745  0.9070
  873MOL0     H15226   2.924   0.547   6.093 -0.3469  0.8923 -0.0988
  873MOL0     H15227   2.782   0.624   6.013 -0.6684  0.2062 -2.5222
  873MOL0     H15228   2.849   0.563   5.804 -0.8339  0.2587  0.2112
  873MOL0     H15229   2.973   0.646   5.879 -1.0295 -0.5338 -0.7901
  873MOL0     H15230   2.977   0.348   5.834 -2.2440  0.5826  1.4888
  873MOL0     H15231   3.088   0.421   5.948 -0.2841 -1.4508  0.0098
  873MOL0     H15232   3.171   0.373   5.734 -0.4026  0.5869  0.0025
  873MOL0     H15233   3.078   0.507   5.659 -0.2178  0.2388 -0.5132
  873MOL0     H15234   3.407   0.707   5.826 -1.0072  2.2789 -0.7971
  873MOL0     H15235   2.606   0.602   5.912  2.4491 -0.8121 -2.4259
  873MOL0     H15236   2.382   0.541   5.799 -0.4364 -0.1154  1.5130
  874MOL0     O15237   7.212  11.037   1.096 -0.0220 -0.3237  0.4620
  874MOL0     C15238   7.196  11.152   1.139  0.0247 -0.5824  0.8794
  874MOL0     O15239   7.086  11.198   1.204 -0.0222 -0.0053  0.4691
  874MOL0     C15240   6.981  11.121   1.231  0.0807 -0.2719 -0.2778
  874MOL0     C15241   6.920  11.039   1.134  0.2537  0.2981  0.0210
  874MOL0     C15242   6.804  10.967   1.179 -0.2440 -0.2147 -0.1364
  874MOL0     C15243   6.758  10.982   1.305 -0.8805  0.5070 -0.1232
  874MOL0     O15244   6.641  10.916   1.343 -0.1424 -0.4222  0.4008
  874MOL0     C15245   6.633  10.878   1.483  0.2042 -1.3171 -0.2195
  874MOL0     C15246   6.515  10.787   1.504 -0.3887  0.5401 -0.4905
  874MOL0     C15247   6.380  10.863   1.503  0.0755 -0.3225 -1.4900
  874MOL0     C15248   6.263  10.784   1.565  0.4244  0.2386  0.1102
  874MOL0     C15249   6.134  10.867   1.569  0.2391  0.0756  0.3075
  874MOL0     C15250   6.034  10.816   1.670 -0.2280  0.1373  0.5995
  874MOL0     C15251   5.891  10.864   1.642 -0.2713  0.1221 -0.7735
  874MOL0     C15252   5.868  10.999   1.725 -0.5310  0.8996 -0.3818
  874MOL0     N15253   5.769  11.087   1.659  0.2085 -0.3357 -0.6391
  874MOL0     C15254   5.647  11.047   1.600  0.1585 -0.0693  0.3385
  874MOL0     C15255   5.606  11.155   1.530 -0.4392 -0.2915 -1.2775
  874MOL0     C15256   5.464  11.162   1.482 -0.4142  0.2067  0.6612
  874MOL0     C15257   5.363  11.220   1.580 -0.5555  0.8320  0.0095
  874MOL0     C15258   5.406  11.359   1.623  0.1348  0.4651  0.0474
  874MOL0     C15259   5.300  11.428   1.705  0.5949 -0.0803  0.4192
  874MOL0     O15260   5.257  11.353   1.819  0.1776  0.2976  0.0307
  874MOL0     C15261   5.126  11.333   1.837  0.1531  0.3579  0.1378
  874MOL0     C15262   5.076  11.199   1.853 -0.2156 -0.1608  0.5114
  874MOL0     C15263   4.938  11.173   1.876 -0.2019  0.6036  0.2972
  874MOL0     C15264   4.845  11.279   1.868 -0.4390  0.4015 -0.8747
  874MOL0     C15265   4.704  11.250   1.883  0.2633  0.0632 -0.7480
  874MOL0     O15266   4.675  11.127   1.941  0.1249  0.4023  0.1290
  874MOL0     C15267   4.546  11.108   1.965  0.3184 -0.0505  1.1626
  874MOL0     C15268   4.482  11.160   2.076 -0.1207 -0.1755 -0.7239
  874MOL0     C15269   4.338  11.146   2.085 -0.6784 -0.8120 -0.5063
  874MOL0     C15270   4.267  11.075   1.982  0.3438 -0.3628 -0.0053
  874MOL0     O15271   4.132  11.069   2.005  0.5224 -0.2199 -0.0638
  874MOL0     C15272   4.042  11.053   1.892  0.2242  0.6324 -0.5943
  874MOL0     C15273   3.895  11.041   1.939 -0.6139  0.2466 -0.0916
  874MOL0     C15274   3.810  11.050   1.815 -0.4925  0.5021 -0.7394
  874MOL0     C15275   3.662  11.034   1.854 -0.8195 -0.5894 -0.2060
  874MOL0     C15276   3.582  11.026   1.729  0.9221 -0.4049  0.5179
  874MOL0     C15277   3.429  11.015   1.769  0.2451  0.1271 -0.2945
  874MOL0     C15278   3.340  10.967   1.648 -0.0152  0.7801 -0.3793
  874MOL0     C15279   3.187  10.995   1.686  0.1764 -0.1246 -0.1880
  874MOL0    Cl15280   3.136  10.843   1.761 -0.1347  0.3867  0.0704
  874MOL0     C15281   4.332  11.015   1.874  0.1487 -0.2870  0.5685
  874MOL0     C15282   4.473  11.029   1.871  0.2655  0.8210  0.0968
  874MOL0     O15283   4.626  11.338   1.847 -0.4308  0.7839  0.6860
  874MOL0     C15284   4.890  11.414   1.841  0.3858  1.1591 -0.4850
  874MOL0     C15285   5.032  11.432   1.824 -0.0203 -0.1162 -0.1835
  874MOL0     N15286   5.708  11.255   1.528  0.2815  0.5391 -0.2347
  874MOL0     N15287   5.800  11.207   1.602 -0.0376  0.2113 -0.3097
  874MOL0     C15288   6.820  11.070   1.401 -0.1718  0.0126  0.0320
  874MOL0     C15289   6.929  11.138   1.354  0.6370 -0.8151 -0.4734
  874MOL0     C15290   7.308  11.243   1.121 -0.4785  0.0010  0.0759
  874MOL0     C15291   7.437  11.206   1.161  0.8920 -0.0364  0.0147
  874MOL0     C15292   7.548  11.288   1.142 -0.3843  0.2764  0.1200
  874MOL0     C15293   7.545  11.414   1.073  1.2877 -0.6763 -0.3035
  874MOL0     O15294   7.649  11.502   1.057  0.6004 -0.0404  0.0133
  874MOL0     C15295   7.695  11.544   0.923  0.8022 -0.0833 -0.0637
  874MOL0     C15296   7.725  11.690   0.935 -0.3744  0.3479  0.1652
  874MOL0     C15297   7.785  11.734   0.799  0.2413  0.1815 -1.0066
  874MOL0     C15298   7.730  11.868   0.762 -0.7846  0.3855  0.6641
  874MOL0     C15299   7.757  11.984   0.844 -0.1183 -0.6256 -0.1208
  874MOL0     C15300   7.780  12.082   0.917 -0.6475  0.7979 -0.5699
  874MOL0     C15301   7.409  11.452   1.038  0.4109 -0.4821 -0.6806
  874MOL0     C15302   7.294  11.368   1.061  0.5512  0.2518  0.9344
  874MOL0     H15303   6.968  11.028   1.037 -3.5111  0.0846 -2.0021
  874MOL0     H15304   6.747  10.905   1.111 -2.9927 -1.7996  3.2838
  874MOL0     H15305   6.626  10.965   1.549  0.1944 -0.5154 -1.2565
  874MOL0     H15306   6.728  10.828   1.503  0.4660 -1.7394 -2.3227
  874MOL0     H15307   6.521  10.752   1.607  1.6049 -1.3942 -1.1905
  874MOL0     H15308   6.514  10.704   1.433 -0.5660 -0.3352  0.5018
  874MOL0     H15309   6.349  10.890   1.401  1.6307  0.3735 -1.8055
  874MOL0     H15310   6.390  10.952   1.565 -2.0474 -2.4205  2.2008
  874MOL0     H15311   6.241  10.689   1.515 -1.0622  1.5021 -1.7936
  874MOL0     H15312   6.285  10.742   1.664 -0.2508 -0.2396  0.0612
  874MOL0     H15313   6.085  10.862   1.471 -1.6177  2.8396  0.9514
  874MOL0     H15314   6.147  10.974   1.589 -0.0568  0.7247 -2.6278
  874MOL0     H15315   6.068  10.833   1.773 -0.8706  0.5054  0.7609
  874MOL0     H15316   6.029  10.708   1.657  1.0017 -0.1247  2.0395
  874MOL0     H15317   5.867  10.870   1.535 -1.9372 -0.3663 -0.4536
  874MOL0     H15318   5.819  10.795   1.686 -3.2698  3.3904 -0.0576
  874MOL0     H15319   5.963  11.053   1.729 -0.7472  1.7402 -3.4173
  874MOL0     H15320   5.850  10.976   1.830  0.2830 -4.0970 -1.0477
  874MOL0     H15321   5.591  10.955   1.616 -1.8381  1.1388  0.4838
  874MOL0     H15322   5.433  11.062   1.449 -0.5149  0.5093 -0.1809
  874MOL0     H15323   5.460  11.226   1.393  0.6262  0.1756  0.5716
  874MOL0     H15324   5.344  11.150   1.662 -0.5908  0.9664  0.1147
  874MOL0     H15325   5.268  11.222   1.526 -0.8500 -2.5199  0.1712
  874MOL0     H15326   5.491  11.361   1.692  0.1533 -1.1063  0.1076
  874MOL0     H15327   5.427  11.414   1.531  2.5190  0.6631  0.6321
  874MOL0     H15328   5.209  11.444   1.647 -0.4274  0.1521  2.0042
  874MOL0     H15329   5.335  11.526   1.740  3.2070 -0.9711  0.5015
  874MOL0     H15330   5.142  11.114   1.859 -1.6095 -1.2535  0.8961
  874MOL0     H15331   4.913  11.069   1.896  0.5121  0.2093 -0.7858
  874MOL0     H15332   4.543  11.228   2.135  0.7322 -0.5792 -1.1211
  874MOL0     H15333   4.279  11.185   2.167  4.1477  0.2598  2.9336
  874MOL0     H15334   4.062  10.964   1.832  0.0349 -0.3516  0.7650
  874MOL0     H15335   4.053  11.147   1.836  0.1539  1.4286  0.6863
  874MOL0     H15336   3.886  11.115   2.018 -2.5260 -1.2124  1.1212
  874MOL0     H15337   3.880  10.937   1.970 -1.2428 -1.2543 -4.6130
  874MOL0     H15338   3.839  10.977   1.739 -1.1132  0.3453 -0.8392
  874MOL0     H15339   3.825  11.149   1.772 -3.0367  0.9366 -0.7865
  874MOL0     H15340   3.652  10.945   1.918  0.0999 -0.5971 -0.0697
  874MOL0     H15341   3.621  11.118   1.911 -1.9895  0.0473 -1.9011
  874MOL0     H15342   3.610  10.949   1.655  0.5349  0.1096 -0.1757
  874MOL0     H15343   3.581  11.119   1.671 -3.0774  0.3539  1.4986
  874MOL0     H15344   3.403  11.112   1.814  1.2472  0.0786  0.4388
  874MOL0     H15345   3.405  10.937   1.841 -3.1393  1.0339 -0.2842
  874MOL0     H15346   3.368  11.023   1.559  1.6283 -1.6089 -1.4732
  874MOL0     H15347   3.359  10.860   1.633  1.7414  1.1970 -1.3753
  874MOL0     H15348   3.121  11.023   1.604 -3.4200  0.0980  2.5456
  874MOL0     H15349   3.180  11.079   1.756 -0.0485  0.7976 -1.2904
  874MOL0     H15350   4.272  10.975   1.793 -0.5452  1.6750  0.0621
  874MOL0     H15351   4.521  10.999   1.779 -2.8651  0.8501 -1.6533
  874MOL0     H15352   4.813  11.490   1.839  2.2631  3.2549  1.0574
  874MOL0     H15353   5.063  11.530   1.792 -3.9988  1.9660  1.5983
  874MOL0     H15354   6.789  11.084   1.504  0.2779 -2.2586  0.5398
  874MOL0     H15355   6.986  11.208   1.415  2.4198 -0.5257 -2.3892
  874MOL0     H15356   7.444  11.112   1.215 -2.3923  0.4104  1.4394
  874MOL0     H15357   7.637  11.263   1.199 -1.8576 -0.1109  2.3742
  874MOL0     H15358   7.621  11.534   0.843  0.9723  0.1318 -0.2497
  874MOL0     H15359   7.780  11.478   0.903  0.4660 -1.8297  3.5237
  874MOL0     H15360   7.625  11.735   0.942 -0.5225  0.1897 -0.7651
  874MOL0     H15361   7.792  11.711   1.018  0.5067  1.2136 -0.7349
  874MOL0     H15362   7.755  11.662   0.723 -1.9665  0.3534 -0.3652
  874MOL0     H15363   7.895  11.733   0.807  0.1260 -0.5213  1.8915
  874MOL0     H15364   7.773  11.896   0.665  1.8935  0.4482  1.7866
  874MOL0     H15365   7.624  11.866   0.735  0.0477 -1.9795 -3.2487
  874MOL0     H15366   7.791  12.172   0.972  0.7680  0.8774 -0.9447
  874MOL0     H15367   7.393  11.554   1.004 -0.6875 -1.1272 -2.2186
  874MOL0     H15368   7.191  11.401   1.049  0.0306 -1.1759  1.2933
  875MOL0     O15369   8.648   2.468   2.705  0.1261  0.1549  0.0741
  875MOL0     C15370   8.653   2.415   2.813  0.5476 -0.2809 -0.4251
  875MOL0     O15371   8.549   2.385   2.907  0.7720  0.1757  0.7103
  875MOL0     C15372   8.423   2.423   2.879  0.2424 -0.2088 -1.4745
  875MOL0     C15373   8.322   2.327   2.911  0.7900 -0.2284 -0.6880
  875MOL0     C15374   8.186   2.340   2.887 -0.5649  0.2735 -0.4109
  875MOL0     C15375   8.145   2.461   2.822 -0.3514  0.4065  0.8644
  875MOL0     O15376   8.014   2.468   2.784 -0.4101 -0.1461  0.0734
  875MOL0     C15377   7.945   2.589   2.816  0.2542 -0.4688  0.0189
  875MOL0     C15378   7.792   2.595   2.775 -0.1805  0.6168 -0.1100
  875MOL0     C15379   7.723   2.475   2.832  0.2741  0.2912  0.1083
  875MOL0     C15380   7.578   2.486   2.791 -0.2565 -0.4685  0.9532
  875MOL0     C15381   7.480   2.397   2.873 -0.8286 -0.0904  0.4887
  875MOL0     C15382   7.341   2.455   2.856 -0.2496  0.2619  0.3910
  875MOL0     C15383   7.232   2.375   2.920 -0.1113  0.1208 -0.1411
  875MOL0     C15384   7.204   2.237   2.847  0.1421 -0.1108  0.7147
  875MOL0     N15385   7.124   2.239   2.714 -0.0447 -1.4725 -0.3853
  875MOL0     C15386   7.041   2.145   2.659 -0.0064  0.2325 -0.6053
  875MOL0     C15387   6.999   2.183   2.543 -1.2865  0.2716  0.0498
  875MOL0     C15388   6.914   2.101   2.460  0.8917 -0.1922 -0.5587
  875MOL0     C15389   6.949   2.124   2.304  0.2055 -1.0355 -0.3391
  875MOL0     C15390   6.867   2.046   2.207 -0.4975 -0.1091  0.3310
  875MOL0     C15391   6.713   2.073   2.205  0.1125 -0.3957  0.6119
  875MOL0     O15392   6.648   1.982   2.110 -0.0081 -0.1430  0.0306
  875MOL0     C15393   6.517   1.955   2.115  0.2134 -1.0858  0.5000
  875MOL0     C15394   6.482   1.843   2.042 -0.5673 -0.5604  0.5792
  875MOL0     C15395   6.350   1.795   2.040  0.5761 -0.6788  0.0047
  875MOL0     C15396   6.251   1.866   2.108 -0.1385  0.6664 -0.5438
  875MOL0     C15397   6.096   1.837   2.088  0.4306 -0.3093  0.7028
  875MOL0     O15398   6.010   1.892   2.174 -0.0598 -0.2195 -0.1892
  875MOL0     C15399   5.873   1.886   2.153 -0.4241  0.1256 -0.0048
  875MOL0     C15400   5.791   1.996   2.189  0.7912  0.0304  0.3440
  875MOL0     C15401   5.653   1.991   2.181 -0.0034 -0.5879  0.0745
  875MOL0     C15402   5.586   1.873   2.138  0.0006  0.5455 -0.1748
  875MOL0     O15403   5.449   1.878   2.126 -0.5728 -0.0777 -0.7127
  875MOL0     C15404   5.384   1.770   2.064 -0.8343 -0.4851 -0.3652
  875MOL0     C15405   5.245   1.812   2.046 -0.4368  0.0693 -0.2019
  875MOL0     C15406   5.169   1.716   1.954  0.1382  0.9529 -0.1731
  875MOL0     C15407   5.029   1.757   1.936 -0.0341 -0.3936  0.9468
  875MOL0     C15408   4.950   1.649   1.860  0.0279  1.2632  0.0429
  875MOL0     C15409   4.797   1.655   1.876  0.9850  0.3100 -0.6346
  875MOL0     C15410   4.729   1.532   1.803  0.3288  0.1085  0.3226
  875MOL0     C15411   4.579   1.559   1.822  0.1367  0.1461  0.1081
  875MOL0    Cl15412   4.536   1.484   1.978  0.2993  0.1034  0.1410
  875MOL0     C15413   5.667   1.765   2.101 -0.2162  0.5151 -0.1500
  875MOL0     C15414   5.804   1.764   2.113  0.5700 -1.0323  0.2176
  875MOL0     O15415   6.061   1.777   1.988 -0.3334  0.0649  0.4897
  875MOL0     C15416   6.285   1.983   2.170 -0.2124  0.0121  0.2501
  875MOL0     C15417   6.415   2.025   2.174 -0.0710  0.7367 -0.4149
  875MOL0     N15418   7.052   2.311   2.527  0.6927 -0.0755  0.3946
  875MOL0     N15419   7.109   2.347   2.631 -0.5282  0.8013  0.4280
  875MOL0     C15420   8.241   2.556   2.791 -0.0414  0.4347  0.9320
  875MOL0     C15421   8.377   2.536   2.821 -0.1765  0.0325 -0.6230
  875MOL0     C15422   8.783   2.377   2.861 -0.2235  0.0239  0.1743
  875MOL0     C15423   8.900   2.420   2.800  0.0682  0.7870 -0.0751
  875MOL0     C15424   9.024   2.380   2.856  0.6779  0.9115 -0.8518
  875MOL0     C15425   9.030   2.303   2.978 -0.0548 -0.0396 -0.1820
  875MOL0     O15426   9.144   2.253   3.035 -0.2128  0.1108 -0.2033
  875MOL0     C15427   9.261   2.337   3.047  0.5473 -0.5607  0.5631
  875MOL0     C15428   9.375   2.259   3.121  0.0661  0.3639 -0.2198
  875MOL0     C15429   9.395   2.119   3.058  0.5906  0.3057 -0.1883
  875MOL0     C15430   9.517   2.047   3.114 -0.2011  0.7953  0.5839
  875MOL0     C15431   9.644   2.103   3.072  0.5741 -0.9026  1.0814
  875MOL0     C15432   9.758   2.139   3.041 -0.4539 -0.6268  0.5745
  875MOL0     C15433   8.914   2.266   3.043 -0.9476 -0.1767  0.9822
  875MOL0     C15434   8.794   2.289   2.976  0.2085  0.4472  0.1726
  875MOL0     H15435   8.356   2.233   2.953  1.5638 -0.0430 -0.8767
  875MOL0     H15436   8.125   2.253   2.905  1.7712 -1.1298  1.1134
  875MOL0     H15437   7.984   2.670   2.754  1.4602 -0.0952  1.2106
  875MOL0     H15438   7.955   2.628   2.918 -2.4964  0.2175  0.1126
  875MOL0     H15439   7.788   2.597   2.666 -0.5397  0.2702 -0.1046
  875MOL0     H15440   7.740   2.683   2.814 -1.3822  0.7556 -1.9435
  875MOL0     H15441   7.724   2.476   2.941 -1.6090  1.9062  0.1661
  875MOL0     H15442   7.761   2.381   2.791  0.1845  0.5185 -0.5140
  875MOL0     H15443   7.542   2.589   2.797 -0.2374 -0.5429  3.4424
  875MOL0     H15444   7.566   2.456   2.687 -2.4269 -0.7307  1.2325
  875MOL0     H15445   7.514   2.398   2.977  2.1102 -0.2148 -0.3975
  875MOL0     H15446   7.487   2.293   2.840  1.1504 -0.1595  0.9809
  875MOL0     H15447   7.317   2.453   2.749  3.5652  1.8870 -0.6394
  875MOL0     H15448   7.337   2.560   2.886  1.2319  1.0340 -1.8449
  875MOL0     H15449   7.256   2.341   3.021 -1.7362  1.3546  0.7057
  875MOL0     H15450   7.146   2.439   2.937  0.4043  0.3403  1.8347
  875MOL0     H15451   7.146   2.168   2.909  0.6031  0.5851  1.9613
  875MOL0     H15452   7.301   2.190   2.829  1.0157  2.3232 -1.5342
  875MOL0     H15453   7.030   2.043   2.695 -0.3851  0.2485 -0.6690
  875MOL0     H15454   6.813   2.138   2.475  0.4457 -1.0581 -1.3766
  875MOL0     H15455   6.911   1.994   2.483 -0.9443  0.2374  1.6071
  875MOL0     H15456   7.058   2.115   2.298  0.7766  2.1388  2.3140
  875MOL0     H15457   6.925   2.228   2.278  1.0860 -0.6915  0.2053
  875MOL0     H15458   6.908   2.066   2.108  0.0679 -0.2594  0.5284
  875MOL0     H15459   6.885   1.940   2.224  3.6491  0.2373 -0.8605
  875MOL0     H15460   6.686   2.175   2.175  1.5874 -1.0376 -3.4557
  875MOL0     H15461   6.663   2.055   2.301 -0.0310 -0.5716  0.5043
  875MOL0     H15462   6.566   1.795   1.991 -0.0956  0.0963  0.7218
  875MOL0     H15463   6.315   1.700   1.999 -0.4393 -0.5996  0.6412
  875MOL0     H15464   5.845   2.077   2.236  2.2292  0.0009 -1.1494
  875MOL0     H15465   5.577   2.066   2.197 -2.3082 -2.8223  0.2219
  875MOL0     H15466   5.391   1.674   2.117 -1.2036  0.1174  0.8175
  875MOL0     H15467   5.430   1.757   1.965 -1.9880  1.9117 -1.2828
  875MOL0     H15468   5.241   1.911   2.000  0.3543  0.0220 -0.3854
  875MOL0     H15469   5.212   1.819   2.150  4.0613  0.0180  1.4370
  875MOL0     H15470   5.192   1.615   1.992  4.7736  1.1807 -1.7456
  875MOL0     H15471   5.198   1.715   1.849 -2.3717 -3.8658 -1.1430
  875MOL0     H15472   4.971   1.771   2.028  0.0606  1.5369  0.7678
  875MOL0     H15473   5.021   1.848   1.875  2.4541 -0.7158  0.0374
  875MOL0     H15474   4.970   1.549   1.900 -2.2515  0.3313 -0.9817
  875MOL0     H15475   4.981   1.643   1.755 -0.5384  1.7266 -0.1565
  875MOL0     H15476   4.758   1.751   1.841 -0.4420 -0.0969 -0.2433
  875MOL0     H15477   4.785   1.647   1.985  1.6820  1.9422 -0.4160
  875MOL0     H15478   4.747   1.527   1.695 -1.5166 -0.0302 -0.0123
  875MOL0     H15479   4.765   1.438   1.845  1.7312  0.1780 -0.6726
  875MOL0     H15480   4.514   1.518   1.745  1.0354 -1.5992  0.2176
  875MOL0     H15481   4.549   1.664   1.830  0.0156  0.2420 -1.2767
  875MOL0     H15482   5.626   1.672   2.061 -1.0902 -1.1508  4.0890
  875MOL0     H15483   5.857   1.679   2.073  0.5825 -2.0410  2.2482
  875MOL0     H15484   6.212   2.047   2.218  2.9364  2.9215  1.4986
  875MOL0     H15485   6.440   2.114   2.231 -2.9873 -0.5704  3.3562
  875MOL0     H15486   8.211   2.644   2.735 -0.0542  1.0785  1.9255
  875MOL0     H15487   8.453   2.602   2.781  0.5913 -1.9503 -2.6206
  875MOL0     H15488   8.900   2.475   2.707 -2.6534  0.2037 -0.5123
  875MOL0     H15489   9.118   2.413   2.813  0.7674 -0.6693 -1.9560
  875MOL0     H15490   9.237   2.432   3.096  0.0544 -0.0923 -0.5573
  875MOL0     H15491   9.297   2.361   2.947 -1.6497 -1.4992 -0.5068
  875MOL0     H15492   9.469   2.314   3.124  1.6145 -2.1960  1.3532
  875MOL0     H15493   9.342   2.248   3.225  0.6160  0.6893 -0.0095
  875MOL0     H15494   9.404   2.120   2.949  0.8140  0.3638 -0.1683
  875MOL0     H15495   9.310   2.055   3.084  0.8991 -0.0830 -0.1173
  875MOL0     H15496   9.515   2.049   3.223  2.4575 -0.0558  0.7379
  875MOL0     H15497   9.513   1.948   3.068  3.1817  1.3785 -1.3630
  875MOL0     H15498   9.849   2.195   3.029 -1.2725  0.4356 -1.0151
  875MOL0     H15499   8.912   2.199   3.128  0.1005 -1.8296 -0.2346
  875MOL0     H15500   8.701   2.249   3.015  0.0730 -1.8768 -2.2498
  876MOL0     O15501   8.054   8.239   0.448 -0.1263 -0.1557 -0.5918
  876MOL0     C15502   8.128   8.189   0.360 -0.2491 -0.6393  0.1624
  876MOL0     O15503   8.094   8.081   0.282  0.3770  0.5785  0.1262
  876MOL0     C15504   7.980   8.016   0.322 -0.3551  0.2484  0.3298
  876MOL0     C15505   7.841   8.054   0.311 -0.0242 -0.2023  0.7286
  876MOL0     C15506   7.735   7.972   0.351  0.6737  0.6906 -0.6190
  876MOL0     C15507   7.774   7.859   0.427  0.5445  0.7142 -1.1446
  876MOL0     O15508   7.689   7.776   0.501 -0.3127  0.3924  0.0282
  876MOL0     C15509   7.565   7.827   0.548  0.3632  0.0869  0.6085
  876MOL0     C15510   7.484   7.729   0.624 -0.3954  0.6044  0.1724
  876MOL0     C15511   7.424   7.622   0.526 -0.1012 -0.0517  0.0554
  876MOL0     C15512   7.347   7.510   0.603  0.4036  0.6162 -0.1932
  876MOL0     C15513   7.196   7.529   0.591 -0.8502 -0.3691  0.2468
  876MOL0     C15514   7.121   7.405   0.638 -0.0674 -0.2474 -0.1841
  876MOL0     C15515   6.971   7.424   0.625 -0.6015 -0.2081 -1.1848
  876MOL0     C15516   6.905   7.298   0.679  0.1649  0.8293 -1.2562
  876MOL0     N15517   6.768   7.272   0.633  0.1077  0.2871  0.2957
  876MOL0     C15518   6.656   7.323   0.698 -0.3331  0.3533 -0.2773
  876MOL0     C15519   6.553   7.273   0.628  0.4449 -0.5550 -0.2799
  876MOL0     C15520   6.420   7.308   0.664 -0.2502 -0.2377 -0.9432
  876MOL0     C15521   6.363   7.205   0.755 -0.7567 -0.4850 -0.2919
  876MOL0     C15522   6.232   7.256   0.832 -0.3679 -0.4466 -0.6355
  876MOL0     C15523   6.182   7.142   0.916  0.6703 -0.3704 -0.1993
  876MOL0     O15524   6.075   7.199   0.992 -0.3013 -0.3451 -0.2169
  876MOL0     C15525   5.942   7.172   0.956  0.4007  0.9035 -0.4523
  876MOL0     C15526   5.895   7.124   0.831  0.7038  0.5698 -0.7964
  876MOL0     C15527   5.759   7.121   0.804 -0.1021 -0.8053  0.5464
  876MOL0     C15528   5.661   7.149   0.902 -0.5918 -0.1096  0.2443
  876MOL0     C15529   5.519   7.128   0.881 -0.2847  0.3344 -1.2057
  876MOL0     O15530   5.431   7.149   0.991  0.3664  0.2777  0.1749
  876MOL0     C15531   5.299   7.171   0.972 -0.4077  0.1106 -0.1816
  876MOL0     C15532   5.238   7.289   1.019 -0.8032 -0.2339  0.5322
  876MOL0     C15533   5.096   7.299   1.013  0.7781 -0.4883  0.2457
  876MOL0     C15534   5.012   7.198   0.962 -0.7976  0.1821 -0.2703
  876MOL0     O15535   4.877   7.207   0.972 -0.7885  0.2957  0.2608
  876MOL0     C15536   4.795   7.146   0.881  0.0002 -0.1315  0.5294
  876MOL0     C15537   4.667   7.235   0.864 -0.0467  1.0700 -0.8648
  876MOL0     C15538   4.557   7.195   0.955 -0.6567  0.3982  0.3494
  876MOL0     C15539   4.437   7.276   0.918  0.6193  0.2943 -0.7100
  876MOL0     C15540   4.321   7.247   1.016 -0.4479 -0.3157  0.7203
  876MOL0     C15541   4.201   7.321   0.974  0.6629  0.7608 -0.3737
  876MOL0     C15542   4.121   7.236   0.866  0.3488 -0.1127 -0.2578
  876MOL0     C15543   4.002   7.318   0.804 -0.4360 -0.0279 -0.7300
  876MOL0    Cl15544   4.052   7.476   0.750  0.3412  0.0476 -0.1595
  876MOL0     C15545   5.077   7.090   0.906 -0.3643 -0.1091 -0.7301
  876MOL0     C15546   5.210   7.070   0.922 -0.0363  1.4154 -0.1841
  876MOL0     O15547   5.479   7.102   0.767  0.5187 -0.7625 -0.3088
  876MOL0     C15548   5.703   7.192   1.030 -0.7656  0.2447  0.8395
  876MOL0     C15549   5.839   7.213   1.050 -1.4902  0.3893  0.3608
  876MOL0     N15550   6.605   7.221   0.512 -0.6728 -0.2342  0.9092
  876MOL0     N15551   6.737   7.217   0.522  0.1085 -1.1900  0.0301
  876MOL0     C15552   7.905   7.819   0.435  0.9882  0.9814  0.2564
  876MOL0     C15553   8.005   7.902   0.392 -0.0505 -0.7215  0.8425
  876MOL0     C15554   8.245   8.269   0.318  0.1199  0.1718 -0.2956
  876MOL0     C15555   8.277   8.394   0.376 -0.2435 -0.0621  0.0384
  876MOL0     C15556   8.384   8.470   0.330  0.6789  0.5869  0.2271
  876MOL0     C15557   8.456   8.431   0.216 -0.5359  0.2479  0.3808
  876MOL0     O15558   8.538   8.524   0.167 -0.6616  0.1291 -0.1999
  876MOL0     C15559   8.642   8.481   0.082 -1.2565  0.4953 -0.8653
  876MOL0     C15560   8.730   8.602   0.061  0.1722  0.5886 -0.6408
  876MOL0     C15561   8.879   8.589   0.049  0.0658 -0.3037 -0.7648
  876MOL0     C15562   8.929   8.589   0.196 -0.6584  0.1863 -0.5991
  876MOL0     C15563   9.077   8.613   0.204  0.8555  0.6094  0.8470
  876MOL0     C15564   9.196   8.624   0.191 -0.0984 -0.8217 -0.1641
  876MOL0     C15565   8.439   8.302   0.176 -0.5787  0.4063  0.1182
  876MOL0     C15566   8.332   8.218   0.218 -0.3122 -0.0448 -0.1122
  876MOL0     H15567   7.828   8.151   0.264  2.3628 -1.0166 -1.9550
  876MOL0     H15568   7.636   8.011   0.330 -1.4664 -2.5005  2.4122
  876MOL0     H15569   7.499   7.871   0.472  2.6368  0.4148 -1.2902
  876MOL0     H15570   7.581   7.913   0.614 -2.0211  0.2684  1.0521
  876MOL0     H15571   7.415   7.787   0.686 -1.0546 -2.1001  2.1733
  876MOL0     H15572   7.565   7.687   0.685 -1.7268  1.2938  2.5582
  876MOL0     H15573   7.502   7.569   0.470 -1.4894 -3.8369  1.3588
  876MOL0     H15574   7.351   7.670   0.460 -0.4346 -0.5490  0.0568
  876MOL0     H15575   7.362   7.416   0.549  0.7815  0.6682 -0.1866
  876MOL0     H15576   7.390   7.495   0.703  1.4890  1.7950 -0.4512
  876MOL0     H15577   7.170   7.551   0.488  1.8983 -0.8999 -0.6402
  876MOL0     H15578   7.176   7.611   0.662  0.9430 -0.9248  1.4769
  876MOL0     H15579   7.149   7.380   0.741 -0.2243 -1.9444 -0.5233
  876MOL0     H15580   7.150   7.316   0.581 -0.8898 -1.8073  1.7269
  876MOL0     H15581   6.936   7.508   0.686 -3.0730 -0.9281 -1.5069
  876MOL0     H15582   6.945   7.426   0.519  1.0476 -6.9740 -2.1491
  876MOL0     H15583   6.901   7.292   0.789 -1.4173 -1.0724 -1.3801
  876MOL0     H15584   6.971   7.217   0.648  1.3530  0.4384  1.8459
  876MOL0     H15585   6.651   7.399   0.776 -1.5578  0.2514 -0.2421
  876MOL0     H15586   6.356   7.335   0.580  0.4942  0.2727 -1.3580
  876MOL0     H15587   6.413   7.398   0.727 -0.9832  0.6807 -2.2972
  876MOL0     H15588   6.441   7.180   0.827 -0.5130 -0.0968 -0.4170
  876MOL0     H15589   6.342   7.116   0.695 -0.1232 -1.3431  0.7338
  876MOL0     H15590   6.249   7.335   0.905  1.6783 -0.4388 -1.0612
  876MOL0     H15591   6.166   7.294   0.754  3.5549  1.3078 -3.4229
  876MOL0     H15592   6.258   7.119   0.991 -0.3335  5.7507  3.3871
  876MOL0     H15593   6.139   7.056   0.864 -2.9943  1.7371 -1.0396
  876MOL0     H15594   5.960   7.090   0.750  0.8871  0.7883 -0.7404
  876MOL0     H15595   5.735   7.094   0.701 -3.2722 -1.6103  1.3753
  876MOL0     H15596   5.302   7.371   1.050 -3.5621  1.3701  2.4249
  876MOL0     H15597   5.043   7.384   1.055  1.4462  1.0523 -1.8974
  876MOL0     H15598   4.765   7.041   0.892 -2.9880  0.8757  4.0114
  876MOL0     H15599   4.840   7.145   0.781  3.1335 -2.2712  1.8190
  876MOL0     H15600   4.634   7.217   0.762 -0.5669  1.4911 -0.7756
  876MOL0     H15601   4.700   7.340   0.865  0.1858  0.9980 -0.2122
  876MOL0     H15602   4.585   7.226   1.056  2.0178  0.8839 -0.4713
  876MOL0     H15603   4.534   7.088   0.949  0.4489  0.1974 -0.6510
  876MOL0     H15604   4.466   7.381   0.924 -0.4478  0.5315  1.4187
  876MOL0     H15605   4.399   7.242   0.821  2.6888 -1.2638 -1.0374
  876MOL0     H15606   4.352   7.291   1.111 -0.1736  0.2797  0.3629
  876MOL0     H15607   4.306   7.139   1.027 -0.3254 -0.6220 -1.5816
  876MOL0     H15608   4.230   7.418   0.934  3.5744 -0.8882 -2.7478
  876MOL0     H15609   4.131   7.327   1.057 -3.8299  0.6065 -3.7303
  876MOL0     H15610   4.191   7.205   0.788  2.0145  1.8324  0.3701
  876MOL0     H15611   4.076   7.149   0.914  0.9710 -1.0100 -1.2608
  876MOL0     H15612   3.925   7.315   0.882 -0.1800 -0.7615 -0.5075
  876MOL0     H15613   3.953   7.261   0.724 -2.1829 -0.8486  0.8316
  876MOL0     H15614   5.012   7.007   0.882 -0.3755 -0.3984  0.2437
  876MOL0     H15615   5.258   6.978   0.889 -1.2855 -0.7636  3.4419
  876MOL0     H15616   5.635   7.206   1.114  1.3960 -2.4708  3.2590
  876MOL0     H15617   5.876   7.248   1.146 -0.1356 -0.6643  0.2459
  876MOL0     H15618   7.937   7.733   0.493  3.0702  1.2013 -0.4843
  876MOL0     H15619   8.105   7.868   0.419  1.7876  2.2457 -1.6473
  876MOL0     H15620   8.226   8.436   0.463  0.5360  0.2798  0.3372
  876MOL0     H15621   8.404   8.566   0.377  0.3206  0.3045  0.9782
  876MOL0     H15622   8.616   8.442  -0.017  1.3460 -1.1462 -0.9976
  876MOL0     H15623   8.698   8.397   0.124 -5.3076 -4.3300 -3.9627
  876MOL0     H15624   8.701   8.638  -0.038  0.1982 -1.9975 -1.6641
  876MOL0     H15625   8.695   8.686   0.122 -2.6853 -0.7974 -0.2496
  876MOL0     H15626   8.917   8.681   0.004  1.0546 -0.3439 -0.0436
  876MOL0     H15627   8.914   8.499  -0.001  0.7376 -1.0682  0.9900
  876MOL0     H15628   8.886   8.669   0.257  2.5722  1.2674  0.4635
  876MOL0     H15629   8.895   8.492   0.232 -0.9148  1.1787  2.0297
  876MOL0     H15630   9.302   8.620   0.178 -0.0092 -1.7194  0.6869
  876MOL0     H15631   8.512   8.259   0.108 -1.3690 -0.6101 -0.1091
  876MOL0     H15632   8.328   8.122   0.169  0.5501  0.1505 -0.5967
  877MOL0     O15633   6.653   2.474  10.775 -0.6212 -0.1617  0.3662
  877MOL0     C15634   6.540   2.438  10.803  0.1484  0.7053 -0.2479
  877MOL0     O15635   6.507   2.353  10.917 -0.0427  0.1889  1.0007
  877MOL0     C15636   6.610   2.334  11.010  0.4599 -1.1520 -1.0600
  877MOL0     C15637   6.629   2.212  11.073 -0.0304 -0.5261 -0.3143
  877MOL0     C15638   6.729   2.185  11.165 -0.5308 -0.5988 -0.2297
  877MOL0     C15639   6.809   2.290  11.203  0.1189 -0.8018  0.2433
  877MOL0     O15640   6.917   2.271  11.282  0.7548 -0.0778 -0.8952
  877MOL0     C15641   6.920   2.163  11.376  0.9056  0.8908  0.4756
  877MOL0     C15642   7.043   2.167  11.462 -0.5836  0.4099 -0.6785
  877MOL0     C15643   7.045   2.042  11.542 -0.4110  0.0456 -0.1328
  877MOL0     C15644   7.156   2.067  11.657  0.3748  0.4140  0.0334
  877MOL0     C15645   7.161   1.962  11.768  0.4534 -0.8959 -0.6130
  877MOL0     C15646   7.052   1.988  11.877 -0.0056 -0.2821 -0.8845
  877MOL0     C15647   7.054   1.893  11.993 -0.0911 -0.6230  0.2049
  877MOL0     C15648   7.011   1.746  11.956  0.5326  0.4538  0.7430
  877MOL0     N15649   7.016   1.661  12.078  0.0132  0.4672  1.1931
  877MOL0     C15650   6.929   1.679  12.180  0.2606 -0.3482 -0.0315
  877MOL0     C15651   6.980   1.605  12.280  0.4475  0.8896  0.8835
  877MOL0     C15652   6.915   1.577  12.415 -1.0401 -0.2516  0.3213
  877MOL0     C15653   6.795   1.489  12.397 -0.2252  0.7873  0.5474
  877MOL0     C15654   6.720   1.483  12.524 -0.1284 -0.4054 -0.6198
  877MOL0     C15655   6.626   1.357  12.543  0.0170  0.2408  1.7742
  877MOL0     O15656   6.532   1.352  12.432 -0.5737  0.1740 -0.2680
  877MOL0     C15657   6.396   1.364  12.458  0.0730  0.2416 -0.7678
  877MOL0     C15658   6.305   1.313  12.365 -0.3567 -0.5435  0.3775
  877MOL0     C15659   6.167   1.338  12.368  0.8538  0.6764 -0.1409
  877MOL0     C15660   6.102   1.392  12.483 -0.1255 -0.1029 -0.4371
  877MOL0     C15661   5.958   1.410  12.488 -0.5092  0.1560  0.4301
  877MOL0     O15662   5.897   1.345  12.388  0.2555  0.3087 -0.2431
  877MOL0     C15663   5.762   1.355  12.381 -0.7695 -0.3270  0.0494
  877MOL0     C15664   5.714   1.356  12.252  1.0386  0.4947 -0.7655
  877MOL0     C15665   5.575   1.356  12.227  0.3528  0.2059  0.3514
  877MOL0     C15666   5.486   1.369  12.335 -1.0261  0.4167  0.5423
  877MOL0     O15667   5.353   1.376  12.294  0.0542  0.5368  0.4315
  877MOL0     C15668   5.260   1.416  12.388 -0.8736 -0.3678 -0.6400
  877MOL0     C15669   5.118   1.420  12.325  0.5627 -0.0908  0.1887
  877MOL0     C15670   5.097   1.548  12.238 -0.3800  1.1110 -0.6368
  877MOL0     C15671   4.946   1.556  12.187 -0.4132 -0.6557 -0.5746
  877MOL0     C15672   4.893   1.696  12.172  0.8795  0.3218 -0.5283
  877MOL0     C15673   4.748   1.694  12.104 -0.0869 -0.1809 -0.5875
  877MOL0     C15674   4.641   1.629  12.187 -0.1773 -0.0644  0.0209
  877MOL0     C15675   4.498   1.635  12.140  0.7288 -0.5403 -0.1616
  877MOL0    Cl15676   4.393   1.563  12.244 -0.2764 -0.4880  0.0882
  877MOL0     C15677   5.535   1.348  12.466 -0.4048 -0.5264  0.6311
  877MOL0     C15678   5.672   1.341  12.483 -0.5155 -0.0640 -1.1566
  877MOL0     O15679   5.904   1.475  12.578 -0.7058 -0.4864  0.3139
  877MOL0     C15680   6.188   1.436  12.586  0.2542 -0.5970  0.2838
  877MOL0     C15681   6.333   1.419  12.574 -0.2998  0.9457 -0.0053
  877MOL0     N15682   7.086   1.533  12.230  0.8737  0.2853 -0.0660
  877MOL0     N15683   7.108   1.567  12.104  0.0387  0.4813  0.0819
  877MOL0     C15684   6.792   2.418  11.145 -0.1153  0.0119 -0.1030
  877MOL0     C15685   6.685   2.437  11.061  0.4993 -0.0162  0.1466
  877MOL0     C15686   6.449   2.458  10.701  1.1488  0.5645 -0.6535
  877MOL0     C15687   6.302   2.471  10.719  0.5838  0.3105 -0.1256
  877MOL0     C15688   6.213   2.469  10.607 -0.6694 -1.0736 -0.3476
  877MOL0     C15689   6.262   2.473  10.479 -0.1709 -0.8738 -0.1064
  877MOL0     O15690   6.174   2.493  10.375 -0.2555 -0.0249  0.7363
  877MOL0     C15691   6.185   2.618  10.308  0.3057 -0.1608 -0.2265
  877MOL0     C15692   6.112   2.727  10.400 -0.3270  0.9485  0.1579
  877MOL0     C15693   6.064   2.847  10.314 -0.7260 -0.2236  0.0493
  877MOL0     C15694   6.044   2.972  10.393  0.3645  0.3216  0.4046
  877MOL0     C15695   5.930   2.963  10.479  0.6095  0.6564 -0.9559
  877MOL0     C15696   5.829   2.947  10.554 -0.2065  0.2859  0.6962
  877MOL0     C15697   6.396   2.496  10.467 -0.2602  0.5913  0.5718
  877MOL0     C15698   6.490   2.476  10.564  0.5560  0.0945 -0.1840
  877MOL0     H15699   6.577   2.123  11.041 -1.3356  0.3503 -0.6818
  877MOL0     H15700   6.759   2.082  11.184  3.5955  0.5732  0.6862
  877MOL0     H15701   6.909   2.067  11.326  2.5822 -0.3940  2.3899
  877MOL0     H15702   6.832   2.177  11.440  1.5487  1.3412  1.2745
  877MOL0     H15703   7.047   2.249  11.534  2.0975 -1.5196  1.6045
  877MOL0     H15704   7.127   2.162  11.393  0.7194 -0.1724  0.8875
  877MOL0     H15705   7.073   1.960  11.475  1.4174  2.1892 -2.1739
  877MOL0     H15706   6.949   2.028  11.592 -0.3969  0.2909 -0.0363
  877MOL0     H15707   7.247   2.062  11.595 -0.0438 -1.4444 -0.4942
  877MOL0     H15708   7.142   2.166  11.701 -3.6790  0.7558 -1.6404
  877MOL0     H15709   7.254   1.955  11.824 -0.5294 -1.3809  1.0306
  877MOL0     H15710   7.142   1.862  11.726 -1.4723 -1.7232  1.9542
  877MOL0     H15711   6.954   1.986  11.829 -0.5630  1.4810  0.0816
  877MOL0     H15712   7.062   2.090  11.915  1.7120 -1.1175  1.0933
  877MOL0     H15713   7.153   1.874  12.035 -0.7046 -3.1529  0.6810
  877MOL0     H15714   6.994   1.939  12.072 -2.0515 -0.9064 -1.0619
  877MOL0     H15715   7.073   1.700  11.879 -1.6709 -0.8781 -0.3396
  877MOL0     H15716   6.910   1.751  11.914  1.1401  0.0337 -0.8403
  877MOL0     H15717   6.832   1.729  12.180 -0.4453 -1.6761  0.0983
  877MOL0     H15718   6.889   1.672  12.463 -2.4802 -0.9992  1.0906
  877MOL0     H15719   6.980   1.521  12.484 -2.9212  1.0146  3.3377
  877MOL0     H15720   6.830   1.388  12.374 -2.8825 -0.5677  1.9499
  877MOL0     H15721   6.732   1.513  12.311  2.2192 -0.1203 -1.6227
  877MOL0     H15722   6.798   1.495  12.601  0.7893  1.7551 -1.7812
  877MOL0     H15723   6.653   1.569  12.516 -0.3284 -0.4031  0.7758
  877MOL0     H15724   6.583   1.361  12.643  0.8923  1.6298  2.1231
  877MOL0     H15725   6.684   1.264  12.540 -1.5121 -0.7802 -2.7310
  877MOL0     H15726   6.349   1.278  12.272 -0.3759  0.3161  0.0390
  877MOL0     H15727   6.104   1.304  12.287 -1.1143 -0.0038  1.5765
  877MOL0     H15728   5.783   1.347  12.168 -1.2181 -0.8660 -2.5903
  877MOL0     H15729   5.533   1.364  12.127 -1.0199  1.7855  0.9963
  877MOL0     H15730   5.291   1.513  12.429  0.8034 -0.8539 -0.7024
  877MOL0     H15731   5.248   1.340  12.466 -2.4960 -0.2575 -0.7527
  877MOL0     H15732   5.048   1.408  12.409 -0.6684  3.2253 -0.1904
  877MOL0     H15733   5.093   1.342  12.252  2.9381 -0.5194 -0.2488
  877MOL0     H15734   5.170   1.547  12.157  0.5216  2.7337  0.0935
  877MOL0     H15735   5.121   1.628  12.309  0.7039  0.7037 -0.5277
  877MOL0     H15736   4.938   1.503  12.092  0.0380  0.3896 -1.2069
  877MOL0     H15737   4.877   1.518  12.263  0.9947 -1.3066  0.4351
  877MOL0     H15738   4.962   1.750  12.106  1.1865  0.2824 -0.2417
  877MOL0     H15739   4.883   1.738  12.273  0.5436 -4.8298  1.8886
  877MOL0     H15740   4.750   1.626  12.018 -0.9585 -0.8131 -0.1243
  877MOL0     H15741   4.730   1.797  12.073 -1.3343 -1.1169 -3.2346
  877MOL0     H15742   4.664   1.523  12.197 -1.0659 -0.5552 -2.5076
  877MOL0     H15743   4.642   1.675  12.287  0.7237 -3.0241  1.4698
  877MOL0     H15744   4.494   1.601  12.036 -1.7685 -1.3937  0.1294
  877MOL0     H15745   4.466   1.740  12.136  1.2333 -0.3861 -0.1951
  877MOL0     H15746   5.459   1.348  12.543 -3.0385  0.2443 -1.7939
  877MOL0     H15747   5.703   1.332  12.587 -0.9910  1.6274 -0.8334
  877MOL0     H15748   6.155   1.477  12.680  0.1784  0.3199 -0.1270
  877MOL0     H15749   6.393   1.428  12.664  0.1704  1.2393 -0.3487
  877MOL0     H15750   6.858   2.500  11.172  0.3830 -0.2030 -0.6345
  877MOL0     H15751   6.676   2.535  11.016  1.0061  0.2766  0.6579
  877MOL0     H15752   6.269   2.466  10.822  0.6664  2.3762  0.0472
  877MOL0     H15753   6.105   2.465  10.610 -0.6759 -1.5243 -1.0262
  877MOL0     H15754   6.115   2.609  10.224 -1.8014 -2.2885  1.6319
  877MOL0     H15755   6.284   2.651  10.275 -0.2279  1.0254 -0.7213
  877MOL0     H15756   6.030   2.675  10.450  1.4559 -1.4398  0.7883
  877MOL0     H15757   6.183   2.760  10.477 -2.0740  0.7893  1.9138
  877MOL0     H15758   5.969   2.833  10.261 -0.6821 -1.0511  0.1826
  877MOL0     H15759   6.143   2.867  10.241 -0.0107 -2.7540  0.0435
  877MOL0     H15760   6.133   2.990  10.454  0.6169  0.4598  0.0039
  877MOL0     H15761   6.021   3.054  10.324  2.0841  0.5977  0.1303
  877MOL0     H15762   5.742   2.938  10.615 -0.5778 -1.3569 -0.0175
  877MOL0     H15763   6.433   2.515  10.367  2.2262 -2.1595  0.8247
  877MOL0     H15764   6.597   2.472  10.549  0.2981 -1.0677 -1.9986
  878MOL0     O15765  10.365   9.108  10.338  0.4065 -0.1647  0.4986
  878MOL0     C15766  10.295   9.070  10.433 -0.2437 -0.3010 -0.8408
  878MOL0     O15767  10.281   8.934  10.466 -0.2219 -0.1550  0.0439
  878MOL0     C15768  10.325   8.824  10.397 -0.4001  0.1841 -0.3551
  878MOL0     C15769  10.429   8.830  10.302 -0.6204 -0.1244  0.2276
  878MOL0     C15770  10.483   8.712  10.247  0.5327  0.7376  0.5670
  878MOL0     C15771  10.412   8.589  10.267 -0.1732 -0.4731 -0.2218
  878MOL0     O15772  10.450   8.468  10.217 -0.4064  0.2801  0.8510
  878MOL0     C15773  10.498   8.475  10.082  0.2588  0.6999  0.2030
  878MOL0     C15774  10.477   8.335  10.022 -0.0060 -0.1324  0.0126
  878MOL0     C15775  10.349   8.264  10.066 -0.9808 -0.5335 -0.2418
  878MOL0     C15776  10.228   8.339  10.020  1.0902  0.0809  1.1241
  878MOL0     C15777  10.107   8.244  10.044 -0.0204  0.4494 -0.3631
  878MOL0     C15778  10.070   8.138   9.937  0.3045 -0.4701 -0.8158
  878MOL0     C15779   9.914   8.129   9.924 -0.0210  0.3452  0.5954
  878MOL0     C15780   9.846   8.065  10.047  0.2496  0.0335  0.6006
  878MOL0     N15781   9.695   8.071  10.042  0.7634 -0.5089  0.4742
  878MOL0     C15782   9.612   8.145   9.961 -0.0790 -0.4595  0.8207
  878MOL0     C15783   9.481   8.111   9.993 -0.3962 -0.1005  1.0523
  878MOL0     C15784   9.361   8.161   9.920 -0.0289 -0.9185 -0.0446
  878MOL0     C15785   9.247   8.175  10.013 -0.0688  0.5684  0.3318
  878MOL0     C15786   9.123   8.241   9.941 -0.8602  0.5621 -0.0310
  878MOL0     C15787   9.005   8.215  10.038 -0.2676  0.5200  0.1448
  878MOL0     O15788   8.890   8.239   9.955  0.0818 -0.1074  0.1623
  878MOL0     C15789   8.759   8.266   9.992  0.2961 -0.1552 -0.7248
  878MOL0     C15790   8.719   8.249  10.130 -0.2392 -0.5192  0.7862
  878MOL0     C15791   8.585   8.262  10.166 -0.4566 -0.6161 -0.0257
  878MOL0     C15792   8.488   8.292  10.063 -0.2492  0.5399 -0.2040
  878MOL0     C15793   8.348   8.266  10.094  0.1613  0.1301 -0.4340
  878MOL0     O15794   8.260   8.307  10.000  0.1946  0.1395  0.1321
  878MOL0     C15795   8.125   8.283  10.034 -0.4220 -0.6027  0.1369
  878MOL0     C15796   8.069   8.154  10.041  0.2809 -0.1746  0.0017
  878MOL0     C15797   7.946   8.130  10.097 -0.1277  0.0190  0.1015
  878MOL0     C15798   7.862   8.240  10.122 -0.0248  0.4416 -0.1389
  878MOL0     O15799   7.730   8.236  10.166  0.1121  0.5138  0.6747
  878MOL0     C15800   7.651   8.117  10.179 -0.2886  0.1205 -0.4294
  878MOL0     C15801   7.708   8.027  10.290 -0.2747  0.2844 -0.6740
  878MOL0     C15802   7.606   7.983  10.395 -0.3249 -0.3455  0.3350
  878MOL0     C15803   7.648   7.877  10.500 -1.1537 -0.5931 -0.6217
  878MOL0     C15804   7.730   7.946  10.614 -0.1578  0.4311  0.4007
  878MOL0     C15805   7.806   7.841  10.703  0.2417 -0.4597 -0.4880
  878MOL0     C15806   7.712   7.743  10.757  0.3847  0.7325  0.2263
  878MOL0     C15807   7.757   7.705  10.896  0.4228  1.1630  0.3935
  878MOL0    Cl15808   7.912   7.606  10.893  0.3970 -0.3670  0.5392
  878MOL0     C15809   7.917   8.366  10.111 -0.3141 -0.1650  0.2958
  878MOL0     C15810   8.043   8.392  10.060 -0.0110 -0.3509  0.3003
  878MOL0     O15811   8.319   8.211  10.204  0.0318  0.5543 -0.0263
  878MOL0     C15812   8.529   8.315   9.931  0.6654 -1.0324  1.4072
  878MOL0     C15813   8.670   8.305   9.898  0.3327 -1.2596 -0.1845
  878MOL0     N15814   9.485   8.009  10.081  0.3891  0.0548  0.0190
  878MOL0     N15815   9.610   7.990  10.112 -0.1553 -0.3552 -0.4299
  878MOL0     C15816  10.303   8.587  10.357  0.4853  0.0720 -0.1373
  878MOL0     C15817  10.266   8.700  10.427  0.3468  0.0159  0.0050
  878MOL0     C15818  10.217   9.172  10.501  0.4019 -0.0595 -1.0961
  878MOL0     C15819  10.237   9.306  10.490  0.4818  0.6162  0.0260
  878MOL0     C15820  10.139   9.398  10.530 -0.0892  0.5358  0.8553
  878MOL0     C15821  10.022   9.357  10.584  0.6564  0.1968 -0.0272
  878MOL0     O15822   9.928   9.454  10.616  0.2831 -0.0819 -0.2923
  878MOL0     C15823   9.784   9.410  10.621 -1.0350 -0.4805 -0.1103
  878MOL0     C15824   9.696   9.537  10.627 -0.4226  0.5931 -0.1394
  878MOL0     C15825   9.737   9.628  10.753  0.1913 -0.4789 -0.8548
  878MOL0     C15826   9.686   9.580  10.890 -0.0255  0.5168  0.0052
  878MOL0     C15827   9.564   9.652  10.920  0.1885  0.3560  0.5302
  878MOL0     C15828   9.470   9.718  10.932  0.6166  0.2407  0.3988
  878MOL0     C15829   9.992   9.217  10.597  0.9074 -0.8571  0.6763
  878MOL0     C15830  10.087   9.132  10.553 -0.2992 -0.7665  0.5815
  878MOL0     H15831  10.484   8.919  10.273 -2.3269  0.6003 -0.9678
  878MOL0     H15832  10.569   8.713  10.181  1.0775  1.9713  1.2650
  878MOL0     H15833  10.598   8.518  10.069  0.4343 -0.2861 -2.3858
  878MOL0     H15834  10.435   8.537  10.018 -0.5226 -1.1306 -0.8891
  878MOL0     H15835  10.556   8.263  10.043 -0.0028 -0.1508 -0.0631
  878MOL0     H15836  10.480   8.350   9.914 -0.8225  1.2500  0.1500
  878MOL0     H15837  10.337   8.238  10.172  1.9492 -2.0351 -0.1626
  878MOL0     H15838  10.351   8.167  10.015  2.2315 -2.9245  3.7832
  878MOL0     H15839  10.219   8.430  10.080 -1.9731  2.4892 -2.4987
  878MOL0     H15840  10.234   8.378   9.918 -2.6100 -0.7236  0.4418
  878MOL0     H15841  10.017   8.304  10.061 -0.7141  0.2421 -3.0020
  878MOL0     H15842  10.118   8.189  10.138 -2.9712 -1.1376 -0.8342
  878MOL0     H15843  10.117   8.042   9.960 -2.3963 -1.8469 -0.5374
  878MOL0     H15844  10.103   8.172   9.839 -1.2712  2.0297 -0.5649
  878MOL0     H15845   9.874   8.230   9.915  0.9657  0.6864 -0.1381
  878MOL0     H15846   9.888   8.076   9.832  0.6011  0.6692  0.2259
  878MOL0     H15847   9.871   8.118  10.140 -4.4005  0.4108  1.9023
  878MOL0     H15848   9.893   7.967  10.052  1.8745  0.7302 -0.3045
  878MOL0     H15849   9.643   8.225   9.894  2.8457 -2.5018 -0.4626
  878MOL0     H15850   9.332   8.089   9.843 -0.3660  0.1843 -0.9731
  878MOL0     H15851   9.388   8.253   9.868  3.3590  0.5432  3.7877
  878MOL0     H15852   9.283   8.235  10.097 -2.3674  0.1170  1.7224
  878MOL0     H15853   9.228   8.079  10.063  3.3631 -0.8867 -0.8319
  878MOL0     H15854   9.139   8.346   9.915  0.3614  1.3749  3.4632
  878MOL0     H15855   9.098   8.192   9.846 -0.4297 -4.3488  2.1055
  878MOL0     H15856   9.006   8.284  10.122 -1.2529 -1.4919  1.9084
  878MOL0     H15857   8.996   8.109  10.062 -0.8184  0.5966  0.2990
  878MOL0     H15858   8.794   8.210  10.198 -0.3191 -1.8710  0.1443
  878MOL0     H15859   8.558   8.244  10.269 -1.6525  3.2020  0.4946
  878MOL0     H15860   8.119   8.068   9.999  1.3228 -1.7053  4.0323
  878MOL0     H15861   7.907   8.030  10.116 -2.6637  1.1543  1.3309
  878MOL0     H15862   7.659   8.076  10.078  0.8661  1.4882 -0.9220
  878MOL0     H15863   7.549   8.147  10.206  0.7194  1.3360  2.4311
  878MOL0     H15864   7.793   8.083  10.332 -0.8574  1.9750 -1.6465
  878MOL0     H15865   7.738   7.935  10.240 -3.3099 -0.2805 -1.6393
  878MOL0     H15866   7.521   7.937  10.341  1.5731 -1.6799 -1.7181
  878MOL0     H15867   7.583   8.074  10.450 -0.0518  0.5150 -0.9290
  878MOL0     H15868   7.564   7.830  10.552 -1.6838  2.4880  1.6028
  878MOL0     H15869   7.721   7.811  10.453 -0.6251 -0.2579 -0.2771
  878MOL0     H15870   7.662   8.005  10.676 -1.6881 -2.1484  1.3732
  878MOL0     H15871   7.802   8.018  10.575 -0.8142  1.4831  1.0766
  878MOL0     H15872   7.857   7.903  10.777  0.9845  1.7476 -2.7136
  878MOL0     H15873   7.887   7.786  10.655  1.6328 -0.8944  2.1584
  878MOL0     H15874   7.612   7.783  10.773  0.8179  0.5096  5.2964
  878MOL0     H15875   7.710   7.654  10.693  5.2814  1.5694 -1.5232
  878MOL0     H15876   7.678   7.653  10.952 -1.0278  3.1043  0.2403
  878MOL0     H15877   7.782   7.797  10.948  1.1457  1.8996 -1.1890
  878MOL0     H15878   7.852   8.449  10.138  0.2298  1.0422 -1.7934
  878MOL0     H15879   8.077   8.494  10.046  2.5042 -1.5631 -5.0693
  878MOL0     H15880   8.463   8.340   9.848  0.2855  0.8125  2.2041
  878MOL0     H15881   8.699   8.323   9.795  0.9266 -0.9883  0.0242
  878MOL0     H15882  10.245   8.499  10.385 -2.3989  2.0986  0.7268
  878MOL0     H15883  10.200   8.703  10.513 -0.2813 -3.1639 -0.2776
  878MOL0     H15884  10.324   9.348  10.440  1.4017 -0.8940  0.3142
  878MOL0     H15885  10.161   9.503  10.513  0.5291  0.0538 -1.6197
  878MOL0     H15886   9.764   9.344  10.706 -1.3711 -1.5890 -1.0274
  878MOL0     H15887   9.761   9.357  10.528  3.2788  0.8597 -2.1711
  878MOL0     H15888   9.710   9.583  10.528 -1.8573 -1.6074 -1.4576
  878MOL0     H15889   9.591   9.512  10.645 -0.3191  1.4684  1.8899
  878MOL0     H15890   9.713   9.732  10.728  0.0703 -0.9510 -2.8774
  878MOL0     H15891   9.845   9.642  10.754  0.2311 -0.3785  1.6745
  878MOL0     H15892   9.662   9.474  10.903  2.5267 -0.1866 -0.5578
  878MOL0     H15893   9.760   9.599  10.968  1.1394 -0.2215 -0.8967
  878MOL0     H15894   9.381   9.772  10.955 -1.1634 -1.4867 -1.9132
  878MOL0     H15895   9.899   9.175  10.637  1.5680 -2.7340  0.3545
  878MOL0     H15896  10.058   9.028  10.562 -0.8086 -0.6257  0.5914
  879MOL0     O15897   6.866   9.012   0.925  0.0179 -0.4082 -0.2588
  879MOL0     C15898   6.926   8.917   0.984 -0.0824  0.5021 -0.0014
  879MOL0     O15899   6.882   8.789   1.000 -0.8441  0.1673  0.2183
  879MOL0     C15900   6.765   8.749   0.946  0.2045  0.5821 -0.3548
  879MOL0     C15901   6.665   8.683   1.024 -0.1364  0.0667  0.4020
  879MOL0     C15902   6.539   8.638   0.965 -0.0255 -0.3184  0.5991
  879MOL0     C15903   6.512   8.669   0.832 -0.6329 -0.0385  0.5026
  879MOL0     O15904   6.391   8.623   0.793 -0.0695 -1.0100  0.1829
  879MOL0     C15905   6.356   8.650   0.658  0.3511  0.0789  0.2355
  879MOL0     C15906   6.213   8.614   0.628  0.0495 -0.4071  0.1243
  879MOL0     C15907   6.183   8.461   0.665  0.7396 -0.5865  0.8748
  879MOL0     C15908   6.041   8.434   0.629  0.2543  0.1486 -1.1979
  879MOL0     C15909   6.004   8.286   0.625 -0.2464  0.5088 -0.6020
  879MOL0     C15910   5.853   8.257   0.608 -0.3095  0.6277 -0.8950
  879MOL0     C15911   5.781   8.356   0.512  0.3828 -0.1217  0.5094
  879MOL0     C15912   5.629   8.317   0.515  0.7579 -0.0832 -0.2723
  879MOL0     N15913   5.542   8.400   0.428  0.1112  0.2110 -0.2774
  879MOL0     C15914   5.516   8.357   0.301  0.8263  0.1782  0.2675
  879MOL0     C15915   5.432   8.454   0.252  0.4382  0.2979 -0.1430
  879MOL0     C15916   5.360   8.454   0.120  0.1004  0.3673  0.1444
  879MOL0     C15917   5.217   8.500   0.121 -0.0854 -0.1515 -0.3038
  879MOL0     C15918   5.167   8.515  -0.019 -1.3786  0.2608  0.9764
  879MOL0     C15919   5.139   8.388  -0.098  0.7296 -0.4835  0.4152
  879MOL0     O15920   5.034   8.418  -0.199 -0.2259  0.1332  0.8572
  879MOL0     C15921   4.897   8.398  -0.178 -0.7307 -0.1455  0.1111
  879MOL0     C15922   4.848   8.351  -0.056  0.6414  0.2931 -0.5990
  879MOL0     C15923   4.712   8.344  -0.031  0.3707 -0.0203 -0.1630
  879MOL0     C15924   4.623   8.381  -0.128  0.2954  1.0667  0.8821
  879MOL0     C15925   4.477   8.382  -0.105 -0.6368 -0.7190  0.1739
  879MOL0     O15926   4.430   8.372   0.021 -0.1947  0.1592  0.1145
  879MOL0     C15927   4.296   8.416   0.056 -0.6593  0.1297  0.3605
  879MOL0     C15928   4.185   8.386  -0.012  0.2511 -0.5358 -0.0194
  879MOL0     C15929   4.055   8.420   0.029  0.4834 -0.0144 -0.8780
  879MOL0     C15930   4.046   8.478   0.154  0.1222  0.2300 -0.2670
  879MOL0     O15931   3.915   8.507   0.211 -0.6144  0.8007  0.5401
  879MOL0     C15932   3.797   8.429   0.183 -0.2457  0.1702  0.3222
  879MOL0     C15933   3.681   8.515   0.234  0.0762 -0.2016  0.7705
  879MOL0     C15934   3.564   8.431   0.284  0.6901  0.0673  0.3490
  879MOL0     C15935   3.445   8.518   0.326 -0.0923 -0.2526  0.0279
  879MOL0     C15936   3.325   8.448   0.376  0.0571 -0.8133  0.2910
  879MOL0     C15937   3.223   8.548   0.418  0.3482  0.0639  0.1267
  879MOL0     C15938   3.098   8.477   0.475  0.4423  1.0551 -0.0158
  879MOL0     C15939   2.998   8.422   0.373  0.1565 -0.1686 -0.2788
  879MOL0    Cl15940   2.830   8.495   0.397 -0.1276  0.1375 -0.2939
  879MOL0     C15941   4.158   8.501   0.232  0.8888 -0.1448  0.2077
  879MOL0     C15942   4.287   8.476   0.180 -0.0919 -0.2272 -0.1186
  879MOL0     O15943   4.409   8.397  -0.206  0.1343  0.3341 -0.1947
  879MOL0     C15944   4.671   8.413  -0.251  0.0154  0.6442  1.2999
  879MOL0     C15945   4.802   8.438  -0.272  0.9094  0.0198 -0.4153
  879MOL0     N15946   5.422   8.550   0.346  0.1162 -0.1855  0.6961
  879MOL0     N15947   5.477   8.513   0.454 -0.1528  0.0033  0.6004
  879MOL0     C15948   6.608   8.720   0.750 -0.2288 -0.0751 -0.1550
  879MOL0     C15949   6.739   8.753   0.809 -0.5323 -0.4351  0.0558
  879MOL0     C15950   7.066   8.951   1.026 -0.4229  0.4954  0.7173
  879MOL0     C15951   7.124   9.069   0.987  0.1553 -0.4885 -0.4013
  879MOL0     C15952   7.260   9.099   1.011 -0.4220  0.2442  0.5507
  879MOL0     C15953   7.341   8.999   1.066 -0.4379 -0.9307  0.0552
  879MOL0     O15954   7.482   9.002   1.080  0.0355  0.1293  0.2564
  879MOL0     C15955   7.561   9.107   1.019  0.1802  0.2435  0.0971
  879MOL0     C15956   7.707   9.062   1.023  1.2947 -0.3056  0.5927
  879MOL0     C15957   7.798   9.127   1.131  0.0706 -0.4755  0.1443
  879MOL0     C15958   7.948   9.078   1.124 -0.4508 -0.0655 -0.0677
  879MOL0     C15959   8.039   9.166   1.197 -0.5335  0.8420  0.3009
  879MOL0     C15960   8.127   9.227   1.252  0.3100  0.1800  0.0253
  879MOL0     C15961   7.280   8.888   1.112  1.5446  0.7728 -0.5337
  879MOL0     C15962   7.137   8.866   1.108 -0.4992  0.6001  0.4671
  879MOL0     H15963   6.685   8.664   1.129 -0.7102  2.5226  1.0176
  879MOL0     H15964   6.462   8.593   1.028  0.7235 -0.4535  1.4433
  879MOL0     H15965   6.425   8.592   0.597  0.4715 -2.9144  2.9657
  879MOL0     H15966   6.371   8.755   0.632 -1.0939  0.1958 -0.2355
  879MOL0     H15967   6.194   8.624   0.521 -0.9701  0.1871  0.3446
  879MOL0     H15968   6.155   8.681   0.692  2.7332  1.0662  1.1701
  879MOL0     H15969   6.184   8.453   0.775  0.9477  1.6890  1.0847
  879MOL0     H15970   6.238   8.387   0.605  0.2129 -0.6274  0.4406
  879MOL0     H15971   5.977   8.477   0.707  2.1003  1.5637 -0.3660
  879MOL0     H15972   6.027   8.478   0.530 -1.3861 -0.8063 -1.4274
  879MOL0     H15973   6.049   8.228   0.705  1.4754 -0.0738 -1.9403
  879MOL0     H15974   6.053   8.247   0.535 -0.5966 -1.2319 -0.0762
  879MOL0     H15975   5.789   8.267   0.697  0.8048  2.3536 -0.2283
  879MOL0     H15976   5.837   8.157   0.566 -2.7509  1.7761 -2.9779
  879MOL0     H15977   5.794   8.460   0.543 -1.2780 -0.3766  2.2090
  879MOL0     H15978   5.824   8.347   0.412  1.5401 -0.8351  1.0504
  879MOL0     H15979   5.604   8.340   0.619  3.3278  2.2882 -0.0851
  879MOL0     H15980   5.608   8.213   0.487 -1.6362  0.4500 -0.6649
  879MOL0     H15981   5.530   8.260   0.255 -0.8526 -0.8909  1.8574
  879MOL0     H15982   5.363   8.354   0.075 -1.3505  0.7154 -0.7828
  879MOL0     H15983   5.415   8.512   0.046  1.6023 -2.7200 -1.3464
  879MOL0     H15984   5.200   8.600   0.163 -0.5591  0.0516 -0.9722
  879MOL0     H15985   5.158   8.428   0.178 -1.1962  1.1996  0.3264
  879MOL0     H15986   5.069   8.560  -0.003  0.1805  3.4055  2.4182
  879MOL0     H15987   5.229   8.582  -0.079 -0.2753 -1.1825  0.4483
  879MOL0     H15988   5.113   8.311  -0.025  0.8500  0.5763  1.5972
  879MOL0     H15989   5.234   8.363  -0.146  1.2603  0.5212  0.9189
  879MOL0     H15990   4.915   8.306   0.016 -1.2904 -0.0539  1.0652
  879MOL0     H15991   4.685   8.324   0.073  0.0735  2.8941  0.4123
  879MOL0     H15992   4.197   8.348  -0.113  1.6113  2.7978 -1.2414
  879MOL0     H15993   3.970   8.403  -0.035 -1.1394  1.1488  0.8746
  879MOL0     H15994   3.808   8.343   0.250 -2.8138 -1.0437 -0.6700
  879MOL0     H15995   3.789   8.402   0.077 -1.1292  0.4726  0.2980
  879MOL0     H15996   3.657   8.581   0.150  1.6787 -0.4617  0.0873
  879MOL0     H15997   3.711   8.585   0.313  2.5522 -3.0693  2.5525
  879MOL0     H15998   3.584   8.379   0.379 -1.2525  1.0148  1.3398
  879MOL0     H15999   3.511   8.367   0.213 -1.3912  1.9546  0.1029
  879MOL0     H16000   3.480   8.582   0.408  3.7545 -0.2773 -1.4155
  879MOL0     H16001   3.432   8.585   0.241  0.4829  0.1667  0.2598
  879MOL0     H16002   3.354   8.387   0.463  0.1914 -4.4333 -2.0711
  879MOL0     H16003   3.301   8.370   0.304  2.6067 -1.8889  0.5015
  879MOL0     H16004   3.200   8.623   0.342 -0.1270  2.0408  2.1413
  879MOL0     H16005   3.261   8.606   0.503 -1.6093  1.7924 -0.1132
  879MOL0     H16006   3.110   8.395   0.547  0.7455 -0.6538 -1.9063
  879MOL0     H16007   3.030   8.543   0.529 -0.7337 -0.6121  0.6406
  879MOL0     H16008   2.988   8.314   0.386  1.4839 -0.3127 -0.3566
  879MOL0     H16009   3.041   8.432   0.274  1.8122 -1.8075  0.2209
  879MOL0     H16010   4.136   8.576   0.307 -0.2127  0.5382 -0.7658
  879MOL0     H16011   4.377   8.497   0.237  0.5295  0.7660 -1.4022
  879MOL0     H16012   4.606   8.440  -0.334 -1.5111 -1.9356  1.5676
  879MOL0     H16013   4.841   8.471  -0.368 -1.9942  1.6488 -1.1749
  879MOL0     H16014   6.595   8.720   0.643  1.5149 -0.4795 -0.4068
  879MOL0     H16015   6.807   8.812   0.749 -0.6267 -0.2112  0.1687
  879MOL0     H16016   7.060   9.138   0.932 -1.5928 -0.7766  1.1324
  879MOL0     H16017   7.308   9.191   0.980 -2.3385  1.1906  0.2286
  879MOL0     H16018   7.538   9.195   1.080  3.9025 -0.9793  3.6860
  879MOL0     H16019   7.529   9.121   0.915 -1.7135  0.1804  0.6350
  879MOL0     H16020   7.701   8.954   1.042  1.1591 -0.1249  1.6664
  879MOL0     H16021   7.749   9.078   0.924  1.8789  1.4958  1.0968
  879MOL0     H16022   7.745   9.093   1.220 -0.0467 -1.5008 -0.2950
  879MOL0     H16023   7.786   9.235   1.119  0.3817 -0.6848 -2.8409
  879MOL0     H16024   7.957   8.979   1.170  2.4103  0.6789  1.2631
  879MOL0     H16025   7.981   9.071   1.020 -0.1443  0.5680 -0.0145
  879MOL0     H16026   8.213   9.278   1.291 -0.9388  0.8200  2.1315
  879MOL0     H16027   7.334   8.812   1.167 -0.1078  1.4672  2.2269
  879MOL0     H16028   7.083   8.781   1.150  1.4694 -2.6398 -2.9092
  880MOL0     O16029   9.229   0.313   4.954  0.2655  0.2750 -0.0039
  880MOL0     C16030   9.290   0.340   5.057 -0.7263 -0.4755 -1.2734
  880MOL0     O16031   9.249   0.320   5.192  0.5450  0.7668  0.1904
  880MOL0     C16032   9.122   0.271   5.203 -0.2028 -1.0310 -0.1930
  880MOL0     C16033   9.004   0.331   5.155 -0.0247  0.7517 -0.1714
  880MOL0     C16034   8.873   0.285   5.182 -0.1362 -0.4110  0.0562
  880MOL0     C16035   8.860   0.173   5.266 -0.6525 -0.8958 -0.3697
  880MOL0     O16036   8.750   0.097   5.295 -0.0090 -0.5222 -0.0331
  880MOL0     C16037   8.623   0.169   5.307 -0.9984  1.6347  0.1089
  880MOL0     C16038   8.514   0.060   5.268  0.1283 -0.4857 -0.2410
  880MOL0     C16039   8.372   0.092   5.310 -0.2030  0.3912  0.1399
  880MOL0     C16040   8.314   0.240   5.272 -0.0650 -0.0141 -0.1074
  880MOL0     C16041   8.168   0.246   5.289  0.1002  0.9373 -0.3192
  880MOL0     C16042   8.099   0.337   5.194  0.1063  0.0944 -0.3108
  880MOL0     C16043   7.943   0.344   5.198  0.3653  0.0101 -1.2004
  880MOL0     C16044   7.898   0.411   5.329  0.0595  0.0128  0.2367
  880MOL0     N16045   7.749   0.421   5.320  0.4556 -0.8379 -0.1958
  880MOL0     C16046   7.662   0.460   5.424  0.2458 -0.7425  0.8015
  880MOL0     C16047   7.537   0.419   5.375 -0.4855 -0.8125 -0.4898
  880MOL0     C16048   7.410   0.448   5.457 -0.0711 -0.3791  0.2223
  880MOL0     C16049   7.286   0.420   5.367  0.3445  0.4556 -0.7234
  880MOL0     C16050   7.261   0.523   5.254 -0.6001 -0.6800  0.6172
  880MOL0     C16051   7.260   0.664   5.303  0.1803  0.5620  0.7206
  880MOL0     O16052   7.179   0.691   5.422  0.1419  0.1205  0.0104
  880MOL0     C16053   7.048   0.687   5.397 -0.0954  0.8970  0.0690
  880MOL0     C16054   6.964   0.588   5.457 -0.7369 -0.0873  0.6489
  880MOL0     C16055   6.830   0.602   5.448 -0.4879  0.4795 -0.1931
  880MOL0     C16056   6.767   0.696   5.376  0.0269 -0.4990 -0.5917
  880MOL0     C16057   6.620   0.720   5.384  0.4493  0.3088  0.1562
  880MOL0     O16058   6.550   0.640   5.472  0.0560 -0.1214  0.1476
  880MOL0     C16059   6.415   0.657   5.493  0.1669 -0.5916  1.1904
  880MOL0     C16060   6.319   0.589   5.416  0.1162 -0.6397  1.3127
  880MOL0     C16061   6.183   0.617   5.430  0.3795  0.1371  0.4485
  880MOL0     C16062   6.138   0.710   5.535 -0.0169  0.6527 -0.2143
  880MOL0     O16063   6.000   0.729   5.553  0.0190 -0.2627 -0.4241
  880MOL0     C16064   5.914   0.615   5.531  0.2133 -0.2403 -1.3097
  880MOL0     C16065   5.779   0.639   5.594 -0.2076  1.0935 -0.4963
  880MOL0     C16066   5.699   0.509   5.590 -0.6898 -0.7772 -0.0290
  880MOL0     C16067   5.551   0.527   5.615 -0.5810 -0.0048 -0.0657
  880MOL0     C16068   5.477   0.397   5.594 -0.0133  0.7317 -0.1800
  880MOL0     C16069   5.327   0.421   5.631 -0.1542 -0.1837  0.0513
  880MOL0     C16070   5.265   0.280   5.638 -0.0621 -0.0498  0.4168
  880MOL0     C16071   5.119   0.284   5.638 -0.2259  0.1799 -0.0298
  880MOL0    Cl16072   5.066   0.126   5.680  0.2358  0.2646  0.4101
  880MOL0     C16073   6.233   0.763   5.615 -0.7422  0.3925  0.7272
  880MOL0     C16074   6.366   0.734   5.595  0.3521 -0.4050 -0.5693
  880MOL0     O16075   6.583   0.837   5.345 -0.9672 -0.0441 -0.2139
  880MOL0     C16076   6.855   0.773   5.293 -0.3563 -0.3484 -0.9978
  880MOL0     C16077   6.991   0.779   5.313  0.2488  0.3173  0.7931
  880MOL0     N16078   7.549   0.363   5.252  0.0688 -0.1425 -0.1367
  880MOL0     N16079   7.667   0.380   5.214  0.3868  0.6642  0.0879
  880MOL0     C16080   8.985   0.107   5.300  0.7711 -0.7872 -0.3715
  880MOL0     C16081   9.114   0.159   5.280  0.3477 -0.4735 -0.5732
  880MOL0     C16082   9.415   0.415   5.031 -0.4701  0.4824 -0.2458
  880MOL0     C16083   9.455   0.512   5.118  0.5592  0.2517  0.3179
  880MOL0     C16084   9.571   0.587   5.100 -0.5324 -0.1350  0.0151
  880MOL0     C16085   9.650   0.567   4.986  0.9741  1.2081  0.3630
  880MOL0     O16086   9.766   0.634   4.982 -0.0343 -0.5713 -0.1387
  880MOL0     C16087   9.863   0.608   4.871  0.3193  0.0343 -0.6662
  880MOL0     C16088   9.980   0.706   4.876  0.1378  0.0211 -0.3346
  880MOL0     C16089   9.945   0.860   4.873  0.1774  0.3884  0.1488
  880MOL0     C16090  10.056   0.957   4.907 -0.1209 -0.3205  0.0586
  880MOL0     C16091  10.161   0.929   4.815 -0.1059 -0.0274 -0.7740
  880MOL0     C16092  10.251   0.897   4.740 -0.9958 -0.2797  0.1987
  880MOL0     C16093   9.603   0.476   4.889 -0.2825 -0.5187  0.4565
  880MOL0     C16094   9.485   0.401   4.910  0.4231 -0.0387 -0.3288
  880MOL0     H16095   9.011   0.421   5.095 -1.7372  0.8182 -0.3187
  880MOL0     H16096   8.785   0.344   5.157 -0.7145 -0.7377  1.2299
  880MOL0     H16097   8.614   0.249   5.233  1.1182  2.3153  0.5262
  880MOL0     H16098   8.601   0.196   5.411 -0.3526  0.9667  0.4228
  880MOL0     H16099   8.540  -0.041   5.300  1.2994 -0.1050  0.0562
  880MOL0     H16100   8.512   0.063   5.159 -0.6598  1.1479 -0.2149
  880MOL0     H16101   8.367   0.075   5.418  1.4659 -0.3282  0.1429
  880MOL0     H16102   8.319   0.016   5.252  1.9963  0.3806 -2.0046
  880MOL0     H16103   8.363   0.319   5.331  0.3286 -1.3143  1.3536
  880MOL0     H16104   8.336   0.256   5.166 -0.9113 -0.1177 -0.3042
  880MOL0     H16105   8.134   0.280   5.387  1.0163  2.8853 -0.6381
  880MOL0     H16106   8.139   0.141   5.273 -0.0503  0.9287 -0.0117
  880MOL0     H16107   8.123   0.326   5.088 -4.3175  0.4038 -1.5294
  880MOL0     H16108   8.144   0.433   5.223  3.2386 -2.0090  2.6729
  880MOL0     H16109   7.910   0.399   5.110  0.8507 -1.4230 -2.3201
  880MOL0     H16110   7.905   0.242   5.186 -0.7826  0.7232 -4.6286
  880MOL0     H16111   7.947   0.508   5.331  0.1457 -0.0406  2.3760
  880MOL0     H16112   7.926   0.356   5.419 -1.7362  0.0212  0.8521
  880MOL0     H16113   7.691   0.502   5.520  4.1347 -0.5737 -0.2642
  880MOL0     H16114   7.412   0.549   5.498 -0.6245 -0.7381  1.1594
  880MOL0     H16115   7.393   0.373   5.535  0.0978 -1.3046 -0.6036
  880MOL0     H16116   7.192   0.407   5.422 -0.5044  1.4730 -1.8792
  880MOL0     H16117   7.308   0.323   5.321  0.7451  0.4249 -0.4707
  880MOL0     H16118   7.335   0.505   5.176 -0.9063 -2.3269  0.6739
  880MOL0     H16119   7.164   0.502   5.209  1.3095 -0.1110 -4.4028
  880MOL0     H16120   7.230   0.729   5.220  2.0048 -0.2086 -0.6254
  880MOL0     H16121   7.363   0.692   5.326  1.2616 -2.0406 -0.5376
  880MOL0     H16122   7.008   0.510   5.518 -0.3301  0.6600  1.3366
  880MOL0     H16123   6.767   0.537   5.508  0.5519  1.0466  1.6018
  880MOL0     H16124   6.341   0.527   5.330 -0.7252 -0.4787  0.9661
  880MOL0     H16125   6.116   0.578   5.354  0.4048 -2.1217  1.4963
  880MOL0     H16126   5.966   0.538   5.588 -1.4260  1.1708  2.3762
  880MOL0     H16127   5.895   0.596   5.425  0.1014  0.7514 -1.4762
  880MOL0     H16128   5.721   0.709   5.533 -1.4715 -0.3574 -1.0254
  880MOL0     H16129   5.788   0.665   5.700  0.4788  2.5498 -0.8810
  880MOL0     H16130   5.733   0.447   5.673 -1.4364  0.4040  1.2179
  880MOL0     H16131   5.713   0.467   5.490 -0.3956  0.6123 -0.5950
  880MOL0     H16132   5.553   0.561   5.719  1.4980 -0.1563 -0.0137
  880MOL0     H16133   5.503   0.602   5.551 -0.4445 -0.2991 -0.5126
  880MOL0     H16134   5.513   0.321   5.663 -0.4726  0.0948 -0.6347
  880MOL0     H16135   5.466   0.359   5.492 -2.3950 -0.8537  0.5964
  880MOL0     H16136   5.277   0.476   5.551 -0.4342  0.0264  0.3706
  880MOL0     H16137   5.326   0.464   5.732  1.0997 -0.2074  0.0899
  880MOL0     H16138   5.293   0.219   5.552  1.7358 -1.1513  1.7215
  880MOL0     H16139   5.300   0.235   5.731  0.9143  2.1450  1.1754
  880MOL0     H16140   5.093   0.301   5.533  1.3614  1.9758 -0.1745
  880MOL0     H16141   5.075   0.355   5.708 -1.2626  0.5473 -1.0286
  880MOL0     H16142   6.213   0.821   5.704  0.2987 -0.1945  1.3754
  880MOL0     H16143   6.442   0.778   5.659  0.6235  0.0677 -1.2173
  880MOL0     H16144   6.823   0.852   5.225  1.5581  0.9731 -0.4439
  880MOL0     H16145   7.047   0.846   5.249  0.1550  0.1967  0.5837
  880MOL0     H16146   8.979   0.018   5.362 -0.8799 -0.3830  0.1006
  880MOL0     H16147   9.204   0.108   5.314  3.3451  3.6359 -1.5427
  880MOL0     H16148   9.383   0.536   5.196 -0.6948 -1.3449 -0.3106
  880MOL0     H16149   9.592   0.664   5.173  0.5731  0.4917 -0.9287
  880MOL0     H16150   9.810   0.623   4.777 -3.0492 -2.2967  0.6489
  880MOL0     H16151   9.900   0.505   4.884  0.9316  0.0375 -2.2114
  880MOL0     H16152  10.037   0.693   4.968  1.6373 -1.8550 -1.4466
  880MOL0     H16153  10.043   0.679   4.790  2.1107 -0.3158  1.1524
  880MOL0     H16154   9.862   0.881   4.942 -0.3501  1.3064 -0.7275
  880MOL0     H16155   9.899   0.888   4.778  0.0810  0.4147  0.2024
  880MOL0     H16156  10.018   1.059   4.895 -1.8680 -1.1273 -2.0096
  880MOL0     H16157  10.079   0.934   5.011  2.5625 -0.9702 -0.6077
  880MOL0     H16158  10.314   0.889   4.653 -1.3849 -0.5868 -0.0570
  880MOL0     H16159   9.657   0.450   4.799 -1.9225  0.5043 -0.8755
  880MOL0     H16160   9.459   0.336   4.827  0.3811 -1.5876  0.8573
  881MOL0     O16161   3.542   1.340   2.974  0.2427  0.1321  0.1269
  881MOL0     C16162   3.610   1.254   3.034 -0.6919 -0.9419 -0.4023
  881MOL0     O16163   3.562   1.162   3.116 -0.3606 -0.2945 -1.0000
  881MOL0     C16164   3.427   1.153   3.143 -0.5490  0.1113  0.0379
  881MOL0     C16165   3.365   1.224   3.252 -0.3675 -0.3644  0.5590
  881MOL0     C16166   3.231   1.202   3.280 -0.3380 -0.7647  1.0593
  881MOL0     C16167   3.155   1.121   3.196 -0.6295  0.0404 -0.0186
  881MOL0     O16168   3.020   1.115   3.231  0.9627 -0.2247 -0.2001
  881MOL0     C16169   2.930   1.046   3.147  0.0966 -0.2095  0.2295
  881MOL0     C16170   2.789   1.030   3.214 -0.6983 -0.1975  0.9736
  881MOL0     C16171   2.700   0.947   3.126  0.3964  0.3394 -0.1517
  881MOL0     C16172   2.557   0.964   3.176 -0.1934 -0.1519 -1.2234
  881MOL0     C16173   2.461   0.869   3.102 -0.2134 -0.1054 -1.2057
  881MOL0     C16174   2.323   0.891   3.160 -0.2883  0.0686 -0.0060
  881MOL0     C16175   2.222   0.805   3.080 -0.3202 -0.1953  0.7104
  881MOL0     C16176   2.092   0.797   3.170 -0.5367 -0.5383  1.0752
  881MOL0     N16177   1.995   0.708   3.108 -0.9699  0.2454  0.0997
  881MOL0     C16178   2.001   0.648   2.988 -0.1999  0.5882 -0.0360
  881MOL0     C16179   1.872   0.593   2.973 -0.5069  0.0453 -0.2248
  881MOL0     C16180   1.830   0.527   2.838 -0.4543 -0.4084  0.1145
  881MOL0     C16181   1.682   0.547   2.816 -0.7526  0.3288  0.4646
  881MOL0     C16182   1.594   0.459   2.897  0.0856  0.6200  0.0660
  881MOL0     C16183   1.447   0.488   2.873 -0.2728  0.3229  0.3823
  881MOL0     O16184   1.414   0.477   2.729 -0.2285 -0.0231 -0.3224
  881MOL0     C16185   1.292   0.524   2.686 -0.6529  0.7251  0.1578
  881MOL0     C16186   1.260   0.523   2.543  0.1608 -0.6209  0.8267
  881MOL0     C16187   1.149   0.587   2.485  0.3051  0.3801  0.4029
  881MOL0     C16188   1.049   0.642   2.565 -0.7723  0.6160  0.2512
  881MOL0     C16189   0.919   0.705   2.505  0.0147  0.2541  0.2823
  881MOL0     O16190   0.821   0.740   2.589  0.3317  0.3854  0.3605
  881MOL0     C16191   0.715   0.799   2.529 -0.0311  0.5489  0.3844
  881MOL0     C16192   0.624   0.708   2.474  0.5069 -0.2884 -0.1279
  881MOL0     C16193   0.507   0.757   2.414  0.1844  0.1965 -0.0254
  881MOL0     C16194   0.469   0.896   2.423 -0.5912  0.1518 -0.1328
  881MOL0     O16195   0.353   0.955   2.376  0.2678 -0.2991 -0.0540
  881MOL0     C16196   0.290   0.910   2.259 -1.2895  0.0302  0.2262
  881MOL0     C16197   0.245   1.034   2.178 -0.1339 -0.6725  0.4231
  881MOL0     C16198   0.184   0.997   2.045  0.2428  0.3902  0.3949
  881MOL0     C16199   0.131   1.114   1.973 -0.2009  0.2468 -0.5276
  881MOL0     C16200   0.028   1.087   1.871  0.3997 -0.1162  0.0126
  881MOL0     C16201   0.003   1.204   1.778 -0.5639 -0.0000 -0.2701
  881MOL0     C16202  -0.113   1.204   1.678 -0.0708 -0.5617  0.2136
  881MOL0     C16203  -0.117   1.341   1.596  0.4053  0.0576 -0.5051
  881MOL0    Cl16204  -0.262   1.334   1.503  0.0291  0.0454  0.0955
  881MOL0     C16205   0.562   0.986   2.484 -1.0160 -0.3837 -0.3020
  881MOL0     C16206   0.686   0.934   2.539 -0.4816 -0.4318  0.3009
  881MOL0     O16207   0.911   0.727   2.384 -0.7622  0.1174  0.1087
  881MOL0     C16208   1.072   0.634   2.708 -0.3917  0.2661 -0.3414
  881MOL0     C16209   1.196   0.583   2.767  0.4310 -0.2062  0.4159
  881MOL0     N16210   1.798   0.621   3.084 -0.2166  0.4136 -0.2128
  881MOL0     N16211   1.867   0.701   3.162  1.0489  0.4061 -0.5043
  881MOL0     C16212   3.209   1.064   3.084 -0.2310 -0.3430 -0.1264
  881MOL0     C16213   3.344   1.079   3.058 -0.3337  0.0878 -0.1988
  881MOL0     C16214   3.758   1.254   3.016 -0.1313  0.4729 -0.2493
  881MOL0     C16215   3.810   1.273   2.886  0.3519  0.6068  0.7073
  881MOL0     C16216   3.947   1.285   2.864  0.0204  0.0192  0.6579
  881MOL0     C16217   4.041   1.289   2.970  1.0856 -0.2437  0.3821
  881MOL0     O16218   4.171   1.310   2.967 -0.2312  0.5815  0.4675
  881MOL0     C16219   4.244   1.346   2.847  0.1362  0.1800  0.0154
  881MOL0     C16220   4.386   1.391   2.891 -0.6666  0.6402  0.0466
  881MOL0     C16221   4.476   1.262   2.927 -0.1690  0.4153 -1.1035
  881MOL0     C16222   4.622   1.282   2.969 -0.6871 -0.2755  0.2501
  881MOL0     C16223   4.700   1.177   2.913  0.3640  0.4766 -0.0965
  881MOL0     C16224   4.768   1.083   2.862 -0.8051 -0.1543 -0.0411
  881MOL0     C16225   3.982   1.259   3.097  0.0903 -1.1697 -0.8618
  881MOL0     C16226   3.847   1.250   3.128  0.1366  0.0331  0.0494
  881MOL0     H16227   3.413   1.299   3.314 -0.4077 -0.1599  0.3482
  881MOL0     H16228   3.186   1.259   3.360  0.4092  2.5107 -0.6982
  881MOL0     H16229   2.964   0.948   3.114 -0.0085 -1.2012  2.8649
  881MOL0     H16230   2.923   1.105   3.055 -0.1091 -2.4992 -1.2988
  881MOL0     H16231   2.737   1.123   3.235 -0.7753 -0.3278  1.3556
  881MOL0     H16232   2.787   0.979   3.310 -5.1965  1.8671  2.2291
  881MOL0     H16233   2.729   0.842   3.120 -1.1246 -0.2848  2.1389
  881MOL0     H16234   2.710   0.988   3.025  3.8226  0.6746  0.2159
  881MOL0     H16235   2.549   0.944   3.284 -2.1527  1.3405 -1.0300
  881MOL0     H16236   2.529   1.067   3.154 -2.7910 -0.2355  1.1040
  881MOL0     H16237   2.487   0.765   3.121  0.4588  0.1470 -0.7136
  881MOL0     H16238   2.469   0.877   2.993  2.7942  0.3916 -1.0265
  881MOL0     H16239   2.303   0.999   3.161 -0.2364  0.1200 -1.8391
  881MOL0     H16240   2.321   0.851   3.262 -0.1792 -0.7194 -0.3081
  881MOL0     H16241   2.195   0.847   2.983 -1.8348  3.0411  2.3701
  881MOL0     H16242   2.266   0.706   3.069 -1.3619 -0.5185 -0.8631
  881MOL0     H16243   2.043   0.893   3.189  1.9055  1.2716 -1.0170
  881MOL0     H16244   2.126   0.760   3.267  2.7367 -0.4093  0.1102
  881MOL0     H16245   2.085   0.651   2.919  1.9730 -1.9856  2.2961
  881MOL0     H16246   1.863   0.423   2.831  0.5959 -0.2115  1.7468
  881MOL0     H16247   1.885   0.579   2.759  1.8326 -1.5762  0.8709
  881MOL0     H16248   1.661   0.520   2.712 -0.7067  1.4941  0.1432
  881MOL0     H16249   1.644   0.646   2.843  0.0635 -0.0322  3.2137
  881MOL0     H16250   1.618   0.355   2.875  2.1021  1.0221  0.1747
  881MOL0     H16251   1.613   0.476   3.004  2.3118  2.4205 -0.5159
  881MOL0     H16252   1.435   0.594   2.894  1.3980  1.5209 -3.6699
  881MOL0     H16253   1.373   0.434   2.932  0.1727 -0.0009  0.6562
  881MOL0     H16254   1.329   0.484   2.469 -0.0768  0.1034  0.2154
  881MOL0     H16255   1.142   0.597   2.377 -2.2367  2.4705  0.6570
  881MOL0     H16256   0.648   0.603   2.467  2.2185  0.1844 -2.7040
  881MOL0     H16257   0.448   0.686   2.359  0.2219 -1.5761  2.0835
  881MOL0     H16258   0.209   0.842   2.286 -0.8196 -0.9324 -0.7480
  881MOL0     H16259   0.356   0.856   2.190 -1.8224 -0.8951  0.4222
  881MOL0     H16260   0.334   1.095   2.157 -2.2600  1.9474 -1.5481
  881MOL0     H16261   0.170   1.091   2.234  0.2241 -0.8643  1.1151
  881MOL0     H16262   0.098   0.932   2.061 -0.3587  0.3480 -2.4610
  881MOL0     H16263   0.253   0.943   1.979 -2.9272 -1.9608 -1.2982
  881MOL0     H16264   0.072   1.164   2.050  0.0687 -1.8508  1.1115
  881MOL0     H16265   0.218   1.178   1.954 -0.0378  1.0274  2.3185
  881MOL0     H16266  -0.061   1.063   1.930  0.7261 -0.1228  0.5133
  881MOL0     H16267   0.058   1.001   1.809 -0.8204  0.4526 -1.4254
  881MOL0     H16268   0.094   1.205   1.718 -0.7807  0.1006 -0.6022
  881MOL0     H16269   0.016   1.302   1.825  1.7770 -0.7119  0.7020
  881MOL0     H16270  -0.092   1.122   1.609  0.9016  0.7041 -1.0671
  881MOL0     H16271  -0.204   1.176   1.732 -0.1673  0.4484  0.5992
  881MOL0     H16272  -0.033   1.340   1.527  1.8546 -2.3132  1.1259
  881MOL0     H16273  -0.120   1.423   1.668 -3.2158 -0.1646 -0.1828
  881MOL0     H16274   0.535   1.089   2.501  4.6184  1.6674 -1.4057
  881MOL0     H16275   0.745   1.012   2.586  1.1384 -1.0144 -0.6972
  881MOL0     H16276   0.993   0.671   2.773  3.0597  2.2146  3.1689
  881MOL0     H16277   1.214   0.583   2.874  2.5512  0.0145  0.0934
  881MOL0     H16278   3.150   1.014   3.008  0.1679  0.7877 -1.2295
  881MOL0     H16279   3.388   1.028   2.974  0.0532  0.8384 -0.4641
  881MOL0     H16280   3.736   1.278   2.807  0.4981 -2.0060  0.3092
  881MOL0     H16281   3.977   1.298   2.760 -1.5593 -0.7350  0.0810
  881MOL0     H16282   4.193   1.423   2.787 -1.4289 -0.2861  0.6903
  881MOL0     H16283   4.244   1.252   2.791 -2.0014 -0.0332  0.2720
  881MOL0     H16284   4.437   1.446   2.811  0.6571  1.1399  1.1943
  881MOL0     H16285   4.376   1.454   2.980 -0.8957 -1.0569  1.2702
  881MOL0     H16286   4.481   1.197   2.840  0.3059 -1.5381  0.3247
  881MOL0     H16287   4.427   1.210   3.010  1.8900  0.1111 -0.0085
  881MOL0     H16288   4.659   1.379   2.934  0.9124  0.2594  3.0579
  881MOL0     H16289   4.641   1.273   3.076 -1.4447 -0.9570  0.3330
  881MOL0     H16290   4.837   1.007   2.833  0.4774  1.3472 -1.0904
  881MOL0     H16291   4.054   1.242   3.177  1.3470 -1.8748 -2.1048
  881MOL0     H16292   3.808   1.229   3.228  0.8087 -1.4458  0.0386
  882MOL0     O16293  11.244   7.187   4.966 -0.4019  0.2119 -0.9788
  882MOL0     C16294  11.241   7.269   5.061  0.2362  0.0504 -0.2427
  882MOL0     O16295  11.132   7.348   5.085 -0.2998 -0.4658  0.2389
  882MOL0     C16296  11.010   7.324   5.025 -0.0291  0.2720 -0.3020
  882MOL0     C16297  10.946   7.207   5.010 -0.6174  0.7217 -0.8324
  882MOL0     C16298  10.823   7.204   4.936  0.2146 -0.4887  0.3100
  882MOL0     C16299  10.768   7.317   4.873  0.3174  0.2659  0.0380
  882MOL0     O16300  10.645   7.318   4.813 -0.1649  0.1214 -0.2225
  882MOL0     C16301  10.555   7.411   4.868  0.3520  0.5488 -0.0404
  882MOL0     C16302  10.421   7.369   4.830  0.7915  0.9112 -0.2857
  882MOL0     C16303  10.316   7.458   4.906  0.3233 -0.7556 -1.1104
  882MOL0     C16304  10.178   7.395   4.926  0.9325 -0.0110 -0.0356
  882MOL0     C16305  10.184   7.269   5.011  0.1277 -0.0998 -1.0742
  882MOL0     C16306  10.041   7.200   5.017  0.6539  0.0703 -1.4773
  882MOL0     C16307   9.986   7.155   4.881 -0.3541  1.4356 -0.1853
  882MOL0     C16308   9.863   7.062   4.890  0.4325  0.3578 -0.4515
  882MOL0     N16309   9.735   7.106   4.955  0.4336  0.5565 -0.3790
  882MOL0     C16310   9.638   7.163   4.878  0.7818 -0.0414  0.1646
  882MOL0     C16311   9.575   7.240   4.965  0.5686  0.5636 -0.7835
  882MOL0     C16312   9.435   7.293   4.933 -0.1327  0.9452  0.1610
  882MOL0     C16313   9.327   7.252   5.029  0.8268 -0.0230 -0.3820
  882MOL0     C16314   9.317   7.104   5.053  0.3242  0.1389 -0.5333
  882MOL0     C16315   9.194   7.056   5.123  0.1762 -0.8629 -0.3053
  882MOL0     O16316   9.224   7.049   5.258 -0.2167 -0.5325  0.5657
  882MOL0     C16317   9.124   6.997   5.340  0.4441  0.5757 -0.7669
  882MOL0     C16318   9.151   6.972   5.476 -0.2836  0.4028 -0.3521
  882MOL0     C16319   9.052   6.930   5.567  0.1247  0.3404 -0.4781
  882MOL0     C16320   8.920   6.919   5.532 -0.4104 -0.2148  0.4799
  882MOL0     C16321   8.831   6.883   5.643 -0.1879 -0.0611 -0.2252
  882MOL0     O16322   8.895   6.847   5.764  0.4806 -0.1486  0.5004
  882MOL0     C16323   8.828   6.802   5.879 -0.3460  0.4216  0.0891
  882MOL0     C16324   8.711   6.728   5.869  0.8078 -0.0391  0.7243
  882MOL0     C16325   8.665   6.659   5.982 -1.0235 -0.2718  0.3334
  882MOL0     C16326   8.736   6.669   6.102  0.0601  1.1555 -0.0937
  882MOL0     O16327   8.696   6.582   6.208 -0.8893  0.0256  0.1708
  882MOL0     C16328   8.616   6.646   6.307  0.2827 -0.1496 -0.3513
  882MOL0     C16329   8.533   6.542   6.389 -0.3170 -0.1866 -0.3820
  882MOL0     C16330   8.400   6.490   6.324 -0.3273 -0.5242 -0.2581
  882MOL0     C16331   8.289   6.596   6.324 -0.2419 -1.2567  0.0655
  882MOL0     C16332   8.167   6.557   6.238  0.1957  0.3751  0.9530
  882MOL0     C16333   8.068   6.463   6.308  0.1347  0.6031  0.4357
  882MOL0     C16334   7.931   6.486   6.233 -0.2175 -0.8469  0.2752
  882MOL0     C16335   7.828   6.381   6.260  0.0598 -1.1772 -0.4307
  882MOL0    Cl16336   7.668   6.450   6.202 -0.3233 -0.1353  0.0758
  882MOL0     C16337   8.845   6.748   6.123 -0.0154 -0.7226 -0.3574
  882MOL0     C16338   8.892   6.813   6.007 -0.1028 -0.7568  0.5797
  882MOL0     O16339   8.715   6.889   5.618  0.5536  0.1998  0.1523
  882MOL0     C16340   8.891   6.947   5.396 -0.1526  0.1766 -0.1086
  882MOL0     C16341   8.987   6.988   5.301 -0.1051 -0.0018 -0.4315
  882MOL0     N16342   9.633   7.231   5.095 -0.1774 -0.6222  0.4003
  882MOL0     N16343   9.731   7.144   5.082 -0.2807 -0.4941  0.4710
  882MOL0     C16344  10.835   7.429   4.897 -0.1993 -0.7854 -0.0611
  882MOL0     C16345  10.952   7.433   4.970 -0.1241 -0.3671  0.3127
  882MOL0     C16346  11.368   7.277   5.132 -0.8539 -0.9745 -0.0553
  882MOL0     C16347  11.381   7.355   5.249 -0.3144  0.3249 -0.3008
  882MOL0     C16348  11.509   7.366   5.305 -0.3881  0.8119 -0.7032
  882MOL0     C16349  11.615   7.291   5.258 -0.6570 -0.1786  1.3813
  882MOL0     O16350  11.731   7.315   5.313 -0.3051  1.2378 -0.5362
  882MOL0     C16351  11.853   7.241   5.294 -0.1546 -0.0869  0.1351
  882MOL0     C16352  11.956   7.330   5.373  0.2036 -0.4680 -0.0485
  882MOL0     C16353  12.091   7.263   5.404 -0.4900 -0.3208 -0.4144
  882MOL0     C16354  12.176   7.233   5.270 -0.5517  0.6653 -0.5296
  882MOL0     C16355  12.317   7.195   5.308  0.2964  0.1720  0.0869
  882MOL0     C16356  12.421   7.175   5.366 -0.0947 -0.2028  0.6704
  882MOL0     C16357  11.594   7.214   5.144  0.3400  0.0613 -0.5497
  882MOL0     C16358  11.476   7.209   5.086  0.0254  0.4545  0.7417
  882MOL0     H16359  10.991   7.113   5.040 -3.2145 -1.1807 -2.5353
  882MOL0     H16360  10.778   7.107   4.919 -1.6063  0.5092 -0.8439
  882MOL0     H16361  10.578   7.512   4.831 -1.3303  1.2938  0.8253
  882MOL0     H16362  10.563   7.411   4.977 -1.0824 -0.2754  0.0819
  882MOL0     H16363  10.413   7.268   4.872 -1.1377  1.2992  0.3897
  882MOL0     H16364  10.399   7.375   4.723  0.9248  0.6032 -0.3315
  882MOL0     H16365  10.297   7.552   4.853 -3.2420  0.5823  2.0386
  882MOL0     H16366  10.355   7.485   5.005  0.5205 -0.2012 -1.3378
  882MOL0     H16367  10.111   7.464   4.979  0.4071 -0.1941 -0.4562
  882MOL0     H16368  10.142   7.366   4.827 -1.3650 -2.7674  1.4455
  882MOL0     H16369  10.204   7.301   5.114  0.7630 -0.5726 -1.0520
  882MOL0     H16370  10.249   7.189   4.977 -0.6578 -0.3749 -1.9761
  882MOL0     H16371   9.969   7.261   5.073 -1.3619 -2.3761 -1.1932
  882MOL0     H16372  10.051   7.120   5.092  3.0746  0.4772 -1.2971
  882MOL0     H16373   9.959   7.242   4.821  0.1361  2.7991  1.4996
  882MOL0     H16374  10.066   7.099   4.833 -1.2912 -0.1255 -0.0004
  882MOL0     H16375   9.893   6.978   4.953 -2.8636  0.6068  1.6927
  882MOL0     H16376   9.845   7.019   4.791  1.1677 -2.3953  0.5164
  882MOL0     H16377   9.595   7.144   4.780 -1.1046  0.1493  0.9271
  882MOL0     H16378   9.399   7.248   4.840 -0.5533 -1.4765  1.4168
  882MOL0     H16379   9.440   7.402   4.939  1.4911  0.8150  2.5322
  882MOL0     H16380   9.237   7.291   4.981  0.6864 -1.4890 -1.3787
  882MOL0     H16381   9.354   7.305   5.121  0.0658 -1.6020  0.8238
  882MOL0     H16382   9.322   7.043   4.962 -1.2267 -3.0583  1.3322
  882MOL0     H16383   9.408   7.072   5.105 -1.3376 -1.7170  1.4432
  882MOL0     H16384   9.166   6.954   5.094 -0.3604 -1.0744  0.8980
  882MOL0     H16385   9.114   7.129   5.106  2.6524  2.8052  2.2565
  882MOL0     H16386   9.253   6.983   5.512 -0.7252 -0.7109  1.3273
  882MOL0     H16387   9.089   6.893   5.662 -0.0281 -0.7144 -0.8049
  882MOL0     H16388   8.648   6.716   5.782 -0.6507 -1.2099  1.8898
  882MOL0     H16389   8.570   6.606   5.982 -1.1555 -0.0682  1.5388
  882MOL0     H16390   8.553   6.720   6.256  0.8592  0.6017  0.0098
  882MOL0     H16391   8.688   6.688   6.377 -0.6337 -0.5249  0.8441
  882MOL0     H16392   8.485   6.594   6.473  0.6658  0.3492 -0.1345
  882MOL0     H16393   8.596   6.474   6.447  3.8927  2.9064 -0.8912
  882MOL0     H16394   8.357   6.409   6.384  1.2640  0.1446  1.8924
  882MOL0     H16395   8.426   6.471   6.219 -0.0459  3.7521 -1.1638
  882MOL0     H16396   8.265   6.622   6.428 -4.4405  0.7780 -1.1873
  882MOL0     H16397   8.324   6.691   6.282  0.3689 -1.7397 -0.5270
  882MOL0     H16398   8.203   6.508   6.146 -0.7963 -0.4392  0.9871
  882MOL0     H16399   8.115   6.648   6.206  0.4310 -0.0701 -0.7930
  882MOL0     H16400   8.068   6.479   6.416  0.7229 -1.8915  0.8744
  882MOL0     H16401   8.095   6.358   6.295  1.9693  1.1445 -0.4472
  882MOL0     H16402   7.903   6.587   6.264  2.7855  0.9672 -2.3793
  882MOL0     H16403   7.946   6.485   6.125 -1.4277  0.6573  0.0658
  882MOL0     H16404   7.825   6.362   6.368 -0.8170 -0.7317 -0.3698
  882MOL0     H16405   7.854   6.295   6.197 -2.5730 -0.5661 -2.5456
  882MOL0     H16406   8.897   6.774   6.215  1.0058 -0.4182 -0.9933
  882MOL0     H16407   8.980   6.876   6.018  0.9453 -2.2921  1.2231
  882MOL0     H16408   8.792   6.934   5.353  1.6120 -2.5424 -3.9418
  882MOL0     H16409   8.951   7.031   5.208 -0.1541 -1.8861 -1.3324
  882MOL0     H16410  10.811   7.527   4.857  0.7850  0.1463  1.5138
  882MOL0     H16411  11.010   7.523   4.989  0.5639 -0.7404  0.0374
  882MOL0     H16412  11.298   7.407   5.296  1.4290  1.1584  2.0769
  882MOL0     H16413  11.526   7.423   5.396 -4.1414 -0.4910  1.0277
  882MOL0     H16414  11.872   7.221   5.189 -1.3765 -0.4889 -0.0247
  882MOL0     H16415  11.848   7.143   5.343  0.8826  0.5464  1.5874
  882MOL0     H16416  11.968   7.422   5.315  0.2571  0.4859  1.4397
  882MOL0     H16417  11.907   7.345   5.469 -1.2779 -2.2701 -0.4619
  882MOL0     H16418  12.079   7.170   5.460 -0.2834  1.2341  2.3965
  882MOL0     H16419  12.150   7.325   5.473 -0.6699 -0.7277  0.1083
  882MOL0     H16420  12.130   7.146   5.224  1.4128 -1.1321  0.6913
  882MOL0     H16421  12.179   7.324   5.210 -0.2306 -0.0633 -1.6549
  882MOL0     H16422  12.515   7.158   5.414  1.3662  1.9825 -1.2240
  882MOL0     H16423  11.675   7.153   5.104 -0.7913  0.8118 -4.3681
  882MOL0     H16424  11.473   7.158   4.990 -1.1184  1.7412  0.0556
  883MOL0     O16425   8.567  10.254   6.565 -0.9233 -0.0690  0.1469
  883MOL0     C16426   8.592  10.235   6.685  1.4635  0.2453 -0.6783
  883MOL0     O16427   8.509  10.166   6.773 -0.4797  0.0557 -0.2247
  883MOL0     C16428   8.378  10.131   6.732  0.1918 -0.5447 -0.3782
  883MOL0     C16429   8.357  10.065   6.611 -0.3620 -0.3158 -0.4170
  883MOL0     C16430   8.226  10.021   6.578  0.2049  0.0918  0.2504
  883MOL0     C16431   8.113  10.055   6.653 -0.4845 -0.4920  0.2545
  883MOL0     O16432   7.992  10.030   6.598 -0.2118 -0.1315 -0.9910
  883MOL0     C16433   7.876  10.081   6.688 -0.3775 -0.0333  0.3527
  883MOL0     C16434   7.750   9.998   6.646 -0.4469  0.4517 -1.0924
  883MOL0     C16435   7.628  10.061   6.722  0.1068 -0.3188 -0.5726
  883MOL0     C16436   7.492  10.005   6.667 -0.4388 -0.3966 -0.1358
  883MOL0     C16437   7.374  10.001   6.764 -0.5905 -0.3513 -0.1370
  883MOL0     C16438   7.320  10.140   6.809 -0.3012  0.0774  0.6664
  883MOL0     C16439   7.181  10.127   6.876 -0.1612 -0.9737  0.6826
  883MOL0     C16440   7.086  10.081   6.770  0.0647  0.3804 -0.1274
  883MOL0     N16441   6.956  10.043   6.830 -0.0145 -0.7483 -0.1813
  883MOL0     C16442   6.879   9.926   6.810 -0.0384  0.2808  0.0397
  883MOL0     C16443   6.766   9.953   6.876  0.4701  0.9005  0.1518
  883MOL0     C16444   6.629   9.887   6.862  0.2595  0.1520 -0.2205
  883MOL0     C16445   6.539   9.932   6.752 -0.1181 -0.2723 -0.0521
  883MOL0     C16446   6.514  10.086   6.766 -0.1124 -0.1962  0.0417
  883MOL0     C16447   6.444  10.151   6.653 -0.0621 -0.4491 -0.0029
  883MOL0     O16448   6.305  10.113   6.649  0.1780  0.2713 -0.0091
  883MOL0     C16449   6.212  10.171   6.560 -0.1008  0.4194 -0.3146
  883MOL0     C16450   6.228  10.280   6.481  0.4932 -0.4254 -0.7014
  883MOL0     C16451   6.125  10.343   6.409 -0.0776 -0.5379 -1.0895
  883MOL0     C16452   5.994  10.287   6.416  0.4910  0.6598 -0.8320
  883MOL0     C16453   5.871  10.350   6.358  0.3171 -0.4448 -0.4865
  883MOL0     O16454   5.759  10.327   6.432 -0.1668 -0.2640 -0.1970
  883MOL0     C16455   5.641  10.306   6.374  0.7512 -0.1732  0.1710
  883MOL0     C16456   5.622  10.294   6.236 -0.1670 -0.2145  0.7457
  883MOL0     C16457   5.502  10.258   6.180  0.0342  0.1205  0.2820
  883MOL0     C16458   5.387  10.225   6.264  0.0898 -0.4628  0.7788
  883MOL0     O16459   5.274  10.190   6.198  0.4395 -0.1031 -0.8093
  883MOL0     C16460   5.158  10.157   6.275 -0.4481 -0.2581  0.2170
  883MOL0     C16461   5.043  10.129   6.172  0.8146 -0.6619 -0.2499
  883MOL0     C16462   4.925  10.059   6.240  0.3131 -0.1650 -0.6698
  883MOL0     C16463   4.827  10.001   6.134 -0.3399  0.9655 -0.1755
  883MOL0     C16464   4.719   9.931   6.203  0.4795 -0.6029  0.1308
  883MOL0     C16465   4.607   9.891   6.109  0.4541  1.1116  0.4486
  883MOL0     C16466   4.492   9.815   6.177 -0.4881 -0.1805 -0.6159
  883MOL0     C16467   4.405   9.742   6.081  0.8961  0.7840 -0.3637
  883MOL0    Cl16468   4.304   9.851   5.991  0.4483 -0.3842  0.1899
  883MOL0     C16469   5.405  10.240   6.400  0.0390 -0.2399 -0.2790
  883MOL0     C16470   5.530  10.285   6.455  0.9602 -0.4617  0.2692
  883MOL0     O16471   5.885  10.438   6.268 -0.1991 -0.0359  0.2474
  883MOL0     C16472   5.977  10.168   6.480  0.0980  0.3133  0.3291
  883MOL0     C16473   6.083  10.111   6.552 -0.2801  0.0645  0.0106
  883MOL0     N16474   6.783  10.058   6.957 -0.2553  0.2520  0.0457
  883MOL0     N16475   6.892  10.115   6.920  0.0634 -0.3421 -0.0975
  883MOL0     C16476   8.143  10.116   6.777  0.3592 -0.3411  0.0706
  883MOL0     C16477   8.273  10.155   6.824  0.1335  0.5243  0.4700
  883MOL0     C16478   8.723  10.285   6.718  0.3145  0.2351 -0.3361
  883MOL0     C16479   8.835  10.325   6.624  0.2222 -0.1725 -0.7860
  883MOL0     C16480   8.957  10.367   6.677 -0.5485  0.5686  0.7495
  883MOL0     C16481   8.982  10.383   6.812  0.0995 -0.1284 -1.4989
  883MOL0     O16482   9.099  10.440   6.867  0.0409  0.5547 -0.6210
  883MOL0     C16483   9.215  10.441   6.784 -0.0285  0.3832 -0.0133
  883MOL0     C16484   9.345  10.482   6.851  0.6088  0.5230  0.3538
  883MOL0     C16485   9.404  10.376   6.940  0.2111 -0.0929  0.7095
  883MOL0     C16486   9.469  10.442   7.060 -0.3196 -0.2157  0.1442
  883MOL0     C16487   9.616  10.453   7.035 -0.1676 -0.8220  0.1547
  883MOL0     C16488   9.738  10.460   7.036  0.2445  0.4783 -0.2801
  883MOL0     C16489   8.878  10.349   6.905  0.2364  0.3786 -0.2111
  883MOL0     C16490   8.755  10.298   6.861  0.5863  0.0441 -0.1808
  883MOL0     H16491   8.445  10.048   6.550 -0.9085  0.6100 -1.5216
  883MOL0     H16492   8.203   9.971   6.485  1.8996 -3.0798  1.3854
  883MOL0     H16493   7.877  10.190   6.683  3.1738  0.1532  2.2466
  883MOL0     H16494   7.887  10.047   6.791 -3.4594  0.1037  0.8196
  883MOL0     H16495   7.756   9.890   6.666  2.7359  0.5872 -0.8995
  883MOL0     H16496   7.747  10.013   6.538  3.2720  0.3729 -1.3215
  883MOL0     H16497   7.626  10.170   6.711  0.9964 -0.2039  0.2318
  883MOL0     H16498   7.650  10.050   6.828  1.6068  1.1352 -0.6773
  883MOL0     H16499   7.462  10.059   6.577  2.5954 -1.2393 -1.8127
  883MOL0     H16500   7.509   9.901   6.638 -1.7645 -0.6222 -0.1552
  883MOL0     H16501   7.415   9.951   6.852  0.4675 -2.4800 -1.7287
  883MOL0     H16502   7.308   9.940   6.701  0.0258  0.9203 -2.1326
  883MOL0     H16503   7.316  10.203   6.720  1.4434  0.6474  0.9618
  883MOL0     H16504   7.390  10.186   6.880 -1.4197  0.4233  1.5859
  883MOL0     H16505   7.182  10.055   6.959 -0.7944  0.3376  1.8607
  883MOL0     H16506   7.162  10.226   6.916 -0.0861  0.3065 -2.1935
  883MOL0     H16507   7.123  10.000   6.707 -1.0576  0.6315 -1.1569
  883MOL0     H16508   7.072  10.172   6.712 -0.8384  1.7228  2.0573
  883MOL0     H16509   6.890   9.861   6.723  1.9939 -3.7976  2.9939
  883MOL0     H16510   6.576   9.907   6.956 -1.8407 -1.1728 -1.0467
  883MOL0     H16511   6.626   9.778   6.863 -1.0142  0.1495 -1.1350
  883MOL0     H16512   6.439   9.889   6.760 -0.6338  0.6141 -1.3535
  883MOL0     H16513   6.590   9.900   6.660  1.3723 -0.4000  0.7838
  883MOL0     H16514   6.444  10.082   6.851 -2.6268 -3.4938 -1.9254
  883MOL0     H16515   6.604  10.142   6.793 -0.4621 -0.8128  2.8728
  883MOL0     H16516   6.495  10.123   6.560  0.2238  0.0492  0.0010
  883MOL0     H16517   6.455  10.258   6.637 -1.7313 -0.1786  0.4340
  883MOL0     H16518   6.323  10.333   6.494 -1.0487  1.9552  2.0252
  883MOL0     H16519   6.142  10.433   6.351  1.2241  0.4593  0.7356
  883MOL0     H16520   5.705  10.311   6.168 -2.0309  0.5441 -1.4731
  883MOL0     H16521   5.483  10.246   6.074 -0.5796 -0.1640  0.4170
  883MOL0     H16522   5.136  10.233   6.351  0.0949  4.2632 -3.7036
  883MOL0     H16523   5.180  10.059   6.319 -0.8486 -0.8986 -0.9635
  883MOL0     H16524   5.078  10.065   6.090 -0.9659 -0.4609 -1.2327
  883MOL0     H16525   5.003  10.222   6.130 -1.1619 -1.4302 -0.2156
  883MOL0     H16526   4.880  10.138   6.301 -1.7333  0.1215 -2.4459
  883MOL0     H16527   4.973   9.985   6.305 -2.3239 -0.6427  0.8587
  883MOL0     H16528   4.779  10.078   6.073  1.9926  1.0304 -2.0827
  883MOL0     H16529   4.878   9.933   6.065  0.2057  0.3009  0.8450
  883MOL0     H16530   4.676  10.000   6.277  0.4733 -2.7676  2.2740
  883MOL0     H16531   4.771   9.849   6.253  2.0721  2.7222  4.6191
  883MOL0     H16532   4.645   9.828   6.028 -0.0209  0.8486  0.4222
  883MOL0     H16533   4.560   9.984   6.076  2.4558  1.9677 -0.1392
  883MOL0     H16534   4.544   9.746   6.245  1.9667  0.9019 -1.2923
  883MOL0     H16535   4.437   9.889   6.235  0.3644 -0.1617  0.2054
  883MOL0     H16536   4.336   9.684   6.143  1.2156  2.4846  1.7346
  883MOL0     H16537   4.456   9.674   6.013 -2.5385  0.0047 -2.3767
  883MOL0     H16538   5.327  10.214   6.471 -0.3553  0.6897 -0.3594
  883MOL0     H16539   5.539  10.280   6.563  0.7277 -1.4657  0.2570
  883MOL0     H16540   5.879  10.123   6.494  0.2856 -1.0564 -2.2043
  883MOL0     H16541   6.066  10.020   6.610  1.0973  0.1036  0.5007
  883MOL0     H16542   8.068  10.149   6.848 -0.6161 -1.7710 -0.2606
  883MOL0     H16543   8.279  10.185   6.928  3.2462 -0.6103  0.7422
  883MOL0     H16544   8.818  10.310   6.518  0.0492  1.2137 -0.9730
  883MOL0     H16545   9.023  10.396   6.597 -1.3519  1.3637  0.3527
  883MOL0     H16546   9.185  10.517   6.710 -1.5243 -2.0414 -2.0469
  883MOL0     H16547   9.232  10.349   6.728  0.2808  0.7092 -0.4723
  883MOL0     H16548   9.417  10.506   6.772 -1.6031  0.7758 -1.7079
  883MOL0     H16549   9.321  10.571   6.910 -0.3517  0.1438  0.5567
  883MOL0     H16550   9.478  10.322   6.879 -1.6134 -2.4204  0.4150
  883MOL0     H16551   9.330  10.305   6.977  0.7257 -2.2320 -2.0199
  883MOL0     H16552   9.435  10.543   7.081  1.9449  0.7585 -0.5369
  883MOL0     H16553   9.457  10.388   7.155  2.0385 -0.6274  0.2777
  883MOL0     H16554   9.844  10.444   7.037  0.1960  0.1374 -0.3728
  883MOL0     H16555   8.890  10.370   7.011  0.4035  0.5097 -0.2548
  883MOL0     H16556   8.679  10.275   6.936  1.3269 -3.2546 -0.2508
  884MOL0     O16557  10.955  11.241   4.611 -0.1406 -0.2671  0.5000
  884MOL0     C16558  10.955  11.176   4.717  0.4341 -0.6639 -0.6991
  884MOL0     O16559  10.846  11.170   4.798 -0.6724 -0.8990 -0.4960
  884MOL0     C16560  10.731  11.246   4.800 -0.2452  0.1332  0.4859
  884MOL0     C16561  10.705  11.358   4.717 -0.7506 -0.9589  0.3638
  884MOL0     C16562  10.577  11.425   4.716 -0.9217 -0.1165 -0.7985
  884MOL0     C16563  10.476  11.370   4.790  0.0184  0.4499 -0.4706
  884MOL0     O16564  10.353  11.429   4.780 -0.0908 -0.5997  0.0506
  884MOL0     C16565  10.238  11.350   4.824 -0.5526  0.4775  0.5965
  884MOL0     C16566  10.115  11.439   4.809 -0.1722 -0.5880  0.4739
  884MOL0     C16567   9.991  11.360   4.858  0.8262 -0.7657  0.2177
  884MOL0     C16568   9.863  11.423   4.812 -0.4614 -0.9026  0.0990
  884MOL0     C16569   9.744  11.342   4.867 -0.9661 -0.5121 -0.2204
  884MOL0     C16570   9.633  11.323   4.773 -0.5930 -0.7380 -0.7269
  884MOL0     C16571   9.504  11.266   4.833  0.5020 -0.5853  1.1639
  884MOL0     C16572   9.403  11.239   4.717  0.4634  0.2019 -0.7025
  884MOL0     N16573   9.262  11.192   4.749  0.4686 -0.5716 -0.0682
  884MOL0     C16574   9.173  11.246   4.836  0.4030  0.0897  0.0274
  884MOL0     C16575   9.075  11.155   4.844  0.1215 -0.0232 -0.0655
  884MOL0     C16576   8.951  11.196   4.923 -0.3745  0.9809 -0.2713
  884MOL0     C16577   8.835  11.115   4.870 -0.6389  0.6638 -0.0316
  884MOL0     C16578   8.705  11.137   4.951 -0.6142 -0.1701 -0.1067
  884MOL0     C16579   8.596  11.020   4.940 -0.2664  0.5128 -0.3320
  884MOL0     O16580   8.495  11.036   5.037 -0.1211  0.2157  0.7171
  884MOL0     C16581   8.410  10.933   5.064 -0.7504 -0.1471  0.1009
  884MOL0     C16582   8.335  10.945   5.177 -0.2281  0.3859  0.2994
  884MOL0     C16583   8.236  10.857   5.212  0.2390 -0.2341  0.5191
  884MOL0     C16584   8.211  10.744   5.131 -0.4802 -0.2145 -0.1488
  884MOL0     C16585   8.108  10.651   5.163  0.8015  0.3776  0.0251
  884MOL0     O16586   8.025  10.682   5.263 -0.0595  0.3662 -0.1889
  884MOL0     C16587   7.927  10.596   5.297 -0.0083 -0.2146 -0.6360
  884MOL0     C16588   7.793  10.630   5.293 -0.3966 -0.4900  0.3032
  884MOL0     C16589   7.689  10.556   5.343  0.5586  0.2351  0.3834
  884MOL0     C16590   7.706  10.431   5.409  0.6003 -0.9151  0.2121
  884MOL0     O16591   7.608  10.350   5.469 -0.1469  1.0992  0.6941
  884MOL0     C16592   7.476  10.354   5.418 -0.1126  0.0210 -0.5018
  884MOL0     C16593   7.392  10.249   5.481 -0.0230 -1.0575 -1.2695
  884MOL0     C16594   7.247  10.242   5.441  0.8641 -0.2473 -0.4065
  884MOL0     C16595   7.174  10.126   5.505  0.3271  0.8636  0.4034
  884MOL0     C16596   7.033  10.071   5.446 -0.6459  0.3869  0.2784
  884MOL0     C16597   6.936  10.178   5.407 -0.8746  0.3738  0.3413
  884MOL0     C16598   6.784  10.119   5.403  0.2161 -0.0248  0.7765
  884MOL0     C16599   6.684  10.232   5.366 -0.1353 -0.1569 -0.1181
  884MOL0    Cl16600   6.659  10.341   5.499 -0.2300 -0.1508 -0.2957
  884MOL0     C16601   7.836  10.388   5.411  0.4983 -0.0729 -0.0007
  884MOL0     C16602   7.942  10.463   5.350 -0.5386  0.1297  1.0437
  884MOL0     O16603   8.096  10.543   5.095  0.5863 -0.2181 -0.2707
  884MOL0     C16604   8.288  10.732   5.014 -0.3304  0.1455  1.1653
  884MOL0     C16605   8.379  10.824   4.974 -1.1691  0.1837 -0.0813
  884MOL0     N16606   9.101  11.054   4.753 -0.7015 -0.1748 -0.7361
  884MOL0     N16607   9.207  11.082   4.692  0.3353  0.5824 -0.6122
  884MOL0     C16608  10.502  11.256   4.872  0.1964  0.5622  0.0833
  884MOL0     C16609  10.626  11.199   4.880 -0.2056 -0.2282  0.6980
  884MOL0     C16610  11.079  11.100   4.748  0.1065  0.1859 -0.4989
  884MOL0     C16611  11.072  10.985   4.836 -0.0975 -0.4372  0.4474
  884MOL0     C16612  11.182  10.901   4.853 -0.2556 -0.5000  1.1665
  884MOL0     C16613  11.311  10.929   4.799 -0.3548 -0.1032 -0.4121
  884MOL0     O16614  11.419  10.846   4.824 -0.2722  0.2046 -0.0868
  884MOL0     C16615  11.561  10.871   4.797  0.0913  0.4235  0.0722
  884MOL0     C16616  11.590  10.841   4.646  0.1983  0.5722 -0.4202
  884MOL0     C16617  11.728  10.899   4.603  0.0616 -0.3103 -0.6562
  884MOL0     C16618  11.842  10.853   4.685 -0.3230  0.0740  0.4041
  884MOL0     C16619  11.969  10.924   4.652  1.1430  0.1083 -0.3813
  884MOL0     C16620  12.068  10.992   4.629  0.0124  0.4438 -0.6947
  884MOL0     C16621  11.312  11.046   4.717 -0.0905 -0.6106 -0.2872
  884MOL0     C16622  11.203  11.126   4.693 -0.2772 -0.5296  0.4605
  884MOL0     H16623  10.787  11.396   4.657  0.4653  0.2274  2.6382
  884MOL0     H16624  10.560  11.515   4.657  2.7638  2.4048  1.5518
  884MOL0     H16625  10.243  11.317   4.928 -1.3770  1.4895  0.9744
  884MOL0     H16626  10.227  11.259   4.765  2.3867  0.4464 -0.0639
  884MOL0     H16627  10.092  11.479   4.710 -1.0216  1.3077  1.3860
  884MOL0     H16628  10.130  11.522   4.879 -2.1624  0.7765 -0.6394
  884MOL0     H16629   9.988  11.363   4.967 -2.9655 -0.5613  0.2444
  884MOL0     H16630   9.985  11.264   4.806 -0.3923 -1.1804  1.0708
  884MOL0     H16631   9.860  11.525   4.853  1.9904 -0.8162  0.2235
  884MOL0     H16632   9.857  11.436   4.704  1.9697 -2.5600 -0.3024
  884MOL0     H16633   9.704  11.393   4.955  0.8149  0.6823 -0.0406
  884MOL0     H16634   9.783  11.244   4.894 -2.4405 -0.8825  0.6852
  884MOL0     H16635   9.672  11.259   4.693 -2.2043 -0.2106 -1.9910
  884MOL0     H16636   9.622  11.423   4.731  1.7961  1.5390  3.4606
  884MOL0     H16637   9.534  11.166   4.865  0.6961  0.3224  4.0299
  884MOL0     H16638   9.468  11.327   4.916 -0.3399  2.6452 -1.3877
  884MOL0     H16639   9.445  11.167   4.646  3.1938 -1.8680  2.6673
  884MOL0     H16640   9.396  11.331   4.657 -1.4385  2.5534  2.7836
  884MOL0     H16641   9.177  11.345   4.881  1.0620  1.4279 -2.7155
  884MOL0     H16642   8.938  11.303   4.907 -1.1026  1.1632  1.3273
  884MOL0     H16643   8.968  11.175   5.029  3.9545 -2.1913 -1.3059
  884MOL0     H16644   8.857  11.008   4.864  0.5729  0.8739  0.5555
  884MOL0     H16645   8.817  11.153   4.769  3.0254 -0.5810 -1.3205
  884MOL0     H16646   8.737  11.141   5.055 -0.5756  0.6701 -0.1500
  884MOL0     H16647   8.658  11.233   4.928 -2.9857 -1.1205  0.4651
  884MOL0     H16648   8.645  10.926   4.968 -2.0051  0.0099  1.1931
  884MOL0     H16649   8.561  11.003   4.837 -0.3411 -0.3168 -0.1720
  884MOL0     H16650   8.361  11.023   5.249  1.8470 -0.8349  0.9619
  884MOL0     H16651   8.184  10.877   5.305 -0.3731  0.1682  0.1013
  884MOL0     H16652   7.773  10.730   5.257 -1.4328  0.0617  2.2746
  884MOL0     H16653   7.588  10.595   5.342  0.4551 -0.0472  0.0024
  884MOL0     H16654   7.468  10.337   5.310  0.9236 -1.3012 -0.4003
  884MOL0     H16655   7.431  10.450   5.445 -0.6990 -0.2114 -0.6341
  884MOL0     H16656   7.398  10.276   5.587 -3.7398  0.0410 -1.1858
  884MOL0     H16657   7.439  10.151   5.471  3.8292  0.2073  1.8231
  884MOL0     H16658   7.227  10.213   5.337 -0.1376 -0.2529 -0.2258
  884MOL0     H16659   7.195  10.336   5.462  1.1465  0.3297 -2.1175
  884MOL0     H16660   7.241  10.039   5.498  2.0544  2.1923 -0.3446
  884MOL0     H16661   7.151  10.143   5.610 -1.1399 -0.2675  0.2974
  884MOL0     H16662   6.990  10.005   5.522 -0.1150 -0.3897 -0.0808
  884MOL0     H16663   7.046  10.001   5.363 -0.6152 -1.5484  1.8365
  884MOL0     H16664   6.980  10.217   5.314  3.5192 -1.1384  1.5146
  884MOL0     H16665   6.944  10.256   5.483  0.3608 -1.0696  1.7758
  884MOL0     H16666   6.790  10.044   5.323 -1.8598  0.9179 -0.3233
  884MOL0     H16667   6.744  10.066   5.491 -0.4966 -2.5318 -0.9384
  884MOL0     H16668   6.587  10.188   5.344 -1.1824  0.5050  2.7116
  884MOL0     H16669   6.724  10.293   5.285 -0.8494  0.4769 -0.0120
  884MOL0     H16670   7.852  10.286   5.444 -1.1744 -0.6462 -0.8442
  884MOL0     H16671   8.035  10.409   5.336 -1.0296  0.1114 -3.7309
  884MOL0     H16672   8.285  10.644   4.950  2.1545  1.6528 -1.2372
  884MOL0     H16673   8.436  10.808   4.883  0.0947 -1.8488  1.0019
  884MOL0     H16674  10.430  11.224   4.946  1.3581 -0.5257  0.7916
  884MOL0     H16675  10.643  11.112   4.942 -2.5801 -0.7171  0.7354
  884MOL0     H16676  10.978  10.972   4.888 -0.5562  2.3168  0.4730
  884MOL0     H16677  11.173  10.815   4.920  2.7187 -0.8282  1.2863
  884MOL0     H16678  11.627  10.811   4.862  0.2673  1.8987  1.3024
  884MOL0     H16679  11.579  10.976   4.820  2.1810  0.0560  0.3243
  884MOL0     H16680  11.588  10.733   4.624 -0.8239  0.2500  1.1295
  884MOL0     H16681  11.514  10.885   4.580 -1.2072  0.3280  0.9631
  884MOL0     H16682  11.719  11.008   4.611  2.7212  0.2275 -3.2048
  884MOL0     H16683  11.748  10.887   4.496 -0.1239  1.6893 -0.9689
  884MOL0     H16684  11.836  10.865   4.793  0.6490  3.3237  0.2092
  884MOL0     H16685  11.863  10.746   4.672  1.2475  0.1514  1.8420
  884MOL0     H16686  12.158  11.048   4.611 -0.5043  1.0579 -1.3974
  884MOL0     H16687  11.404  11.084   4.673 -0.8178  1.2838 -0.2589
  884MOL0     H16688  11.226  11.204   4.620  2.1562 -0.5218  1.1589
  885MOL0     O16689   1.775  11.091   6.134  0.2245  0.0729  0.8838
  885MOL0     C16690   1.859  11.025   6.195  0.1232  0.2613 -0.0108
  885MOL0     O16691   1.834  10.921   6.271 -0.4464 -0.6473 -0.2786
  885MOL0     C16692   1.705  10.892   6.309 -1.1289 -0.5793  1.0806
  885MOL0     C16693   1.659  10.773   6.273 -0.4642  0.7464  0.9783
  885MOL0     C16694   1.530  10.730   6.303  0.1893  0.0814  0.0940
  885MOL0     C16695   1.452  10.813   6.388 -1.3474  0.4404  0.0019
  885MOL0     O16696   1.328  10.781   6.446 -0.2557  0.2828 -0.2665
  885MOL0     C16697   1.275  10.641   6.426 -0.7268 -0.6788 -0.3406
  885MOL0     C16698   1.142  10.612   6.494 -0.4757 -0.7074  0.7588
  885MOL0     C16699   1.018  10.686   6.440 -0.2737 -0.2252  0.2515
  885MOL0     C16700   0.904  10.637   6.522  0.3345  0.1439 -0.3237
  885MOL0     C16701   0.775  10.702   6.459  0.2710  0.3300  0.8142
  885MOL0     C16702   0.654  10.692   6.553  1.0311 -0.5889  0.7852
  885MOL0     C16703   0.620  10.545   6.577 -0.0542 -0.0767  0.0674
  885MOL0     C16704   0.494  10.523   6.655 -0.7155 -0.0683  0.0244
  885MOL0     N16705   0.503  10.592   6.787 -0.0774 -0.1429 -0.5888
  885MOL0     C16706   0.558  10.539   6.897  0.0607 -0.5326 -0.1858
  885MOL0     C16707   0.548  10.629   6.996  0.2899  0.1601  0.9424
  885MOL0     C16708   0.579  10.602   7.138 -1.0896 -0.5291  0.5344
  885MOL0     C16709   0.445  10.573   7.219  0.5327 -0.1840  0.7078
  885MOL0     C16710   0.366  10.697   7.262 -0.5281 -0.4736 -0.4462
  885MOL0     C16711   0.217  10.675   7.295 -0.3104  0.4475 -0.8471
  885MOL0     O16712   0.204  10.547   7.356 -0.6811 -0.2689 -0.4551
  885MOL0     C16713   0.081  10.501   7.380  0.2316  0.1839 -0.6234
  885MOL0     C16714   0.030  10.385   7.329  0.2872 -0.5417  0.7390
  885MOL0     C16715  -0.116  10.359   7.336  0.1372  0.6773 -0.6568
  885MOL0     C16716  -0.202  10.447   7.403 -0.8605  0.3639 -0.3091
  885MOL0     C16717  -0.346  10.418   7.413 -0.0482  0.0580 -0.6084
  885MOL0     O16718  -0.399  10.316   7.331 -0.0164  0.4921  0.0569
  885MOL0     C16719  -0.531  10.281   7.349 -0.3994  0.0446 -0.4911
  885MOL0     C16720  -0.570  10.196   7.457  0.2693  0.1626  0.7911
  885MOL0     C16721  -0.706  10.191   7.496 -0.3758  0.3580 -0.7050
  885MOL0     C16722  -0.809  10.253   7.425 -0.2207 -0.8526 -0.2369
  885MOL0     O16723  -0.932  10.240   7.477  0.0938 -0.3411  0.1037
  885MOL0     C16724  -1.044  10.263   7.393 -0.0959 -0.0923 -0.1588
  885MOL0     C16725  -1.176  10.202   7.439  0.3297  1.0186 -0.1597
  885MOL0     C16726  -1.292  10.278   7.376 -0.2914  0.1283  0.5087
  885MOL0     C16727  -1.423  10.195   7.381  0.8008 -0.4157 -0.1540
  885MOL0     C16728  -1.550  10.272   7.338  1.5198  0.1285  0.5011
  885MOL0     C16729  -1.679  10.210   7.379  0.0599  0.4567 -0.2896
  885MOL0     C16730  -1.690  10.070   7.320 -0.2545  0.4704 -0.7561
  885MOL0     C16731  -1.825  10.008   7.373 -0.2734  0.5937  0.7012
  885MOL0    Cl16732  -1.949  10.075   7.275 -0.3602 -0.4377  0.0372
  885MOL0     C16733  -0.766  10.327   7.315  0.2249 -0.1178  0.4964
  885MOL0     C16734  -0.629  10.341   7.281  0.3210  0.5196  1.3797
  885MOL0     O16735  -0.411  10.477   7.495  0.3309 -0.4762  0.1004
  885MOL0     C16736  -0.144  10.564   7.460  0.3167  1.3477 -0.8589
  885MOL0     C16737  -0.013  10.589   7.445  0.1211  0.3644 -0.0267
  885MOL0     N16738   0.496  10.742   6.945 -0.3902  0.7396 -0.3378
  885MOL0     N16739   0.460  10.719   6.824 -1.5568 -0.7811 -0.0998
  885MOL0     C16740   1.500  10.940   6.418  0.0813 -0.4674 -0.1769
  885MOL0     C16741   1.626  10.985   6.377  0.2298  0.2482  0.6892
  885MOL0     C16742   1.999  11.060   6.171  0.0489 -0.1508 -0.5427
  885MOL0     C16743   2.041  11.167   6.086  0.0929  0.0345  0.5964
  885MOL0     C16744   2.173  11.194   6.044 -0.6363  0.7040 -0.1667
  885MOL0     C16745   2.274  11.109   6.088  0.1786  0.2565  0.2742
  885MOL0     O16746   2.398  11.123   6.033  0.0120 -0.1065  0.2276
  885MOL0     C16747   2.512  11.054   6.081  0.9120 -0.7619 -0.8379
  885MOL0     C16748   2.539  10.940   5.990 -0.1409 -0.4690 -0.0393
  885MOL0     C16749   2.688  10.898   5.981 -0.5522 -0.6087 -0.2245
  885MOL0     C16750   2.732  10.850   6.124  0.7656  1.4143  0.1871
  885MOL0     C16751   2.870  10.865   6.144  0.0386  0.6629  0.1893
  885MOL0     C16752   2.992  10.866   6.174  0.0527 -0.2554  0.2573
  885MOL0     C16753   2.234  11.009   6.185 -0.4588 -0.6456 -0.1384
  885MOL0     C16754   2.103  10.985   6.230  0.3131 -1.0910 -0.1853
  885MOL0     H16755   1.731  10.704   6.231 -1.1487 -0.3651  1.5716
  885MOL0     H16756   1.489  10.635   6.269 -0.6144  0.3989  0.1637
  885MOL0     H16757   1.356  10.574   6.455 -0.1275  0.2030  0.0596
  885MOL0     H16758   1.260  10.631   6.318 -1.1245 -0.0726 -0.3510
  885MOL0     H16759   1.143  10.632   6.601 -0.4873  1.9077  0.3283
  885MOL0     H16760   1.130  10.504   6.476  1.4172 -0.9681  0.9463
  885MOL0     H16761   1.011  10.678   6.332 -3.1999  0.0882  0.3342
  885MOL0     H16762   1.031  10.794   6.456 -0.2813  0.0460 -1.4266
  885MOL0     H16763   0.906  10.527   6.519  2.3713  0.0672  1.7165
  885MOL0     H16764   0.916  10.677   6.623  1.7156 -3.1003  0.9393
  885MOL0     H16765   0.756  10.647   6.367  2.4815 -0.0999  0.5564
  885MOL0     H16766   0.788  10.807   6.432 -1.8297  1.2378  2.9979
  885MOL0     H16767   0.572  10.735   6.495  0.8932 -1.3560  0.3987
  885MOL0     H16768   0.676  10.745   6.646 -0.0593  2.8665 -0.7649
  885MOL0     H16769   0.620  10.486   6.486  1.5041  0.8413 -0.5809
  885MOL0     H16770   0.699  10.502   6.640 -1.1273 -1.8037  0.2959
  885MOL0     H16771   0.476  10.416   6.660 -1.3892  0.0608  0.5686
  885MOL0     H16772   0.409  10.567   6.602 -0.3928  0.1323 -0.3296
  885MOL0     H16773   0.602  10.440   6.903  0.2819 -0.5192 -1.3551
  885MOL0     H16774   0.634  10.685   7.183  1.6615 -1.5253 -0.7624
  885MOL0     H16775   0.656  10.525   7.151  1.4281  1.8488  0.5943
  885MOL0     H16776   0.471  10.506   7.301  0.0802 -0.5728  0.5468
  885MOL0     H16777   0.378  10.507   7.163 -2.9858 -0.0035  4.2506
  885MOL0     H16778   0.415  10.737   7.352 -0.3422  0.9457 -1.1459
  885MOL0     H16779   0.381  10.774   7.186  1.2190 -0.5914 -0.2750
  885MOL0     H16780   0.151  10.700   7.211 -0.9681  1.2305 -0.1084
  885MOL0     H16781   0.193  10.759   7.361 -1.2463  0.2407 -0.9001
  885MOL0     H16782   0.094  10.312   7.280 -0.0085 -0.3173  0.0165
  885MOL0     H16783  -0.164  10.270   7.296  3.5235 -1.5068 -0.2740
  885MOL0     H16784  -0.503  10.143   7.523  0.7354  0.3523  0.4819
  885MOL0     H16785  -0.740  10.133   7.580  0.0935  2.5569  1.0933
  885MOL0     H16786  -1.027  10.228   7.291 -1.3192 -3.5761  0.6911
  885MOL0     H16787  -1.061  10.371   7.385 -2.8775 -0.5419 -1.6583
  885MOL0     H16788  -1.187  10.209   7.548 -0.9064 -2.2630  0.0451
  885MOL0     H16789  -1.185  10.098   7.407 -2.0981  2.4305 -4.9250
  885MOL0     H16790  -1.262  10.310   7.276 -0.3154  1.6137  0.9543
  885MOL0     H16791  -1.304  10.368   7.437  1.8820  0.8501 -0.0291
  885MOL0     H16792  -1.409  10.104   7.322 -0.2072 -0.5758 -0.1691
  885MOL0     H16793  -1.457  10.172   7.483 -1.5852 -1.0984 -1.0240
  885MOL0     H16794  -1.558  10.278   7.230  0.0966 -0.9067  0.5173
  885MOL0     H16795  -1.544  10.371   7.384  3.0148 -0.7073  2.2844
  885MOL0     H16796  -1.773  10.264   7.366 -0.8613  0.1823  3.8633
  885MOL0     H16797  -1.671  10.190   7.486  2.3685  0.9460 -0.3221
  885MOL0     H16798  -1.687  10.076   7.210  0.5497 -0.4858 -0.8040
  885MOL0     H16799  -1.613  10.003   7.360 -1.7827 -0.0266  1.5379
  885MOL0     H16800  -1.835  10.030   7.480  0.7782 -0.8425  1.1263
  885MOL0     H16801  -1.817   9.901   7.352  0.7605  1.1408 -2.1970
  885MOL0     H16802  -0.844  10.385   7.266  0.4624  0.5668  0.9199
  885MOL0     H16803  -0.603  10.411   7.202 -1.2071 -0.7637 -0.3624
  885MOL0     H16804  -0.202  10.639   7.513  0.6434  0.2072  1.2265
  885MOL0     H16805   0.003  10.690   7.481 -2.0372  0.8911 -0.3572
  885MOL0     H16806   1.431  10.992   6.484  0.9707 -0.9258  1.1390
  885MOL0     H16807   1.653  11.084   6.413  0.6406 -0.1500  1.5108
  885MOL0     H16808   1.967  11.231   6.038  0.1293 -0.3714 -0.0189
  885MOL0     H16809   2.193  11.277   5.977 -2.5865  1.4809  0.1412
  885MOL0     H16810   2.493  11.025   6.185  1.7752 -2.2564 -1.0709
  885MOL0     H16811   2.596  11.124   6.076  0.6841 -0.0823  2.4556
  885MOL0     H16812   2.479  10.854   6.022 -3.4974  0.9095 -2.1203
  885MOL0     H16813   2.511  10.969   5.888  0.9127  4.8742  0.8783
  885MOL0     H16814   2.741  10.991   5.961  2.9074 -1.5748  3.2540
  885MOL0     H16815   2.709  10.819   5.908  0.9065 -0.4512 -0.0122
  885MOL0     H16816   2.682  10.894   6.210  2.1367  1.5536  0.9409
  885MOL0     H16817   2.708  10.744   6.120  2.4567  0.9537  1.4014
  885MOL0     H16818   3.095  10.859   6.204 -0.1366 -1.5410  0.6829
  885MOL0     H16819   2.299  10.942   6.241  0.4642 -0.8139 -1.3717
  885MOL0     H16820   2.074  10.903   6.294 -0.1094 -0.7922  0.0131
  886MOL0     O16821   5.226  10.013   1.228 -0.0772 -0.5032 -0.3243
  886MOL0     C16822   5.273  10.039   1.339  0.3626 -0.0204 -0.3712
  886MOL0     O16823   5.391  10.017   1.383 -0.0122 -1.1891 -0.6393
  886MOL0     C16824   5.491   9.971   1.303  0.7177  0.5928  0.3835
  886MOL0     C16825   5.507  10.019   1.175 -0.1054  0.0365  1.1597
  886MOL0     C16826   5.606   9.965   1.099 -0.6834 -0.0472 -0.1890
  886MOL0     C16827   5.709   9.872   1.145 -0.3929  0.3355  0.3019
  886MOL0     O16828   5.816   9.834   1.070  0.1011 -0.4054 -0.5851
  886MOL0     C16829   5.865   9.697   1.074  0.5653 -0.2786 -0.4297
  886MOL0     C16830   5.994   9.682   1.000  0.0697  0.4746  0.6967
  886MOL0     C16831   5.980   9.708   0.843 -0.1370 -0.6356 -0.2298
  886MOL0     C16832   6.119   9.740   0.776 -0.1533  0.1376  0.3855
  886MOL0     C16833   6.110   9.747   0.623 -0.3753  0.5575 -0.2280
  886MOL0     C16834   5.976   9.801   0.562  0.0096  0.4316 -0.6911
  886MOL0     C16835   5.970   9.792   0.402  0.1421 -0.4345 -0.1549
  886MOL0     C16836   5.914   9.913   0.326 -0.6378 -0.1474  0.1172
  886MOL0     N16837   5.768   9.932   0.349 -0.5332 -0.6885  0.1032
  886MOL0     C16838   5.718   9.996   0.458  0.6233  0.0603  0.1972
  886MOL0     C16839   5.577   9.977   0.451  1.1037 -0.4591  0.1635
  886MOL0     C16840   5.466  10.040   0.536  0.5748 -0.5915 -0.8703
  886MOL0     C16841   5.331  10.072   0.457  0.3067 -0.0474  0.4512
  886MOL0     C16842   5.240  10.176   0.517 -0.3154  0.0309 -0.1487
  886MOL0     C16843   5.165  10.133   0.647  0.8895 -0.2356  0.3236
  886MOL0     O16844   5.095  10.248   0.682 -0.2844 -0.0546  0.1331
  886MOL0     C16845   5.022  10.228   0.796  0.2892  0.4277 -0.6234
  886MOL0     C16846   5.046  10.122   0.896 -0.7980 -0.1743 -0.1053
  886MOL0     C16847   4.957  10.113   1.006  0.9077 -0.3325  0.1313
  886MOL0     C16848   4.841  10.197   1.011 -0.3285  0.6231  0.0836
  886MOL0     C16849   4.755  10.184   1.131 -0.1826  0.2074  0.3976
  886MOL0     O16850   4.639  10.254   1.130 -0.0903 -0.1001  0.8004
  886MOL0     C16851   4.548  10.234   1.233 -0.7077 -0.2227 -0.3287
  886MOL0     C16852   4.419  10.202   1.198  1.2240  0.0608  0.4701
  886MOL0     C16853   4.327  10.172   1.296 -0.7012 -0.7945  0.7142
  886MOL0     C16854   4.354  10.191   1.439 -0.2254 -0.6468  0.0423
  886MOL0     O16855   4.274  10.156   1.549 -0.2707  0.4770 -0.0888
  886MOL0     C16856   4.141  10.121   1.516 -0.7428 -0.5652 -0.6270
  886MOL0     C16857   4.047  10.142   1.643 -0.1752  0.2185  0.4112
  886MOL0     C16858   4.008  10.286   1.673  0.7146  0.2284 -0.1476
  886MOL0     C16859   3.860  10.302   1.719 -0.6047  0.4501  0.1270
  886MOL0     C16860   3.822  10.445   1.701 -0.6692  0.4789  0.4940
  886MOL0     C16861   3.672  10.470   1.715 -0.2365  0.0689 -0.0945
  886MOL0     C16862   3.612  10.453   1.862 -0.4070  0.0138  0.0135
  886MOL0     C16863   3.485  10.529   1.871  0.1131  0.2606 -0.0294
  886MOL0    Cl16864   3.417  10.478   2.037  0.1044  0.4527  0.1696
  886MOL0     C16865   4.486  10.245   1.465 -0.0600 -0.2647  0.2909
  886MOL0     C16866   4.587  10.260   1.364  0.1827 -0.9879 -0.5807
  886MOL0     O16867   4.787  10.113   1.223 -0.0788  0.3182 -0.5857
  886MOL0     C16868   4.825  10.297   0.913  0.2193 -0.3150 -1.2508
  886MOL0     C16869   4.911  10.314   0.812 -0.4384  1.0796  0.2858
  886MOL0     N16870   5.549   9.900   0.337 -0.3139 -0.2333 -0.4063
  886MOL0     N16871   5.662   9.867   0.285  0.1875  0.1272  0.7224
  886MOL0     C16872   5.690   9.824   1.275  1.0023  0.6535  0.3341
  886MOL0     C16873   5.586   9.883   1.356 -0.0707  0.2027 -0.1735
  886MOL0     C16874   5.180  10.091   1.441 -1.0056  0.4203  0.6415
  886MOL0     C16875   5.204  10.085   1.579  0.2676  0.1492 -0.7570
  886MOL0     C16876   5.102  10.120   1.670 -1.3608  0.0291 -0.0547
  886MOL0     C16877   4.986  10.167   1.628 -0.0871 -0.3792  0.0583
  886MOL0     O16878   4.881  10.195   1.714  0.2874  0.4274  0.7228
  886MOL0     C16879   4.871  10.138   1.845  0.1028 -0.3287 -0.0294
  886MOL0     C16880   4.737  10.165   1.904  0.0251  0.2382 -0.2744
  886MOL0     C16881   4.622  10.101   1.819  0.1998 -0.0868  0.5136
  886MOL0     C16882   4.494  10.183   1.833 -0.4534 -1.0364 -0.7118
  886MOL0     C16883   4.433  10.153   1.964 -0.0487  1.1514 -0.2834
  886MOL0     C16884   4.383  10.121   2.070 -0.1423  0.5149  0.2796
  886MOL0     C16885   4.962  10.187   1.492  0.3159 -0.0494 -0.1241
  886MOL0     C16886   5.054  10.142   1.396  0.2115 -0.0683  0.4436
  886MOL0     H16887   5.441  10.082   1.117  2.3061  3.3439  1.7020
  886MOL0     H16888   5.625   9.998   0.997  0.5476 -0.7892 -0.2122
  886MOL0     H16889   5.788   9.629   1.036  1.0052 -1.5110  0.7893
  886MOL0     H16890   5.899   9.669   1.174  0.4768 -0.4948 -0.4613
  886MOL0     H16891   6.035   9.580   1.003 -1.5979 -0.1987  1.4194
  886MOL0     H16892   6.076   9.734   1.051  0.1309 -1.3270  2.5736
  886MOL0     H16893   5.923   9.801   0.836  2.0414  0.6691 -1.7551
  886MOL0     H16894   5.933   9.622   0.792 -1.3026 -0.9742  1.3444
  886MOL0     H16895   6.152   9.837   0.813  2.3061 -1.7512  3.7227
  886MOL0     H16896   6.193   9.663   0.803  1.0976  1.0875 -0.2156
  886MOL0     H16897   6.124   9.647   0.582  2.4400  0.5089  0.6448
  886MOL0     H16898   6.198   9.801   0.587  0.8482 -1.8900 -1.1370
  886MOL0     H16899   5.966   9.905   0.593  2.3879  1.0046 -1.6545
  886MOL0     H16900   5.895   9.738   0.600 -0.1604  2.6921  3.1205
  886MOL0     H16901   6.065   9.776   0.351  1.0503  0.9686  1.0277
  886MOL0     H16902   5.918   9.700   0.375 -1.2942  0.4547 -0.5229
  886MOL0     H16903   5.935   9.897   0.220 -2.5605  0.3239 -0.3612
  886MOL0     H16904   5.959  10.008   0.358 -2.4054  1.7819 -2.6633
  886MOL0     H16905   5.763  10.075   0.518  0.6948  0.8259 -0.8304
  886MOL0     H16906   5.494  10.132   0.588 -1.3296 -0.9556  0.8945
  886MOL0     H16907   5.444   9.965   0.612  0.7625  0.6661  0.4555
  886MOL0     H16908   5.262   9.987   0.451 -2.5164  2.0930  0.2895
  886MOL0     H16909   5.346  10.093   0.350 -0.1699 -1.7467  0.0190
  886MOL0     H16910   5.292  10.272   0.524 -1.0574  0.5324 -1.2050
  886MOL0     H16911   5.166  10.191   0.438  0.0936  0.9911 -0.3595
  886MOL0     H16912   5.229  10.092   0.726 -2.3756 -0.8301  2.8702
  886MOL0     H16913   5.090  10.055   0.630  0.4714  0.3148 -0.4120
  886MOL0     H16914   5.119  10.041   0.897 -0.2245  0.3305  1.0158
  886MOL0     H16915   4.977  10.038   1.082 -3.1000 -1.6856  0.0776
  886MOL0     H16916   4.389  10.181   1.095  2.1640 -2.4784  0.6353
  886MOL0     H16917   4.225  10.161   1.259 -0.7546 -1.4197  1.0329
  886MOL0     H16918   4.146  10.014   1.494  0.3419 -0.8845  0.9220
  886MOL0     H16919   4.103  10.179   1.432  0.6932  0.0525 -0.8788
  886MOL0     H16920   4.083  10.089   1.732  2.4814  3.2984  1.3712
  886MOL0     H16921   3.956  10.088   1.615  0.3356  0.1777 -1.2675
  886MOL0     H16922   4.004  10.340   1.578 -1.4102 -0.8792 -0.7589
  886MOL0     H16923   4.084  10.335   1.734 -0.4537  0.5097  1.1387
  886MOL0     H16924   3.793  10.234   1.666 -0.0106 -2.3523  2.6973
  886MOL0     H16925   3.859  10.271   1.824 -0.0451 -1.0705 -0.2958
  886MOL0     H16926   3.844  10.470   1.597  2.5693 -1.0295  0.6808
  886MOL0     H16927   3.887  10.507   1.764  2.2627 -0.3962 -1.4516
  886MOL0     H16928   3.597  10.423   1.651 -2.2166  0.5065  1.7891
  886MOL0     H16929   3.659  10.576   1.691 -2.7878 -0.7792 -3.1674
  886MOL0     H16930   3.593  10.345   1.865 -2.1299  0.1700 -2.2490
  886MOL0     H16931   3.675  10.486   1.945 -2.8412  0.5207  1.7791
  886MOL0     H16932   3.417  10.501   1.790  0.9053 -0.6976 -0.3774
  886MOL0     H16933   3.510  10.635   1.873 -0.0314  0.2978 -0.1434
  886MOL0     H16934   4.510  10.248   1.571 -0.9178  0.9832  0.4733
  886MOL0     H16935   4.686  10.293   1.393  0.2327 -0.6458 -1.1220
  886MOL0     H16936   4.737  10.360   0.907 -0.7851 -1.7004 -1.5095
  886MOL0     H16937   4.881  10.388   0.738  0.7220  2.4527  1.1291
  886MOL0     H16938   5.745   9.740   1.316  0.6917 -0.8233 -2.1171
  886MOL0     H16939   5.571   9.848   1.457 -0.7270  1.4799  0.1951
  886MOL0     H16940   5.292  10.037   1.618 -0.5138  1.6260  3.3871
  886MOL0     H16941   5.127  10.123   1.775  0.8362  3.1393 -0.4922
  886MOL0     H16942   4.947  10.181   1.910 -0.4786  0.6457  0.0169
  886MOL0     H16943   4.888  10.031   1.830  0.7095  0.0152 -2.0758
  886MOL0     H16944   4.740  10.116   2.002  2.9518  1.8790  0.5621
  886MOL0     H16945   4.719  10.273   1.912 -2.4421 -0.1982  0.9479
  886MOL0     H16946   4.601   9.996   1.843 -0.3756  0.0716  0.7126
  886MOL0     H16947   4.636  10.104   1.710  1.5333  1.1918  0.6915
  886MOL0     H16948   4.523  10.288   1.823 -2.0289 -0.3723  0.9884
  886MOL0     H16949   4.411  10.169   1.763 -0.7360 -0.2923 -0.5324
  886MOL0     H16950   4.342  10.098   2.166  1.9389  2.3315  1.7203
  886MOL0     H16951   4.863  10.216   1.459  0.7823  0.6222 -0.9512
  886MOL0     H16952   5.034  10.137   1.290  0.6267 -1.7277  0.4069
  887MOL0     O16953   3.392   3.591   4.001  0.0777 -0.4960 -1.1946
  887MOL0     C16954   3.438   3.478   4.024  0.6635 -0.1902  0.4243
  887MOL0     O16955   3.378   3.380   4.093 -0.4901  0.0014 -0.2603
  887MOL0     C16956   3.242   3.373   4.129 -0.5020  0.0564  0.6269
  887MOL0     C16957   3.205   3.323   4.255  0.9236  0.4876  0.3797
  887MOL0     C16958   3.059   3.296   4.287 -0.7159  0.0716 -0.1503
  887MOL0     C16959   2.966   3.321   4.193 -0.2017 -0.8301  0.1118
  887MOL0     O16960   2.832   3.315   4.217 -0.7753  0.7774 -0.6722
  887MOL0     C16961   2.780   3.266   4.344 -0.0480  0.8344  0.2931
  887MOL0     C16962   2.640   3.229   4.324 -0.0372  0.0914 -0.6608
  887MOL0     C16963   2.574   3.158   4.443 -0.3784 -0.3782 -0.4937
  887MOL0     C16964   2.433   3.109   4.419  0.2351 -0.2198  0.9322
  887MOL0     C16965   2.378   3.040   4.546 -0.1707 -0.4454  1.0646
  887MOL0     C16966   2.237   3.000   4.527 -0.3281 -0.3746 -1.0685
  887MOL0     C16967   2.223   2.864   4.450 -0.8731 -0.5348 -0.2680
  887MOL0     C16968   2.077   2.818   4.463 -0.0540 -0.5197 -0.0639
  887MOL0     N16969   2.047   2.691   4.386  0.2815  0.1243 -0.5929
  887MOL0     C16970   1.969   2.679   4.275 -0.4433  0.3845  0.4309
  887MOL0     C16971   1.974   2.549   4.236 -0.8276  0.4518 -0.8518
  887MOL0     C16972   1.900   2.494   4.124  0.5383  0.0863  0.0685
  887MOL0     C16973   1.749   2.479   4.171  0.1812  0.2586  0.2103
  887MOL0     C16974   1.674   2.375   4.092 -0.5523  0.0227 -0.3894
  887MOL0     C16975   1.520   2.380   4.108 -0.9794 -0.9780  0.3849
  887MOL0     O16976   1.449   2.485   4.063  0.1793 -0.4822 -0.8520
  887MOL0     C16977   1.313   2.475   4.071  0.1873  0.9349  0.1582
  887MOL0     C16978   1.231   2.540   4.172 -0.0323  0.4133  0.5388
  887MOL0     C16979   1.094   2.518   4.177  0.1357 -0.4350  0.3781
  887MOL0     C16980   1.035   2.428   4.086  0.1993  0.3888  0.1060
  887MOL0     C16981   0.891   2.403   4.101  0.5213 -0.5945 -0.2715
  887MOL0     O16982   0.829   2.470   4.199  0.2693  0.1898  0.7933
  887MOL0     C16983   0.690   2.485   4.181 -0.3418 -0.1234  0.3775
  887MOL0     C16984   0.603   2.376   4.180  0.2382  0.1467  0.6092
  887MOL0     C16985   0.476   2.382   4.139  0.3416  0.2417 -0.1917
  887MOL0     C16986   0.422   2.509   4.115 -0.3314 -0.4663 -0.7443
  887MOL0     O16987   0.291   2.529   4.093  0.9230 -0.2092  0.0902
  887MOL0     C16988   0.195   2.441   4.159  0.0119 -0.1545  0.4120
  887MOL0     C16989   0.066   2.508   4.125  0.3205  0.8303  0.7092
  887MOL0     C16990  -0.044   2.473   4.228  0.0019 -0.0693  0.7337
  887MOL0     C16991  -0.174   2.554   4.202 -0.0512 -0.0867  1.0920
  887MOL0     C16992  -0.262   2.562   4.325  0.7752 -0.0802 -0.6064
  887MOL0     C16993  -0.199   2.657   4.426  0.6717  0.0900  0.3900
  887MOL0     C16994  -0.301   2.695   4.538 -0.4443  0.2684 -0.7419
  887MOL0     C16995  -0.236   2.784   4.649 -0.1581  0.2886  0.3939
  887MOL0    Cl16996  -0.226   2.952   4.587 -0.6668  0.1268  0.8290
  887MOL0     C16997   0.497   2.621   4.136 -0.8172 -0.2088 -0.2578
  887MOL0     C16998   0.636   2.607   4.156  0.1932 -0.4482  0.0063
  887MOL0     O16999   0.842   2.323   4.022  0.0859 -0.5549 -0.5426
  887MOL0     C17000   1.110   2.363   3.987  0.9447  0.5645 -0.3434
  887MOL0     C17001   1.245   2.386   3.985 -0.0782  0.9137  0.5102
  887MOL0     N17002   2.059   2.482   4.324 -0.5117 -1.8675 -0.7301
  887MOL0     N17003   2.100   2.567   4.420 -0.3790 -0.1311  0.4983
  887MOL0     C17004   3.005   3.374   4.069  0.3942  0.1785  0.6184
  887MOL0     C17005   3.140   3.400   4.038  0.4326 -0.1261 -0.6396
  887MOL0     C17006   3.560   3.442   3.966 -0.3540 -0.4472  0.6609
  887MOL0     C17007   3.613   3.311   3.988  0.6728 -0.2167  0.4409
  887MOL0     C17008   3.740   3.278   3.944  0.5834  0.2369  0.7251
  887MOL0     C17009   3.826   3.374   3.890  0.0467 -0.8911  0.2769
  887MOL0     O17010   3.955   3.331   3.867 -0.3589  0.1427  0.2959
  887MOL0     C17011   4.041   3.412   3.777  0.9158  0.9246  0.5482
  887MOL0     C17012   4.126   3.504   3.869  0.0189 -0.2935  0.1068
  887MOL0     C17013   4.223   3.424   3.963 -1.0355 -0.3718 -0.2858
  887MOL0     C17014   4.356   3.491   4.012 -0.7403 -0.2677 -0.1022
  887MOL0     C17015   4.446   3.398   4.077  0.1803  0.1501 -0.4509
  887MOL0     C17016   4.515   3.313   4.132  0.2127 -0.0837 -0.6738
  887MOL0     C17017   3.777   3.508   3.869  0.7320  0.8110  0.0790
  887MOL0     C17018   3.644   3.539   3.894  1.0440  0.6329 -0.1593
  887MOL0     H17019   3.282   3.299   4.328  0.4088  0.4266  0.9137
  887MOL0     H17020   3.036   3.268   4.389  0.3100 -0.9723 -0.1767
  887MOL0     H17021   2.778   3.348   4.417  0.3577  1.6680 -0.6114
  887MOL0     H17022   2.837   3.181   4.383 -4.4360 -3.3048 -1.3541
  887MOL0     H17023   2.637   3.168   4.233  2.5420 -0.9842 -0.1142
  887MOL0     H17024   2.583   3.321   4.310  0.1564  0.0663 -1.7589
  887MOL0     H17025   2.578   3.234   4.522  0.3697  0.0029 -0.8870
  887MOL0     H17026   2.640   3.079   4.481  2.1066  2.0927  0.6302
  887MOL0     H17027   2.368   3.195   4.400  0.6807  0.7531  3.4336
  887MOL0     H17028   2.433   3.046   4.330  2.2248  1.5954 -0.4715
  887MOL0     H17029   2.382   3.120   4.620  2.3667 -1.4715  2.1647
  887MOL0     H17030   2.433   2.958   4.593  0.8155  0.3962  1.4176
  887MOL0     H17031   2.193   3.076   4.463  0.8170  2.8933  1.7132
  887MOL0     H17032   2.178   2.998   4.620  1.2701  1.3593  0.0388
  887MOL0     H17033   2.251   2.877   4.346 -0.0022  0.1081  0.0388
  887MOL0     H17034   2.287   2.787   4.494  0.8872  0.4398 -1.0249
  887MOL0     H17035   2.006   2.896   4.432  0.6763 -0.0173 -0.4850
  887MOL0     H17036   2.059   2.791   4.568 -3.2512 -0.0156 -0.3709
  887MOL0     H17037   1.912   2.762   4.235  0.6795  0.7343 -0.4909
  887MOL0     H17038   1.938   2.394   4.100 -1.5946 -1.0564  1.1898
  887MOL0     H17039   1.909   2.565   4.041  1.6370 -0.3703 -0.2205
  887MOL0     H17040   1.712   2.582   4.164  1.7147  0.7796 -0.9662
  887MOL0     H17041   1.745   2.439   4.273  0.0729 -3.8651 -1.2568
  887MOL0     H17042   1.695   2.383   3.985  1.0226 -1.5530 -0.2353
  887MOL0     H17043   1.716   2.277   4.117 -1.5771 -0.8431 -1.8877
  887MOL0     H17044   1.496   2.368   4.215  2.2595  0.0581  1.3480
  887MOL0     H17045   1.479   2.296   4.051 -1.2918 -1.5252  1.3849
  887MOL0     H17046   1.273   2.608   4.245 -3.6360 -0.2949  3.5589
  887MOL0     H17047   1.037   2.561   4.260  1.1079  1.3462  0.1752
  887MOL0     H17048   0.662   2.286   4.195 -0.6383 -0.6461 -0.6248
  887MOL0     H17049   0.415   2.293   4.127 -0.4808  0.8341 -0.4618
  887MOL0     H17050   0.209   2.437   4.268 -1.0631  0.7203  0.5946
  887MOL0     H17051   0.194   2.341   4.114 -1.6279 -0.1622  0.4165
  887MOL0     H17052   0.037   2.468   4.027  0.4982  2.7376 -0.1709
  887MOL0     H17053   0.089   2.615   4.126 -1.3164  1.2418 -0.6815
  887MOL0     H17054  -0.001   2.505   4.323  2.3146 -0.2479 -0.1714
  887MOL0     H17055  -0.063   2.365   4.226 -0.3659  0.0020 -0.1221
  887MOL0     H17056  -0.154   2.647   4.148 -5.6586 -0.6191 -2.7493
  887MOL0     H17057  -0.237   2.507   4.126  0.3735 -1.0045  1.2930
  887MOL0     H17058  -0.285   2.462   4.362 -1.4655  0.4776 -0.3637
  887MOL0     H17059  -0.356   2.607   4.293  0.7678  1.5815  1.4818
  887MOL0     H17060  -0.177   2.748   4.370  1.0409 -0.0885  0.2421
  887MOL0     H17061  -0.107   2.620   4.472  1.6325 -0.9637 -2.1908
  887MOL0     H17062  -0.389   2.745   4.494 -0.3520  3.5726  2.3622
  887MOL0     H17063  -0.330   2.603   4.590  1.4874  0.5346  0.9230
  887MOL0     H17064  -0.141   2.740   4.680 -1.5895 -0.7135  3.8630
  887MOL0     H17065  -0.296   2.773   4.740 -1.2520  3.1242  0.1174
  887MOL0     H17066   0.446   2.716   4.119  0.6674  0.3394 -2.0028
  887MOL0     H17067   0.698   2.695   4.166 -1.4803  0.5873  2.3188
  887MOL0     H17068   1.073   2.283   3.923  2.5892 -0.6927  0.1860
  887MOL0     H17069   1.301   2.321   3.917 -1.0031 -2.4525  2.6881
  887MOL0     H17070   2.931   3.406   3.996 -0.1518 -0.4965  0.8664
  887MOL0     H17071   3.162   3.446   3.942 -1.3831  0.5856 -0.7575
  887MOL0     H17072   3.544   3.243   4.038 -0.7973  0.4522 -0.6156
  887MOL0     H17073   3.785   3.180   3.963  1.8143  0.5709 -0.2905
  887MOL0     H17074   3.978   3.474   3.712  1.7680  0.7215 -0.5086
  887MOL0     H17075   4.107   3.354   3.711 -2.7775  1.4865 -4.1679
  887MOL0     H17076   4.179   3.561   3.792 -0.3678  1.7047  1.2559
  887MOL0     H17077   4.062   3.576   3.921  1.2676 -1.4011  3.4194
  887MOL0     H17078   4.256   3.337   3.905  0.1643 -0.0519 -0.1120
  887MOL0     H17079   4.175   3.390   4.055  2.0186 -1.6811  0.9465
  887MOL0     H17080   4.413   3.535   3.929 -0.2598  0.0877  0.4068
  887MOL0     H17081   4.332   3.559   4.094 -0.3571  0.0583 -0.2533
  887MOL0     H17082   4.570   3.238   4.184  0.0402  0.0833 -0.2455
  887MOL0     H17083   3.826   3.588   3.814  2.0326 -1.1185 -1.6981
  887MOL0     H17084   3.609   3.641   3.885  0.7092  0.7237  1.8910
  888MOL0     O17085  10.445   6.804   4.714  0.5303 -0.1462  0.7362
  888MOL0     C17086  10.445   6.813   4.836  0.1529  0.4508  0.5362
  888MOL0     O17087  10.334   6.793   4.914 -0.1340 -0.0771 -0.4022
  888MOL0     C17088  10.218   6.792   4.844  0.6896  0.2721 -0.4891
  888MOL0     C17089  10.192   6.891   4.760 -0.3125  0.0870  0.8245
  888MOL0     C17090  10.077   6.887   4.676 -0.0467 -0.6036 -0.0186
  888MOL0     C17091   9.975   6.803   4.707  0.9081 -0.2907 -0.5140
  888MOL0     O17092   9.855   6.811   4.643 -0.2893 -0.6912  0.9312
  888MOL0     C17093   9.758   6.714   4.661 -0.3526 -0.4604 -0.1802
  888MOL0     C17094   9.626   6.776   4.618  0.0592  0.3783 -0.3458
  888MOL0     C17095   9.523   6.663   4.617  0.7742  0.4011  0.1044
  888MOL0     C17096   9.390   6.732   4.566 -0.0827  0.5091  0.3292
  888MOL0     C17097   9.299   6.620   4.505 -0.2834 -0.0897 -0.1998
  888MOL0     C17098   9.177   6.673   4.426 -0.4308  0.0191 -0.4621
  888MOL0     C17099   9.076   6.567   4.394 -0.4511  0.3256 -0.0715
  888MOL0     C17100   9.139   6.438   4.331  0.9321 -0.3763 -0.3269
  888MOL0     N17101   9.035   6.357   4.268  0.4125 -0.5410 -0.0858
  888MOL0     C17102   8.943   6.410   4.178  0.1587  0.1271 -0.3395
  888MOL0     C17103   8.875   6.303   4.132 -0.0318  1.0142 -0.7334
  888MOL0     C17104   8.775   6.308   4.021  0.4762  0.1539  0.3314
  888MOL0     C17105   8.747   6.170   3.968 -0.4983 -0.2488 -0.1652
  888MOL0     C17106   8.617   6.149   3.887 -0.4269 -0.8651 -0.1199
  888MOL0     C17107   8.619   6.013   3.817 -0.2874  0.0824 -0.1277
  888MOL0     O17108   8.492   5.995   3.756  0.2214 -0.5188  0.0565
  888MOL0     C17109   8.474   5.880   3.675 -0.3768  0.6238  0.6334
  888MOL0     C17110   8.353   5.840   3.636  0.0844 -0.4896  1.0756
  888MOL0     C17111   8.316   5.732   3.562  0.1577 -0.0788  0.2447
  888MOL0     C17112   8.417   5.654   3.510  0.0915 -0.4091  0.4818
  888MOL0     C17113   8.394   5.548   3.405 -0.4925 -0.1617 -0.2501
  888MOL0     O17114   8.269   5.518   3.367 -0.0743 -0.0752  0.2057
  888MOL0     C17115   8.256   5.409   3.289  0.4304  0.8460  0.5055
  888MOL0     C17116   8.213   5.423   3.157 -0.7007 -0.9746  0.2420
  888MOL0     C17117   8.205   5.317   3.075 -0.0468  0.4249  0.0790
  888MOL0     C17118   8.224   5.186   3.126  1.2079 -0.4599 -0.2407
  888MOL0     O17119   8.190   5.084   3.035 -1.0035 -0.7999 -0.0052
  888MOL0     C17120   8.185   4.952   3.095  0.0818 -0.1830  0.1855
  888MOL0     C17121   8.126   4.857   2.993  0.5151 -0.3636 -0.6042
  888MOL0     C17122   8.234   4.848   2.877 -0.1316 -0.2036 -0.2495
  888MOL0     C17123   8.164   4.776   2.764 -0.3968 -0.1843 -0.0281
  888MOL0     C17124   8.268   4.725   2.664  0.3781 -0.8401  0.0290
  888MOL0     C17125   8.323   4.831   2.569 -1.2318  0.2010 -0.5215
  888MOL0     C17126   8.408   4.767   2.454 -0.7795 -0.5214  0.8097
  888MOL0     C17127   8.468   4.886   2.375 -0.3108  0.2133 -0.4099
  888MOL0    Cl17128   8.604   4.841   2.261  0.2699 -0.1835  0.5438
  888MOL0     C17129   8.248   5.170   3.262 -1.0664 -0.1688 -0.3958
  888MOL0     C17130   8.254   5.284   3.344 -0.7066 -0.3428 -0.0467
  888MOL0     O17131   8.502   5.495   3.359 -0.5039 -0.6206 -0.3891
  888MOL0     C17132   8.538   5.680   3.555 -0.2020 -0.1923 -0.3167
  888MOL0     C17133   8.575   5.791   3.638 -0.0003  0.3338 -0.7067
  888MOL0     N17134   8.922   6.190   4.197 -0.5719  0.5054 -0.4153
  888MOL0     N17135   9.011   6.227   4.281 -0.0077  0.1202  0.0750
  888MOL0     C17136   9.999   6.702   4.806  0.9891  0.3436 -0.0908
  888MOL0     C17137  10.124   6.697   4.870  0.1543  0.2662 -0.3123
  888MOL0     C17138  10.577   6.807   4.909  0.9209 -0.2456 -2.1537
  888MOL0     C17139  10.595   6.768   5.041 -0.5748 -0.2470  0.0218
  888MOL0     C17140  10.729   6.753   5.091 -0.3924  0.1667 -0.2421
  888MOL0     C17141  10.846   6.789   5.022 -0.3033 -0.3085 -0.5198
  888MOL0     O17142  10.976   6.782   5.077 -0.0946 -0.6019  0.2914
  888MOL0     C17143  11.010   6.712   5.198  0.1908  0.2918  0.4495
  888MOL0     C17144  11.142   6.633   5.206  0.4192 -0.2486  0.2241
  888MOL0     C17145  11.252   6.726   5.168  0.4817 -0.4970 -0.3113
  888MOL0     C17146  11.395   6.684   5.197  0.4888  0.6371 -0.3013
  888MOL0     C17147  11.490   6.777   5.154 -0.1356 -0.4748  0.3840
  888MOL0     C17148  11.558   6.854   5.090 -1.4060 -0.4014 -0.9189
  888MOL0     C17149  10.818   6.844   4.894  0.0778  0.8472  0.1276
  888MOL0     C17150  10.694   6.839   4.833 -0.1695 -0.5484 -0.3432
  888MOL0     H17151  10.257   6.975   4.739  0.5688 -0.9912 -1.0099
  888MOL0     H17152  10.057   6.961   4.599 -1.8681 -0.8839  0.1363
  888MOL0     H17153   9.756   6.687   4.766  0.6787  0.2131  0.0341
  888MOL0     H17154   9.780   6.623   4.604 -0.5946 -0.7528  0.1912
  888MOL0     H17155   9.632   6.827   4.522 -0.0312  1.9809  0.4646
  888MOL0     H17156   9.592   6.852   4.689  0.9403  0.5927 -0.1383
  888MOL0     H17157   9.515   6.622   4.718  2.1842  3.8774  1.7904
  888MOL0     H17158   9.557   6.583   4.550  1.9196  1.8527 -1.1378
  888MOL0     H17159   9.335   6.786   4.644 -1.2448 -1.4037  0.8783
  888MOL0     H17160   9.413   6.807   4.489 -0.4874  0.1497 -0.1472
  888MOL0     H17161   9.250   6.556   4.579 -1.6876 -1.5259 -2.2631
  888MOL0     H17162   9.355   6.550   4.442 -2.1893 -0.8729 -1.0894
  888MOL0     H17163   9.224   6.704   4.332 -0.8583  2.0559 -0.0501
  888MOL0     H17164   9.130   6.763   4.465 -1.6107 -0.3905 -0.9189
  888MOL0     H17165   9.020   6.539   4.484  0.4726  1.8652  1.0222
  888MOL0     H17166   9.006   6.610   4.321  1.4544  0.3943 -1.9407
  888MOL0     H17167   9.194   6.379   4.405 -0.7728 -0.6484  0.7582
  888MOL0     H17168   9.213   6.473   4.258  0.8185 -2.9530 -1.7804
  888MOL0     H17169   8.927   6.506   4.129 -1.3952  0.9649  1.6929
  888MOL0     H17170   8.812   6.374   3.942 -0.3496 -0.2258 -0.3860
  888MOL0     H17171   8.686   6.359   4.059  0.3822  0.0497  0.2506
  888MOL0     H17172   8.748   6.095   4.048  1.2046  0.0579  0.1428
  888MOL0     H17173   8.833   6.151   3.904  0.8634  1.3199  1.1050
  888MOL0     H17174   8.530   6.153   3.954  1.1904 -0.5343  2.0351
  888MOL0     H17175   8.601   6.223   3.808 -2.0272 -0.6323  0.3728
  888MOL0     H17176   8.627   5.934   3.893  0.3874 -0.5761 -0.8683
  888MOL0     H17177   8.704   6.013   3.749 -0.2071 -1.3039 -0.0537
  888MOL0     H17178   8.263   5.896   3.663 -1.4506 -1.7667 -1.1322
  888MOL0     H17179   8.212   5.713   3.535 -0.1232 -2.5650  2.6241
  888MOL0     H17180   8.211   5.518   3.104  0.5370 -0.7180  0.6201
  888MOL0     H17181   8.197   5.318   2.967 -1.1560 -1.0614  0.1143
  888MOL0     H17182   8.116   4.956   3.180  0.6891 -1.4039  0.7634
  888MOL0     H17183   8.284   4.918   3.128 -0.0744 -1.2291 -0.4074
  888MOL0     H17184   8.039   4.911   2.955 -1.3769 -2.1919  0.8371
  888MOL0     H17185   8.086   4.761   3.027 -1.4444  1.2388  2.0051
  888MOL0     H17186   8.327   4.800   2.911  1.2064  2.3406 -0.1266
  888MOL0     H17187   8.267   4.948   2.847  3.2680 -0.8734  0.7503
  888MOL0     H17188   8.098   4.699   2.807 -2.0033  1.6140  0.8847
  888MOL0     H17189   8.097   4.844   2.711  0.4101 -0.0985 -0.9607
  888MOL0     H17190   8.210   4.646   2.614  0.9788 -1.3427  0.1093
  888MOL0     H17191   8.355   4.678   2.710  0.8505  0.4749  0.4957
  888MOL0     H17192   8.383   4.896   2.634  2.3460 -2.4010 -0.9570
  888MOL0     H17193   8.241   4.891   2.529 -2.0039 -1.4706 -1.5630
  888MOL0     H17194   8.484   4.701   2.497  0.5954  1.2589  1.2392
  888MOL0     H17195   8.342   4.713   2.384  0.6034  1.4594 -2.2272
  888MOL0     H17196   8.502   4.956   2.451 -2.6085  0.9243  0.0596
  888MOL0     H17197   8.382   4.931   2.325 -0.9833 -0.6649 -0.0714
  888MOL0     H17198   8.273   5.071   3.296 -1.1026  0.1956  0.7234
  888MOL0     H17199   8.279   5.269   3.448  3.4300  1.3576 -0.5602
  888MOL0     H17200   8.619   5.609   3.537  0.7259  1.4007 -2.9616
  888MOL0     H17201   8.674   5.794   3.683 -1.2212  0.3120  2.2211
  888MOL0     H17202   9.938   6.613   4.821  0.7769  0.4407 -0.3741
  888MOL0     H17203  10.148   6.633   4.954  1.6974  2.5422  1.1022
  888MOL0     H17204  10.515   6.718   5.094  1.7623  0.2219  4.3982
  888MOL0     H17205  10.743   6.726   5.195 -2.4496 -1.1876 -0.2835
  888MOL0     H17206  10.943   6.627   5.211  0.8603  0.0979  3.2022
  888MOL0     H17207  11.004   6.779   5.285 -0.3414 -2.4983  2.7190
  888MOL0     H17208  11.154   6.594   5.308  0.4207  1.5606  0.9628
  888MOL0     H17209  11.139   6.549   5.136 -3.6189  0.3398 -0.5268
  888MOL0     H17210  11.231   6.816   5.227  0.8973 -0.7790  0.2724
  888MOL0     H17211  11.241   6.759   5.064 -0.2786 -0.6162 -0.2782
  888MOL0     H17212  11.406   6.681   5.306 -0.2930 -1.6548 -0.2489
  888MOL0     H17213  11.409   6.581   5.163 -0.5522  0.5053 -0.3661
  888MOL0     H17214  11.617   6.911   5.020 -3.7351  1.3046 -1.6076
  888MOL0     H17215  10.900   6.895   4.845 -1.0046  1.3662 -1.2299
  888MOL0     H17216  10.687   6.885   4.735 -1.0890 -0.0170 -0.0469
  889MOL0     O17217   0.172   7.053  11.141  0.4075  0.2171 -0.0641
  889MOL0     C17218   0.249   7.111  11.066 -0.8656  0.0272  0.5776
  889MOL0     O17219   0.223   7.211  10.974 -0.6514  0.3627 -0.8368
  889MOL0     C17220   0.096   7.247  10.955  0.1536  0.2228  0.0376
  889MOL0     C17221   0.077   7.382  10.951  0.1384  1.0547 -1.0437
  889MOL0     C17222  -0.046   7.438  10.970  0.1493 -0.2162  0.0669
  889MOL0     C17223  -0.161   7.360  10.979  0.5767 -0.0312  0.4317
  889MOL0     O17224  -0.288   7.409  10.994  0.3436  0.6071 -0.4194
  889MOL0     C17225  -0.325   7.503  10.897 -0.6335 -0.2768 -0.2076
  889MOL0     C17226  -0.336   7.447  10.757 -0.1184  0.6211  0.3827
  889MOL0     C17227  -0.413   7.549  10.662  0.0928  0.2243  0.0077
  889MOL0     C17228  -0.563   7.529  10.663  0.4789 -0.0935 -0.0679
  889MOL0     C17229  -0.626   7.634  10.565 -0.4250 -0.1819 -0.1489
  889MOL0     C17230  -0.587   7.778  10.596  0.0799 -0.2553  0.3920
  889MOL0     C17231  -0.628   7.826  10.737 -1.9698  0.3383  0.6956
  889MOL0     C17232  -0.588   7.970  10.769  0.0458 -0.9191  0.3399
  889MOL0     N17233  -0.666   8.062  10.681  0.5627  0.7486 -0.8849
  889MOL0     C17234  -0.795   8.108  10.705  1.1509  0.7585 -1.2069
  889MOL0     C17235  -0.821   8.199  10.606 -0.4765 -0.5888  0.4242
  889MOL0     C17236  -0.928   8.300  10.634  0.1384  0.4583 -0.2967
  889MOL0     C17237  -1.044   8.283  10.540 -0.0665 -0.2216  0.0666
  889MOL0     C17238  -1.164   8.378  10.570 -0.2562  0.0722 -0.0811
  889MOL0     C17239  -1.273   8.371  10.460  0.2048  0.3187 -0.4609
  889MOL0     O17240  -1.387   8.452  10.501  0.4304  0.4574  0.9958
  889MOL0     C17241  -1.489   8.476  10.408  0.1532 -0.0569  0.0678
  889MOL0     C17242  -1.509   8.400  10.289 -0.5142  0.1838 -0.0922
  889MOL0     C17243  -1.613   8.428  10.205  0.5424  0.3597  0.6558
  889MOL0     C17244  -1.708   8.533  10.233 -0.3668  0.0891 -0.1473
  889MOL0     C17245  -1.824   8.558  10.146 -0.1017 -0.9620 -0.1949
  889MOL0     O17246  -1.907   8.652  10.193  0.0781  0.4846 -0.2926
  889MOL0     C17247  -2.024   8.665  10.130  0.7838 -0.5895  0.6832
  889MOL0     C17248  -2.064   8.798  10.095 -0.5986 -0.2393 -0.2127
  889MOL0     C17249  -2.191   8.824  10.044  0.6287  0.1587  0.7065
  889MOL0     C17250  -2.278   8.714  10.011 -0.6873  0.1824  0.0379
  889MOL0     O17251  -2.403   8.753   9.969  0.1305 -0.0781  0.1325
  889MOL0     C17252  -2.501   8.655   9.947  0.0767 -0.2008 -0.5438
  889MOL0     C17253  -2.631   8.723   9.896  0.4840 -0.7001  0.3704
  889MOL0     C17254  -2.740   8.620   9.867 -0.4490  0.1918 -0.0770
  889MOL0     C17255  -2.866   8.682   9.813 -0.0111  0.1085  0.7772
  889MOL0     C17256  -2.987   8.580   9.771 -0.8076  0.1132  0.1233
  889MOL0     C17257  -3.134   8.634   9.776 -0.4199 -0.0331 -0.5780
  889MOL0     C17258  -3.230   8.521   9.737 -0.2440 -0.0858  0.4528
  889MOL0     C17259  -3.371   8.570   9.772  0.1770 -0.1599  0.5486
  889MOL0    Cl17260  -3.420   8.734   9.728  0.0660 -0.2547  0.1409
  889MOL0     C17261  -2.235   8.585  10.035  0.4220  0.7212  0.2980
  889MOL0     C17262  -2.107   8.560  10.092  0.5919  0.6479  0.2526
  889MOL0     O17263  -1.846   8.487  10.043 -0.6221  0.0296 -0.6958
  889MOL0     C17264  -1.687   8.608  10.354 -0.4483  1.3512  0.4870
  889MOL0     C17265  -1.576   8.577  10.436  0.3080 -0.4857 -0.3510
  889MOL0     N17266  -0.710   8.209  10.522  0.0587 -0.5032 -0.6354
  889MOL0     N17267  -0.620   8.124  10.570  0.3312 -0.0399 -0.0000
  889MOL0     C17268  -0.151   7.220  10.982 -0.0503  0.9526 -0.1395
  889MOL0     C17269  -0.018   7.165  10.963  0.3916  0.8037 -0.0289
  889MOL0     C17270   0.394   7.076  11.067 -0.3966  0.3336  0.3260
  889MOL0     C17271   0.451   6.993  11.171 -0.2209  0.9532  0.0738
  889MOL0     C17272   0.588   6.963  11.182  0.5973 -1.1673  0.2209
  889MOL0     C17273   0.669   7.012  11.090 -0.0441 -1.0589 -0.2448
  889MOL0     O17274   0.801   6.995  11.110 -1.0286 -0.5905 -0.6964
  889MOL0     C17275   0.897   6.993  10.991  0.5144 -0.4744  1.0880
  889MOL0     C17276   1.037   6.948  11.030 -0.4559  0.1037  0.4911
  889MOL0     C17277   1.035   6.809  11.095  0.7223 -0.3533 -0.8933
  889MOL0     C17278   1.178   6.747  11.111  0.1613 -0.1424 -0.0372
  889MOL0     C17279   1.169   6.631  11.199 -1.4567  0.6830  0.5959
  889MOL0     C17280   1.164   6.532  11.275  0.8060  0.6036 -0.0512
  889MOL0     C17281   0.622   7.098  10.990  0.2198  0.1652 -0.0229
  889MOL0     C17282   0.482   7.129  10.974  0.5812 -0.3197 -0.5844
  889MOL0     H17283   0.169   7.441  10.949 -1.0375  2.9787 -0.7960
  889MOL0     H17284  -0.061   7.546  10.976 -1.4282 -0.4083 -0.1059
  889MOL0     H17285  -0.257   7.588  10.892 -0.7338 -0.1420  0.5246
  889MOL0     H17286  -0.419   7.544  10.936  0.4899  0.6228  1.7061
  889MOL0     H17287  -0.399   7.357  10.760 -1.2387  1.3669 -0.4483
  889MOL0     H17288  -0.246   7.416  10.702 -1.2053 -0.0797 -1.0592
  889MOL0     H17289  -0.371   7.528  10.563  1.5801 -1.2743  0.8895
  889MOL0     H17290  -0.374   7.648  10.687 -0.8085  0.6669 -0.3038
  889MOL0     H17291  -0.589   7.427  10.632 -1.4537  0.0228  0.9898
  889MOL0     H17292  -0.599   7.539  10.766 -1.2190  0.3520 -0.6762
  889MOL0     H17293  -0.734   7.623  10.576 -0.4103 -1.8782 -1.2399
  889MOL0     H17294  -0.599   7.599  10.465  2.0616  1.0820  0.0030
  889MOL0     H17295  -0.632   7.841  10.518 -0.5655 -0.1847  0.8191
  889MOL0     H17296  -0.480   7.798  10.590  0.2523 -1.5247 -1.9433
  889MOL0     H17297  -0.736   7.829  10.753 -2.0687  1.9760 -0.0179
  889MOL0     H17298  -0.586   7.771  10.821 -1.6711  2.3381  1.9314
  889MOL0     H17299  -0.479   7.983  10.766 -0.1788  1.1153 -0.4197
  889MOL0     H17300  -0.623   7.997  10.869  0.2340  2.1357 -0.3332
  889MOL0     H17301  -0.856   8.092  10.794  2.2907  1.3943 -0.2786
  889MOL0     H17302  -0.886   8.399  10.615  1.2966  0.2401  0.8845
  889MOL0     H17303  -0.960   8.298  10.739 -0.0908 -0.4613 -0.3764
  889MOL0     H17304  -1.081   8.182  10.522  1.2879 -0.5516 -1.0609
  889MOL0     H17305  -1.000   8.306  10.442 -0.8676  0.0971 -0.2325
  889MOL0     H17306  -1.214   8.341  10.660  2.8675  0.8071  2.1357
  889MOL0     H17307  -1.135   8.480  10.597 -0.4850  0.2628 -0.5350
  889MOL0     H17308  -1.298   8.265  10.447  0.7803  0.4144 -2.9600
  889MOL0     H17309  -1.234   8.411  10.366  2.3617  1.0647  0.6957
  889MOL0     H17310  -1.458   8.306  10.270 -0.2960 -0.3733  2.7635
  889MOL0     H17311  -1.613   8.353  10.127  3.5012  3.0494 -2.2496
  889MOL0     H17312  -2.007   8.889  10.103 -1.4220  0.3073 -0.4703
  889MOL0     H17313  -2.229   8.926  10.034 -1.5742 -0.7484 -1.3512
  889MOL0     H17314  -2.519   8.604  10.042  1.1631 -3.9459 -2.1604
  889MOL0     H17315  -2.465   8.575   9.881 -1.7086  1.2223 -3.4540
  889MOL0     H17316  -2.601   8.775   9.805 -1.5339 -1.3957 -0.7439
  889MOL0     H17317  -2.669   8.796   9.969  4.2567  2.1932 -0.1850
  889MOL0     H17318  -2.774   8.562   9.953 -0.5640 -0.1578 -0.3564
  889MOL0     H17319  -2.706   8.550   9.790 -1.0218 -0.3090  0.1182
  889MOL0     H17320  -2.888   8.748   9.897 -0.6550 -1.6252  2.0276
  889MOL0     H17321  -2.849   8.748   9.727 -0.0209 -0.5181  0.2853
  889MOL0     H17322  -2.985   8.497   9.843 -1.2791 -0.9109 -1.0112
  889MOL0     H17323  -2.972   8.532   9.674 -2.2665 -2.1140  0.9096
  889MOL0     H17324  -3.150   8.716   9.705 -0.1287  1.2781  0.8231
  889MOL0     H17325  -3.145   8.658   9.882  4.7961 -0.1362  0.2527
  889MOL0     H17326  -3.220   8.496   9.631 -2.6995 -1.7555  0.5295
  889MOL0     H17327  -3.217   8.431   9.798  0.3219  1.5480  2.9062
  889MOL0     H17328  -3.381   8.564   9.881 -1.3023  0.1203  0.4542
  889MOL0     H17329  -3.443   8.499   9.730  0.1207  1.5661 -2.5487
  889MOL0     H17330  -2.302   8.499  10.032  0.0738  1.0130 -0.2923
  889MOL0     H17331  -2.088   8.455  10.112 -2.9685 -0.8577 -3.0119
  889MOL0     H17332  -1.752   8.686  10.390 -1.5988  1.8118 -2.3288
  889MOL0     H17333  -1.552   8.633  10.525 -0.2103  2.3958 -1.9071
  889MOL0     H17334  -0.232   7.149  10.968  1.6783 -0.9818 -0.8724
  889MOL0     H17335  -0.009   7.057  10.959 -1.5959  0.6156 -2.2806
  889MOL0     H17336   0.379   6.963  11.246  1.5406 -2.3505  0.6701
  889MOL0     H17337   0.634   6.892  11.249  0.1013 -2.9493 -1.2710
  889MOL0     H17338   0.901   7.092  10.943 -1.2518 -0.4092  1.0105
  889MOL0     H17339   0.859   6.926  10.913 -0.0827  1.4290 -0.3574
  889MOL0     H17340   1.103   6.942  10.943 -0.3976 -2.1198  0.6387
  889MOL0     H17341   1.080   7.026  11.094 -0.5722  0.5451  0.0469
  889MOL0     H17342   0.986   6.729  11.037 -0.2278  0.1484 -0.8009
  889MOL0     H17343   0.985   6.827  11.190  4.8238  3.0501  0.9265
  889MOL0     H17344   1.213   6.731  11.009 -1.1731 -0.6577 -0.4394
  889MOL0     H17345   1.239   6.829  11.151 -1.1542 -0.1905  2.2679
  889MOL0     H17346   1.134   6.446  11.331 -2.1155  0.5998 -1.4314
  889MOL0     H17347   0.686   7.146  10.916 -0.7566  2.9327  0.7888
  889MOL0     H17348   0.457   7.188  10.886  1.2651 -0.9312 -1.2025
  890MOL0     O17349   8.103   3.891   6.491 -0.0571  0.0073 -0.0995
  890MOL0     C17350   8.128   3.861   6.377  0.5488  0.3294 -0.0262
  890MOL0     O17351   8.241   3.888   6.306 -0.1956 -0.3794 -0.3381
  890MOL0     C17352   8.341   3.979   6.353  0.4140  0.0358 -0.5674
  890MOL0     C17353   8.459   3.970   6.280 -0.5999  0.8258 -0.5307
  890MOL0     C17354   8.567   4.046   6.313  0.2328  0.9654  0.4115
  890MOL0     C17355   8.561   4.147   6.405  0.2461 -0.5244  0.3406
  890MOL0     O17356   8.673   4.219   6.437  0.4247 -0.0680 -0.2104
  890MOL0     C17357   8.802   4.190   6.380 -1.2420  0.2242 -0.9002
  890MOL0     C17358   8.902   4.292   6.416 -0.6492 -0.0519  0.0103
  890MOL0     C17359   9.041   4.225   6.431  0.2149 -0.1206 -0.7447
  890MOL0     C17360   9.152   4.330   6.473  0.5424 -0.1040 -0.3392
  890MOL0     C17361   9.298   4.283   6.445  0.4338 -0.0739  0.6543
  890MOL0     C17362   9.404   4.384   6.479  0.2199  0.1191 -0.0403
  890MOL0     C17363   9.534   4.365   6.398 -0.2835  0.2470  0.2986
  890MOL0     C17364   9.634   4.465   6.442 -0.6197 -0.2590  0.7815
  890MOL0     N17365   9.756   4.467   6.361  0.3169  0.6569  0.5017
  890MOL0     C17366   9.874   4.409   6.401  0.4020  0.5726  0.6957
  890MOL0     C17367   9.966   4.428   6.304  0.5307 -0.1532  0.3033
  890MOL0     C17368  10.109   4.381   6.299  0.4260 -0.2281  0.4784
  890MOL0     C17369  10.144   4.263   6.395  0.1545 -0.9887  0.9567
  890MOL0     C17370  10.142   4.136   6.305 -1.7512 -0.4950 -0.7235
  890MOL0     C17371   9.998   4.091   6.263  0.1234 -0.1499 -0.0983
  890MOL0     O17372   9.925   4.057   6.381 -0.2119  0.4367  0.1358
  890MOL0     C17373   9.791   4.023   6.373  0.6553 -0.4980  0.5008
  890MOL0     C17374   9.716   4.011   6.485 -0.4130  0.2086 -0.4045
  890MOL0     C17375   9.576   3.968   6.482  0.0988 -0.5411 -0.8806
  890MOL0     C17376   9.520   3.937   6.362  0.3630 -0.4362 -0.9030
  890MOL0     C17377   9.378   3.895   6.352  0.6313 -0.1562  0.2982
  890MOL0     O17378   9.303   3.899   6.466 -0.1420 -0.1529 -0.6582
  890MOL0     C17379   9.170   3.868   6.460 -0.3961  0.3693  0.3472
  890MOL0     C17380   9.122   3.825   6.576 -0.2458  0.7382 -0.8717
  890MOL0     C17381   8.984   3.799   6.596 -0.2226 -0.2898 -0.1083
  890MOL0     C17382   8.896   3.815   6.482  0.3670  0.1007 -0.2282
  890MOL0     O17383   8.759   3.826   6.491  0.1455  0.0214  0.2981
  890MOL0     C17384   8.690   3.723   6.568  0.2239  0.8342 -0.1829
  890MOL0     C17385   8.547   3.699   6.513 -0.0439 -0.2961  0.3143
  890MOL0     C17386   8.459   3.592   6.581 -0.6373  0.8734  0.0454
  890MOL0     C17387   8.327   3.583   6.513  0.1472 -0.9454 -0.0971
  890MOL0     C17388   8.233   3.490   6.602 -0.7866 -0.5370 -0.3452
  890MOL0     C17389   8.094   3.495   6.562  0.4302 -0.1844 -0.3748
  890MOL0     C17390   8.068   3.456   6.410  1.0271  0.8511 -0.0760
  890MOL0     C17391   7.918   3.419   6.401  0.4424 -0.3293  0.6273
  890MOL0    Cl17392   7.893   3.370   6.226  0.2465  0.0426  0.6149
  890MOL0     C17393   8.949   3.847   6.360  0.5710  0.3740 -0.0868
  890MOL0     C17394   9.081   3.879   6.354  0.0273  0.2458  0.2016
  890MOL0     O17395   9.340   3.845   6.246  0.2886  0.2153 -0.0021
  890MOL0     C17396   9.601   3.948   6.250  0.6995 -0.1557 -0.0206
  890MOL0     C17397   9.727   3.994   6.256 -0.3835 -0.5722  0.8442
  890MOL0     N17398   9.898   4.490   6.197  0.6756 -0.1631 -0.6151
  890MOL0     N17399   9.776   4.511   6.235  0.0569 -0.9134  0.4976
  890MOL0     C17400   8.439   4.176   6.470 -0.1872  0.7156  0.8055
  890MOL0     C17401   8.335   4.084   6.452  0.8695 -0.6144 -0.4316
  890MOL0     C17402   8.023   3.809   6.297 -0.3936 -0.6088  0.0312
  890MOL0     C17403   7.889   3.788   6.345  0.0043 -0.5153  0.1954
  890MOL0     C17404   7.784   3.732   6.271  0.2110  0.1707 -0.8515
  890MOL0     C17405   7.802   3.692   6.136  0.7753  0.3188 -0.6351
  890MOL0     O17406   7.706   3.627   6.064 -0.1921  0.0673 -0.3769
  890MOL0     C17407   7.618   3.545   6.150  0.5561 -0.5500  0.7539
  890MOL0     C17408   7.569   3.410   6.090  0.2049  0.3720 -0.8794
  890MOL0     C17409   7.518   3.420   5.954 -0.0889 -0.6554  0.2249
  890MOL0     C17410   7.381   3.500   5.946 -0.0381 -0.7358  0.0944
  890MOL0     C17411   7.337   3.476   5.807 -0.3992  0.6917 -0.8525
  890MOL0     C17412   7.318   3.455   5.687 -0.5791  0.3429  0.6440
  890MOL0     C17413   7.930   3.714   6.085 -0.7391 -0.0765  0.1227
  890MOL0     C17414   8.041   3.772   6.164 -0.1307  0.2350  0.2431
  890MOL0     H17415   8.481   3.904   6.197 -0.6874 -0.5462  0.5080
  890MOL0     H17416   8.653   4.021   6.252 -1.5454 -0.4869 -1.6639
  890MOL0     H17417   8.785   4.187   6.272 -0.1126  1.4078 -1.1249
  890MOL0     H17418   8.841   4.091   6.405  1.0850  0.9343 -1.5400
  890MOL0     H17419   8.871   4.356   6.499  0.7368 -1.8789  2.0474
  890MOL0     H17420   8.896   4.369   6.339 -1.2225  1.2656  1.3153
  890MOL0     H17421   9.072   4.188   6.333  1.4991  0.1274 -0.4503
  890MOL0     H17422   9.039   4.137   6.495  3.9381 -1.5818 -2.3747
  890MOL0     H17423   9.138   4.424   6.419  1.1975  0.7141  0.8606
  890MOL0     H17424   9.135   4.354   6.578  0.9398  3.9541 -1.0474
  890MOL0     H17425   9.309   4.259   6.339 -0.1151  0.3810  0.4935
  890MOL0     H17426   9.314   4.190   6.500  1.6994 -0.2011  0.1184
  890MOL0     H17427   9.441   4.388   6.582  0.5260  0.3019 -0.1543
  890MOL0     H17428   9.361   4.480   6.450  0.5100  0.1434 -0.3979
  890MOL0     H17429   9.573   4.265   6.414  0.5282  0.5590  0.3009
  890MOL0     H17430   9.511   4.376   6.292  1.3284  1.6920  0.0459
  890MOL0     H17431   9.655   4.442   6.547 -0.5425 -1.4365  0.5230
  890MOL0     H17432   9.582   4.561   6.442  1.6040  1.3605  6.5010
  890MOL0     H17433   9.892   4.375   6.503  0.6888 -0.1327  0.4139
  890MOL0     H17434  10.178   4.462   6.323  1.1537 -0.7882  0.2998
  890MOL0     H17435  10.146   4.352   6.200  4.2704  2.3683  0.9269
  890MOL0     H17436  10.069   4.251   6.474 -1.3182  1.0425 -0.0462
  890MOL0     H17437  10.249   4.283   6.419  1.7328 -0.0235 -5.1964
  890MOL0     H17438  10.213   4.136   6.222  0.5754  0.5462  1.1256
  890MOL0     H17439  10.191   4.066   6.373 -1.1272 -1.0170 -1.6913
  890MOL0     H17440  10.014   4.008   6.193  1.7564  0.1934 -0.1646
  890MOL0     H17441   9.950   4.178   6.218  2.2279  0.5582 -1.0876
  890MOL0     H17442   9.769   4.030   6.578 -3.4777 -0.3833  1.6146
  890MOL0     H17443   9.523   3.963   6.576  0.5794  3.4216 -0.2002
  890MOL0     H17444   9.195   3.830   6.656 -0.9317  0.9409 -0.2440
  890MOL0     H17445   8.957   3.769   6.697 -0.8370 -1.0365 -0.4759
  890MOL0     H17446   8.668   3.757   6.670 -1.9859  1.1188 -0.7054
  890MOL0     H17447   8.750   3.632   6.563 -0.7164  0.2309 -0.6972
  890MOL0     H17448   8.555   3.672   6.407 -1.4790 -2.3117  0.6647
  890MOL0     H17449   8.502   3.798   6.515 -2.1186 -1.0905 -2.1285
  890MOL0     H17450   8.456   3.611   6.689  1.1618 -0.6358  0.3966
  890MOL0     H17451   8.508   3.495   6.578 -1.0401  0.6799 -0.4319
  890MOL0     H17452   8.286   3.685   6.515 -1.5953 -1.4593  4.7297
  890MOL0     H17453   8.338   3.539   6.414  0.4513 -2.6916  0.6795
  890MOL0     H17454   8.238   3.532   6.703  0.9207  0.8500 -0.9616
  890MOL0     H17455   8.260   3.384   6.604 -1.2703 -0.6648  1.7542
  890MOL0     H17456   8.067   3.601   6.561 -0.2139 -0.3351  0.4398
  890MOL0     H17457   8.031   3.444   6.635  0.0742 -1.0299 -1.2493
  890MOL0     H17458   8.085   3.543   6.346 -2.5532  1.8165  0.0945
  890MOL0     H17459   8.138   3.378   6.379 -0.5691 -1.5617  1.9574
  890MOL0     H17460   7.852   3.502   6.427 -0.1186 -0.6677  0.3203
  890MOL0     H17461   7.895   3.334   6.467 -0.2673  0.7311  1.7884
  890MOL0     H17462   8.890   3.868   6.271  0.0320  0.7407  0.3479
  890MOL0     H17463   9.111   3.915   6.256  0.4101 -1.4681 -0.3551
  890MOL0     H17464   9.562   3.916   6.154  0.5892 -0.0238 -0.0199
  890MOL0     H17465   9.792   3.981   6.170 -1.8522  0.0475 -0.4091
  890MOL0     H17466   8.434   4.266   6.531  4.5196  0.7817  1.5356
  890MOL0     H17467   8.248   4.105   6.514  2.6743  1.8578  1.4221
  890MOL0     H17468   7.860   3.831   6.440 -1.8607 -0.2180 -0.4846
  890MOL0     H17469   7.685   3.726   6.313 -0.3517 -0.9056 -2.2498
  890MOL0     H17470   7.529   3.605   6.169  0.8011 -0.5535  2.0237
  890MOL0     H17471   7.649   3.523   6.253 -1.5190 -0.4526  1.4391
  890MOL0     H17472   7.641   3.329   6.107  0.4110  0.6169 -0.5713
  890MOL0     H17473   7.477   3.380   6.141  0.9785  1.3209  1.2227
  890MOL0     H17474   7.497   3.318   5.922 -1.9879 -0.8296  1.7895
  890MOL0     H17475   7.588   3.485   5.900  0.1961  0.5003  1.8875
  890MOL0     H17476   7.313   3.460   6.022 -0.9659  0.7077  0.0700
  890MOL0     H17477   7.381   3.609   5.955 -0.4324 -0.8702  2.2545
  890MOL0     H17478   7.304   3.433   5.584 -0.5681 -2.5262  1.1776
  890MOL0     H17479   7.944   3.689   5.980  4.0960  2.6113 -0.1432
  890MOL0     H17480   8.142   3.766   6.124  0.4030 -3.6326  1.7449
  891MOL0     O17481   3.450   9.543   1.253 -0.3888 -0.0030 -0.6290
  891MOL0     C17482   3.493   9.481   1.353 -0.1394 -0.0956  0.6383
  891MOL0     O17483   3.422   9.439   1.457 -1.3235  0.2795  0.3223
  891MOL0     C17484   3.293   9.477   1.463  0.6838 -1.0619  0.1061
  891MOL0     C17485   3.194   9.393   1.404  0.3086  0.3592 -0.0394
  891MOL0     C17486   3.059   9.432   1.405  0.4008  0.2248 -0.4882
  891MOL0     C17487   3.019   9.549   1.469  0.4278 -0.7938  0.2477
  891MOL0     O17488   2.884   9.575   1.482  0.8326  0.9399 -0.7206
  891MOL0     C17489   2.791   9.538   1.384  0.2074  0.6946  0.2992
  891MOL0     C17490   2.649   9.570   1.418  0.6085 -0.2283  0.6523
  891MOL0     C17491   2.520   9.519   1.342  0.5922 -0.0828  0.1249
  891MOL0     C17492   2.395   9.579   1.398  0.5674 -0.5633 -0.5567
  891MOL0     C17493   2.266   9.533   1.338  0.5561  0.0995 -0.9992
  891MOL0     C17494   2.152   9.603   1.417 -0.0555  0.5560 -0.3887
  891MOL0     C17495   2.009   9.585   1.369 -0.5281  0.3998 -0.5658
  891MOL0     C17496   1.943   9.454   1.377  0.2196  0.8951 -0.6196
  891MOL0     N17497   1.801   9.454   1.352  1.0199 -0.8195 -0.6634
  891MOL0     C17498   1.734   9.524   1.252  0.9340  0.1229  0.3245
  891MOL0     C17499   1.604   9.494   1.286  0.0030 -1.1009  0.4357
  891MOL0     C17500   1.473   9.561   1.240  0.0755  0.4892  0.3732
  891MOL0     C17501   1.357   9.458   1.222  0.2648  0.4750 -0.1505
  891MOL0     C17502   1.220   9.532   1.222 -0.1995 -0.7166  0.4403
  891MOL0     C17503   1.107   9.440   1.239 -0.1981 -1.6800  0.3970
  891MOL0     O17504   1.004   9.513   1.172  0.0480  0.1575 -0.8740
  891MOL0     C17505   0.879   9.457   1.132  0.5302 -0.5582  0.1760
  891MOL0     C17506   0.854   9.319   1.142  0.8158  0.8563  0.2580
  891MOL0     C17507   0.723   9.266   1.103 -0.3764 -0.1088  0.0689
  891MOL0     C17508   0.629   9.350   1.043  0.6347  0.6447 -0.4071
  891MOL0     C17509   0.501   9.290   1.023 -0.1613 -0.2753  0.7945
  891MOL0     O17510   0.405   9.387   1.025  0.5421 -0.2145  0.2316
  891MOL0     C17511   0.274   9.355   1.028 -1.3490 -0.0201 -0.4628
  891MOL0     C17512   0.217   9.250   1.095 -0.0491  0.7256 -1.3789
  891MOL0     C17513   0.074   9.233   1.092  0.2004  0.1173  0.4883
  891MOL0     C17514   0.000   9.304   0.998 -0.2523 -0.5221  0.5061
  891MOL0     O17515  -0.133   9.291   0.979 -0.4758  0.0215  0.2069
  891MOL0     C17516  -0.227   9.199   1.044 -0.6359  0.1550 -0.8695
  891MOL0     C17517  -0.375   9.224   0.997  0.3410  0.9140 -0.5502
  891MOL0     C17518  -0.388   9.174   0.854 -0.1727 -0.0709 -0.3400
  891MOL0     C17519  -0.517   9.236   0.802 -0.0529 -0.0195  0.8503
  891MOL0     C17520  -0.616   9.128   0.769 -0.2886 -0.4019  0.0062
  891MOL0     C17521  -0.715   9.174   0.668  0.3121  0.1920 -0.1651
  891MOL0     C17522  -0.828   9.071   0.643 -0.0263 -0.9885  0.8980
  891MOL0     C17523  -0.901   9.085   0.513  0.1501 -0.5710  1.0748
  891MOL0    Cl17524  -0.797   9.005   0.377 -0.1618  0.7729  0.4448
  891MOL0     C17525   0.061   9.419   0.935  0.4052 -0.2510 -0.6008
  891MOL0     C17526   0.200   9.446   0.943 -0.6824  0.8624 -0.6360
  891MOL0     O17527   0.491   9.167   1.009  0.1265 -0.4759 -0.9247
  891MOL0     C17528   0.657   9.486   1.026 -0.0043 -0.2381 -0.7022
  891MOL0     C17529   0.780   9.538   1.075 -0.8552 -0.0922 -0.2293
  891MOL0     N17530   1.591   9.408   1.386  0.2812 -0.3285  0.8703
  891MOL0     N17531   1.705   9.388   1.434  0.0771  0.6894  0.0035
  891MOL0     C17532   3.117   9.622   1.534 -0.6990  0.0486 -0.8636
  891MOL0     C17533   3.256   9.596   1.523  0.8263 -0.9081  1.1027
  891MOL0     C17534   3.635   9.454   1.352  0.6732 -0.1320 -0.2931
  891MOL0     C17535   3.721   9.513   1.254  0.3503  0.0801 -0.2089
  891MOL0     C17536   3.854   9.474   1.246  0.6099  0.5153  0.3895
  891MOL0     C17537   3.905   9.387   1.335 -0.2490 -0.4374  0.6882
  891MOL0     O17538   4.046   9.373   1.346  0.0292 -0.4424 -0.4090
  891MOL0     C17539   4.097   9.276   1.250 -0.0550 -0.7124 -0.6723
  891MOL0     C17540   4.170   9.176   1.337  0.1145  0.7521 -0.1033
  891MOL0     C17541   4.293   9.234   1.415  0.0321 -0.4513  0.5323
  891MOL0     C17542   4.421   9.252   1.332 -0.4678 -0.7489 -0.3976
  891MOL0     C17543   4.532   9.311   1.400 -0.6090  0.3302  0.6215
  891MOL0     C17544   4.623   9.371   1.450 -0.0846 -0.6923 -0.3379
  891MOL0     C17545   3.817   9.324   1.424 -0.7033 -0.4519 -0.4829
  891MOL0     C17546   3.684   9.354   1.436 -0.7635 -1.2707 -0.0592
  891MOL0     H17547   3.234   9.296   1.377  2.3800  1.0637  0.3462
  891MOL0     H17548   2.990   9.359   1.363 -0.5852 -0.7994  2.6037
  891MOL0     H17549   2.790   9.430   1.366  2.1948  0.8622 -1.2710
  891MOL0     H17550   2.820   9.582   1.288  2.9550  0.3822  0.8846
  891MOL0     H17551   2.636   9.678   1.418 -0.6998 -0.3512 -1.0029
  891MOL0     H17552   2.649   9.549   1.526  1.9486  1.9046  1.1176
  891MOL0     H17553   2.525   9.409   1.342 -0.2826 -0.2549  3.5278
  891MOL0     H17554   2.536   9.540   1.236 -0.2064 -2.6099 -0.5727
  891MOL0     H17555   2.400   9.555   1.505 -1.6178  1.2417  0.0106
  891MOL0     H17556   2.395   9.688   1.400  0.4725 -0.5387 -1.5134
  891MOL0     H17557   2.255   9.426   1.353  0.3431  0.4559  2.0681
  891MOL0     H17558   2.257   9.563   1.234 -1.0368  2.8047 -0.1914
  891MOL0     H17559   2.159   9.711   1.427 -0.2881  0.8832 -3.1495
  891MOL0     H17560   2.151   9.566   1.520 -2.8459 -1.7162 -1.0779
  891MOL0     H17561   1.949   9.659   1.424 -0.3639  3.0481 -3.6825
  891MOL0     H17562   2.007   9.621   1.266 -3.1776 -0.9407 -1.0730
  891MOL0     H17563   1.951   9.408   1.476  0.3750 -0.8964 -1.4465
  891MOL0     H17564   1.994   9.385   1.310 -2.2598 -1.1517 -0.5616
  891MOL0     H17565   1.761   9.585   1.166  2.6614 -0.5549  0.3398
  891MOL0     H17566   1.496   9.625   1.154  0.4684  2.0314  1.5784
  891MOL0     H17567   1.430   9.631   1.312 -0.0511 -0.9263  1.7185
  891MOL0     H17568   1.374   9.383   1.299  0.4467 -1.2060 -1.7726
  891MOL0     H17569   1.360   9.405   1.127 -3.3227 -0.5414  0.1664
  891MOL0     H17570   1.211   9.602   1.306  2.2073 -0.5308  0.6007
  891MOL0     H17571   1.229   9.589   1.130 -2.3238  1.9897  1.7566
  891MOL0     H17572   1.093   9.408   1.343  1.8311  1.8718  1.9845
  891MOL0     H17573   1.124   9.351   1.178 -0.0642 -1.4273  0.0623
  891MOL0     H17574   0.924   9.253   1.192 -2.4346 -0.4635  3.5287
  891MOL0     H17575   0.693   9.162   1.115 -2.0121  0.1393 -1.4334
  891MOL0     H17576   0.278   9.176   1.148  0.6155  1.8758 -0.4933
  891MOL0     H17577   0.022   9.163   1.157 -2.1397  1.0008 -0.3085
  891MOL0     H17578  -0.224   9.228   1.150  1.1831 -1.3041 -0.4685
  891MOL0     H17579  -0.191   9.097   1.032  1.9836  0.9259 -0.2891
  891MOL0     H17580  -0.394   9.331   1.005 -1.4896  0.4705  3.4821
  891MOL0     H17581  -0.449   9.169   1.057 -0.1128  0.2512 -1.6720
  891MOL0     H17582  -0.387   9.065   0.846  2.2623 -0.0849 -0.5723
  891MOL0     H17583  -0.307   9.208   0.789  0.5701 -0.7039  0.2367
  891MOL0     H17584  -0.567   9.312   0.863 -2.5707 -1.5444  0.8530
  891MOL0     H17585  -0.486   9.285   0.709  0.2799  0.2477  1.1024
  891MOL0     H17586  -0.664   9.104   0.865  1.7532  1.7221  1.6984
  891MOL0     H17587  -0.561   9.042   0.729  1.0102  0.3652  0.0704
  891MOL0     H17588  -0.671   9.203   0.572 -0.7410 -0.6368 -0.9188
  891MOL0     H17589  -0.751   9.268   0.710 -0.6242 -0.9612  1.7314
  891MOL0     H17590  -0.800   8.965   0.644  0.5270 -1.1600 -4.2228
  891MOL0     H17591  -0.899   9.081   0.725  1.1228 -0.9789  1.9260
  891MOL0     H17592  -0.908   9.190   0.484  2.5254 -0.5278  0.4022
  891MOL0     H17593  -1.001   9.040   0.509 -0.5494  0.9850 -1.5895
  891MOL0     H17594   0.006   9.483   0.867 -0.3851  0.0473  0.3092
  891MOL0     H17595   0.252   9.524   0.889  1.0033  0.3913  0.2400
  891MOL0     H17596   0.591   9.554   0.974 -1.9729  0.1089  2.0231
  891MOL0     H17597   0.794   9.645   1.071 -1.3576 -0.0305 -0.5104
  891MOL0     H17598   3.079   9.704   1.594 -0.5675  0.9211 -1.9459
  891MOL0     H17599   3.321   9.667   1.573  0.1706 -0.0859  0.8002
  891MOL0     H17600   3.682   9.593   1.193 -0.3366  2.0233  2.6049
  891MOL0     H17601   3.913   9.524   1.170  1.1938 -0.0757  0.4457
  891MOL0     H17602   4.158   9.319   1.170  1.6837  2.2580  2.0071
  891MOL0     H17603   4.013   9.232   1.196 -0.2727  0.9730 -1.7596
  891MOL0     H17604   4.104   9.125   1.407  1.7937 -1.4901 -0.0653
  891MOL0     H17605   4.195   9.094   1.270 -3.7808 -2.3682  1.8440
  891MOL0     H17606   4.317   9.164   1.496  0.4735 -1.1921 -0.2355
  891MOL0     H17607   4.270   9.328   1.467  1.0096 -0.6804  1.3977
  891MOL0     H17608   4.459   9.159   1.291 -1.5869 -1.0349 -0.8248
  891MOL0     H17609   4.385   9.316   1.251  0.2505 -2.7482 -2.3922
  891MOL0     H17610   4.716   9.418   1.473 -0.9038 -0.3019  2.5516
  891MOL0     H17611   3.858   9.245   1.487 -0.1424  0.3711  0.2211
  891MOL0     H17612   3.617   9.289   1.490  2.1510 -3.9693  0.6524
  892MOL0     O17613   0.868   6.997   2.051 -0.5355 -0.4664 -0.0853
  892MOL0     C17614   0.882   6.871   2.048  0.3351 -0.2717 -0.3379
  892MOL0     O17615   0.793   6.786   1.987  0.0610 -0.2183 -0.4212
  892MOL0     C17616   0.681   6.843   1.920 -0.0899 -0.3126 -0.2698
  892MOL0     C17617   0.674   6.859   1.782  0.3065 -0.0141  0.5947
  892MOL0     C17618   0.572   6.936   1.724  1.2103 -0.4685  0.5115
  892MOL0     C17619   0.500   7.027   1.795  1.2801  0.6154 -0.1345
  892MOL0     O17620   0.411   7.116   1.745  0.3444  0.2451 -1.2782
  892MOL0     C17621   0.394   7.151   1.608 -0.0873  0.6372  0.3031
  892MOL0     C17622   0.357   7.303   1.589 -0.9879 -0.3642  0.5851
  892MOL0     C17623   0.210   7.325   1.622  0.0636 -0.4971  0.9042
  892MOL0     C17624   0.180   7.466   1.677  0.2950  0.1230 -0.1474
  892MOL0     C17625   0.021   7.507   1.666 -0.0570  0.1193  0.2663
  892MOL0     C17626  -0.027   7.513   1.520  0.2751 -0.2838 -0.4701
  892MOL0     C17627  -0.175   7.549   1.508  0.3891 -0.1900  0.4013
  892MOL0     C17628  -0.264   7.425   1.539 -0.2340 -0.2843  0.2941
  892MOL0     N17629  -0.404   7.460   1.554  0.1515 -1.3081 -0.0467
  892MOL0     C17630  -0.500   7.404   1.482  0.3261 -0.3553 -0.3536
  892MOL0     C17631  -0.625   7.446   1.520 -0.3360  0.1403 -0.3392
  892MOL0     C17632  -0.758   7.386   1.476 -0.8079 -0.1207 -0.3313
  892MOL0     C17633  -0.839   7.490   1.396  0.4047 -0.0077 -0.6090
  892MOL0     C17634  -0.922   7.576   1.504 -0.3532 -0.6038  0.3604
  892MOL0     C17635  -1.022   7.660   1.419  0.1027  0.7574 -0.2041
  892MOL0     O17636  -1.102   7.741   1.509 -0.0113 -0.1105  0.0522
  892MOL0     C17637  -1.234   7.763   1.493 -0.5112  0.0527  0.7443
  892MOL0     C17638  -1.309   7.740   1.378 -0.3072 -0.0349 -0.8389
  892MOL0     C17639  -1.441   7.789   1.369 -0.5004 -0.0117  0.6981
  892MOL0     C17640  -1.499   7.858   1.472 -0.3317 -0.7425 -0.0710
  892MOL0     C17641  -1.644   7.906   1.458  0.0237  0.4983 -0.3645
  892MOL0     O17642  -1.692   7.970   1.571 -0.0879  0.2704  0.0558
  892MOL0     C17643  -1.823   8.004   1.566  0.0392 -0.3328  0.2411
  892MOL0     C17644  -1.921   7.954   1.663  0.3373 -0.9894  0.9041
  892MOL0     C17645  -2.045   8.017   1.658 -0.4835 -1.1534 -0.2840
  892MOL0     C17646  -2.082   8.124   1.572  0.6136 -0.0149  0.1267
  892MOL0     O17647  -2.201   8.195   1.577 -0.1432  0.1359 -0.4274
  892MOL0     C17648  -2.309   8.137   1.661 -0.1465 -0.5735 -0.3723
  892MOL0     C17649  -2.444   8.186   1.592  1.3560 -0.2836 -0.6665
  892MOL0     C17650  -2.571   8.190   1.690 -0.1212 -0.3488 -0.4924
  892MOL0     C17651  -2.685   8.244   1.618 -0.4906 -0.2316 -0.6130
  892MOL0     C17652  -2.799   8.276   1.712  0.5322 -0.1640  0.4369
  892MOL0     C17653  -2.894   8.159   1.740  0.2003  0.5547 -0.5122
  892MOL0     C17654  -3.006   8.213   1.827 -0.1169 -0.1709  0.5591
  892MOL0     C17655  -3.093   8.092   1.885 -0.3230 -0.5500  0.6633
  892MOL0    Cl17656  -3.132   7.978   1.752  0.4894  0.4644 -0.1373
  892MOL0     C17657  -1.983   8.161   1.482 -0.2184 -0.3797 -0.0395
  892MOL0     C17658  -1.854   8.103   1.472 -1.3761  0.1517 -0.7830
  892MOL0     O17659  -1.706   7.868   1.358 -0.4711  0.5010  0.4537
  892MOL0     C17660  -1.423   7.887   1.589 -0.8707 -0.5250  0.0897
  892MOL0     C17661  -1.293   7.838   1.597  0.0498 -0.0475  0.2301
  892MOL0     N17662  -0.601   7.530   1.627 -0.3163 -0.0212  1.1522
  892MOL0     N17663  -0.470   7.533   1.651 -0.2481  0.5923 -0.1460
  892MOL0     C17664   0.495   7.000   1.933  0.0263  0.1356 -0.4865
  892MOL0     C17665   0.586   6.915   1.997 -0.4139  0.1824 -0.3877
  892MOL0     C17666   1.014   6.831   2.092  0.7936 -0.8956  0.6206
  892MOL0     C17667   1.106   6.928   2.148  0.1790 -0.6554  0.0597
  892MOL0     C17668   1.232   6.892   2.198 -0.3844  0.0000  0.4947
  892MOL0     C17669   1.263   6.754   2.202  0.4406 -0.7820  0.6458
  892MOL0     O17670   1.386   6.710   2.247 -0.1538 -0.4208 -0.1412
  892MOL0     C17671   1.489   6.787   2.315  0.1430 -0.3015  0.6207
  892MOL0     C17672   1.559   6.879   2.206 -0.2137 -0.7304  0.2578
  892MOL0     C17673   1.705   6.905   2.253  0.2945 -0.4584  0.4064
  892MOL0     C17674   1.714   6.985   2.377 -0.2141 -0.8664 -0.5831
  892MOL0     C17675   1.853   6.976   2.424  0.5763  0.0130 -0.1370
  892MOL0     C17676   1.963   6.964   2.475 -0.3601  0.5239  0.2533
  892MOL0     C17677   1.181   6.656   2.144 -0.1272  0.0757  0.0462
  892MOL0     C17678   1.058   6.699   2.089 -0.0311 -0.0364  0.0185
  892MOL0     H17679   0.736   6.799   1.715  2.6127 -0.0989  2.6513
  892MOL0     H17680   0.554   6.949   1.618 -1.0011  0.5055  0.9344
  892MOL0     H17681   0.316   7.095   1.555  0.0362  1.0033 -0.2746
  892MOL0     H17682   0.491   7.139   1.559  0.9507 -0.7320  2.5454
  892MOL0     H17683   0.385   7.338   1.488 -2.0083  3.4465  1.4485
  892MOL0     H17684   0.435   7.340   1.656 -1.8818 -0.6166  1.7843
  892MOL0     H17685   0.180   7.247   1.692 -0.8602 -0.4159  0.6123
  892MOL0     H17686   0.146   7.314   1.534  1.3108 -0.4981 -0.0349
  892MOL0     H17687   0.207   7.465   1.782 -2.6594 -1.1890  0.7193
  892MOL0     H17688   0.230   7.546   1.622  1.6689 -1.5200 -1.4084
  892MOL0     H17689   0.010   7.594   1.731 -0.9931  1.7460 -1.9422
  892MOL0     H17690  -0.022   7.422   1.719 -2.6592  0.8233 -0.5537
  892MOL0     H17691  -0.007   7.423   1.461 -1.3415 -0.6963 -0.4154
  892MOL0     H17692   0.036   7.588   1.470 -0.4830  1.7720  1.5049
  892MOL0     H17693  -0.204   7.628   1.577 -1.7210 -1.1602  0.7124
  892MOL0     H17694  -0.198   7.579   1.406 -0.6601  0.4213  0.8090
  892MOL0     H17695  -0.237   7.377   1.634 -2.5865 -1.7694  0.2877
  892MOL0     H17696  -0.246   7.350   1.461 -1.0009 -0.0551 -0.1065
  892MOL0     H17697  -0.482   7.330   1.403  0.0363  0.5426 -1.2808
  892MOL0     H17698  -0.803   7.347   1.568  0.1982  0.0979  0.2669
  892MOL0     H17699  -0.739   7.300   1.411  0.8991  1.5803 -2.1864
  892MOL0     H17700  -0.904   7.442   1.322  0.0468  1.6423 -1.4093
  892MOL0     H17701  -0.769   7.556   1.345  1.1586  0.2412  0.7259
  892MOL0     H17702  -0.989   7.521   1.571 -0.4282 -0.5260  0.3495
  892MOL0     H17703  -0.855   7.645   1.555 -0.2917  2.0486 -2.9183
  892MOL0     H17704  -1.084   7.590   1.362 -2.3369  1.9794  0.7965
  892MOL0     H17705  -0.967   7.728   1.353  2.6632 -0.0222  0.9750
  892MOL0     H17706  -1.261   7.688   1.296  3.1338  0.0236  0.9341
  892MOL0     H17707  -1.495   7.782   1.275  0.1742  2.3290  0.0565
  892MOL0     H17708  -1.896   7.878   1.736  0.3056  1.7922  4.0560
  892MOL0     H17709  -2.111   7.984   1.738  0.2991  0.1892  0.9712
  892MOL0     H17710  -2.300   8.182   1.760 -0.7135  1.8867 -1.3612
  892MOL0     H17711  -2.295   8.029   1.665  1.5059 -0.3631  1.9208
  892MOL0     H17712  -2.471   8.132   1.502  2.3040 -1.1305 -0.4509
  892MOL0     H17713  -2.428   8.288   1.554  2.5085 -0.7887 -1.5857
  892MOL0     H17714  -2.553   8.254   1.776 -1.8238  0.1800 -0.5054
  892MOL0     H17715  -2.592   8.090   1.729  0.9224 -0.5194 -0.3336
  892MOL0     H17716  -2.655   8.336   1.569 -2.0559 -0.1300 -1.4460
  892MOL0     H17717  -2.729   8.174   1.546 -0.2062 -2.5216  1.3054
  892MOL0     H17718  -2.862   8.351   1.663 -1.3210 -2.2383 -0.5191
  892MOL0     H17719  -2.754   8.322   1.801  0.9617 -2.7738  1.6558
  892MOL0     H17720  -2.836   8.098   1.811  0.6891 -0.0651 -1.4299
  892MOL0     H17721  -2.911   8.089   1.658  2.3320  1.3305 -1.6642
  892MOL0     H17722  -2.964   8.284   1.899 -1.4281  3.7227 -2.1812
  892MOL0     H17723  -3.069   8.276   1.763 -1.7198 -3.0533 -0.8884
  892MOL0     H17724  -3.185   8.125   1.934 -0.9862  0.1648 -0.9757
  892MOL0     H17725  -3.023   8.037   1.949  1.6535  2.0397  0.8908
  892MOL0     H17726  -2.000   8.243   1.413  0.6860  1.9399  2.3455
  892MOL0     H17727  -1.781   8.140   1.400 -0.8732 -2.0268 -1.4984
  892MOL0     H17728  -1.460   7.938   1.677  2.4401 -0.3091  1.4784
  892MOL0     H17729  -1.233   7.862   1.684 -1.2486 -2.3124  1.8725
  892MOL0     H17730   0.436   7.067   1.996 -1.7447 -0.9359 -0.9396
  892MOL0     H17731   0.603   6.919   2.104  0.1726 -0.1573 -0.4652
  892MOL0     H17732   1.079   7.033   2.147 -1.2088 -0.9688 -2.4192
  892MOL0     H17733   1.297   6.964   2.248  1.9621 -1.7474  0.1202
  892MOL0     H17734   1.558   6.715   2.361 -1.8898 -2.1857  0.8586
  892MOL0     H17735   1.449   6.855   2.392 -0.5572  2.1680 -1.7734
  892MOL0     H17736   1.561   6.832   2.107  0.9950  1.0786 -0.6355
  892MOL0     H17737   1.504   6.973   2.207 -0.4558 -0.8645 -0.3305
  892MOL0     H17738   1.756   6.961   2.174 -0.0270 -1.3403 -0.4469
  892MOL0     H17739   1.757   6.809   2.258 -0.4852 -0.8739  0.7724
  892MOL0     H17740   1.681   7.088   2.361 -2.0389 -1.1685  0.8411
  892MOL0     H17741   1.647   6.949   2.456  0.8530 -1.6078  0.0152
  892MOL0     H17742   2.058   6.971   2.525 -1.0968  2.1051  1.5330
  892MOL0     H17743   1.220   6.555   2.136  1.4525  0.7566 -1.4562
  892MOL0     H17744   0.991   6.627   2.044 -1.3577  1.7983 -1.0680
  893MOL0     O17745   2.724   6.475  10.507 -1.0156 -0.5218 -1.0098
  893MOL0     C17746   2.783   6.573  10.557  0.4061 -0.3671  0.1761
  893MOL0     O17747   2.737   6.700  10.562 -0.8813 -0.8490 -0.0671
  893MOL0     C17748   2.600   6.702  10.539 -0.2920 -0.3278 -0.5886
  893MOL0     C17749   2.503   6.719  10.640 -0.8686  0.1399 -0.6048
  893MOL0     C17750   2.371   6.738  10.605  0.4444 -0.1490 -0.2522
  893MOL0     C17751   2.323   6.728  10.468 -0.4614 -0.8184 -0.4278
  893MOL0     O17752   2.191   6.732  10.443  0.1088 -0.0928 -0.4517
  893MOL0     C17753   2.150   6.750  10.309 -0.0266 -0.2173 -0.0628
  893MOL0     C17754   2.000   6.782  10.320  0.2495  0.2169  0.3954
  893MOL0     C17755   1.935   6.742  10.183 -0.4020 -0.0027 -0.6632
  893MOL0     C17756   1.787   6.757  10.183 -0.1466  0.2442 -0.1587
  893MOL0     C17757   1.730   6.766  10.044 -0.4856 -0.3172  0.6468
  893MOL0     C17758   1.586   6.822  10.028 -0.2902  0.1525  1.1564
  893MOL0     C17759   1.532   6.839   9.883 -0.5039 -0.6089  0.8388
  893MOL0     C17760   1.493   6.704   9.816 -0.6792  0.4221 -0.3457
  893MOL0     N17761   1.397   6.639   9.898  0.5398 -0.5043 -0.3211
  893MOL0     C17762   1.438   6.512   9.948  0.2436 -1.4115  0.0822
  893MOL0     C17763   1.327   6.472  10.018  0.3770 -0.4567  0.3999
  893MOL0     C17764   1.320   6.341  10.092 -0.7994 -0.3850 -0.6223
  893MOL0     C17765   1.201   6.256  10.060 -0.5464  0.2976 -0.0769
  893MOL0     C17766   1.086   6.292  10.155 -0.6926  0.2040  0.4428
  893MOL0     C17767   0.952   6.278  10.086  0.6285  0.7634  0.1133
  893MOL0     O17768   0.934   6.129  10.069 -0.0269 -0.6288 -0.3810
  893MOL0     C17769   0.819   6.083  10.010  0.5577  0.0748 -0.3044
  893MOL0     C17770   0.734   6.171   9.934 -1.4082  0.9656 -1.2185
  893MOL0     C17771   0.636   6.114   9.857  0.4699  0.9060 -0.3179
  893MOL0     C17772   0.599   5.976   9.858  0.3229 -0.6731  0.0045
  893MOL0     C17773   0.477   5.926   9.784 -0.9932 -0.5324 -0.4681
  893MOL0     O17774   0.405   6.026   9.719  0.0763  0.3372 -0.1753
  893MOL0     C17775   0.296   5.987   9.642  0.1722 -0.2144 -0.0638
  893MOL0     C17776   0.293   5.868   9.566  0.0188 -0.1661  0.2441
  893MOL0     C17777   0.174   5.831   9.499 -0.9295  0.1541  0.0125
  893MOL0     C17778   0.056   5.908   9.497  0.4766  0.5375  0.0189
  893MOL0     O17779  -0.056   5.859   9.437 -0.1615  0.0785 -0.1949
  893MOL0     C17780  -0.167   5.939   9.416  0.3274  0.3832 -0.0023
  893MOL0     C17781  -0.284   5.854   9.356  0.4717  0.6792 -0.7201
  893MOL0     C17782  -0.425   5.900   9.410  0.0204  0.3459  0.9884
  893MOL0     C17783  -0.464   6.050   9.356 -0.3463  0.5370  0.0190
  893MOL0     C17784  -0.580   6.110   9.417 -0.1709 -0.8932  0.6169
  893MOL0     C17785  -0.697   6.027   9.425  0.8243  0.8364 -0.3875
  893MOL0     C17786  -0.822   6.116   9.443 -0.0997 -0.1587  0.1163
  893MOL0     C17787  -0.952   6.047   9.429  0.4792  0.1747  0.4311
  893MOL0    Cl17788  -0.995   5.975   9.269  0.0260  0.0256  0.1141
  893MOL0     C17789   0.066   6.038   9.559  0.1523  0.7104  0.3568
  893MOL0     C17790   0.182   6.071   9.632 -0.0978  0.3609  0.7348
  893MOL0     O17791   0.448   5.804   9.791 -0.0104  0.2594  0.8256
  893MOL0     C17792   0.664   5.898   9.949 -0.8342  0.4366 -0.5140
  893MOL0     C17793   0.776   5.948  10.022  0.3741 -0.8744 -0.2915
  893MOL0     N17794   1.226   6.571  10.001  0.1252  0.0185  0.3303
  893MOL0     N17795   1.265   6.669   9.930 -0.4328 -0.0726 -0.0728
  893MOL0     C17796   2.419   6.701  10.375 -0.1941  0.0375 -0.4756
  893MOL0     C17797   2.546   6.689  10.409 -0.4184 -0.4204 -0.3729
  893MOL0     C17798   2.910   6.553  10.626  0.2000  0.9775 -0.4178
  893MOL0     C17799   2.972   6.426  10.613  0.1092  0.1070  0.3240
  893MOL0     C17800   3.084   6.401  10.676  0.1396 -0.2492  0.4056
  893MOL0     C17801   3.152   6.496  10.750 -1.1918 -0.5308 -0.9358
  893MOL0     O17802   3.269   6.468  10.815 -0.2622 -0.1364  0.4432
  893MOL0     C17803   3.332   6.544  10.912 -0.4576  0.6033 -0.0051
  893MOL0     C17804   3.256   6.541  11.048 -0.4255  0.2045 -0.5091
  893MOL0     C17805   3.340   6.626  11.151 -0.1197 -0.6480 -0.0738
  893MOL0     C17806   3.285   6.661  11.286  0.2335 -0.7389  0.2710
  893MOL0     C17807   3.163   6.745  11.261 -0.6940  0.1995 -0.6078
  893MOL0     C17808   3.074   6.822  11.225 -0.4707  0.0982  0.1581
  893MOL0     C17809   3.105   6.625  10.757 -0.3012  0.0743  0.0251
  893MOL0     C17810   2.975   6.652  10.700 -0.3105 -0.2164  0.0244
  893MOL0     H17811   2.531   6.736  10.744  1.8991  1.0839 -1.3992
  893MOL0     H17812   2.284   6.771  10.661  0.7753 -0.2856  0.3529
  893MOL0     H17813   2.181   6.664  10.248  2.1577 -2.0354  3.2893
  893MOL0     H17814   2.206   6.841  10.285  0.9340  0.1856  3.2262
  893MOL0     H17815   1.989   6.888  10.346 -1.3882  0.5089 -1.2378
  893MOL0     H17816   1.948   6.730  10.400 -1.6834  2.3204  0.6052
  893MOL0     H17817   1.955   6.638  10.155  0.5296 -0.5981  1.9506
  893MOL0     H17818   1.977   6.799  10.099  2.0113  0.2062  0.6017
  893MOL0     H17819   1.725   6.699  10.252  1.1253  1.3154  1.9753
  893MOL0     H17820   1.778   6.858  10.223 -0.5426 -0.5928  1.9724
  893MOL0     H17821   1.723   6.667   9.999 -0.1844 -0.0221 -0.0828
  893MOL0     H17822   1.793   6.829   9.979 -2.2634  0.6930 -0.1761
  893MOL0     H17823   1.580   6.920  10.077  1.1643  1.6773 -1.4554
  893MOL0     H17824   1.524   6.749  10.081  1.6032 -1.9265  0.6619
  893MOL0     H17825   1.436   6.891   9.894  1.6242  3.4195  2.3225
  893MOL0     H17826   1.610   6.888   9.824 -0.6704 -1.8466 -0.4604
  893MOL0     H17827   1.581   6.641   9.800 -0.2547  0.9726 -0.2413
  893MOL0     H17828   1.458   6.740   9.719  1.7242  2.0307 -0.7221
  893MOL0     H17829   1.535   6.465   9.935  0.6418 -0.0565 -2.5087
  893MOL0     H17830   1.330   6.360  10.199  2.0218 -1.2235 -0.6612
  893MOL0     H17831   1.404   6.281  10.056  0.1247 -0.5304  1.6093
  893MOL0     H17832   1.237   6.153  10.057  1.0971  0.8479 -0.9564
  893MOL0     H17833   1.179   6.279   9.955 -0.3514  0.9247  0.0152
  893MOL0     H17834   1.089   6.221  10.238  2.7718  2.5208  2.5083
  893MOL0     H17835   1.082   6.393  10.196 -3.4044 -0.8252  3.1268
  893MOL0     H17836   0.952   6.323   9.986 -2.3091 -1.7901 -1.2049
  893MOL0     H17837   0.871   6.327  10.141 -0.8557 -0.8785 -0.5069
  893MOL0     H17838   0.765   6.274   9.923 -0.8772  1.0108  0.3601
  893MOL0     H17839   0.577   6.184   9.799 -0.7881  1.9634  2.0925
  893MOL0     H17840   0.363   5.786   9.577  0.8294  0.7457  2.3096
  893MOL0     H17841   0.184   5.736   9.447  2.3420 -0.0154  0.7352
  893MOL0     H17842  -0.151   6.021   9.346  1.7184 -0.2707 -0.4732
  893MOL0     H17843  -0.199   5.983   9.511  1.7037  3.4463 -0.8338
  893MOL0     H17844  -0.257   5.755   9.395 -0.7432  1.3039  1.8825
  893MOL0     H17845  -0.275   5.853   9.246 -0.7743 -3.3126 -0.9693
  893MOL0     H17846  -0.426   5.892   9.519  0.7152  2.3922  1.1785
  893MOL0     H17847  -0.495   5.827   9.368  0.6606 -0.3269  1.0553
  893MOL0     H17848  -0.376   6.114   9.363 -0.9192  1.1487  2.1595
  893MOL0     H17849  -0.499   6.045   9.252 -1.6816 -0.3967  0.4827
  893MOL0     H17850  -0.601   6.198   9.355 -1.1372  0.0824  2.2518
  893MOL0     H17851  -0.548   6.142   9.516  2.0643 -0.9461 -0.0270
  893MOL0     H17852  -0.690   5.964   9.514 -0.2951  1.0189 -0.1545
  893MOL0     H17853  -0.704   5.968   9.332  0.6336  2.0633 -1.1740
  893MOL0     H17854  -0.822   6.165   9.540  0.2162  2.3825 -1.0822
  893MOL0     H17855  -0.818   6.193   9.365 -1.7935  0.1577  0.3088
  893MOL0     H17856  -1.033   6.114   9.460 -0.9984 -0.7811 -1.2123
  893MOL0     H17857  -0.954   5.968   9.505  0.3356 -0.3258 -0.0885
  893MOL0     H17858  -0.028   6.091   9.571 -0.6553 -1.1741  3.4592
  893MOL0     H17859   0.188   6.154   9.702  1.8616  0.8741  0.0250
  893MOL0     H17860   0.641   5.793   9.965  2.1378 -0.2905 -0.3982
  893MOL0     H17861   0.824   5.887  10.098  0.1258  1.6558  2.0298
  893MOL0     H17862   2.407   6.700  10.267  1.5517  1.0069 -0.7211
  893MOL0     H17863   2.623   6.664  10.337  2.2541 -1.7048  2.6765
  893MOL0     H17864   2.914   6.346  10.568 -0.5041  2.1828 -2.9545
  893MOL0     H17865   3.115   6.297  10.668 -3.5052 -1.4062 -0.1929
  893MOL0     H17866   3.345   6.647  10.877 -1.0201  0.6672 -0.0387
  893MOL0     H17867   3.433   6.503  10.918 -0.8559 -0.3938  0.1510
  893MOL0     H17868   3.165   6.600  11.032  0.2437  0.3002 -5.0550
  893MOL0     H17869   3.228   6.439  11.075  0.5077  0.5848  2.2199
  893MOL0     H17870   3.371   6.720  11.105  2.1550 -1.7843 -1.0067
  893MOL0     H17871   3.439   6.579  11.161  1.3583  2.4080  0.6866
  893MOL0     H17872   3.258   6.563  11.328 -0.4295 -1.0338 -0.7936
  893MOL0     H17873   3.356   6.726  11.338 -0.0524 -1.5177  1.6974
  893MOL0     H17874   3.000   6.887  11.184  0.0470  1.5991  1.5203
  893MOL0     H17875   3.162   6.704  10.806  0.0008 -1.1887  1.7846
  893MOL0     H17876   2.934   6.751  10.719 -0.6238 -0.3343 -0.0303
  894MOL0     O17877   6.183   8.870   3.324 -0.3301 -0.4724  0.5789
  894MOL0     C17878   6.212   8.760   3.378  0.2045 -0.8794  0.1132
  894MOL0     O17879   6.134   8.692   3.467 -0.3638 -0.0160  0.5005
  894MOL0     C17880   6.044   8.762   3.536  0.2083 -0.3930 -0.8785
  894MOL0     C17881   6.055   8.893   3.590  1.0548  0.1613 -0.7694
  894MOL0     C17882   5.952   8.951   3.668  0.3116  0.3196 -0.2718
  894MOL0     C17883   5.833   8.878   3.687 -0.1296  0.9723 -0.4737
  894MOL0     O17884   5.741   8.951   3.759 -0.4032 -0.4302  0.1802
  894MOL0     C17885   5.609   8.911   3.715 -0.3588 -0.3281 -0.2103
  894MOL0     C17886   5.520   9.011   3.785  0.4378  0.3289 -0.2524
  894MOL0     C17887   5.379   8.997   3.727 -0.0041  0.3736 -0.2482
  894MOL0     C17888   5.278   9.102   3.779 -0.0775 -0.0523  0.2860
  894MOL0     C17889   5.141   9.082   3.719 -0.2938 -0.0261  0.1403
  894MOL0     C17890   5.035   9.196   3.760 -0.0085  0.9922 -0.4676
  894MOL0     C17891   4.889   9.151   3.731 -0.4226 -0.5057  0.3135
  894MOL0     C17892   4.779   9.262   3.763 -0.0025  0.6969  0.0095
  894MOL0     N17893   4.641   9.213   3.780 -0.3765 -0.0559 -0.2615
  894MOL0     C17894   4.579   9.101   3.731 -0.9660 -0.1469  0.9337
  894MOL0     C17895   4.456   9.103   3.793 -0.0772  0.8111  0.1817
  894MOL0     C17896   4.349   8.999   3.786 -0.0241 -0.1808  0.4095
  894MOL0     C17897   4.239   9.055   3.699  0.6567 -0.2038 -0.4137
  894MOL0     C17898   4.115   8.963   3.681  0.4384 -0.1194 -0.5300
  894MOL0     C17899   4.161   8.813   3.683 -0.2678  0.4318  0.9939
  894MOL0     O17900   4.047   8.738   3.627 -0.2713  0.5750 -0.3286
  894MOL0     C17901   4.032   8.729   3.495  0.1010  0.1658  0.3536
  894MOL0     C17902   4.108   8.792   3.398 -0.4509  0.6749  0.4043
  894MOL0     C17903   4.067   8.801   3.262 -0.8571 -0.0373  1.0178
  894MOL0     C17904   3.959   8.716   3.217  1.1519  0.6141  0.0318
  894MOL0     C17905   3.917   8.694   3.080 -0.7778  0.0328  1.1047
  894MOL0     O17906   3.984   8.768   2.991 -0.2898  0.0896  0.2648
  894MOL0     C17907   3.978   8.720   2.864  0.5464 -0.4037  0.0064
  894MOL0     C17908   4.074   8.624   2.814  0.5981 -0.6620  0.4339
  894MOL0     C17909   4.067   8.596   2.672 -0.3561  0.8607  0.5485
  894MOL0     C17910   3.958   8.639   2.593 -0.4805 -0.2946  0.7658
  894MOL0     O17911   3.950   8.596   2.456  0.3234  0.3006  1.0201
  894MOL0     C17912   3.830   8.526   2.415 -0.1475  0.2927  0.0001
  894MOL0     C17913   3.789   8.409   2.507  0.6364 -0.7961  1.2791
  894MOL0     C17914   3.669   8.342   2.434  0.8903 -0.3518 -0.4477
  894MOL0     C17915   3.634   8.205   2.480  0.1121  0.1569 -0.2043
  894MOL0     C17916   3.530   8.132   2.389 -0.5560  0.6927  0.0112
  894MOL0     C17917   3.536   7.979   2.416 -0.2171 -0.1640 -0.0583
  894MOL0     C17918   3.435   7.885   2.351  0.1428  1.1221 -0.2028
  894MOL0     C17919   3.287   7.910   2.371  0.1920 -0.2015 -0.3801
  894MOL0    Cl17920   3.252   7.879   2.545  0.3337 -0.3390  0.1573
  894MOL0     C17921   3.859   8.718   2.652 -0.4032 -1.5553 -1.1132
  894MOL0     C17922   3.874   8.765   2.785  0.8404 -0.0310 -1.1115
  894MOL0     O17923   3.822   8.613   3.052  0.3720  0.7889 -0.2228
  894MOL0     C17924   3.898   8.642   3.314  0.0473  0.5738  0.1573
  894MOL0     C17925   3.935   8.649   3.448  1.2278 -0.0784  0.8896
  894MOL0     N17926   4.443   9.219   3.863 -0.2502 -1.3172 -0.3307
  894MOL0     N17927   4.557   9.283   3.860 -0.2306  0.0998  0.2104
  894MOL0     C17928   5.827   8.746   3.638 -0.3039 -0.3142 -0.0492
  894MOL0     C17929   5.937   8.692   3.567 -0.9373  1.1859  0.5221
  894MOL0     C17930   6.335   8.687   3.335  0.3102  0.7896  0.1110
  894MOL0     C17931   6.359   8.561   3.387 -0.5971 -0.4930  0.1570
  894MOL0     C17932   6.457   8.482   3.325  0.0265 -0.2863 -0.3245
  894MOL0     C17933   6.548   8.527   3.237  0.2279 -0.4494 -0.5038
  894MOL0     O17934   6.657   8.446   3.204  1.0483 -0.5458 -0.3993
  894MOL0     C17935   6.747   8.489   3.109  0.1663 -1.1740 -0.2090
  894MOL0     C17936   6.809   8.359   3.073 -0.7135 -0.1530  0.5894
  894MOL0     C17937   6.932   8.373   2.973 -0.4609 -0.4552 -0.6894
  894MOL0     C17938   7.001   8.239   2.933 -0.7625  0.0792  0.7090
  894MOL0     C17939   7.114   8.248   2.830 -0.3861  0.3794  0.0210
  894MOL0     C17940   7.214   8.273   2.772 -0.3456 -0.2872  0.0801
  894MOL0     C17941   6.527   8.658   3.195 -0.0845 -0.0361  0.2665
  894MOL0     C17942   6.424   8.746   3.241  0.1546  0.5161  0.8272
  894MOL0     H17943   6.143   8.957   3.590  0.1558  1.5563  1.8702
  894MOL0     H17944   5.956   9.046   3.721  1.0594 -0.3474  0.9101
  894MOL0     H17945   5.586   8.809   3.746  3.2500 -0.8371  1.3480
  894MOL0     H17946   5.600   8.908   3.606  1.3452 -1.0573 -0.3714
  894MOL0     H17947   5.545   9.113   3.756 -0.8028  0.5088 -0.7463
  894MOL0     H17948   5.518   8.997   3.894 -2.4224 -1.3049 -0.4187
  894MOL0     H17949   5.350   8.892   3.738  0.3085  0.2811 -0.2957
  894MOL0     H17950   5.374   9.015   3.619 -3.9617  1.4665 -0.0306
  894MOL0     H17951   5.272   9.108   3.888 -0.9082  1.8025  0.1785
  894MOL0     H17952   5.310   9.203   3.751 -1.1517  0.6863  1.6044
  894MOL0     H17953   5.092   8.991   3.755 -2.8036  1.1957  0.0546
  894MOL0     H17954   5.150   9.079   3.610 -0.1197  0.5284  0.1394
  894MOL0     H17955   5.060   9.290   3.710  1.2536  0.7357 -0.3540
  894MOL0     H17956   5.041   9.205   3.869 -2.3544  0.5981 -0.2518
  894MOL0     H17957   4.881   9.113   3.628  3.8463 -2.7029  0.5351
  894MOL0     H17958   4.874   9.066   3.798  3.6187 -1.4826  0.2389
  894MOL0     H17959   4.777   9.326   3.674  2.4002  0.9591  0.0746
  894MOL0     H17960   4.804   9.323   3.851 -0.0001 -0.6443  0.9720
  894MOL0     H17961   4.624   9.025   3.667 -1.0077  1.3973 -1.0138
  894MOL0     H17962   4.325   8.988   3.892  1.7694 -3.9266  0.5683
  894MOL0     H17963   4.392   8.908   3.744  1.7061  0.0249  1.6148
  894MOL0     H17964   4.287   9.066   3.602  1.6161 -4.7747 -0.6751
  894MOL0     H17965   4.213   9.155   3.736 -1.2784 -1.1167  0.9111
  894MOL0     H17966   4.044   8.986   3.761  0.9511  0.0132 -0.1092
  894MOL0     H17967   4.074   8.997   3.585 -3.0872  0.9975  1.2209
  894MOL0     H17968   4.175   8.791   3.790 -2.3943  1.6630  1.5803
  894MOL0     H17969   4.247   8.784   3.622  0.1712 -2.1009  2.6571
  894MOL0     H17970   4.183   8.865   3.428 -0.5975  0.1142  2.2784
  894MOL0     H17971   4.124   8.851   3.184 -2.6194  1.4975  0.6632
  894MOL0     H17972   4.155   8.599   2.881 -0.6441 -0.3093  2.1386
  894MOL0     H17973   4.147   8.544   2.620 -1.4793 -1.5362  1.0383
  894MOL0     H17974   3.849   8.491   2.313  3.7600 -0.0517  0.6903
  894MOL0     H17975   3.745   8.594   2.405 -0.8403 -0.7924 -2.0269
  894MOL0     H17976   3.753   8.448   2.603  0.4638 -2.1791  1.7903
  894MOL0     H17977   3.871   8.337   2.516  1.0363 -0.7530 -1.2579
  894MOL0     H17978   3.691   8.325   2.328  0.7189  0.4000 -0.6064
  894MOL0     H17979   3.584   8.411   2.434  0.8025 -0.3902 -2.2305
  894MOL0     H17980   3.724   8.143   2.475 -0.8119 -1.6730  3.3015
  894MOL0     H17981   3.599   8.211   2.583  2.6647 -0.0198  0.7489
  894MOL0     H17982   3.555   8.147   2.283 -3.2858  1.4981 -0.6026
  894MOL0     H17983   3.432   8.180   2.400  0.1476  2.2370 -0.1357
  894MOL0     H17984   3.528   7.954   2.522  2.3482 -1.6369 -0.1299
  894MOL0     H17985   3.637   7.947   2.391  0.7237  2.6233 -0.0491
  894MOL0     H17986   3.446   7.874   2.243  0.4045 -2.9308  0.0786
  894MOL0     H17987   3.452   7.783   2.387 -1.1967  1.5084  1.6442
  894MOL0     H17988   3.238   7.848   2.295 -0.2003  2.4307 -2.3990
  894MOL0     H17989   3.263   8.014   2.349 -1.7053 -0.5784 -0.2688
  894MOL0     H17990   3.787   8.751   2.578  2.2195  2.8627 -2.1271
  894MOL0     H17991   3.797   8.832   2.820 -0.1713 -1.2194 -0.9711
  894MOL0     H17992   3.812   8.577   3.299  1.1265 -0.3042 -2.8730
  894MOL0     H17993   3.872   8.589   3.513  1.6789 -2.7024 -0.9492
  894MOL0     H17994   5.746   8.679   3.663 -1.3235  2.0549  3.7797
  894MOL0     H17995   5.934   8.589   3.533  3.4710  1.2985 -0.8128
  894MOL0     H17996   6.299   8.534   3.474 -0.4884  2.7599  1.3605
  894MOL0     H17997   6.455   8.380   3.362 -0.9403 -0.9921 -2.1867
  894MOL0     H17998   6.818   8.562   3.148 -0.1457 -0.4019 -1.0559
  894MOL0     H17999   6.697   8.532   3.021 -0.6053 -1.0819  0.2623
  894MOL0     H18000   6.843   8.306   3.163 -0.1037 -0.5707  0.1240
  894MOL0     H18001   6.735   8.295   3.025  0.1848 -0.6839 -0.1373
  894MOL0     H18002   7.008   8.441   3.013 -0.5362  2.8015 -5.2457
  894MOL0     H18003   6.907   8.424   2.879  0.4769 -0.4633 -0.9607
  894MOL0     H18004   7.050   8.204   3.024  1.5808  1.2838 -0.0113
  894MOL0     H18005   6.926   8.170   2.895 -1.2845  2.0051 -2.1190
  894MOL0     H18006   7.311   8.294   2.733  0.8597  1.1834  3.4915
  894MOL0     H18007   6.609   8.696   3.134  0.3317  0.1291  0.9237
  894MOL0     H18008   6.413   8.839   3.187  2.1194  0.3569  0.0698
  895MOL0     O18009   0.195   8.148  10.797 -0.4374  0.0978  0.5432
  895MOL0     C18010   0.292   8.204  10.740  0.0127 -0.9345  0.2424
  895MOL0     O18011   0.306   8.339  10.719 -0.1011 -0.1728 -0.9522
  895MOL0     C18012   0.195   8.421  10.712 -0.3938 -0.1099 -0.2631
  895MOL0     C18013   0.072   8.378  10.660 -0.2337 -0.2764  0.5558
  895MOL0     C18014  -0.037   8.465  10.654  0.8115 -0.3276  0.3377
  895MOL0     C18015  -0.030   8.590  10.720 -0.4523  1.0018 -0.7779
  895MOL0     O18016  -0.144   8.660  10.711  0.1761  0.5513  0.4802
  895MOL0     C18017  -0.141   8.801  10.743 -0.4792  0.4409  0.7930
  895MOL0     C18018  -0.135   8.844  10.897  0.5123 -0.5080 -0.2966
  895MOL0     C18019  -0.143   8.992  10.927 -0.4680  0.2226 -0.6990
  895MOL0     C18020  -0.266   9.056  10.884  0.5417 -0.2051  0.0930
  895MOL0     C18021  -0.302   9.193  10.950 -0.3023  0.3703 -0.4916
  895MOL0     C18022  -0.312   9.190  11.105  0.3177 -0.7281 -1.1453
  895MOL0     C18023  -0.439   9.114  11.153 -0.0316 -0.3259  0.1764
  895MOL0     C18024  -0.465   9.145  11.303 -0.2073  0.2521 -0.2083
  895MOL0     N18025  -0.530   9.276  11.313  0.6316 -0.4139  0.4245
  895MOL0     C18026  -0.660   9.293  11.355  0.1195  0.2361  0.3012
  895MOL0     C18027  -0.669   9.422  11.405 -0.6139  1.4811 -0.0939
  895MOL0     C18028  -0.780   9.496  11.454 -0.3110 -0.1992 -0.0532
  895MOL0     C18029  -0.848   9.428  11.572 -0.4023  0.3802 -0.1768
  895MOL0     C18030  -0.959   9.526  11.625  0.2511  0.6725  0.5439
  895MOL0     C18031  -1.008   9.477  11.763 -0.2183 -0.1181 -0.6659
  895MOL0     O18032  -1.109   9.377  11.740  0.7291  0.0960 -0.0372
  895MOL0     C18033  -1.239   9.429  11.736 -0.2164  0.7285 -0.8074
  895MOL0     C18034  -1.278   9.561  11.712  0.5301  0.5218 -1.2313
  895MOL0     C18035  -1.416   9.582  11.698 -0.3110 -0.4794 -0.1776
  895MOL0     C18036  -1.511   9.477  11.695  0.3368 -1.5560  0.8377
  895MOL0     C18037  -1.648   9.509  11.666  0.5420 -0.1864 -0.3519
  895MOL0     O18038  -1.737   9.410  11.696 -0.1289 -0.2031  0.2799
  895MOL0     C18039  -1.869   9.433  11.709  1.3968  0.3851 -0.0763
  895MOL0     C18040  -1.925   9.550  11.773 -0.5243 -0.9745 -0.5329
  895MOL0     C18041  -2.062   9.577  11.777  0.1252 -0.7082  1.3374
  895MOL0     C18042  -2.152   9.475  11.736 -0.1287  0.2049 -0.3101
  895MOL0     O18043  -2.290   9.499  11.733  0.3441  0.4416 -0.1612
  895MOL0     C18044  -2.342   9.622  11.685 -0.3861 -1.0621  0.7504
  895MOL0     C18045  -2.487   9.647  11.729 -0.2358 -0.6019  0.2102
  895MOL0     C18046  -2.518   9.629  11.878  0.0823  0.4579  1.1024
  895MOL0     C18047  -2.404   9.685  11.956 -0.0901 -0.5094 -0.1487
  895MOL0     C18048  -2.440   9.686  12.103  0.2482 -0.2646  0.5211
  895MOL0     C18049  -2.318   9.710  12.188  0.6147  0.2712  0.1297
  895MOL0     C18050  -2.336   9.685  12.338 -0.0672 -0.2175  0.2609
  895MOL0     C18051  -2.206   9.702  12.412 -0.5903 -0.1178 -0.5097
  895MOL0    Cl18052  -2.090   9.567  12.391  0.3795  0.0593  0.3532
  895MOL0     C18053  -2.103   9.353  11.685 -0.5801 -0.1040 -0.4016
  895MOL0     C18054  -1.960   9.332  11.672  0.6492  0.1217 -0.1944
  895MOL0     O18055  -1.676   9.618  11.620  0.6496  0.2495  0.1670
  895MOL0     C18056  -1.473   9.349  11.726  0.5407 -0.4508  0.0216
  895MOL0     C18057  -1.338   9.327  11.744 -0.0604 -0.7895  0.6052
  895MOL0     N18058  -0.543   9.482  11.399 -0.5692  0.2886 -0.0767
  895MOL0     N18059  -0.460   9.392  11.341  0.2840 -0.5643  0.2794
  895MOL0     C18060   0.094   8.633  10.774  0.3125  0.0600 -0.7686
  895MOL0     C18061   0.206   8.549  10.770 -0.3052  0.8173  0.4146
  895MOL0     C18062   0.408   8.115  10.718  0.2904 -0.0007 -0.3074
  895MOL0     C18063   0.400   7.975  10.694 -0.1004  0.0031  0.6627
  895MOL0     C18064   0.510   7.896  10.657  0.1072 -0.6409 -0.5612
  895MOL0     C18065   0.633   7.957  10.642  0.3837  0.4619 -0.8867
  895MOL0     O18066   0.748   7.900  10.608 -0.5814 -0.2253 -1.0280
  895MOL0     C18067   0.765   7.779  10.539  0.1224  0.4178  0.0321
  895MOL0     C18068   0.907   7.777  10.491  0.0808  0.5361 -0.2132
  895MOL0     C18069   0.965   7.636  10.521 -0.9947  0.3652  0.6420
  895MOL0     C18070   1.109   7.640  10.468  0.9732  0.7070  0.4189
  895MOL0     C18071   1.213   7.664  10.576  1.1693  0.4023 -0.4755
  895MOL0     C18072   1.289   7.691  10.664 -0.0509  0.3663 -0.1076
  895MOL0     C18073   0.644   8.090  10.685  0.0625  0.8070  0.9670
  895MOL0     C18074   0.535   8.165  10.719  0.0354  0.0310  0.0856
  895MOL0     H18075   0.065   8.277  10.621  0.1633  0.3061 -1.0996
  895MOL0     H18076  -0.126   8.441  10.597  1.1457  1.3902 -0.9772
  895MOL0     H18077  -0.239   8.832  10.705 -0.4066 -1.6907 -1.4277
  895MOL0     H18078  -0.065   8.850  10.681  0.0823 -1.2102  0.1154
  895MOL0     H18079  -0.052   8.797  10.951 -0.8357 -2.2195  0.4007
  895MOL0     H18080  -0.227   8.802  10.940  0.6461  0.2058  0.7190
  895MOL0     H18081  -0.050   9.036  10.890 -0.4569  1.0684  0.2969
  895MOL0     H18082  -0.146   9.001  11.036 -0.8157  0.5865 -0.7368
  895MOL0     H18083  -0.270   9.080  10.777 -3.4992 -0.2120  0.0641
  895MOL0     H18084  -0.346   8.983  10.898 -0.0616  0.7087  1.6368
  895MOL0     H18085  -0.398   9.230  10.913 -0.2968  1.4501  0.5309
  895MOL0     H18086  -0.232   9.271  10.919 -1.8870  1.4734 -1.4638
  895MOL0     H18087  -0.320   9.293  11.142  2.6562 -0.7222 -0.4938
  895MOL0     H18088  -0.223   9.155  11.158 -1.7710  0.1980  3.4221
  895MOL0     H18089  -0.527   9.159  11.106  0.3762  0.7339  0.4087
  895MOL0     H18090  -0.428   9.007  11.134  2.6761 -0.2254  0.8289
  895MOL0     H18091  -0.372   9.141  11.360  0.3447  2.3397 -0.8452
  895MOL0     H18092  -0.537   9.069  11.333  0.8913 -1.1093 -0.9159
  895MOL0     H18093  -0.727   9.209  11.340  1.0674 -0.2251 -1.6778
  895MOL0     H18094  -0.851   9.489  11.371 -0.5184  1.3457 -0.0389
  895MOL0     H18095  -0.763   9.603  11.466 -0.3462 -0.3358  1.4034
  895MOL0     H18096  -0.781   9.406  11.655  0.4119 -0.9434 -1.1552
  895MOL0     H18097  -0.893   9.333  11.544  1.6916 -0.8717  0.5165
  895MOL0     H18098  -0.912   9.623  11.644  0.2484  0.7230  0.2999
  895MOL0     H18099  -1.041   9.526  11.553  0.3111 -2.6136  0.3170
  895MOL0     H18100  -1.046   9.565  11.816 -0.8586 -0.8644  0.1281
  895MOL0     H18101  -0.926   9.431  11.818 -0.8915 -0.6883 -0.1246
  895MOL0     H18102  -1.215   9.648  11.731  0.6773 -0.1852  2.1944
  895MOL0     H18103  -1.459   9.677  11.667  0.3327 -0.9286 -2.7097
  895MOL0     H18104  -1.853   9.626  11.801 -1.1605  0.1911 -1.8919
  895MOL0     H18105  -2.092   9.680  11.794 -1.2178 -0.8198 -0.1022
  895MOL0     H18106  -2.328   9.614  11.577 -0.0562  0.0327  0.7008
  895MOL0     H18107  -2.284   9.708  11.721 -1.6374 -0.1935  0.7669
  895MOL0     H18108  -2.549   9.584  11.665 -0.2651  0.4703 -0.8741
  895MOL0     H18109  -2.507   9.752  11.704  0.8889 -0.8542 -1.9983
  895MOL0     H18110  -2.538   9.527  11.911 -0.6661 -0.3163 -1.4915
  895MOL0     H18111  -2.606   9.686  11.907 -0.6126  1.1565 -1.9791
  895MOL0     H18112  -2.309   9.633  11.942  1.4541  2.2411 -0.7464
  895MOL0     H18113  -2.383   9.788  11.923  0.0419  0.9001  3.7678
  895MOL0     H18114  -2.495   9.594  12.122 -0.3549 -0.1088 -0.4062
  895MOL0     H18115  -2.508   9.768  12.129 -0.9026 -1.5658  1.7630
  895MOL0     H18116  -2.298   9.818  12.185 -0.0343  0.4284  0.9065
  895MOL0     H18117  -2.243   9.647  12.140  1.0298 -0.5735  1.8001
  895MOL0     H18118  -2.424   9.741  12.372  0.1189  0.8802 -0.9834
  895MOL0     H18119  -2.358   9.578  12.339 -1.3633 -0.0189 -1.2835
  895MOL0     H18120  -2.235   9.705  12.517 -1.8975 -0.9491 -0.8200
  895MOL0     H18121  -2.158   9.799  12.394  2.5952 -1.3774  0.5069
  895MOL0     H18122  -2.158   9.266  11.651 -1.2711  0.6818 -1.3572
  895MOL0     H18123  -1.928   9.239  11.625 -1.5046 -1.2620  0.9027
  895MOL0     H18124  -1.541   9.264  11.734 -0.6147  0.5716  1.8020
  895MOL0     H18125  -1.311   9.228  11.778  0.7975  0.1239  2.7823
  895MOL0     H18126   0.105   8.724  10.834 -1.8142  0.8778 -1.5187
  895MOL0     H18127   0.307   8.571  10.803  0.8948 -1.6782 -1.2127
  895MOL0     H18128   0.307   7.920  10.710  0.9794 -1.9321  0.5966
  895MOL0     H18129   0.487   7.793  10.631 -0.5070 -0.3310 -1.2883
  895MOL0     H18130   0.687   7.761  10.463 -0.9273  3.1743  0.3596
  895MOL0     H18131   0.741   7.705  10.616 -1.1763  0.0045 -0.7346
  895MOL0     H18132   0.916   7.807  10.387  0.0364  0.6893 -0.1729
  895MOL0     H18133   0.962   7.851  10.550 -0.2276  0.5320  0.0813
  895MOL0     H18134   0.896   7.557  10.492  0.0483 -0.1791 -0.3908
  895MOL0     H18135   0.973   7.607  10.626  1.4296 -1.1779  0.0886
  895MOL0     H18136   1.133   7.547  10.416 -1.9901  0.3988 -0.5893
  895MOL0     H18137   1.118   7.719  10.392  1.9808  1.5822  1.4113
  895MOL0     H18138   1.357   7.706  10.745  0.3151  0.2985 -0.4013
  895MOL0     H18139   0.742   8.136  10.689 -0.0425  0.9601  2.7128
  895MOL0     H18140   0.559   8.270  10.723  1.5660 -0.2667 -0.4937
  896MOL0     O18141   2.555   4.583  10.859 -0.2518  0.3027 -0.6982
  896MOL0     C18142   2.543   4.526  10.966 -0.3435 -0.2494 -0.5152
  896MOL0     O18143   2.634   4.443  11.016  0.1900  0.4426 -0.7733
  896MOL0     C18144   2.760   4.422  10.965 -0.3165  0.9527 -0.1235
  896MOL0     C18145   2.843   4.521  10.912 -0.2302 -0.3762  0.7656
  896MOL0     C18146   2.973   4.495  10.877 -0.2810 -0.0700  1.3406
  896MOL0     C18147   3.018   4.365  10.866 -0.4372  0.4418 -0.2482
  896MOL0     O18148   3.148   4.329  10.834 -0.2416  0.9035 -0.1752
  896MOL0     C18149   3.258   4.416  10.835  0.0251 -0.6095  0.0392
  896MOL0     C18150   3.390   4.345  10.813 -0.3885  0.0055  0.3811
  896MOL0     C18151   3.399   4.278  10.681 -1.2843 -0.6709  0.1254
  896MOL0     C18152   3.305   4.153  10.681 -0.2096 -0.4219 -0.3964
  896MOL0     C18153   3.360   4.023  10.601  0.2695 -0.5364 -0.4112
  896MOL0     C18154   3.388   4.057  10.451 -0.5034  0.4088  0.3373
  896MOL0     C18155   3.444   3.941  10.366 -0.7492  0.2777  0.1912
  896MOL0     C18156   3.444   3.963  10.213  0.7060  0.9626  0.1927
  896MOL0     N18157   3.306   3.995  10.159 -0.1849  1.2138 -0.7057
  896MOL0     C18158   3.180   3.965  10.220 -0.5658  0.8600  0.2109
  896MOL0     C18159   3.093   4.012  10.130  0.0589 -1.5948  0.3986
  896MOL0     C18160   2.949   4.027  10.121  0.3320 -0.5074 -0.8547
  896MOL0     C18161   2.874   4.025  10.253  0.3256  0.4713  0.3903
  896MOL0     C18162   2.744   4.101  10.216  0.4036  0.5480 -0.0569
  896MOL0     C18163   2.634   4.112  10.329  0.4657 -0.0302  0.4003
  896MOL0     O18164   2.509   4.145  10.264 -0.3583  0.0316 -0.5351
  896MOL0     C18165   2.385   4.122  10.311  0.2108  0.7850 -0.1944
  896MOL0     C18166   2.273   4.114  10.216  1.0572  0.1302 -1.0227
  896MOL0     C18167   2.146   4.074  10.269 -0.5875 -0.4337 -0.2774
  896MOL0     C18168   2.122   4.053  10.407 -0.3227 -0.1250  0.4829
  896MOL0     C18169   1.985   4.035  10.462  0.4058 -0.0458  0.4136
  896MOL0     O18170   1.879   4.069  10.378 -0.0953  0.5622  0.7295
  896MOL0     C18171   1.747   4.041  10.409 -0.2563  0.0016 -0.5722
  896MOL0     C18172   1.703   3.910  10.452 -0.9364 -1.1396  0.2637
  896MOL0     C18173   1.564   3.895  10.483 -0.8494 -0.4810 -0.3365
  896MOL0     C18174   1.471   4.003  10.470  1.2215 -0.5445 -0.0548
  896MOL0     O18175   1.333   3.991  10.476 -0.7535 -0.9783  0.3284
  896MOL0     C18176   1.260   3.864  10.475 -0.0239  0.0524  0.3096
  896MOL0     C18177   1.114   3.880  10.433  1.0182  0.2417  0.5901
  896MOL0     C18178   1.090   3.931  10.292 -0.3274 -0.2532  0.4039
  896MOL0     C18179   0.950   3.981  10.259 -0.3704 -0.1055 -0.1536
  896MOL0     C18180   0.834   3.895  10.308  0.0194 -0.6884  1.1049
  896MOL0     C18181   0.702   3.933  10.242 -0.5231  0.5580 -0.1027
  896MOL0     C18182   0.583   3.853  10.308  0.9717 -0.3308  0.1068
  896MOL0     C18183   0.454   3.906  10.230 -0.1087 -0.3352 -0.2978
  896MOL0    Cl18184   0.310   3.836  10.316  0.3942 -0.5713 -0.2402
  896MOL0     C18185   1.516   4.123  10.418 -0.2590  0.6258 -0.2163
  896MOL0     C18186   1.651   4.142  10.382  0.2152 -0.2712 -0.2896
  896MOL0     O18187   1.974   3.990  10.573 -0.2338 -0.2601 -0.1055
  896MOL0     C18188   2.231   4.063  10.494  0.0310 -0.5637 -0.0707
  896MOL0     C18189   2.363   4.100  10.447  0.0644 -0.5262 -0.3402
  896MOL0     N18190   3.158   4.070  10.020  1.0003  0.3373  0.2812
  896MOL0     N18191   3.277   4.041  10.035  0.2506  0.2043  1.0883
  896MOL0     C18192   2.940   4.260  10.923 -0.0326  0.4426  0.1464
  896MOL0     C18193   2.809   4.289  10.965  0.3619 -0.1538 -0.1406
  896MOL0     C18194   2.418   4.556  11.044  0.2422 -0.1196 -0.3305
  896MOL0     C18195   2.310   4.645  11.000 -0.1107  0.4184 -0.1662
  896MOL0     C18196   2.208   4.672  11.087  0.6884 -0.2203  0.1446
  896MOL0     C18197   2.197   4.605  11.207  0.0149  0.5971  0.0355
  896MOL0     O18198   2.079   4.622  11.280 -0.3869  0.0845  0.4518
  896MOL0     C18199   2.003   4.500  11.286 -0.2716 -0.0181 -0.0763
  896MOL0     C18200   1.874   4.513  11.361  0.7414 -0.9267 -0.4150
  896MOL0     C18201   1.789   4.630  11.303  0.0087 -1.9442  0.6630
  896MOL0     C18202   1.648   4.633  11.380  0.7026 -0.8347 -0.0226
  896MOL0     C18203   1.539   4.672  11.295  0.1098  0.4138  0.9678
  896MOL0     C18204   1.449   4.679  11.217 -0.5869 -0.7231 -0.2742
  896MOL0     C18205   2.302   4.532  11.256 -0.0815 -0.1121 -0.1119
  896MOL0     C18206   2.404   4.496  11.169  0.2012  0.2631  0.0373
  896MOL0     H18207   2.809   4.624  10.912 -2.4877 -1.0539  0.6358
  896MOL0     H18208   3.040   4.575  10.847  0.2027 -1.0637 -0.3860
  896MOL0     H18209   3.266   4.462  10.934 -2.4732  1.4069 -0.6000
  896MOL0     H18210   3.238   4.495  10.762 -3.0668 -0.2593  1.1563
  896MOL0     H18211   3.406   4.269  10.891  0.8863  0.0858  0.2269
  896MOL0     H18212   3.476   4.410  10.832 -1.1204  0.7448  1.1792
  896MOL0     H18213   3.502   4.240  10.671 -1.0913 -0.9392  2.5381
  896MOL0     H18214   3.367   4.344  10.600 -1.2678 -2.7742 -1.6808
  896MOL0     H18215   3.289   4.124  10.786 -1.4842 -1.5902 -0.8756
  896MOL0     H18216   3.209   4.180  10.637  0.8286  0.4718 -2.1831
  896MOL0     H18217   3.288   3.940  10.605 -3.2361  2.2272 -0.6097
  896MOL0     H18218   3.453   3.989  10.645 -0.5765 -0.6784  1.3343
  896MOL0     H18219   3.463   4.135  10.441 -0.7266  0.8077  1.6012
  896MOL0     H18220   3.301   4.106  10.405  0.1450  2.2256  0.9739
  896MOL0     H18221   3.550   3.933  10.392 -0.6714  0.8803  0.0790
  896MOL0     H18222   3.389   3.852  10.399 -1.1631  1.0213  1.6180
  896MOL0     H18223   3.478   3.870  10.166 -0.0143  1.2857 -0.9958
  896MOL0     H18224   3.524   4.034  10.189  1.5859 -0.0503  0.0522
  896MOL0     H18225   3.164   3.928  10.321 -0.3303 -1.9494 -0.6934
  896MOL0     H18226   2.909   3.939  10.070 -0.6120 -1.9156  2.1017
  896MOL0     H18227   2.932   4.116  10.059  0.5396 -0.7310 -1.2417
  896MOL0     H18228   2.933   4.075  10.330  1.1114  2.9238 -1.6269
  896MOL0     H18229   2.852   3.929  10.300 -0.7185  0.6061  0.2143
  896MOL0     H18230   2.761   4.203  10.180  1.1261 -0.0061 -1.4056
  896MOL0     H18231   2.696   4.044  10.136  1.1229 -0.3194  0.1103
  896MOL0     H18232   2.661   4.187  10.404  1.4896 -0.1377  0.1463
  896MOL0     H18233   2.635   4.017  10.383 -2.0275 -0.1519  0.3560
  896MOL0     H18234   2.285   4.155  10.117  0.0996 -0.3323 -1.3384
  896MOL0     H18235   2.066   4.069  10.196 -0.6999 -2.4849 -0.0757
  896MOL0     H18236   1.780   3.835  10.470  0.5186 -0.1115 -1.3861
  896MOL0     H18237   1.529   3.806  10.534  0.2972 -0.6986  0.1044
  896MOL0     H18238   1.267   3.820  10.575  1.7315 -1.1340 -0.3012
  896MOL0     H18239   1.304   3.793  10.404 -0.7954  1.7918 -2.0502
  896MOL0     H18240   1.061   3.949  10.498 -0.3793  0.5454 -0.8014
  896MOL0     H18241   1.066   3.781  10.438 -0.0802  0.7906  1.2445
  896MOL0     H18242   1.116   3.849  10.224  0.2043 -1.1927  1.7018
  896MOL0     H18243   1.169   4.006  10.278  0.0506 -0.7082  0.0457
  896MOL0     H18244   0.935   4.074  10.314  1.3239 -1.1734  2.3160
  896MOL0     H18245   0.949   3.987  10.149  4.8245 -2.3720 -0.6603
  896MOL0     H18246   0.826   3.911  10.415 -2.2547 -1.6099  1.1253
  896MOL0     H18247   0.854   3.790  10.283  2.8087  0.3053 -1.4547
  896MOL0     H18248   0.707   3.911  10.135 -3.2138 -1.0155 -0.0083
  896MOL0     H18249   0.685   4.038  10.266  3.7643  1.7345 -1.4371
  896MOL0     H18250   0.586   3.744  10.316  0.7704 -0.2604  1.2802
  896MOL0     H18251   0.569   3.893  10.409 -0.8170  1.9915 -0.9781
  896MOL0     H18252   0.468   3.866  10.129  2.2835 -3.1969  1.0044
  896MOL0     H18253   0.442   4.014  10.234 -2.0529 -0.5468  0.6737
  896MOL0     H18254   1.456   4.207  10.385  2.2283  1.7007 -2.3507
  896MOL0     H18255   1.684   4.232  10.332  1.6289 -1.6000 -1.8660
  896MOL0     H18256   2.210   4.060  10.601  0.6317  3.0340  0.2773
  896MOL0     H18257   2.440   4.116  10.521 -1.2725 -0.4261  1.0812
  896MOL0     H18258   2.980   4.159  10.920 -2.3231 -0.4979 -1.1390
  896MOL0     H18259   2.737   4.214  10.997  0.5343 -0.1982  0.1444
  896MOL0     H18260   2.317   4.692  10.903  0.1374 -0.9794 -0.8484
  896MOL0     H18261   2.137   4.745  11.051  1.2470  1.1687  1.7130
  896MOL0     H18262   2.061   4.422  11.337 -1.6700 -0.0748  1.5099
  896MOL0     H18263   1.984   4.487  11.179 -0.4775  1.5151 -0.2480
  896MOL0     H18264   1.826   4.416  11.351  0.7000 -0.8663 -0.8158
  896MOL0     H18265   1.890   4.523  11.469 -2.5630 -2.2256  0.2961
  896MOL0     H18266   1.783   4.634  11.194 -2.6616  1.0421  0.7885
  896MOL0     H18267   1.845   4.719  11.333  1.6298 -1.6856 -2.6745
  896MOL0     H18268   1.618   4.536  11.421 -0.1960 -1.1936 -1.4370
  896MOL0     H18269   1.652   4.710  11.458  0.4682  0.0801 -0.8903
  896MOL0     H18270   1.377   4.675  11.138 -0.6677 -0.1282 -0.2341
  896MOL0     H18271   2.280   4.498  11.357 -1.6236  1.3186  0.0837
  896MOL0     H18272   2.483   4.433  11.208 -0.9343 -0.1247  1.8113
  897MOL0     O18273   5.373   4.394  10.533  0.7605 -0.2978 -0.3195
  897MOL0     C18274   5.457   4.491  10.534  0.8934  0.6244  0.5321
  897MOL0     O18275   5.433   4.622  10.566  0.8346  0.3781 -0.7561
  897MOL0     C18276   5.301   4.649  10.606  0.2924 -0.7417  0.1436
  897MOL0     C18277   5.273   4.647  10.741  0.4991 -0.9657 -0.3742
  897MOL0     C18278   5.143   4.676  10.784  0.1674  0.3899 -0.5356
  897MOL0     C18279   5.043   4.718  10.687  0.4660 -0.2349  0.3061
  897MOL0     O18280   4.906   4.740  10.712 -0.6264 -0.1663 -0.0518
  897MOL0     C18281   4.864   4.725  10.849  0.3165 -0.0196 -0.3025
  897MOL0     C18282   4.718   4.773  10.880 -0.6113  0.4633 -0.9162
  897MOL0     C18283   4.679   4.745  11.032 -0.0229  0.7606  0.2194
  897MOL0     C18284   4.539   4.790  11.066 -0.0105 -0.3835 -0.2841
  897MOL0     C18285   4.444   4.701  10.992  0.4007  0.2765  0.1501
  897MOL0     C18286   4.296   4.723  11.023 -0.1290 -0.4187  0.5461
  897MOL0     C18287   4.243   4.854  11.074 -0.0987  0.0854  0.3673
  897MOL0     C18288   4.089   4.867  11.060 -0.3301 -0.0441 -0.5021
  897MOL0     N18289   4.042   4.971  10.976  0.9527 -0.0211  0.4684
  897MOL0     C18290   3.980   5.088  11.010 -0.3406 -0.3700 -0.3277
  897MOL0     C18291   3.957   5.164  10.896 -0.6639  0.6090 -0.1687
  897MOL0     C18292   3.914   5.302  10.889  0.8102  1.4583  0.2689
  897MOL0     C18293   4.025   5.396  10.847 -0.0312  0.1026  0.5059
  897MOL0     C18294   3.987   5.545  10.858 -0.2284 -0.8081  0.0810
  897MOL0     C18295   3.854   5.579  10.802 -0.9269 -0.1466 -0.5876
  897MOL0     O18296   3.839   5.553  10.665  0.7228  0.1162 -0.2988
  897MOL0     C18297   3.727   5.601  10.605  0.8370  0.9544 -0.7820
  897MOL0     C18298   3.719   5.579  10.471  0.0784 -0.1121 -0.0139
  897MOL0     C18299   3.604   5.624  10.397  0.7654  0.3418  1.2901
  897MOL0     C18300   3.493   5.689  10.472 -0.1191  0.3519  1.1197
  897MOL0     C18301   3.372   5.730  10.395 -0.2747 -0.5670  0.2229
  897MOL0     O18302   3.353   5.679  10.266  0.0172 -0.7451  0.4058
  897MOL0     C18303   3.246   5.733  10.191 -0.5753  0.1271  0.2071
  897MOL0     C18304   3.119   5.682  10.217  0.8267  0.3459  0.4593
  897MOL0     C18305   3.004   5.738  10.155  0.3018  0.4622 -0.3556
  897MOL0     C18306   3.021   5.845  10.065 -0.3186  0.6556  0.7518
  897MOL0     O18307   2.912   5.905  10.016  0.3679 -1.1890 -0.2715
  897MOL0     C18308   2.818   5.834   9.930  1.5512  0.3328 -0.9178
  897MOL0     C18309   2.668   5.846   9.973  0.2445  0.5549 -0.1188
  897MOL0     C18310   2.587   5.751   9.892  0.9397  0.2326  0.0266
  897MOL0     C18311   2.437   5.779   9.879  0.2079  1.0576 -0.1773
  897MOL0     C18312   2.362   5.661   9.852  0.8553  1.0580  0.6824
  897MOL0     C18313   2.220   5.699   9.793  0.7433 -0.3193  0.1964
  897MOL0     C18314   2.157   5.563   9.765  0.2665 -0.0481 -0.0896
  897MOL0     C18315   2.013   5.578   9.741 -0.8333  0.0901  0.6109
  897MOL0    Cl18316   1.942   5.422   9.681 -0.0088  0.3762 -0.0569
  897MOL0     C18317   3.151   5.889  10.037  0.1093 -0.1099  0.8736
  897MOL0     C18318   3.264   5.829  10.090 -0.0450 -0.1215 -0.7352
  897MOL0     O18319   3.293   5.804  10.453 -0.1763 -0.0375  0.4112
  897MOL0     C18320   3.510   5.701  10.610  0.3013 -0.1517  0.5106
  897MOL0     C18321   3.630   5.670  10.672 -0.1074 -0.0797 -0.5714
  897MOL0     N18322   3.991   5.076  10.793  0.0658  0.0369  0.4658
  897MOL0     N18323   4.034   4.966  10.843  0.3818  0.2842  0.2702
  897MOL0     C18324   5.078   4.728  10.554  0.9441 -0.4742  0.7098
  897MOL0     C18325   5.206   4.697  10.511  0.2790  0.6819  0.7582
  897MOL0     C18326   5.602   4.463  10.493  0.8000 -0.2259 -0.2096
  897MOL0     C18327   5.637   4.357  10.407 -0.1070  0.0687 -0.7207
  897MOL0     C18328   5.775   4.340  10.364 -0.5585 -0.4215 -0.1762
  897MOL0     C18329   5.877   4.431  10.419  0.8570  0.4675  0.8178
  897MOL0     O18330   6.009   4.399  10.402 -1.2304 -0.1111 -0.0957
  897MOL0     C18331   6.118   4.479  10.459 -0.3426 -0.0319  0.7180
  897MOL0     C18332   6.265   4.425  10.417  0.2566  0.1886 -0.4399
  897MOL0     C18333   6.293   4.427  10.269  0.2411 -0.9442  0.1784
  897MOL0     C18334   6.445   4.423  10.236 -0.2057  0.4083 -0.4514
  897MOL0     C18335   6.535   4.509  10.309  0.0371 -0.5308  0.5254
  897MOL0     C18336   6.617   4.581  10.367  0.6150  0.5364 -0.5607
  897MOL0     C18337   5.834   4.530  10.497 -0.0904 -0.1776  0.4345
  897MOL0     C18338   5.698   4.553  10.530  0.0643  0.1503  0.1499
  897MOL0     H18339   5.359   4.636  10.806 -0.2150 -0.4724  0.6782
  897MOL0     H18340   5.121   4.662  10.889 -1.0944 -2.8163 -1.1026
  897MOL0     H18341   4.927   4.783  10.917 -0.3482  0.1781  0.1502
  897MOL0     H18342   4.881   4.620  10.873 -5.5312 -1.6691 -1.7793
  897MOL0     H18343   4.658   4.716  10.809  1.7352 -1.8800 -1.1843
  897MOL0     H18344   4.707   4.876  10.845 -0.0982  0.8007 -0.0980
  897MOL0     H18345   4.752   4.805  11.087  1.8944  1.6487 -2.9963
  897MOL0     H18346   4.688   4.640  11.062 -0.2482  1.3516  2.5383
  897MOL0     H18347   4.522   4.783  11.174 -1.1536  2.2347 -0.2069
  897MOL0     H18348   4.527   4.896  11.041 -0.3747 -0.7883 -1.9454
  897MOL0     H18349   4.459   4.593  11.006 -1.5978 -0.5813 -3.1536
  897MOL0     H18350   4.469   4.721  10.887  0.5743 -0.2016  0.0996
  897MOL0     H18351   4.276   4.654  11.105  0.5606  1.5884  2.5248
  897MOL0     H18352   4.229   4.696  10.941 -0.4312 -2.8585  1.5394
  897MOL0     H18353   4.261   4.877  11.179 -2.0132 -0.0279  0.7489
  897MOL0     H18354   4.291   4.927  11.007 -0.5459  0.3600  0.3420
  897MOL0     H18355   4.034   4.876  11.154 -2.2885 -0.4759 -1.5450
  897MOL0     H18356   4.044   4.781  11.008 -2.2135 -0.3246  1.4650
  897MOL0     H18357   3.957   5.128  11.108  1.2936  1.9833 -0.7961
  897MOL0     H18358   3.873   5.342  10.982 -0.6008  2.1453 -0.6233
  897MOL0     H18359   3.844   5.295  10.805  0.2024  0.1039  0.8553
  897MOL0     H18360   4.060   5.370  10.747 -0.3320 -4.1768  1.3330
  897MOL0     H18361   4.114   5.375  10.907 -0.2815 -0.8328  0.5677
  897MOL0     H18362   4.001   5.575  10.963 -0.3893  0.5168 -0.2599
  897MOL0     H18363   4.067   5.609  10.819 -0.5933 -0.2231  0.2800
  897MOL0     H18364   3.835   5.686  10.819 -1.5153 -0.0496 -1.7365
  897MOL0     H18365   3.777   5.524  10.857 -1.4481  1.8975  0.8771
  897MOL0     H18366   3.797   5.523  10.421  2.1713  0.8469  1.9980
  897MOL0     H18367   3.594   5.596  10.293  1.7998 -0.7746  1.4764
  897MOL0     H18368   3.099   5.608  10.294  0.5862  2.0858  2.1465
  897MOL0     H18369   2.909   5.690  10.178 -0.0205  0.5362 -1.4660
  897MOL0     H18370   2.838   5.726   9.936  0.8848  0.2900  1.2544
  897MOL0     H18371   2.828   5.878   9.830 -0.7988  0.7293 -1.0432
  897MOL0     H18372   2.624   5.945   9.961  0.2778  0.4425 -1.2648
  897MOL0     H18373   2.664   5.820  10.079  2.2706  1.1964  0.1732
  897MOL0     H18374   2.614   5.652   9.929  1.8976 -1.0294 -3.6416
  897MOL0     H18375   2.612   5.740   9.786 -1.9215 -1.2070 -0.6187
  897MOL0     H18376   2.405   5.805   9.980  2.6671 -2.1618  1.6363
  897MOL0     H18377   2.407   5.849   9.800  0.8973  0.6517 -0.8077
  897MOL0     H18378   2.348   5.593   9.936 -0.9308  1.5459  0.8312
  897MOL0     H18379   2.406   5.606   9.768 -1.6784 -2.1875  1.2905
  897MOL0     H18380   2.233   5.762   9.704 -1.6429  2.1178  1.4401
  897MOL0     H18381   2.154   5.748   9.865 -2.7783 -3.0396 -0.8829
  897MOL0     H18382   2.207   5.542   9.670  0.4040 -1.5039  0.2814
  897MOL0     H18383   2.186   5.481   9.831  0.7701 -0.6360 -1.0130
  897MOL0     H18384   1.999   5.664   9.675  2.5278  0.5812  0.3871
  897MOL0     H18385   1.958   5.603   9.833 -2.0227  0.2198 -0.1152
  897MOL0     H18386   3.158   5.970   9.965 -1.9906  0.4191  1.1820
  897MOL0     H18387   3.354   5.867  10.042  0.1369  0.3811 -0.0036
  897MOL0     H18388   3.427   5.751  10.659  1.7846  1.5763  1.3876
  897MOL0     H18389   3.640   5.689  10.778 -0.8199 -2.2670 -0.0591
  897MOL0     H18390   5.006   4.756  10.478  3.2451  0.0595 -1.4144
  897MOL0     H18391   5.231   4.701  10.405 -0.4984 -1.2558  0.4547
  897MOL0     H18392   5.565   4.285  10.368  1.0291 -0.6366 -1.5835
  897MOL0     H18393   5.804   4.253  10.305  2.2640 -0.5558  1.2229
  897MOL0     H18394   6.105   4.468  10.567  0.5936 -0.7427  0.7656
  897MOL0     H18395   6.103   4.584  10.431  3.2837  0.0389 -1.7057
  897MOL0     H18396   6.333   4.497  10.465 -0.1914  1.0443 -1.0714
  897MOL0     H18397   6.273   4.319  10.443 -5.2637 -0.1756  0.8803
  897MOL0     H18398   6.262   4.526  10.235  2.8034 -1.0838 -3.0722
  897MOL0     H18399   6.227   4.359  10.215  0.0644 -0.5903 -0.0554
  897MOL0     H18400   6.482   4.321  10.244 -0.9429  0.0809 -1.0636
  897MOL0     H18401   6.452   4.456  10.132  4.7189  2.2897  0.2124
  897MOL0     H18402   6.685   4.642  10.423 -0.4355 -1.3866  3.1894
  897MOL0     H18403   5.901   4.603  10.541  2.8897 -1.3824 -1.8016
  897MOL0     H18404   5.669   4.635  10.595 -3.0136  0.6052 -1.5982
  898MOL0     O18405   2.800  10.005   9.679 -0.1683  0.1535  0.4589
  898MOL0     C18406   2.849  10.036   9.568 -0.8366 -0.3189 -0.3182
  898MOL0     O18407   2.793  10.067   9.457 -0.3301  0.0971 -0.0155
  898MOL0     C18408   2.654  10.065   9.437 -0.8107 -0.4494  0.1544
  898MOL0     C18409   2.548  10.022   9.520 -0.1613  0.1047  0.0428
  898MOL0     C18410   2.413  10.039   9.482 -0.6574 -0.4218  0.0526
  898MOL0     C18411   2.388  10.099   9.357  0.5251  0.4612  0.8364
  898MOL0     O18412   2.263  10.122   9.310  0.0275 -0.0444  0.3260
  898MOL0     C18413   2.148  10.112   9.394 -0.3283  0.1176  0.2683
  898MOL0     C18414   2.075   9.980   9.389 -0.7629  0.0034 -0.3274
  898MOL0     C18415   2.038   9.943   9.246 -0.0401 -0.3659  0.2890
  898MOL0     C18416   1.931   9.838   9.266  0.2198 -0.1497  0.0606
  898MOL0     C18417   1.903   9.775   9.133  0.6927  0.3203  0.4813
  898MOL0     C18418   1.824   9.640   9.155  0.4627  0.1858 -0.4431
  898MOL0     C18419   1.696   9.649   9.242 -0.2200 -0.0600  1.1669
  898MOL0     C18420   1.601   9.770   9.206  1.2760  0.1777 -0.7023
  898MOL0     N18421   1.462   9.731   9.222  0.7394  0.4312  0.0278
  898MOL0     C18422   1.399   9.636   9.152 -0.1777  0.2620 -0.5449
  898MOL0     C18423   1.270   9.628   9.190  0.7973 -0.3289 -0.0779
  898MOL0     C18424   1.177   9.541   9.120  0.2426  0.0044  0.5388
  898MOL0     C18425   1.135   9.426   9.214 -0.8398 -0.7642  0.4908
  898MOL0     C18426   1.041   9.332   9.136  0.5757  0.3672 -0.5664
  898MOL0     C18427   0.960   9.248   9.234  0.4102 -0.3955  0.0960
  898MOL0     O18428   0.835   9.319   9.274 -0.6198 -0.5514 -0.1800
  898MOL0     C18429   0.753   9.247   9.352  0.1480 -0.5619 -0.2157
  898MOL0     C18430   0.616   9.256   9.346 -0.7005 -0.0114 -0.5923
  898MOL0     C18431   0.526   9.178   9.406 -1.0133 -0.3639  0.2843
  898MOL0     C18432   0.576   9.075   9.495 -0.3180  0.1234 -0.6432
  898MOL0     C18433   0.479   8.978   9.550  0.8987 -0.7704 -1.0877
  898MOL0     O18434   0.513   8.844   9.576  0.0513  0.3132  0.5496
  898MOL0     C18435   0.441   8.757   9.655 -0.7095  0.1410  0.5350
  898MOL0     C18436   0.475   8.621   9.653  0.1246  0.2899 -0.1375
  898MOL0     C18437   0.419   8.528   9.734  0.3888 -0.7916  0.3774
  898MOL0     C18438   0.320   8.558   9.819  0.7853 -0.6528 -0.1778
  898MOL0     O18439   0.257   8.464   9.900 -0.0317  0.0555  0.0201
  898MOL0     C18440   0.207   8.505  10.028 -0.0174 -0.1310  0.5375
  898MOL0     C18441   0.171   8.393  10.118  0.1045 -0.3678  0.3114
  898MOL0     C18442   0.293   8.298  10.149 -0.1198 -0.4917  0.4436
  898MOL0     C18443   0.257   8.203  10.264  0.2925  0.0675 -0.3763
  898MOL0     C18444   0.352   8.081  10.273  0.8559 -0.0059 -0.6755
  898MOL0     C18445   0.503   8.123  10.286  0.9776 -0.0879  0.2396
  898MOL0     C18446   0.601   8.003  10.286  0.0838  0.0792 -0.6891
  898MOL0     C18447   0.744   8.045  10.259 -0.9396 -0.0475 -0.8644
  898MOL0    Cl18448   0.791   8.137  10.409  0.8989 -0.1763 -0.3926
  898MOL0     C18449   0.267   8.691   9.816  0.0845  0.4604 -0.1953
  898MOL0     C18450   0.338   8.792   9.741 -0.4205 -0.0341  0.0717
  898MOL0     O18451   0.362   9.029   9.560 -0.2850 -0.4320  0.1665
  898MOL0     C18452   0.711   9.057   9.517 -0.6192 -0.8901  0.4632
  898MOL0     C18453   0.799   9.138   9.436  0.2863  0.6637 -1.0045
  898MOL0     N18454   1.247   9.727   9.297 -0.0339 -0.1379  0.2603
  898MOL0     N18455   1.366   9.783   9.309 -0.2453  0.2566 -1.1163
  898MOL0     C18456   2.490  10.131   9.268 -1.1825 -0.1244  0.5078
  898MOL0     C18457   2.623  10.112   9.306  0.4297  0.5424  0.4800
  898MOL0     C18458   2.987  10.025   9.565 -0.8127 -0.7795  0.0238
  898MOL0     C18459   3.057   9.963   9.452  0.1497 -0.1850 -0.0511
  898MOL0     C18460   3.193   9.962   9.450 -0.1439  0.8305  0.0017
  898MOL0     C18461   3.276  10.014   9.551  0.6136 -0.7949 -0.0879
  898MOL0     O18462   3.414   9.998   9.551 -0.6663  0.1934 -0.0805
  898MOL0     C18463   3.485  10.122   9.558  0.0404  0.4895  0.0213
  898MOL0     C18464   3.626  10.083   9.579 -0.1913 -0.6076  0.1804
  898MOL0     C18465   3.715  10.200   9.609 -0.4802  0.7784 -0.2525
  898MOL0     C18466   3.700  10.249   9.759 -0.4037 -0.0608 -0.2389
  898MOL0     C18467   3.733  10.140   9.857  0.0856  0.2208 -0.1554
  898MOL0     C18468   3.758  10.046   9.929  0.6219  0.0402  0.3857
  898MOL0     C18469   3.215  10.081   9.648 -0.2328 -0.1434  0.4243
  898MOL0     C18470   3.074  10.080   9.665  0.2934 -1.5555 -0.4225
  898MOL0     H18471   2.560   9.976   9.618  0.3909 -0.8325 -0.4604
  898MOL0     H18472   2.332  10.009   9.547  0.9349  1.7996  3.3561
  898MOL0     H18473   2.077  10.187   9.358  1.5962  1.9595  0.0976
  898MOL0     H18474   2.171  10.133   9.499 -0.7541 -1.9421  0.8125
  898MOL0     H18475   1.990   9.975   9.458  0.5935 -2.2353  1.3530
  898MOL0     H18476   2.145   9.909   9.434 -0.7598  0.7568  0.9109
  898MOL0     H18477   2.136   9.916   9.204  0.8654 -1.9240  3.1026
  898MOL0     H18478   2.007  10.039   9.205  1.7480  1.0423  2.0508
  898MOL0     H18479   1.973   9.755   9.326  1.9928  1.5489  1.2950
  898MOL0     H18480   1.839   9.871   9.315 -0.2213 -1.2718  0.0162
  898MOL0     H18481   1.996   9.756   9.078  1.6920 -3.5959  3.1384
  898MOL0     H18482   1.845   9.844   9.070  1.7350  0.1910 -0.6454
  898MOL0     H18483   1.896   9.564   9.188  0.8521 -0.5486 -2.7874
  898MOL0     H18484   1.786   9.618   9.055  0.3717  0.8706 -0.5670
  898MOL0     H18485   1.642   9.556   9.224 -1.4688  0.7755  0.3846
  898MOL0     H18486   1.716   9.653   9.350 -1.2822  0.7316  1.3548
  898MOL0     H18487   1.624   9.796   9.102  2.7530  0.5638 -0.3005
  898MOL0     H18488   1.614   9.857   9.272 -0.6040  0.3289 -0.4687
  898MOL0     H18489   1.455   9.584   9.075 -0.2801  1.5626 -1.5364
  898MOL0     H18490   1.229   9.504   9.031  0.4740 -1.0780  1.1077
  898MOL0     H18491   1.084   9.586   9.084 -0.2639 -1.2617  0.2152
  898MOL0     H18492   1.084   9.471   9.300  2.9008  1.8952  1.5770
  898MOL0     H18493   1.223   9.371   9.251 -0.1172  0.2820  0.3607
  898MOL0     H18494   0.969   9.380   9.069 -0.8074  2.5593  2.2913
  898MOL0     H18495   1.101   9.257   9.082 -0.9146  0.5278 -2.6077
  898MOL0     H18496   1.027   9.233   9.319  1.5952  0.6151 -0.6343
  898MOL0     H18497   0.935   9.152   9.188  0.5903  0.2919 -1.4648
  898MOL0     H18498   0.584   9.334   9.277  4.1326  1.0375 -2.0566
  898MOL0     H18499   0.423   9.202   9.381 -0.9405  0.5614  0.8411
  898MOL0     H18500   0.556   8.581   9.591  0.0626 -1.3897  0.8020
  898MOL0     H18501   0.454   8.425   9.737  0.0237 -0.9412 -0.4000
  898MOL0     H18502   0.117   8.564  10.009 -0.1712 -0.6940 -0.5345
  898MOL0     H18503   0.279   8.569  10.081  1.3352 -1.1694  0.0216
  898MOL0     H18504   0.093   8.332  10.071 -0.3962  0.9245 -0.6028
  898MOL0     H18505   0.125   8.438  10.207 -0.4970  1.5665 -0.8942
  898MOL0     H18506   0.373   8.363  10.184 -0.6961  2.3405 -2.9357
  898MOL0     H18507   0.323   8.249  10.056  0.4673  0.1102  0.3063
  898MOL0     H18508   0.243   8.255  10.359  3.2665  0.5878 -0.1366
  898MOL0     H18509   0.158   8.159  10.246 -0.0787 -0.0010  1.5856
  898MOL0     H18510   0.337   8.007  10.194 -0.3097  0.0527 -0.5290
  898MOL0     H18511   0.331   8.020  10.362  3.1085  0.1117 -0.0124
  898MOL0     H18512   0.513   8.190  10.372  0.1568 -0.2828  0.5003
  898MOL0     H18513   0.531   8.192  10.206 -2.7324 -0.1300 -1.2707
  898MOL0     H18514   0.589   7.946  10.379  1.4266  0.2554 -0.3969
  898MOL0     H18515   0.584   7.945  10.195  3.5953  1.7657 -2.6061
  898MOL0     H18516   0.758   8.117  10.177  3.4634  1.7687  1.1253
  898MOL0     H18517   0.814   7.961  10.252  1.3833  1.8830 -3.3368
  898MOL0     H18518   0.189   8.711   9.888  0.8782 -2.2906  1.5686
  898MOL0     H18519   0.298   8.893   9.745  1.6508  1.0521 -2.6659
  898MOL0     H18520   0.747   8.978   9.582  3.2094  2.0952  2.3625
  898MOL0     H18521   0.906   9.127   9.442  0.2125  0.1398 -0.5437
  898MOL0     H18522   2.467  10.169   9.169 -0.7692  0.2617  0.5579
  898MOL0     H18523   2.701  10.125   9.232  2.9695 -0.1157  2.8524
  898MOL0     H18524   2.997   9.920   9.373  1.6489  1.2734 -2.0862
  898MOL0     H18525   3.237   9.903   9.371 -4.0718 -1.4393 -0.7772
  898MOL0     H18526   3.444  10.166   9.650 -1.5309  1.1147 -0.9179
  898MOL0     H18527   3.477  10.190   9.473  0.9631 -0.8456 -1.1652
  898MOL0     H18528   3.633  10.018   9.667 -2.1123  1.8135  2.3032
  898MOL0     H18529   3.657  10.020   9.495  0.8940  0.6059 -0.3790
  898MOL0     H18530   3.691  10.282   9.541 -0.4072  1.2320  0.2644
  898MOL0     H18531   3.823  10.182   9.595 -0.5194  1.0747 -0.9820
  898MOL0     H18532   3.774  10.329   9.761  0.9203 -1.1972 -1.5759
  898MOL0     H18533   3.601  10.289   9.781 -0.4677 -0.6960  0.6668
  898MOL0     H18534   3.794   9.976  10.002  1.7120  0.6111  0.4316
  898MOL0     H18535   3.276  10.121   9.729  1.1277  0.8275 -1.0301
  898MOL0     H18536   3.038  10.133   9.753  2.3685  2.1526 -1.5640
  899MOL0     O18537   7.952   1.879   8.484  0.5879  0.0903 -0.5305
  899MOL0     C18538   7.930   1.811   8.386  0.3406  1.2383 -0.4676
  899MOL0     O18539   8.030   1.773   8.306 -0.1239 -0.0349  0.2275
  899MOL0     C18540   8.155   1.830   8.327  0.1006  0.8851  0.0966
  899MOL0     C18541   8.206   1.936   8.246  0.7388 -0.5770 -0.2315
  899MOL0     C18542   8.343   1.976   8.250  0.1995  0.2081 -0.4520
  899MOL0     C18543   8.426   1.915   8.340  1.1506  1.4155 -1.2879
  899MOL0     O18544   8.557   1.944   8.355 -0.1242  0.0777 -0.0007
  899MOL0     C18545   8.619   2.051   8.291 -0.0688  0.3162 -0.3439
  899MOL0     C18546   8.757   2.073   8.357 -0.5752  0.5891  0.6727
  899MOL0     C18547   8.839   2.198   8.301 -0.4668  0.6573  0.7927
  899MOL0     C18548   8.984   2.200   8.353 -0.4860 -0.5067 -0.0456
  899MOL0     C18549   9.065   2.303   8.277 -0.2763 -0.2985 -0.4204
  899MOL0     C18550   9.202   2.336   8.341 -0.5722 -0.0350  0.4108
  899MOL0     C18551   9.311   2.228   8.350  0.3870  0.4909  0.5748
  899MOL0     C18552   9.444   2.268   8.278  0.2509  0.1555  1.2634
  899MOL0     N18553   9.441   2.297   8.135 -0.7850 -0.1208  0.3260
  899MOL0     C18554   9.410   2.212   8.036  0.4223  0.0666  0.2404
  899MOL0     C18555   9.416   2.286   7.931  0.5566  0.4654  0.6297
  899MOL0     C18556   9.390   2.227   7.799 -0.8303  0.6006  0.2124
  899MOL0     C18557   9.250   2.273   7.750 -0.0454  0.1965  0.3932
  899MOL0     C18558   9.219   2.266   7.599 -0.6715  0.1412  1.2849
  899MOL0     C18559   9.065   2.253   7.568  0.6820 -0.3467  0.4251
  899MOL0     O18560   9.030   2.130   7.634  0.3289 -0.2579  0.4153
  899MOL0     C18561   8.902   2.083   7.617 -0.2612 -0.5719 -0.4249
  899MOL0     C18562   8.782   2.159   7.619 -0.9119  0.2361 -0.1621
  899MOL0     C18563   8.658   2.096   7.590  0.1561  0.6598  0.7173
  899MOL0     C18564   8.650   1.953   7.577 -1.0452 -1.2213  0.0590
  899MOL0     C18565   8.521   1.893   7.550 -1.1081  0.3552 -0.1128
  899MOL0     O18566   8.419   1.978   7.529 -0.4505 -0.8220 -0.5770
  899MOL0     C18567   8.298   1.929   7.488 -0.7725  0.4241 -1.5744
  899MOL0     C18568   8.253   1.939   7.351 -0.4375  0.8593 -0.2011
  899MOL0     C18569   8.127   1.898   7.319 -0.7917  0.5530 -0.2648
  899MOL0     C18570   8.047   1.824   7.405  0.3806 -1.0690  0.4019
  899MOL0     O18571   7.928   1.768   7.361 -0.1321 -0.2030  0.0993
  899MOL0     C18572   7.957   1.644   7.285  0.4006 -0.6410  0.5015
  899MOL0     C18573   7.862   1.632   7.169 -0.2739 -0.2824 -0.4998
  899MOL0     C18574   7.837   1.489   7.132 -0.2094  0.5837  0.6976
  899MOL0     C18575   7.752   1.476   7.005 -0.7854  0.0409  0.2305
  899MOL0     C18576   7.730   1.335   6.957  0.3361  0.2201  0.0356
  899MOL0     C18577   7.859   1.256   6.927  0.7539  0.2584  0.3181
  899MOL0     C18578   7.921   1.164   7.040 -0.1287 -1.0938  0.3102
  899MOL0     C18579   7.850   1.030   7.061  0.3655 -0.1575  0.0198
  899MOL0    Cl18580   7.881   0.919   6.917 -0.0980  0.0322  0.1061
  899MOL0     C18581   8.088   1.818   7.535  0.1827 -0.1956 -0.0325
  899MOL0     C18582   8.220   1.861   7.578 -0.0753 -1.0768  0.0157
  899MOL0     O18583   8.510   1.768   7.561 -0.2587  0.1512  0.2532
  899MOL0     C18584   8.771   1.883   7.603  0.2166 -0.2758  0.5528
  899MOL0     C18585   8.894   1.949   7.622 -0.0345  0.1062  0.1133
  899MOL0     N18586   9.440   2.416   7.954 -0.5633 -0.6041  0.1898
  899MOL0     N18587   9.459   2.423   8.079 -0.4174  0.2780 -0.4395
  899MOL0     C18588   8.368   1.824   8.434 -0.4178  0.4336  0.3271
  899MOL0     C18589   8.240   1.779   8.425 -0.5940 -0.1160 -0.4318
  899MOL0     C18590   7.792   1.751   8.368 -0.0427 -0.2234 -0.7551
  899MOL0     C18591   7.762   1.673   8.253 -0.2229  0.1860 -0.2908
  899MOL0     C18592   7.631   1.618   8.246  0.4254 -0.1571  0.8912
  899MOL0     C18593   7.529   1.637   8.348 -0.8245 -0.0143  0.2943
  899MOL0     O18594   7.401   1.587   8.352  0.3247  0.2465  0.3045
  899MOL0     C18595   7.365   1.484   8.259  0.0066 -0.0968 -0.1940
  899MOL0     C18596   7.230   1.433   8.295 -0.4237  0.5272  0.4819
  899MOL0     C18597   7.128   1.546   8.273  0.4498 -1.2844 -0.2469
  899MOL0     C18598   6.983   1.485   8.289  0.2256  0.1565  0.1882
  899MOL0     C18599   6.951   1.431   8.421 -0.6253 -0.0860  0.6621
  899MOL0     C18600   6.946   1.382   8.537  0.4099  0.2837  0.3516
  899MOL0     C18601   7.572   1.716   8.458  0.0575  0.1140  0.3375
  899MOL0     C18602   7.703   1.777   8.466 -0.9712 -0.2429  0.2220
  899MOL0     H18603   8.137   1.982   8.176  0.7717 -0.1629  0.0077
  899MOL0     H18604   8.383   2.042   8.174  1.4567  0.1066  0.0905
  899MOL0     H18605   8.562   2.143   8.303 -1.7512 -0.6046 -0.9468
  899MOL0     H18606   8.646   2.034   8.186  2.3192 -2.1498  0.5265
  899MOL0     H18607   8.824   1.989   8.340 -0.3557  0.7627  0.6714
  899MOL0     H18608   8.745   2.096   8.463  2.9189  0.5721  1.1993
  899MOL0     H18609   8.792   2.294   8.325  1.0009  2.0461 -1.5185
  899MOL0     H18610   8.835   2.192   8.192 -1.4415  2.5148  0.6867
  899MOL0     H18611   8.973   2.222   8.460  0.9340  2.8586 -0.4535
  899MOL0     H18612   9.023   2.098   8.352  0.5157 -0.1317 -0.3468
  899MOL0     H18613   9.018   2.402   8.276  0.1630 -0.0876 -0.5256
  899MOL0     H18614   9.085   2.262   8.178 -2.7889  1.0909 -1.5764
  899MOL0     H18615   9.185   2.380   8.440  0.8457  1.6209 -0.0201
  899MOL0     H18616   9.250   2.416   8.284 -0.2579  0.4968  1.3917
  899MOL0     H18617   9.335   2.196   8.452  1.6343 -0.9113 -0.1059
  899MOL0     H18618   9.273   2.135   8.305 -2.4776  1.3026  1.1399
  899MOL0     H18619   9.510   2.183   8.291 -0.2684 -0.3912  0.4410
  899MOL0     H18620   9.498   2.344   8.335  5.1997 -1.3179 -0.9310
  899MOL0     H18621   9.387   2.107   8.051 -1.9514  0.5178  0.0324
  899MOL0     H18622   9.389   2.118   7.791 -1.5296  0.7169 -1.8968
  899MOL0     H18623   9.469   2.242   7.724  0.7706 -0.8045  1.5399
  899MOL0     H18624   9.231   2.378   7.778  0.0690  0.0440  1.0552
  899MOL0     H18625   9.181   2.206   7.802  1.1000  0.1763  1.9192
  899MOL0     H18626   9.261   2.353   7.548  0.8993 -1.3509 -0.0798
  899MOL0     H18627   9.275   2.183   7.557  1.3574 -0.1682  4.2674
  899MOL0     H18628   9.051   2.240   7.460 -0.4178  0.9538  0.3840
  899MOL0     H18629   9.003   2.334   7.607 -0.8501 -0.3032 -1.9209
  899MOL0     H18630   8.779   2.266   7.640 -1.5275  0.2085 -0.0910
  899MOL0     H18631   8.578   2.169   7.582 -0.0108  0.3409 -0.6528
  899MOL0     H18632   8.316   1.994   7.281  3.4776  1.3533  3.3345
  899MOL0     H18633   8.090   1.910   7.218 -1.3997 -0.3636 -0.1603
  899MOL0     H18634   7.946   1.559   7.353  1.9810  0.8998  2.8065
  899MOL0     H18635   8.053   1.660   7.235  0.1172 -1.1262 -0.2199
  899MOL0     H18636   7.895   1.693   7.084  1.4006 -0.5005 -0.0278
  899MOL0     H18637   7.762   1.663   7.203 -0.7208 -1.2520 -0.8906
  899MOL0     H18638   7.788   1.442   7.217 -1.3415 -1.0985 -0.8211
  899MOL0     H18639   7.936   1.444   7.118 -0.6645  0.1737 -1.4475
  899MOL0     H18640   7.654   1.522   7.024 -0.2797  0.8959  0.8780
  899MOL0     H18641   7.799   1.534   6.925  1.5450 -0.6697  0.9869
  899MOL0     H18642   7.664   1.336   6.870 -0.0348 -0.2417  0.3061
  899MOL0     H18643   7.674   1.281   7.034 -1.9973  0.7970 -1.1669
  899MOL0     H18644   7.941   1.323   6.899  0.4353 -0.3423 -2.2222
  899MOL0     H18645   7.840   1.195   6.839  1.4061  2.1346 -1.1821
  899MOL0     H18646   8.027   1.151   7.015 -0.1238 -1.6521  0.6071
  899MOL0     H18647   7.917   1.218   7.135  2.6347 -1.2969  0.6286
  899MOL0     H18648   7.743   1.049   7.072  0.5254  0.8174  0.0022
  899MOL0     H18649   7.896   0.983   7.148  0.5682  0.1585  0.0867
  899MOL0     H18650   8.025   1.761   7.602  0.3992 -0.7147 -0.2658
  899MOL0     H18651   8.247   1.845   7.682  2.2557  0.8582 -0.2037
  899MOL0     H18652   8.766   1.774   7.608  1.0059 -0.3321  0.2457
  899MOL0     H18653   8.984   1.894   7.649 -0.9084 -1.6136 -0.3359
  899MOL0     H18654   8.418   1.789   8.523 -0.9070  1.8654  1.1909
  899MOL0     H18655   8.213   1.698   8.491  0.2608  0.8144  1.1116
  899MOL0     H18656   7.829   1.659   8.168 -0.6307 -1.1114 -0.4216
  899MOL0     H18657   7.616   1.558   8.157 -1.4445 -1.1727  1.8434
  899MOL0     H18658   7.435   1.401   8.267 -0.3448 -0.6086 -2.0982
  899MOL0     H18659   7.355   1.533   8.162  0.6220  0.9407  0.2463
  899MOL0     H18660   7.204   1.353   8.224  0.6286 -0.6843  1.4171
  899MOL0     H18661   7.254   1.390   8.393  3.6002  0.4964 -0.3547
  899MOL0     H18662   7.126   1.589   8.172 -0.0814 -0.1728  0.2211
  899MOL0     H18663   7.148   1.630   8.340 -1.2170  1.2107 -2.6068
  899MOL0     H18664   6.912   1.562   8.256 -2.0521 -2.3024 -1.0401
  899MOL0     H18665   6.962   1.420   8.204 -0.1827  2.2425 -1.3842
  899MOL0     H18666   6.939   1.347   8.638 -1.9691 -1.4167 -0.3059
  899MOL0     H18667   7.505   1.720   8.544  0.2694  0.9315  0.4795
  899MOL0     H18668   7.727   1.841   8.550 -1.2309 -0.6535  0.6126
  900MOL0     O18669   8.437   2.309   7.373 -0.0771 -0.5357  0.0788
  900MOL0     C18670   8.454   2.397   7.459 -0.7234  0.5872 -0.7322
  900MOL0     O18671   8.364   2.434   7.551  0.1237  0.1048 -0.0950
  900MOL0     C18672   8.237   2.387   7.531  0.5114  0.5068 -0.2673
  900MOL0     C18673   8.131   2.477   7.504  0.2136 -0.5997  0.0165
  900MOL0     C18674   8.002   2.423   7.491 -0.6394 -0.7995 -0.6047
  900MOL0     C18675   7.976   2.287   7.514  0.0349  1.5102 -0.9154
  900MOL0     O18676   7.843   2.257   7.514 -0.1495  0.2816  0.1173
  900MOL0     C18677   7.802   2.164   7.421  1.0107  0.0395  0.6084
  900MOL0     C18678   7.728   2.226   7.301 -0.6642  0.1435  0.0289
  900MOL0     C18679   7.603   2.298   7.345  0.8166  1.0516 -0.2832
  900MOL0     C18680   7.537   2.368   7.229  0.9247 -0.2380 -0.2278
  900MOL0     C18681   7.402   2.420   7.275  0.2855  0.1249 -0.0865
  900MOL0     C18682   7.333   2.507   7.158  0.1285  0.2396 -0.4227
  900MOL0     C18683   7.335   2.435   7.019  0.8281  0.3460 -0.1143
  900MOL0     C18684   7.242   2.511   6.920 -0.5705  0.4327 -0.1237
  900MOL0     N18685   7.312   2.635   6.874  0.8600  0.9456  0.0204
  900MOL0     C18686   7.238   2.731   6.812 -0.4315 -0.2204 -0.7194
  900MOL0     C18687   7.337   2.824   6.775 -0.6075  0.7396 -0.3086
  900MOL0     C18688   7.305   2.964   6.714 -0.5177  0.3078  0.3756
  900MOL0     C18689   7.218   3.058   6.815 -0.5118 -0.4304 -0.3959
  900MOL0     C18690   7.196   3.191   6.749 -0.2030  0.0715  0.2384
  900MOL0     C18691   7.213   3.318   6.839  0.5129 -0.5330  0.9813
  900MOL0     O18692   7.229   3.441   6.765  0.5654 -0.1249  0.6215
  900MOL0     C18693   7.116   3.516   6.733 -0.1321  0.3354  0.3945
  900MOL0     C18694   6.987   3.491   6.769  0.1605  0.5227 -0.4867
  900MOL0     C18695   6.887   3.569   6.719 -0.2882  0.4755  0.8670
  900MOL0     C18696   6.915   3.679   6.639  0.9126 -0.3696 -0.2647
  900MOL0     C18697   6.794   3.759   6.595  0.6963  0.2040 -0.4567
  900MOL0     O18698   6.824   3.870   6.530  0.2267 -0.2088 -0.5939
  900MOL0     C18699   6.718   3.939   6.469 -0.5291  0.8783 -0.2177
  900MOL0     C18700   6.621   4.015   6.530 -0.4997 -0.1128  0.6303
  900MOL0     C18701   6.516   4.073   6.448  0.9081 -0.5364 -0.7199
  900MOL0     C18702   6.516   4.063   6.310  0.2574  0.1396 -0.2102
  900MOL0     O18703   6.427   4.106   6.217 -0.5545 -1.0361  0.4119
  900MOL0     C18704   6.291   4.117   6.260 -0.0607  0.9719 -0.6698
  900MOL0     C18705   6.206   3.987   6.266 -0.0452 -0.0424  0.3336
  900MOL0     C18706   6.055   4.007   6.261 -0.3906 -0.2845 -0.0078
  900MOL0     C18707   5.984   3.884   6.302 -0.5262  0.1247 -0.2399
  900MOL0     C18708   6.005   3.774   6.201 -0.4065  0.9442 -0.2674
  900MOL0     C18709   5.998   3.631   6.247  0.3588 -0.2479 -0.6811
  900MOL0     C18710   5.951   3.537   6.144  0.6209  0.4451 -0.1644
  900MOL0     C18711   6.044   3.525   6.021  0.0829  0.5248  0.4989
  900MOL0    Cl18712   6.199   3.452   6.078  0.4879  0.1781  0.0727
  900MOL0     C18713   6.616   3.998   6.249 -0.1811 -0.1727  1.0584
  900MOL0     C18714   6.713   3.933   6.327 -0.5162 -0.5424 -0.0206
  900MOL0     O18715   6.681   3.706   6.604  0.1123  0.1186 -0.0349
  900MOL0     C18716   7.048   3.701   6.591  0.1645  0.5765 -0.3183
  900MOL0     C18717   7.144   3.619   6.649 -0.2356  0.2113  0.3097
  900MOL0     N18718   7.463   2.785   6.825  0.7696  0.3504 -0.2617
  900MOL0     N18719   7.449   2.670   6.876 -0.6551  0.1798 -0.0298
  900MOL0     C18720   8.078   2.192   7.545 -0.4833  0.2183 -0.0301
  900MOL0     C18721   8.208   2.248   7.547  0.0502  0.9647 -0.2680
  900MOL0     C18722   8.587   2.447   7.469  0.1770  0.2769 -0.2898
  900MOL0     C18723   8.684   2.417   7.372  0.0824  0.6841  0.2342
  900MOL0     C18724   8.815   2.457   7.392  0.0095 -0.7562 -0.2231
  900MOL0     C18725   8.848   2.541   7.504  0.1809 -0.5044  0.0127
  900MOL0     O18726   8.967   2.594   7.523 -0.4204 -0.2875 -0.7000
  900MOL0     C18727   9.022   2.669   7.408  0.2632  0.4617  1.2401
  900MOL0     C18728   9.133   2.759   7.463 -0.6201 -0.2142  0.0293
  900MOL0     C18729   9.253   2.688   7.523 -0.6739 -0.7692  0.0393
  900MOL0     C18730   9.354   2.648   7.409  0.3617 -0.4280  0.5049
  900MOL0     C18731   9.464   2.574   7.469  0.2015 -0.8090 -0.1552
  900MOL0     C18732   9.552   2.507   7.509  0.1209  0.2925 -0.6661
  900MOL0     C18733   8.752   2.558   7.603  0.5357 -0.3610 -0.8143
  900MOL0     C18734   8.621   2.523   7.587 -0.7639 -0.1209  0.0070
  900MOL0     H18735   8.143   2.585   7.501 -2.5457 -0.0759  2.5004
  900MOL0     H18736   7.924   2.495   7.469  0.1055 -0.3272 -1.7828
  900MOL0     H18737   7.724   2.102   7.465  2.5279 -2.2046  0.2695
  900MOL0     H18738   7.879   2.097   7.381 -0.4254 -0.6137 -1.2308
  900MOL0     H18739   7.711   2.141   7.235 -1.5686  0.4507 -0.1483
  900MOL0     H18740   7.796   2.291   7.245  2.3739 -2.2223  0.7319
  900MOL0     H18741   7.620   2.368   7.427  2.8338  0.6376 -0.3060
  900MOL0     H18742   7.540   2.216   7.383 -1.1059  2.8652  0.6285
  900MOL0     H18743   7.600   2.451   7.197  4.2252 -2.2762  0.5376
  900MOL0     H18744   7.523   2.289   7.154  3.2133  0.4408 -1.4532
  900MOL0     H18745   7.410   2.491   7.358  0.6916 -0.1829  0.1411
  900MOL0     H18746   7.336   2.343   7.315  0.2498  0.8134  1.2307
  900MOL0     H18747   7.369   2.610   7.157 -1.0545  0.7444  1.6438
  900MOL0     H18748   7.227   2.513   7.186 -0.0096 -0.2173 -0.8297
  900MOL0     H18749   7.438   2.428   6.982  1.7622 -3.3654  2.5905
  900MOL0     H18750   7.304   2.331   7.026  0.6315  0.4680  1.0332
  900MOL0     H18751   7.144   2.531   6.964 -0.5652  1.7233 -0.6712
  900MOL0     H18752   7.240   2.442   6.835  0.5584 -0.1909  0.3404
  900MOL0     H18753   7.131   2.741   6.795 -0.8266 -3.6039 -0.8828
  900MOL0     H18754   7.246   2.933   6.627  2.9543 -1.9841 -1.4147
  900MOL0     H18755   7.395   3.010   6.673  0.4478 -0.5003  1.5323
  900MOL0     H18756   7.284   3.073   6.901 -2.3818 -0.0402  1.0409
  900MOL0     H18757   7.123   3.014   6.849 -0.6139  0.2153  0.1838
  900MOL0     H18758   7.270   3.207   6.669 -1.9255  0.8730 -1.2612
  900MOL0     H18759   7.094   3.191   6.711 -0.9490  0.4285  2.1357
  900MOL0     H18760   7.308   3.313   6.894  0.1438  1.8985  1.9686
  900MOL0     H18761   7.133   3.323   6.913 -1.6613 -2.1301 -1.1049
  900MOL0     H18762   6.967   3.416   6.844 -1.1886  2.9416  1.7229
  900MOL0     H18763   6.782   3.545   6.733 -0.6491  2.1876  1.2613
  900MOL0     H18764   6.632   4.023   6.638  2.7638  4.2281  0.2312
  900MOL0     H18765   6.434   4.128   6.494 -0.7040 -1.5291 -2.3072
  900MOL0     H18766   6.248   4.175   6.178 -0.8047 -1.3682 -2.0175
  900MOL0     H18767   6.283   4.168   6.356  1.1991  1.0601 -0.5882
  900MOL0     H18768   6.231   3.942   6.362 -0.2857 -0.5913  0.1410
  900MOL0     H18769   6.246   3.919   6.191  0.8811  1.7256 -0.8433
  900MOL0     H18770   6.024   4.030   6.158  1.0648  0.2306 -0.3482
  900MOL0     H18771   6.013   4.077   6.333 -1.6117 -1.5783  0.5924
  900MOL0     H18772   6.025   3.853   6.398  0.6365 -1.9024 -1.3140
  900MOL0     H18773   5.880   3.905   6.327 -0.1127  3.3959 -0.9063
  900MOL0     H18774   6.105   3.766   6.157  1.0819 -2.2087  3.1205
  900MOL0     H18775   5.941   3.805   6.117  1.6322 -0.8305 -2.6277
  900MOL0     H18776   5.930   3.628   6.333  1.2869  3.0076  0.2861
  900MOL0     H18777   6.092   3.593   6.290  0.1637  0.8371  0.7709
  900MOL0     H18778   5.929   3.443   6.194 -2.9197  0.4499 -1.4428
  900MOL0     H18779   5.853   3.565   6.104  0.3393  0.4255  0.5125
  900MOL0     H18780   6.069   3.611   5.959 -2.0700 -0.0343 -1.2748
  900MOL0     H18781   5.982   3.461   5.958  1.1403 -1.9714  1.8094
  900MOL0     H18782   6.605   3.984   6.142 -2.4824  2.2979  0.8767
  900MOL0     H18783   6.792   3.883   6.272  1.2688  1.2016  0.8139
  900MOL0     H18784   7.065   3.776   6.514 -0.5991  1.9017  0.7584
  900MOL0     H18785   7.248   3.628   6.616 -0.2855 -1.9887 -0.6482
  900MOL0     H18786   8.055   2.086   7.550  0.6343  0.0174  1.2998
  900MOL0     H18787   8.289   2.179   7.569  1.0241  1.3936 -2.2426
  900MOL0     H18788   8.653   2.354   7.289 -2.0031 -0.9554  2.1138
  900MOL0     H18789   8.891   2.422   7.322 -1.0616 -3.6201 -0.0871
  900MOL0     H18790   8.939   2.728   7.369 -0.9107 -2.3651 -0.9484
  900MOL0     H18791   9.061   2.606   7.327  1.5774 -0.6512  2.6712
  900MOL0     H18792   9.170   2.801   7.369  3.1395 -0.8405  1.0899
  900MOL0     H18793   9.090   2.844   7.517 -1.3095 -0.5518  0.0262
  900MOL0     H18794   9.229   2.602   7.586  0.5220 -0.8916  0.3551
  900MOL0     H18795   9.314   2.770   7.563  0.8401 -0.5429 -2.5607
  900MOL0     H18796   9.302   2.593   7.330 -1.3275  3.2789 -1.2178
  900MOL0     H18797   9.395   2.740   7.367  3.0596 -1.5994  0.3390
  900MOL0     H18798   9.621   2.442   7.558  1.3183  1.6907 -0.4582
  900MOL0     H18799   8.778   2.616   7.691 -2.6210  0.5320 -0.3439
  900MOL0     H18800   8.552   2.561   7.662 -0.9691 -2.4833  1.1126
  901MOL0     O18801   9.055   4.663   6.615  0.1546  0.2958 -1.0020
  901MOL0     C18802   8.976   4.664   6.521  0.1009  0.0306  0.6966
  901MOL0     O18803   9.004   4.701   6.391 -0.0602 -0.4349 -0.6305
  901MOL0     C18804   9.128   4.742   6.365  0.3166 -0.7174 -0.1195
  901MOL0     C18805   9.212   4.650   6.304  1.2617 -0.4746  0.5778
  901MOL0     C18806   9.338   4.687   6.264  0.2454  0.5863 -0.0291
  901MOL0     C18807   9.383   4.825   6.288 -0.7312  0.6068  0.2062
  901MOL0     O18808   9.498   4.873   6.246 -0.6924 -0.5174 -0.2666
  901MOL0     C18809   9.608   4.803   6.180  0.9379 -0.4681  0.3290
  901MOL0     C18810   9.683   4.892   6.077  0.0042 -0.5226  0.9769
  901MOL0     C18811   9.808   4.959   6.150 -0.1211  0.4816  0.2741
  901MOL0     C18812   9.918   4.859   6.134  0.5194  0.4423 -0.9907
  901MOL0     C18813  10.052   4.917   6.181 -0.1454  1.2034 -0.0831
  901MOL0     C18814  10.067   4.934   6.328 -0.2387 -0.1236 -0.0195
  901MOL0     C18815  10.097   4.803   6.400 -0.0487 -0.7203  0.3145
  901MOL0     C18816  10.058   4.805   6.547  0.0152  0.1636 -0.1941
  901MOL0     N18817   9.915   4.793   6.568 -0.6169 -0.1611  0.2990
  901MOL0     C18818   9.838   4.895   6.607  0.1998  0.6198 -0.6517
  901MOL0     C18819   9.724   4.826   6.642 -0.0069 -0.1048  0.7624
  901MOL0     C18820   9.598   4.882   6.707 -0.9434 -0.6639  0.4518
  901MOL0     C18821   9.466   4.801   6.691 -0.1540 -0.1884 -0.7105
  901MOL0     C18822   9.463   4.697   6.799  0.0234  0.2665 -0.5494
  901MOL0     C18823   9.324   4.638   6.824 -0.7823 -0.9984 -0.3479
  901MOL0     O18824   9.329   4.515   6.900  0.2389  0.5475  0.1003
  901MOL0     C18825   9.233   4.415   6.870 -0.0978 -0.6902  0.7410
  901MOL0     C18826   9.261   4.279   6.840 -0.6521  0.5677 -0.4392
  901MOL0     C18827   9.156   4.187   6.835  0.0566 -0.0381 -0.2172
  901MOL0     C18828   9.026   4.228   6.849 -0.9950  0.2088 -0.1747
  901MOL0     C18829   8.918   4.134   6.840  0.6086  0.2094  0.4448
  901MOL0     O18830   8.805   4.171   6.897 -0.0580 -1.0160 -0.4187
  901MOL0     C18831   8.695   4.094   6.882 -0.0348 -0.4210  0.4889
  901MOL0     C18832   8.641   4.053   7.004  0.4697 -0.4006 -0.3225
  901MOL0     C18833   8.532   3.965   7.006  0.2159 -0.1927  0.3938
  901MOL0     C18834   8.471   3.926   6.887 -0.0359  0.1380  0.4792
  901MOL0     O18835   8.373   3.833   6.902 -0.5552  0.3692  0.9027
  901MOL0     C18836   8.255   3.834   6.817 -0.5730  0.1997 -0.3546
  901MOL0     C18837   8.164   3.768   6.907  0.2752  0.0494  0.2615
  901MOL0     C18838   8.027   3.765   6.845  0.6296 -0.4908  0.8339
  901MOL0     C18839   7.949   3.646   6.904 -0.4632 -0.4087 -0.5560
  901MOL0     C18840   7.801   3.645   6.862  0.4431 -0.8068  0.3398
  901MOL0     C18841   7.786   3.599   6.717  0.0218  0.4157  0.6847
  901MOL0     C18842   7.651   3.599   6.660 -0.0575  0.1821  0.7578
  901MOL0     C18843   7.600   3.744   6.635  0.3818  0.1797 -0.1836
  901MOL0    Cl18844   7.449   3.742   6.538 -0.2821  0.4017 -0.1860
  901MOL0     C18845   8.516   3.984   6.770 -0.2473  0.0937  1.0435
  901MOL0     C18846   8.630   4.059   6.762  0.4247  0.4202 -0.1231
  901MOL0     O18847   8.942   4.016   6.804  0.2866  0.4284 -0.0592
  901MOL0     C18848   8.999   4.366   6.854  0.3455  0.3878 -0.5778
  901MOL0     C18849   9.101   4.463   6.860 -0.3928 -0.9362  0.0138
  901MOL0     N18850   9.738   4.690   6.618  0.3240  0.4169  0.3915
  901MOL0     N18851   9.851   4.681   6.572 -0.6726 -0.0740  0.4761
  901MOL0     C18852   9.300   4.911   6.354  0.3067  0.7459  0.1712
  901MOL0     C18853   9.175   4.867   6.391 -0.4317  0.3941 -0.1429
  901MOL0     C18854   8.836   4.645   6.556 -0.3293  0.2607  0.7592
  901MOL0     C18855   8.739   4.629   6.461 -0.0011 -0.9091  0.1817
  901MOL0     C18856   8.608   4.592   6.497 -0.5370 -0.3930  0.3553
  901MOL0     C18857   8.581   4.562   6.630  1.0006  0.1572 -1.1969
  901MOL0     O18858   8.456   4.506   6.673  0.0185 -0.1485  0.6539
  901MOL0     C18859   8.455   4.396   6.768 -0.0268 -0.6735  0.7766
  901MOL0     C18860   8.307   4.342   6.769  0.4330 -0.4472 -0.1517
  901MOL0     C18861   8.261   4.298   6.913  0.0088  0.4451  0.4860
  901MOL0     C18862   8.114   4.259   6.910 -0.3296  0.1952 -0.5480
  901MOL0     C18863   8.023   4.373   6.918 -0.0192 -0.3773 -0.3528
  901MOL0     C18864   7.939   4.455   6.921  0.0083 -1.0313  0.1284
  901MOL0     C18865   8.681   4.570   6.725  0.4725 -0.0949 -0.0204
  901MOL0     C18866   8.811   4.614   6.691 -0.4593 -0.0649 -0.3623
  901MOL0     H18867   9.169   4.554   6.277 -0.5946 -0.1358  2.0977
  901MOL0     H18868   9.399   4.616   6.209  0.8475 -0.2778  1.6560
  901MOL0     H18869   9.562   4.724   6.119 -1.6527  0.6436  0.6759
  901MOL0     H18870   9.681   4.766   6.253  2.6999 -1.0544 -1.6430
  901MOL0     H18871   9.614   4.969   6.039  0.1153 -0.5975  0.6137
  901MOL0     H18872   9.722   4.834   5.993 -1.2358 -1.6552  1.1429
  901MOL0     H18873   9.787   4.970   6.257 -0.5091 -3.9376  0.8485
  901MOL0     H18874   9.848   5.053   6.111  2.3668  0.1121  1.7355
  901MOL0     H18875   9.892   4.772   6.195  1.0887  1.7014  1.1779
  901MOL0     H18876   9.927   4.838   6.027  0.3309  0.0375 -0.9290
  901MOL0     H18877  10.067   4.999   6.110  2.3001  1.3208  0.4597
  901MOL0     H18878  10.136   4.855   6.148 -1.8161 -2.4660  1.9619
  901MOL0     H18879   9.972   4.980   6.358 -0.3317 -1.0048  1.1185
  901MOL0     H18880  10.151   5.001   6.351 -2.1300  1.9814  1.0940
  901MOL0     H18881  10.039   4.721   6.357 -1.2339  1.2789 -2.1545
  901MOL0     H18882  10.203   4.781   6.385 -0.0454  0.0836 -0.9117
  901MOL0     H18883  10.099   4.897   6.589  1.0592 -0.2690 -0.2293
  901MOL0     H18884  10.106   4.723   6.601 -4.1923 -2.7271 -0.4072
  901MOL0     H18885   9.860   5.001   6.608 -0.4614  0.8533 -3.6175
  901MOL0     H18886   9.580   4.984   6.671  0.9431 -0.0065  1.2312
  901MOL0     H18887   9.630   4.897   6.811  2.7769 -0.2767 -0.5942
  901MOL0     H18888   9.463   4.750   6.594  1.5821 -2.8870  0.5515
  901MOL0     H18889   9.377   4.865   6.698  0.1012  0.1042 -0.0852
  901MOL0     H18890   9.533   4.616   6.774 -1.5233 -0.9691 -1.0467
  901MOL0     H18891   9.487   4.747   6.893  1.6843 -0.8167 -0.3339
  901MOL0     H18892   9.278   4.611   6.729  2.1152  0.3431 -2.2803
  901MOL0     H18893   9.260   4.718   6.862 -0.0653 -0.0853 -1.0159
  901MOL0     H18894   9.361   4.237   6.826 -1.2597 -0.6758 -1.2193
  901MOL0     H18895   9.186   4.083   6.829  2.1555  0.4466  1.0764
  901MOL0     H18896   8.684   4.093   7.095 -0.3831 -0.1899 -0.0006
  901MOL0     H18897   8.497   3.939   7.105  0.6509 -0.7547  0.4017
  901MOL0     H18898   8.280   3.770   6.732  0.8461 -1.6750  1.3676
  901MOL0     H18899   8.216   3.932   6.788 -2.7338 -0.3909  0.3887
  901MOL0     H18900   8.152   3.806   7.009 -3.0785 -0.1369  0.0612
  901MOL0     H18901   8.216   3.673   6.921  0.0549 -0.0271  0.5648
  901MOL0     H18902   8.036   3.766   6.736 -0.3838  1.9284  0.7118
  901MOL0     H18903   7.976   3.860   6.858 -2.2677 -1.1998 -3.2256
  901MOL0     H18904   7.994   3.556   6.860  1.8996  0.7762 -0.7280
  901MOL0     H18905   7.963   3.649   7.012 -0.5189  1.9145 -0.5525
  901MOL0     H18906   7.739   3.732   6.885 -2.1384 -2.1656 -1.0505
  901MOL0     H18907   7.758   3.569   6.929 -0.5253 -0.6445 -0.0951
  901MOL0     H18908   7.827   3.498   6.711 -1.5588 -0.3841  2.2067
  901MOL0     H18909   7.848   3.661   6.651  2.0100 -2.4608 -0.3166
  901MOL0     H18910   7.648   3.557   6.560 -2.8013  2.3105 -0.2044
  901MOL0     H18911   7.579   3.544   6.721 -0.4026  1.2176  1.3224
  901MOL0     H18912   7.680   3.804   6.592 -0.3665  0.2841 -1.4815
  901MOL0     H18913   7.583   3.786   6.735  0.7999  1.6862 -0.7264
  901MOL0     H18914   8.473   3.948   6.678  0.1742  2.5680 -0.2200
  901MOL0     H18915   8.663   4.098   6.666  0.5946  0.7788  0.0785
  901MOL0     H18916   8.895   4.396   6.845 -0.9918 -3.0353  1.6269
  901MOL0     H18917   9.075   4.568   6.862  3.8377  0.3595 -1.4621
  901MOL0     H18918   9.331   5.014   6.367 -1.7910  1.2070  2.3062
  901MOL0     H18919   9.108   4.934   6.443 -2.3496 -0.7711 -0.9992
  901MOL0     H18920   8.761   4.631   6.355  1.5802 -2.7167  0.4183
  901MOL0     H18921   8.526   4.581   6.426  0.2722  1.3998 -0.9485
  901MOL0     H18922   8.494   4.427   6.865 -1.6815  3.4170  0.3306
  901MOL0     H18923   8.525   4.322   6.728  1.9777  1.3378  0.3475
  901MOL0     H18924   8.248   4.433   6.757  0.6493  0.5076  4.1786
  901MOL0     H18925   8.294   4.262   6.696 -0.3765 -0.7275  0.2878
  901MOL0     H18926   8.283   4.381   6.981 -3.0692 -0.4091  2.7320
  901MOL0     H18927   8.313   4.209   6.950 -2.0641 -1.1064 -0.1783
  901MOL0     H18928   8.097   4.200   6.819  1.5753 -0.7261 -0.3534
  901MOL0     H18929   8.081   4.190   6.989 -1.9815 -0.5625 -1.8369
  901MOL0     H18930   7.849   4.512   6.922  0.2152 -0.7072  0.7616
  901MOL0     H18931   8.653   4.562   6.829 -0.5585  0.6726 -0.2240
  901MOL0     H18932   8.888   4.637   6.764 -0.0124 -1.0296 -0.5077
  902MOL0     O18933   2.825   7.629   8.238  0.4818  0.4289 -0.4077
  902MOL0     C18934   2.807   7.717   8.323 -0.3214  0.6359 -0.1833
  902MOL0     O18935   2.713   7.807   8.324  0.8014  0.3012  0.1583
  902MOL0     C18936   2.617   7.816   8.226 -0.0820 -0.1968 -0.9372
  902MOL0     C18937   2.581   7.940   8.176 -0.7725 -0.3825 -0.1964
  902MOL0     C18938   2.485   7.967   8.076 -0.4016 -0.1846  0.4515
  902MOL0     C18939   2.421   7.860   8.018 -0.3722 -0.5827  0.3137
  902MOL0     O18940   2.314   7.864   7.934 -0.0072  0.4242  0.7933
  902MOL0     C18941   2.281   7.981   7.858  0.7958  1.1011 -0.1455
  902MOL0     C18942   2.152   7.966   7.775  0.3886 -0.1712 -0.2246
  902MOL0     C18943   2.031   7.912   7.854 -0.8108 -0.1575 -0.3621
  902MOL0     C18944   1.928   7.843   7.757 -0.7019 -0.1472  0.6912
  902MOL0     C18945   1.795   7.839   7.824  0.1052 -0.3582  0.0664
  902MOL0     C18946   1.687   7.822   7.721  0.6784  0.2739  0.1996
  902MOL0     C18947   1.577   7.727   7.777 -0.1644  0.1849 -0.9617
  902MOL0     C18948   1.462   7.708   7.677 -0.2618 -0.4910  0.1812
  902MOL0     N18949   1.360   7.620   7.733 -0.8411  0.1491  0.0362
  902MOL0     C18950   1.282   7.652   7.835 -0.4418  0.3079 -1.0509
  902MOL0     C18951   1.222   7.536   7.871 -0.0850  0.5069  1.0861
  902MOL0     C18952   1.125   7.521   7.987 -0.4677 -0.7603  0.1792
  902MOL0     C18953   0.985   7.559   7.975  0.0225 -0.2235 -0.1912
  902MOL0     C18954   0.960   7.711   7.990  0.1698 -0.3630 -0.3600
  902MOL0     C18955   1.003   7.787   8.126  0.8594 -0.3301  0.2577
  902MOL0     O18956   1.145   7.796   8.114  0.0696 -0.4695  0.3106
  902MOL0     C18957   1.194   7.837   8.235 -0.1183  0.1620 -0.7042
  902MOL0     C18958   1.265   7.748   8.311 -0.2657  0.2188 -0.0104
  902MOL0     C18959   1.333   7.792   8.425  0.5125 -0.2075 -0.0520
  902MOL0     C18960   1.329   7.928   8.468 -0.2261 -0.6673  0.1869
  902MOL0     C18961   1.410   7.989   8.578 -0.5461 -0.4348 -0.0960
  902MOL0     O18962   1.501   7.903   8.630  0.1742  0.3421 -0.2811
  902MOL0     C18963   1.595   7.944   8.712 -0.2433  0.2235  0.7821
  902MOL0     C18964   1.601   7.880   8.837 -0.1684 -0.0442  0.3074
  902MOL0     C18965   1.707   7.897   8.921 -0.4616  0.1579 -0.9058
  902MOL0     C18966   1.812   7.980   8.887  0.3732 -0.1685  0.1559
  902MOL0     O18967   1.918   7.974   8.978 -0.3624  0.1051 -0.6066
  902MOL0     C18968   2.044   8.021   8.932  0.0004  0.1289  0.6794
  902MOL0     C18969   2.158   8.009   9.037 -0.5608 -0.4230 -0.2342
  902MOL0     C18970   2.285   8.082   8.995  0.1380 -0.2392  0.1772
  902MOL0     C18971   2.386   8.110   9.117 -0.9833  0.2144  0.3709
  902MOL0     C18972   2.504   8.186   9.044 -0.3239  0.0901 -0.6827
  902MOL0     C18973   2.638   8.202   9.123 -0.4768  0.3399 -0.3367
  902MOL0     C18974   2.629   8.323   9.223 -0.8125 -0.4206  0.1083
  902MOL0     C18975   2.745   8.319   9.328  0.3878 -0.2889 -0.4684
  902MOL0    Cl18976   2.691   8.207   9.469 -0.4882 -0.0476  0.2507
  902MOL0     C18977   1.805   8.053   8.767  0.6577 -0.2606  0.0979
  902MOL0     C18978   1.698   8.033   8.684 -0.3572  0.0442 -0.1136
  902MOL0     O18979   1.391   8.112   8.590  0.5749  0.9998  0.5251
  902MOL0     C18980   1.238   8.012   8.396  0.8758 -0.4090 -0.2640
  902MOL0     C18981   1.181   7.969   8.278  0.5817  0.0134 -0.9345
  902MOL0     N18982   1.264   7.433   7.784 -0.2146 -0.5570  0.0726
  902MOL0     N18983   1.354   7.484   7.710 -0.5805 -0.7239  0.4295
  902MOL0     C18984   2.460   7.732   8.067 -0.2443 -0.1292 -0.4550
  902MOL0     C18985   2.551   7.703   8.171 -0.7569 -0.4495  0.4581
  902MOL0     C18986   2.921   7.744   8.409 -0.2188 -0.7587 -0.2353
  902MOL0     C18987   2.907   7.790   8.543 -0.4920 -0.6531 -0.5687
  902MOL0     C18988   3.025   7.804   8.620  0.2339 -0.7709  0.3253
  902MOL0     C18989   3.152   7.771   8.573  0.9491  0.0359  0.2043
  902MOL0     O18990   3.267   7.773   8.649  0.3068 -0.0372 -0.4924
  902MOL0     C18991   3.281   7.889   8.734  0.0895 -0.2767 -0.6723
  902MOL0     C18992   3.426   7.911   8.771  0.0513 -0.4114  0.4563
  902MOL0     C18993   3.469   7.825   8.894  0.0888  0.2061  0.4285
  902MOL0     C18994   3.576   7.888   8.979 -1.3603 -0.6722  0.5610
  902MOL0     C18995   3.650   7.787   9.050  0.8509 -0.0710  0.4568
  902MOL0     C18996   3.711   7.712   9.125  0.5708 -1.2661  1.3521
  902MOL0     C18997   3.163   7.732   8.439  0.9553  0.8180  1.2562
  902MOL0     C18998   3.049   7.731   8.358  0.0129  0.4918  0.5218
  902MOL0     H18999   2.627   8.026   8.223  0.7752 -1.5552  0.5176
  902MOL0     H19000   2.479   8.069   8.039  1.5255  0.5382  1.9323
  902MOL0     H19001   2.361   7.997   7.784  1.6353 -1.9556 -0.0357
  902MOL0     H19002   2.286   8.064   7.929  1.3532 -0.6373  1.9647
  902MOL0     H19003   2.179   7.900   7.693  2.2264 -1.9999  1.7078
  902MOL0     H19004   2.131   8.067   7.738 -0.4669  0.4487  1.7924
  902MOL0     H19005   1.995   7.988   7.924  2.2885  0.6484  0.5128
  902MOL0     H19006   2.061   7.834   7.925  0.8487  0.4598 -0.3465
  902MOL0     H19007   1.907   7.912   7.674 -3.6284  1.0874  2.3239
  902MOL0     H19008   1.972   7.748   7.724 -2.2761 -0.5522 -0.3251
  902MOL0     H19009   1.769   7.929   7.881 -0.8381 -0.6386  0.1017
  902MOL0     H19010   1.791   7.751   7.889 -1.3986 -0.0848  0.3884
  902MOL0     H19011   1.732   7.768   7.637 -1.2736  1.6100 -1.8419
  902MOL0     H19012   1.650   7.921   7.692  0.4240  0.6803  1.8385
  902MOL0     H19013   1.612   7.632   7.820 -1.3898  1.3283  3.0036
  902MOL0     H19014   1.545   7.768   7.873  0.7835  0.4269 -0.7427
  902MOL0     H19015   1.509   7.674   7.584  0.5646  0.3717  0.2682
  902MOL0     H19016   1.418   7.805   7.652  0.7300  0.5280  2.2300
  902MOL0     H19017   1.263   7.747   7.883 -2.2911 -0.8651  0.6949
  902MOL0     H19018   1.172   7.563   8.076  1.7027 -0.7998 -0.8783
  902MOL0     H19019   1.116   7.415   8.015 -0.5037 -1.4342 -2.1913
  902MOL0     H19020   0.929   7.499   8.046  1.8987 -0.8179  0.8695
  902MOL0     H19021   0.949   7.537   7.874 -0.6501 -0.2215  0.0469
  902MOL0     H19022   1.010   7.754   7.903 -0.6080  1.9935  0.2734
  902MOL0     H19023   0.851   7.715   7.983 -0.1482 -4.2493  0.1426
  902MOL0     H19024   0.960   7.734   8.212 -1.3206 -0.1515 -0.6554
  902MOL0     H19025   0.945   7.880   8.129 -2.5051 -2.2671  1.7877
  902MOL0     H19026   1.282   7.649   8.271  1.3939  1.4280 -2.5361
  902MOL0     H19027   1.386   7.725   8.492  0.2748  1.0638  1.4598
  902MOL0     H19028   1.519   7.811   8.860  0.1232 -0.6404 -0.4075
  902MOL0     H19029   1.699   7.830   9.006  2.2133 -0.2959 -0.9286
  902MOL0     H19030   2.035   8.126   8.903  2.2260  0.0795 -0.4394
  902MOL0     H19031   2.088   7.972   8.845  1.2478  0.4437  1.1158
  902MOL0     H19032   2.183   7.903   9.054 -1.4893 -0.1728  3.5224
  902MOL0     H19033   2.122   8.047   9.132 -1.6070  0.2282 -0.8770
  902MOL0     H19034   2.256   8.180   8.956  1.8228  0.4111  0.4982
  902MOL0     H19035   2.326   8.016   8.918 -0.1132 -0.5685  0.3248
  902MOL0     H19036   2.340   8.177   9.190 -0.7423  2.3342 -1.3313
  902MOL0     H19037   2.422   8.010   9.144  0.7596  0.7339  0.1227
  902MOL0     H19038   2.458   8.283   9.021 -0.8794  1.7889  5.6414
  902MOL0     H19039   2.528   8.132   8.952 -1.8770  0.9209 -1.6273
  902MOL0     H19040   2.718   8.217   9.049 -0.1797 -2.9323 -0.8494
  902MOL0     H19041   2.660   8.108   9.174 -0.8632 -1.6671 -3.5645
  902MOL0     H19042   2.654   8.410   9.162 -1.2530 -1.3374 -1.4468
  902MOL0     H19043   2.528   8.334   9.265 -1.4110 -1.8442 -0.8638
  902MOL0     H19044   2.750   8.417   9.378 -2.0292 -2.0532  3.7327
  902MOL0     H19045   2.839   8.285   9.283  0.4485 -1.9812  0.8330
  902MOL0     H19046   1.886   8.125   8.760  2.6645 -2.0767  2.5967
  902MOL0     H19047   1.707   8.100   8.599  1.3117  0.3421  0.2576
  902MOL0     H19048   1.221   8.113   8.430  1.5446 -0.0995 -0.8252
  902MOL0     H19049   1.117   8.035   8.220  1.3317  2.2561  0.6303
  902MOL0     H19050   2.402   7.654   8.019  0.4221 -0.3727 -0.8787
  902MOL0     H19051   2.573   7.601   8.202  2.5691  0.2102  0.6054
  902MOL0     H19052   2.810   7.813   8.587  1.1525 -0.3239  3.2915
  902MOL0     H19053   3.018   7.846   8.720  2.2573 -0.2212  0.2946
  902MOL0     H19054   3.228   7.894   8.830  2.5573  0.6323  0.7446
  902MOL0     H19055   3.254   7.984   8.687  0.5542 -0.2589 -0.9010
  902MOL0     H19056   3.495   7.885   8.690  0.6058  1.2563  0.3529
  902MOL0     H19057   3.439   8.017   8.796 -3.7767 -0.0079  1.2517
  902MOL0     H19058   3.503   7.730   8.851  0.7286  0.5536  0.1453
  902MOL0     H19059   3.390   7.812   8.968 -0.4739 -2.8223 -0.5495
  902MOL0     H19060   3.631   7.943   8.901 -1.5326 -1.2746  0.0035
  902MOL0     H19061   3.533   7.968   9.040 -1.2773 -0.5242  0.4281
  902MOL0     H19062   3.759   7.638   9.186  2.6259  0.9276  2.5662
  902MOL0     H19063   3.256   7.705   8.390 -0.8102  0.3093 -2.0883
  902MOL0     H19064   3.066   7.705   8.253  1.7741 -3.2868  1.5669
  903MOL0     O19065   5.960   0.888  10.260  0.6088  0.5573 -0.1600
  903MOL0     C19066   5.988   0.912  10.138  0.7223 -0.2699  0.0444
  903MOL0     O19067   5.894   0.970  10.050 -0.0043  0.4209 -0.2468
  903MOL0     C19068   5.779   1.011  10.105  0.6227  0.1381  0.8956
  903MOL0     C19069   5.675   0.922  10.119  0.2272 -0.2543  0.2996
  903MOL0     C19070   5.550   0.961  10.163  0.3527 -0.3143 -0.8268
  903MOL0     C19071   5.533   1.100  10.192  0.9645 -0.9151  0.5380
  903MOL0     O19072   5.414   1.160  10.225  0.5881  0.6053  0.0131
  903MOL0     C19073   5.291   1.078  10.186  0.5720 -0.2888 -0.8435
  903MOL0     C19074   5.169   1.165  10.167  0.3735 -0.2331  0.5686
  903MOL0     C19075   5.050   1.077  10.130 -0.0811  0.2695  0.3051
  903MOL0     C19076   4.933   1.169  10.079 -0.1266  0.4603  0.0348
  903MOL0     C19077   4.797   1.086  10.076 -0.5525 -0.1129  0.6037
  903MOL0     C19078   4.813   0.958   9.984  0.5638  0.2226  0.7475
  903MOL0     C19079   4.690   0.873   9.976  1.2962  1.0115 -0.1618
  903MOL0     C19080   4.706   0.750   9.888 -0.0416  0.6958 -0.1344
  903MOL0     N19081   4.582   0.678   9.868  0.3862  0.0354  0.5547
  903MOL0     C19082   4.548   0.563   9.942 -0.5976 -0.8909  0.4350
  903MOL0     C19083   4.438   0.531   9.874  0.4732  0.2785 -0.8477
  903MOL0     C19084   4.332   0.424   9.905 -0.1188 -0.5524  0.4532
  903MOL0     C19085   4.185   0.467   9.883  0.0676  0.4108  0.0042
  903MOL0     C19086   4.096   0.357   9.948 -0.2397  0.8102  0.6126
  903MOL0     C19087   3.942   0.360   9.926 -0.0742 -0.6610  0.7924
  903MOL0     O19088   3.891   0.253  10.003  0.3743  0.5634  0.1852
  903MOL0     C19089   3.753   0.231   9.989  0.4681  0.0921 -0.0883
  903MOL0     C19090   3.700   0.147  10.080  0.8985  0.7424  0.1094
  903MOL0     C19091   3.562   0.115  10.088 -0.1349  0.2475 -0.3304
  903MOL0     C19092   3.473   0.186  10.010 -0.3370  0.0462  0.8300
  903MOL0     C19093   3.328   0.178  10.022  0.1563 -0.1363 -0.2069
  903MOL0     O19094   3.248   0.243   9.933 -0.2349  0.1032 -0.0499
  903MOL0     C19095   3.110   0.212   9.917 -0.7161 -0.1129  0.1167
  903MOL0     C19096   3.060   0.077   9.915  0.5455  0.0219  0.6200
  903MOL0     C19097   2.922   0.036   9.911 -0.7912  0.4264 -0.2136
  903MOL0     C19098   2.822   0.139   9.884 -0.5807  0.9846  0.5504
  903MOL0     O19099   2.697   0.121   9.840 -0.2439  0.5973  0.2659
  903MOL0     C19100   2.607   0.037   9.910  0.0545 -0.1853  0.0379
  903MOL0     C19101   2.466   0.100   9.922 -1.0169 -0.3499 -0.2769
  903MOL0     C19102   2.360  -0.002   9.941 -0.2137 -0.3262 -1.0624
  903MOL0     C19103   2.230   0.077   9.927  0.4065 -0.2663 -0.0887
  903MOL0     C19104   2.118  -0.007   9.870 -0.3628 -0.0636 -0.0283
  903MOL0     C19105   1.981   0.059   9.863 -1.1895 -0.0580 -0.8350
  903MOL0     C19106   1.893  -0.033   9.776 -0.2952  0.5561 -1.0498
  903MOL0     C19107   1.762   0.035   9.741  0.5154  0.2956  0.4283
  903MOL0    Cl19108   1.685  -0.067   9.622  0.0323  0.2865 -0.0848
  903MOL0     C19109   2.873   0.271   9.882 -0.4996 -0.1580  0.3550
  903MOL0     C19110   3.009   0.303   9.894 -1.1207 -0.8293  0.7274
  903MOL0     O19111   3.288   0.115  10.119 -0.3842  0.0367 -0.0167
  903MOL0     C19112   3.534   0.268   9.912  0.6421 -0.4736  0.0756
  903MOL0     C19113   3.674   0.285   9.884 -0.3892 -1.2593 -0.0277
  903MOL0     N19114   4.424   0.610   9.756 -0.2471  0.1832 -0.3480
  903MOL0     N19115   4.514   0.702   9.753 -0.1433  0.6485  0.4159
  903MOL0     C19116   5.638   1.192  10.194 -0.0168  0.4460  0.2511
  903MOL0     C19117   5.764   1.145  10.149 -0.5550 -0.1812  0.5162
  903MOL0     C19118   6.123   0.883  10.088  0.0255 -0.0827 -0.0646
  903MOL0     C19119   6.145   0.905   9.953 -0.2567  0.1338 -0.5043
  903MOL0     C19120   6.266   0.883   9.895  0.5470 -0.7628  0.1413
  903MOL0     C19121   6.380   0.849   9.975 -0.0008  0.3968 -0.4784
  903MOL0     O19122   6.499   0.839   9.912  0.7752  0.1290 -0.2447
  903MOL0     C19123   6.613   0.813   9.986 -1.0305  0.0249  0.6466
  903MOL0     C19124   6.727   0.824   9.879 -0.2372  0.2136  0.5241
  903MOL0     C19125   6.864   0.794   9.935 -0.1654 -0.1925 -0.1175
  903MOL0     C19126   6.875   0.675  10.029  0.1007  0.2374 -0.1125
  903MOL0     C19127   7.021   0.657  10.057 -0.1485 -0.2281 -0.3179
  903MOL0     C19128   7.137   0.643  10.094 -1.2701 -0.0524 -0.2787
  903MOL0     C19129   6.360   0.826  10.110 -0.4106 -0.5785  0.4718
  903MOL0     C19130   6.234   0.841  10.172  0.3828  0.1316 -0.5033
  903MOL0     H19131   5.677   0.815  10.100  0.1251 -0.5734  1.9747
  903MOL0     H19132   5.468   0.889  10.170 -1.1963  1.4413 -0.1822
  903MOL0     H19133   5.277   1.001  10.262  2.3576  1.1466  1.0457
  903MOL0     H19134   5.307   1.024  10.092  2.0630  2.1989 -2.1546
  903MOL0     H19135   5.186   1.238  10.088  1.4006 -0.4192  0.6059
  903MOL0     H19136   5.155   1.224  10.258  0.0783 -0.1581  0.4777
  903MOL0     H19137   5.010   1.028  10.219 -0.4785  0.7784  0.4082
  903MOL0     H19138   5.073   0.998  10.058  0.2147  1.6731 -1.1842
  903MOL0     H19139   4.928   1.259  10.141  1.3934 -0.3945  1.4874
  903MOL0     H19140   4.957   1.198   9.976  0.9195  0.5454  0.2853
  903MOL0     H19141   4.717   1.150  10.039 -0.4769  0.7394  1.8421
  903MOL0     H19142   4.766   1.057  10.177 -0.1361 -1.8618  0.2572
  903MOL0     H19143   4.885   0.885  10.022 -0.5417 -0.8103  0.9172
  903MOL0     H19144   4.849   0.988   9.886  1.4910  0.5502  1.1742
  903MOL0     H19145   4.673   0.839  10.079 -3.4283  3.1177  0.0151
  903MOL0     H19146   4.602   0.922   9.933  1.4057  0.6528 -0.8066
  903MOL0     H19147   4.783   0.681   9.925 -1.5669 -0.3332  1.2328
  903MOL0     H19148   4.736   0.786   9.789 -0.0113 -1.7824 -1.0989
  903MOL0     H19149   4.576   0.532  10.043 -0.3070  2.1165  1.3978
  903MOL0     H19150   4.350   0.388  10.007 -0.7292 -2.3297 -0.0325
  903MOL0     H19151   4.351   0.343   9.834  0.6293  0.4533 -0.5263
  903MOL0     H19152   4.159   0.462   9.776  2.1291  1.6660 -0.6044
  903MOL0     H19153   4.174   0.568   9.923  0.7322  0.4477  0.1072
  903MOL0     H19154   4.140   0.264   9.911 -1.8826  0.6482 -1.0865
  903MOL0     H19155   4.114   0.358  10.056 -1.4295  2.2752  0.8375
  903MOL0     H19156   3.921   0.353   9.819  0.1931  1.7777  0.5309
  903MOL0     H19157   3.903   0.455   9.961  2.8011  0.8292  0.2506
  903MOL0     H19158   3.765   0.090  10.146  0.8903  0.7952  0.1638
  903MOL0     H19159   3.536   0.039  10.161  0.6952 -0.2115 -0.5080
  903MOL0     H19160   3.133  -0.001   9.937  0.8964  0.5160  1.2227
  903MOL0     H19161   2.899  -0.070   9.917 -0.2732  0.2397 -1.3650
  903MOL0     H19162   2.652   0.006  10.004  2.1687 -1.1557 -1.2228
  903MOL0     H19163   2.591  -0.060   9.861  0.0275 -0.3907  0.4489
  903MOL0     H19164   2.440   0.174   9.846  0.2606  0.4552  0.0282
  903MOL0     H19165   2.475   0.166  10.009  1.3229 -0.8780 -0.0336
  903MOL0     H19166   2.367  -0.055  10.037  1.4029 -0.7281 -1.3885
  903MOL0     H19167   2.364  -0.070   9.856 -1.4847  0.9771 -2.2060
  903MOL0     H19168   2.197   0.110  10.026  4.5281  2.2484  0.6710
  903MOL0     H19169   2.229   0.163   9.860 -2.9821 -1.7452 -2.2134
  903MOL0     H19170   2.094  -0.103   9.918 -2.4589  0.0921 -0.6519
  903MOL0     H19171   2.143  -0.044   9.770  0.9381  0.3685  0.1137
  903MOL0     H19172   1.991   0.160   9.821 -1.4559  0.5527  0.5071
  903MOL0     H19173   1.928   0.067   9.958  1.1261 -1.8311  0.7036
  903MOL0     H19174   1.944  -0.049   9.680  1.4619  2.2268 -0.4740
  903MOL0     H19175   1.882  -0.130   9.825  5.8043  1.0078  2.1670
  903MOL0     H19176   1.787   0.132   9.697  1.5217  0.6119  1.6307
  903MOL0     H19177   1.699   0.052   9.829 -1.4012 -0.5237 -0.7294
  903MOL0     H19178   2.795   0.346   9.879 -0.2097  0.1684  0.9861
  903MOL0     H19179   3.048   0.404   9.886 -0.3667 -1.2080 -0.6866
  903MOL0     H19180   3.462   0.312   9.844  1.8595  0.8045 -0.4166
  903MOL0     H19181   3.715   0.351   9.808  2.6182 -3.7127 -0.7133
  903MOL0     H19182   5.622   1.294  10.227 -2.4154 -0.2249  1.3861
  903MOL0     H19183   5.852   1.207  10.147 -1.9913  1.9657  0.8710
  903MOL0     H19184   6.067   0.941   9.887 -0.4575  1.1923  0.2968
  903MOL0     H19185   6.275   0.898   9.788 -1.7410  1.3013  0.1513
  903MOL0     H19186   6.596   0.711  10.022 -3.5216 -0.8450 -2.5221
  903MOL0     H19187   6.633   0.888  10.063  0.5537  0.2292  0.0700
  903MOL0     H19188   6.711   0.757   9.794  1.6776 -1.4373  1.3814
  903MOL0     H19189   6.735   0.926   9.840  3.5417  0.3634  1.3301
  903MOL0     H19190   6.893   0.889   9.980 -2.5493  1.0093 -0.9910
  903MOL0     H19191   6.931   0.776   9.851  0.0642  0.6520 -0.1267
  903MOL0     H19192   6.838   0.695  10.130 -2.1605  0.1504 -0.8730
  903MOL0     H19193   6.830   0.585   9.987  1.2678  0.1610 -1.2561
  903MOL0     H19194   7.238   0.640  10.129 -1.9702  1.6012  2.2433
  903MOL0     H19195   6.444   0.805  10.176  0.7589  1.6791 -0.1876
  903MOL0     H19196   6.230   0.819  10.278  0.0030 -0.2460 -0.5931
  904MOL0     O19197  10.838   6.030   6.131 -0.0867 -0.0165  0.5276
  904MOL0     C19198  10.811   6.025   6.247  0.0131 -0.1642  0.7649
  904MOL0     O19199  10.687   5.994   6.298  0.7238 -0.5034 -0.4986
  904MOL0     C19200  10.594   5.949   6.207 -0.1825  0.0886 -0.4252
  904MOL0     C19201  10.584   5.816   6.171  0.0094  0.5760  0.6872
  904MOL0     C19202  10.496   5.778   6.073  0.7907  0.3215 -1.0861
  904MOL0     C19203  10.411   5.871   6.011 -0.2780 -0.3237 -0.7005
  904MOL0     O19204  10.335   5.820   5.909  0.3352 -0.2318  0.6078
  904MOL0     C19205  10.274   5.911   5.813 -0.0093 -0.2808 -0.0015
  904MOL0     C19206  10.125   5.947   5.844  0.0445  0.3707  0.0818
  904MOL0     C19207  10.048   5.973   5.707 -0.2996  0.4958  0.8073
  904MOL0     C19208   9.896   6.026   5.722  0.0672  0.2566 -0.4576
  904MOL0     C19209   9.815   6.019   5.588  0.3750  0.4668  0.2758
  904MOL0     C19210   9.778   5.867   5.568  0.1890  0.6402 -0.2886
  904MOL0     C19211   9.705   5.840   5.439  0.4938 -0.5666 -0.7295
  904MOL0     C19212   9.663   5.697   5.436 -0.1961  0.6942 -0.4581
  904MOL0     N19213   9.558   5.659   5.343  0.6979  0.9048 -1.0449
  904MOL0     C19214   9.419   5.670   5.366 -0.7841  0.1019 -0.6819
  904MOL0     C19215   9.355   5.609   5.264 -0.1250 -0.1066  0.4853
  904MOL0     C19216   9.208   5.583   5.246 -1.2481  1.0252  0.3466
  904MOL0     C19217   9.165   5.476   5.143 -0.3403 -0.0242 -0.4723
  904MOL0     C19218   9.207   5.492   4.991  0.1990 -0.8076  0.3708
  904MOL0     C19219   9.164   5.368   4.920 -0.1805  0.0009  0.6344
  904MOL0     O19220   9.215   5.384   4.785  0.1244  0.5116 -0.2776
  904MOL0     C19221   9.143   5.350   4.677  0.4667  0.2216  0.4170
  904MOL0     C19222   9.086   5.223   4.664  0.6734  0.1503  0.2287
  904MOL0     C19223   9.015   5.180   4.551 -0.2688  0.1317 -0.0134
  904MOL0     C19224   9.008   5.269   4.437  0.7303  1.0131  0.2608
  904MOL0     C19225   8.922   5.234   4.325 -0.2143  0.0748  0.1171
  904MOL0     O19226   8.841   5.125   4.333  0.5573 -0.0315  0.1584
  904MOL0     C19227   8.772   5.085   4.216  0.0396  0.3619  0.2238
  904MOL0     C19228   8.633   5.095   4.241  0.8121 -0.5918 -0.0377
  904MOL0     C19229   8.540   5.056   4.154 -0.6608  0.0808  0.1157
  904MOL0     C19230   8.585   5.016   4.025 -1.1613  0.3732  0.3569
  904MOL0     O19231   8.498   4.967   3.933  0.0954  0.1320 -0.6742
  904MOL0     C19232   8.357   4.983   3.945 -1.0985  0.3529 -0.1485
  904MOL0     C19233   8.302   4.945   3.810  0.5484  0.4200 -0.2269
  904MOL0     C19234   8.149   4.954   3.808  1.0321  0.2793 -0.6166
  904MOL0     C19235   8.090   4.935   3.667 -0.2517 -0.5748  0.3022
  904MOL0     C19236   8.049   4.789   3.650  0.5150  0.3222  0.2901
  904MOL0     C19237   7.901   4.773   3.701 -0.9968 -0.6411  1.1500
  904MOL0     C19238   7.835   4.642   3.646 -0.1658 -0.3486 -0.3565
  904MOL0     C19239   7.708   4.613   3.728  0.0254 -0.2747 -0.0273
  904MOL0    Cl19240   7.594   4.752   3.720  0.3226  0.4566  0.1507
  904MOL0     C19241   8.718   5.011   3.994 -0.2613 -0.6725  0.8415
  904MOL0     C19242   8.816   5.055   4.089  0.1336  0.1151  0.4962
  904MOL0     O19243   8.920   5.310   4.229  0.0551 -0.2381  0.0588
  904MOL0     C19244   9.074   5.390   4.443  0.9129 -0.5037  0.2666
  904MOL0     C19245   9.139   5.426   4.558 -0.0254 -0.3932 -0.6539
  904MOL0     N19246   9.455   5.560   5.180 -0.2711 -0.4513  0.3339
  904MOL0     N19247   9.576   5.594   5.225  0.5604  0.3524  0.1227
  904MOL0     C19248  10.422   6.007   6.057 -0.6555 -0.1730  0.2163
  904MOL0     C19249  10.506   6.044   6.160 -0.5821 -0.0560  0.2734
  904MOL0     C19250  10.918   6.071   6.347  0.8712 -0.6749  0.7786
  904MOL0     C19251  11.043   6.108   6.307 -0.0054 -0.7330  0.0268
  904MOL0     C19252  11.131   6.159   6.395  0.5197 -0.4712 -0.2330
  904MOL0     C19253  11.111   6.147   6.533 -0.4812  0.0211 -0.2499
  904MOL0     O19254  11.216   6.160   6.614 -0.0148 -0.3408 -0.2363
  904MOL0     C19255  11.211   6.174   6.755  0.3018 -0.4621 -0.1453
  904MOL0     C19256  11.151   6.317   6.784  0.0291  0.5209  1.4742
  904MOL0     C19257  11.146   6.356   6.932 -1.1799  0.0055 -0.3606
  904MOL0     C19258  11.280   6.330   7.008  0.1244  0.5744  0.2945
  904MOL0     C19259  11.259   6.190   7.052  0.5099  0.4768 -0.1128
  904MOL0     C19260  11.228   6.084   7.107 -0.2772  0.1950  0.1249
  904MOL0     C19261  10.986   6.112   6.567  0.3975 -0.0377 -1.0182
  904MOL0     C19262  10.885   6.085   6.480  0.2301  0.3599 -0.5683
  904MOL0     H19263  10.645   5.735   6.210 -0.9573 -0.7055 -0.3814
  904MOL0     H19264  10.496   5.672   6.048 -1.5680  0.4434 -1.8106
  904MOL0     H19265  10.288   5.858   5.719  0.1052  1.4954 -1.0420
  904MOL0     H19266  10.329   6.005   5.802 -1.0239  0.3238 -0.0208
  904MOL0     H19267  10.115   6.026   5.919  0.6997 -0.2639  0.8566
  904MOL0     H19268  10.083   5.861   5.896 -0.6226  1.5114  1.4764
  904MOL0     H19269  10.048   5.878   5.654 -1.8915  0.7621  0.2817
  904MOL0     H19270  10.101   6.044   5.642 -0.8956 -1.4085 -1.9402
  904MOL0     H19271   9.856   5.956   5.795  2.0512  0.3220  0.7841
  904MOL0     H19272   9.904   6.129   5.758  0.4851  0.2048 -0.3995
  904MOL0     H19273   9.868   6.059   5.501  2.2921 -1.3456  0.5122
  904MOL0     H19274   9.722   6.073   5.602  0.9983  1.6399 -0.0216
  904MOL0     H19275   9.713   5.831   5.649  1.6841  0.1810  0.7502
  904MOL0     H19276   9.866   5.802   5.565 -0.5094 -0.2934 -2.7031
  904MOL0     H19277   9.614   5.900   5.439  0.1719 -0.9783  1.0965
  904MOL0     H19278   9.771   5.870   5.357  0.0545  2.0185 -0.2564
  904MOL0     H19279   9.630   5.668   5.536 -0.4824  2.8020  0.1090
  904MOL0     H19280   9.741   5.629   5.401 -2.3519 -1.4033 -1.4973
  904MOL0     H19281   9.377   5.707   5.459  3.3936  0.8389  1.1350
  904MOL0     H19282   9.160   5.678   5.226  1.2530  1.8724 -2.3832
  904MOL0     H19283   9.172   5.544   5.342  2.3983  0.9992  1.9138
  904MOL0     H19284   9.071   5.421   5.161  0.3905 -0.3031  3.4070
  904MOL0     H19285   9.235   5.399   5.176  1.2442  2.0846  1.3804
  904MOL0     H19286   9.154   5.579   4.954  1.9721  0.7975  1.4250
  904MOL0     H19287   9.315   5.509   4.993  0.4514 -2.2452  0.2682
  904MOL0     H19288   9.057   5.353   4.938 -0.8623  0.7495 -2.3423
  904MOL0     H19289   9.217   5.283   4.965  0.1691  0.5987  1.3738
  904MOL0     H19290   9.099   5.154   4.747  1.0576 -0.5758 -0.4206
  904MOL0     H19291   8.969   5.082   4.545 -1.3711  0.5792  0.7453
  904MOL0     H19292   8.607   5.119   4.343  4.0013  3.0965  0.1358
  904MOL0     H19293   8.436   5.048   4.182 -0.0976 -0.5012  2.1777
  904MOL0     H19294   8.329   5.087   3.966  0.4711  0.9719 -1.0085
  904MOL0     H19295   8.311   4.920   4.022 -0.5646 -0.1273 -0.2153
  904MOL0     H19296   8.335   4.841   3.796  1.0629  0.2791  1.7336
  904MOL0     H19297   8.346   5.006   3.730  0.7505 -0.6468 -0.9525
  904MOL0     H19298   8.134   5.055   3.847  0.3418 -0.6916  1.7799
  904MOL0     H19299   8.095   4.888   3.876 -2.5419  2.4983 -1.0765
  904MOL0     H19300   8.001   4.995   3.646 -0.2891 -0.3785  1.0171
  904MOL0     H19301   8.164   4.973   3.596 -0.7313  3.4254  1.7280
  904MOL0     H19302   8.113   4.720   3.705  0.1511  0.2102  0.5750
  904MOL0     H19303   8.069   4.758   3.548 -1.4302  0.7322 -0.2581
  904MOL0     H19304   7.835   4.858   3.681  0.1423 -0.3641 -1.9481
  904MOL0     H19305   7.899   4.762   3.810  0.2214 -0.9762  1.1561
  904MOL0     H19306   7.799   4.648   3.543 -1.7779  2.3481  0.2982
  904MOL0     H19307   7.906   4.558   3.649 -0.0069 -0.2230 -0.5766
  904MOL0     H19308   7.732   4.594   3.833  1.0102 -2.0451 -0.5381
  904MOL0     H19309   7.657   4.533   3.674 -0.9120 -0.0616  0.5084
  904MOL0     H19310   8.746   4.986   3.892  0.3304 -0.4193  0.9349
  904MOL0     H19311   8.921   5.055   4.061 -0.8149  1.0678 -3.6819
  904MOL0     H19312   9.084   5.453   4.355 -0.0416 -0.8846 -0.1337
  904MOL0     H19313   9.181   5.525   4.569 -0.2986 -0.2704 -0.7030
  904MOL0     H19314  10.375   6.087   6.001  1.5052 -0.3947 -2.1002
  904MOL0     H19315  10.530   6.146   6.189  0.2054  0.4262 -1.8734
  904MOL0     H19316  11.063   6.105   6.201 -1.1233 -0.1277 -0.2148
  904MOL0     H19317  11.215   6.203   6.342 -1.1959  2.4768 -0.7192
  904MOL0     H19318  11.310   6.155   6.797  0.0243  2.2592  2.0255
  904MOL0     H19319  11.139   6.102   6.794  1.3068 -1.5815 -0.3187
  904MOL0     H19320  11.218   6.388   6.735  0.9918 -0.9180  0.6566
  904MOL0     H19321  11.061   6.325   6.722  0.6881 -0.3442  0.3782
  904MOL0     H19322  11.062   6.308   6.983  1.2163 -0.8640  3.0860
  904MOL0     H19323  11.134   6.464   6.941  0.8849  0.3110 -0.6517
  904MOL0     H19324  11.364   6.326   6.938  0.2165 -1.6053  0.4593
  904MOL0     H19325  11.297   6.395   7.095  1.2487 -0.3945  0.8345
  904MOL0     H19326  11.227   5.979   7.129  1.0175 -0.9391 -4.2931
  904MOL0     H19327  10.962   6.089   6.671 -1.0802 -0.3579 -1.3986
  904MOL0     H19328  10.788   6.062   6.524  0.9151 -0.3424  0.6109
  905MOL0     O19329  10.212  10.655   6.703 -0.1844 -0.1447 -0.2805
  905MOL0     C19330  10.327  10.609   6.713  0.8808  0.8685  0.1566
  905MOL0     O19331  10.394  10.579   6.830  0.2913 -0.5375  0.2852
  905MOL0     C19332  10.323  10.588   6.940 -0.5730  0.7968 -0.1555
  905MOL0     C19333  10.201  10.522   6.961 -0.1643  0.6209 -0.3791
  905MOL0     C19334  10.132  10.531   7.080  0.0143  0.1653 -0.4151
  905MOL0     C19335  10.188  10.610   7.179  0.1195  0.3155  1.1208
  905MOL0     O19336  10.121  10.614   7.298 -0.2451  0.2882 -0.0188
  905MOL0     C19337  10.086  10.745   7.337 -1.3585 -0.0473  0.0834
  905MOL0     C19338   9.972  10.748   7.441 -0.1886  0.3975  0.2357
  905MOL0     C19339   9.842  10.692   7.372  0.4991 -0.0395 -0.9551
  905MOL0     C19340   9.728  10.727   7.462 -0.5065  0.0597  0.0511
  905MOL0     C19341   9.582  10.686   7.402 -0.4246  0.5005  0.1486
  905MOL0     C19342   9.488  10.689   7.526  0.1190 -0.8238  0.7139
  905MOL0     C19343   9.336  10.671   7.491  0.7778  0.3686  1.2281
  905MOL0     C19344   9.291  10.522   7.442 -0.9549 -0.3449 -0.0648
  905MOL0     N19345   9.173  10.530   7.360  0.3534  0.6516  0.9580
  905MOL0     C19346   9.050  10.597   7.378 -0.1922  0.0518  0.3417
  905MOL0     C19347   8.964  10.570   7.279  0.6914 -0.1301  0.0272
  905MOL0     C19348   8.823  10.620   7.271 -0.4118 -0.1976 -0.0177
  905MOL0     C19349   8.835  10.778   7.251 -0.0233  0.0230  0.2355
  905MOL0     C19350   8.718  10.852   7.323  1.0511 -0.3247  0.7161
  905MOL0     C19351   8.587  10.803   7.268  0.7614  0.1179 -0.5127
  905MOL0     O19352   8.486  10.868   7.348  0.6903 -0.4968  0.1682
  905MOL0     C19353   8.356  10.842   7.319 -0.7176  0.3059  0.2110
  905MOL0     C19354   8.311  10.736   7.235  0.4827  0.7353 -0.0522
  905MOL0     C19355   8.171  10.720   7.222 -0.0816  0.2119  0.5076
  905MOL0     C19356   8.078  10.812   7.276  0.4840  0.2285 -0.4598
  905MOL0     C19357   7.937  10.800   7.250 -0.5963  0.4400 -0.8508
  905MOL0     O19358   7.846  10.845   7.345  0.1966  0.5086 -0.1159
  905MOL0     C19359   7.712  10.832   7.315 -0.3670 -0.9066 -0.4888
  905MOL0     C19360   7.629  10.773   7.407 -0.2575  0.1549  0.0603
  905MOL0     C19361   7.487  10.757   7.378 -0.1511  0.4548 -0.5613
  905MOL0     C19362   7.439  10.819   7.258  0.5068  1.6653  0.0144
  905MOL0     O19363   7.308  10.818   7.234  0.9102  0.0248  0.4945
  905MOL0     C19364   7.193  10.785   7.314  0.3790 -0.0192 -0.1154
  905MOL0     C19365   7.067  10.747   7.243  0.5004 -0.0340  1.2527
  905MOL0     C19366   7.009  10.874   7.176  0.3886 -0.1543 -0.0086
  905MOL0     C19367   6.884  10.856   7.086 -0.7801 -0.5368 -0.1784
  905MOL0     C19368   6.854  10.979   6.994 -0.7358  0.7685  0.5764
  905MOL0     C19369   6.727  10.947   6.915  0.1330 -0.1231 -0.2073
  905MOL0     C19370   6.684  11.070   6.829 -0.8973 -1.2332  0.9968
  905MOL0     C19371   6.540  11.050   6.787 -0.0700 -0.0303  0.0273
  905MOL0    Cl19372   6.505  10.900   6.692 -0.2019 -0.0161 -0.3667
  905MOL0     C19373   7.528  10.882   7.173 -0.1154 -0.4557 -0.2725
  905MOL0     C19374   7.666  10.894   7.200  0.7889  0.5572  0.3990
  905MOL0     O19375   7.906  10.742   7.146  0.1047  0.2093  0.4603
  905MOL0     C19376   8.124  10.922   7.352  0.5792 -0.6574  1.1474
  905MOL0     C19377   8.261  10.928   7.371  0.7374  0.0158  0.1379
  905MOL0     N19378   9.028  10.489   7.196 -0.6718  0.7107  1.0742
  905MOL0     N19379   9.146  10.463   7.239 -0.4600 -0.3298 -0.0082
  905MOL0     C19380  10.299  10.682   7.163  0.2383  0.3318  0.5472
  905MOL0     C19381  10.372  10.663   7.043  0.4264 -0.0679  1.0575
  905MOL0     C19382  10.388  10.560   6.592  0.3384 -0.4655  0.0247
  905MOL0     C19383  10.324  10.552   6.470  0.0772  0.3578  0.6200
  905MOL0     C19384  10.387  10.523   6.351  0.2250 -1.2685 -0.1605
  905MOL0     C19385  10.526  10.502   6.353  0.1953  0.1574  0.8644
  905MOL0     O19386  10.567  10.446   6.235  0.0910 -0.5753 -0.0132
  905MOL0     C19387  10.709  10.408   6.222  0.1149 -0.1157  0.5474
  905MOL0     C19388  10.749  10.374   6.083  0.2474  0.2506  0.5821
  905MOL0     C19389  10.902  10.368   6.063  0.1476  0.7838 -0.3848
  905MOL0     C19390  10.939  10.312   5.928  0.0362 -0.3898 -0.4803
  905MOL0     C19391  11.089  10.301   5.916  0.1672  0.5923 -0.5289
  905MOL0     C19392  11.211  10.276   5.910  0.1052 -0.9900  0.5504
  905MOL0     C19393  10.594  10.496   6.477  0.2259  0.5646  0.4392
  905MOL0     C19394  10.528  10.532   6.596  0.0013 -0.0437 -0.1290
  905MOL0     H19395  10.177  10.446   6.887 -1.3517  1.2922 -0.7014
  905MOL0     H19396  10.037  10.481   7.094 -0.5134  1.6952  2.0810
  905MOL0     H19397  10.057  10.797   7.245 -0.3112 -2.0579 -1.4948
  905MOL0     H19398  10.164  10.801   7.389 -0.2422 -1.2550 -0.2215
  905MOL0     H19399   9.956  10.850   7.477  0.0212  0.9461 -1.2002
  905MOL0     H19400   9.987  10.677   7.523 -2.2714 -2.9061 -1.9955
  905MOL0     H19401   9.849  10.587   7.342  1.2959 -0.7645  1.5496
  905MOL0     H19402   9.817  10.743   7.279  1.0734 -1.8114 -2.1348
  905MOL0     H19403   9.752  10.676   7.556 -0.9576 -0.6414 -0.2023
  905MOL0     H19404   9.724  10.836   7.470  3.1341  0.2204  1.3418
  905MOL0     H19405   9.571  10.585   7.361 -3.5192  1.1283 -0.8433
  905MOL0     H19406   9.561  10.756   7.321  1.7310 -0.2875 -1.1657
  905MOL0     H19407   9.498  10.777   7.590  0.6163 -0.1376 -0.2739
  905MOL0     H19408   9.529  10.613   7.593  3.8169  1.4065  1.2638
  905MOL0     H19409   9.296  10.708   7.586  0.0074 -2.2806  2.0353
  905MOL0     H19410   9.307  10.734   7.407  0.9802 -0.2118  0.7122
  905MOL0     H19411   9.280  10.451   7.525 -0.5477 -1.8978 -1.3054
  905MOL0     H19412   9.364  10.467   7.382 -0.3964  0.4180 -0.1015
  905MOL0     H19413   9.028  10.675   7.451  1.3895  1.6802 -0.8414
  905MOL0     H19414   8.766  10.607   7.363 -0.6084  0.6188 -0.0176
  905MOL0     H19415   8.774  10.577   7.184 -2.0788 -0.8423  1.1960
  905MOL0     H19416   8.838  10.790   7.142  0.2099 -2.6768 -0.1283
  905MOL0     H19417   8.929  10.808   7.296 -0.4366 -0.7847  1.7066
  905MOL0     H19418   8.722  10.830   7.430  1.4845 -2.2382  0.3451
  905MOL0     H19419   8.718  10.962   7.325 -0.9300 -0.2462 -0.9964
  905MOL0     H19420   8.573  10.698   7.295  0.5841  0.2136 -0.2238
  905MOL0     H19421   8.568  10.819   7.162 -0.9275  0.6875 -0.1608
  905MOL0     H19422   8.369  10.656   7.190 -0.9194 -1.2762  1.5048
  905MOL0     H19423   8.128  10.633   7.174  0.9368 -2.1926  3.6860
  905MOL0     H19424   7.667  10.738   7.503 -0.2435 -0.3251 -0.1161
  905MOL0     H19425   7.426  10.703   7.450  3.7228 -2.6559  0.7054
  905MOL0     H19426   7.172  10.869   7.381  4.4021  1.3581 -0.3567
  905MOL0     H19427   7.223  10.706   7.384  1.3013  1.4626  1.2076
  905MOL0     H19428   6.995  10.688   7.299  0.3257 -2.6161 -1.4553
  905MOL0     H19429   7.089  10.667   7.172 -0.9172 -1.3235  2.2155
  905MOL0     H19430   7.090  10.923   7.120  0.5119  0.9565  1.1127
  905MOL0     H19431   6.979  10.939   7.258  1.3634  1.2555 -0.7370
  905MOL0     H19432   6.908  10.773   7.019 -0.3982 -0.7848  0.2565
  905MOL0     H19433   6.796  10.839   7.149 -1.8628  3.3854 -0.3989
  905MOL0     H19434   6.937  11.005   6.928 -0.3076 -1.3516  0.2258
  905MOL0     H19435   6.840  11.063   7.063 -2.4962  1.9145 -1.0823
  905MOL0     H19436   6.645  10.946   6.987  1.4574  1.6004  1.4369
  905MOL0     H19437   6.736  10.856   6.857  1.1517 -0.7359  0.8632
  905MOL0     H19438   6.691  11.159   6.891 -3.2732  0.9034 -1.5647
  905MOL0     H19439   6.752  11.091   6.746  1.5230  1.0891  3.3642
  905MOL0     H19440   6.509  11.140   6.732 -2.5624 -1.9018 -1.8541
  905MOL0     H19441   6.483  11.047   6.880 -0.3074  1.9853  0.0024
  905MOL0     H19442   7.486  10.939   7.090 -2.6604  2.0855  2.4846
  905MOL0     H19443   7.723  10.940   7.120 -1.8070 -1.1737 -2.6936
  905MOL0     H19444   8.054  10.999   7.385  0.8158  0.7209 -1.3055
  905MOL0     H19445   8.289  11.020   7.422 -0.1954  1.1194 -1.2420
  905MOL0     H19446  10.352  10.749   7.230  2.0059  0.4086 -0.8404
  905MOL0     H19447  10.469  10.703   7.013  0.2360 -2.4255 -3.6301
  905MOL0     H19448  10.221  10.586   6.482  0.0402  0.3078  0.4428
  905MOL0     H19449  10.323  10.538   6.264 -0.6857  0.3224  0.7462
  905MOL0     H19450  10.730  10.324   6.289  0.5514  0.1082  0.6948
  905MOL0     H19451  10.764  10.498   6.251  0.5584  0.0067 -0.6183
  905MOL0     H19452  10.712  10.274   6.057  3.0647 -0.6945 -0.0853
  905MOL0     H19453  10.701  10.439   6.009  0.7671  2.1695  1.8603
  905MOL0     H19454  10.944  10.306   6.143 -1.4355  3.5103  2.8042
  905MOL0     H19455  10.951  10.466   6.074 -1.4299  1.8594 -2.2629
  905MOL0     H19456  10.889  10.220   5.896 -1.1467  0.9129 -2.5897
  905MOL0     H19457  10.898  10.386   5.859 -0.1471  0.0287  0.0699
  905MOL0     H19458  11.310  10.237   5.898 -0.8049 -3.6736  1.1655
  905MOL0     H19459  10.694  10.456   6.485 -0.1627 -0.6474 -0.4245
  905MOL0     H19460  10.573  10.537   6.695  0.5923  0.6694 -0.4208
  906MOL0     O19461  10.824   6.348  11.161  0.2526 -1.0575 -0.0063
  906MOL0     C19462  10.870   6.389  11.052  0.0783 -0.3192 -0.3271
  906MOL0     O19463  10.804   6.402  10.934 -0.5532  0.2491 -0.5590
  906MOL0     C19464  10.668   6.393  10.950  0.1578  0.4371 -0.4370
  906MOL0     C19465  10.591   6.503  10.987  0.2715  0.3907 -0.2436
  906MOL0     C19466  10.454   6.492  11.003  0.3213 -0.7043 -0.0182
  906MOL0     C19467  10.391   6.372  10.993  0.0047 -0.1668  0.5213
  906MOL0     O19468  10.258   6.343  11.003 -0.0922 -0.0823  0.0201
  906MOL0     C19469  10.162   6.449  10.992  0.0955 -0.0091 -0.6212
  906MOL0     C19470  10.023   6.385  10.989 -0.4290 -1.0840  0.7094
  906MOL0     C19471   9.919   6.475  10.926 -0.6433 -0.5806  0.7853
  906MOL0     C19472   9.793   6.382  10.901 -0.9555 -0.2950  0.6853
  906MOL0     C19473   9.681   6.399  11.003  0.4889 -0.5407 -0.2355
  906MOL0     C19474   9.610   6.538  11.016  0.2544 -1.0753  1.0578
  906MOL0     C19475   9.531   6.541  11.143 -0.0332 -0.0756 -0.6651
  906MOL0     C19476   9.424   6.649  11.123 -0.0511 -0.0972 -0.4071
  906MOL0     N19477   9.318   6.612  11.026 -0.2508  0.0539  1.0565
  906MOL0     C19478   9.258   6.490  11.019  0.5340  0.3992  0.3278
  906MOL0     C19479   9.176   6.501  10.916  0.3625 -0.0155 -0.3424
  906MOL0     C19480   9.090   6.390  10.861 -0.2060  0.5170 -0.5284
  906MOL0     C19481   9.046   6.421  10.715  0.4295 -0.1600 -0.1518
  906MOL0     C19482   8.910   6.488  10.723  0.2225  0.5813 -0.7460
  906MOL0     C19483   8.870   6.558  10.591  0.3371  0.6432  0.1976
  906MOL0     O19484   8.924   6.690  10.572  0.4135 -0.9346  0.8791
  906MOL0     C19485   8.843   6.803  10.562  0.0834 -0.1332 -0.5605
  906MOL0     C19486   8.726   6.812  10.646  0.3237 -0.2077  0.1766
  906MOL0     C19487   8.634   6.917  10.634  0.2981 -0.2403 -0.7930
  906MOL0     C19488   8.645   7.000  10.522 -0.0217 -0.3964  0.4418
  906MOL0     C19489   8.547   7.106  10.493 -0.4831  0.3946  0.4583
  906MOL0     O19490   8.437   7.121  10.580 -0.2095 -0.6067 -0.5451
  906MOL0     C19491   8.332   7.191  10.527 -0.4176 -0.0497 -0.2280
  906MOL0     C19492   8.265   7.151  10.405 -0.0207  0.3045 -0.2723
  906MOL0     C19493   8.157   7.224  10.365  0.9301  1.0351  0.2741
  906MOL0     C19494   8.128   7.347  10.415  0.4339  0.0534 -0.0303
  906MOL0     O19495   8.016   7.410  10.363 -0.4516  0.2159 -0.1613
  906MOL0     C19496   8.052   7.532  10.319  0.4836 -1.0315  0.6514
  906MOL0     C19497   7.935   7.637  10.333  0.1812 -0.0443 -0.1333
  906MOL0     C19498   7.828   7.615  10.232  0.5051  0.9906  0.6701
  906MOL0     C19499   7.760   7.479  10.245  0.4703 -0.3679  0.4566
  906MOL0     C19500   7.620   7.480  10.204 -0.1108 -0.4025 -0.1541
  906MOL0     C19501   7.576   7.339  10.196 -0.1209  0.3448  0.4463
  906MOL0     C19502   7.440   7.306  10.145  0.1821 -0.1768 -0.2331
  906MOL0     C19503   7.306   7.367  10.196  0.1613 -0.3607  0.4173
  906MOL0    Cl19504   7.294   7.347  10.369 -0.4292  0.4139 -0.2848
  906MOL0     C19505   8.197   7.388  10.533  0.2265  0.1561 -0.0687
  906MOL0     C19506   8.298   7.315  10.594 -0.4273  0.3212  0.3624
  906MOL0     O19507   8.564   7.161  10.383  0.5317  0.5923 -0.1733
  906MOL0     C19508   8.753   6.986  10.432 -0.3860  0.9862 -0.0395
  906MOL0     C19509   8.849   6.883  10.450  0.5209 -0.2785  0.0787
  906MOL0     N19510   9.163   6.630  10.871 -0.1560  0.3131  0.2026
  906MOL0     N19511   9.253   6.696  10.941  0.3789  0.0434 -0.4874
  906MOL0     C19512  10.469   6.260  10.970 -0.3889 -0.2645 -0.0027
  906MOL0     C19513  10.607   6.269  10.930 -0.4384 -0.9853  0.4204
  906MOL0     C19514  11.014   6.420  11.062 -0.4494 -0.2465  0.4256
  906MOL0     C19515  11.090   6.391  11.180 -0.3190 -0.1801  0.4319
  906MOL0     C19516  11.229   6.408  11.169  1.2583 -0.5972 -1.0490
  906MOL0     C19517  11.292   6.457  11.057  0.4562 -0.6737  0.2690
  906MOL0     O19518  11.429   6.467  11.066  0.6196  0.3971  0.4088
  906MOL0     C19519  11.501   6.520  10.952 -0.6160  0.7870 -0.4391
  906MOL0     C19520  11.646   6.541  10.987 -0.2758 -0.5972 -0.6655
  906MOL0     C19521  11.672   6.600  11.128  0.1721  0.5349  0.0487
  906MOL0     C19522  11.815   6.593  11.159 -0.4968  0.6155  0.2447
  906MOL0     C19523  11.829   6.636  11.297 -0.1872 -0.1099  0.4746
  906MOL0     C19524  11.846   6.658  11.411 -0.6039 -0.0829  0.4534
  906MOL0     C19525  11.219   6.479  10.941  0.8760 -0.4669  0.0171
  906MOL0     C19526  11.078   6.471  10.946  0.2844  0.2336  0.5593
  906MOL0     H19527  10.630   6.601  11.011 -0.8235  1.0361 -1.0115
  906MOL0     H19528  10.398   6.584  11.021  0.5770 -0.4713 -0.3908
  906MOL0     H19529  10.182   6.500  10.898 -0.5039 -1.1722 -1.3955
  906MOL0     H19530  10.161   6.517  11.078  1.7649  1.9558 -2.0405
  906MOL0     H19531   9.994   6.356  11.090 -1.3900  1.7756  1.3448
  906MOL0     H19532  10.035   6.295  10.928  2.0961  1.4736 -3.0006
  906MOL0     H19533   9.965   6.514  10.835  0.0721 -0.6734  1.0999
  906MOL0     H19534   9.897   6.563  10.986 -1.3573  1.2083 -1.9189
  906MOL0     H19535   9.753   6.413  10.804  1.0911  3.1856  0.7923
  906MOL0     H19536   9.816   6.275  10.891 -1.3908 -0.2947 -0.3674
  906MOL0     H19537   9.733   6.400  11.099  1.2049  1.8499 -0.6000
  906MOL0     H19538   9.610   6.319  10.979  0.0439  0.4887 -2.7441
  906MOL0     H19539   9.544   6.540  10.929  0.7069  0.4548  0.7297
  906MOL0     H19540   9.674   6.623  10.994  0.2543 -1.6403 -1.4387
  906MOL0     H19541   9.482   6.446  11.164 -1.4325  0.6313 -0.6437
  906MOL0     H19542   9.607   6.576  11.213  0.3472 -2.9052  0.4479
  906MOL0     H19543   9.475   6.742  11.097  1.5008 -0.1696  2.0757
  906MOL0     H19544   9.386   6.663  11.225  0.6683 -0.3056 -0.1072
  906MOL0     H19545   9.290   6.395  11.059  3.8445  1.4319  0.4531
  906MOL0     H19546   9.000   6.393  10.923  0.0089  2.5486 -0.2665
  906MOL0     H19547   9.148   6.297  10.867  0.3797  0.6051 -3.5325
  906MOL0     H19548   9.044   6.337  10.645 -3.3729  1.4193 -2.2542
  906MOL0     H19549   9.121   6.489  10.673 -1.2724  0.9920 -1.4903
  906MOL0     H19550   8.841   6.408  10.752 -0.5247  0.8077 -1.8546
  906MOL0     H19551   8.904   6.572  10.793 -3.2919  2.1636 -2.6552
  906MOL0     H19552   8.762   6.568  10.579  0.2300  0.1326  0.7218
  906MOL0     H19553   8.901   6.491  10.510 -0.6432 -1.0044  1.1237
  906MOL0     H19554   8.702   6.741  10.724 -1.9588  1.7478  1.3744
  906MOL0     H19555   8.543   6.924  10.692  0.0892  0.1975 -1.1688
  906MOL0     H19556   8.295   7.060  10.354 -0.0276 -0.5359  1.1830
  906MOL0     H19557   8.093   7.190  10.285  3.2112 -1.9314 -0.4742
  906MOL0     H19558   8.084   7.518  10.215 -3.0297  1.7004 -0.9821
  906MOL0     H19559   8.125   7.584  10.382 -0.0487  1.0224 -0.3355
  906MOL0     H19560   7.970   7.740  10.320  1.3679 -0.6786 -2.7688
  906MOL0     H19561   7.889   7.640  10.432 -0.5736 -1.0306 -0.4296
  906MOL0     H19562   7.867   7.609  10.130 -0.1927 -3.0457  0.4653
  906MOL0     H19563   7.758   7.699  10.236 -0.5646  0.3236 -1.9165
  906MOL0     H19564   7.819   7.395  10.209 -0.7376 -0.5538 -1.1715
  906MOL0     H19565   7.752   7.461  10.353  1.2648 -2.2919  0.2272
  906MOL0     H19566   7.608   7.521  10.104  1.3937 -1.9952 -1.0527
  906MOL0     H19567   7.553   7.541  10.265 -0.2919 -0.5431 -0.2143
  906MOL0     H19568   7.584   7.303  10.299 -0.3733 -0.2134  0.2756
  906MOL0     H19569   7.645   7.272  10.145  0.6369 -1.7399  3.8567
  906MOL0     H19570   7.441   7.316  10.037  1.9786 -1.4426 -0.3723
  906MOL0     H19571   7.434   7.199  10.168  0.3260  0.0496  0.9398
  906MOL0     H19572   7.232   7.300  10.152  2.3364 -2.8669  0.2731
  906MOL0     H19573   7.297   7.472  10.168 -1.5294 -0.2231  1.3602
  906MOL0     H19574   8.163   7.480  10.579  1.0599 -0.2695  1.4634
  906MOL0     H19575   8.353   7.333  10.686 -1.0015  0.0007  0.7701
  906MOL0     H19576   8.761   7.043  10.340 -0.0358 -2.2171 -2.1448
  906MOL0     H19577   8.930   6.876  10.378 -0.8400  1.5767 -1.7123
  906MOL0     H19578  10.420   6.163  10.981 -0.6897  0.1419  3.0573
  906MOL0     H19579  10.663   6.180  10.901 -0.7338 -0.7745 -0.8395
  906MOL0     H19580  11.044   6.353  11.271 -0.8985 -1.8967 -0.5258
  906MOL0     H19581  11.293   6.375  11.250 -1.6314 -2.3673  0.6893
  906MOL0     H19582  11.447   6.614  10.937 -0.8640  0.6591 -0.3457
  906MOL0     H19583  11.499   6.459  10.861  2.4313  0.2195 -0.2307
  906MOL0     H19584  11.690   6.441  10.977 -2.2187 -1.7478  1.3019
  906MOL0     H19585  11.689   6.614  10.917  0.9066 -0.3937  0.2411
  906MOL0     H19586  11.618   6.546  11.206  0.9899 -1.2672 -0.5776
  906MOL0     H19587  11.632   6.702  11.129 -3.0047 -0.5907  0.9290
  906MOL0     H19588  11.848   6.490  11.141 -0.1033  1.1684 -2.6964
  906MOL0     H19589  11.868   6.667  11.099  1.1565  0.0439  0.9024
  906MOL0     H19590  11.873   6.672  11.513 -1.7336  1.1380  0.6051
  906MOL0     H19591  11.266   6.510  10.848 -0.3775 -1.9601 -1.1776
  906MOL0     H19592  11.023   6.495  10.855  1.1377 -1.6180 -0.4908
  907MOL0     O19593   1.397   3.704   2.108 -0.4358 -0.1314  0.2491
  907MOL0     C19594   1.433   3.821   2.105 -0.1072  0.5255 -0.4503
  907MOL0     O19595   1.341   3.928   2.096  0.2087  0.9786 -0.0301
  907MOL0     C19596   1.201   3.896   2.081 -1.1618 -1.3199  0.2063
  907MOL0     C19597   1.124   3.982   1.999 -0.0534 -0.0453 -0.1165
  907MOL0     C19598   0.992   3.957   1.965 -0.1841  0.0101 -0.6633
  907MOL0     C19599   0.926   3.842   2.023  0.0573  0.7784 -0.5009
  907MOL0     O19600   0.793   3.808   1.998  0.1084 -0.4918 -0.3877
  907MOL0     C19601   0.761   3.777   1.860 -0.7090  0.5071 -1.1776
  907MOL0     C19602   0.604   3.777   1.842 -0.1180  0.0835  0.5277
  907MOL0     C19603   0.562   3.744   1.694  0.6597  0.3194  0.4282
  907MOL0     C19604   0.620   3.839   1.592  0.0099  0.4144 -0.3491
  907MOL0     C19605   0.575   3.831   1.453  0.3092  0.5187 -0.7103
  907MOL0     C19606   0.434   3.889   1.430  0.3888 -0.0179  1.5110
  907MOL0     C19607   0.408   3.895   1.273 -0.1754  0.4313  0.4590
  907MOL0     C19608   0.282   3.964   1.230 -0.1007 -0.0580 -0.1880
  907MOL0     N19609   0.168   3.937   1.309  0.3541  0.6299 -0.5197
  907MOL0     C19610   0.072   3.847   1.283 -0.4618  0.4438  0.1581
  907MOL0     C19611  -0.018   3.847   1.378  0.0339  0.2289  0.8403
  907MOL0     C19612  -0.148   3.774   1.392  0.4589  0.1776  0.3332
  907MOL0     C19613  -0.252   3.865   1.454  0.0360  0.7070  0.1303
  907MOL0     C19614  -0.300   3.974   1.355 -0.7024 -0.0946  0.1936
  907MOL0     C19615  -0.432   4.035   1.422  0.3696  0.0273  0.6137
  907MOL0     O19616  -0.550   3.954   1.392 -0.4374 -0.2854  0.0917
  907MOL0     C19617  -0.669   3.988   1.443  0.9700  0.4700  0.4930
  907MOL0     C19618  -0.691   4.102   1.515 -0.0908 -0.8201  0.0107
  907MOL0     C19619  -0.809   4.121   1.580  1.0572 -0.1468 -0.3698
  907MOL0     C19620  -0.916   4.029   1.561  0.0593  0.0886  0.8556
  907MOL0     C19621  -1.037   4.051   1.637  0.2599 -0.1013 -0.6089
  907MOL0     O19622  -1.044   4.165   1.709  0.0538  0.1188 -0.0470
  907MOL0     C19623  -1.162   4.207   1.774 -0.9618  0.7380 -0.6145
  907MOL0     C19624  -1.155   4.323   1.849 -0.1466 -0.7023 -0.8092
  907MOL0     C19625  -1.269   4.382   1.899  1.4727 -0.2810  0.3095
  907MOL0     C19626  -1.392   4.318   1.895  0.0676 -0.2368 -1.1548
  907MOL0     O19627  -1.486   4.371   1.976  0.5454  0.8153 -0.0948
  907MOL0     C19628  -1.609   4.290   1.996 -0.1491  0.8969  0.1502
  907MOL0     C19629  -1.679   4.338   2.122 -0.2101 -0.3972 -0.5442
  907MOL0     C19630  -1.755   4.468   2.096 -0.9006  0.5546 -0.1185
  907MOL0     C19631  -1.871   4.497   2.187  0.3842 -0.3862 -0.7703
  907MOL0     C19632  -1.909   4.643   2.190 -0.5904  0.7959  0.3921
  907MOL0     C19633  -2.040   4.674   2.263  0.2881  0.2852 -0.2026
  907MOL0     C19634  -2.090   4.814   2.246  0.1505 -0.1201  0.2382
  907MOL0     C19635  -2.243   4.808   2.275  1.4113 -0.2539 -0.4466
  907MOL0    Cl19636  -2.275   4.733   2.434  0.4982 -0.1558  0.3715
  907MOL0     C19637  -1.397   4.200   1.818  0.4050  0.1802 -1.3780
  907MOL0     C19638  -1.281   4.144   1.768  0.3677 -0.1735 -0.2947
  907MOL0     O19639  -1.113   3.955   1.640  0.4270 -0.1247  0.2327
  907MOL0     C19640  -0.893   3.922   1.481  0.2178  0.1745 -0.5362
  907MOL0     C19641  -0.770   3.898   1.424  0.0590 -0.3254  0.0955
  907MOL0     N19642   0.029   3.942   1.465  0.3342  0.2104 -0.0657
  907MOL0     N19643   0.141   3.985   1.435  0.1282 -0.6148  0.4283
  907MOL0     C19644   1.000   3.762   2.115  0.2118 -0.8531 -0.7582
  907MOL0     C19645   1.132   3.793   2.150  0.0190  0.6479  0.8071
  907MOL0     C19646   1.568   3.865   2.131 -0.1987 -0.2354  0.5184
  907MOL0     C19647   1.664   3.773   2.173 -0.4408  0.4862  0.6129
  907MOL0     C19648   1.801   3.816   2.180 -0.1811  0.7201  0.0993
  907MOL0     C19649   1.839   3.952   2.162  0.4217 -0.0594  0.2417
  907MOL0     O19650   1.964   4.003   2.164 -0.5227  0.0138 -0.6385
  907MOL0     C19651   2.068   3.908   2.148 -0.0056 -1.1206  0.0019
  907MOL0     C19652   2.183   3.976   2.071 -0.5949 -0.6586  0.0976
  907MOL0     C19653   2.286   3.873   2.045 -0.6458  0.1340 -0.1615
  907MOL0     C19654   2.358   3.884   1.907 -0.3779  0.0130  0.2024
  907MOL0     C19655   2.259   3.854   1.807 -0.2697  0.6338  0.7332
  907MOL0     C19656   2.172   3.823   1.730  0.8333 -0.3104 -0.3163
  907MOL0     C19657   1.738   4.047   2.131 -0.2735  0.3019  0.5946
  907MOL0     C19658   1.601   4.005   2.114 -0.0595 -0.5106  0.4669
  907MOL0     H19659   1.183   4.063   1.957  0.9943 -1.6383 -1.8694
  907MOL0     H19660   0.940   4.031   1.907 -0.1688  1.4149  1.0265
  907MOL0     H19661   0.801   3.677   1.840  1.9276  1.2821 -0.1788
  907MOL0     H19662   0.809   3.850   1.795  0.5981  1.0016  0.2843
  907MOL0     H19663   0.564   3.870   1.885 -1.1225  0.0349 -0.2638
  907MOL0     H19664   0.564   3.698   1.905 -3.0836 -1.2427 -2.7143
  907MOL0     H19665   0.453   3.733   1.685  0.5332  0.3780  1.7018
  907MOL0     H19666   0.614   3.651   1.672 -2.0099 -0.8579 -1.3290
  907MOL0     H19667   0.601   3.938   1.636 -2.3094  0.3846 -1.1778
  907MOL0     H19668   0.727   3.816   1.596 -0.0341  0.1340 -0.7966
  907MOL0     H19669   0.575   3.726   1.425 -2.5794 -0.0206  0.9208
  907MOL0     H19670   0.652   3.891   1.403  1.3921  1.2725  1.7100
  907MOL0     H19671   0.412   3.986   1.476  0.1847 -0.3095  2.0280
  907MOL0     H19672   0.361   3.827   1.482 -1.1424  0.3681 -0.0715
  907MOL0     H19673   0.483   3.957   1.224 -2.9145  0.8531 -3.6878
  907MOL0     H19674   0.411   3.794   1.231  0.8240  0.4470  0.4796
  907MOL0     H19675   0.261   3.954   1.123  1.5637 -1.1708 -0.4494
  907MOL0     H19676   0.300   4.068   1.257  1.5907 -0.5633  0.7454
  907MOL0     H19677   0.062   3.790   1.191 -0.8216 -0.4285  0.7173
  907MOL0     H19678  -0.119   3.695   1.461  3.2025  1.1920  0.4438
  907MOL0     H19679  -0.173   3.728   1.296  0.1901  0.0648  0.4559
  907MOL0     H19680  -0.213   3.914   1.543  0.8349 -0.7088  0.5926
  907MOL0     H19681  -0.328   3.795   1.491  2.9091 -1.8651  1.6134
  907MOL0     H19682  -0.226   4.052   1.338  0.3313 -0.8269  1.1757
  907MOL0     H19683  -0.323   3.934   1.255 -3.7133  3.3536 -0.7043
  907MOL0     H19684  -0.451   4.132   1.375 -1.9626 -0.2937  0.7346
  907MOL0     H19685  -0.412   4.048   1.529 -1.2470  0.3105  0.9189
  907MOL0     H19686  -0.614   4.176   1.534 -1.1929  1.0476 -2.3221
  907MOL0     H19687  -0.819   4.205   1.648  2.0408  0.4681 -0.9780
  907MOL0     H19688  -1.064   4.376   1.875  0.3491 -0.7096 -2.3900
  907MOL0     H19689  -1.250   4.464   1.968 -1.5649  3.0049 -2.3838
  907MOL0     H19690  -1.573   4.189   2.016  2.4636  2.0485  1.8352
  907MOL0     H19691  -1.665   4.286   1.903  4.4098  0.8405 -2.9172
  907MOL0     H19692  -1.621   4.357   2.212 -1.1510  1.2764 -0.2622
  907MOL0     H19693  -1.753   4.260   2.143 -0.3237  0.0132  0.6338
  907MOL0     H19694  -1.787   4.466   1.992  0.7081  0.9773 -0.6573
  907MOL0     H19695  -1.685   4.551   2.110 -2.2128  1.5910  0.5296
  907MOL0     H19696  -1.956   4.444   2.143 -0.3455 -0.7825  1.0111
  907MOL0     H19697  -1.869   4.449   2.285 -1.6333 -1.4240 -1.1798
  907MOL0     H19698  -1.926   4.676   2.087 -0.1738 -0.5503 -0.1294
  907MOL0     H19699  -1.822   4.693   2.233 -0.8207  1.6005 -0.0602
  907MOL0     H19700  -2.040   4.649   2.369  0.5175 -0.0140 -0.2737
  907MOL0     H19701  -2.108   4.601   2.218 -0.0414 -0.7126  1.8222
  907MOL0     H19702  -2.030   4.885   2.305 -0.1373 -1.1881  1.8918
  907MOL0     H19703  -2.076   4.854   2.145  4.3129  1.6987  1.3145
  907MOL0     H19704  -2.300   4.754   2.199 -0.9996 -0.3953  1.3692
  907MOL0     H19705  -2.283   4.910   2.278  0.2487 -0.6850 -0.8337
  907MOL0     H19706  -1.481   4.131   1.812 -1.1776  1.6009  1.9844
  907MOL0     H19707  -1.294   4.054   1.708  0.7538  0.4900 -1.3988
  907MOL0     H19708  -0.974   3.850   1.477 -1.8551  2.3601 -0.5702
  907MOL0     H19709  -0.750   3.815   1.357  0.1593  0.4226 -0.8161
  907MOL0     H19710   0.950   3.685   2.172 -0.5775  2.8787  4.2280
  907MOL0     H19711   1.185   3.721   2.212 -1.6966 -0.8824  0.5834
  907MOL0     H19712   1.642   3.667   2.172  1.7348 -0.0628 -2.3016
  907MOL0     H19713   1.881   3.744   2.197  0.3936  1.2427 -0.3876
  907MOL0     H19714   2.031   3.827   2.085 -3.1895 -0.0268  0.3000
  907MOL0     H19715   2.095   3.870   2.247 -0.3196 -0.8979  0.1756
  907MOL0     H19716   2.141   4.023   1.981  0.8143  0.2362 -0.1337
  907MOL0     H19717   2.230   4.058   2.127 -1.0220 -1.4572  1.6736
  907MOL0     H19718   2.245   3.772   2.041  2.0518 -1.0443 -0.1957
  907MOL0     H19719   2.363   3.872   2.123  1.6955  1.8804 -2.2848
  907MOL0     H19720   2.408   3.981   1.898  0.3154 -0.4227 -0.7700
  907MOL0     H19721   2.430   3.803   1.896 -0.6044 -0.3936  1.4827
  907MOL0     H19722   2.091   3.802   1.662  0.4866 -1.7131  0.4852
  907MOL0     H19723   1.760   4.152   2.116 -2.1761  0.5155 -1.0853
  907MOL0     H19724   1.530   4.073   2.069  1.2525  0.1132 -0.7787
  908MOL0     O19725   6.322   4.704   9.748  0.7117  0.2016  1.0435
  908MOL0     C19726   6.392   4.662   9.834  0.2995 -0.4834  0.5924
  908MOL0     O19727   6.352   4.578   9.938  0.3199  0.7611 -0.1515
  908MOL0     C19728   6.244   4.496   9.936 -0.6361  0.6814  0.3635
  908MOL0     C19729   6.270   4.366   9.884  0.4950 -0.0373  0.1842
  908MOL0     C19730   6.169   4.266   9.880  0.0020  0.0652 -0.7023
  908MOL0     C19731   6.042   4.304   9.936 -0.4376  0.2299 -0.3889
  908MOL0     O19732   5.937   4.219   9.961  0.1001  0.3065  0.5771
  908MOL0     C19733   5.884   4.139   9.848 -0.5603 -0.0127  0.0980
  908MOL0     C19734   5.769   4.049   9.887 -0.1108  0.1664  0.0872
  908MOL0     C19735   5.654   4.119   9.963  0.1652 -0.3217  0.1732
  908MOL0     C19736   5.545   4.029  10.020 -0.8362 -0.8271  0.6345
  908MOL0     C19737   5.420   4.112  10.051  1.0364  0.1906 -0.3193
  908MOL0     C19738   5.328   4.025  10.133 -0.0940 -0.7634 -0.5642
  908MOL0     C19739   5.194   4.084  10.184  0.2261 -0.0349  0.0201
  908MOL0     C19740   5.095   4.126  10.073 -0.0975 -0.4923  1.2183
  908MOL0     N19741   5.036   4.002  10.023 -1.0709  0.9900 -0.5617
  908MOL0     C19742   4.937   3.924  10.084 -0.5812  1.1874  0.8554
  908MOL0     C19743   4.899   3.830   9.996  1.1038 -0.2505 -0.0521
  908MOL0     C19744   4.778   3.738  10.024  0.0651  0.4726  0.1400
  908MOL0     C19745   4.814   3.634  10.125  0.3474  0.3507 -0.4493
  908MOL0     C19746   4.694   3.563  10.193 -0.2932  0.2875  0.9151
  908MOL0     C19747   4.628   3.660  10.298  0.2467  0.2591 -0.5026
  908MOL0     O19748   4.533   3.585  10.382 -0.4337  0.3433  0.3118
  908MOL0     C19749   4.407   3.546  10.333  0.3422  0.6613 -0.3333
  908MOL0     C19750   4.332   3.452  10.407  0.2748  0.0695  0.7644
  908MOL0     C19751   4.210   3.407  10.351  0.2470  0.1370 -0.1476
  908MOL0     C19752   4.162   3.443  10.216 -0.1550  0.8456  0.1386
  908MOL0     C19753   4.050   3.374  10.151 -0.0405  0.4858 -0.3381
  908MOL0     O19754   3.963   3.319  10.241  0.1548  0.5546  0.5866
  908MOL0     C19755   3.834   3.271  10.215 -0.2060  0.2860 -0.2353
  908MOL0     C19756   3.729   3.345  10.155 -0.2718  0.5370  0.7665
  908MOL0     C19757   3.596   3.293  10.141 -0.4723 -0.0726 -0.1801
  908MOL0     C19758   3.567   3.162  10.196 -0.5979 -0.7063  0.4043
  908MOL0     O19759   3.463   3.089  10.152 -0.8578  0.4407  0.3446
  908MOL0     C19760   3.356   3.057  10.246 -0.1245  0.0837 -0.0929
  908MOL0     C19761   3.307   3.193  10.301  0.1860 -0.0770  1.2102
  908MOL0     C19762   3.191   3.184  10.396 -0.6009 -0.0424 -0.0692
  908MOL0     C19763   3.058   3.194  10.320 -0.0218 -0.4369  0.5050
  908MOL0     C19764   2.943   3.214  10.423 -0.0771 -0.4085 -0.1186
  908MOL0     C19765   2.800   3.214  10.362 -0.7856 -0.1249  0.3999
  908MOL0     C19766   2.699   3.267  10.463  0.4219  0.0731 -0.3916
  908MOL0     C19767   2.549   3.265  10.431  0.1659 -0.1223  0.4947
  908MOL0    Cl19768   2.527   3.307  10.256 -0.3147  0.2846  0.0349
  908MOL0     C19769   3.671   3.099  10.268  0.3627 -0.5198 -0.9643
  908MOL0     C19770   3.798   3.157  10.290 -0.1665 -0.3679 -0.3706
  908MOL0     O19771   4.048   3.364  10.025 -0.6491 -0.6760  0.2324
  908MOL0     C19772   4.242   3.537  10.150 -0.4725 -0.9013  0.8042
  908MOL0     C19773   4.361   3.584  10.206  0.2416 -0.5485 -0.3039
  908MOL0     N19774   4.972   3.850   9.885  0.7283  0.4353  0.5714
  908MOL0     N19775   5.060   3.947   9.904 -0.4302 -0.9040 -0.0247
  908MOL0     C19776   6.019   4.434   9.991 -0.2994  0.0321  0.0113
  908MOL0     C19777   6.123   4.531   9.979  0.3235 -0.1899 -1.0803
  908MOL0     C19778   6.530   4.714   9.835  0.5802  0.9198  0.5373
  908MOL0     C19779   6.579   4.834   9.759  0.1938 -0.8398  0.1021
  908MOL0     C19780   6.715   4.861   9.758  0.3379 -0.1139 -0.7545
  908MOL0     C19781   6.799   4.775   9.831  0.3669  0.7234 -0.5631
  908MOL0     O19782   6.932   4.777   9.823  0.3105  1.0939 -0.0581
  908MOL0     C19783   7.007   4.872   9.749  0.5294  0.1339  0.2826
  908MOL0     C19784   7.152   4.822   9.736  0.0366 -0.9398 -0.4954
  908MOL0     C19785   7.214   4.806   9.872  0.2064 -0.1882  0.2286
  908MOL0     C19786   7.217   4.934   9.957 -0.6313  0.0664 -0.4503
  908MOL0     C19787   7.266   5.054   9.883 -0.1519 -0.0070 -0.6380
  908MOL0     C19788   7.302   5.153   9.832 -0.0957 -0.6453  0.1610
  908MOL0     C19789   6.756   4.662   9.901 -0.6626  0.3689 -0.1354
  908MOL0     C19790   6.623   4.635   9.905  0.4704  0.5070 -0.7392
  908MOL0     H19791   6.367   4.342   9.841  0.6011 -0.8914  0.8838
  908MOL0     H19792   6.182   4.165   9.842  0.8946  0.1635 -0.6649
  908MOL0     H19793   5.974   4.085   9.814  0.1930  0.9899  0.4547
  908MOL0     H19794   5.851   4.199   9.763  0.3530 -0.0656 -0.3064
  908MOL0     H19795   5.807   3.960   9.937 -2.3436 -0.6878  0.3912
  908MOL0     H19796   5.733   4.004   9.794  0.0992  0.8324 -0.3272
  908MOL0     H19797   5.615   4.201   9.902  1.3866  1.5097  1.7235
  908MOL0     H19798   5.689   4.185  10.043 -1.8984 -1.8469  2.4290
  908MOL0     H19799   5.504   3.965   9.941 -1.9252 -1.1546  1.4293
  908MOL0     H19800   5.584   3.976  10.107  1.6929 -0.2287 -0.0483
  908MOL0     H19801   5.367   4.144   9.961  0.2115 -1.4436 -0.4541
  908MOL0     H19802   5.443   4.207  10.099 -0.0626  0.5891 -0.5680
  908MOL0     H19803   5.391   3.988  10.215  1.9180  3.0502 -0.1566
  908MOL0     H19804   5.294   3.941  10.073 -0.0279  0.5378 -2.5427
  908MOL0     H19805   5.146   4.006  10.242  2.2286 -0.6103  1.0024
  908MOL0     H19806   5.223   4.161  10.256  2.4593  1.3469 -2.1529
  908MOL0     H19807   5.141   4.177   9.988 -1.2030 -1.7959 -0.2272
  908MOL0     H19808   5.016   4.188  10.115 -0.1112  0.0823  0.3794
  908MOL0     H19809   4.884   3.921  10.179 -3.4941 -3.9682 -0.5700
  908MOL0     H19810   4.749   3.693   9.928  0.1749  2.5107 -0.8989
  908MOL0     H19811   4.697   3.804  10.058  0.6128 -0.1562  2.9203
  908MOL0     H19812   4.878   3.682  10.199 -1.5427  1.4142  0.5628
  908MOL0     H19813   4.874   3.565  10.064  0.9548  1.4694 -1.1690
  908MOL0     H19814   4.623   3.526  10.119 -0.1336 -0.4001  1.0969
  908MOL0     H19815   4.738   3.472  10.235  0.9095  0.1482 -0.5787
  908MOL0     H19816   4.593   3.752  10.250  1.7102  0.4878 -1.2018
  908MOL0     H19817   4.709   3.701  10.359  1.1578 -0.2934 -1.3151
  908MOL0     H19818   4.361   3.422  10.507  0.1800  0.2301  0.8419
  908MOL0     H19819   4.155   3.334  10.409  0.6468  1.0343  1.4196
  908MOL0     H19820   3.743   3.450  10.132 -1.2657  1.3070  3.3771
  908MOL0     H19821   3.517   3.349  10.091 -0.7211  1.3914  1.7323
  908MOL0     H19822   3.404   3.002  10.327  0.1179  0.5238  0.0644
  908MOL0     H19823   3.275   2.994  10.208 -0.9984 -1.4197  3.8475
  908MOL0     H19824   3.279   3.245  10.209  0.2058 -2.2532 -0.0994
  908MOL0     H19825   3.382   3.240  10.366 -2.4519  0.5085  4.0247
  908MOL0     H19826   3.204   3.265  10.468 -0.1952  1.1126 -1.3883
  908MOL0     H19827   3.208   3.088  10.445  1.9289 -0.6878 -1.9898
  908MOL0     H19828   3.054   3.272  10.243 -1.4304  0.0750  1.0550
  908MOL0     H19829   3.033   3.101  10.268 -1.5780 -1.1659  2.4083
  908MOL0     H19830   2.955   3.312  10.471  1.1064 -0.9496  0.7202
  908MOL0     H19831   2.958   3.137  10.499 -2.0283 -0.5828  0.1478
  908MOL0     H19832   2.791   3.106  10.345  2.5791 -0.5681  0.8030
  908MOL0     H19833   2.799   3.273  10.270 -0.3950 -0.0207  0.4623
  908MOL0     H19834   2.701   3.203  10.552 -0.6753 -1.0925 -1.1726
  908MOL0     H19835   2.726   3.369  10.490 -0.2904 -0.4036  2.4438
  908MOL0     H19836   2.495   3.337  10.494 -2.3948 -1.7160  0.2677
  908MOL0     H19837   2.504   3.170  10.462  2.4612 -0.6060  2.5901
  908MOL0     H19838   3.646   3.005  10.317 -2.1044 -1.1963 -3.3039
  908MOL0     H19839   3.879   3.117  10.350 -0.1542 -2.3731 -1.6318
  908MOL0     H19840   4.213   3.572  10.051 -0.8196  0.5017  1.3823
  908MOL0     H19841   4.404   3.658  10.139 -2.8701  0.3123 -1.5409
  908MOL0     H19842   5.923   4.473  10.025  0.2558  0.0048  1.7293
  908MOL0     H19843   6.118   4.635  10.010  2.4019 -0.5883  0.9392
  908MOL0     H19844   6.509   4.909   9.722 -0.6573 -0.0872  2.9846
  908MOL0     H19845   6.750   4.945   9.699  3.2916 -0.4944  0.2646
  908MOL0     H19846   7.008   4.976   9.783  1.9214  0.2385  0.0036
  908MOL0     H19847   6.962   4.882   9.649  0.3243 -2.7120  0.0064
  908MOL0     H19848   7.147   4.731   9.674 -2.0645  0.9883 -3.4379
  908MOL0     H19849   7.204   4.885   9.663  0.8385 -1.9971 -0.8781
  908MOL0     H19850   7.317   4.779   9.850 -0.5239 -0.9184 -2.7423
  908MOL0     H19851   7.167   4.720   9.920  0.9650 -1.2957 -0.9592
  908MOL0     H19852   7.117   4.957   9.998  0.4002  2.1446  1.1065
  908MOL0     H19853   7.278   4.910  10.044  1.5410 -3.9073 -2.8161
  908MOL0     H19854   7.330   5.238   9.773 -0.7580  0.2182  1.0519
  908MOL0     H19855   6.830   4.590   9.935  0.5860  0.0876 -3.2086
  908MOL0     H19856   6.588   4.544   9.952 -0.1177  1.4052  0.6288
  909MOL0     O19857   9.444   1.191   8.621 -0.3611  0.4598  0.1127
  909MOL0     C19858   9.478   1.271   8.698 -0.0648 -1.2717 -0.6398
  909MOL0     O19859   9.415   1.388   8.727  0.0095  0.3284 -0.1892
  909MOL0     C19860   9.329   1.428   8.631 -0.1583 -0.4229 -0.5035
  909MOL0     C19861   9.211   1.490   8.680 -0.4115 -0.5001  0.5322
  909MOL0     C19862   9.117   1.535   8.587 -0.6308  0.2569  0.1374
  909MOL0     C19863   9.138   1.544   8.451  0.1851  1.2338  0.8519
  909MOL0     O19864   9.044   1.584   8.356  0.1437  0.3612  0.3393
  909MOL0     C19865   8.912   1.622   8.390 -0.1324  0.1717 -0.2991
  909MOL0     C19866   8.824   1.495   8.387  0.3751  0.3449  1.0392
  909MOL0     C19867   8.681   1.534   8.412 -0.9988  0.1942 -0.1070
  909MOL0     C19868   8.596   1.413   8.385  0.6063 -0.4637  0.1737
  909MOL0     C19869   8.456   1.453   8.429 -0.1832  0.4081 -0.6179
  909MOL0     C19870   8.367   1.330   8.431 -0.6156 -0.0412  0.2698
  909MOL0     C19871   8.238   1.366   8.519  0.3746  0.3623  0.7960
  909MOL0     C19872   8.254   1.375   8.673 -0.0184 -0.4314 -0.0999
  909MOL0     N19873   8.246   1.248   8.743 -0.3082  0.3750  0.3015
  909MOL0     C19874   8.351   1.157   8.738 -0.1353  0.0300  0.1252
  909MOL0     C19875   8.304   1.053   8.800 -0.2228  0.0784  0.3571
  909MOL0     C19876   8.379   0.924   8.815 -0.0711 -0.0595  0.5353
  909MOL0     C19877   8.519   0.913   8.746 -0.7201  0.0695  0.0668
  909MOL0     C19878   8.595   0.799   8.810  0.2995  0.0277 -0.2936
  909MOL0     C19879   8.691   0.718   8.721  1.2562  0.6559  0.5131
  909MOL0     O19880   8.788   0.800   8.660  0.3293 -0.0346  0.0688
  909MOL0     C19881   8.913   0.805   8.719 -0.6721 -0.3805 -0.1012
  909MOL0     C19882   9.028   0.850   8.650  0.3812  0.4727 -0.4658
  909MOL0     C19883   9.152   0.861   8.714  0.0994 -0.2712  0.9816
  909MOL0     C19884   9.182   0.807   8.837 -0.2147  0.1280 -0.9058
  909MOL0     C19885   9.320   0.804   8.896  0.1374 -0.4983 -0.5244
  909MOL0     O19886   9.321   0.827   9.034 -0.0212 -0.1253  0.6886
  909MOL0     C19887   9.434   0.853   9.112 -0.6792  0.8577 -0.5205
  909MOL0     C19888   9.569   0.858   9.068  0.3825 -0.1070 -0.1436
  909MOL0     C19889   9.668   0.888   9.165  0.8242  0.0092  0.3675
  909MOL0     C19890   9.640   0.913   9.302  0.4583 -0.4030  0.9475
  909MOL0     O19891   9.739   0.952   9.389  0.1110  0.5245 -0.2617
  909MOL0     C19892   9.864   0.883   9.364  0.4023  0.3481 -0.0079
  909MOL0     C19893   9.950   0.922   9.493 -0.7769 -0.9194  0.4035
  909MOL0     C19894  10.089   0.862   9.480 -0.2389  0.2754  0.1785
  909MOL0     C19895  10.184   0.947   9.391  0.0152 -0.0471 -0.3900
  909MOL0     C19896  10.309   0.855   9.355  0.8827  0.6229  0.0899
  909MOL0     C19897  10.401   0.950   9.277 -0.3998 -0.6147  0.4599
  909MOL0     C19898  10.540   0.886   9.244  0.6682  0.4243 -0.0562
  909MOL0     C19899  10.630   0.993   9.164  0.0642  0.4354  0.0916
  909MOL0    Cl19900  10.660   1.135   9.266 -0.2447  0.0033  0.0127
  909MOL0     C19901   9.505   0.896   9.343  0.3907 -0.5990  0.4297
  909MOL0     C19902   9.406   0.864   9.252 -0.4454 -0.0788 -0.4209
  909MOL0     O19903   9.413   0.802   8.816  0.1483 -0.2440 -0.0307
  909MOL0     C19904   9.070   0.752   8.910  0.0428 -0.4589  0.1509
  909MOL0     C19905   8.940   0.755   8.853  0.0198  0.3986 -0.5751
  909MOL0     N19906   8.171   1.079   8.842 -0.7627  0.2349  0.3488
  909MOL0     N19907   8.137   1.198   8.806  0.2805  0.2909  0.0297
  909MOL0     C19908   9.259   1.491   8.410 -0.7964  0.1576 -0.1815
  909MOL0     C19909   9.352   1.433   8.494 -1.0914 -0.5132 -0.3503
  909MOL0     C19910   9.580   1.231   8.798  0.9936  0.8515  0.1752
  909MOL0     C19911   9.623   1.331   8.885 -0.4569  0.2474 -0.0871
  909MOL0     C19912   9.719   1.299   8.986 -0.2593 -0.3133  1.5565
  909MOL0     C19913   9.788   1.180   8.975 -0.5278  0.7678  0.2905
  909MOL0     O19914   9.904   1.145   9.050 -0.2504  0.8871  0.1106
  909MOL0     C19915   9.938   1.197   9.175  0.0760  0.3534  0.1372
  909MOL0     C19916  10.023   1.325   9.169  0.0554 -0.3503 -1.1062
  909MOL0     C19917  10.118   1.320   9.052  0.9239 -0.5398 -0.5791
  909MOL0     C19918  10.233   1.220   9.066 -0.8400 -0.7262  0.0094
  909MOL0     C19919  10.325   1.268   8.956  0.6136 -0.6116  0.3980
  909MOL0     C19920  10.381   1.321   8.859 -0.1929  0.0679 -0.0242
  909MOL0     C19921   9.746   1.082   8.888 -0.1991 -0.8440 -0.3904
  909MOL0     C19922   9.637   1.099   8.804  0.3261  0.6061 -0.6621
  909MOL0     H19923   9.187   1.496   8.785 -2.3592  0.3599  0.0894
  909MOL0     H19924   9.019   1.569   8.621 -1.0921  0.0171 -0.8999
  909MOL0     H19925   8.876   1.695   8.317 -0.4724 -0.7643 -1.0798
  909MOL0     H19926   8.909   1.662   8.492 -1.0963  0.4897 -0.4415
  909MOL0     H19927   8.863   1.426   8.463 -0.2970 -0.6604  0.4908
  909MOL0     H19928   8.840   1.437   8.295 -1.2044  0.6624  0.5289
  909MOL0     H19929   8.654   1.621   8.351 -1.3452  0.9309  1.0567
  909MOL0     H19930   8.665   1.576   8.512 -1.3425 -1.7994  0.7166
  909MOL0     H19931   8.598   1.393   8.277  2.6989 -0.5962  0.1840
  909MOL0     H19932   8.632   1.327   8.443  2.7487  1.5455  2.0600
  909MOL0     H19933   8.417   1.527   8.359 -2.6457 -0.6368 -0.4493
  909MOL0     H19934   8.454   1.503   8.527 -1.5641 -0.2993 -0.2716
  909MOL0     H19935   8.423   1.251   8.483 -4.3033 -2.7945  0.4464
  909MOL0     H19936   8.340   1.295   8.332 -0.1627  0.5607 -0.0743
  909MOL0     H19937   8.189   1.456   8.483  0.4154  0.3339  0.6682
  909MOL0     H19938   8.162   1.289   8.500  0.1811  0.7723 -0.1399
  909MOL0     H19939   8.173   1.440   8.708 -0.6235 -0.4046 -1.4684
  909MOL0     H19940   8.349   1.419   8.704 -0.4520 -0.7558  1.7718
  909MOL0     H19941   8.452   1.170   8.702 -0.7249 -0.2769 -1.7459
  909MOL0     H19942   8.309   0.847   8.784  0.5800  0.0037 -1.1805
  909MOL0     H19943   8.400   0.899   8.919 -2.3479 -0.6166  0.8993
  909MOL0     H19944   8.568   1.011   8.750 -2.0364  0.9249 -2.3990
  909MOL0     H19945   8.509   0.888   8.640 -0.6537 -1.8919  0.4783
  909MOL0     H19946   8.640   0.840   8.902 -1.2994  2.0309 -0.3277
  909MOL0     H19947   8.521   0.727   8.848  1.5977 -0.4555  1.4751
  909MOL0     H19948   8.634   0.667   8.643  1.5826  3.8008 -2.0120
  909MOL0     H19949   8.732   0.640   8.786  3.1832  0.9218 -0.3118
  909MOL0     H19950   9.010   0.877   8.546 -1.0283  0.6761 -0.1943
  909MOL0     H19951   9.225   0.910   8.651  0.2708  0.5118  1.7578
  909MOL0     H19952   9.591   0.845   8.963  0.7772 -2.9651  0.2075
  909MOL0     H19953   9.763   0.904   9.116  1.7065 -3.3493  0.7550
  909MOL0     H19954   9.912   0.911   9.270  2.0749 -1.1819  0.3389
  909MOL0     H19955   9.849   0.774   9.364  0.1958  0.1277  5.3408
  909MOL0     H19956   9.905   0.877   9.582 -0.9148 -0.4934  0.5501
  909MOL0     H19957   9.962   1.029   9.512 -0.6689 -0.9154  0.3155
  909MOL0     H19958  10.091   0.759   9.443 -1.5661  0.5934 -0.8426
  909MOL0     H19959  10.137   0.851   9.578  2.8991 -0.4665 -1.2969
  909MOL0     H19960  10.126   0.964   9.300  1.6825  3.2169 -1.0043
  909MOL0     H19961  10.225   1.038   9.435  2.9432  0.5370 -3.8066
  909MOL0     H19962  10.281   0.764   9.300 -0.5351 -0.1566  1.9796
  909MOL0     H19963  10.365   0.826   9.444 -0.3082  2.4778  1.5165
  909MOL0     H19964  10.422   1.037   9.339 -0.4506  0.5977 -1.1555
  909MOL0     H19965  10.352   0.969   9.181  0.7681 -1.6558 -0.3823
  909MOL0     H19966  10.595   0.848   9.330 -1.5521  1.5920  2.0060
  909MOL0     H19967  10.526   0.803   9.175 -0.6295  0.0124  0.6724
  909MOL0     H19968  10.579   1.018   9.070 -1.1974  1.7388  1.0905
  909MOL0     H19969  10.727   0.948   9.140 -0.3183 -1.5740  2.0479
  909MOL0     H19970   9.474   0.899   9.447 -0.7357  1.3974  0.0832
  909MOL0     H19971   9.306   0.851   9.290 -1.5740  3.6232 -1.6825
  909MOL0     H19972   9.079   0.715   9.011 -2.5751  2.8946  1.7972
  909MOL0     H19973   8.856   0.710   8.906  0.3875 -0.8460 -1.0069
  909MOL0     H19974   9.279   1.504   8.304 -0.9639  1.1963 -0.0946
  909MOL0     H19975   9.444   1.390   8.456 -0.2642  0.3503  0.6092
  909MOL0     H19976   9.580   1.431   8.876  0.7397  0.7501 -0.3451
  909MOL0     H19977   9.764   1.371   9.054  0.3673  2.4463 -1.5083
  909MOL0     H19978   9.980   1.120   9.241  1.9224  1.6506  0.5376
  909MOL0     H19979   9.848   1.228   9.229 -0.2108 -0.3909  0.1047
  909MOL0     H19980   9.964   1.417   9.170  3.7040  2.2412  1.1561
  909MOL0     H19981  10.074   1.342   9.265 -1.8906 -0.0147 -0.0662
  909MOL0     H19982  10.159   1.422   9.045  3.5253 -1.5903 -2.0509
  909MOL0     H19983  10.070   1.301   8.956  1.3287  0.1481 -0.9212
  909MOL0     H19984  10.294   1.223   9.157  0.6167 -1.8404 -0.8911
  909MOL0     H19985  10.198   1.118   9.054  2.1816 -2.3440  3.0514
  909MOL0     H19986  10.446   1.379   8.796 -0.9302  3.5605  2.1581
  909MOL0     H19987   9.800   0.988   8.883 -1.2499 -1.5114  0.4724
  909MOL0     H19988   9.609   1.016   8.740  1.4325  1.8442 -2.8426
  910MOL0     O19989   9.070   6.564   8.093  0.0798 -0.5305  0.4713
  910MOL0     C19990   9.022   6.671   8.136 -0.5111 -0.0538 -0.6299
  910MOL0     O19991   9.090   6.780   8.177  0.8284  0.4317  1.0321
  910MOL0     C19992   9.229   6.771   8.162  0.2834 -0.7848  0.5697
  910MOL0     C19993   9.296   6.708   8.262  0.9290 -0.9181 -0.0911
  910MOL0     C19994   9.434   6.691   8.258  0.4853 -0.0575  0.8389
  910MOL0     C19995   9.507   6.735   8.149  0.7727 -0.7715 -0.1622
  910MOL0     O19996   9.638   6.708   8.144 -1.0295  0.1228 -0.6617
  910MOL0     C19997   9.725   6.799   8.063  0.2717  0.1397 -0.3170
  910MOL0     C19998   9.857   6.712   8.063  0.2135 -0.0608 -0.8076
  910MOL0     C19999   9.849   6.580   7.989  0.0524  0.2469  0.6605
  910MOL0     C20000   9.990   6.531   7.967  0.4893  0.5336 -0.6290
  910MOL0     C20001   9.988   6.397   7.900 -0.7166 -0.4984  0.3862
  910MOL0     C20002  10.129   6.338   7.885  0.2358 -0.1046  0.6221
  910MOL0     C20003  10.114   6.201   7.821 -1.1305  0.1799 -0.2217
  910MOL0     C20004  10.255   6.154   7.810  0.2726  0.2957  0.0741
  910MOL0     N20005  10.258   6.010   7.792  0.4728 -1.0167  0.4622
  910MOL0     C20006  10.230   5.948   7.673  0.3272  0.7371 -0.4362
  910MOL0     C20007  10.230   5.814   7.707 -0.3496  1.1237  0.3787
  910MOL0     C20008  10.188   5.713   7.601  0.0764  0.5759  0.4694
  910MOL0     C20009  10.190   5.572   7.662  0.3493 -0.4381  0.3533
  910MOL0     C20010  10.192   5.461   7.553 -0.6855 -0.8566 -0.9037
  910MOL0     C20011  10.218   5.328   7.624  1.1784  0.2300  0.0036
  910MOL0     O20012  10.174   5.225   7.535  0.7767 -0.0477  0.7791
  910MOL0     C20013  10.052   5.170   7.545  0.1785  0.4305  0.0854
  910MOL0     C20014  10.031   5.065   7.457 -0.5062 -0.2639 -0.2613
  910MOL0     C20015   9.913   4.992   7.461 -0.2270  0.7851  0.3893
  910MOL0     C20016   9.813   5.033   7.546  0.0436  0.3169  0.6382
  910MOL0     C20017   9.685   4.961   7.531  0.2268  0.2400  0.8591
  910MOL0     O20018   9.577   5.025   7.588 -0.2130 -0.3212 -0.1100
  910MOL0     C20019   9.455   4.962   7.598 -0.3084  0.7733 -0.6166
  910MOL0     C20020   9.333   5.031   7.587 -0.7574  0.4505  0.4253
  910MOL0     C20021   9.208   4.963   7.579  0.6715  0.5822 -1.0485
  910MOL0     C20022   9.194   4.826   7.587  0.0335  0.4011  0.3919
  910MOL0     O20023   9.066   4.771   7.562 -0.2896 -0.2849  0.2234
  910MOL0     C20024   9.049   4.641   7.518 -0.4834 -0.0032  0.2347
  910MOL0     C20025   9.015   4.541   7.639 -0.8060 -0.8218  0.3259
  910MOL0     C20026   8.884   4.558   7.709 -0.2742 -0.3792  0.4919
  910MOL0     C20027   8.762   4.560   7.617 -0.8122  0.0572  0.1325
  910MOL0     C20028   8.639   4.516   7.689  0.4420 -0.1831  0.2473
  910MOL0     C20029   8.508   4.543   7.609 -0.6956  0.0304  0.0747
  910MOL0     C20030   8.386   4.517   7.708 -0.1971 -0.1624  0.0336
  910MOL0     C20031   8.254   4.539   7.639  0.5387 -0.5096  0.1997
  910MOL0    Cl20032   8.228   4.442   7.495 -0.4411  0.2315  0.2516
  910MOL0     C20033   9.313   4.755   7.612 -0.4239 -0.4644 -0.1752
  910MOL0     C20034   9.443   4.822   7.610  0.5446 -0.4266  0.2060
  910MOL0     O20035   9.678   4.863   7.460  0.6377  0.2899  0.0590
  910MOL0     C20036   9.833   5.140   7.637  0.2949  1.1185  0.1634
  910MOL0     C20037   9.952   5.204   7.636  0.2176  0.2828  0.8318
  910MOL0     N20038  10.258   5.792   7.844  0.4226 -0.3608  0.6608
  910MOL0     N20039  10.265   5.921   7.893 -0.1531  0.2551  0.0088
  910MOL0     C20040   9.434   6.800   8.046  0.0755 -1.0027  0.1033
  910MOL0     C20041   9.297   6.816   8.049 -0.2385 -0.0715  0.0766
  910MOL0     C20042   8.878   6.671   8.159 -0.3940 -0.5539  0.5915
  910MOL0     C20043   8.787   6.579   8.101  0.9137  0.0263 -1.5318
  910MOL0     C20044   8.646   6.589   8.111 -0.0919  0.3317 -0.3303
  910MOL0     C20045   8.595   6.710   8.172  0.1686 -0.0566 -0.3971
  910MOL0     O20046   8.461   6.733   8.170  0.4426  0.1392  0.4715
  910MOL0     C20047   8.364   6.637   8.112  0.3360 -0.0753  0.4498
  910MOL0     C20048   8.215   6.676   8.120  0.2074 -0.5634  0.0779
  910MOL0     C20049   8.126   6.556   8.088 -0.0592  0.5170 -0.6631
  910MOL0     C20050   8.126   6.509   7.944  0.6384  0.0816  0.5185
  910MOL0     C20051   8.009   6.431   7.908 -0.9806  0.0474  0.1663
  910MOL0     C20052   7.896   6.380   7.894 -0.1439  0.3081  0.6805
  910MOL0     C20053   8.686   6.811   8.225  0.1322 -0.1489  0.0276
  910MOL0     C20054   8.821   6.777   8.222 -0.3183  0.7090 -1.0540
  910MOL0     H20055   9.244   6.660   8.344  1.9412 -1.6346  0.1536
  910MOL0     H20056   9.490   6.635   8.333 -0.5850 -3.7551 -0.8576
  910MOL0     H20057   9.739   6.892   8.120  1.5880 -1.9035  3.0495
  910MOL0     H20058   9.696   6.811   7.959  1.5141  0.8462 -0.6006
  910MOL0     H20059   9.883   6.690   8.166  1.3778  0.6340 -0.9331
  910MOL0     H20060   9.941   6.770   8.025  1.1035 -1.4069 -0.9531
  910MOL0     H20061   9.790   6.583   7.897 -2.2386 -2.8479  1.8429
  910MOL0     H20062   9.798   6.507   8.052 -0.4817  1.9391  2.2632
  910MOL0     H20063  10.037   6.600   7.896  2.0107 -0.3602 -0.5174
  910MOL0     H20064  10.050   6.522   8.058  1.3379 -3.9309 -1.4091
  910MOL0     H20065   9.951   6.399   7.797  1.6337 -0.4337 -0.5075
  910MOL0     H20066   9.916   6.339   7.959 -2.5346  3.3984  2.3809
  910MOL0     H20067  10.184   6.331   7.979 -2.1714 -0.1413  2.1046
  910MOL0     H20068  10.190   6.396   7.815 -0.2426 -0.8708 -0.4565
  910MOL0     H20069  10.053   6.135   7.884  0.6005  0.6019  2.0457
  910MOL0     H20070  10.061   6.204   7.725 -0.5292  0.9215 -0.5371
  910MOL0     H20071  10.318   6.189   7.892  3.3706 -2.5277 -0.9069
  910MOL0     H20072  10.297   6.206   7.724 -0.7638 -0.9272 -1.2050
  910MOL0     H20073  10.219   6.004   7.581  2.0768 -0.9658 -1.7723
  910MOL0     H20074  10.261   5.709   7.521  0.8513  1.2867  1.1269
  910MOL0     H20075  10.091   5.738   7.555  0.5399 -0.0692 -0.9071
  910MOL0     H20076  10.094   5.559   7.712 -0.1058 -0.4436 -0.5044
  910MOL0     H20077  10.267   5.571   7.740  1.7872  1.9314 -0.9128
  910MOL0     H20078  10.095   5.455   7.503 -0.4447  0.1654 -1.5288
  910MOL0     H20079  10.267   5.483   7.477  1.2640  0.0689  1.1521
  910MOL0     H20080  10.191   5.321   7.729  4.8535  0.8882  1.1292
  910MOL0     H20081  10.326   5.323   7.633  1.1915 -0.1740 -0.3619
  910MOL0     H20082  10.123   5.036   7.408  1.4822  2.1368  1.8143
  910MOL0     H20083   9.908   4.914   7.386  1.3883  1.6925 -0.7056
  910MOL0     H20084   9.346   5.137   7.571 -0.0536  0.3565  0.3708
  910MOL0     H20085   9.120   5.027   7.570  0.4818  0.0972 -3.3211
  910MOL0     H20086   9.138   4.598   7.472 -1.6212 -0.8058 -1.3077
  910MOL0     H20087   8.969   4.624   7.445 -1.6245 -0.0002  1.4505
  910MOL0     H20088   9.098   4.547   7.710  0.0006 -1.7889 -0.5062
  910MOL0     H20089   9.021   4.439   7.601  0.9733  0.0507 -2.0147
  910MOL0     H20090   8.878   4.648   7.770 -1.8566 -0.7542  0.9276
  910MOL0     H20091   8.884   4.474   7.779  0.2986 -1.2387 -0.5071
  910MOL0     H20092   8.767   4.659   7.571 -1.0180 -0.3559 -0.8132
  910MOL0     H20093   8.777   4.495   7.530 -2.5656  1.7302 -1.5209
  910MOL0     H20094   8.646   4.569   7.784  0.8681 -2.3484  1.5031
  910MOL0     H20095   8.645   4.410   7.715  2.6703  0.3899  2.4561
  910MOL0     H20096   8.500   4.486   7.516  1.1185  1.0042 -0.7222
  910MOL0     H20097   8.520   4.643   7.568  0.2347  0.2029  0.7502
  910MOL0     H20098   8.397   4.413   7.740  0.9839 -0.0205  0.1551
  910MOL0     H20099   8.397   4.576   7.800  0.3408 -1.3155  0.7358
  910MOL0     H20100   8.241   4.641   7.601 -2.4433 -0.5574  0.8847
  910MOL0     H20101   8.165   4.519   7.699 -2.4857  0.4142 -3.5838
  910MOL0     H20102   9.309   4.646   7.614  1.2451 -0.5451  1.0656
  910MOL0     H20103   9.537   4.768   7.610  0.3239 -0.8501  1.6788
  910MOL0     H20104   9.745   5.161   7.697 -1.1865 -0.4009 -1.3278
  910MOL0     H20105   9.958   5.286   7.708 -2.7055  0.2291  1.2582
  910MOL0     H20106   9.484   6.839   7.958  0.0577 -0.5057  0.3151
  910MOL0     H20107   9.239   6.865   7.971  0.6843  1.2231  0.1674
  910MOL0     H20108   8.832   6.490   8.058  1.3303 -0.8056  0.5114
  910MOL0     H20109   8.582   6.518   8.060 -1.0486  0.3201  0.8326
  910MOL0     H20110   8.373   6.537   8.155  1.1885  0.0799  0.6512
  910MOL0     H20111   8.387   6.632   8.005 -0.9536  0.3735  0.1394
  910MOL0     H20112   8.195   6.709   8.223  0.5648  0.6764 -0.2375
  910MOL0     H20113   8.191   6.757   8.050 -0.9194 -1.3388 -0.4709
  910MOL0     H20114   8.025   6.590   8.111 -0.4130 -0.6679 -0.4007
  910MOL0     H20115   8.146   6.476   8.161 -2.3576 -1.2877 -1.8672
  910MOL0     H20116   8.141   6.590   7.872  1.0979 -2.7187 -2.8252
  910MOL0     H20117   8.213   6.446   7.925  2.5734  2.8899 -0.6295
  910MOL0     H20118   7.792   6.353   7.889 -0.4929  1.8311 -1.9845
  910MOL0     H20119   8.661   6.905   8.272 -3.2204 -1.7636  1.8165
  910MOL0     H20120   8.886   6.858   8.254 -1.8378  0.5576  3.0569
  911MOL0     O20121   9.823   6.561   4.296  0.2574  0.4592 -0.1145
  911MOL0     C20122   9.900   6.509   4.224  0.0942 -0.1786  1.7868
  911MOL0     O20123   9.870   6.417   4.123 -0.2115 -0.2256 -0.1356
  911MOL0     C20124   9.742   6.375   4.092 -0.1257  0.3416  0.4009
  911MOL0     C20125   9.627   6.454   4.098  0.3694 -0.3958  0.2722
  911MOL0     C20126   9.497   6.416   4.050  0.5661 -0.2708 -2.0120
  911MOL0     C20127   9.476   6.283   4.013 -0.0356  0.1114 -0.0521
  911MOL0     O20128   9.352   6.251   3.986  0.5611 -0.1226 -0.0116
  911MOL0     C20129   9.318   6.123   3.947 -0.2633  0.2146 -0.2701
  911MOL0     C20130   9.182   6.088   3.977  1.3555 -1.3845 -0.5318
  911MOL0     C20131   9.146   5.937   3.963  0.6890 -0.4124  0.7051
  911MOL0     C20132   9.214   5.851   4.075 -1.5810  0.5707 -0.0490
  911MOL0     C20133   9.140   5.861   4.208  1.0491  0.1324 -0.2383
  911MOL0     C20134   9.208   5.801   4.328 -0.6443  0.5571 -0.1433
  911MOL0     C20135   9.120   5.807   4.456 -0.1606 -0.3972  0.0867
  911MOL0     C20136   9.090   5.946   4.512  0.5464 -0.2145  0.2324
  911MOL0     N20137   9.217   6.011   4.545  0.5124 -0.4710  0.2695
  911MOL0     C20138   9.284   6.113   4.481  0.1246  0.4216 -0.3416
  911MOL0     C20139   9.409   6.110   4.530  0.2807 -0.2192  0.0450
  911MOL0     C20140   9.499   6.220   4.487  0.6729  0.0506  0.6404
  911MOL0     C20141   9.638   6.200   4.544 -0.8219 -0.8778  0.1075
  911MOL0     C20142   9.720   6.321   4.495  0.3226 -0.3576 -0.5222
  911MOL0     C20143   9.869   6.324   4.522  0.2630  0.2388 -0.4512
  911MOL0     O20144   9.867   6.323   4.666 -0.5655  0.4416 -0.2956
  911MOL0     C20145   9.993   6.334   4.723 -0.3135  0.8048  0.0683
  911MOL0     C20146  10.113   6.349   4.656  0.8013  0.7142 -0.7288
  911MOL0     C20147  10.232   6.366   4.730  0.4326  0.0081 -0.4446
  911MOL0     C20148  10.233   6.368   4.868  0.8563  0.1459 -0.9153
  911MOL0     C20149  10.355   6.408   4.947 -0.1634 -0.1187  0.8884
  911MOL0     O20150  10.468   6.348   4.902  0.4748  0.3172  0.2596
  911MOL0     C20151  10.582   6.378   4.967 -0.4851 -0.7068 -0.5060
  911MOL0     C20152  10.589   6.338   5.104  0.5096  0.0233  0.3565
  911MOL0     C20153  10.715   6.355   5.174 -0.5989 -0.1074 -0.3498
  911MOL0     C20154  10.831   6.379   5.106 -0.2556  0.0049 -0.7758
  911MOL0     O20155  10.955   6.384   5.156 -0.4228  0.4521 -0.2745
  911MOL0     C20156  10.987   6.268   5.236  0.4804  0.8939  0.2079
  911MOL0     C20157  11.002   6.324   5.373 -0.3548  0.9842  0.1813
  911MOL0     C20158  11.007   6.214   5.476  0.3050  0.1564  0.7922
  911MOL0     C20159  11.022   6.273   5.616  0.1314  0.8760  0.0030
  911MOL0     C20160  11.039   6.162   5.711  0.5603  0.2576 -0.0973
  911MOL0     C20161  11.062   6.195   5.864 -0.6354 -0.2335  0.6256
  911MOL0     C20162  11.144   6.317   5.901 -0.0039 -0.4314 -0.7030
  911MOL0     C20163  11.144   6.337   6.051 -1.3858 -0.0052  0.0954
  911MOL0    Cl20164  11.221   6.493   6.093  0.1621  0.4433 -0.1286
  911MOL0     C20165  10.823   6.405   4.966 -0.1278 -0.2383 -1.1219
  911MOL0     C20166  10.705   6.398   4.898  0.7428 -0.4546 -0.3850
  911MOL0     O20167  10.338   6.484   5.046 -0.9132 -0.4744  0.3391
  911MOL0     C20168  10.110   6.340   4.938 -0.7080  0.8858  0.1838
  911MOL0     C20169   9.994   6.325   4.865 -0.2184 -0.7318  0.3390
  911MOL0     N20170   9.425   6.007   4.626 -0.0832  0.3253 -0.0077
  911MOL0     N20171   9.301   5.960   4.638  0.1554 -0.4613 -0.0445
  911MOL0     C20172   9.591   6.201   4.004 -0.3284  0.7520 -0.4766
  911MOL0     C20173   9.719   6.243   4.052 -0.1538 -0.0233 -0.5859
  911MOL0     C20174  10.042   6.531   4.253 -0.2087 -0.0364  0.1798
  911MOL0     C20175  10.083   6.603   4.370  0.4678  0.2730 -0.3857
  911MOL0     C20176  10.216   6.634   4.390 -0.5573  0.8314 -0.8683
  911MOL0     C20177  10.314   6.589   4.314 -0.6567 -0.6990  0.0779
  911MOL0     O20178  10.444   6.615   4.324 -0.3315  0.3696 -0.0644
  911MOL0     C20179  10.506   6.675   4.439 -0.1867  0.0597  1.2299
  911MOL0     C20180  10.639   6.727   4.386  0.4988 -0.2441 -0.4779
  911MOL0     C20181  10.758   6.679   4.482 -0.0494  0.8709  0.4375
  911MOL0     C20182  10.794   6.534   4.447 -0.7594  0.3205  0.6894
  911MOL0     C20183  10.907   6.485   4.524 -0.0255  0.5010  0.9276
  911MOL0     C20184  11.002   6.460   4.604 -0.7905 -0.4778  0.6813
  911MOL0     C20185  10.277   6.526   4.197 -0.1822 -0.3084  0.2181
  911MOL0     C20186  10.150   6.496   4.162 -0.5847  0.1490  0.2022
  911MOL0     H20187   9.633   6.558   4.127 -3.1677  0.5643 -1.8346
  911MOL0     H20188   9.419   6.490   4.061  0.7965 -0.3897  1.7130
  911MOL0     H20189   9.379   6.038   3.980 -2.1967 -0.8851  0.6116
  911MOL0     H20190   9.324   6.118   3.838  0.3853 -0.6966 -0.2056
  911MOL0     H20191   9.119   6.137   3.902  0.8891 -3.6325 -1.7026
  911MOL0     H20192   9.152   6.121   4.077  3.8530  0.0277 -0.1806
  911MOL0     H20193   9.181   5.905   3.864 -1.9085  0.5490 -0.6139
  911MOL0     H20194   9.038   5.924   3.958  0.3692  2.1503 -1.1205
  911MOL0     H20195   9.209   5.747   4.041 -4.2755  0.8313 -0.6899
  911MOL0     H20196   9.321   5.865   4.091 -1.3471 -2.9143  2.6515
  911MOL0     H20197   9.042   5.816   4.198  0.6047  1.3124 -1.4900
  911MOL0     H20198   9.108   5.963   4.231  0.0136 -0.0355 -0.9124
  911MOL0     H20199   9.306   5.849   4.341 -0.5272  0.1534  0.5144
  911MOL0     H20200   9.232   5.696   4.311  0.9705  1.0473 -1.0913
  911MOL0     H20201   9.027   5.753   4.434  0.0534 -1.5255  1.7556
  911MOL0     H20202   9.179   5.756   4.533  0.1477 -0.4571 -0.1904
  911MOL0     H20203   9.026   5.946   4.601  1.1729 -1.6848  0.7006
  911MOL0     H20204   9.044   6.006   4.433 -2.6602  2.4719  3.7443
  911MOL0     H20205   9.249   6.169   4.394 -1.6010 -0.8798 -0.5303
  911MOL0     H20206   9.478   6.322   4.522  2.8643  0.8385 -0.1349
  911MOL0     H20207   9.503   6.226   4.378 -0.4890 -3.6565  0.2639
  911MOL0     H20208   9.677   6.108   4.499 -2.3393 -0.6999 -1.6932
  911MOL0     H20209   9.644   6.185   4.652  0.4211  0.0118  0.1844
  911MOL0     H20210   9.711   6.311   4.386  1.8422 -0.0724 -0.6918
  911MOL0     H20211   9.676   6.415   4.528  2.0816 -0.3149  1.8839
  911MOL0     H20212   9.915   6.415   4.483 -0.9662  0.8564 -0.4865
  911MOL0     H20213   9.915   6.232   4.482  0.6383 -0.4126  1.3713
  911MOL0     H20214  10.128   6.352   4.549  2.8845 -1.9837 -0.6321
  911MOL0     H20215  10.326   6.378   4.678  0.4964  1.1469 -0.0864
  911MOL0     H20216  10.496   6.305   5.149  0.0543  2.3679  1.2708
  911MOL0     H20217  10.719   6.342   5.282 -1.2335  2.7336  0.1160
  911MOL0     H20218  11.079   6.229   5.192 -0.2477  1.3466 -1.8731
  911MOL0     H20219  10.914   6.187   5.221 -2.1102  3.6014 -3.9367
  911MOL0     H20220  10.922   6.393   5.401 -0.8544  1.3730 -2.0732
  911MOL0     H20221  11.097   6.379   5.375  0.5237 -0.4803  0.8873
  911MOL0     H20222  11.082   6.139   5.447  2.7025  2.8443 -0.3621
  911MOL0     H20223  10.906   6.173   5.471 -0.6225  2.2722  1.3819
  911MOL0     H20224  11.114   6.333   5.617  0.0597  1.0083  1.5615
  911MOL0     H20225  10.938   6.338   5.645 -0.1409  1.4079 -1.8719
  911MOL0     H20226  11.125   6.099   5.685  2.0170  0.6291  3.2218
  911MOL0     H20227  10.948   6.103   5.704 -0.0539  1.2187 -0.3438
  911MOL0     H20228  11.113   6.112   5.915  3.2987  1.7407  0.2802
  911MOL0     H20229  10.963   6.198   5.911 -0.6902 -0.2455  0.5119
  911MOL0     H20230  11.248   6.309   5.868  0.3477  1.0172 -0.0040
  911MOL0     H20231  11.097   6.408   5.864 -0.3564  0.4028  1.6306
  911MOL0     H20232  11.196   6.255   6.101 -0.5553  0.1695 -0.4701
  911MOL0     H20233  11.040   6.333   6.084 -2.1092 -0.2271 -2.0218
  911MOL0     H20234  10.914   6.422   4.909  0.4942 -0.7455 -0.3069
  911MOL0     H20235  10.685   6.399   4.791  0.4569  1.2199 -0.3436
  911MOL0     H20236  10.122   6.317   5.043 -0.1740  0.5496  0.0588
  911MOL0     H20237   9.906   6.308   4.926  1.0068 -0.6007  2.2472
  911MOL0     H20238   9.578   6.097   3.978 -1.9989  1.0455 -0.9851
  911MOL0     H20239   9.799   6.169   4.059 -0.7665 -0.9575 -2.6233
  911MOL0     H20240  10.003   6.641   4.432  0.3310  3.5711 -2.2966
  911MOL0     H20241  10.241   6.689   4.479  1.0482 -1.3941  0.1402
  911MOL0     H20242  10.509   6.608   4.524 -0.1741 -0.0458  1.1458
  911MOL0     H20243  10.451   6.767   4.461 -0.2327  0.0859  1.0084
  911MOL0     H20244  10.667   6.697   4.284 -0.8206  1.4057 -1.3894
  911MOL0     H20245  10.628   6.836   4.390  0.0229 -0.3367  2.4498
  911MOL0     H20246  10.730   6.695   4.587 -1.7098 -3.3035  0.8172
  911MOL0     H20247  10.848   6.740   4.469  1.5458 -1.1594  1.3699
  911MOL0     H20248  10.699   6.481   4.453 -2.0113  2.4288  0.3573
  911MOL0     H20249  10.835   6.546   4.346  0.3226 -0.6649  0.9889
  911MOL0     H20250  11.091   6.425   4.652  0.6353  1.9154 -0.0425
  911MOL0     H20251  10.363   6.497   4.137  3.7133  3.8760  3.1790
  911MOL0     H20252  10.129   6.449   4.066  2.4871  0.4940 -0.7360
  912MOL0     O20253   4.348   0.719   6.524 -0.3111 -0.9119  0.3176
  912MOL0     C20254   4.249   0.651   6.503  0.2392  0.3481  0.6599
  912MOL0     O20255   4.248   0.516   6.481 -0.8254  0.3536 -0.7039
  912MOL0     C20256   4.366   0.452   6.500 -1.4509 -0.1055  0.1264
  912MOL0     C20257   4.412   0.387   6.616 -0.0084  0.1839  0.7801
  912MOL0     C20258   4.534   0.321   6.623  0.4388  1.0862 -0.5917
  912MOL0     C20259   4.621   0.323   6.517 -0.2551  0.1034 -1.0437
  912MOL0     O20260   4.741   0.260   6.507 -0.3733 -0.1393  0.5962
  912MOL0     C20261   4.764   0.153   6.592 -0.0491  0.1330  0.0628
  912MOL0     C20262   4.863   0.056   6.525 -0.0912 -0.5143 -0.0726
  912MOL0     C20263   4.994   0.112   6.463 -0.5560  0.9630  0.6504
  912MOL0     C20264   5.069   0.212   6.553 -0.7502  0.1740  0.2003
  912MOL0     C20265   5.203   0.252   6.488 -0.8415 -0.2058 -0.2573
  912MOL0     C20266   5.290   0.321   6.594  0.0425  0.3888  0.2960
  912MOL0     C20267   5.435   0.360   6.550  0.1502 -0.3503 -0.9919
  912MOL0     C20268   5.479   0.460   6.652  0.2661 -0.6382 -0.5714
  912MOL0     N20269   5.395   0.586   6.659  0.7570  0.2943 -0.3000
  912MOL0     C20270   5.412   0.701   6.571 -0.9192  0.3536  0.6018
  912MOL0     C20271   5.334   0.792   6.618 -0.2469  0.7433  0.6113
  912MOL0     C20272   5.325   0.941   6.570 -0.5445  0.8457  1.1215
  912MOL0     C20273   5.281   0.935   6.422 -0.6681 -0.3324 -0.2679
  912MOL0     C20274   5.140   0.901   6.407  0.5452 -0.0312  0.2601
  912MOL0     C20275   5.083   0.927   6.265  0.2059  0.5733 -0.0980
  912MOL0     O20276   5.082   1.063   6.222  0.4053  0.1268 -0.0956
  912MOL0     C20277   4.970   1.143   6.244 -0.4374 -0.5539  0.4299
  912MOL0     C20278   4.853   1.101   6.301  0.2808 -0.2878  0.6303
  912MOL0     C20279   4.757   1.200   6.333 -0.4409 -0.4666 -0.1422
  912MOL0     C20280   4.781   1.341   6.324  0.1466 -0.2645  0.3921
  912MOL0     C20281   4.661   1.435   6.354 -0.4281 -0.1499  0.4205
  912MOL0     O20282   4.679   1.567   6.332  0.4469  0.1469 -0.3877
  912MOL0     C20283   4.594   1.656   6.393 -0.5057 -0.0198  0.5678
  912MOL0     C20284   4.628   1.731   6.506 -0.2643 -1.2562  0.2967
  912MOL0     C20285   4.530   1.814   6.567 -1.0725  0.2476 -0.1641
  912MOL0     C20286   4.395   1.816   6.530 -0.0553  0.6421  0.9579
  912MOL0     O20287   4.303   1.901   6.590 -0.7538 -0.0998  0.0058
  912MOL0     C20288   4.165   1.897   6.559  0.5031 -0.6224  0.0594
  912MOL0     C20289   4.079   1.959   6.668 -0.0501  0.3583  0.2298
  912MOL0     C20290   3.936   1.916   6.646  0.4428 -0.7696  0.8387
  912MOL0     C20291   3.829   1.985   6.731 -0.3118 -1.0257 -0.3421
  912MOL0     C20292   3.689   1.932   6.703 -0.5220 -0.3734 -0.6127
  912MOL0     C20293   3.591   2.031   6.752  0.4475 -0.4424 -0.2539
  912MOL0     C20294   3.445   1.979   6.755  0.6315  0.9996  0.3419
  912MOL0     C20295   3.355   2.092   6.783  0.9165 -0.1805 -0.2054
  912MOL0    Cl20296   3.185   2.037   6.776 -0.4824 -0.4678  0.0481
  912MOL0     C20297   4.366   1.731   6.417  0.1257 -0.2141 -1.3328
  912MOL0     C20298   4.461   1.661   6.345  0.2705  0.1150 -0.2451
  912MOL0     O20299   4.561   1.380   6.408  0.7837 -0.4130 -0.0871
  912MOL0     C20300   4.904   1.394   6.270  0.2382  0.1985 -0.8740
  912MOL0     C20301   4.998   1.287   6.240  0.5156  0.2882  0.6363
  912MOL0     N20302   5.288   0.751   6.743 -0.9779 -1.2335  0.0085
  912MOL0     N20303   5.330   0.632   6.767  1.1325 -0.1226 -0.1806
  912MOL0     C20304   4.579   0.394   6.405 -0.7790 -0.5806  0.5450
  912MOL0     C20305   4.450   0.445   6.388 -0.6857  0.6736 -0.0465
  912MOL0     C20306   4.133   0.733   6.497  0.3762 -0.1216 -0.0935
  912MOL0     C20307   4.142   0.862   6.436  0.8742 -0.1188 -0.3162
  912MOL0     C20308   4.030   0.947   6.424 -0.1897 -0.6735  0.4784
  912MOL0     C20309   3.909   0.908   6.477 -0.9436 -0.0540 -0.0418
  912MOL0     O20310   3.802   1.002   6.472  0.3944 -0.3918  0.1850
  912MOL0     C20311   3.683   0.963   6.533  0.4097 -0.0960 -0.1965
  912MOL0     C20312   3.569   1.055   6.512  0.7691 -0.4290  0.6561
  912MOL0     C20313   3.512   1.032   6.370  0.2894  0.4309  0.5302
  912MOL0     C20314   3.412   1.146   6.351  0.2662 -0.0924 -0.2642
  912MOL0     C20315   3.358   1.162   6.211 -0.4683  0.6213 -0.3546
  912MOL0     C20316   3.297   1.178   6.106 -0.3855  0.6409  0.8537
  912MOL0     C20317   3.901   0.778   6.541 -0.2890 -0.2032 -0.1554
  912MOL0     C20318   4.009   0.696   6.556  0.6395  0.4098 -0.6421
  912MOL0     H20319   4.339   0.376   6.697 -0.3994  2.6908  0.8361
  912MOL0     H20320   4.547   0.267   6.716  2.9260  2.4975 -0.0359
  912MOL0     H20321   4.669   0.105   6.618 -0.8509  1.9010  0.5231
  912MOL0     H20322   4.800   0.193   6.687  0.0555 -0.0394  0.0960
  912MOL0     H20323   4.813  -0.002   6.446 -0.2849 -0.2277 -0.1602
  912MOL0     H20324   4.888  -0.007   6.611 -0.0648  0.6077  0.7569
  912MOL0     H20325   4.980   0.158   6.365 -2.6465  0.2530  0.5685
  912MOL0     H20326   5.059   0.024   6.454 -0.0393  1.1967  1.8630
  912MOL0     H20327   5.007   0.299   6.572 -4.5567 -2.5294  1.2607
  912MOL0     H20328   5.084   0.155   6.646  1.0666  0.5222  0.1555
  912MOL0     H20329   5.184   0.312   6.399  0.3939  0.0855 -0.3373
  912MOL0     H20330   5.243   0.158   6.450  0.4011  1.8754 -4.7827
  912MOL0     H20331   5.306   0.240   6.667  0.3724 -2.2554 -2.4910
  912MOL0     H20332   5.234   0.406   6.633 -1.5352 -0.4356 -0.0715
  912MOL0     H20333   5.500   0.273   6.558  0.3176 -0.1347  0.1855
  912MOL0     H20334   5.439   0.403   6.450 -0.1601 -0.2320 -0.9534
  912MOL0     H20335   5.581   0.492   6.633  1.5551 -3.2467  1.3819
  912MOL0     H20336   5.488   0.405   6.746  1.1250 -1.6358 -1.2250
  912MOL0     H20337   5.463   0.706   6.475  0.1474 -3.1820  0.8134
  912MOL0     H20338   5.423   0.988   6.579 -1.1579  2.1991  0.8962
  912MOL0     H20339   5.251   1.005   6.619 -0.6609  0.1380  1.9023
  912MOL0     H20340   5.344   0.868   6.363  2.5522  3.2898 -1.4075
  912MOL0     H20341   5.280   1.032   6.371  0.6536  0.4775  1.1744
  912MOL0     H20342   5.146   0.794   6.429 -1.5755 -0.2813 -0.1617
  912MOL0     H20343   5.077   0.956   6.478 -0.4123 -2.0047  1.0024
  912MOL0     H20344   4.984   0.881   6.263  0.8023 -0.8116 -2.4440
  912MOL0     H20345   5.129   0.865   6.187 -2.2952 -1.7290  0.1151
  912MOL0     H20346   4.828   0.996   6.310  3.1421 -1.0116  1.3452
  912MOL0     H20347   4.659   1.170   6.367 -0.5507  1.1595  1.0954
  912MOL0     H20348   4.733   1.731   6.531 -0.0969  0.4544 -0.2828
  912MOL0     H20349   4.554   1.857   6.664 -0.8999 -1.5017  0.5988
  912MOL0     H20350   4.127   1.794   6.555 -2.4062  0.0798  3.7287
  912MOL0     H20351   4.146   1.949   6.464 -3.6025  0.2174  1.1482
  912MOL0     H20352   4.079   2.068   6.661 -0.5331  0.4386  1.2138
  912MOL0     H20353   4.116   1.928   6.766 -1.0453 -0.4649  0.3621
  912MOL0     H20354   3.928   1.807   6.659 -0.3757 -1.0769 -1.6743
  912MOL0     H20355   3.915   1.931   6.540  0.7785  0.1175  0.8920
  912MOL0     H20356   3.871   1.987   6.832  0.2719  0.4919 -0.5838
  912MOL0     H20357   3.832   2.090   6.700 -0.7304 -0.7085  0.6628
  912MOL0     H20358   3.666   1.842   6.762 -2.2733  0.9473  0.8493
  912MOL0     H20359   3.666   1.895   6.602 -2.1653 -0.3979 -0.2585
  912MOL0     H20360   3.600   2.120   6.689 -2.7383  0.9144  1.0091
  912MOL0     H20361   3.611   2.076   6.849  2.1197  0.0922 -0.8104
  912MOL0     H20362   3.418   1.925   6.664  1.1474 -1.3383  1.4923
  912MOL0     H20363   3.435   1.901   6.831  2.6008 -1.3351 -1.6262
  912MOL0     H20364   3.362   2.170   6.706  2.3830 -0.1192 -0.0420
  912MOL0     H20365   3.373   2.133   6.883  1.7953  0.1505 -0.4873
  912MOL0     H20366   4.264   1.722   6.380 -0.0173 -1.0786 -0.7714
  912MOL0     H20367   4.432   1.575   6.285 -0.6748 -1.5408  2.3981
  912MOL0     H20368   4.923   1.501   6.278  0.7071 -0.0291  2.6565
  912MOL0     H20369   5.098   1.315   6.207  0.6941 -2.2035 -1.2585
  912MOL0     H20370   4.659   0.403   6.332  2.7105  0.2789  4.0970
  912MOL0     H20371   4.407   0.488   6.298 -1.5045 -1.0350 -0.5108
  912MOL0     H20372   4.235   0.900   6.395  1.0492  0.3633  0.5060
  912MOL0     H20373   4.048   1.047   6.385  3.1595 -2.1254 -2.2032
  912MOL0     H20374   3.694   0.945   6.640 -5.2820 -0.3877  0.6319
  912MOL0     H20375   3.651   0.864   6.499 -1.5239  0.3707  0.1625
  912MOL0     H20376   3.489   1.031   6.582 -0.0041  0.4539  0.1007
  912MOL0     H20377   3.604   1.155   6.537  2.2520 -1.1916  1.7681
  912MOL0     H20378   3.463   0.937   6.346 -0.8512  1.7781 -3.1494
  912MOL0     H20379   3.598   1.039   6.302 -0.1163  2.6951  0.1823
  912MOL0     H20380   3.321   1.118   6.406  0.5873 -0.2234  0.2007
  912MOL0     H20381   3.441   1.246   6.385 -0.4520 -0.3867  1.2726
  912MOL0     H20382   3.258   1.195   6.008 -1.5113 -0.5251  1.0678
  912MOL0     H20383   3.805   0.743   6.579  0.3286 -2.0093 -0.1553
  912MOL0     H20384   3.999   0.598   6.602 -2.2585  0.4678 -0.9344
  913MOL0     O20385   6.348  10.258   3.667 -0.2349 -0.0646  0.1212
  913MOL0     C20386   6.358  10.139   3.704 -0.4719  0.1405 -0.5022
  913MOL0     O20387   6.269  10.072   3.775  0.2787 -0.1503 -0.3344
  913MOL0     C20388   6.141  10.114   3.811  0.2540 -0.1424  0.3951
  913MOL0     C20389   6.088  10.038   3.912  0.0149 -1.0546 -0.6411
  913MOL0     C20390   5.967  10.084   3.968 -0.0725  0.0253  0.9667
  913MOL0     C20391   5.886  10.191   3.914  0.0674  0.5253 -0.1561
  913MOL0     O20392   5.768  10.232   3.970  0.0721  0.1990  0.4005
  913MOL0     C20393   5.673  10.127   3.995  0.6840 -0.3953  0.4156
  913MOL0     C20394   5.597  10.169   4.122  0.4157  0.5120  0.0808
  913MOL0     C20395   5.477  10.086   4.164 -0.3303  0.8034 -0.3619
  913MOL0     C20396   5.377  10.040   4.055  0.3327  0.2848  0.4131
  913MOL0     C20397   5.281   9.931   4.116  0.1886  0.1115 -0.2962
  913MOL0     C20398   5.198   9.985   4.232  0.2774 -0.3723 -0.2436
  913MOL0     C20399   5.061   9.925   4.260  0.2127  0.6490  0.2247
  913MOL0     C20400   4.951  10.006   4.183 -0.1837  0.0473 -0.1338
  913MOL0     N20401   4.959   9.980   4.043  0.2725  0.5724  0.6360
  913MOL0     C20402   4.945   9.858   3.974 -0.1759  0.2404  0.2651
  913MOL0     C20403   4.964   9.895   3.845 -1.0649 -0.3694 -0.1270
  913MOL0     C20404   4.961   9.800   3.730  1.0223 -0.3947  0.0627
  913MOL0     C20405   4.830   9.726   3.740 -1.1248  0.0574  0.6493
  913MOL0     C20406   4.818   9.638   3.619  0.6662  0.2145 -0.1149
  913MOL0     C20407   4.676   9.595   3.585  0.4294 -1.0833 -0.5060
  913MOL0     O20408   4.661   9.476   3.506 -0.1475  0.7911  0.3287
  913MOL0     C20409   4.530   9.425   3.496 -0.8812  0.2566 -0.2674
  913MOL0     C20410   4.422   9.494   3.547  0.1670  0.6953 -0.6681
  913MOL0     C20411   4.286   9.443   3.532 -0.1458 -0.1693 -0.7788
  913MOL0     C20412   4.267   9.321   3.470  0.2035  0.7057 -0.2240
  913MOL0     C20413   4.129   9.273   3.446  0.3656  0.0246  0.0058
  913MOL0     O20414   4.030   9.344   3.509  0.2408  0.3793  0.5167
  913MOL0     C20415   3.900   9.328   3.469  0.8438 -0.6556  0.3350
  913MOL0     C20416   3.848   9.414   3.362  0.5518  0.1243  0.2285
  913MOL0     C20417   3.723   9.385   3.309  0.0625 -0.8313  0.0636
  913MOL0     C20418   3.640   9.288   3.363  0.8872 -0.4527  0.1264
  913MOL0     O20419   3.511   9.262   3.324  0.3909  0.3391  0.2573
  913MOL0     C20420   3.469   9.271   3.186  0.1311  0.0168 -0.7329
  913MOL0     C20421   3.317   9.268   3.186 -0.2285  0.2186  0.1512
  913MOL0     C20422   3.254   9.265   3.049 -0.4950 -0.8108 -0.8481
  913MOL0     C20423   3.113   9.311   3.045  0.9175 -0.5994 -0.1268
  913MOL0     C20424   3.063   9.299   2.899  0.6898 -0.0759 -0.1434
  913MOL0     C20425   2.921   9.357   2.883  0.0099 -0.7638  0.3793
  913MOL0     C20426   2.816   9.301   2.977 -0.9068 -0.4418 -0.3393
  913MOL0     C20427   2.674   9.366   2.961 -0.9220 -0.3861 -0.3546
  913MOL0    Cl20428   2.538   9.262   3.021  0.1653  0.1947 -0.2654
  913MOL0     C20429   3.688   9.212   3.470 -0.0546 -0.8190  0.3711
  913MOL0     C20430   3.816   9.234   3.521  0.3760  0.6380 -0.1346
  913MOL0     O20431   4.114   9.173   3.375  0.7872  0.2875  0.1854
  913MOL0     C20432   4.382   9.254   3.426 -0.0112  1.3646 -0.0943
  913MOL0     C20433   4.510   9.306   3.425  0.3785 -0.1627  0.1405
  913MOL0     N20434   4.974  10.033   3.839 -0.2720  0.2278  0.7780
  913MOL0     N20435   4.974  10.082   3.955 -0.1999 -0.4424  0.1058
  913MOL0     C20436   5.941  10.270   3.819 -0.5498  0.1466 -0.8263
  913MOL0     C20437   6.070  10.231   3.761  0.2373  0.3967  0.1775
  913MOL0     C20438   6.489  10.066   3.665 -0.7617 -0.8593 -0.1875
  913MOL0     C20439   6.594  10.137   3.605  0.2789  0.8232  0.0840
  913MOL0     C20440   6.718  10.072   3.588 -0.4926 -0.2417 -0.8457
  913MOL0     C20441   6.746   9.940   3.625  0.2261  0.0847  0.0923
  913MOL0     O20442   6.874   9.895   3.605  0.7191 -0.5370 -0.1407
  913MOL0     C20443   6.898   9.751   3.594 -0.2053  0.1579 -0.0786
  913MOL0     C20444   6.935   9.687   3.728 -0.3705 -0.1431 -0.3887
  913MOL0     C20445   7.038   9.569   3.721 -0.1246  0.7059 -0.4587
  913MOL0     C20446   7.104   9.549   3.861 -1.3267  0.0864  0.7466
  913MOL0     C20447   7.188   9.429   3.873 -0.4392  0.0219 -0.4013
  913MOL0     C20448   7.270   9.339   3.868 -0.7548 -0.0755 -0.0316
  913MOL0     C20449   6.640   9.874   3.685 -0.1176 -0.9462 -0.0667
  913MOL0     C20450   6.520   9.941   3.718 -0.1803 -0.7888 -0.2332
  913MOL0     H20451   6.131   9.951   3.961 -1.6268 -0.9896  1.0379
  913MOL0     H20452   5.933  10.027   4.053  0.5476 -4.2477 -1.3743
  913MOL0     H20453   5.729  10.034   4.009  3.7099  0.8914 -1.9953
  913MOL0     H20454   5.612  10.108   3.906 -0.7280 -0.3842  1.3445
  913MOL0     H20455   5.571  10.275   4.122 -0.3132  0.3416  0.5826
  913MOL0     H20456   5.669  10.168   4.205  1.5256  0.3689 -0.8614
  913MOL0     H20457   5.419  10.149   4.232 -2.0657 -1.2155  0.1525
  913MOL0     H20458   5.501  10.013   4.241 -0.9862  0.2565 -0.6587
  913MOL0     H20459   5.317  10.124   4.018  3.6854  1.4243 -2.9632
  913MOL0     H20460   5.431   9.991   3.974 -0.6479 -0.7612  0.3729
  913MOL0     H20461   5.327   9.839   4.153  0.0436  0.5827  1.1326
  913MOL0     H20462   5.221   9.892   4.033  1.1079 -1.2895 -0.3482
  913MOL0     H20463   5.193  10.094   4.234 -2.0782 -0.1553 -4.8490
  913MOL0     H20464   5.246   9.968   4.329 -0.6674  0.2834  0.3505
  913MOL0     H20465   5.054   9.821   4.224 -1.4242  0.9832 -0.5325
  913MOL0     H20466   5.040   9.933   4.367 -0.4785 -0.4699  0.1915
  913MOL0     H20467   4.966  10.110   4.213 -0.1110 -0.6441  2.4701
  913MOL0     H20468   4.855   9.964   4.216  0.7800 -1.1433  1.2995
  913MOL0     H20469   4.924   9.758   4.011 -0.4247  0.6740  1.3501
  913MOL0     H20470   5.053   9.741   3.721 -0.7399 -3.2368 -0.5416
  913MOL0     H20471   4.977   9.853   3.635  0.4276 -3.4615 -1.9029
  913MOL0     H20472   4.746   9.795   3.732 -2.0035 -1.1692 -1.3732
  913MOL0     H20473   4.808   9.661   3.825 -3.0020 -1.8872 -1.2022
  913MOL0     H20474   4.865   9.675   3.528  1.7950  2.3372  1.2621
  913MOL0     H20475   4.873   9.550   3.655 -1.4359 -0.9676  0.3935
  913MOL0     H20476   4.626   9.672   3.525 -0.4319  0.0080  1.5110
  913MOL0     H20477   4.626   9.572   3.679 -1.6494 -2.6951 -1.9051
  913MOL0     H20478   4.420   9.586   3.604  1.3429 -1.0005  2.2944
  913MOL0     H20479   4.206   9.507   3.569  0.9922  1.9867 -1.8329
  913MOL0     H20480   3.912   9.497   3.333  1.2011 -0.3708  0.1959
  913MOL0     H20481   3.705   9.443   3.219  3.9276 -0.9158 -0.9713
  913MOL0     H20482   3.500   9.179   3.135  0.5974  0.0005 -0.4315
  913MOL0     H20483   3.491   9.363   3.132  0.4722  2.2896  2.9365
  913MOL0     H20484   3.284   9.363   3.230  5.5949  0.8519  4.4939
  913MOL0     H20485   3.267   9.191   3.246 -1.2803  0.1681 -0.7602
  913MOL0     H20486   3.250   9.162   3.011 -0.8469 -0.7308 -1.0248
  913MOL0     H20487   3.307   9.330   2.979  0.3263 -0.6610 -0.1051
  913MOL0     H20488   3.053   9.259   3.120 -2.7278  0.8463 -1.8091
  913MOL0     H20489   3.119   9.417   3.072 -0.2289 -0.0308 -1.8787
  913MOL0     H20490   3.066   9.200   2.853 -2.5203 -0.6250  0.6034
  913MOL0     H20491   3.128   9.367   2.843  0.0977  4.1228  3.6453
  913MOL0     H20492   2.888   9.349   2.779  1.3328  0.1883 -0.1433
  913MOL0     H20493   2.930   9.462   2.910  1.0491  0.1049 -2.9139
  913MOL0     H20494   2.813   9.195   2.951 -0.7941  0.0287 -2.4785
  913MOL0     H20495   2.858   9.310   3.077 -0.5181  3.9163 -0.7149
  913MOL0     H20496   2.666   9.398   2.857  0.6848  0.6734 -0.1981
  913MOL0     H20497   2.677   9.460   3.017  0.7358 -0.7123  0.1631
  913MOL0     H20498   3.627   9.140   3.524 -0.8727  1.9167  3.4141
  913MOL0     H20499   3.853   9.175   3.603  4.0359  0.8627 -1.4690
  913MOL0     H20500   4.361   9.154   3.387  2.9731  1.1547 -1.4082
  913MOL0     H20501   4.589   9.254   3.373  0.0535 -0.3896 -0.1291
  913MOL0     H20502   5.884  10.353   3.777 -0.4311  0.1027 -1.0759
  913MOL0     H20503   6.111  10.289   3.679  0.7116 -1.1652 -0.7384
  913MOL0     H20504   6.568  10.233   3.561 -1.0796 -0.6100 -2.5183
  913MOL0     H20505   6.805  10.131   3.563 -0.4792  0.1055 -0.0317
  913MOL0     H20506   6.980   9.735   3.524 -0.9362 -3.6154 -0.2766
  913MOL0     H20507   6.813   9.698   3.551  0.4623  0.4034 -1.7762
  913MOL0     H20508   6.971   9.760   3.801  0.4251 -0.5731 -0.3353
  913MOL0     H20509   6.847   9.654   3.784  0.9783 -1.7386  0.9155
  913MOL0     H20510   7.118   9.604   3.655  1.3177  1.1678  1.4450
  913MOL0     H20511   6.985   9.484   3.678  1.6127 -0.6341 -0.0721
  913MOL0     H20512   7.170   9.631   3.892 -0.5266 -0.5313  0.6896
  913MOL0     H20513   7.026   9.541   3.937 -2.2665 -1.8656 -0.3526
  913MOL0     H20514   7.349   9.267   3.867  0.9745  1.6159  2.8793
  913MOL0     H20515   6.662   9.774   3.720 -1.0792 -1.2647 -0.3422
  913MOL0     H20516   6.452   9.884   3.780 -1.5055  1.9976  1.0517
  914MOL0     O20517   9.958   6.900   7.672 -0.1294  0.0111  0.0067
  914MOL0     C20518   9.948   6.783   7.640  0.8135 -0.2321  0.8238
  914MOL0     O20519   9.839   6.707   7.653  0.7387 -0.7856 -0.2707
  914MOL0     C20520   9.716   6.765   7.684  0.4943 -1.1042 -0.3604
  914MOL0     C20521   9.680   6.907   7.679 -0.1187  0.5674 -0.4039
  914MOL0     C20522   9.548   6.938   7.691 -0.5520 -0.1827  0.1123
  914MOL0     C20523   9.448   6.842   7.698 -0.1282 -0.1646 -0.2626
  914MOL0     O20524   9.317   6.893   7.675  0.3714 -0.0554 -0.2208
  914MOL0     C20525   9.219   6.813   7.615  0.0161  0.0939  0.4004
  914MOL0     C20526   9.118   6.759   7.716 -0.0645 -0.0908 -0.3421
  914MOL0     C20527   8.996   6.700   7.645  0.0882 -0.6858  0.5919
  914MOL0     C20528   8.893   6.651   7.745 -0.2029  0.8240  0.3549
  914MOL0     C20529   8.793   6.561   7.672 -0.2071  0.4789  0.1601
  914MOL0     C20530   8.663   6.557   7.744  0.0779 -0.4582 -0.2875
  914MOL0     C20531   8.556   6.498   7.652 -0.3258  0.0839 -0.6589
  914MOL0     C20532   8.426   6.453   7.722 -0.2503  0.3883  0.9990
  914MOL0     N20533   8.309   6.460   7.632 -0.5207  0.0265 -0.1589
  914MOL0     C20534   8.233   6.354   7.590  0.7199  1.1191  0.0299
  914MOL0     C20535   8.145   6.398   7.501 -0.9221  0.5372 -0.5027
  914MOL0     C20536   8.040   6.314   7.442  0.2003  0.1280 -0.1381
  914MOL0     C20537   7.906   6.323   7.520 -0.2868 -1.4441  0.7234
  914MOL0     C20538   7.855   6.472   7.499 -0.0766 -0.1447  0.2228
  914MOL0     C20539   7.718   6.494   7.571  0.3070 -0.5496  0.0133
  914MOL0     O20540   7.653   6.617   7.527  0.3544  0.3495 -0.1117
  914MOL0     C20541   7.557   6.673   7.608  0.4933  1.1014 -0.6302
  914MOL0     C20542   7.519   6.631   7.739  0.2003 -0.7479  0.0753
  914MOL0     C20543   7.421   6.701   7.807 -0.4090 -0.2073 -0.4904
  914MOL0     C20544   7.361   6.817   7.753 -0.1457 -0.2769 -0.7584
  914MOL0     C20545   7.253   6.887   7.828 -0.7811  0.4426  0.0846
  914MOL0     O20546   7.220   6.817   7.940  0.4599 -0.4136  0.4135
  914MOL0     C20547   7.120   6.861   8.015  0.5580 -0.1717  0.2871
  914MOL0     C20548   6.992   6.835   7.980  0.2908  0.7697  1.2622
  914MOL0     C20549   6.884   6.886   8.058  0.3849  1.2113 -0.8348
  914MOL0     C20550   6.908   6.960   8.171  0.8372 -0.8225 -0.9491
  914MOL0     O20551   6.797   7.018   8.241  0.3112  0.9040 -0.1397
  914MOL0     C20552   6.668   6.949   8.246  0.3099  0.5887 -0.1459
  914MOL0     C20553   6.592   7.006   8.365 -0.2915  0.5161 -0.3806
  914MOL0     C20554   6.652   6.975   8.500 -0.4164 -0.1065 -0.1582
  914MOL0     C20555   6.574   7.059   8.605  0.1247  0.2471  0.2222
  914MOL0     C20556   6.654   7.073   8.737 -0.5293  0.1474  0.3921
  914MOL0     C20557   6.707   6.940   8.796  0.0530  0.5291 -0.9369
  914MOL0     C20558   6.583   6.856   8.829  0.1848 -0.4844 -0.4514
  914MOL0     C20559   6.595   6.798   8.976  0.6356 -0.5231  0.2241
  914MOL0    Cl20560   6.562   6.931   9.085 -0.3702  0.0893 -0.2665
  914MOL0     C20561   7.039   6.983   8.206 -0.0690  0.5846  0.9173
  914MOL0     C20562   7.147   6.935   8.129 -0.0651 -0.5951 -0.6605
  914MOL0     O20563   7.205   6.992   7.785  0.4980  0.1200  0.0215
  914MOL0     C20564   7.393   6.854   7.628 -0.0142  0.5107 -0.3983
  914MOL0     C20565   7.484   6.779   7.559 -0.1036 -0.6072 -0.6774
  914MOL0     N20566   8.183   6.529   7.474  0.1503 -0.7524  0.0212
  914MOL0     N20567   8.269   6.570   7.566  0.4888 -0.5050  0.4069
  914MOL0     C20568   9.478   6.708   7.704  0.6423  0.7397  0.0995
  914MOL0     C20569   9.614   6.671   7.703  0.2763  0.0448 -1.0405
  914MOL0     C20570  10.070   6.729   7.578 -0.0441 -0.1381  0.0071
  914MOL0     C20571  10.083   6.592   7.553 -0.0357 -0.3478 -0.0330
  914MOL0     C20572  10.205   6.545   7.507 -0.6697 -0.2531 -0.4946
  914MOL0     C20573  10.309   6.633   7.481 -0.1609 -1.0978  0.0130
  914MOL0     O20574  10.433   6.604   7.450  0.3168  0.2329 -0.1035
  914MOL0     C20575  10.487   6.473   7.475  0.0088 -0.4692  0.3021
  914MOL0     C20576  10.545   6.459   7.613 -0.1526  0.9303  0.1840
  914MOL0     C20577  10.457   6.517   7.728  0.0442  0.5741 -0.2430
  914MOL0     C20578  10.511   6.502   7.877  0.4230  0.0227  0.1981
  914MOL0     C20579  10.412   6.573   7.955 -0.0503  0.1252  0.0790
  914MOL0     C20580  10.329   6.627   8.017 -0.2302 -0.5869 -0.3565
  914MOL0     C20581  10.292   6.767   7.485  0.2152  0.1471  0.6826
  914MOL0     C20582  10.169   6.821   7.536 -0.7050  0.2659 -1.2683
  914MOL0     H20583   9.756   6.982   7.659 -0.1533  0.1202 -2.4062
  914MOL0     H20584   9.532   7.045   7.701  1.5823  0.3615 -1.6209
  914MOL0     H20585   9.266   6.735   7.554  1.4328  0.2328  1.2733
  914MOL0     H20586   9.163   6.871   7.541  3.7862  3.6676 -0.0072
  914MOL0     H20587   9.083   6.841   7.780  1.0835  1.2518 -1.3705
  914MOL0     H20588   9.161   6.686   7.785 -0.2566 -0.6025 -0.7551
  914MOL0     H20589   9.018   6.619   7.576  2.2362 -1.2271  1.7922
  914MOL0     H20590   8.950   6.767   7.572 -1.6833 -3.1341 -0.6482
  914MOL0     H20591   8.947   6.607   7.828  0.8516  1.0182 -0.2141
  914MOL0     H20592   8.844   6.740   7.786  0.6654  1.3730  0.2330
  914MOL0     H20593   8.836   6.462   7.651  0.7247  0.5286  1.6433
  914MOL0     H20594   8.775   6.604   7.573 -2.9800 -0.2388  0.2517
  914MOL0     H20595   8.627   6.649   7.792 -0.5069 -0.4933 -0.6446
  914MOL0     H20596   8.676   6.491   7.830 -0.0184  2.0149  1.7412
  914MOL0     H20597   8.539   6.583   7.585  1.2274  2.7768  2.1244
  914MOL0     H20598   8.600   6.416   7.595  0.8127  0.3044 -0.1185
  914MOL0     H20599   8.402   6.525   7.802 -0.3199  0.7898  0.6191
  914MOL0     H20600   8.431   6.357   7.775  0.9678  0.1033  0.3831
  914MOL0     H20601   8.240   6.250   7.619 -1.2729  0.8530 -0.3222
  914MOL0     H20602   8.083   6.214   7.439  0.4764  0.2202  0.5727
  914MOL0     H20603   8.040   6.347   7.337 -0.5116  1.7907  0.3442
  914MOL0     H20604   7.922   6.307   7.627  1.2572 -1.5336  0.5089
  914MOL0     H20605   7.849   6.247   7.465  1.3892 -1.8450 -0.5809
  914MOL0     H20606   7.928   6.539   7.544 -0.6904 -0.5228  1.8333
  914MOL0     H20607   7.852   6.499   7.393  2.1688  0.8388  0.3638
  914MOL0     H20608   7.734   6.494   7.679 -2.7818  2.5083  0.6605
  914MOL0     H20609   7.655   6.407   7.551 -1.9964  0.0870  3.4962
  914MOL0     H20610   7.565   6.544   7.785  1.1427 -0.2873  0.0242
  914MOL0     H20611   7.394   6.663   7.905 -1.6345  0.9375 -0.3559
  914MOL0     H20612   6.972   6.794   7.881  0.2425 -0.9310  1.9459
  914MOL0     H20613   6.783   6.873   8.020  0.7591 -2.3946 -0.9717
  914MOL0     H20614   6.680   6.841   8.257 -1.9849  0.3635  0.4721
  914MOL0     H20615   6.620   6.979   8.152  0.9119  0.3571 -0.5352
  914MOL0     H20616   6.491   6.965   8.369 -0.6306  1.3436 -0.2568
  914MOL0     H20617   6.582   7.114   8.357  0.5647  0.5582 -1.1294
  914MOL0     H20618   6.759   7.001   8.498  0.5817 -3.4309  1.6241
  914MOL0     H20619   6.641   6.869   8.523  3.2089 -0.3760  1.0246
  914MOL0     H20620   6.562   7.166   8.582  1.4879  0.5333  0.6960
  914MOL0     H20621   6.474   7.019   8.625 -0.2460  1.3898  0.8083
  914MOL0     H20622   6.585   7.113   8.812 -1.0945 -0.6196  0.2890
  914MOL0     H20623   6.732   7.150   8.730 -1.1942  0.7566 -0.5409
  914MOL0     H20624   6.751   6.961   8.893 -2.3204  2.0624 -0.0946
  914MOL0     H20625   6.785   6.891   8.737 -0.4489 -1.2691 -0.1673
  914MOL0     H20626   6.495   6.920   8.816 -1.1716 -2.7285 -3.2217
  914MOL0     H20627   6.578   6.779   8.752  0.9211 -0.1141 -0.8837
  914MOL0     H20628   6.691   6.747   8.988 -0.0159 -1.9640 -0.4375
  914MOL0     H20629   6.527   6.712   8.980  0.7700 -0.6469 -0.1318
  914MOL0     H20630   7.074   7.043   8.290  0.8958  2.1982 -0.5763
  914MOL0     H20631   7.248   6.958   8.159 -1.5875  2.4242  2.9200
  914MOL0     H20632   7.349   6.939   7.578 -0.8704 -0.9879 -2.3186
  914MOL0     H20633   7.508   6.804   7.456 -0.6310  0.6995 -0.4963
  914MOL0     H20634   9.397   6.636   7.710  2.3877 -1.2731  0.8800
  914MOL0     H20635   9.643   6.567   7.714  1.3328  0.4408  0.1658
  914MOL0     H20636  10.003   6.524   7.581  2.5187 -3.1427  0.9898
  914MOL0     H20637  10.216   6.438   7.497  0.5616 -0.2910  0.8417
  914MOL0     H20638  10.552   6.469   7.387 -0.8657 -2.3689 -0.3019
  914MOL0     H20639  10.414   6.392   7.472 -0.6307  0.1160 -0.1801
  914MOL0     H20640  10.548   6.354   7.640 -1.2918  1.8160  4.5048
  914MOL0     H20641  10.643   6.509   7.617  0.0958  0.5321 -0.7395
  914MOL0     H20642  10.363   6.461   7.724  1.9861 -3.5033  3.2079
  914MOL0     H20643  10.431   6.622   7.712  0.1035  0.5767 -0.3282
  914MOL0     H20644  10.516   6.401   7.918 -1.9680 -0.5463 -0.7613
  914MOL0     H20645  10.605   6.554   7.898 -0.4360  0.5256  3.2438
  914MOL0     H20646  10.244   6.676   8.061 -1.0521 -0.0654 -2.4107
  914MOL0     H20647  10.376   6.829   7.456 -0.3514 -0.2336 -2.0491
  914MOL0     H20648  10.156   6.928   7.550  0.2937  0.1817  0.6411
  915MOL0     O20649   4.569   8.724   3.649 -0.0955 -0.2958 -0.3832
  915MOL0     C20650   4.647   8.648   3.701  0.5384  0.0683 -0.4081
  915MOL0     O20651   4.615   8.552   3.792 -0.5150  0.3594  0.0072
  915MOL0     C20652   4.488   8.539   3.843  0.4348  0.7070  0.3677
  915MOL0     C20653   4.375   8.547   3.754 -0.1337 -0.2605 -0.2129
  915MOL0     C20654   4.244   8.545   3.802  0.2009 -0.1033  0.0306
  915MOL0     C20655   4.221   8.516   3.930  0.2020  1.1665 -0.4309
  915MOL0     O20656   4.101   8.512   3.993 -0.2563 -0.8331 -0.2896
  915MOL0     C20657   3.986   8.539   3.913  0.4409 -0.1582 -0.2264
  915MOL0     C20658   3.878   8.556   4.014 -0.7278  0.0982 -1.2807
  915MOL0     C20659   3.746   8.536   3.954  0.5008 -0.3077 -0.2342
  915MOL0     C20660   3.647   8.583   4.052  0.3358  0.3480  0.4484
  915MOL0     C20661   3.542   8.473   4.091  0.4603 -0.3556 -0.2050
  915MOL0     C20662   3.461   8.521   4.209 -0.2806  0.2316  0.0136
  915MOL0     C20663   3.393   8.411   4.289 -0.2237  0.2045  0.2744
  915MOL0     C20664   3.285   8.472   4.390 -0.4594  0.7058  0.0468
  915MOL0     N20665   3.221   8.360   4.461 -0.4210 -0.4244 -0.5153
  915MOL0     C20666   3.214   8.361   4.597 -0.1555 -0.4369 -0.1914
  915MOL0     C20667   3.106   8.285   4.627  0.4472  0.2129  0.1623
  915MOL0     C20668   3.050   8.258   4.759 -0.3609 -0.2888  0.2260
  915MOL0     C20669   2.895   8.239   4.768  0.2460  0.2263  0.5672
  915MOL0     C20670   2.853   8.209   4.911  0.0029 -0.5445 -0.0641
  915MOL0     C20671   2.696   8.202   4.921  0.0814  0.4084  0.3286
  915MOL0     O20672   2.654   8.066   4.879  0.0753  0.0179 -0.1216
  915MOL0     C20673   2.517   8.047   4.882  0.3611  0.7604 -0.8265
  915MOL0     C20674   2.424   8.145   4.909  0.3955 -1.3435 -0.1395
  915MOL0     C20675   2.282   8.121   4.899  0.0212 -0.2417  0.7412
  915MOL0     C20676   2.247   7.988   4.849 -0.3864 -0.6289 -0.0359
  915MOL0     C20677   2.110   7.947   4.821  0.2637 -0.8696  0.8189
  915MOL0     O20678   2.018   8.038   4.863 -0.0903  0.0029  0.8957
  915MOL0     C20679   1.885   8.019   4.854  0.8047  0.5231 -0.0002
  915MOL0     C20680   1.812   7.951   4.756 -0.6049  0.2245 -0.2137
  915MOL0     C20681   1.677   7.946   4.753  0.1582  0.8421  0.5522
  915MOL0     C20682   1.600   8.006   4.857  0.5522  0.3037  0.4641
  915MOL0     O20683   1.461   7.994   4.863 -0.1655  0.3598  0.2636
  915MOL0     C20684   1.393   8.021   4.738 -0.8093  0.5396 -0.5374
  915MOL0     C20685   1.255   8.085   4.769 -0.5572  0.0201 -0.7321
  915MOL0     C20686   1.261   8.230   4.807  0.2709 -0.2909  0.0560
  915MOL0     C20687   1.123   8.282   4.860  1.2500  0.0204  0.0076
  915MOL0     C20688   1.098   8.427   4.880 -0.6177  0.5521 -0.1878
  915MOL0     C20689   0.957   8.454   4.915  0.9673  0.3790 -0.4220
  915MOL0     C20690   0.923   8.607   4.928 -0.8303  0.1474 -0.5598
  915MOL0     C20691   0.969   8.693   4.807  0.7517 -0.0024  0.8757
  915MOL0    Cl20692   0.858   8.678   4.666  0.5489  0.0052 -0.2411
  915MOL0     C20693   1.672   8.077   4.956 -0.0931  0.8405  0.6417
  915MOL0     C20694   1.814   8.092   4.953  0.8675 -0.1495  0.2212
  915MOL0     O20695   2.075   7.839   4.767 -0.1560  0.4644 -0.0037
  915MOL0     C20696   2.339   7.889   4.833 -0.4486  0.1302 -0.5467
  915MOL0     C20697   2.472   7.921   4.846  0.0036 -0.0460 -0.0538
  915MOL0     N20698   3.046   8.240   4.511 -0.5938 -0.0644 -0.6051
  915MOL0     N20699   3.116   8.292   4.415 -0.5350 -0.3981 -0.3531
  915MOL0     C20700   4.326   8.491   4.018  0.1856 -1.1858  0.1429
  915MOL0     C20701   4.459   8.495   3.971  0.2947 -0.2594 -0.4438
  915MOL0     C20702   4.787   8.660   3.663 -0.4828  0.8003 -0.4368
  915MOL0     C20703   4.874   8.555   3.699  0.0746 -0.8615  0.1310
  915MOL0     C20704   5.004   8.560   3.648 -0.9833  0.6302 -0.0277
  915MOL0     C20705   5.060   8.668   3.574 -0.0341 -0.3891 -0.6022
  915MOL0     O20706   5.191   8.661   3.543  0.0553  0.5915 -0.6325
  915MOL0     C20707   5.242   8.756   3.450  0.2799 -0.2545 -0.3290
  915MOL0     C20708   5.392   8.733   3.408  1.1325  0.0204 -0.0255
  915MOL0     C20709   5.408   8.594   3.341  0.8028 -0.8990 -0.2260
  915MOL0     C20710   5.285   8.565   3.255 -1.0401 -0.1427  1.1499
  915MOL0     C20711   5.308   8.451   3.160  0.2014  0.1444  0.0463
  915MOL0     C20712   5.351   8.361   3.083  0.2983  0.5159 -0.1058
  915MOL0     C20713   4.973   8.773   3.549 -0.2870 -0.1422 -0.3615
  915MOL0     C20714   4.841   8.773   3.594  0.0616 -0.1548 -0.1829
  915MOL0     H20715   4.379   8.567   3.648  1.7600 -2.2181 -0.6001
  915MOL0     H20716   4.166   8.576   3.732 -0.0575 -1.4041 -0.2752
  915MOL0     H20717   3.962   8.460   3.841  1.3705  0.5537 -1.3492
  915MOL0     H20718   3.991   8.629   3.851 -1.6268  0.3337  0.2196
  915MOL0     H20719   3.899   8.656   4.051  2.3715 -0.2789 -1.7572
  915MOL0     H20720   3.897   8.483   4.093  1.6306  0.0302 -1.8356
  915MOL0     H20721   3.741   8.429   3.928  2.2830 -0.7347  1.0061
  915MOL0     H20722   3.728   8.590   3.860  1.3228 -0.6094 -0.5743
  915MOL0     H20723   3.696   8.620   4.142 -1.0205  0.8611  1.0068
  915MOL0     H20724   3.594   8.668   4.007  2.5771  0.2508 -2.6739
  915MOL0     H20725   3.593   8.378   4.109  1.5059  0.3157  0.5639
  915MOL0     H20726   3.476   8.452   4.007  0.5659  0.8870 -0.6199
  915MOL0     H20727   3.389   8.586   4.158 -3.1919 -2.9531 -0.2394
  915MOL0     H20728   3.512   8.588   4.280  0.3805  1.8572 -1.9077
  915MOL0     H20729   3.356   8.330   4.226  2.2707 -1.7352  1.1147
  915MOL0     H20730   3.476   8.362   4.341  0.9297 -0.3575 -1.9302
  915MOL0     H20731   3.208   8.524   4.332 -2.6590 -0.8371  1.3933
  915MOL0     H20732   3.335   8.543   4.457  2.5419 -0.7977 -0.4445
  915MOL0     H20733   3.261   8.432   4.666 -0.7168 -0.8460  0.6347
  915MOL0     H20734   3.080   8.344   4.819  0.5214 -0.0777 -0.4970
  915MOL0     H20735   3.101   8.169   4.798  1.0172 -0.2061 -1.2738
  915MOL0     H20736   2.868   8.155   4.703  0.1761  0.3912  0.3830
  915MOL0     H20737   2.840   8.330   4.741 -1.4765 -0.2865  2.0807
  915MOL0     H20738   2.905   8.120   4.949  3.0938 -0.0092 -2.5978
  915MOL0     H20739   2.899   8.286   4.974 -2.0913 -0.3540  1.2992
  915MOL0     H20740   2.649   8.275   4.855 -1.6835  0.7742  1.9277
  915MOL0     H20741   2.657   8.224   5.021 -1.2306  1.1613 -0.3167
  915MOL0     H20742   2.447   8.248   4.938  2.3092 -0.7017 -3.4017
  915MOL0     H20743   2.215   8.202   4.924  0.9871  0.7596  0.1359
  915MOL0     H20744   1.875   7.898   4.685 -0.0320 -1.0594  1.1862
  915MOL0     H20745   1.627   7.886   4.677  1.6042 -0.5235  0.6400
  915MOL0     H20746   1.374   7.925   4.689  1.3244 -0.8620  1.1505
  915MOL0     H20747   1.444   8.085   4.666 -1.2356  1.9684  0.3705
  915MOL0     H20748   1.204   8.033   4.850  0.6526 -1.4356 -0.8535
  915MOL0     H20749   1.196   8.076   4.678 -2.6701  1.4976  0.4131
  915MOL0     H20750   1.288   8.285   4.716  2.4529 -3.9835 -1.7368
  915MOL0     H20751   1.336   8.256   4.882  1.3790 -1.2073 -0.7013
  915MOL0     H20752   1.048   8.236   4.795 -0.0675  1.0229  0.7846
  915MOL0     H20753   1.107   8.239   4.959  2.1170  0.2065  0.2439
  915MOL0     H20754   1.118   8.479   4.785  1.0993 -1.0067 -0.7490
  915MOL0     H20755   1.168   8.462   4.957 -0.5570  0.4201 -0.1818
  915MOL0     H20756   0.932   8.400   5.006 -0.2581  0.8558 -0.4546
  915MOL0     H20757   0.886   8.413   4.843  0.4296 -0.9173  0.8000
  915MOL0     H20758   0.817   8.628   4.948 -0.9357 -1.3432  0.6993
  915MOL0     H20759   0.985   8.643   5.011  1.2852  1.1307 -2.4623
  915MOL0     H20760   1.071   8.666   4.777  0.8959 -0.2601  1.5741
  915MOL0     H20761   0.973   8.798   4.836 -1.1226  0.3535  0.0178
  915MOL0     H20762   1.609   8.134   5.023 -0.3884  0.4642  0.6788
  915MOL0     H20763   1.857   8.161   5.025 -3.0666 -0.0848  2.7479
  915MOL0     H20764   2.313   7.790   4.797  0.1406  1.0293 -3.8272
  915MOL0     H20765   2.548   7.848   4.822 -1.3638 -1.2247 -1.0030
  915MOL0     H20766   4.306   8.474   4.123 -1.9843  2.1825  0.4357
  915MOL0     H20767   4.520   8.464   4.055 -0.4578  0.9994  0.5928
  915MOL0     H20768   4.835   8.464   3.743 -0.4932 -0.4285  0.5343
  915MOL0     H20769   5.071   8.477   3.663 -0.1725  0.7093 -2.6863
  915MOL0     H20770   5.235   8.848   3.510  2.5802 -0.0214 -0.3581
  915MOL0     H20771   5.184   8.765   3.358  3.5351 -1.4048 -2.6456
  915MOL0     H20772   5.412   8.812   3.335 -1.9196 -0.3536 -1.4377
  915MOL0     H20773   5.473   8.743   3.481  0.9342 -0.0725  0.2077
  915MOL0     H20774   5.420   8.516   3.416  2.2287 -1.7290 -1.2665
  915MOL0     H20775   5.502   8.587   3.285  1.5919  0.7621  0.8040
  915MOL0     H20776   5.210   8.524   3.324 -1.0254 -1.0820  0.6258
  915MOL0     H20777   5.258   8.654   3.200  1.6791 -1.0493 -1.9730
  915MOL0     H20778   5.402   8.288   3.022  0.2219  0.5077 -0.1603
  915MOL0     H20779   5.014   8.863   3.504  2.1401 -2.2599 -2.7485
  915MOL0     H20780   4.782   8.860   3.569  1.6730  1.6741  2.0188
  916MOL0     O20781   1.757   5.835   3.047 -0.2923 -0.0641 -0.3697
  916MOL0     C20782   1.783   5.902   2.950 -0.6000 -0.0397  0.1007
  916MOL0     O20783   1.692   5.930   2.847 -0.4567 -1.4458 -0.1414
  916MOL0     C20784   1.562   5.923   2.875  0.3165  0.3603  0.1161
  916MOL0     C20785   1.484   6.026   2.834 -0.1989 -0.4456  0.3846
  916MOL0     C20786   1.347   6.025   2.851 -0.1063  0.1154  0.5206
  916MOL0     C20787   1.290   5.912   2.910 -0.2992 -0.0157 -0.9796
  916MOL0     O20788   1.158   5.904   2.938 -0.1012  0.4477  0.0616
  916MOL0     C20789   1.087   5.958   2.830 -0.4442 -0.1323  0.1490
  916MOL0     C20790   0.942   5.929   2.851  0.1228  0.5707 -0.4776
  916MOL0     C20791   0.902   5.779   2.862 -0.9862 -0.6214  0.5883
  916MOL0     C20792   0.751   5.755   2.888  0.4477 -0.2278  0.6331
  916MOL0     C20793   0.657   5.766   2.761  0.3620 -0.4874 -0.4242
  916MOL0     C20794   0.526   5.690   2.762  0.8486 -0.6866  0.0778
  916MOL0     C20795   0.443   5.748   2.880  0.2939  0.5028  1.2402
  916MOL0     C20796   0.369   5.890   2.863  0.2242  0.1111  0.2376
  916MOL0     N20797   0.283   5.937   2.968 -0.4396  0.4113 -0.3300
  916MOL0     C20798   0.161   5.869   2.992 -0.3061 -0.0863  0.4138
  916MOL0     C20799   0.115   5.925   3.106  0.6163  0.6102  0.7536
  916MOL0     C20800  -0.007   5.882   3.189  1.0162  0.6677 -0.3678
  916MOL0     C20801  -0.127   5.899   3.100  0.0802 -0.3238 -0.2453
  916MOL0     C20802  -0.253   5.839   3.163 -0.1637  1.1726  0.3566
  916MOL0     C20803  -0.368   5.842   3.055 -0.4243  0.4906  0.3929
  916MOL0     O20804  -0.492   5.804   3.117 -0.5660 -0.1371 -0.4472
  916MOL0     C20805  -0.606   5.784   3.057  0.5964 -0.4001  0.1890
  916MOL0     C20806  -0.720   5.771   3.136 -0.3478  0.3210  0.2453
  916MOL0     C20807  -0.841   5.734   3.080 -0.5090 -0.3786 -0.3886
  916MOL0     C20808  -0.855   5.723   2.940 -0.2602 -0.2348 -0.0470
  916MOL0     C20809  -0.983   5.692   2.877 -0.4400  0.2607  0.0567
  916MOL0     O20810  -1.089   5.656   2.962 -0.4285  0.2376 -0.0878
  916MOL0     C20811  -1.208   5.641   2.907 -0.0223 -0.0112  0.4248
  916MOL0     C20812  -1.274   5.520   2.929  0.2520  0.3086  0.6204
  916MOL0     C20813  -1.411   5.507   2.884 -0.1209  0.1058  0.4354
  916MOL0     C20814  -1.484   5.606   2.821  0.0702 -0.3474  0.5822
  916MOL0     O20815  -1.615   5.607   2.780 -0.4161 -0.5730 -0.0107
  916MOL0     C20816  -1.704   5.520   2.842 -0.2075  0.5852  0.3479
  916MOL0     C20817  -1.755   5.561   2.986 -0.2804  0.2832  0.4919
  916MOL0     C20818  -1.872   5.476   3.032 -0.2268 -0.1177 -0.3545
  916MOL0     C20819  -1.992   5.485   2.943  0.4806  0.1984  0.4346
  916MOL0     C20820  -2.123   5.425   3.004  0.4988 -0.2044  0.7139
  916MOL0     C20821  -2.173   5.487   3.124  0.9261 -0.0183 -0.3330
  916MOL0     C20822  -2.318   5.455   3.140 -0.6227 -0.3545 -0.6195
  916MOL0     C20823  -2.389   5.565   3.225  0.5861 -0.3105  1.0228
  916MOL0    Cl20824  -2.321   5.586   3.377 -0.0630 -0.1351 -0.1232
  916MOL0     C20825  -1.415   5.721   2.804  0.3066  0.0310  1.0574
  916MOL0     C20826  -1.280   5.740   2.845 -0.3176  0.6691  0.8700
  916MOL0     O20827  -0.992   5.715   2.757 -0.5222 -0.2551 -0.0062
  916MOL0     C20828  -0.743   5.747   2.863 -0.1576 -1.1739  0.3149
  916MOL0     C20829  -0.624   5.771   2.922  0.0128  0.1135  1.0083
  916MOL0     N20830   0.200   6.028   3.138  0.3860  0.4937 -0.1494
  916MOL0     N20831   0.298   6.038   3.057 -0.2131  0.4982 -0.1808
  916MOL0     C20832   1.368   5.807   2.951 -0.9793 -0.6665 -0.2758
  916MOL0     C20833   1.501   5.804   2.926  0.6973  0.0629 -0.0712
  916MOL0     C20834   1.921   5.970   2.943 -0.2240 -0.5332 -0.3735
  916MOL0     C20835   1.934   6.085   2.870  0.1359  0.8198  0.7126
  916MOL0     C20836   2.052   6.146   2.845  0.3313  0.3682  0.3196
  916MOL0     C20837   2.166   6.106   2.895 -0.2501  0.4214  0.1672
  916MOL0     O20838   2.291   6.167   2.889 -0.5168  0.2790  0.9163
  916MOL0     C20839   2.327   6.194   2.753 -0.2309  0.1381  0.0330
  916MOL0     C20840   2.476   6.177   2.725  0.4134 -0.6902 -0.1706
  916MOL0     C20841   2.557   6.284   2.797 -0.4970  0.0474 -0.1349
  916MOL0     C20842   2.700   6.262   2.769  0.1596  0.1111 -0.4990
  916MOL0     C20843   2.783   6.333   2.869 -0.1552  0.0859  0.1330
  916MOL0     C20844   2.852   6.406   2.941 -0.7651 -1.3281  0.6606
  916MOL0     C20845   2.158   5.994   2.983 -0.0406  0.3690 -0.2485
  916MOL0     C20846   2.037   5.924   3.012 -0.5397  0.7252  0.1234
  916MOL0     H20847   1.533   6.109   2.784 -0.5189  0.2983  1.2929
  916MOL0     H20848   1.294   6.118   2.833  0.8581  0.0983 -3.2460
  916MOL0     H20849   1.118   5.936   2.728 -1.5893  1.3556 -0.5629
  916MOL0     H20850   1.086   6.067   2.846 -1.3749 -0.2051  0.6687
  916MOL0     H20851   0.888   5.978   2.770  0.2826  3.4478  1.0293
  916MOL0     H20852   0.895   5.981   2.934 -0.3286 -1.6719  0.7580
  916MOL0     H20853   0.959   5.730   2.941 -0.1683 -1.1120 -0.2722
  916MOL0     H20854   0.929   5.732   2.767 -1.1166 -0.1253  0.3007
  916MOL0     H20855   0.730   5.659   2.936 -1.9077  1.5610  3.5152
  916MOL0     H20856   0.718   5.831   2.960 -0.5994 -0.9261  0.9051
  916MOL0     H20857   0.706   5.731   2.670 -0.7622 -1.5098 -0.6715
  916MOL0     H20858   0.640   5.872   2.743  0.9058 -0.1774  0.7768
  916MOL0     H20859   0.539   5.581   2.767  1.1250 -0.7278 -1.2322
  916MOL0     H20860   0.460   5.709   2.677  0.4568  0.2327  0.5671
  916MOL0     H20861   0.361   5.679   2.903 -1.6784  1.9506 -0.9720
  916MOL0     H20862   0.499   5.737   2.973  0.7964  0.8384  0.9832
  916MOL0     H20863   0.309   5.892   2.772 -1.0187  1.9742  1.0184
  916MOL0     H20864   0.453   5.958   2.847  1.0600 -1.0776 -0.5928
  916MOL0     H20865   0.116   5.784   2.941  0.2032 -0.1605  0.0766
  916MOL0     H20866  -0.021   5.951   3.273 -0.8780 -2.7075  2.3557
  916MOL0     H20867   0.017   5.784   3.232 -1.5456  0.7572  1.5060
  916MOL0     H20868  -0.102   5.852   3.005  0.1081 -2.1298  0.6092
  916MOL0     H20869  -0.137   6.006   3.081 -2.3872 -0.7785 -1.8916
  916MOL0     H20870  -0.229   5.735   3.185  2.7665  1.9971  1.6433
  916MOL0     H20871  -0.275   5.900   3.251  2.3963  2.5829  0.1269
  916MOL0     H20872  -0.333   5.777   2.975 -1.4978  0.4530 -0.0596
  916MOL0     H20873  -0.368   5.934   2.995  1.2203  0.0021 -0.4334
  916MOL0     H20874  -0.732   5.780   3.244 -3.3499 -1.2655  0.1594
  916MOL0     H20875  -0.924   5.729   3.150  1.1068  0.6755  1.7022
  916MOL0     H20876  -1.218   5.446   2.986  0.0872  0.6003  1.1736
  916MOL0     H20877  -1.454   5.409   2.902 -1.7496  1.0528  1.9931
  916MOL0     H20878  -1.668   5.417   2.849 -0.0393  0.6178 -0.0508
  916MOL0     H20879  -1.779   5.521   2.762  2.3876  0.7800 -2.2402
  916MOL0     H20880  -1.791   5.663   2.967  0.3746  0.2556 -1.0215
  916MOL0     H20881  -1.671   5.571   3.054 -0.3225  2.2410  0.3234
  916MOL0     H20882  -1.897   5.513   3.132  0.7730  0.4021 -0.2890
  916MOL0     H20883  -1.841   5.372   3.048  0.8057  0.3881  1.1320
  916MOL0     H20884  -2.008   5.584   2.899  3.9102  1.4689  1.6967
  916MOL0     H20885  -1.964   5.413   2.865 -2.7721 -1.1964  0.4050
  916MOL0     H20886  -2.103   5.321   3.032  0.3673 -0.1623  0.9592
  916MOL0     H20887  -2.187   5.420   2.915 -1.0870  2.3269  1.5852
  916MOL0     H20888  -2.162   5.596   3.123  0.0968  0.2510  3.8169
  916MOL0     H20889  -2.111   5.463   3.211  2.2762  0.8554 -0.9996
  916MOL0     H20890  -2.373   5.449   3.046 -2.9629  1.4036  0.5362
  916MOL0     H20891  -2.329   5.353   3.180 -0.0463 -0.4935 -0.8047
  916MOL0     H20892  -2.496   5.542   3.233 -0.2621  3.4676  2.9911
  916MOL0     H20893  -2.383   5.657   3.166  2.3992 -1.0746 -0.0711
  916MOL0     H20894  -1.468   5.800   2.753  0.2767  0.1226  1.2306
  916MOL0     H20895  -1.226   5.831   2.821  0.0901  0.2509  0.1585
  916MOL0     H20896  -0.749   5.753   2.755  3.2372  2.3975  0.0820
  916MOL0     H20897  -0.542   5.779   2.851  1.2378 -1.5740  2.1826
  916MOL0     H20898   1.333   5.725   3.013 -0.6602 -1.7859 -1.5358
  916MOL0     H20899   1.566   5.719   2.944 -0.5366 -0.8814  0.0850
  916MOL0     H20900   1.844   6.126   2.826  0.0889 -2.1943 -2.4287
  916MOL0     H20901   2.046   6.235   2.783 -2.5966  0.4441  0.5401
  916MOL0     H20902   2.297   6.299   2.740 -0.2181  0.3702  1.7178
  916MOL0     H20903   2.269   6.127   2.689 -1.9741  2.1284 -0.6109
  916MOL0     H20904   2.509   6.079   2.760 -0.4131 -0.3128  1.8475
  916MOL0     H20905   2.487   6.171   2.617  2.7096  1.5833 -0.1364
  916MOL0     H20906   2.534   6.277   2.904 -1.0697  0.1950 -0.2487
  916MOL0     H20907   2.531   6.383   2.760 -2.4341 -0.7681 -1.0722
  916MOL0     H20908   2.722   6.155   2.774  0.3317  0.1939  2.5823
  916MOL0     H20909   2.718   6.304   2.670  2.9646 -0.5083 -0.3149
  916MOL0     H20910   2.916   6.470   2.998  1.4681 -1.4684 -1.5281
  916MOL0     H20911   2.253   5.964   3.026  0.1710  2.8230  1.1752
  916MOL0     H20912   2.024   5.841   3.081  1.0382 -0.5598 -1.0586
  917MOL0     O20913   8.168   9.108  10.471 -0.2350  0.9010  0.3623
  917MOL0     C20914   8.201   9.222  10.448 -0.2999  0.3392  0.0311
  917MOL0     O20915   8.136   9.311  10.362  1.0514  0.2839 -0.0639
  917MOL0     C20916   8.036   9.266  10.274  0.6616 -0.3167  0.2462
  917MOL0     C20917   8.049   9.283  10.135  0.0406  0.4854  0.0052
  917MOL0     C20918   7.956   9.236  10.046  0.3332  0.0266  0.6412
  917MOL0     C20919   7.844   9.180  10.091  0.4650 -0.4475  0.5824
  917MOL0     O20920   7.745   9.145   9.995  0.6523  0.8670 -0.2121
  917MOL0     C20921   7.654   9.033  10.017  0.3961 -0.0546  0.4771
  917MOL0     C20922   7.631   8.956   9.886 -0.1894  0.0219 -0.4548
  917MOL0     C20923   7.545   9.035   9.788 -0.1964  0.4843  0.2908
  917MOL0     C20924   7.486   8.950   9.678 -0.1838  0.2605  0.1451
  917MOL0     C20925   7.430   9.026   9.553 -0.0465  0.7488  0.2781
  917MOL0     C20926   7.300   9.098   9.597  0.1131 -0.5597  0.3582
  917MOL0     C20927   7.253   9.177   9.484  0.4951 -1.0620 -0.2562
  917MOL0     C20928   7.135   9.270   9.532  0.6930  0.9339  0.0944
  917MOL0     N20929   7.028   9.193   9.600 -0.1011 -0.0577 -0.4613
  917MOL0     C20930   6.957   9.090   9.546 -0.3152  0.7149 -0.5277
  917MOL0     C20931   6.898   9.029   9.652  0.6814 -0.4137 -0.2365
  917MOL0     C20932   6.814   8.899   9.630 -0.2445 -0.4236 -0.2799
  917MOL0     C20933   6.679   8.927   9.686  0.4618 -0.7562 -0.8431
  917MOL0     C20934   6.568   8.836   9.620  0.1826 -0.1030  0.4133
  917MOL0     C20935   6.443   8.871   9.701  0.5530  0.4238  0.2211
  917MOL0     O20936   6.337   8.778   9.686 -0.7676  0.9077 -0.6265
  917MOL0     C20937   6.224   8.787   9.604 -0.3725 -0.0425 -0.6832
  917MOL0     C20938   6.117   8.695   9.622 -0.5549  0.3476  0.8481
  917MOL0     C20939   5.998   8.713   9.566  0.1424  0.7296 -0.1455
  917MOL0     C20940   5.972   8.816   9.473  0.1375 -0.5434  0.5292
  917MOL0     C20941   5.825   8.849   9.425  0.0773  0.4221  0.1837
  917MOL0     O20942   5.711   8.791   9.480  0.0582 -0.1997 -0.7157
  917MOL0     C20943   5.635   8.713   9.397  0.4638 -0.2521 -0.2405
  917MOL0     C20944   5.656   8.686   9.264 -0.2569 -0.8245  0.4179
  917MOL0     C20945   5.570   8.613   9.182  0.1461 -1.1866  0.2095
  917MOL0     C20946   5.446   8.558   9.230  0.9465 -0.5498 -0.6365
  917MOL0     O20947   5.347   8.489   9.162  0.0666  0.0485  0.6294
  917MOL0     C20948   5.386   8.426   9.041 -0.5181 -0.7367  0.2067
  917MOL0     C20949   5.269   8.351   8.976  0.0569 -0.7163  0.2232
  917MOL0     C20950   5.306   8.293   8.840  0.0518  0.0893 -0.2537
  917MOL0     C20951   5.187   8.201   8.788 -0.2031 -0.2674 -1.3131
  917MOL0     C20952   5.194   8.159   8.644  0.5979 -0.0808 -1.0940
  917MOL0     C20953   5.060   8.100   8.592 -0.2536  0.1425  0.5555
  917MOL0     C20954   5.021   7.980   8.681  0.1850 -0.1355 -0.5720
  917MOL0     C20955   4.964   7.858   8.614  0.8779  0.3750  0.9786
  917MOL0    Cl20956   4.931   7.736   8.747  0.3352  0.3232 -0.4100
  917MOL0     C20957   5.430   8.587   9.374 -0.2915 -0.1032  0.0193
  917MOL0     C20958   5.520   8.660   9.455  0.2620 -0.5523  0.3426
  917MOL0     O20959   5.818   8.934   9.338 -0.1947  0.9758  0.3957
  917MOL0     C20960   6.077   8.908   9.453 -0.0996  0.2272  0.3823
  917MOL0     C20961   6.203   8.884   9.506  0.0310 -0.6648  0.6384
  917MOL0     N20962   6.931   9.097   9.768  0.3052  0.0831 -0.4735
  917MOL0     N20963   7.016   9.188   9.736 -0.0265 -0.7572 -0.1852
  917MOL0     C20964   7.833   9.157  10.225  0.0180 -1.0123  0.2251
  917MOL0     C20965   7.920   9.206  10.322 -0.0233 -0.2065  0.3121
  917MOL0     C20966   8.324   9.278  10.509  0.0215  0.2164 -1.1740
  917MOL0     C20967   8.425   9.196  10.564 -1.0989  0.3616 -0.0527
  917MOL0     C20968   8.550   9.247  10.617  0.4903  0.5815 -0.2952
  917MOL0     C20969   8.582   9.382  10.608  0.7028 -0.4610  0.1458
  917MOL0     O20970   8.711   9.421  10.654  0.3174 -0.1824  0.0655
  917MOL0     C20971   8.762   9.553  10.618  0.3427 -0.5416 -1.1765
  917MOL0     C20972   8.888   9.592  10.699 -0.3627  0.2519  0.4475
  917MOL0     C20973   8.881   9.567  10.848 -0.8349  0.4484 -0.0995
  917MOL0     C20974   9.015   9.595  10.922 -1.1198 -0.6029  0.5172
  917MOL0     C20975   9.070   9.735  10.911 -0.2414 -0.2036  0.1906
  917MOL0     C20976   9.099   9.843  10.892  0.9113 -0.0476  0.8699
  917MOL0     C20977   8.484   9.469  10.550  0.9166  0.4744  0.4553
  917MOL0     C20978   8.358   9.416  10.508 -0.1238  0.2186  0.9622
  917MOL0     H20979   8.145   9.311  10.094 -0.3088 -1.4728 -2.3905
  917MOL0     H20980   7.969   9.248   9.939  0.3790 -0.2307  0.6171
  917MOL0     H20981   7.552   9.064  10.043  0.0378  1.2942 -2.1491
  917MOL0     H20982   7.698   8.962  10.087  0.3217 -0.6001 -0.0247
  917MOL0     H20983   7.567   8.873   9.918  0.9296 -0.9766 -0.7367
  917MOL0     H20984   7.731   8.921   9.857  1.3902  0.5736  3.6063
  917MOL0     H20985   7.606   9.117   9.747  2.3568 -0.3305  2.2330
  917MOL0     H20986   7.458   9.077   9.841 -0.2166 -1.8011  2.2110
  917MOL0     H20987   7.562   8.881   9.640  0.1448 -0.3595  1.8434
  917MOL0     H20988   7.409   8.887   9.722 -1.2285  2.0787  1.0036
  917MOL0     H20989   7.401   8.952   9.478  1.0793  1.5696 -1.0229
  917MOL0     H20990   7.508   9.087   9.507  1.2406 -0.1445  1.2015
  917MOL0     H20991   7.312   9.174   9.674 -0.4843  2.0764 -1.9607
  917MOL0     H20992   7.224   9.027   9.631 -0.2665 -0.4263 -0.1750
  917MOL0     H20993   7.328   9.249   9.450 -0.9169  0.6512  0.1013
  917MOL0     H20994   7.233   9.106   9.403 -3.7291 -1.2765  0.7288
  917MOL0     H20995   7.090   9.312   9.441 -1.1265  2.9532  1.8041
  917MOL0     H20996   7.166   9.356   9.593  2.8196 -0.6666  1.4195
  917MOL0     H20997   6.961   9.055   9.443 -0.2150  1.1510 -0.6725
  917MOL0     H20998   6.859   8.817   9.687  1.8178 -0.2282 -1.5490
  917MOL0     H20999   6.804   8.883   9.522 -0.2915  1.7118 -0.6374
  917MOL0     H21000   6.658   9.030   9.659  1.1578 -0.3250  0.1909
  917MOL0     H21001   6.692   8.921   9.795 -0.9961  1.8441 -0.4664
  917MOL0     H21002   6.555   8.852   9.512 -1.6409  0.7353  0.7192
  917MOL0     H21003   6.600   8.733   9.639 -0.8630 -0.5869 -0.3196
  917MOL0     H21004   6.409   8.966   9.660 -0.2143  0.4229  0.8331
  917MOL0     H21005   6.470   8.891   9.805 -1.1592  0.6418  0.6497
  917MOL0     H21006   6.126   8.618   9.698 -2.8350  2.1286  3.0820
  917MOL0     H21007   5.915   8.644   9.583  0.8235 -0.1842 -0.4351
  917MOL0     H21008   5.741   8.718   9.206 -3.4454  0.7288 -3.9449
  917MOL0     H21009   5.567   8.625   9.074 -0.0195 -0.6796  0.2673
  917MOL0     H21010   5.464   8.352   9.062 -0.4362 -0.4420  0.9879
  917MOL0     H21011   5.419   8.502   8.969 -2.0318 -1.1503 -0.9824
  917MOL0     H21012   5.186   8.422   8.963  0.5834 -0.2706 -0.7692
  917MOL0     H21013   5.239   8.270   9.043 -1.8424  1.0256  1.6225
  917MOL0     H21014   5.402   8.242   8.852 -0.9656 -1.8136  0.0914
  917MOL0     H21015   5.324   8.382   8.779  0.5407  0.8211  0.9201
  917MOL0     H21016   5.189   8.120   8.861 -0.3904 -0.2560 -1.2949
  917MOL0     H21017   5.090   8.248   8.806  0.7732  0.6541  2.6807
  917MOL0     H21018   5.278   8.094   8.619 -0.1621 -0.9928 -1.3607
  917MOL0     H21019   5.214   8.256   8.597 -3.7134  1.9562  0.7343
  917MOL0     H21020   5.066   8.065   8.489 -1.1600 -3.5012  1.5908
  917MOL0     H21021   4.974   8.168   8.600  0.1890  0.7374  0.3601
  917MOL0     H21022   5.114   7.949   8.730  1.8660  0.8929 -2.9023
  917MOL0     H21023   4.951   8.015   8.757  1.2827  0.2093  0.3143
  917MOL0     H21024   5.022   7.803   8.540  0.4809 -0.9773  1.6409
  917MOL0     H21025   4.868   7.893   8.573  0.3304 -0.5698  1.4164
  917MOL0     H21026   5.339   8.542   9.413 -1.5000 -0.3638 -2.8623
  917MOL0     H21027   5.489   8.678   9.558 -0.7554  0.9796 -0.2046
  917MOL0     H21028   6.049   8.989   9.386 -0.5074 -1.2822 -1.3622
  917MOL0     H21029   6.283   8.958   9.506  0.1411 -0.7731 -0.2218
  917MOL0     H21030   7.745   9.103  10.259 -0.5174 -1.1214 -1.2897
  917MOL0     H21031   7.901   9.194  10.428 -0.7739 -1.6057  0.0390
  917MOL0     H21032   8.417   9.088  10.559 -1.6831  0.3876  0.1963
  917MOL0     H21033   8.625   9.191  10.672 -1.2052  0.7937  2.4508
  917MOL0     H21034   8.683   9.627  10.633 -0.4809 -1.8329  1.4335
  917MOL0     H21035   8.788   9.546  10.512  1.2298  1.4146 -1.1370
  917MOL0     H21036   8.974   9.535  10.663 -0.5751  1.5955 -2.4395
  917MOL0     H21037   8.896   9.701  10.693 -0.9617  0.2245 -1.1795
  917MOL0     H21038   8.849   9.464  10.864 -0.0719 -0.5674 -4.0821
  917MOL0     H21039   8.814   9.645  10.885 -1.2145  0.8333 -1.5352
  917MOL0     H21040   9.010   9.578  11.031 -0.1674 -0.5632  0.5712
  917MOL0     H21041   9.092   9.529  10.882 -2.2597 -1.9404  0.4516
  917MOL0     H21042   9.134   9.943  10.872  0.7630 -0.2885 -0.7185
  917MOL0     H21043   8.504   9.575  10.556  4.4856 -0.1071  4.9333
  917MOL0     H21044   8.284   9.481  10.462  0.6376  1.3645  1.3098
  918MOL0     O21045   4.236  10.282   8.034 -0.6490  0.0439 -0.1628
  918MOL0     C21046   4.296  10.195   8.095 -0.1309  0.1015  0.1482
  918MOL0     O21047   4.261  10.138   8.214 -0.1854  0.0697 -0.2712
  918MOL0     C21048   4.153  10.190   8.285  1.0715 -0.2185  1.1198
  918MOL0     C21049   4.028  10.120   8.293  0.4816  0.1662 -0.8925
  918MOL0     C21050   3.917  10.194   8.340 -0.1530  0.1425 -0.3586
  918MOL0     C21051   3.936  10.320   8.398  0.8141 -0.3457  0.4217
  918MOL0     O21052   3.834  10.396   8.464 -0.6328  0.2030  0.3380
  918MOL0     C21053   3.709  10.396   8.402  0.8380 -1.0433 -0.3261
  918MOL0     C21054   3.623  10.507   8.472  0.0115  0.7178  0.6470
  918MOL0     C21055   3.485  10.538   8.407 -0.1075  0.0593  0.2233
  918MOL0     C21056   3.402  10.644   8.480  0.3029 -0.3779 -0.7358
  918MOL0     C21057   3.282  10.690   8.397 -0.1912 -0.2180 -0.1908
  918MOL0     C21058   3.164  10.718   8.492 -0.1710 -0.1068  0.0778
  918MOL0     C21059   3.043  10.780   8.423 -0.2140  0.8784  0.4095
  918MOL0     C21060   3.074  10.867   8.291 -0.0805  0.3179 -0.6995
  918MOL0     N21061   2.943  10.921   8.240 -0.4820 -0.5681 -0.6231
  918MOL0     C21062   2.821  10.858   8.231  0.1858  0.5508 -0.2371
  918MOL0     C21063   2.733  10.955   8.200 -0.7675 -0.3501 -0.5309
  918MOL0     C21064   2.584  10.933   8.181 -0.5444 -0.4674 -0.1779
  918MOL0     C21065   2.514  11.055   8.120 -0.1350  0.7570  0.4572
  918MOL0     C21066   2.499  11.172   8.215  0.5939  1.6840  1.0755
  918MOL0     C21067   2.353  11.231   8.199 -1.4752 -0.0940 -0.3321
  918MOL0     O21068   2.326  11.276   8.059 -0.1830  0.4639 -0.5120
  918MOL0     C21069   2.212  11.345   8.027  0.2363 -0.2154  0.2454
  918MOL0     C21070   2.106  11.382   8.117  0.5112  0.7401  0.0448
  918MOL0     C21071   1.996  11.457   8.079 -0.0221  0.6123 -0.1678
  918MOL0     C21072   1.973  11.501   7.948  0.0297  0.0740 -0.4689
  918MOL0     C21073   1.849  11.570   7.906  0.2379 -0.6212 -0.0603
  918MOL0     O21074   1.751  11.567   7.992 -0.1258  0.4936  0.4785
  918MOL0     C21075   1.629  11.617   7.988 -0.3396 -0.3756 -0.7673
  918MOL0     C21076   1.529  11.557   8.074  0.5304 -0.1194 -0.5867
  918MOL0     C21077   1.390  11.589   8.058 -0.4193 -0.7116 -0.6770
  918MOL0     C21078   1.359  11.698   7.980  0.0758  0.1252  0.5815
  918MOL0     O21079   1.237  11.757   7.990 -0.0295  0.5559  0.0910
  918MOL0     C21080   1.131  11.660   7.955 -0.3498  0.2646  0.6322
  918MOL0     C21081   0.996  11.718   7.976  0.5418 -0.4795 -0.3040
  918MOL0     C21082   0.884  11.654   7.896 -0.1274  0.0331  0.0291
  918MOL0     C21083   0.756  11.674   7.977 -0.3043 -0.1077  0.2096
  918MOL0     C21084   0.637  11.599   7.911 -0.1622 -0.4954  0.1954
  918MOL0     C21085   0.536  11.570   8.025 -0.3690  0.5059 -0.0526
  918MOL0     C21086   0.413  11.499   7.968 -0.5442  0.3027  0.6567
  918MOL0     C21087   0.291  11.525   8.059  0.0383 -0.1868  0.5248
  918MOL0    Cl21088   0.340  11.448   8.216  0.1232 -0.3385  0.1495
  918MOL0     C21089   1.457  11.751   7.894  0.0778  0.4927 -0.1799
  918MOL0     C21090   1.593  11.716   7.905  0.6285 -0.0924 -0.3009
  918MOL0     O21091   1.850  11.632   7.804  0.1007  0.0905  0.1284
  918MOL0     C21092   2.084  11.467   7.861 -0.0185 -0.1993  0.5006
  918MOL0     C21093   2.190  11.391   7.894  0.4296  0.0130 -0.9532
  918MOL0     N21094   2.805  11.080   8.186  0.3823  0.2086 -0.1392
  918MOL0     N21095   2.929  11.051   8.201 -0.2286  0.2958  0.3746
  918MOL0     C21096   4.056  10.387   8.390 -0.1980  0.5891 -0.3713
  918MOL0     C21097   4.166  10.322   8.338  0.0773 -0.2420  0.1686
  918MOL0     C21098   4.433  10.174   8.038  0.5941 -0.3138  0.1482
  918MOL0     C21099   4.471  10.234   7.910 -0.1833 -0.3841 -0.6820
  918MOL0     C21100   4.604  10.218   7.854 -0.0042  0.3712 -0.0296
  918MOL0     C21101   4.700  10.147   7.926  0.0193 -0.0339  0.2515
  918MOL0     O21102   4.820  10.125   7.860  0.0052 -0.8880  0.7436
  918MOL0     C21103   4.886  10.228   7.779 -0.1791 -0.1814 -0.8336
  918MOL0     C21104   4.896  10.354   7.861  0.5099 -0.5426 -0.0631
  918MOL0     C21105   5.024  10.445   7.824  0.3586  0.4110  0.4472
  918MOL0     C21106   5.157  10.414   7.894 -0.0886  0.0690  0.0162
  918MOL0     C21107   5.131  10.424   8.040  0.0721  0.0635 -0.0557
  918MOL0     C21108   5.109  10.436   8.158 -1.1164  0.2209 -0.0074
  918MOL0     C21109   4.663  10.082   8.042 -0.0315 -0.0538 -0.6223
  918MOL0     C21110   4.536  10.097   8.107 -0.1180  0.9077  0.3293
  918MOL0     H21111   4.030  10.020   8.251  1.9333  0.2040 -0.9658
  918MOL0     H21112   3.819  10.145   8.337  0.1785 -0.5928  0.3588
  918MOL0     H21113   3.654  10.303   8.419 -2.0820  1.0434  3.0796
  918MOL0     H21114   3.712  10.427   8.297 -0.4984  1.7151  0.3532
  918MOL0     H21115   3.683  10.598   8.481 -0.9397  1.5918 -1.3286
  918MOL0     H21116   3.595  10.473   8.573 -0.9329  0.5722  0.3514
  918MOL0     H21117   3.418  10.453   8.394 -1.8344  1.6833 -2.4943
  918MOL0     H21118   3.506  10.584   8.310  3.2061 -0.2240  0.7034
  918MOL0     H21119   3.375  10.608   8.580  1.0498  2.1370  0.4676
  918MOL0     H21120   3.464  10.727   8.516 -0.2374 -1.4575  3.1094
  918MOL0     H21121   3.269  10.617   8.317  1.2635 -1.0607  0.3113
  918MOL0     H21122   3.321  10.781   8.351  1.0043 -1.5851 -2.0081
  918MOL0     H21123   3.198  10.797   8.560  2.1492 -0.1093 -0.9680
  918MOL0     H21124   3.134  10.625   8.540  0.4549  0.3992  1.4978
  918MOL0     H21125   2.974  10.698   8.401  1.7150 -0.8025  0.3196
  918MOL0     H21126   2.988  10.841   8.496 -2.7224  0.3114 -0.9080
  918MOL0     H21127   3.107  10.798   8.213  1.5045 -2.1973  1.9979
  918MOL0     H21128   3.157  10.934   8.318  0.5387 -2.2354  5.2201
  918MOL0     H21129   2.804  10.757   8.266 -0.0963 -0.0589 -2.0407
  918MOL0     H21130   2.537  10.917   8.279 -0.3603  5.9002  1.3838
  918MOL0     H21131   2.557  10.848   8.117 -5.4017  0.6050  0.0575
  918MOL0     H21132   2.422  11.021   8.073 -1.2459  1.7358  1.8180
  918MOL0     H21133   2.572  11.104   8.042  2.1917  0.5487  1.9314
  918MOL0     H21134   2.522  11.130   8.313  0.1501 -0.3735  0.3292
  918MOL0     H21135   2.583  11.241   8.198  2.4125 -0.9293 -1.5265
  918MOL0     H21136   2.339  11.317   8.265  1.9477  0.6862 -0.4373
  918MOL0     H21137   2.284  11.150   8.220 -0.8619 -0.6815 -0.5574
  918MOL0     H21138   2.105  11.341   8.217 -3.1430 -1.6467 -0.7570
  918MOL0     H21139   1.926  11.487   8.156 -0.0723  0.7624 -0.2701
  918MOL0     H21140   1.563  11.485   8.147 -2.2529 -0.2733  0.6592
  918MOL0     H21141   1.318  11.543   8.125  2.1583 -2.4651  1.1050
  918MOL0     H21142   1.135  11.565   8.008 -0.2105 -0.6200 -0.9174
  918MOL0     H21143   1.154  11.621   7.856  4.5989 -0.6263  1.8613
  918MOL0     H21144   1.001  11.825   7.953 -0.2162 -0.3104  0.2793
  918MOL0     H21145   0.969  11.710   8.082  2.6119  1.1856  0.4380
  918MOL0     H21146   0.900  11.547   7.882 -0.9004 -0.1476  0.4493
  918MOL0     H21147   0.872  11.706   7.801 -0.6865  0.8219  0.5223
  918MOL0     H21148   0.769  11.625   8.074  0.0237 -0.6479 -0.1017
  918MOL0     H21149   0.739  11.781   7.986 -1.5809 -0.0760 -1.8098
  918MOL0     H21150   0.671  11.511   7.857 -2.7170 -0.6471 -1.3204
  918MOL0     H21151   0.591  11.666   7.837  1.5695  2.5301  1.6541
  918MOL0     H21152   0.503  11.668   8.060 -0.3326  1.2799 -2.0753
  918MOL0     H21153   0.578  11.499   8.098 -1.4780  0.5738  0.6723
  918MOL0     H21154   0.391  11.526   7.864 -0.0865 -0.8888  0.2362
  918MOL0     H21155   0.412  11.391   7.955  0.3110  0.2287  1.1055
  918MOL0     H21156   0.195  11.480   8.033 -0.8862  2.0439 -0.1180
  918MOL0     H21157   0.260  11.629   8.072 -1.9040 -0.7477  0.6015
  918MOL0     H21158   1.431  11.838   7.833  1.2437  0.3510 -0.9365
  918MOL0     H21159   1.674  11.767   7.855 -0.6735  1.3481 -1.0298
  918MOL0     H21160   2.083  11.506   7.760 -0.0940  1.4298  1.1046
  918MOL0     H21161   2.256  11.362   7.813  2.4446  1.1763  0.2048
  918MOL0     H21162   4.052  10.488   8.431  0.3105 -0.4015  2.2901
  918MOL0     H21163   4.271  10.349   8.341  1.0436 -3.5299  0.1175
  918MOL0     H21164   4.403  10.300   7.858  0.4699  1.4934  0.7522
  918MOL0     H21165   4.624  10.249   7.752 -0.8424  0.5429 -0.1545
  918MOL0     H21166   4.835  10.250   7.685  0.2828  0.2535 -0.9853
  918MOL0     H21167   4.992  10.205   7.765 -0.0460 -0.6237  0.7219
  918MOL0     H21168   4.806  10.410   7.837 -0.2369 -1.4933  0.4635
  918MOL0     H21169   4.887  10.325   7.966 -1.0290  2.1736  0.6648
  918MOL0     H21170   5.016  10.554   7.837  2.1179  0.5393  0.6926
  918MOL0     H21171   5.036  10.437   7.716 -1.5945 -2.8344  0.3408
  918MOL0     H21172   5.188  10.311   7.875 -1.7008 -0.2723 -0.9687
  918MOL0     H21173   5.225  10.492   7.861 -0.0690 -0.1859 -0.5493
  918MOL0     H21174   5.082  10.457   8.259 -0.0050 -3.2063  1.1586
  918MOL0     H21175   4.732  10.017   8.093  1.6335  0.3810 -2.2394
  918MOL0     H21176   4.514  10.055   8.205 -1.7953 -1.4835 -0.9775
  919MOL0     O21177   9.145   9.800   9.621 -0.7138 -0.1394  0.2696
  919MOL0     C21178   9.047   9.736   9.654 -0.4277 -0.9660  0.1169
  919MOL0     O21179   9.043   9.642   9.752 -0.2798  0.4099  0.0206
  919MOL0     C21180   9.141   9.620   9.844 -0.9067  0.3727  0.0554
  919MOL0     C21181   9.245   9.708   9.881  1.3515  0.4747  0.5165
  919MOL0     C21182   9.346   9.656   9.965  0.4003 -0.3262 -0.4213
  919MOL0     C21183   9.331   9.537  10.033 -0.6388  0.0596 -0.5759
  919MOL0     O21184   9.419   9.477  10.112 -0.2971 -0.5107 -0.1667
  919MOL0     C21185   9.555   9.526  10.097 -0.4272 -0.1140  0.3486
  919MOL0     C21186   9.638   9.446  10.190 -0.5170  0.1218 -0.3813
  919MOL0     C21187   9.769   9.396  10.129 -0.0622  1.0671  0.7329
  919MOL0     C21188   9.849   9.320  10.234  0.2710 -0.9483  0.3603
  919MOL0     C21189   9.996   9.320  10.210 -0.8220 -0.0378 -0.3734
  919MOL0     C21190  10.047   9.253  10.079 -0.2133 -1.0242 -0.3679
  919MOL0     C21191  10.197   9.213  10.088  0.3956  0.3295  0.9804
  919MOL0     C21192  10.287   9.337  10.100 -0.2277  0.1847  0.1402
  919MOL0     N21193  10.268   9.448  10.006  0.2069  0.0707 -0.7615
  919MOL0     C21194  10.271   9.441   9.865 -0.2598 -1.4487 -1.1609
  919MOL0     C21195  10.199   9.552   9.824  0.4984  0.3595 -0.6168
  919MOL0     C21196  10.157   9.586   9.689  0.3297  1.3184 -0.2793
  919MOL0     C21197  10.042   9.490   9.646  0.5430  0.2161  0.0689
  919MOL0     C21198   9.907   9.524   9.710 -0.0745 -0.5509 -1.0011
  919MOL0     C21199   9.803   9.432   9.643  0.4565  0.6468  0.3587
  919MOL0     O21200   9.681   9.496   9.669 -0.2022 -0.2954  0.1450
  919MOL0     C21201   9.597   9.505   9.560 -0.7885 -0.0725 -0.2121
  919MOL0     C21202   9.635   9.535   9.422  0.2275  0.1670 -0.1789
  919MOL0     C21203   9.531   9.536   9.322  1.0133  0.1365 -0.3219
  919MOL0     C21204   9.394   9.525   9.362  0.7213 -0.5596 -0.1913
  919MOL0     C21205   9.290   9.536   9.265 -0.2736  1.7276 -1.2155
  919MOL0     O21206   9.162   9.509   9.306 -0.3637  0.3766 -0.7702
  919MOL0     C21207   9.063   9.470   9.221  0.2841  0.5228 -0.5045
  919MOL0     C21208   9.078   9.428   9.083  0.4467  0.1455  0.1534
  919MOL0     C21209   8.965   9.399   9.008  0.1040 -0.2621  0.7638
  919MOL0     C21210   8.838   9.414   9.055  0.6448 -0.3320 -0.5347
  919MOL0     O21211   8.741   9.367   8.972  0.2518 -0.0935 -0.2463
  919MOL0     C21212   8.604   9.381   9.016 -0.9053  0.4929  0.3492
  919MOL0     C21213   8.513   9.324   8.905  0.1220 -0.1542 -0.8376
  919MOL0     C21214   8.368   9.324   8.940  0.6390 -0.2040 -0.3530
  919MOL0     C21215   8.310   9.465   8.927  1.1381  0.0234 -0.1467
  919MOL0     C21216   8.167   9.462   8.981 -0.2307  0.0813  0.2370
  919MOL0     C21217   8.063   9.396   8.881  1.0300 -0.4766 -0.2090
  919MOL0     C21218   7.927   9.431   8.936  0.0088  0.4508 -0.0612
  919MOL0     C21219   7.817   9.410   8.836 -1.0283  0.5565 -0.8780
  919MOL0    Cl21220   7.840   9.256   8.734 -0.0245 -0.0895 -0.1154
  919MOL0     C21221   8.819   9.453   9.193 -0.8861  0.3065 -0.2596
  919MOL0     C21222   8.935   9.478   9.268 -0.1680 -0.2204 -0.9993
  919MOL0     O21223   9.318   9.583   9.157  0.4539 -0.5207  0.2099
  919MOL0     C21224   9.361   9.504   9.497  0.2464  1.0802 -0.2940
  919MOL0     C21225   9.462   9.498   9.595  0.1042 -0.5857  0.4587
  919MOL0     N21226  10.154   9.621   9.935  0.7186  0.2332  0.2932
  919MOL0     N21227  10.195   9.566  10.039 -0.3390  0.4115 -0.0179
  919MOL0     C21228   9.218   9.460  10.009 -1.2999 -0.0868  0.9655
  919MOL0     C21229   9.127   9.500   9.915 -0.3191 -0.1473  0.0131
  919MOL0     C21230   8.932   9.751   9.572 -0.1866 -0.4331 -0.0054
  919MOL0     C21231   8.808   9.705   9.612  0.1399  0.1512  0.3905
  919MOL0     C21232   8.695   9.721   9.533 -0.3793  0.9394  0.0957
  919MOL0     C21233   8.698   9.792   9.408  0.6102  0.2952  0.7348
  919MOL0     O21234   8.593   9.812   9.322  0.1401  0.1285 -0.1044
  919MOL0     C21235   8.460   9.788   9.368 -0.1241 -0.5076  0.2895
  919MOL0     C21236   8.370   9.910   9.338 -0.9904  0.0848 -0.3579
  919MOL0     C21237   8.407   9.984   9.202  0.4095 -0.5688  0.2705
  919MOL0     C21238   8.291  10.068   9.155  0.1938 -0.5947 -0.5021
  919MOL0     C21239   8.323  10.188   9.077 -0.1890 -0.0316  0.0403
  919MOL0     C21240   8.350  10.290   9.014  0.7354  0.1119 -1.1063
  919MOL0     C21241   8.821   9.851   9.378 -0.0674 -0.1370 -0.2707
  919MOL0     C21242   8.941   9.821   9.451 -0.6570  0.2980  0.3201
  919MOL0     H21243   9.243   9.807   9.836  1.9598  0.2630 -0.0048
  919MOL0     H21244   9.417   9.737   9.978  1.3646 -1.2665  0.3568
  919MOL0     H21245   9.568   9.633  10.117  0.8449  0.0272 -1.0116
  919MOL0     H21246   9.593   9.508   9.996  0.3913  2.0282  0.2201
  919MOL0     H21247   9.572   9.367  10.225 -0.1128 -0.9349 -1.9199
  919MOL0     H21248   9.663   9.513  10.273  3.1731  1.9386 -2.6831
  919MOL0     H21249   9.818   9.483  10.085  3.2540 -2.3631 -3.2001
  919MOL0     H21250   9.755   9.318  10.053 -0.1583  0.0109  1.8030
  919MOL0     H21251   9.827   9.379  10.323  0.4884  3.2099 -2.0957
  919MOL0     H21252   9.811   9.217  10.244 -0.2938 -0.9872 -1.7148
  919MOL0     H21253  10.038   9.266  10.295  0.0160  0.7813 -0.2456
  919MOL0     H21254  10.029   9.424  10.209  2.6694 -1.0005  1.1354
  919MOL0     H21255  10.037   9.325   9.998 -1.4045 -2.2220 -1.3155
  919MOL0     H21256   9.994   9.162  10.050 -1.4851 -0.4242 -0.0040
  919MOL0     H21257  10.212   9.134  10.161  1.1573 -0.3165  0.1481
  919MOL0     H21258  10.225   9.166   9.993  3.2774  0.8211  1.5231
  919MOL0     H21259  10.383   9.286  10.086 -0.4378 -1.2085  2.9808
  919MOL0     H21260  10.275   9.379  10.200 -0.3840 -1.5379  0.8768
  919MOL0     H21261  10.303   9.362   9.797  0.9359 -2.4048  0.4553
  919MOL0     H21262  10.244   9.582   9.623  0.7269 -0.1540  0.2979
  919MOL0     H21263  10.124   9.690   9.688  0.9586  1.5239 -0.0459
  919MOL0     H21264  10.066   9.389   9.680  0.4636  0.3152  0.4220
  919MOL0     H21265  10.042   9.490   9.537  3.0547  1.1363 -0.0076
  919MOL0     H21266   9.902   9.515   9.819 -0.4601  0.5250 -0.9125
  919MOL0     H21267   9.885   9.627   9.678 -1.9789 -0.8077 -0.6480
  919MOL0     H21268   9.797   9.333   9.689  3.0966  0.4771  0.4848
  919MOL0     H21269   9.823   9.416   9.537  0.4655  1.7297  0.1834
  919MOL0     H21270   9.739   9.537   9.391  0.2269 -2.8602 -0.6641
  919MOL0     H21271   9.561   9.552   9.219  0.2201  0.9804 -0.4426
  919MOL0     H21272   9.171   9.403   9.033 -0.9012 -0.1629 -2.3901
  919MOL0     H21273   8.979   9.354   8.910 -2.2250 -0.5313  0.4942
  919MOL0     H21274   8.584   9.488   9.018 -0.8918  0.5576 -1.4269
  919MOL0     H21275   8.587   9.333   9.113  1.3935  0.3217  0.7253
  919MOL0     H21276   8.546   9.221   8.888  1.4394 -0.2047  1.5478
  919MOL0     H21277   8.526   9.383   8.814  2.1132  1.6793  0.5253
  919MOL0     H21278   8.345   9.281   9.037 -0.4767 -0.7914 -0.8562
  919MOL0     H21279   8.313   9.259   8.871  0.8655 -0.3335 -0.4134
  919MOL0     H21280   8.360   9.528   9.002 -0.3103  1.3161 -0.1951
  919MOL0     H21281   8.321   9.523   8.835 -0.7035  0.8980  0.1288
  919MOL0     H21282   8.142   9.566   9.000 -0.2434  0.3206 -0.9859
  919MOL0     H21283   8.167   9.403   9.073 -0.3316  0.1598  0.2869
  919MOL0     H21284   8.059   9.287   8.891  0.4873 -0.5197 -0.7943
  919MOL0     H21285   8.078   9.423   8.776 -0.1286  2.5819  0.2999
  919MOL0     H21286   7.898   9.366   9.019  1.0704  0.2552  0.1833
  919MOL0     H21287   7.911   9.534   8.968 -1.6792  0.3126 -0.3983
  919MOL0     H21288   7.815   9.498   8.771  0.6878  1.4563  0.2371
  919MOL0     H21289   7.721   9.415   8.888 -0.5318 -3.2075  0.7638
  919MOL0     H21290   8.730   9.443   9.255 -1.5602 -0.8870 -1.3970
  919MOL0     H21291   8.928   9.524   9.366  0.4033  0.9107 -1.4855
  919MOL0     H21292   9.259   9.491   9.531 -0.1229 -0.4611 -1.8629
  919MOL0     H21293   9.443   9.461   9.695 -0.6764 -2.5022 -0.3512
  919MOL0     H21294   9.202   9.367  10.063  0.4313 -0.2795  1.2027
  919MOL0     H21295   9.038   9.443   9.894 -0.9063 -0.5283  3.0532
  919MOL0     H21296   8.802   9.655   9.708  0.8664  1.9313  1.4120
  919MOL0     H21297   8.612   9.662   9.571  0.6887 -1.4722 -1.0961
  919MOL0     H21298   8.449   9.770   9.475 -1.4175  0.4215  0.3263
  919MOL0     H21299   8.424   9.697   9.320  1.9019 -1.8359  1.1306
  919MOL0     H21300   8.265   9.879   9.326 -0.7595  0.0581 -2.9151
  919MOL0     H21301   8.377   9.976   9.424  2.9956  0.0043 -0.4608
  919MOL0     H21302   8.424   9.913   9.121 -0.0847  0.0054 -0.3444
  919MOL0     H21303   8.500  10.039   9.218  2.3999 -2.7662 -2.8536
  919MOL0     H21304   8.227  10.010   9.088 -0.4605  0.8253 -1.1576
  919MOL0     H21305   8.225  10.091   9.239 -1.1727  3.3826 -2.3993
  919MOL0     H21306   8.387  10.380   8.968  3.3425  0.5882  1.6554
  919MOL0     H21307   8.831   9.911   9.288  4.6057 -0.7467 -0.3788
  919MOL0     H21308   9.025   9.862   9.395 -0.8442  1.0080  0.5545
  920MOL0     O21309   9.397   6.736   4.941  0.5881  0.6406  0.2156
  920MOL0     C21310   9.459   6.635   4.977  0.6266  0.2603 -0.8185
  920MOL0     O21311   9.421   6.504   4.958 -0.8590  0.0091 -0.8719
  920MOL0     C21312   9.305   6.453   4.890 -0.0395  0.1314  0.3226
  920MOL0     C21313   9.182   6.533   4.893  0.1021  0.6691 -0.0767
  920MOL0     C21314   9.062   6.484   4.828  0.4915 -0.2639 -1.0667
  920MOL0     C21315   9.054   6.349   4.779 -1.0840 -0.2596 -0.1150
  920MOL0     O21316   8.950   6.291   4.710  0.6558  0.5855 -0.2986
  920MOL0     C21317   8.835   6.364   4.678  0.1885  0.1905  0.5398
  920MOL0     C21318   8.741   6.262   4.632  0.1127 -0.1681  0.1960
  920MOL0     C21319   8.606   6.314   4.568  0.1086 -0.2565  0.0108
  920MOL0     C21320   8.521   6.404   4.662  0.1899 -0.2051  0.5554
  920MOL0     C21321   8.440   6.311   4.752 -1.3057 -0.4251  0.5786
  920MOL0     C21322   8.370   6.404   4.854  0.0305  0.3175  0.5931
  920MOL0     C21323   8.274   6.339   4.949  0.1615  0.1885  0.4094
  920MOL0     C21324   8.148   6.302   4.879  0.9385 -0.6650  0.6012
  920MOL0     N21325   8.045   6.237   4.960 -0.5648 -0.8585 -0.0316
  920MOL0     C21326   8.050   6.120   5.025  0.4257 -0.2180 -0.3181
  920MOL0     C21327   7.939   6.107   5.097  0.4105  0.1291 -0.4295
  920MOL0     C21328   7.912   5.980   5.176  0.4055 -0.1038 -0.2770
  920MOL0     C21329   7.832   6.003   5.305 -0.3208 -0.3905 -0.7217
  920MOL0     C21330   7.806   5.873   5.385 -0.0891 -0.4867 -0.6676
  920MOL0     C21331   7.700   5.888   5.497  0.6682  0.1362 -0.0977
  920MOL0     O21332   7.721   5.784   5.592  0.7448  0.4060 -0.2660
  920MOL0     C21333   7.629   5.763   5.697 -0.1699 -0.2476  0.1203
  920MOL0     C21334   7.662   5.672   5.793 -0.2747 -0.1049  0.0321
  920MOL0     C21335   7.587   5.650   5.902 -0.8612 -0.2203 -0.9806
  920MOL0     C21336   7.464   5.717   5.914  1.2520 -0.0195 -0.8416
  920MOL0     C21337   7.388   5.683   6.042  0.6450 -0.1786  0.5720
  920MOL0     O21338   7.257   5.725   6.038 -0.2128  0.6022 -0.9381
  920MOL0     C21339   7.188   5.723   6.154 -0.6198  0.2562  0.5753
  920MOL0     C21340   7.233   5.724   6.285 -0.3286 -0.6954  0.0820
  920MOL0     C21341   7.147   5.719   6.388  0.5138 -0.4526 -0.5122
  920MOL0     C21342   7.012   5.732   6.366  0.1686  0.0816  0.3523
  920MOL0     O21343   6.934   5.725   6.473 -0.7641 -0.8198 -0.1585
  920MOL0     C21344   6.807   5.666   6.467  0.2013 -0.0285  0.2083
  920MOL0     C21345   6.767   5.625   6.604  0.3342 -0.5947 -0.4383
  920MOL0     C21346   6.682   5.491   6.596 -0.6169 -0.0480  0.6969
  920MOL0     C21347   6.550   5.498   6.670  0.0571  0.1175 -0.2345
  920MOL0     C21348   6.466   5.370   6.683 -0.3358 -0.8654  0.0284
  920MOL0     C21349   6.331   5.385   6.751  0.4540 -0.1398  0.1253
  920MOL0     C21350   6.253   5.254   6.768 -0.2018 -0.4726  0.2860
  920MOL0     C21351   6.136   5.266   6.859 -0.1853  0.8800 -0.2264
  920MOL0    Cl21352   6.040   5.114   6.862  0.1355  0.1211 -0.5461
  920MOL0     C21353   6.962   5.732   6.233  0.0896 -0.4033  0.5887
  920MOL0     C21354   7.052   5.724   6.126  0.5283 -0.0044 -0.0325
  920MOL0     O21355   7.444   5.624   6.131  0.3412 -0.3883 -0.6596
  920MOL0     C21356   7.422   5.813   5.816  0.1802  0.1539 -0.4765
  920MOL0     C21357   7.505   5.833   5.709  0.2597  0.0285  0.3137
  920MOL0     N21358   7.855   6.211   5.073 -0.2730 -0.4598  0.4481
  920MOL0     N21359   7.926   6.296   4.999  0.3051 -0.0778 -0.7258
  920MOL0     C21360   9.169   6.277   4.792 -0.5918  0.0617  0.0675
  920MOL0     C21361   9.296   6.323   4.841 -0.2718 -0.0547  0.7714
  920MOL0     C21362   9.590   6.652   5.040  0.3957  0.2053 -0.7512
  920MOL0     C21363   9.633   6.781   5.081  0.5509 -0.4289  0.1022
  920MOL0     C21364   9.765   6.803   5.132 -0.7500 -0.2859 -0.0600
  920MOL0     C21365   9.854   6.690   5.148  0.5792  0.0211  0.2342
  920MOL0     O21366   9.981   6.688   5.199 -0.0875 -0.2005  0.2956
  920MOL0     C21367  10.006   6.776   5.307 -0.3166  0.7630  1.0704
  920MOL0     C21368  10.088   6.892   5.260 -0.3372  0.8569  0.1724
  920MOL0     C21369  10.232   6.853   5.249 -0.2328 -0.5326 -0.0278
  920MOL0     C21370  10.330   6.964   5.194 -0.1465  0.4023 -0.3406
  920MOL0     C21371  10.324   7.078   5.288  0.4663 -0.2861  0.7330
  920MOL0     C21372  10.308   7.168   5.364  0.4479 -0.4523 -0.6782
  920MOL0     C21373   9.814   6.566   5.100  0.7953  0.0228 -0.5563
  920MOL0     C21374   9.685   6.545   5.054 -0.1205 -0.5940  0.6668
  920MOL0     H21375   9.190   6.637   4.923  3.9122  0.6530 -0.5536
  920MOL0     H21376   8.975   6.548   4.830  1.6101  1.4058  2.3474
  920MOL0     H21377   8.857   6.441   4.603  0.9028 -1.8852 -1.5090
  920MOL0     H21378   8.785   6.417   4.760 -1.7162  0.5401 -0.7892
  920MOL0     H21379   8.706   6.201   4.715  2.0788 -0.2878  0.9878
  920MOL0     H21380   8.790   6.194   4.561  0.8701  1.0269 -0.4566
  920MOL0     H21381   8.539   6.243   4.519 -0.3908 -0.2864  0.7316
  920MOL0     H21382   8.645   6.381   4.490  0.2512  0.1504  0.4315
  920MOL0     H21383   8.581   6.468   4.727 -0.5210  1.3643 -0.2859
  920MOL0     H21384   8.447   6.466   4.610  1.4824  1.6823  0.8620
  920MOL0     H21385   8.500   6.230   4.794  2.2662  0.6477 -1.9725
  920MOL0     H21386   8.360   6.263   4.694  0.2396 -2.0797 -0.2636
  920MOL0     H21387   8.325   6.491   4.806  2.8804  1.2900 -0.5666
  920MOL0     H21388   8.452   6.450   4.910 -0.4319 -1.4998  2.9399
  920MOL0     H21389   8.316   6.249   4.994  2.1972  1.0603  0.3225
  920MOL0     H21390   8.260   6.409   5.032 -5.3704  0.2376 -0.1824
  920MOL0     H21391   8.171   6.227   4.802 -3.9843 -0.5871 -1.2964
  920MOL0     H21392   8.107   6.386   4.822  3.6762  0.0597 -0.4520
  920MOL0     H21393   8.129   6.046   5.013  1.3970  0.9616 -1.5433
  920MOL0     H21394   8.006   5.933   5.205  0.5143 -1.1461 -2.1986
  920MOL0     H21395   7.867   5.904   5.112  1.5835 -0.9779 -0.1032
  920MOL0     H21396   7.734   6.046   5.284 -0.4573 -0.1160  0.4122
  920MOL0     H21397   7.883   6.068   5.377  0.7983  0.4501 -2.2373
  920MOL0     H21398   7.769   5.791   5.322 -1.6135  2.0702 -3.3279
  920MOL0     H21399   7.901   5.836   5.426 -1.6821 -1.1888  2.8039
  920MOL0     H21400   7.599   5.887   5.456 -0.3669  3.0181  2.0309
  920MOL0     H21401   7.718   5.980   5.553 -0.7914 -1.7413  3.8378
  920MOL0     H21402   7.752   5.615   5.771  0.7858  1.8463 -0.9263
  920MOL0     H21403   7.634   5.584   5.974 -1.0669 -1.9032 -2.3161
  920MOL0     H21404   7.338   5.721   6.312 -0.2401  0.1455 -0.1592
  920MOL0     H21405   7.182   5.703   6.489 -1.7658  0.5089  0.5093
  920MOL0     H21406   6.810   5.581   6.398  1.1623  0.9001 -0.9363
  920MOL0     H21407   6.735   5.742   6.435 -1.4804  0.5333  4.6452
  920MOL0     H21408   6.713   5.709   6.649  0.9716 -0.0004 -0.7648
  920MOL0     H21409   6.847   5.599   6.674  0.6951 -1.3585 -1.1178
  920MOL0     H21410   6.748   5.416   6.641  0.6374  0.7814  0.2669
  920MOL0     H21411   6.650   5.459   6.496  0.4244 -3.3308  1.2759
  920MOL0     H21412   6.571   5.533   6.771 -2.1222  1.5545 -0.2169
  920MOL0     H21413   6.490   5.580   6.630  1.4909  1.0751 -0.5297
  920MOL0     H21414   6.522   5.285   6.723  0.7407  0.0716  0.5783
  920MOL0     H21415   6.452   5.346   6.578  0.6095 -0.5299 -0.1859
  920MOL0     H21416   6.263   5.451   6.696 -0.4031  0.1451  1.4759
  920MOL0     H21417   6.337   5.439   6.846 -2.1498  1.1623 -0.3633
  920MOL0     H21418   6.206   5.233   6.672 -0.3503 -0.1521  0.2871
  920MOL0     H21419   6.329   5.179   6.793  1.5840  2.4118  4.9472
  920MOL0     H21420   6.087   5.361   6.838 -1.3705  0.1305 -0.9138
  920MOL0     H21421   6.173   5.276   6.962 -1.1748 -0.2556  0.2544
  920MOL0     H21422   6.854   5.740   6.221  0.1315 -0.5395  0.1332
  920MOL0     H21423   7.027   5.725   6.021  0.2571 -0.5867  0.0228
  920MOL0     H21424   7.324   5.861   5.818  0.3383  0.5489 -1.8587
  920MOL0     H21425   7.477   5.904   5.632  0.9747 -0.4930 -0.4386
  920MOL0     H21426   9.162   6.172   4.765  0.7597  0.4260 -1.9261
  920MOL0     H21427   9.372   6.248   4.856 -1.4956 -1.7008 -0.8329
  920MOL0     H21428   9.558   6.860   5.071  1.7028  0.6830  0.0504
  920MOL0     H21429   9.804   6.902   5.154  1.7510 -1.1930 -0.0883
  920MOL0     H21430  10.046   6.715   5.388 -0.6234 -1.8801 -0.6296
  920MOL0     H21431   9.909   6.821   5.331  0.4945  1.7164  2.6840
  920MOL0     H21432  10.049   6.924   5.163  0.9600  1.4230 -0.1938
  920MOL0     H21433  10.075   6.983   5.320 -2.1065  2.2704 -2.1908
  920MOL0     H21434  10.247   6.760   5.194  1.9095 -0.9588  1.1409
  920MOL0     H21435  10.273   6.824   5.346  0.8641 -2.4408 -1.0153
  920MOL0     H21436  10.434   6.931   5.190 -0.1284  0.2895  0.8250
  920MOL0     H21437  10.305   6.987   5.090  0.0945  0.3533 -0.4091
  920MOL0     H21438  10.292   7.253   5.427 -1.6812  1.1997 -3.2252
  920MOL0     H21439   9.880   6.482   5.115 -0.0024 -0.2000  2.4541
  920MOL0     H21440   9.655   6.443   5.030 -1.2741 -0.5868  1.9602
  921MOL0     O21441   9.641   3.767   0.140  0.2251 -0.1373 -0.4839
  921MOL0     C21442   9.703   3.826   0.229 -0.3021 -0.9936 -0.1044
  921MOL0     O21443   9.737   3.767   0.351 -0.5239  0.7475 -0.2981
  921MOL0     C21444   9.659   3.662   0.407  0.1895  0.7755  0.3688
  921MOL0     C21445   9.521   3.659   0.390  0.1692  0.7034  0.4601
  921MOL0     C21446   9.449   3.549   0.444  0.1400 -0.8581 -0.5450
  921MOL0     C21447   9.508   3.449   0.517 -0.4984  0.4137  0.4727
  921MOL0     O21448   9.411   3.364   0.560  0.3563 -0.0580 -0.3328
  921MOL0     C21449   9.458   3.229   0.587  0.4791  0.1484  0.1750
  921MOL0     C21450   9.401   3.170   0.715  0.3387  0.1529 -0.2132
  921MOL0     C21451   9.459   3.032   0.737 -0.0979  0.8044 -0.1980
  921MOL0     C21452   9.422   2.986   0.882 -0.0958  0.7480 -0.5517
  921MOL0     C21453   9.287   2.925   0.881 -0.0677  0.1983 -0.2109
  921MOL0     C21454   9.280   2.786   0.817 -0.3177 -0.3162 -0.5901
  921MOL0     C21455   9.136   2.744   0.800  0.3042 -0.1844  0.0858
  921MOL0     C21456   9.048   2.762   0.924 -0.0019  0.6158 -0.2891
  921MOL0     N21457   8.923   2.673   0.904  0.7818 -0.1370 -0.5561
  921MOL0     C21458   8.813   2.700   0.824 -0.3381 -0.0141  0.1359
  921MOL0     C21459   8.720   2.603   0.856 -0.9092  0.0053  0.5376
  921MOL0     C21460   8.583   2.588   0.802  0.0716  0.3207 -0.6150
  921MOL0     C21461   8.568   2.476   0.704 -0.2458 -0.1412  0.6523
  921MOL0     C21462   8.440   2.490   0.613 -0.3294 -0.1362  0.6728
  921MOL0     C21463   8.309   2.474   0.685 -0.6209  0.0542  0.2907
  921MOL0     O21464   8.208   2.515   0.598  0.4177 -0.4780 -0.3115
  921MOL0     C21465   8.079   2.503   0.641  0.1421  0.4459  0.6371
  921MOL0     C21466   8.045   2.477   0.775 -0.8886  0.3201  0.3353
  921MOL0     C21467   7.912   2.454   0.805 -0.5803  0.0488  0.0554
  921MOL0     C21468   7.809   2.468   0.706 -0.2509 -0.4834 -0.1782
  921MOL0     C21469   7.669   2.464   0.749  0.6042  0.4195 -0.6045
  921MOL0     O21470   7.567   2.487   0.655  0.1910 -0.5370 -0.9828
  921MOL0     C21471   7.438   2.478   0.708  0.0892  0.3886  0.0474
  921MOL0     C21472   7.385   2.549   0.813  0.3074 -0.2213 -0.0129
  921MOL0     C21473   7.253   2.549   0.859 -0.0290  0.4940  0.0601
  921MOL0     C21474   7.163   2.466   0.791 -0.1589 -0.7118 -0.8812
  921MOL0     O21475   7.038   2.447   0.822  0.4246 -0.0293 -0.4118
  921MOL0     C21476   6.981   2.538   0.921 -0.1516  0.8416 -0.4905
  921MOL0     C21477   6.828   2.529   0.911  0.4874 -0.5451  0.9308
  921MOL0     C21478   6.774   2.609   0.791  0.1312  0.0019  0.1077
  921MOL0     C21479   6.627   2.601   0.789 -0.6714 -0.4702  0.4079
  921MOL0     C21480   6.571   2.684   0.671 -0.0807  0.2548  1.0997
  921MOL0     C21481   6.420   2.652   0.638 -0.5349  0.0312 -0.8897
  921MOL0     C21482   6.313   2.711   0.737  0.2335  0.1164  0.4608
  921MOL0     C21483   6.184   2.744   0.663  0.0285  0.3845 -0.3900
  921MOL0    Cl21484   6.047   2.751   0.782 -0.0528  0.2611  0.0748
  921MOL0     C21485   7.208   2.399   0.674  0.3932  0.3866 -0.0270
  921MOL0     C21486   7.341   2.406   0.632 -0.2184  0.8096  0.0565
  921MOL0     O21487   7.643   2.443   0.872  0.4037  0.5418  0.3315
  921MOL0     C21488   7.846   2.507   0.580  0.7831 -0.1822 -0.2915
  921MOL0     C21489   7.980   2.521   0.546 -0.6194 -0.6885 -0.6019
  921MOL0     N21490   8.765   2.528   0.962 -0.0403 -0.5675  0.3342
  921MOL0     N21491   8.885   2.571   0.991  0.2044  0.0839 -0.1802
  921MOL0     C21492   9.652   3.445   0.527  0.4590 -0.7425 -0.3899
  921MOL0     C21493   9.730   3.554   0.472  0.8926 -0.0186 -0.8727
  921MOL0     C21494   9.761   3.961   0.199 -1.1520  0.6436 -0.5976
  921MOL0     C21495   9.884   4.003   0.255 -0.5078  0.2278  0.4658
  921MOL0     C21496   9.938   4.132   0.236 -0.2156 -0.2618  0.2761
  921MOL0     C21497   9.864   4.221   0.152 -0.1427 -0.1757 -0.9484
  921MOL0     O21498   9.921   4.338   0.132 -0.2151 -0.4275 -0.1961
  921MOL0     C21499   9.830   4.453   0.135  0.3585 -0.0394  0.1510
  921MOL0     C21500   9.811   4.516  -0.007 -0.5597 -0.2454 -0.6219
  921MOL0     C21501   9.941   4.548  -0.075  0.2853 -0.0868 -0.1185
  921MOL0     C21502   9.912   4.613  -0.206  0.1478 -0.5977 -0.2200
  921MOL0     C21503  10.038   4.664  -0.256  0.8148  0.8470 -0.0597
  921MOL0     C21504  10.138   4.705  -0.300 -0.5014  0.2357  0.3995
  921MOL0     C21505   9.746   4.182   0.096  0.6295 -0.5009  0.7379
  921MOL0     C21506   9.703   4.054   0.108 -0.1037 -0.6598 -0.5299
  921MOL0     H21507   9.469   3.734   0.330  0.0694 -0.1091 -0.4846
  921MOL0     H21508   9.345   3.539   0.415 -0.4483 -1.5044  1.6059
  921MOL0     H21509   9.565   3.214   0.605  0.1405 -1.7675  0.8318
  921MOL0     H21510   9.432   3.166   0.502 -2.7782  1.1325  0.3209
  921MOL0     H21511   9.294   3.152   0.703  0.4600 -1.1718  0.4533
  921MOL0     H21512   9.422   3.235   0.801  1.0460  1.3592 -1.2707
  921MOL0     H21513   9.568   3.040   0.742 -0.1344  0.7439  1.1969
  921MOL0     H21514   9.429   2.967   0.655  3.0297 -0.2804 -0.6116
  921MOL0     H21515   9.496   2.913   0.916 -0.5523  0.3719 -0.3440
  921MOL0     H21516   9.432   3.062   0.960 -0.1109 -1.0646  1.3271
  921MOL0     H21517   9.214   2.995   0.841  0.9653  0.1754 -2.2983
  921MOL0     H21518   9.265   2.916   0.988 -1.0720  1.1057 -0.3274
  921MOL0     H21519   9.322   2.708   0.882 -2.4266 -0.0290  1.2154
  921MOL0     H21520   9.314   2.801   0.714  1.4227  5.3436  0.4560
  921MOL0     H21521   9.099   2.809   0.720 -0.2788 -2.5655 -1.7066
  921MOL0     H21522   9.135   2.642   0.760  5.2487 -1.8410  3.2635
  921MOL0     H21523   9.021   2.866   0.938  1.6740  1.3796 -2.1616
  921MOL0     H21524   9.105   2.721   1.008 -0.3014  0.3147 -0.2289
  921MOL0     H21525   8.789   2.781   0.756 -1.1960 -1.3371 -1.1849
  921MOL0     H21526   8.554   2.683   0.757 -2.6863  0.2478  0.7396
  921MOL0     H21527   8.512   2.573   0.885  0.6005  1.2584  0.0265
  921MOL0     H21528   8.582   2.381   0.755  3.7573  0.8852  1.8048
  921MOL0     H21529   8.653   2.469   0.635  0.1516  1.4483  0.9342
  921MOL0     H21530   8.448   2.586   0.561  0.1339  0.2548  1.4428
  921MOL0     H21531   8.441   2.402   0.547  0.1628  0.8891 -0.7292
  921MOL0     H21532   8.316   2.535   0.776  2.0679 -1.3376  1.1203
  921MOL0     H21533   8.294   2.368   0.708 -2.5963 -0.0002 -1.0038
  921MOL0     H21534   8.117   2.475   0.856  0.2115 -1.5730 -0.6455
  921MOL0     H21535   7.893   2.422   0.907  1.9636 -0.0111  0.5689
  921MOL0     H21536   7.459   2.615   0.859 -2.0192  1.5019  1.4927
  921MOL0     H21537   7.214   2.607   0.942 -1.2019 -1.2416  0.7789
  921MOL0     H21538   7.011   2.642   0.906  1.1683  0.4609 -0.6352
  921MOL0     H21539   7.028   2.511   1.016  2.2216  3.5697 -0.7449
  921MOL0     H21540   6.792   2.561   1.009 -0.2388  0.0507  0.4842
  921MOL0     H21541   6.799   2.423   0.914  1.3296 -0.7788  1.1675
  921MOL0     H21542   6.820   2.566   0.701  1.3512 -0.6425  1.0152
  921MOL0     H21543   6.810   2.712   0.804  2.6547 -0.3423 -2.7824
  921MOL0     H21544   6.591   2.498   0.782  0.4123 -0.7934 -0.9590
  921MOL0     H21545   6.583   2.644   0.880 -2.8155  1.3284 -1.3562
  921MOL0     H21546   6.626   2.672   0.577  0.3422  0.7206  1.2866
  921MOL0     H21547   6.573   2.792   0.686  1.5491  0.6258 -1.2936
  921MOL0     H21548   6.409   2.544   0.628  0.3291 -0.0570 -0.9814
  921MOL0     H21549   6.395   2.695   0.541  0.9127 -1.3572 -1.9184
  921MOL0     H21550   6.290   2.631   0.808 -0.5500  1.0630  1.3124
  921MOL0     H21551   6.356   2.798   0.789  1.5703 -0.6817  0.7460
  921MOL0     H21552   6.157   2.660   0.598 -2.1695  0.9296 -0.2867
  921MOL0     H21553   6.191   2.829   0.596  2.7839 -0.4475 -1.2997
  921MOL0     H21554   7.140   2.334   0.620  0.0861 -2.4704  3.4242
  921MOL0     H21555   7.371   2.344   0.548 -1.7067  0.3493 -0.1801
  921MOL0     H21556   7.761   2.528   0.516  0.6649  0.9280  0.2183
  921MOL0     H21557   8.001   2.555   0.445  0.1480  1.1423  0.1172
  921MOL0     H21558   9.699   3.369   0.588 -0.0941 -3.0617 -2.7051
  921MOL0     H21559   9.838   3.558   0.462  0.8080  1.1081 -1.5269
  921MOL0     H21560   9.931   3.946   0.335  1.1067  0.7006 -0.1106
  921MOL0     H21561  10.037   4.161   0.271  0.9855 -3.0846 -0.5185
  921MOL0     H21562   9.884   4.532   0.188  1.6017 -0.1514 -0.8832
  921MOL0     H21563   9.738   4.433   0.191 -0.3267 -0.7217 -1.1651
  921MOL0     H21564   9.752   4.450  -0.071 -1.7141  0.2321 -0.0803
  921MOL0     H21565   9.755   4.607   0.016 -1.5179 -1.1450  0.7753
  921MOL0     H21566   9.990   4.452  -0.090 -0.9491 -0.6376 -0.7913
  921MOL0     H21567  10.004   4.612  -0.012 -1.2328  1.5159 -0.1378
  921MOL0     H21568   9.859   4.551  -0.279 -0.9696  1.0155 -0.8476
  921MOL0     H21569   9.849   4.701  -0.188 -3.0996 -2.9551  0.9022
  921MOL0     H21570  10.229   4.749  -0.335 -0.9770 -0.0498 -1.2864
  921MOL0     H21571   9.701   4.256   0.031  1.1966  1.8214  2.7989
  921MOL0     H21572   9.604   4.024   0.075 -1.1329  1.1019  0.7500
  922MOL0     O21573   8.796   5.304   1.509 -0.3574 -0.4321 -0.2401
  922MOL0     C21574   8.874   5.354   1.427  0.8380 -0.6444 -0.9808
  922MOL0     O21575   8.835   5.438   1.331 -0.0076 -1.0873  0.2758
  922MOL0     C21576   8.697   5.474   1.335  0.1767  0.7312 -0.0282
  922MOL0     C21577   8.658   5.608   1.371  0.1181 -0.5101 -0.3391
  922MOL0     C21578   8.525   5.646   1.367  0.4658 -0.4169  0.7997
  922MOL0     C21579   8.431   5.559   1.323 -0.2094  0.3573  0.1682
  922MOL0     O21580   8.305   5.607   1.312 -0.5367 -0.1447 -0.1444
  922MOL0     C21581   8.188   5.547   1.372 -1.0374 -0.1765 -0.2191
  922MOL0     C21582   8.057   5.618   1.328  0.9341 -0.8584 -0.0694
  922MOL0     C21583   8.000   5.570   1.195  0.4922  0.5070  0.1989
  922MOL0     C21584   7.876   5.637   1.138 -0.8920 -0.6457 -1.3764
  922MOL0     C21585   7.739   5.621   1.220  0.1791 -0.3591  0.3600
  922MOL0     C21586   7.609   5.654   1.147  0.3139  0.0995 -0.0927
  922MOL0     C21587   7.503   5.645   1.248  0.1272  0.1378 -0.0298
  922MOL0     C21588   7.369   5.701   1.194  0.8734  0.2139 -0.2189
  922MOL0     N21589   7.260   5.691   1.293 -0.6735 -0.1532  0.1084
  922MOL0     C21590   7.227   5.766   1.407 -0.7329 -0.3461  0.8265
  922MOL0     C21591   7.121   5.700   1.450  0.8443  0.0093 -0.4440
  922MOL0     C21592   7.049   5.728   1.578 -0.1668 -0.5894  0.1333
  922MOL0     C21593   6.915   5.764   1.556  0.6445 -0.1558 -0.1515
  922MOL0     C21594   6.861   5.813   1.686  0.0641 -0.5178 -0.3595
  922MOL0     C21595   6.712   5.807   1.691 -0.2888 -0.2027  0.7097
  922MOL0     O21596   6.670   5.845   1.824 -1.0596  0.1850  0.8067
  922MOL0     C21597   6.545   5.873   1.833  0.3393  0.4972  0.2400
  922MOL0     C21598   6.444   5.833   1.745 -0.1844 -0.5503 -0.2966
  922MOL0     C21599   6.311   5.879   1.767 -0.5086  0.4006  0.0707
  922MOL0     C21600   6.280   5.937   1.889 -0.0536  0.1535  0.8146
  922MOL0     C21601   6.136   5.977   1.919  0.0215 -0.2210  1.1039
  922MOL0     O21602   6.106   6.022   2.043 -0.6127 -0.0250 -0.2935
  922MOL0     C21603   5.979   6.022   2.096 -0.7723  0.2507  0.4609
  922MOL0     C21604   5.878   5.919   2.065 -0.7577 -0.9052 -0.2998
  922MOL0     C21605   5.747   5.933   2.106  0.2792 -0.1525 -0.0324
  922MOL0     C21606   5.708   6.042   2.192  0.2797 -0.4958 -0.4089
  922MOL0     O21607   5.578   6.057   2.239 -0.4334 -0.5845  0.4146
  922MOL0     C21608   5.492   5.950   2.264 -0.6265 -0.8412 -0.1283
  922MOL0     C21609   5.558   5.852   2.373 -0.1638 -0.0385  0.8111
  922MOL0     C21610   5.470   5.732   2.411 -0.5310  0.3861 -0.5686
  922MOL0     C21611   5.331   5.766   2.464  0.0710 -0.6487  0.3019
  922MOL0     C21612   5.273   5.637   2.527  0.7472 -0.4710  0.7937
  922MOL0     C21613   5.126   5.673   2.567 -0.2529  0.9369 -0.2869
  922MOL0     C21614   5.066   5.561   2.655 -0.3011 -0.2379 -0.1633
  922MOL0     C21615   4.913   5.579   2.670 -0.2640  1.3233  0.6744
  922MOL0    Cl21616   4.836   5.496   2.792 -0.0382  0.2093  0.1982
  922MOL0     C21617   5.813   6.126   2.240 -0.0767 -0.0520 -0.3964
  922MOL0     C21618   5.950   6.117   2.186  0.3372  0.3664  0.0703
  922MOL0     O21619   6.062   5.951   1.831  0.4304 -1.4375  0.5106
  922MOL0     C21620   6.380   5.973   1.979 -0.6705 -0.2297 -0.2372
  922MOL0     C21621   6.511   5.938   1.948 -0.0338  0.0796  0.1399
  922MOL0     N21622   7.077   5.601   1.358 -0.1314 -0.5016  0.3846
  922MOL0     N21623   7.171   5.583   1.269  0.2965 -0.9434 -0.4761
  922MOL0     C21624   8.459   5.431   1.288 -0.9229 -0.0195 -0.8008
  922MOL0     C21625   8.592   5.387   1.290 -0.8685  0.1561 -0.1378
  922MOL0     C21626   9.017   5.328   1.444  0.5612  0.5057 -1.5364
  922MOL0     C21627   9.066   5.268   1.556  0.0113 -0.5809 -0.3119
  922MOL0     C21628   9.197   5.258   1.573 -0.2359 -0.0867 -0.3553
  922MOL0     C21629   9.289   5.280   1.476 -0.5686  0.0629  0.2846
  922MOL0     O21630   9.419   5.257   1.509  0.3171  0.4757 -0.3365
  922MOL0     C21631   9.518   5.315   1.426  0.4515 -0.7659 -0.2151
  922MOL0     C21632   9.645   5.240   1.467  0.3338 -0.5750  0.6587
  922MOL0     C21633   9.769   5.281   1.382  0.5534  0.1619  0.3416
  922MOL0     C21634   9.909   5.253   1.429 -0.6304 -0.1164  0.3690
  922MOL0     C21635   9.922   5.110   1.462  0.2020  0.3580 -0.7092
  922MOL0     C21636   9.919   4.991   1.466  0.2013 -0.0509 -0.2295
  922MOL0     C21637   9.241   5.323   1.351 -0.1689 -1.1975  0.4589
  922MOL0     C21638   9.107   5.362   1.340 -0.7885  0.6475  0.1104
  922MOL0     H21639   8.730   5.685   1.398 -2.4004  0.7388  3.7901
  922MOL0     H21640   8.500   5.748   1.395 -0.7270 -0.6762  0.7328
  922MOL0     H21641   8.200   5.548   1.481 -0.1928  0.0463 -0.3066
  922MOL0     H21642   8.174   5.444   1.339 -0.2669 -0.0253 -1.0395
  922MOL0     H21643   8.069   5.727   1.327 -1.2726 -0.5100  1.9754
  922MOL0     H21644   7.979   5.596   1.402 -1.5785 -1.0506 -2.5873
  922MOL0     H21645   7.973   5.465   1.206  2.9311 -0.2291 -0.2008
  922MOL0     H21646   8.080   5.587   1.122  1.5259  0.9080  1.3820
  922MOL0     H21647   7.897   5.743   1.123  1.0312 -0.5784  1.2315
  922MOL0     H21648   7.861   5.592   1.039  1.6482 -1.8556 -1.2972
  922MOL0     H21649   7.761   5.694   1.299 -0.4638 -2.6507  2.8222
  922MOL0     H21650   7.742   5.522   1.267 -0.1632 -0.2948  0.5167
  922MOL0     H21651   7.595   5.577   1.071 -0.0754  0.1063 -0.0299
  922MOL0     H21652   7.610   5.751   1.098 -0.0662  1.2631  2.0730
  922MOL0     H21653   7.484   5.538   1.263 -0.3179  0.4137  1.5898
  922MOL0     H21654   7.524   5.691   1.345  1.6849  1.3519 -0.8838
  922MOL0     H21655   7.333   5.658   1.100  0.1935 -1.6832  0.8590
  922MOL0     H21656   7.390   5.806   1.172  0.3888 -0.0047 -1.8291
  922MOL0     H21657   7.282   5.834   1.471  0.4319 -0.6472  0.1760
  922MOL0     H21658   7.106   5.810   1.623  0.4854 -0.2712 -1.2316
  922MOL0     H21659   7.054   5.637   1.639  1.3083 -1.1654 -0.7812
  922MOL0     H21660   6.861   5.678   1.517  0.5598  0.0257 -0.4332
  922MOL0     H21661   6.898   5.845   1.484 -0.5830 -1.1427 -1.0072
  922MOL0     H21662   6.900   5.748   1.765  0.4248  0.7965  0.5888
  922MOL0     H21663   6.897   5.913   1.713  1.3862 -1.4466  1.5683
  922MOL0     H21664   6.675   5.708   1.662  0.2760 -0.2143 -0.0144
  922MOL0     H21665   6.669   5.882   1.623 -0.7479 -1.9786 -1.0452
  922MOL0     H21666   6.455   5.768   1.658  0.0667 -0.2431 -0.4964
  922MOL0     H21667   6.237   5.865   1.690  1.5710  1.1047 -2.1936
  922MOL0     H21668   5.903   5.837   1.999  0.5242 -1.2692  0.5923
  922MOL0     H21669   5.680   5.858   2.064  0.0834  0.7860 -1.4705
  922MOL0     H21670   5.469   5.899   2.170 -0.2371  0.8235 -1.1761
  922MOL0     H21671   5.399   5.990   2.305  0.2181 -0.2198  1.2719
  922MOL0     H21672   5.591   5.902   2.464 -0.2642 -0.4081  1.0524
  922MOL0     H21673   5.648   5.812   2.324 -0.8362 -0.8554  0.2118
  922MOL0     H21674   5.514   5.674   2.493 -1.9757 -4.0067 -2.5751
  922MOL0     H21675   5.462   5.661   2.328 -0.7106  2.2455 -2.2230
  922MOL0     H21676   5.327   5.853   2.530 -1.9000  1.2069 -2.0872
  922MOL0     H21677   5.261   5.798   2.387  0.9397  1.5759  0.3749
  922MOL0     H21678   5.320   5.616   2.623  0.5828 -0.1674  0.9427
  922MOL0     H21679   5.275   5.556   2.453 -0.8476  0.1401  0.0216
  922MOL0     H21680   5.064   5.684   2.478 -0.4182 -0.6090 -0.3836
  922MOL0     H21681   5.136   5.759   2.634 -0.2703 -0.1725  1.1832
  922MOL0     H21682   5.089   5.466   2.606  0.9333 -0.7544  1.3487
  922MOL0     H21683   5.102   5.566   2.758 -3.2589  1.5376  0.9207
  922MOL0     H21684   4.871   5.530   2.581 -0.6315  1.1769  0.9281
  922MOL0     H21685   4.887   5.685   2.663  2.6907  2.0188 -2.1210
  922MOL0     H21686   5.779   6.197   2.315 -2.4500 -0.6928 -0.7878
  922MOL0     H21687   6.017   6.193   2.225  1.5805 -2.1930  3.3037
  922MOL0     H21688   6.361   6.014   2.078 -0.8188 -1.6567  0.3490
  922MOL0     H21689   6.582   5.961   2.027  0.4083 -3.1850  0.8206
  922MOL0     H21690   8.388   5.356   1.256 -0.6685 -2.1119  2.9309
  922MOL0     H21691   8.618   5.284   1.266  2.8152  1.2060 -1.2433
  922MOL0     H21692   9.000   5.229   1.634 -0.1892  4.2610  2.3156
  922MOL0     H21693   9.222   5.214   1.669 -0.3268 -2.3731 -1.2974
  922MOL0     H21694   9.530   5.419   1.456 -5.7719  0.2777 -0.0233
  922MOL0     H21695   9.498   5.316   1.318  0.3895  1.7221 -0.2392
  922MOL0     H21696   9.669   5.251   1.573  5.2414 -1.1605 -0.1620
  922MOL0     H21697   9.637   5.133   1.450 -1.3633 -0.0638 -2.5520
  922MOL0     H21698   9.771   5.386   1.352 -1.8004 -0.2816 -1.7426
  922MOL0     H21699   9.753   5.221   1.291 -1.2048  0.1777  0.6050
  922MOL0     H21700   9.976   5.268   1.344  0.4111  1.0690  1.3630
  922MOL0     H21701   9.941   5.323   1.506 -0.0653 -0.1563  0.1796
  922MOL0     H21702   9.911   4.885   1.477  1.3307  0.0112  1.6544
  922MOL0     H21703   9.302   5.347   1.265 -2.1660 -2.0071 -1.2822
  922MOL0     H21704   9.078   5.416   1.251 -1.8025  2.1872  1.3177
  923MOL0     O21705   5.430   9.481   9.224  0.8725  0.3922  0.7454
  923MOL0     C21706   5.454   9.515   9.340  0.5220  0.3131  0.1696
  923MOL0     O21707   5.371   9.505   9.442 -0.2624 -0.0909  0.4864
  923MOL0     C21708   5.242   9.470   9.434  0.1538  0.3688 -0.5774
  923MOL0     C21709   5.136   9.545   9.495 -0.7012  0.7348  0.5733
  923MOL0     C21710   5.002   9.509   9.476 -0.9190  0.3002  0.0129
  923MOL0     C21711   4.966   9.392   9.417 -0.8002 -0.3188 -0.5818
  923MOL0     O21712   4.841   9.339   9.420  0.6852  0.2631  0.3457
  923MOL0     C21713   4.770   9.330   9.545 -0.1556  0.2016 -0.5494
  923MOL0     C21714   4.654   9.236   9.507  0.0019 -0.5346 -0.6047
  923MOL0     C21715   4.563   9.217   9.625  0.6714 -0.6739  0.0075
  923MOL0     C21716   4.447   9.135   9.574  0.2090 -0.8505  0.0344
  923MOL0     C21717   4.355   9.095   9.684 -0.1203  0.4632  0.3390
  923MOL0     C21718   4.273   8.972   9.658 -0.3240 -0.5582 -0.4143
  923MOL0     C21719   4.159   9.008   9.565 -0.0521 -0.1163 -0.5179
  923MOL0     C21720   4.064   8.889   9.538  0.1924  0.4426  0.0434
  923MOL0     N21721   3.947   8.935   9.458  0.2960 -0.4447  0.3279
  923MOL0     C21722   3.852   9.014   9.515 -0.6753  0.8515 -0.0151
  923MOL0     C21723   3.753   9.024   9.415  0.3310  0.7916  0.2174
  923MOL0     C21724   3.619   9.090   9.433  0.7131 -0.5853 -0.3304
  923MOL0     C21725   3.505   8.995   9.403 -0.0288  0.3051  0.1569
  923MOL0     C21726   3.366   9.061   9.423 -1.6396  0.1019  0.8125
  923MOL0     C21727   3.256   8.955   9.397  0.4512 -0.3573 -0.0851
  923MOL0     O21728   3.134   9.013   9.428  0.8871  0.0610 -0.3100
  923MOL0     C21729   3.018   8.934   9.433 -0.4477 -0.0654  0.0061
  923MOL0     C21730   2.901   9.003   9.467 -0.0712 -0.9463 -0.2919
  923MOL0     C21731   2.783   8.943   9.469 -0.8548  1.2131  0.2171
  923MOL0     C21732   2.770   8.810   9.446  0.7611  0.5650 -0.3582
  923MOL0     C21733   2.634   8.747   9.449  0.1649  0.0785 -0.6279
  923MOL0     O21734   2.539   8.810   9.523 -0.1589 -0.6368  0.6213
  923MOL0     C21735   2.421   8.753   9.527  0.0095  0.3738 -0.6243
  923MOL0     C21736   2.312   8.827   9.497 -0.2357 -0.3328  0.2919
  923MOL0     C21737   2.182   8.779   9.496  0.2064 -0.5217  0.1468
  923MOL0     C21738   2.159   8.639   9.523  0.5662 -1.0241  0.5748
  923MOL0     O21739   2.034   8.583   9.533  0.2877 -0.1776  1.4798
  923MOL0     C21740   1.920   8.667   9.553  1.0018 -0.5241  0.0199
  923MOL0     C21741   1.808   8.597   9.631  0.8674  0.0878  0.5307
  923MOL0     C21742   1.700   8.703   9.676 -0.2057  0.1828  0.1837
  923MOL0     C21743   1.568   8.642   9.733 -0.0765  0.8753  0.2332
  923MOL0     C21744   1.435   8.710   9.690  0.2487  0.1198  0.3203
  923MOL0     C21745   1.406   8.840   9.767  0.3654  0.1007 -0.1658
  923MOL0     C21746   1.270   8.893   9.720 -0.3104  0.1189 -0.0634
  923MOL0     C21747   1.254   9.038   9.761  0.9732 -0.7843  0.2711
  923MOL0    Cl21748   1.085   9.083   9.718 -0.0775 -0.1692 -0.0394
  923MOL0     C21749   2.274   8.555   9.539  0.3800 -0.5133  0.2557
  923MOL0     C21750   2.400   8.617   9.556 -0.7897 -0.2300 -0.7254
  923MOL0     O21751   2.616   8.657   9.365  0.6670 -0.0461 -0.2850
  923MOL0     C21752   2.880   8.730   9.398 -0.0434 -0.3505 -0.9063
  923MOL0     C21753   3.006   8.789   9.407  0.4180 -0.6868  0.6500
  923MOL0     N21754   3.794   8.948   9.306 -0.1018 -0.1781  0.8127
  923MOL0     N21755   3.909   8.890   9.336 -0.7193  0.7760  1.4513
  923MOL0     C21756   5.059   9.318   9.352 -0.9382 -0.2110  0.1039
  923MOL0     C21757   5.196   9.356   9.360  0.3865  0.5642  0.3748
  923MOL0     C21758   5.586   9.562   9.374  0.1169 -0.5190  0.0915
  923MOL0     C21759   5.691   9.515   9.296  0.2356  0.4338 -0.2625
  923MOL0     C21760   5.818   9.560   9.331 -1.0566 -0.4898  0.3679
  923MOL0     C21761   5.841   9.637   9.445 -0.1235  0.2235 -0.3386
  923MOL0     O21762   5.968   9.673   9.488 -0.0752  0.0776 -0.3709
  923MOL0     C21763   6.089   9.644   9.422 -1.5579 -0.1669 -0.4545
  923MOL0     C21764   6.206   9.681   9.520 -0.4191  0.1714 -0.0288
  923MOL0     C21765   6.229   9.831   9.519  0.1052 -0.5813 -0.3918
  923MOL0     C21766   6.333   9.870   9.628 -0.5847  0.5781  0.3641
  923MOL0     C21767   6.332  10.016   9.644  0.0844  0.0660  0.0965
  923MOL0     C21768   6.337  10.138   9.635  0.0988  0.1019  0.9090
  923MOL0     C21769   5.737   9.668   9.533 -0.1606  0.2152  0.0701
  923MOL0     C21770   5.605   9.635   9.494  0.7840  0.3783 -0.6240
  923MOL0     H21771   5.160   9.642   9.536 -0.7368  0.1240  2.1124
  923MOL0     H21772   4.927   9.574   9.521  3.0707  2.8562  3.7683
  923MOL0     H21773   4.726   9.423   9.581 -1.9618  0.3019 -2.8056
  923MOL0     H21774   4.834   9.281   9.618 -1.1338 -3.8067 -2.1122
  923MOL0     H21775   4.695   9.139   9.478  1.4007  0.2437 -1.3008
  923MOL0     H21776   4.600   9.282   9.424  0.0361 -0.6760 -0.7065
  923MOL0     H21777   4.528   9.316   9.653 -0.5835 -0.9169 -0.6383
  923MOL0     H21778   4.616   9.174   9.711  0.0401 -0.4676  0.5062
  923MOL0     H21779   4.394   9.173   9.486 -0.6049  0.0746  0.9032
  923MOL0     H21780   4.478   9.036   9.537 -2.0142 -1.5789 -0.0694
  923MOL0     H21781   4.285   9.176   9.707  0.8077  1.4172 -0.1553
  923MOL0     H21782   4.412   9.072   9.775 -0.6293  2.6438  1.2667
  923MOL0     H21783   4.218   8.940   9.748 -0.0872 -1.6665 -0.6456
  923MOL0     H21784   4.333   8.883   9.637 -0.7692 -1.0180  0.2272
  923MOL0     H21785   4.108   9.098   9.601  3.6348  2.3745 -0.8821
  923MOL0     H21786   4.191   9.050   9.469 -1.1595  2.2760  0.0873
  923MOL0     H21787   4.027   8.840   9.629 -1.4177  0.4319 -0.5813
  923MOL0     H21788   4.116   8.807   9.487 -1.1661 -0.6957  0.4356
  923MOL0     H21789   3.850   9.056   9.616 -2.9070  0.7434  0.0309
  923MOL0     H21790   3.606   9.174   9.365 -0.0628 -0.2598  0.2063
  923MOL0     H21791   3.610   9.127   9.535  1.2424 -0.2664 -0.3974
  923MOL0     H21792   3.516   8.909   9.470  0.7467 -0.9295 -1.4894
  923MOL0     H21793   3.513   8.956   9.301  2.5958  1.2997 -0.0782
  923MOL0     H21794   3.353   9.106   9.522 -3.0544  4.4461 -1.1004
  923MOL0     H21795   3.360   9.142   9.350  0.2276 -0.9953 -0.6471
  923MOL0     H21796   3.264   8.870   9.466 -0.0426  2.1244  3.2827
  923MOL0     H21797   3.260   8.932   9.290 -1.4893  2.1651 -0.7977
  923MOL0     H21798   2.913   9.107   9.494  1.2383 -1.3376  0.7619
  923MOL0     H21799   2.696   9.007   9.478 -2.0838 -0.3506 -0.0796
  923MOL0     H21800   2.333   8.933   9.484  0.9714 -0.6680 -0.6592
  923MOL0     H21801   2.108   8.858   9.488 -1.1399 -1.8427 -1.2309
  923MOL0     H21802   1.890   8.678   9.448  2.6491  0.5725 -0.3760
  923MOL0     H21803   1.950   8.761   9.600  0.8289 -0.1636 -0.5820
  923MOL0     H21804   1.849   8.549   9.721  1.9449 -3.0722 -1.4806
  923MOL0     H21805   1.775   8.509   9.576  1.1887 -0.4084  1.1109
  923MOL0     H21806   1.677   8.768   9.591  2.0635  1.6304  0.6052
  923MOL0     H21807   1.751   8.767   9.749  0.9976  1.5048 -1.7214
  923MOL0     H21808   1.575   8.538   9.701 -2.1428  0.8783 -0.3452
  923MOL0     H21809   1.587   8.643   9.841  0.0538 -1.5980  0.2979
  923MOL0     H21810   1.356   8.638   9.715  1.6102 -1.0841  1.3616
  923MOL0     H21811   1.433   8.735   9.583  1.3238  1.4106  0.5807
  923MOL0     H21812   1.485   8.912   9.745  0.9858 -0.9232 -1.4121
  923MOL0     H21813   1.401   8.820   9.875  0.4915  5.9664  1.2580
  923MOL0     H21814   1.255   8.887   9.612  1.6166 -0.2238 -0.3428
  923MOL0     H21815   1.196   8.833   9.775 -1.5106  1.5267 -0.0623
  923MOL0     H21816   1.327   9.093   9.701  0.1216  0.5269  0.4076
  923MOL0     H21817   1.271   9.057   9.867 -1.9520  1.8790  0.4219
  923MOL0     H21818   2.264   8.448   9.554 -0.8788 -0.2426  1.5273
  923MOL0     H21819   2.482   8.549   9.576 -2.9280 -2.6657  0.2121
  923MOL0     H21820   2.872   8.625   9.373  0.3606 -0.9652  1.3663
  923MOL0     H21821   3.095   8.732   9.383 -1.1890 -2.5803 -1.1898
  923MOL0     H21822   5.039   9.225   9.301 -2.5033 -0.2644  0.7722
  923MOL0     H21823   5.255   9.277   9.314  1.6962  1.5992  0.2240
  923MOL0     H21824   5.674   9.444   9.216  1.5116 -1.7605  1.3315
  923MOL0     H21825   5.902   9.540   9.265 -1.1369 -3.1982  0.9907
  923MOL0     H21826   6.108   9.692   9.326  2.7026  0.7581  0.6647
  923MOL0     H21827   6.105   9.536   9.411  0.5183 -0.5373  3.8568
  923MOL0     H21828   6.176   9.658   9.622  0.4136  2.2220  0.7367
  923MOL0     H21829   6.300   9.637   9.486 -1.4146 -2.0632 -0.0381
  923MOL0     H21830   6.134   9.880   9.539  0.6109 -0.6177  2.4443
  923MOL0     H21831   6.272   9.862   9.422  2.1881 -1.2995  0.2487
  923MOL0     H21832   6.316   9.806   9.715  0.6557  1.9635  1.6735
  923MOL0     H21833   6.429   9.831   9.596  0.8982  2.5893  2.0905
  923MOL0     H21834   6.334  10.245   9.629 -2.6568  0.1354  1.7292
  923MOL0     H21835   5.777   9.723   9.618  3.7274 -0.5736 -1.0241
  923MOL0     H21836   5.530   9.664   9.566 -0.2584 -3.5798  0.1186
  924MOL0     O21837  10.827   0.882   9.946  0.4288 -0.3424  0.0629
  924MOL0     C21838  10.895   0.848  10.042 -0.6597 -0.5559 -0.0193
  924MOL0     O21839  10.856   0.764  10.137 -0.5479  0.6387 -0.2225
  924MOL0     C21840  10.734   0.709  10.111  0.8614  0.2301  0.3932
  924MOL0     C21841  10.703   0.614  10.015  0.1182 -0.2442 -0.4747
  924MOL0     C21842  10.574   0.567  10.004  0.2101 -0.2335  0.2908
  924MOL0     C21843  10.470   0.620  10.082  0.4278 -0.3558  0.4040
  924MOL0     O21844  10.340   0.579  10.060 -0.0477  0.1272 -0.1599
  924MOL0     C21845  10.237   0.678  10.026  0.6733 -0.5128 -0.7753
  924MOL0     C21846  10.122   0.668  10.142  0.5716 -0.9380 -0.2282
  924MOL0     C21847  10.053   0.537  10.125  1.1072  0.1768  0.5754
  924MOL0     C21848   9.933   0.532  10.220 -0.4242  1.3129  0.0143
  924MOL0     C21849   9.882   0.388  10.207  0.0945 -0.0574  0.1304
  924MOL0     C21850   9.731   0.374  10.244 -1.0006 -0.2635 -0.0667
  924MOL0     C21851   9.652   0.417  10.127  0.1807  0.1293  0.3262
  924MOL0     C21852   9.507   0.384  10.159  0.1945 -0.0580 -0.3679
  924MOL0     N21853   9.415   0.431  10.055 -0.2249 -0.7542  0.1410
  924MOL0     C21854   9.351   0.361   9.957 -0.8397  0.0790  0.5811
  924MOL0     C21855   9.279   0.459   9.893 -0.0912 -0.7364 -1.1884
  924MOL0     C21856   9.194   0.429   9.774 -0.2429 -0.0775  0.1502
  924MOL0     C21857   9.068   0.366   9.826  0.3673 -0.3170  0.7524
  924MOL0     C21858   8.981   0.478   9.904  0.2531  0.2292 -0.0800
  924MOL0     C21859   8.834   0.441   9.893  0.6831 -0.0703 -0.3407
  924MOL0     O21860   8.787   0.433  10.030  0.0379  0.1900  0.6889
  924MOL0     C21861   8.661   0.383  10.048 -0.2799 -0.3825  0.4775
  924MOL0     C21862   8.576   0.367   9.941  0.1134 -0.0234 -0.0805
  924MOL0     C21863   8.449   0.314   9.971  0.1539  0.4197  0.4985
  924MOL0     C21864   8.400   0.288  10.098 -0.8506 -0.4701 -0.2763
  924MOL0     C21865   8.256   0.253  10.116 -1.0387  0.0765 -0.9308
  924MOL0     O21866   8.212   0.228  10.247  0.8602  0.3467 -0.6006
  924MOL0     C21867   8.091   0.164  10.275  0.2183  0.3556  0.1667
  924MOL0     C21868   8.097   0.043  10.339 -0.0486  1.4504  1.3498
  924MOL0     C21869   7.979  -0.034  10.369  0.4539  0.3091  0.0290
  924MOL0     C21870   7.849   0.033  10.353 -0.5968  0.1082  0.3016
  924MOL0     O21871   7.734  -0.013  10.409  0.1239 -0.4330  0.1856
  924MOL0     C21872   7.726  -0.122  10.505  0.0029  0.2858 -0.0333
  924MOL0     C21873   7.588  -0.163  10.553  0.5350 -0.2370  0.4640
  924MOL0     C21874   7.489  -0.188  10.434 -1.0427 -0.9707  0.1405
  924MOL0     C21875   7.343  -0.146  10.454  0.6659 -0.1028 -0.2235
  924MOL0     C21876   7.251  -0.145  10.328 -0.6881  0.1075  0.3490
  924MOL0     C21877   7.111  -0.111  10.373  0.6414  0.2326 -0.2237
  924MOL0     C21878   7.027  -0.077  10.246 -0.3923  0.4014  0.0047
  924MOL0     C21879   6.894  -0.007  10.267  0.3962  0.8730  0.1401
  924MOL0    Cl21880   6.919   0.166  10.290  0.3922  0.0054  0.4861
  924MOL0     C21881   7.845   0.157  10.289  0.1668 -0.3269  0.1608
  924MOL0     C21882   7.965   0.217  10.242 -0.0910 -0.1901 -0.5590
  924MOL0     O21883   8.180   0.242  10.016 -0.2350  0.0772  0.6550
  924MOL0     C21884   8.495   0.306  10.210 -0.0601  1.5668  0.3838
  924MOL0     C21885   8.620   0.361  10.175 -0.3468  0.8624  0.2224
  924MOL0     N21886   9.293   0.585   9.960 -0.3437 -0.4122  0.7204
  924MOL0     N21887   9.381   0.566  10.050 -0.8321  0.9259  0.6311
  924MOL0     C21888  10.496   0.719  10.178 -0.6358  0.5364  0.1609
  924MOL0     C21889  10.625   0.761  10.189 -0.0912 -0.1529  0.0013
  924MOL0     C21890  11.029   0.892  10.032 -0.0964 -0.5020  0.1674
  924MOL0     C21891  11.065   1.014   9.973  0.0669  0.7372 -0.1259
  924MOL0     C21892  11.203   1.049   9.968  0.3968 -0.2245  0.1974
  924MOL0     C21893  11.302   0.960  10.010  0.6727 -0.0855  0.7111
  924MOL0     O21894  11.431   1.010   9.998 -0.1879 -0.5901  0.6587
  924MOL0     C21895  11.540   0.920  10.025 -0.2870 -0.8327  0.7776
  924MOL0     C21896  11.674   0.977   9.979 -0.3995 -0.5401 -0.1484
  924MOL0     C21897  11.690   0.950   9.833 -0.7765 -0.6859  0.1063
  924MOL0     C21898  11.815   1.005   9.752 -0.7679  0.0281 -1.0438
  924MOL0     C21899  11.885   1.122   9.807 -0.0538  0.1580  0.1224
  924MOL0     C21900  11.958   1.213   9.844 -0.8054  0.9010  0.4037
  924MOL0     C21901  11.261   0.837  10.058 -0.2087  0.3443 -0.3799
  924MOL0     C21902  11.132   0.806  10.079  1.3362  0.1873  0.8805
  924MOL0     H21903  10.783   0.591   9.945  1.2184  1.4630  0.1635
  924MOL0     H21904  10.546   0.499   9.924 -1.2158  0.5008  0.1165
  924MOL0     H21905  10.203   0.657   9.925  0.7279  0.4922 -1.0123
  924MOL0     H21906  10.289   0.774  10.019  0.4934 -0.4656 -1.5943
  924MOL0     H21907  10.041   0.742  10.135  0.8822 -0.7340 -2.1235
  924MOL0     H21908  10.177   0.671  10.237 -1.9513 -0.8561  1.3451
  924MOL0     H21909  10.114   0.448  10.144  0.0502 -1.5739 -3.2649
  924MOL0     H21910  10.029   0.531  10.018  1.0881 -0.9807  0.6329
  924MOL0     H21911   9.965   0.556  10.322 -1.6660 -1.3004  1.1156
  924MOL0     H21912   9.850   0.600  10.200 -1.1447 -0.0387 -1.9563
  924MOL0     H21913   9.950   0.321  10.260  2.4243  0.9056 -1.4668
  924MOL0     H21914   9.895   0.354  10.104 -0.0813  0.1992  0.0240
  924MOL0     H21915   9.705   0.422  10.338  1.4912 -1.8359  1.5350
  924MOL0     H21916   9.694   0.272  10.256  0.0467 -0.8063 -1.1719
  924MOL0     H21917   9.673   0.518  10.093  2.3251 -0.6381 -0.8277
  924MOL0     H21918   9.686   0.351  10.046  0.7073 -1.1085  1.5128
  924MOL0     H21919   9.473   0.423  10.255  0.0686 -1.6112  0.2485
  924MOL0     H21920   9.507   0.275  10.167 -1.3411 -0.3848 -3.3689
  924MOL0     H21921   9.369   0.258   9.929  2.0561  0.7065 -0.2334
  924MOL0     H21922   9.246   0.357   9.710  1.4529 -0.0945  1.4434
  924MOL0     H21923   9.182   0.524   9.721 -1.2760  0.6745  1.6737
  924MOL0     H21924   9.081   0.277   9.888 -2.4994 -1.4997 -0.1901
  924MOL0     H21925   9.018   0.337   9.734  3.3457  0.3844 -1.2394
  924MOL0     H21926   9.014   0.474  10.008  1.0293 -1.2295 -0.3509
  924MOL0     H21927   9.002   0.577   9.863  0.0642  0.9591  1.5080
  924MOL0     H21928   8.815   0.348   9.837  0.6105  0.4007 -1.1232
  924MOL0     H21929   8.784   0.526   9.846  2.5182  1.1740 -0.1175
  924MOL0     H21930   8.599   0.393   9.838 -1.3018 -1.3697 -0.7806
  924MOL0     H21931   8.377   0.315   9.890  0.1839  0.2364  0.4690
  924MOL0     H21932   8.195   0.004  10.366 -0.5676  0.1378  1.3892
  924MOL0     H21933   7.983  -0.129  10.421 -0.9983  0.0007 -0.3815
  924MOL0     H21934   7.783  -0.092  10.593  1.7019 -0.5598 -0.8001
  924MOL0     H21935   7.763  -0.216  10.463 -1.1436  0.7616 -2.2885
  924MOL0     H21936   7.557  -0.080  10.616  1.6199 -0.1691  0.9315
  924MOL0     H21937   7.589  -0.255  10.613 -4.1397 -0.0963  1.1007
  924MOL0     H21938   7.491  -0.292  10.402  2.4256 -0.0653 -3.4900
  924MOL0     H21939   7.521  -0.125  10.350 -0.7048 -1.9205 -0.4622
  924MOL0     H21940   7.296  -0.215  10.525 -1.4854  1.2022 -0.3131
  924MOL0     H21941   7.350  -0.048  10.502 -0.5229 -0.0489 -0.1356
  924MOL0     H21942   7.254  -0.237  10.268  0.7555  0.8003 -0.7077
  924MOL0     H21943   7.284  -0.067  10.259 -0.0094 -0.9483 -0.5558
  924MOL0     H21944   7.107  -0.021  10.435  1.1764 -0.4849  0.8850
  924MOL0     H21945   7.074  -0.195  10.432  0.6000 -0.6730 -1.5052
  924MOL0     H21946   7.087  -0.011  10.183 -0.7073 -0.7467 -1.5551
  924MOL0     H21947   7.003  -0.170  10.193 -1.9625  0.1219  1.1180
  924MOL0     H21948   6.829  -0.063  10.335 -3.2630  2.7875 -1.5071
  924MOL0     H21949   6.839  -0.002  10.173  2.2365  2.3193 -0.9546
  924MOL0     H21950   7.750   0.209  10.281 -0.6299 -1.5108  1.3846
  924MOL0     H21951   7.949   0.314  10.194 -0.4338 -0.0147 -0.0959
  924MOL0     H21952   8.448   0.289  10.307  0.2081 -1.3210  0.0882
  924MOL0     H21953   8.687   0.387  10.256 -2.3814  0.4722  2.1199
  924MOL0     H21954  10.417   0.776  10.225 -1.0414  0.9390 -0.9624
  924MOL0     H21955  10.653   0.828  10.270  0.4986 -0.8049  0.3572
  924MOL0     H21956  11.001   1.095   9.941  0.1316  1.7487  2.1202
  924MOL0     H21957  11.232   1.146   9.928 -0.4463  0.9528  2.2426
  924MOL0     H21958  11.514   0.828   9.972 -1.4058 -0.6002  0.8793
  924MOL0     H21959  11.551   0.897  10.131 -0.1495 -2.5092  0.4280
  924MOL0     H21960  11.686   1.083  10.002  1.3033 -0.9154  0.8997
  924MOL0     H21961  11.753   0.927  10.036 -1.1961 -0.7683  0.7713
  924MOL0     H21962  11.606   0.996   9.781  1.3244  1.5969 -1.5409
  924MOL0     H21963  11.676   0.845   9.806 -0.3866 -0.8285  0.4422
  924MOL0     H21964  11.892   0.928   9.765  0.8926  1.4715 -2.0375
  924MOL0     H21965  11.802   1.007   9.644 -0.5752 -3.7882 -1.2742
  924MOL0     H21966  12.017   1.299   9.866 -2.1218  2.0896 -0.4747
  924MOL0     H21967  11.336   0.764  10.086 -1.0548  0.7473  3.4880
  924MOL0     H21968  11.114   0.706  10.116 -0.0123  0.8085  2.0165
  925MOL0     O21969   2.724   3.712   0.707  0.0649  0.2909  0.0219
  925MOL0     C21970   2.817   3.639   0.738  0.0144 -0.5813  1.1687
  925MOL0     O21971   2.818   3.503   0.736 -0.2420  0.5187  0.0433
  925MOL0     C21972   2.694   3.431   0.737 -0.0193  0.2004  0.4667
  925MOL0     C21973   2.658   3.327   0.647 -0.5989 -0.1355 -0.5182
  925MOL0     C21974   2.533   3.263   0.660 -0.1489  0.7008  0.3019
  925MOL0     C21975   2.442   3.298   0.755  0.7785  0.2009 -0.0355
  925MOL0     O21976   2.330   3.215   0.765 -0.2546 -0.1102  0.0006
  925MOL0     C21977   2.230   3.242   0.859 -0.1144 -0.1704 -0.0492
  925MOL0     C21978   2.117   3.138   0.821 -0.7787  0.6717  0.5501
  925MOL0     C21979   1.992   3.146   0.906 -0.4711 -0.2536  0.3247
  925MOL0     C21980   1.897   3.026   0.882 -0.1527 -1.0500 -0.3082
  925MOL0     C21981   1.950   2.900   0.955  0.6634  0.2843 -0.7588
  925MOL0     C21982   1.869   2.781   0.904 -0.0666  0.0848  0.0965
  925MOL0     C21983   1.933   2.657   0.962  0.5495 -0.7386 -1.0749
  925MOL0     C21984   1.872   2.528   0.909 -0.7080 -0.2529 -0.5145
  925MOL0     N21985   1.733   2.520   0.921  0.9379 -0.0829 -0.2223
  925MOL0     C21986   1.633   2.583   0.848  0.5422 -0.1173  0.0874
  925MOL0     C21987   1.518   2.530   0.900 -0.1509  0.0991 -0.7818
  925MOL0     C21988   1.369   2.570   0.875  0.0077  0.0158 -0.2665
  925MOL0     C21989   1.283   2.454   0.859 -0.9778 -0.1285  0.2541
  925MOL0     C21990   1.140   2.492   0.817  0.3329 -0.9559 -0.3292
  925MOL0     C21991   1.055   2.368   0.808  0.3050  0.3371  0.6863
  925MOL0     O21992   0.928   2.413   0.760  0.2774  0.1740  0.1095
  925MOL0     C21993   0.823   2.326   0.762 -1.2643  0.0952 -0.3152
  925MOL0     C21994   0.844   2.188   0.788  0.4151 -0.9888 -0.3694
  925MOL0     C21995   0.731   2.106   0.787  0.1608 -0.1479 -0.1624
  925MOL0     C21996   0.599   2.153   0.771  0.1119 -1.0004  0.5229
  925MOL0     C21997   0.487   2.058   0.767  0.0094  0.2836 -0.6381
  925MOL0     O21998   0.517   1.924   0.786  0.6311  0.0710  0.3258
  925MOL0     C21999   0.416   1.833   0.816  0.0113 -0.1157 -0.4155
  925MOL0     C22000   0.428   1.762   0.934  0.2192 -0.4182 -0.1009
  925MOL0     C22001   0.318   1.674   0.975 -0.5982  0.6829  0.2711
  925MOL0     C22002   0.215   1.640   0.883 -1.0254  0.2193  0.4782
  925MOL0     O22003   0.112   1.563   0.928  0.0935  1.2965 -1.2085
  925MOL0     C22004   0.058   1.458   0.837 -0.6074 -0.4485  0.0074
  925MOL0     C22005  -0.077   1.432   0.898 -0.4734 -0.1274 -0.2326
  925MOL0     C22006  -0.124   1.299   0.840  0.5832  0.9909  0.6961
  925MOL0     C22007  -0.252   1.245   0.919  0.9753  0.5169  0.4721
  925MOL0     C22008  -0.387   1.309   0.871 -0.0181 -0.5811  0.5925
  925MOL0     C22009  -0.442   1.221   0.757 -0.5502  0.1764  0.2728
  925MOL0     C22010  -0.589   1.257   0.731 -0.4218  0.0525 -0.4562
  925MOL0     C22011  -0.670   1.161   0.645  0.4137 -0.3905 -0.4652
  925MOL0    Cl22012  -0.833   1.230   0.609  0.4678 -0.0697 -0.1848
  925MOL0     C22013   0.214   1.717   0.769  0.2429 -0.0719  0.6240
  925MOL0     C22014   0.308   1.813   0.725  0.7035  0.2085 -0.8937
  925MOL0     O22015   0.372   2.106   0.764 -0.5793 -0.1645  0.1112
  925MOL0     C22016   0.575   2.289   0.756 -0.9934 -0.2093  1.1858
  925MOL0     C22017   0.692   2.371   0.747 -0.8455 -0.7105 -0.9409
  925MOL0     N22018   1.554   2.438   0.999 -0.7039  0.2990  0.1522
  925MOL0     N22019   1.685   2.428   1.010 -0.3554 -0.8511 -0.2615
  925MOL0     C22020   2.477   3.398   0.844 -0.1253  0.6425  0.3162
  925MOL0     C22021   2.594   3.470   0.832  0.4311 -0.3164  0.7359
  925MOL0     C22022   2.946   3.704   0.790  0.2387  1.3511 -1.0910
  925MOL0     C22023   2.949   3.825   0.856  0.1012  0.4609 -0.1070
  925MOL0     C22024   3.075   3.893   0.868  1.0138 -0.0617 -0.2717
  925MOL0     C22025   3.191   3.834   0.815 -0.0167  0.5199 -0.7238
  925MOL0     O22026   3.313   3.888   0.816 -0.3261 -0.3918  0.2537
  925MOL0     C22027   3.314   4.032   0.847  0.3980  0.7663 -0.5161
  925MOL0     C22028   3.450   4.089   0.823 -1.0172 -0.3285  0.4370
  925MOL0     C22029   3.567   4.004   0.880 -0.1856 -0.1963  1.3191
  925MOL0     C22030   3.564   3.978   1.026  0.2908 -0.4649 -0.1360
  925MOL0     C22031   3.589   4.106   1.102  0.3636  0.6596 -0.0656
  925MOL0     C22032   3.625   4.211   1.164  0.6201 -0.1911  0.2987
  925MOL0     C22033   3.185   3.702   0.759 -0.0475  0.3170  0.1462
  925MOL0     C22034   3.066   3.635   0.756  0.6513  0.8535  0.1132
  925MOL0     H22035   2.734   3.301   0.574  0.1079  3.3598 -1.1815
  925MOL0     H22036   2.514   3.180   0.593 -2.8816  0.2737  1.4766
  925MOL0     H22037   2.187   3.342   0.858  1.6276  0.6518  1.2712
  925MOL0     H22038   2.262   3.216   0.961 -3.8539  1.8643  1.8727
  925MOL0     H22039   2.162   3.039   0.817 -0.6093  0.7481  0.5689
  925MOL0     H22040   2.092   3.157   0.717  3.4242 -0.8938 -0.9270
  925MOL0     H22041   1.945   3.244   0.898 -1.4125 -0.6040  1.3415
  925MOL0     H22042   2.027   3.145   1.010  2.0583 -1.0437 -0.4645
  925MOL0     H22043   1.803   3.052   0.931  0.0776 -2.7791  1.1774
  925MOL0     H22044   1.886   3.015   0.774  0.6032  1.3100 -0.6858
  925MOL0     H22045   1.936   2.904   1.063  1.6369  1.5852 -0.6616
  925MOL0     H22046   2.054   2.875   0.930  0.0370 -0.6887 -2.5493
  925MOL0     H22047   1.880   2.791   0.796  0.9018  3.5931  0.4122
  925MOL0     H22048   1.767   2.788   0.942  0.9976  0.7817  3.1485
  925MOL0     H22049   2.041   2.658   0.950  1.2794  0.2511  3.7938
  925MOL0     H22050   1.915   2.659   1.069 -1.9757  0.7060 -1.4431
  925MOL0     H22051   1.918   2.443   0.961  2.8106  0.6049 -1.9524
  925MOL0     H22052   1.898   2.528   0.803 -1.6714  1.3265 -0.7846
  925MOL0     H22053   1.639   2.656   0.767 -0.3246  0.9034  0.9138
  925MOL0     H22054   1.366   2.631   0.784  0.4688  0.8925  0.2846
  925MOL0     H22055   1.336   2.636   0.956  0.6606 -0.2422  0.2259
  925MOL0     H22056   1.274   2.397   0.952  3.1152  0.2277  1.0236
  925MOL0     H22057   1.332   2.381   0.793  3.0728  0.1996  2.6232
  925MOL0     H22058   1.098   2.552   0.898  0.0241  1.1193 -1.9463
  925MOL0     H22059   1.141   2.552   0.725  3.7222 -0.1700  0.1089
  925MOL0     H22060   1.031   2.345   0.913 -3.4182  0.9568  0.0932
  925MOL0     H22061   1.092   2.290   0.741 -0.9957  2.8647 -3.2767
  925MOL0     H22062   0.939   2.146   0.818  1.0891  0.7677  0.0255
  925MOL0     H22063   0.748   2.003   0.816 -1.0740  0.0054  1.1985
  925MOL0     H22064   0.513   1.779   0.998 -0.9239 -1.3468  1.7426
  925MOL0     H22065   0.319   1.622   1.070  1.0718 -1.1924 -0.6965
  925MOL0     H22066   0.119   1.367   0.840 -0.6966 -0.5701 -1.3519
  925MOL0     H22067   0.049   1.498   0.736 -1.3856  0.7616  0.5320
  925MOL0     H22068  -0.147   1.510   0.866 -0.5403 -1.0985 -2.7089
  925MOL0     H22069  -0.075   1.432   1.007 -1.4947 -0.5060 -0.2008
  925MOL0     H22070  -0.044   1.225   0.851  2.0671  2.6157  1.3457
  925MOL0     H22071  -0.154   1.311   0.735 -1.3834 -1.6064  0.8664
  925MOL0     H22072  -0.269   1.137   0.921 -0.4156  0.6537  4.3185
  925MOL0     H22073  -0.244   1.278   1.023  2.9122  2.0632 -0.1096
  925MOL0     H22074  -0.374   1.410   0.831 -3.5870 -0.3605 -0.3684
  925MOL0     H22075  -0.453   1.320   0.958  0.4802  0.1915  0.8821
  925MOL0     H22076  -0.447   1.114   0.780 -1.9113  0.6079  2.1794
  925MOL0     H22077  -0.389   1.242   0.663 -0.2859  2.9040  0.9355
  925MOL0     H22078  -0.645   1.264   0.825 -1.2819  1.4316 -1.0355
  925MOL0     H22079  -0.595   1.350   0.674  0.3581  0.9513  0.8698
  925MOL0     H22080  -0.693   1.073   0.707 -3.7023  1.0801  0.4125
  925MOL0     H22081  -0.608   1.145   0.557 -0.7857  0.1832 -1.4308
  925MOL0     H22082   0.134   1.704   0.696  1.1932 -2.5522 -0.0767
  925MOL0     H22083   0.297   1.869   0.633  1.4488  2.5280  0.3375
  925MOL0     H22084   0.478   2.336   0.740 -0.6854  0.1134  0.1977
  925MOL0     H22085   0.693   2.473   0.708 -0.8510 -0.0308  0.7712
  925MOL0     H22086   2.401   3.420   0.919 -0.6593  0.9037 -0.2955
  925MOL0     H22087   2.618   3.554   0.896  1.7462  0.2486 -0.4344
  925MOL0     H22088   2.855   3.876   0.876  0.4784  1.3470 -0.5295
  925MOL0     H22089   3.072   3.989   0.917 -0.7624 -0.6935  0.9974
  925MOL0     H22090   3.291   4.044   0.954 -0.8281 -0.0423 -0.6634
  925MOL0     H22091   3.238   4.083   0.787 -0.9866 -1.8717 -1.1598
  925MOL0     H22092   3.462   4.104   0.716 -1.2762  1.3320  0.6134
  925MOL0     H22093   3.456   4.187   0.872 -0.4553  1.1865 -2.4597
  925MOL0     H22094   3.665   4.044   0.853 -0.4061 -0.6818 -0.3203
  925MOL0     H22095   3.555   3.905   0.835  1.1778  0.6162 -1.0263
  925MOL0     H22096   3.467   3.941   1.058 -1.6766  1.6557 -3.0895
  925MOL0     H22097   3.638   3.905   1.059 -1.6209 -1.4712  2.1953
  925MOL0     H22098   3.650   4.301   1.216  0.2537 -0.5313  1.0752
  925MOL0     H22099   3.273   3.657   0.714 -0.2594  0.9137 -0.9049
  925MOL0     H22100   3.063   3.534   0.716  1.8154  0.3340  1.2610
  926MOL0     O22101   4.136   2.514   5.194 -0.9679 -0.2381 -0.5242
  926MOL0     C22102   4.113   2.632   5.195  0.2418  0.6722  0.0335
  926MOL0     O22103   3.991   2.686   5.148 -0.7085  0.8093 -0.2591
  926MOL0     C22104   3.895   2.588   5.102  0.3809  0.0665  0.3007
  926MOL0     C22105   3.808   2.633   4.998  0.2541 -0.6014 -0.3834
  926MOL0     C22106   3.688   2.563   4.965  0.1869 -0.0432  0.6405
  926MOL0     C22107   3.659   2.435   5.022 -0.0591  0.1458  0.8958
  926MOL0     O22108   3.551   2.365   4.979  0.5880 -0.3580 -0.5469
  926MOL0     C22109   3.507   2.258   5.060 -0.1564  0.1890 -0.2241
  926MOL0     C22110   3.362   2.225   5.013  0.4512 -0.1793 -0.6701
  926MOL0     C22111   3.302   2.097   5.076  0.7107  0.0140  0.2722
  926MOL0     C22112   3.296   2.094   5.228  0.0005 -0.0303 -0.0804
  926MOL0     C22113   3.190   2.188   5.282 -0.1396 -1.0970  0.2373
  926MOL0     C22114   3.173   2.207   5.437 -0.1776 -0.3640 -0.1943
  926MOL0     C22115   3.110   2.076   5.502 -0.2759 -0.7964  0.0578
  926MOL0     C22116   3.088   2.105   5.649 -0.0864  1.1637 -0.1223
  926MOL0     N22117   3.050   1.973   5.707 -0.6547 -0.2167 -0.1095
  926MOL0     C22118   3.146   1.867   5.740 -0.1661 -1.1439 -0.0256
  926MOL0     C22119   3.085   1.778   5.817 -0.9904 -1.1992 -0.4111
  926MOL0     C22120   3.165   1.655   5.851 -0.5211  0.0169  1.7835
  926MOL0     C22121   3.171   1.603   5.986  1.0528  0.4343 -0.5914
  926MOL0     C22122   3.035   1.545   6.037  0.0028  0.1915 -0.5998
  926MOL0     C22123   3.043   1.550   6.195  0.4670 -0.1176 -0.1424
  926MOL0     O22124   2.921   1.501   6.258  0.6067  0.5673 -0.2267
  926MOL0     C22125   2.885   1.373   6.252  0.0024 -0.3200 -0.3525
  926MOL0     C22126   2.963   1.280   6.208 -1.0045  0.3489 -0.0202
  926MOL0     C22127   2.923   1.146   6.206  0.3073  0.2431  0.6559
  926MOL0     C22128   2.781   1.112   6.225  0.0448  0.6351  0.1553
  926MOL0     C22129   2.726   0.979   6.206 -0.5246  0.0908 -0.6851
  926MOL0     O22130   2.615   0.947   6.267  0.4148 -0.2845  0.0226
  926MOL0     C22131   2.563   0.820   6.276  0.2394 -0.0593  0.6035
  926MOL0     C22132   2.629   0.702   6.257  0.4962 -0.3270  0.0173
  926MOL0     C22133   2.558   0.588   6.251  0.0828  0.4856 -0.3463
  926MOL0     C22134   2.420   0.583   6.251  0.0553  0.2512  0.2344
  926MOL0     O22135   2.361   0.461   6.250  0.0587  0.6467  0.0385
  926MOL0     C22136   2.254   0.434   6.159  0.4659  0.1929  0.5971
  926MOL0     C22137   2.189   0.296   6.182 -0.1325  0.2095 -0.6315
  926MOL0     C22138   2.129   0.289   6.323  0.4175 -0.7566  0.4438
  926MOL0     C22139   2.004   0.194   6.332 -0.9828 -0.5251 -0.8503
  926MOL0     C22140   1.897   0.224   6.235  1.1649 -0.6699  0.9875
  926MOL0     C22141   1.763   0.158   6.274 -0.6885  0.2791 -0.6962
  926MOL0     C22142   1.645   0.177   6.181  0.2936  0.3741  1.0335
  926MOL0     C22143   1.525   0.088   6.206  0.7442  0.5332  0.2368
  926MOL0    Cl22144   1.410   0.144   6.337 -0.0473  0.0399  0.3425
  926MOL0     C22145   2.350   0.705   6.262 -0.1151  0.1092  0.3295
  926MOL0     C22146   2.425   0.823   6.274 -0.4344  0.1909  0.2077
  926MOL0     O22147   2.796   0.901   6.137 -0.1137 -0.7021  0.1432
  926MOL0     C22148   2.702   1.220   6.270 -0.4211  0.2825 -0.9791
  926MOL0     C22149   2.754   1.343   6.292  0.4210 -0.4680  0.2922
  926MOL0     N22150   2.957   1.827   5.842 -0.3033 -0.1497 -0.4489
  926MOL0     N22151   2.939   1.945   5.782 -0.7329  0.0240 -0.0938
  926MOL0     C22152   3.752   2.393   5.118 -0.1482 -0.4029 -1.1372
  926MOL0     C22153   3.862   2.467   5.160 -0.5090  0.8679 -0.7411
  926MOL0     C22154   4.214   2.717   5.253 -0.1357  0.2973 -0.3282
  926MOL0     C22155   4.338   2.660   5.307 -0.3047 -0.0797 -0.2127
  926MOL0     C22156   4.437   2.742   5.364 -0.5426  0.0031 -0.5934
  926MOL0     C22157   4.430   2.880   5.357 -1.0390 -0.0556  0.6072
  926MOL0     O22158   4.529   2.967   5.392  0.2245  0.3567 -1.0263
  926MOL0     C22159   4.650   2.927   5.460  0.7692 -0.1053 -0.1403
  926MOL0     C22160   4.750   3.054   5.443  0.0276 -0.9887 -0.1734
  926MOL0     C22161   4.696   3.172   5.527  0.0376 -0.1180  0.3528
  926MOL0     C22162   4.773   3.298   5.508 -0.1242 -0.3600  0.2977
  926MOL0     C22163   4.699   3.414   5.558 -0.7061 -0.4575 -0.0522
  926MOL0     C22164   4.646   3.520   5.588  0.2577  0.4147  1.2170
  926MOL0     C22165   4.319   2.934   5.292 -0.0785  0.3859 -0.1625
  926MOL0     C22166   4.209   2.856   5.243 -0.8061 -0.3930 -0.1462
  926MOL0     H22167   3.835   2.729   4.957  0.0363  0.2766  1.4324
  926MOL0     H22168   3.618   2.608   4.896  2.4440  0.5798 -1.3461
  926MOL0     H22169   3.505   2.293   5.164 -0.6247  0.2250 -0.2425
  926MOL0     H22170   3.568   2.169   5.047 -0.8717 -0.3573  0.1209
  926MOL0     H22171   3.370   2.199   4.907  2.7103 -0.4737 -0.4759
  926MOL0     H22172   3.314   2.321   5.035 -0.5368 -1.4965  3.8702
  926MOL0     H22173   3.365   2.016   5.037 -0.0645 -0.9921  1.0417
  926MOL0     H22174   3.197   2.093   5.047 -0.3245 -0.2758  3.5916
  926MOL0     H22175   3.274   1.992   5.262  1.2096 -0.1494  0.4183
  926MOL0     H22176   3.391   2.113   5.280 -0.9808 -1.0641  2.2176
  926MOL0     H22177   3.094   2.152   5.243  1.4114 -2.7670 -2.3246
  926MOL0     H22178   3.200   2.290   5.244  1.1448  0.0401  3.3606
  926MOL0     H22179   3.123   2.301   5.459 -0.7348 -0.6800 -0.1014
  926MOL0     H22180   3.273   2.228   5.475  0.0586  1.7223 -1.7857
  926MOL0     H22181   3.013   2.052   5.457 -0.4357  0.6572 -0.4239
  926MOL0     H22182   3.178   1.995   5.476 -0.4131 -0.6871 -0.6501
  926MOL0     H22183   3.015   2.182   5.677  0.3759  1.4699  0.2770
  926MOL0     H22184   3.180   2.138   5.699 -1.3224  1.9102  1.7820
  926MOL0     H22185   3.247   1.861   5.702  0.4992 -1.5917  1.7474
  926MOL0     H22186   3.267   1.672   5.816 -1.2843 -1.7975 -1.7227
  926MOL0     H22187   3.133   1.575   5.784 -1.5186  1.7038  0.1533
  926MOL0     H22188   3.203   1.685   6.051  1.9007  0.2613 -0.7849
  926MOL0     H22189   3.250   1.529   5.995  1.1330  0.7219  1.4805
  926MOL0     H22190   2.948   1.596   5.996  1.1812  1.1537 -2.0334
  926MOL0     H22191   3.026   1.443   6.000  2.8386 -1.0235  1.6082
  926MOL0     H22192   3.060   1.657   6.211  3.2021 -0.6817  1.3584
  926MOL0     H22193   3.128   1.493   6.233 -2.0028 -4.7379 -0.8552
  926MOL0     H22194   3.067   1.293   6.181 -0.7790 -1.7555 -0.2692
  926MOL0     H22195   2.992   1.067   6.180  1.4940  1.0485  1.2305
  926MOL0     H22196   2.737   0.690   6.247  0.5109 -0.8210  0.7513
  926MOL0     H22197   2.618   0.498   6.242  3.1120  2.3190  0.1072
  926MOL0     H22198   2.287   0.429   6.055  5.1424 -0.3303  1.8897
  926MOL0     H22199   2.180   0.514   6.171  0.7136  0.0974  3.6246
  926MOL0     H22200   2.256   0.212   6.163  0.2623  0.5838 -0.9130
  926MOL0     H22201   2.115   0.283   6.103 -2.9640  0.7724  1.7508
  926MOL0     H22202   2.100   0.387   6.363  0.2995 -0.2967 -0.7170
  926MOL0     H22203   2.206   0.244   6.386  0.2264 -1.4880  0.1593
  926MOL0     H22204   2.037   0.093   6.308 -0.5397 -0.4688 -0.4803
  926MOL0     H22205   1.961   0.185   6.432 -0.7308  0.5603 -0.6262
  926MOL0     H22206   1.940   0.184   6.142 -1.3076  1.7724 -1.3811
  926MOL0     H22207   1.883   0.329   6.210  0.9766 -1.1460 -1.1362
  926MOL0     H22208   1.733   0.192   6.373  3.3562 -1.0291  1.2244
  926MOL0     H22209   1.770   0.049   6.283  0.3288  0.3367 -0.6110
  926MOL0     H22210   1.618   0.283   6.188 -0.4391  0.1889  1.0955
  926MOL0     H22211   1.683   0.158   6.080 -1.0199  1.5630  0.2676
  926MOL0     H22212   1.556  -0.013   6.233  0.9379  1.1242  2.4284
  926MOL0     H22213   1.463   0.085   6.116  0.0713 -0.3642  0.7120
  926MOL0     H22214   2.244   0.718   6.242  0.2241  0.3921 -1.4242
  926MOL0     H22215   2.371   0.917   6.267 -0.1533  0.2229 -2.6555
  926MOL0     H22216   2.600   1.199   6.300  0.3783  0.9432  2.7105
  926MOL0     H22217   2.695   1.417   6.345 -0.3851 -0.7711 -0.1645
  926MOL0     H22218   3.735   2.293   5.156  0.4258 -0.3138 -0.6297
  926MOL0     H22219   3.916   2.431   5.247  0.4257 -0.4889 -1.8478
  926MOL0     H22220   4.351   2.553   5.313  0.1161  0.0262  0.9710
  926MOL0     H22221   4.533   2.701   5.395 -1.7174 -2.9234 -0.5073
  926MOL0     H22222   4.701   2.846   5.406  1.9238 -0.4138  1.3558
  926MOL0     H22223   4.630   2.906   5.565  0.0050  0.5573 -0.1470
  926MOL0     H22224   4.850   3.036   5.484  1.4012 -0.1932 -2.9225
  926MOL0     H22225   4.768   3.069   5.336 -0.4099 -0.5437 -0.1867
  926MOL0     H22226   4.695   3.135   5.630 -2.2595 -1.4528 -0.0879
  926MOL0     H22227   4.592   3.197   5.507 -0.1418 -0.7473  0.4890
  926MOL0     H22228   4.865   3.293   5.567 -0.9958  1.4090  1.8972
  926MOL0     H22229   4.796   3.304   5.401  0.5725 -2.3539  0.2864
  926MOL0     H22230   4.600   3.615   5.605 -0.7935  0.0417  0.5701
  926MOL0     H22231   4.308   3.042   5.296 -0.0127  0.4991 -2.1554
  926MOL0     H22232   4.133   2.918   5.198 -0.5163  0.3675  0.3718
  927MOL0     O22233   9.286   3.393   9.805  0.2946  0.4121 -0.9910
  927MOL0     C22234   9.206   3.358   9.894  0.4990 -0.2360  0.7441
  927MOL0     O22235   9.224   3.361  10.026  0.1695 -0.2345 -0.0825
  927MOL0     C22236   9.344   3.394  10.074 -1.0742 -0.8612 -0.9311
  927MOL0     C22237   9.364   3.486  10.174  0.1420 -0.1759 -0.2759
  927MOL0     C22238   9.483   3.488  10.249  0.0457  0.0453  1.0282
  927MOL0     C22239   9.581   3.395  10.235  0.6519  0.8837  0.8430
  927MOL0     O22240   9.693   3.400  10.315  0.0808 -0.0970  0.1134
  927MOL0     C22241   9.748   3.269  10.345  0.4418  0.5273 -0.7976
  927MOL0     C22242   9.840   3.270  10.469 -0.9908  0.0940  0.1541
  927MOL0     C22243   9.981   3.329  10.450 -0.3093  0.4589  0.4706
  927MOL0     C22244  10.078   3.297  10.572  0.8563 -0.3378 -0.4766
  927MOL0     C22245  10.213   3.351  10.536 -0.4150  0.2636 -0.6079
  927MOL0     C22246  10.303   3.364  10.652  0.2845 -0.7452 -0.5633
  927MOL0     C22247  10.442   3.407  10.606 -0.5032  0.2380 -0.2928
  927MOL0     C22248  10.547   3.407  10.722 -0.2168 -0.1920 -0.1202
  927MOL0     N22249  10.666   3.480  10.673 -0.6143  0.1311 -0.5087
  927MOL0     C22250  10.775   3.433  10.599  0.4839 -0.2772  0.7634
  927MOL0     C22251  10.872   3.528  10.604  0.2838  0.1326  0.0982
  927MOL0     C22252  10.995   3.533  10.508  0.1836  0.1954 -0.1627
  927MOL0     C22253  11.120   3.614  10.549  1.1512  0.4280  0.1670
  927MOL0     C22254  11.203   3.524  10.638 -0.4854  0.3436 -0.3437
  927MOL0     C22255  11.304   3.589  10.742  0.2032  0.0879  0.5564
  927MOL0     O22256  11.354   3.710  10.687  0.5699  0.3566 -0.8923
  927MOL0     C22257  11.484   3.732  10.692  0.2665  0.4597  0.1961
  927MOL0     C22258  11.531   3.856  10.745  0.1423  0.4861  0.2527
  927MOL0     C22259  11.669   3.882  10.753  0.8235 -0.6184  0.1434
  927MOL0     C22260  11.765   3.793  10.703  0.6981 -0.1506 -0.0949
  927MOL0     C22261  11.911   3.824  10.693  0.4692  1.1603  0.6358
  927MOL0     O22262  11.947   3.912  10.793 -0.3185  0.0655 -0.9555
  927MOL0     C22263  12.083   3.931  10.831  0.6358  0.8720  0.0117
  927MOL0     C22264  12.171   4.001  10.749 -0.6047  0.6525 -0.1150
  927MOL0     C22265  12.306   4.032  10.787  1.2485 -1.1717 -0.0178
  927MOL0     C22266  12.346   3.999  10.913 -0.4666 -0.4888  0.0730
  927MOL0     O22267  12.477   4.018  10.948 -0.0868  0.0128  0.2093
  927MOL0     C22268  12.500   4.134  11.036  0.5064 -0.4595  0.8860
  927MOL0     C22269  12.532   4.248  10.951 -0.0019 -0.0600 -0.4575
  927MOL0     C22270  12.670   4.231  10.889  0.0482  0.5602 -0.2782
  927MOL0     C22271  12.715   4.356  10.826  0.4156  0.5425 -1.0522
  927MOL0     C22272  12.835   4.332  10.735  0.0231 -0.8618 -0.8685
  927MOL0     C22273  12.870   4.458  10.658  1.0194  0.3188  0.3179
  927MOL0     C22274  12.784   4.483  10.527 -0.5839 -0.1573 -0.1738
  927MOL0     C22275  12.815   4.630  10.495 -0.0188 -0.7586 -0.0184
  927MOL0    Cl22276  12.984   4.668  10.475  0.1125 -0.2235 -0.2120
  927MOL0     C22277  12.257   3.933  11.003 -0.3668  0.1249 -0.0272
  927MOL0     C22278  12.125   3.905  10.965 -1.1795  0.2701  0.4632
  927MOL0     O22279  11.996   3.757  10.632  0.9904  0.1488  0.9971
  927MOL0     C22280  11.722   3.675  10.642 -0.3035 -0.2684 -0.2192
  927MOL0     C22281  11.583   3.642  10.643 -0.4549 -1.2777  0.1944
  927MOL0     N22282  10.839   3.611  10.707  0.0122  0.2001 -0.0779
  927MOL0     N22283  10.716   3.592  10.737  0.1514  0.5107  0.1247
  927MOL0     C22284   9.562   3.305  10.125  0.1907 -0.2365  1.1099
  927MOL0     C22285   9.450   3.310  10.042 -0.4058  0.2713  0.5818
  927MOL0     C22286   9.074   3.324   9.832  1.3284 -0.0578 -0.9766
  927MOL0     C22287   9.041   3.366   9.702  0.2218  0.5243 -0.2726
  927MOL0     C22288   8.923   3.335   9.650 -0.3165  0.7149 -0.4456
  927MOL0     C22289   8.831   3.261   9.723 -0.0967  1.3661 -0.1356
  927MOL0     O22290   8.710   3.231   9.662 -0.6168  0.4404  0.0880
  927MOL0     C22291   8.626   3.119   9.711  0.3655  0.9695  0.0923
  927MOL0     C22292   8.504   3.097   9.626 -0.0240  0.0094  0.5086
  927MOL0     C22293   8.420   2.980   9.679 -0.4357 -0.6832  0.2893
  927MOL0     C22294   8.288   2.959   9.588 -0.0356  0.0008 -0.3872
  927MOL0     C22295   8.312   2.957   9.439  0.2889  0.8052 -0.2014
  927MOL0     C22296   8.320   2.948   9.325  0.3240  0.1734  0.5866
  927MOL0     C22297   8.856   3.225   9.851 -0.9135  0.1483 -0.3842
  927MOL0     C22298   8.972   3.266   9.915 -0.5519  0.3165 -0.5694
  927MOL0     H22299   9.280   3.551  10.199  2.0787  1.0049  4.3401
  927MOL0     H22300   9.498   3.567  10.322  2.5724 -0.3251  0.9962
  927MOL0     H22301   9.806   3.223  10.264  0.0097 -1.5165  0.0038
  927MOL0     H22302   9.671   3.198  10.377  0.5505  0.6625 -0.2184
  927MOL0     H22303   9.848   3.170  10.514  1.1099 -0.5882 -1.5555
  927MOL0     H22304   9.787   3.320  10.550  0.5301 -1.0275  1.9204
  927MOL0     H22305   9.978   3.438  10.439 -0.0887  0.5623  1.3078
  927MOL0     H22306  10.028   3.288  10.361  1.3890 -0.1013  1.5711
  927MOL0     H22307  10.051   3.356  10.660  2.3963  0.9499 -0.8139
  927MOL0     H22308  10.071   3.192  10.600  0.6581 -0.1123  0.3417
  927MOL0     H22309  10.199   3.455  10.505  0.8071  0.3569 -0.8935
  927MOL0     H22310  10.258   3.279  10.466 -0.7525 -1.3931  0.8036
  927MOL0     H22311  10.318   3.281  10.721  1.3187 -0.5239 -0.5087
  927MOL0     H22312  10.264   3.444  10.717  0.3673  0.2275 -1.6668
  927MOL0     H22313  10.471   3.330  10.534  1.7976  2.5992 -2.1005
  927MOL0     H22314  10.437   3.502  10.551 -0.9866  1.7529  2.1577
  927MOL0     H22315  10.585   3.312  10.759 -1.1003 -0.8645 -0.9096
  927MOL0     H22316  10.506   3.461  10.808  1.7472 -0.8610  1.3136
  927MOL0     H22317  10.768   3.352  10.527  1.1437 -2.4194  2.9824
  927MOL0     H22318  10.961   3.572  10.411  0.2079  0.0211 -0.2424
  927MOL0     H22319  11.024   3.429  10.488 -1.5029 -0.5014  0.7703
  927MOL0     H22320  11.090   3.698  10.611  2.3097  0.1121  1.1928
  927MOL0     H22321  11.169   3.650  10.457  0.3820 -2.0386 -1.3087
  927MOL0     H22322  11.131   3.470  10.700  0.5450  1.8421  2.3039
  927MOL0     H22323  11.250   3.458  10.564  2.0336  2.1014 -0.4272
  927MOL0     H22324  11.382   3.517  10.768 -0.9934 -0.3739  3.2126
  927MOL0     H22325  11.253   3.606  10.837  1.6758 -0.3558  1.4617
  927MOL0     H22326  11.463   3.927  10.792 -1.4641 -1.3479  0.8695
  927MOL0     H22327  11.695   3.977  10.800  0.0403  0.2298 -1.0928
  927MOL0     H22328  12.135   4.035  10.653 -3.0546 -0.6289  0.2545
  927MOL0     H22329  12.374   4.077  10.715 -1.3112  1.2471 -1.1240
  927MOL0     H22330  12.574   4.097  11.107 -0.1327 -1.1082  1.2363
  927MOL0     H22331  12.407   4.154  11.091 -0.7309  0.8994 -1.5285
  927MOL0     H22332  12.527   4.337  11.015 -0.0538 -2.0815  2.5390
  927MOL0     H22333  12.461   4.248  10.867  1.8014 -2.5856 -2.1593
  927MOL0     H22334  12.672   4.158  10.807  1.2374  1.0197 -0.6753
  927MOL0     H22335  12.734   4.198  10.971  2.1600  2.0676 -1.2324
  927MOL0     H22336  12.629   4.396  10.772 -0.8558 -0.3808  0.2093
  927MOL0     H22337  12.737   4.430  10.903  2.4264 -2.0562  1.0842
  927MOL0     H22338  12.819   4.255  10.659  1.9325  0.9692 -3.3040
  927MOL0     H22339  12.926   4.302  10.788  0.0624  0.9677  0.1411
  927MOL0     H22340  12.978   4.458  10.641  1.0434 -3.0879 -0.2990
  927MOL0     H22341  12.842   4.543  10.721  0.0208  0.5410 -0.4021
  927MOL0     H22342  12.809   4.413  10.447 -3.8448 -1.2380 -0.3673
  927MOL0     H22343  12.680   4.464  10.554 -0.0674 -3.5295 -0.0804
  927MOL0     H22344  12.777   4.706  10.565 -1.5264  0.0644 -1.6281
  927MOL0     H22345  12.771   4.649  10.397 -0.3956 -0.3017  0.2267
  927MOL0     H22346  12.284   3.897  11.102 -2.4688  1.5088  1.1102
  927MOL0     H22347  12.057   3.863  11.038  2.6866  0.9511  4.9566
  927MOL0     H22348  11.787   3.605  10.591 -1.3535 -1.8940  0.5738
  927MOL0     H22349  11.551   3.554  10.589 -0.1120 -0.0829 -2.0561
  927MOL0     H22350   9.637   3.236  10.087 -0.5442 -0.6486  0.3898
  927MOL0     H22351   9.441   3.241   9.959  1.4782  0.3391  0.2885
  927MOL0     H22352   9.119   3.406   9.638  2.3377 -0.3112  1.6500
  927MOL0     H22353   8.916   3.357   9.544 -1.7466 -1.4845 -0.8682
  927MOL0     H22354   8.596   3.145   9.813 -1.0444  1.1715 -0.3536
  927MOL0     H22355   8.693   3.033   9.699  1.4830  1.8534 -0.2378
  927MOL0     H22356   8.427   3.174   9.616 -0.3878 -0.4162 -0.0119
  927MOL0     H22357   8.535   3.072   9.524  0.3893 -0.3289  0.7174
  927MOL0     H22358   8.396   3.003   9.783 -1.8553  0.2686 -0.2147
  927MOL0     H22359   8.479   2.888   9.677 -1.1969 -1.1758  0.0892
  927MOL0     H22360   8.238   2.866   9.617  2.1540 -0.1418  3.6548
  927MOL0     H22361   8.226   3.048   9.605  1.0539  0.3420  2.2713
  927MOL0     H22362   8.331   2.938   9.219  1.4318  0.8841  0.6243
  927MOL0     H22363   8.799   3.148   9.902 -1.0001  0.3589 -0.1593
  927MOL0     H22364   8.984   3.240  10.020  0.0526 -0.3363 -0.7955
  928MOL0     O22365   0.686   0.408   5.161 -0.3589  0.1750  0.0401
  928MOL0     C22366   0.755   0.335   5.240  0.6541 -0.6762  0.1134
  928MOL0     O22367   0.701   0.250   5.335 -0.5871 -0.3485  0.9474
  928MOL0     C22368   0.571   0.249   5.357  0.0864  0.3065  0.0311
  928MOL0     C22369   0.534   0.279   5.484 -0.2009  0.4780 -0.3927
  928MOL0     C22370   0.394   0.288   5.517 -0.2053  0.0927  0.2171
  928MOL0     C22371   0.296   0.261   5.422  1.1612  0.3822  0.4051
  928MOL0     O22372   0.168   0.236   5.469  0.0598  0.1208 -0.2981
  928MOL0     C22373   0.085   0.142   5.391 -0.1403  0.1947 -0.4982
  928MOL0     C22374  -0.060   0.115   5.453  0.1088  0.0991  0.1372
  928MOL0     C22375  -0.159   0.234   5.451 -0.6060  0.3755  0.0790
  928MOL0     C22376  -0.301   0.182   5.473  0.2091  0.2775  0.2044
  928MOL0     C22377  -0.411   0.300   5.462 -0.1062 -0.9090 -0.0437
  928MOL0     C22378  -0.552   0.250   5.485 -0.1473 -0.3109 -0.3369
  928MOL0     C22379  -0.592   0.228   5.633 -0.1449 -0.1656  0.0315
  928MOL0     C22380  -0.735   0.182   5.650  0.4594  0.7870  0.2518
  928MOL0     N22381  -0.842   0.256   5.585  0.1862  0.5896  0.5853
  928MOL0     C22382  -0.883   0.260   5.450 -0.2030 -0.2731 -0.0313
  928MOL0     C22383  -0.985   0.357   5.451 -0.1049 -0.1520 -0.3907
  928MOL0     C22384  -1.072   0.404   5.333  0.5057 -0.6664 -0.9568
  928MOL0     C22385  -1.213   0.356   5.333  0.5645 -0.2662 -0.3903
  928MOL0     C22386  -1.276   0.402   5.208 -0.2095 -0.3934  0.3041
  928MOL0     C22387  -1.403   0.335   5.177  0.9832 -0.0017  0.3358
  928MOL0     O22388  -1.385   0.196   5.180  0.4920  0.4796  0.0994
  928MOL0     C22389  -1.493   0.109   5.195 -0.5041 -0.6059  0.7195
  928MOL0     C22390  -1.451  -0.022   5.201  0.0558 -0.3735 -0.2038
  928MOL0     C22391  -1.540  -0.132   5.194  0.5276 -0.4060 -0.4563
  928MOL0     C22392  -1.681  -0.100   5.188  0.2841  0.2818  0.2737
  928MOL0     C22393  -1.789  -0.203   5.193  0.3115  0.2932  0.2605
  928MOL0     O22394  -1.918  -0.168   5.229 -0.9715 -0.7990 -0.4418
  928MOL0     C22395  -2.023  -0.243   5.195  0.6498  0.3077 -0.3877
  928MOL0     C22396  -2.025  -0.321   5.075 -0.2857  0.1866  0.7204
  928MOL0     C22397  -2.141  -0.386   5.035  0.2118  0.5496 -0.4098
  928MOL0     C22398  -2.250  -0.384   5.122  0.5657  0.4038 -0.2911
  928MOL0     O22399  -2.372  -0.452   5.100  0.2251 -1.0327 -0.1111
  928MOL0     C22400  -2.385  -0.593   5.069 -0.2542  0.0744 -0.2455
  928MOL0     C22401  -2.521  -0.647   5.124  0.6214 -0.2199  0.3331
  928MOL0     C22402  -2.548  -0.647   5.279  0.4342  0.1510 -0.4029
  928MOL0     C22403  -2.686  -0.714   5.313  0.0443 -0.5072 -0.6608
  928MOL0     C22404  -2.714  -0.713   5.465 -0.4431  0.4604 -0.4982
  928MOL0     C22405  -2.845  -0.774   5.498  0.4345 -0.5966 -0.7283
  928MOL0     C22406  -2.863  -0.818   5.644  0.0101 -0.5688  0.1364
  928MOL0     C22407  -2.945  -0.949   5.653  0.8063  0.6456  0.0622
  928MOL0    Cl22408  -3.116  -0.949   5.596  0.2928  0.2974 -0.1060
  928MOL0     C22409  -2.252  -0.295   5.233 -0.2786 -0.0062  0.1873
  928MOL0     C22410  -2.144  -0.224   5.264 -0.5741 -1.1857 -0.0495
  928MOL0     O22411  -1.755  -0.318   5.164 -0.3517  0.1695  0.1069
  928MOL0     C22412  -1.723   0.039   5.199  0.7151 -0.0545 -0.4595
  928MOL0     C22413  -1.630   0.142   5.200 -0.6476  0.6713  0.1563
  928MOL0     N22414  -0.989   0.400   5.583 -0.4238  0.7177 -0.4998
  928MOL0     N22415  -0.899   0.349   5.664  0.2283  0.4011  0.0882
  928MOL0     C22416   0.332   0.238   5.286  0.1500 -0.2745  0.2230
  928MOL0     C22417   0.470   0.224   5.258 -0.3553 -0.5287  0.2289
  928MOL0     C22418   0.905   0.336   5.223 -0.0834 -0.4344  0.1726
  928MOL0     C22419   0.963   0.422   5.129 -0.0968 -0.3253  0.0051
  928MOL0     C22420   1.106   0.438   5.125  0.0979  0.6061  0.2770
  928MOL0     C22421   1.187   0.383   5.226  0.1395 -0.3541  0.6205
  928MOL0     O22422   1.327   0.382   5.224 -0.1050 -0.0984  0.4667
  928MOL0     C22423   1.400   0.472   5.140 -0.3561  0.6117 -0.2087
  928MOL0     C22424   1.551   0.454   5.150  0.6690  0.3295  0.0214
  928MOL0     C22425   1.607   0.478   5.290  0.2182  0.1569 -0.7541
  928MOL0     C22426   1.758   0.483   5.306  0.0395 -0.2309  0.0189
  928MOL0     C22427   1.836   0.561   5.207 -0.0090  0.5234  0.3164
  928MOL0     C22428   1.890   0.626   5.116  0.7983  0.2163  0.1676
  928MOL0     C22429   1.127   0.306   5.325 -0.3625 -0.3308 -0.0491
  928MOL0     C22430   0.988   0.273   5.314 -0.0168 -0.7142 -0.1964
  928MOL0     H22431   0.608   0.275   5.563 -1.1315 -1.8710  0.4683
  928MOL0     H22432   0.371   0.298   5.623  3.0221  1.7509  0.8631
  928MOL0     H22433   0.135   0.046   5.376  0.1639  0.4523 -1.1935
  928MOL0     H22434   0.081   0.183   5.290  1.2037  0.7500 -0.3529
  928MOL0     H22435  -0.043   0.087   5.558  0.9750  0.4705  0.1001
  928MOL0     H22436  -0.082   0.034   5.383 -0.8198  1.1884 -0.8687
  928MOL0     H22437  -0.147   0.273   5.350 -1.8217  1.5431  0.3650
  928MOL0     H22438  -0.134   0.308   5.527 -0.8051 -0.9011  1.4565
  928MOL0     H22439  -0.322   0.104   5.400 -2.1207 -0.6046  1.7099
  928MOL0     H22440  -0.299   0.132   5.570  1.7309 -1.2157 -0.5493
  928MOL0     H22441  -0.404   0.338   5.359  0.0852  0.7591  0.5482
  928MOL0     H22442  -0.384   0.384   5.526 -0.0271 -1.0906  0.1626
  928MOL0     H22443  -0.569   0.157   5.430  3.5223 -0.9168 -0.6704
  928MOL0     H22444  -0.618   0.329   5.448 -2.0865 -0.8367  1.7865
  928MOL0     H22445  -0.525   0.147   5.666 -2.4247 -2.6991 -1.1629
  928MOL0     H22446  -0.567   0.321   5.684 -0.8945  0.1785 -0.2091
  928MOL0     H22447  -0.762   0.174   5.755  2.1611 -0.3643  0.6219
  928MOL0     H22448  -0.738   0.081   5.608 -1.0591  1.1081 -0.5129
  928MOL0     H22449  -0.867   0.189   5.371 -2.0746 -1.5352  0.6640
  928MOL0     H22450  -1.024   0.386   5.236  0.3743  2.0132 -1.5958
  928MOL0     H22451  -1.076   0.513   5.339  3.9380 -0.4442 -0.5764
  928MOL0     H22452  -1.262   0.402   5.419 -0.5613  1.5014 -1.8806
  928MOL0     H22453  -1.211   0.248   5.349  0.6386  0.0537  2.0396
  928MOL0     H22454  -1.290   0.510   5.214  0.9097 -0.2328  0.1643
  928MOL0     H22455  -1.215   0.368   5.124 -2.0897  1.3589 -1.9012
  928MOL0     H22456  -1.444   0.360   5.078  2.1301 -1.1253 -0.4549
  928MOL0     H22457  -1.464   0.370   5.260  1.6936  1.4641  0.2553
  928MOL0     H22458  -1.344  -0.038   5.212  0.7052  1.1342 -3.3145
  928MOL0     H22459  -1.489  -0.228   5.200  2.8876  0.8077  0.1544
  928MOL0     H22460  -1.937  -0.332   5.013  0.0782 -0.5458  1.3494
  928MOL0     H22461  -2.153  -0.441   4.942  0.2234 -3.2967  1.6231
  928MOL0     H22462  -2.295  -0.634   5.116  2.8623  1.9625 -3.9576
  928MOL0     H22463  -2.384  -0.621   4.963 -1.0008 -1.9842  0.2622
  928MOL0     H22464  -2.546  -0.740   5.073  0.4211  0.0211 -0.0089
  928MOL0     H22465  -2.595  -0.583   5.076  0.9201 -1.7412 -2.3636
  928MOL0     H22466  -2.530  -0.543   5.306 -0.6508  0.4756 -0.8772
  928MOL0     H22467  -2.471  -0.700   5.336  0.6193 -0.6779 -1.3803
  928MOL0     H22468  -2.762  -0.657   5.259  1.3823  0.9959 -1.0564
  928MOL0     H22469  -2.693  -0.817   5.278  2.4811 -0.4828 -1.3919
  928MOL0     H22470  -2.693  -0.616   5.510 -1.2309  1.9556 -3.1121
  928MOL0     H22471  -2.637  -0.784   5.497 -0.0255 -0.4459 -3.2415
  928MOL0     H22472  -2.849  -0.868   5.443 -1.8222 -0.5478 -0.7246
  928MOL0     H22473  -2.925  -0.708   5.465  0.4008  0.5213  1.4092
  928MOL0     H22474  -2.765  -0.830   5.691  1.3911  5.0040 -0.6046
  928MOL0     H22475  -2.906  -0.731   5.695  3.2085  1.8358 -0.9602
  928MOL0     H22476  -2.938  -0.988   5.755 -1.2825  2.3260  0.9159
  928MOL0     H22477  -2.900  -1.021   5.585 -2.7187  2.6300 -5.0038
  928MOL0     H22478  -2.343  -0.289   5.292  0.9768  1.2100  2.1005
  928MOL0     H22479  -2.132  -0.152   5.345 -1.4331 -0.2879 -0.6876
  928MOL0     H22480  -1.828   0.065   5.211  0.6877 -0.7771  1.1358
  928MOL0     H22481  -1.660   0.247   5.205  0.1300  1.0547 -2.0098
  928MOL0     H22482   0.257   0.216   5.211  0.1048  0.2099  0.1258
  928MOL0     H22483   0.491   0.215   5.152  0.2068  1.7489  0.1030
  928MOL0     H22484   0.897   0.480   5.066 -0.3348  0.8054  1.2381
  928MOL0     H22485   1.148   0.479   5.034  0.3895 -0.0578  0.1051
  928MOL0     H22486   1.370   0.574   5.167  4.2124  1.4337  3.0055
  928MOL0     H22487   1.356   0.452   5.042  0.2945 -2.2689 -0.0052
  928MOL0     H22488   1.563   0.355   5.106 -1.9241 -0.2549  0.5119
  928MOL0     H22489   1.598   0.527   5.082  0.7904 -0.3536 -0.6473
  928MOL0     H22490   1.568   0.398   5.353 -0.0074  0.5246 -0.4197
  928MOL0     H22491   1.562   0.568   5.332 -5.1055 -2.2319 -0.5912
  928MOL0     H22492   1.777   0.526   5.404 -2.8454 -1.6743  1.3301
  928MOL0     H22493   1.793   0.380   5.318 -0.4900 -0.2117  2.1694
  928MOL0     H22494   1.953   0.690   5.057 -1.9877  1.4495 -1.6382
  928MOL0     H22495   1.185   0.276   5.411 -2.4153  3.1867  2.8422
  928MOL0     H22496   0.943   0.206   5.387 -5.2166  2.5262  0.0740
  929MOL0     O22497   9.324   0.152  10.889  0.0673  0.1615 -0.3749
  929MOL0     C22498   9.396   0.192  10.981 -0.2828  0.3315 -0.1313
  929MOL0     O22499   9.365   0.290  11.067 -0.2624 -0.4114 -0.1490
  929MOL0     C22500   9.260   0.378  11.056 -0.1252 -0.1870  1.0603
  929MOL0     C22501   9.188   0.409  10.941  0.2097  0.2403 -0.1566
  929MOL0     C22502   9.086   0.493  10.932  0.9719 -0.3831 -0.1567
  929MOL0     C22503   9.042   0.555  11.048  0.3077  0.0641 -0.9272
  929MOL0     O22504   8.947   0.652  11.039 -0.0809  0.0507  0.2597
  929MOL0     C22505   8.846   0.635  11.138 -0.4107 -0.1386 -0.0312
  929MOL0     C22506   8.736   0.736  11.122 -1.0293 -0.2068 -0.0356
  929MOL0     C22507   8.661   0.745  11.259  0.1936 -0.1154  0.0004
  929MOL0     C22508   8.555   0.631  11.277 -0.3323  0.0035 -0.2366
  929MOL0     C22509   8.529   0.644  11.425 -0.4523 -0.7961 -0.2152
  929MOL0     C22510   8.387   0.584  11.449  0.2031 -0.1917 -0.8785
  929MOL0     C22511   8.337   0.633  11.601  0.6940  0.1598  1.0940
  929MOL0     C22512   8.218   0.547  11.643  0.7330 -0.6085 -0.4802
  929MOL0     N22513   8.098   0.554  11.567  0.3025 -0.0762  0.4698
  929MOL0     C22514   8.070   0.470  11.467  0.7121  0.0968 -0.4545
  929MOL0     C22515   7.974   0.532  11.392  0.0208  0.9061  0.3296
  929MOL0     C22516   7.919   0.481  11.260 -0.6803 -0.0820 -0.4953
  929MOL0     C22517   7.819   0.369  11.277  0.2377  0.2378  0.2714
  929MOL0     C22518   7.867   0.224  11.283  0.6599 -0.2277 -0.1084
  929MOL0     C22519   7.749   0.146  11.346  0.3512  0.4169 -0.2974
  929MOL0     O22520   7.642   0.132  11.254  0.1652  0.4241  0.0175
  929MOL0     C22521   7.511   0.108  11.287  0.2631 -0.0738  0.1366
  929MOL0     C22522   7.415   0.086  11.184  1.1012 -0.1746 -0.1307
  929MOL0     C22523   7.288   0.041  11.216 -0.6116  1.1565 -0.5497
  929MOL0     C22524   7.244   0.029  11.351 -0.2780 -0.6404 -0.1179
  929MOL0     C22525   7.107  -0.028  11.385  0.0498 -1.1901 -0.6066
  929MOL0     O22526   7.024  -0.054  11.279 -0.3835 -0.0136  0.2021
  929MOL0     C22527   6.889  -0.086  11.302 -0.2844 -0.1567  0.3203
  929MOL0     C22528   6.809  -0.024  11.399  0.2024 -0.2327  0.6268
  929MOL0     C22529   6.672  -0.046  11.407 -0.1084  0.5347  0.7965
  929MOL0     C22530   6.620  -0.161  11.338  0.3300 -0.1423 -0.0858
  929MOL0     O22531   6.486  -0.170  11.361  0.5335 -0.0770  0.4549
  929MOL0     C22532   6.422  -0.292  11.304  0.0655 -0.9039 -0.3680
  929MOL0     C22533   6.273  -0.283  11.334  0.8596  0.5659 -0.1732
  929MOL0     C22534   6.208  -0.141  11.333  0.1770  0.3506 -0.4063
  929MOL0     C22535   6.051  -0.143  11.372  0.0842 -0.2256 -0.7525
  929MOL0     C22536   6.005  -0.002  11.397  0.2004 -0.5958 -0.3016
  929MOL0     C22537   5.853  -0.011  11.448 -0.0010 -0.4257  1.2585
  929MOL0     C22538   5.809   0.122  11.513  0.0456 -0.1611  0.2737
  929MOL0     C22539   5.705   0.114  11.619  0.8420 -0.3856  0.5628
  929MOL0    Cl22540   5.548   0.070  11.538  0.1692 -0.0375 -0.0012
  929MOL0     C22541   6.697  -0.221  11.240  0.1858 -0.1421 -1.0670
  929MOL0     C22542   6.827  -0.182  11.220  0.2881 -0.4229  0.2877
  929MOL0     O22543   7.085  -0.053  11.503 -0.1758 -0.0141 -0.0953
  929MOL0     C22544   7.335   0.057  11.449 -0.5992 -0.5578  0.0509
  929MOL0     C22545   7.464   0.086  11.415 -0.2652 -0.8384  0.0796
  929MOL0     N22546   7.950   0.653  11.450  0.3660 -0.3680  0.0410
  929MOL0     N22547   8.014   0.668  11.558 -0.4217  0.3900  0.2016
  929MOL0     C22548   9.107   0.526  11.172 -0.2775 -0.0374  0.7630
  929MOL0     C22549   9.213   0.437  11.171 -0.3030  0.5317 -0.2707
  929MOL0     C22550   9.526   0.127  10.984 -0.0405  0.1733  0.1906
  929MOL0     C22551   9.559   0.022  10.894 -0.4019 -0.8010  0.4496
  929MOL0     C22552   9.676  -0.042  10.902  0.4944  0.0522  0.2184
  929MOL0     C22553   9.761  -0.020  11.018 -0.1578 -0.1591  0.1373
  929MOL0     O22554   9.869  -0.100  11.050 -0.4300 -1.1689  0.1991
  929MOL0     C22555   9.923  -0.192  10.949 -0.0356 -0.5902  0.4723
  929MOL0     C22556  10.049  -0.252  11.017  0.3657  0.3922 -0.1192
  929MOL0     C22557  10.077  -0.386  10.962  0.1645 -0.7269  0.7086
  929MOL0     C22558  10.100  -0.399  10.810 -0.4597  0.0699  0.1043
  929MOL0     C22559  10.131  -0.535  10.773 -0.4820  0.4982  0.7264
  929MOL0     C22560  10.152  -0.654  10.752  0.2197  1.9080 -0.5547
  929MOL0     C22561   9.730   0.080  11.103  0.2177  0.0654 -0.1181
  929MOL0     C22562   9.617   0.154  11.090  0.2308  0.3357  0.8520
  929MOL0     H22563   9.215   0.360  10.848 -1.6308 -0.0481 -0.5836
  929MOL0     H22564   9.040   0.514  10.836  2.5491  1.5140 -0.5630
  929MOL0     H22565   8.884   0.637  11.241 -1.2070  0.1551  0.2692
  929MOL0     H22566   8.814   0.533  11.117 -1.6408 -0.1375  1.6011
  929MOL0     H22567   8.671   0.702  11.041 -2.0292 -0.2445  0.7650
  929MOL0     H22568   8.773   0.838  11.113 -0.2428 -0.4499  0.3616
  929MOL0     H22569   8.610   0.842  11.251 -0.4597 -0.5407 -1.3641
  929MOL0     H22570   8.729   0.754  11.344 -0.1582 -2.7941  0.6310
  929MOL0     H22571   8.463   0.651  11.220 -0.8804  3.0250  1.4635
  929MOL0     H22572   8.592   0.532  11.250  1.4931  0.7470 -0.6227
  929MOL0     H22573   8.522   0.749  11.457  1.9971 -0.5915 -0.2183
  929MOL0     H22574   8.603   0.594  11.487 -0.3480 -0.8438 -0.3757
  929MOL0     H22575   8.376   0.476  11.433  0.5345 -0.1994 -1.0551
  929MOL0     H22576   8.317   0.620  11.373  1.3908  1.9828 -1.0130
  929MOL0     H22577   8.417   0.628  11.675  1.8557 -3.1185 -0.1775
  929MOL0     H22578   8.290   0.731  11.597 -1.7136 -0.9310  0.9149
  929MOL0     H22579   8.187   0.566  11.746 -0.7629 -0.8483 -0.8577
  929MOL0     H22580   8.245   0.441  11.644  2.3079 -0.2823 -2.2692
  929MOL0     H22581   8.121   0.375  11.461  1.4385  0.2374  2.3507
  929MOL0     H22582   8.013   0.455  11.211  1.5409 -0.2928  3.4798
  929MOL0     H22583   7.874   0.570  11.215  0.4188 -0.1201 -1.7240
  929MOL0     H22584   7.765   0.366  11.182  1.5984 -0.8859 -0.5011
  929MOL0     H22585   7.739   0.386  11.351 -0.4152 -1.1208 -0.0787
  929MOL0     H22586   7.901   0.189  11.185 -1.1775  0.3094 -0.9900
  929MOL0     H22587   7.950   0.212  11.353  1.8092 -1.4612 -1.6071
  929MOL0     H22588   7.714   0.185  11.442 -3.2421 -1.9035 -0.5004
  929MOL0     H22589   7.774   0.042  11.368 -1.6935  0.1331  0.8847
  929MOL0     H22590   7.456   0.095  11.084 -1.8090  3.4284 -1.2199
  929MOL0     H22591   7.224   0.018  11.131 -0.2239  1.7698 -1.0181
  929MOL0     H22592   6.860   0.054  11.455 -0.5069  0.0767  0.8448
  929MOL0     H22593   6.605   0.005  11.475 -0.4941  0.7938  0.2298
  929MOL0     H22594   6.474  -0.374  11.354  2.8853  2.1768  2.2405
  929MOL0     H22595   6.451  -0.301  11.199  2.7467  1.0830  0.0875
  929MOL0     H22596   6.256  -0.326  11.433  3.6739 -3.0211 -1.0238
  929MOL0     H22597   6.231  -0.360  11.268  1.3715 -0.8639  1.1104
  929MOL0     H22598   6.218  -0.103  11.231  1.3594  0.0849 -0.4087
  929MOL0     H22599   6.265  -0.073  11.397 -0.2465  0.9801 -0.6926
  929MOL0     H22600   5.988  -0.195  11.300  0.2816 -0.7687 -0.5346
  929MOL0     H22601   6.042  -0.196  11.467  1.5936 -1.4427 -1.2561
  929MOL0     H22602   6.006   0.064  11.310 -2.2473 -0.6318 -0.4311
  929MOL0     H22603   6.067   0.037  11.478 -1.9462  2.8248 -0.1286
  929MOL0     H22604   5.849  -0.094  11.518 -2.4099 -3.0404 -1.6853
  929MOL0     H22605   5.784  -0.046  11.371 -1.4942 -0.6227  2.6297
  929MOL0     H22606   5.892   0.162  11.572 -0.2622  2.1389 -0.7484
  929MOL0     H22607   5.774   0.197  11.441 -1.1076  0.0129  0.9794
  929MOL0     H22608   5.679   0.206  11.673 -0.9561 -1.1181  1.0194
  929MOL0     H22609   5.731   0.025  11.677  3.2074 -0.1087  0.0289
  929MOL0     H22610   6.656  -0.296  11.173  0.2060 -0.2080 -1.0052
  929MOL0     H22611   6.892  -0.235  11.151  2.1853 -0.9890  2.3761
  929MOL0     H22612   7.294   0.055  11.550 -2.4414 -1.1788 -0.6727
  929MOL0     H22613   7.540   0.103  11.491 -0.4741  1.1562 -0.1180
  929MOL0     H22614   9.070   0.568  11.265 -1.2545 -1.7678  1.1903
  929MOL0     H22615   9.254   0.410  11.268 -0.9746  0.2040 -0.0786
  929MOL0     H22616   9.479  -0.008  10.827 -1.1282  0.8435  0.5388
  929MOL0     H22617   9.700  -0.119  10.829 -2.4634 -0.4050 -0.4039
  929MOL0     H22618   9.949  -0.154  10.850 -0.4731 -0.7140  0.3081
  929MOL0     H22619   9.842  -0.261  10.922 -0.4177 -0.6284  1.6637
  929MOL0     H22620  10.126  -0.176  11.002 -0.2164  1.4337  1.7667
  929MOL0     H22621  10.034  -0.256  11.126 -1.9098 -0.7632 -0.4081
  929MOL0     H22622   9.993  -0.450  10.990  0.6685 -0.6791  2.4436
  929MOL0     H22623  10.167  -0.419  11.014  1.5419  2.5317  0.6547
  929MOL0     H22624  10.002  -0.383  10.762  0.6515  1.7843 -1.7874
  929MOL0     H22625  10.178  -0.344  10.756 -1.0453 -0.4131 -1.2968
  929MOL0     H22626  10.169  -0.759  10.765 -3.2653  1.0804 -1.7645
  929MOL0     H22627   9.793   0.105  11.188  0.5483  3.0217 -1.1251
  929MOL0     H22628   9.569   0.229  11.153 -2.0304 -0.0259 -0.3408
  930MOL0     O22629   7.215   5.221   5.475  0.0417 -0.6139  0.2147
  930MOL0     C22630   7.240   5.251   5.597  0.3144 -0.2106  0.8514
  930MOL0     O22631   7.150   5.290   5.687  0.0983  0.1457  0.7357
  930MOL0     C22632   7.022   5.317   5.638  0.8263 -0.2559 -0.3845
  930MOL0     C22633   6.911   5.262   5.702  0.5684  0.4447  0.2035
  930MOL0     C22634   6.775   5.289   5.657 -0.4719  0.9649  0.8607
  930MOL0     C22635   6.762   5.370   5.539  0.2639  0.1773 -0.2597
  930MOL0     O22636   6.633   5.368   5.485 -0.2784  0.4147  0.1328
  930MOL0     C22637   6.583   5.491   5.425 -0.2222  0.0231 -0.7085
  930MOL0     C22638   6.426   5.503   5.425  0.0486 -0.2670  0.5505
  930MOL0     C22639   6.364   5.380   5.345 -0.0670  0.2904 -0.4946
  930MOL0     C22640   6.208   5.378   5.354  0.2880 -0.0781  1.0863
  930MOL0     C22641   6.154   5.267   5.272  0.1783  0.0530  0.4158
  930MOL0     C22642   6.006   5.240   5.311  0.5454  0.1003  0.0845
  930MOL0     C22643   5.911   5.362   5.271  0.0074  0.7344 -0.4929
  930MOL0     C22644   5.789   5.366   5.353 -0.4439  0.5677  0.4212
  930MOL0     N22645   5.687   5.454   5.301 -0.2073  0.3290 -0.6564
  930MOL0     C22646   5.676   5.588   5.330  0.5094 -0.5899 -0.1674
  930MOL0     C22647   5.571   5.634   5.255 -0.2830 -0.2986  0.7657
  930MOL0     C22648   5.517   5.777   5.261 -0.7633 -0.3948  0.3459
  930MOL0     C22649   5.427   5.780   5.387 -0.3109  0.2344 -0.6847
  930MOL0     C22650   5.320   5.669   5.376 -0.4727 -0.4754 -0.6384
  930MOL0     C22651   5.193   5.687   5.474 -0.4381 -1.0313  0.6649
  930MOL0     O22652   5.104   5.789   5.427  0.5462 -0.0142  0.2057
  930MOL0     C22653   4.969   5.795   5.445  0.4941 -0.1005 -0.0852
  930MOL0     C22654   4.895   5.834   5.324 -0.4852 -0.6162 -0.0454
  930MOL0     C22655   4.753   5.845   5.347 -0.5489 -0.6504  0.3322
  930MOL0     C22656   4.696   5.813   5.474 -0.1306  0.4903  0.7889
  930MOL0     C22657   4.545   5.830   5.498  0.2600  0.0328  0.7889
  930MOL0     O22658   4.471   5.883   5.395  0.4844 -0.5806  0.2511
  930MOL0     C22659   4.336   5.882   5.402  0.2639 -0.2549  0.6161
  930MOL0     C22660   4.273   5.755   5.414 -0.3347 -0.1137 -0.3649
  930MOL0     C22661   4.137   5.746   5.419 -0.7242 -0.8936  0.3604
  930MOL0     C22662   4.060   5.859   5.409 -0.2885  0.2165 -0.1543
  930MOL0     O22663   3.929   5.837   5.422 -0.3738  0.1374  0.0125
  930MOL0     C22664   3.838   5.955   5.413 -0.2362  0.1502 -0.3978
  930MOL0     C22665   3.706   5.887   5.406 -0.5428  0.1331 -0.4392
  930MOL0     C22666   3.607   5.984   5.455 -0.5487 -1.1250 -0.7192
  930MOL0     C22667   3.461   5.923   5.461 -0.1083 -0.7622 -0.3813
  930MOL0     C22668   3.354   6.036   5.493  0.1576  0.1618  0.0343
  930MOL0     C22669   3.216   5.983   5.487  0.5335  0.4223 -0.7655
  930MOL0     C22670   3.121   6.099   5.511 -0.5260  0.4545  0.5658
  930MOL0     C22671   2.984   6.045   5.555  0.0963  0.0122  0.5249
  930MOL0    Cl22672   2.991   5.941   5.702 -0.0455  0.0230 -0.0588
  930MOL0     C22673   4.120   5.984   5.388 -0.3655  0.5077 -0.7176
  930MOL0     C22674   4.256   6.001   5.394  0.2352 -0.0921  0.4967
  930MOL0     O22675   4.495   5.803   5.609 -0.3096 -0.2149  0.0063
  930MOL0     C22676   4.773   5.771   5.581  0.5458 -0.1440  0.5242
  930MOL0     C22677   4.906   5.763   5.562 -0.5484 -0.3518 -0.3065
  930MOL0     N22678   5.539   5.530   5.172  0.2239  0.2601 -0.2393
  930MOL0     N22679   5.603   5.420   5.195 -0.1593  0.1279 -0.0718
  930MOL0     C22680   6.870   5.443   5.489 -0.0073 -0.5327  0.1842
  930MOL0     C22681   6.992   5.419   5.548  0.0968  0.2996 -0.8108
  930MOL0     C22682   7.376   5.222   5.662 -0.1949  0.4964 -0.0177
  930MOL0     C22683   7.461   5.328   5.704  1.0016  0.3347 -1.7032
  930MOL0     C22684   7.584   5.290   5.749 -0.8569 -0.5448 -0.4473
  930MOL0     C22685   7.630   5.159   5.739 -0.4773 -0.7773  0.0928
  930MOL0     O22686   7.768   5.136   5.767  0.9367 -0.8759  0.8309
  930MOL0     C22687   7.805   5.006   5.814 -0.6050  0.9134 -0.4078
  930MOL0     C22688   7.961   5.012   5.828  0.1486 -0.0703 -0.0583
  930MOL0     C22689   8.017   4.879   5.865  1.7158 -0.1465 -0.2532
  930MOL0     C22690   8.159   4.895   5.916 -0.7095  0.5949  0.7723
  930MOL0     C22691   8.253   4.916   5.803  1.3901  1.0495 -0.0912
  930MOL0     C22692   8.318   4.920   5.702 -0.1161 -0.0602  0.6420
  930MOL0     C22693   7.548   5.056   5.706 -0.7343  0.3823  0.4711
  930MOL0     C22694   7.419   5.087   5.655 -0.8407 -0.0659  0.4323
  930MOL0     H22695   6.924   5.193   5.784 -1.7201  1.2860  1.3703
  930MOL0     H22696   6.694   5.225   5.690  0.3712 -1.8401 -1.9536
  930MOL0     H22697   6.628   5.492   5.325  0.3442  1.8745 -0.4712
  930MOL0     H22698   6.614   5.579   5.483 -0.3679 -0.6761  0.4642
  930MOL0     H22699   6.391   5.590   5.368  0.6107  0.6424  1.5660
  930MOL0     H22700   6.391   5.504   5.528  1.1747 -1.4296  0.9700
  930MOL0     H22701   6.403   5.287   5.390 -0.4003  0.8661  1.0638
  930MOL0     H22702   6.393   5.386   5.240  1.3459  3.1668 -0.0252
  930MOL0     H22703   6.182   5.373   5.460  2.5034 -0.7038  1.6516
  930MOL0     H22704   6.173   5.474   5.315  0.7745 -0.5419 -0.5535
  930MOL0     H22705   6.213   5.176   5.288 -1.4067 -0.8488  1.4410
  930MOL0     H22706   6.169   5.277   5.164  1.3842 -0.8325  0.4803
  930MOL0     H22707   6.013   5.232   5.420 -0.7841  1.9633  0.3467
  930MOL0     H22708   5.973   5.149   5.259 -3.0271  0.6688  1.1076
  930MOL0     H22709   5.968   5.455   5.270  3.2605 -1.0923 -0.8454
  930MOL0     H22710   5.882   5.354   5.165  3.2106  0.7712 -1.4843
  930MOL0     H22711   5.819   5.403   5.451  1.5117 -2.7280  1.2120
  930MOL0     H22712   5.762   5.261   5.358  0.3100  0.3451 -0.0537
  930MOL0     H22713   5.733   5.646   5.402 -1.0275 -0.9882  1.4272
  930MOL0     H22714   5.462   5.806   5.171  0.5170 -0.1870 -0.3931
  930MOL0     H22715   5.601   5.846   5.269  0.4693 -1.5633 -1.5795
  930MOL0     H22716   5.381   5.879   5.397 -1.4402 -0.1716 -1.6723
  930MOL0     H22717   5.490   5.782   5.476 -0.7761  0.3207 -0.3553
  930MOL0     H22718   5.268   5.669   5.279 -2.1750 -1.6865  0.2039
  930MOL0     H22719   5.373   5.575   5.396  1.4667  0.7666  0.2499
  930MOL0     H22720   5.227   5.716   5.574  0.1510 -0.6621  0.3587
  930MOL0     H22721   5.134   5.595   5.483  0.1943 -1.4776  0.2702
  930MOL0     H22722   4.935   5.851   5.224  0.4579 -1.4572  0.1816
  930MOL0     H22723   4.689   5.870   5.263 -1.8813  0.0095  1.5131
  930MOL0     H22724   4.330   5.664   5.427 -0.7844 -0.0577  2.5264
  930MOL0     H22725   4.081   5.655   5.439 -2.0132 -0.7735 -2.3686
  930MOL0     H22726   3.846   6.028   5.332 -2.5813  2.1672  1.0186
  930MOL0     H22727   3.845   6.023   5.499  0.7015 -0.1275 -0.2440
  930MOL0     H22728   3.698   5.802   5.474  2.0836 -0.5986 -0.9344
  930MOL0     H22729   3.683   5.853   5.305  1.8837 -0.1468 -0.9529
  930MOL0     H22730   3.609   6.073   5.391  2.0597 -1.4246 -1.1945
  930MOL0     H22731   3.627   6.019   5.557 -0.4972 -2.8157 -0.1161
  930MOL0     H22732   3.440   5.882   5.362  0.3871 -0.2899 -0.6894
  930MOL0     H22733   3.459   5.841   5.534 -0.1107  0.4856  1.0838
  930MOL0     H22734   3.356   6.114   5.417  1.4693  1.5015  1.3897
  930MOL0     H22735   3.379   6.070   5.594  1.7579  0.6324 -0.4956
  930MOL0     H22736   3.206   5.910   5.568 -2.3750  2.6331  1.0662
  930MOL0     H22737   3.192   5.926   5.396  0.1076 -0.8990  0.1336
  930MOL0     H22738   3.158   6.155   5.597 -2.4766 -0.3783  2.0203
  930MOL0     H22739   3.115   6.162   5.421  2.2128 -0.6470 -0.4998
  930MOL0     H22740   2.934   5.986   5.478  1.0255  1.5884 -1.3814
  930MOL0     H22741   2.921   6.134   5.566 -2.9796 -1.8392 -0.7371
  930MOL0     H22742   4.061   6.075   5.382  1.3198  1.6728 -0.7126
  930MOL0     H22743   4.307   6.096   5.389 -0.3579  0.3371  1.9735
  930MOL0     H22744   4.724   5.760   5.677 -1.1812  1.2395 -0.1519
  930MOL0     H22745   4.961   5.719   5.645  4.3006  2.8184 -1.3912
  930MOL0     H22746   6.852   5.511   5.406  1.4891  2.6768  2.2390
  930MOL0     H22747   7.081   5.470   5.511  1.2895 -0.9131  0.2426
  930MOL0     H22748   7.423   5.429   5.708 -2.0874 -0.7454 -1.1348
  930MOL0     H22749   7.654   5.371   5.768 -3.0043  1.2272  0.3784
  930MOL0     H22750   7.773   4.923   5.751  1.8311  0.4425 -1.1420
  930MOL0     H22751   7.753   4.990   5.908  1.9945 -1.2599  0.8127
  930MOL0     H22752   8.004   5.047   5.734  0.9837 -1.0931 -0.0797
  930MOL0     H22753   7.991   5.084   5.905 -1.6655  0.7126 -0.0414
  930MOL0     H22754   8.006   4.823   5.772  2.0909  0.1252 -0.4631
  930MOL0     H22755   7.948   4.838   5.940  0.4842  2.5050  0.1713
  930MOL0     H22756   8.168   4.978   5.986 -0.9636 -0.8058  2.5402
  930MOL0     H22757   8.191   4.811   5.978 -0.3795  2.3936  3.1387
  930MOL0     H22758   8.383   4.924   5.618  0.8115 -1.3921  1.2572
  930MOL0     H22759   7.578   4.952   5.700  2.0210  1.0411  1.2203
  930MOL0     H22760   7.357   5.006   5.617 -0.7528  0.2985 -0.5024
  931MOL0     O22761   2.501   9.883   6.565 -0.4636 -0.5088  0.6027
  931MOL0     C22762   2.582   9.853   6.475  0.5621  0.1975 -0.0536
  931MOL0     O22763   2.544   9.796   6.355 -1.0134  0.4064  0.2517
  931MOL0     C22764   2.407   9.759   6.360 -0.7808 -0.1649 -0.5498
  931MOL0     C22765   2.304   9.835   6.304 -1.3250 -0.1161  0.3001
  931MOL0     C22766   2.170   9.797   6.307 -0.0104 -0.8506 -0.3619
  931MOL0     C22767   2.130   9.683   6.367  0.1630  0.4076 -0.0227
  931MOL0     O22768   1.991   9.668   6.371  0.2187 -0.1152  0.5228
  931MOL0     C22769   1.937   9.533   6.331  0.7772  0.5346  0.5388
  931MOL0     C22770   1.790   9.531   6.318 -0.5548 -0.3309 -0.1392
  931MOL0     C22771   1.759   9.615   6.198 -0.2248  0.1223  1.0959
  931MOL0     C22772   1.615   9.614   6.155  0.0987  0.6595  0.2418
  931MOL0     C22773   1.530   9.687   6.250 -0.4850 -0.3763 -0.5728
  931MOL0     C22774   1.551   9.830   6.277 -0.1098  0.7353  0.1254
  931MOL0     C22775   1.433   9.892   6.357  0.0255  0.7530  0.0872
  931MOL0     C22776   1.436   9.862   6.505  0.2319 -0.5332 -0.7907
  931MOL0     N22777   1.316   9.923   6.564 -0.3926  0.2898 -1.2431
  931MOL0     C22778   1.310  10.059   6.606 -0.1125  0.7062 -0.5895
  931MOL0     C22779   1.182  10.075   6.657 -0.2074 -0.4525 -0.7956
  931MOL0     C22780   1.121  10.210   6.691  0.8635  1.2349  0.4056
  931MOL0     C22781   1.100  10.230   6.836  0.0896 -0.9602 -0.8310
  931MOL0     C22782   1.030  10.368   6.856 -0.1456 -0.8009 -0.1010
  931MOL0     C22783   0.929  10.361   6.973 -0.0239  0.2125  0.4124
  931MOL0     O22784   0.818  10.275   6.929 -0.3949 -0.1267  0.3926
  931MOL0     C22785   0.725  10.239   7.022 -1.0180 -0.4396  0.0598
  931MOL0     C22786   0.623  10.167   6.973  0.1409 -0.5345  0.2949
  931MOL0     C22787   0.512  10.133   7.051 -1.3900  0.0459  0.2892
  931MOL0     C22788   0.502  10.159   7.186  0.2000 -0.1864  0.1615
  931MOL0     C22789   0.384  10.131   7.272 -0.5700 -0.5674 -0.2808
  931MOL0     O22790   0.302  10.035   7.214 -0.0870 -0.1005 -0.6165
  931MOL0     C22791   0.190  10.001   7.281  0.7170  0.6885 -0.7478
  931MOL0     C22792   0.211   9.912   7.384  0.7623  0.0571 -1.0283
  931MOL0     C22793   0.110   9.865   7.463 -0.1742  0.5931 -0.0787
  931MOL0     C22794  -0.028   9.890   7.432 -0.7373  0.8620 -0.2006
  931MOL0     O22795  -0.122   9.824   7.499  0.4606  0.0751 -0.5460
  931MOL0     C22796  -0.257   9.878   7.499  0.1732  0.5129  0.5663
  931MOL0     C22797  -0.334   9.781   7.588 -0.0665 -0.4067  0.3761
  931MOL0     C22798  -0.460   9.840   7.635  0.1652  0.1423 -0.9001
  931MOL0     C22799  -0.533   9.750   7.733  0.1736 -0.7310 -0.7587
  931MOL0     C22800  -0.659   9.810   7.799  0.4284  0.0401 -0.3563
  931MOL0     C22801  -0.770   9.844   7.703  0.3233  0.6208  0.1482
  931MOL0     C22802  -0.894   9.908   7.772  1.0622  0.5647 -0.4475
  931MOL0     C22803  -1.018   9.942   7.673 -0.2683 -0.0079  0.1943
  931MOL0    Cl22804  -1.155   9.972   7.783  0.0602  0.2133  0.4713
  931MOL0     C22805  -0.046  10.001   7.347 -0.2252 -0.0555 -0.2567
  931MOL0     C22806   0.056  10.046   7.265 -0.5583  0.3606  1.5177
  931MOL0     O22807   0.367  10.195   7.379 -0.2595 -0.2427  0.3430
  931MOL0     C22808   0.617  10.221   7.252 -0.1943  0.7225 -0.2067
  931MOL0     C22809   0.723  10.262   7.170 -0.8225 -0.2317  0.2066
  931MOL0     N22810   1.123   9.950   6.653  0.4381  0.0039  0.1658
  931MOL0     N22811   1.201   9.859   6.597  0.5105 -0.2346  0.1072
  931MOL0     C22812   2.219   9.602   6.440  0.0663 -0.3449 -0.4205
  931MOL0     C22813   2.360   9.645   6.430 -0.0971  0.1649  0.0300
  931MOL0     C22814   2.725   9.863   6.497 -0.5268 -0.6500  0.8753
  931MOL0     C22815   2.769   9.873   6.632 -1.4514 -0.3436  0.8150
  931MOL0     C22816   2.908   9.886   6.656 -0.0078  0.4523 -0.5784
  931MOL0     C22817   2.999   9.895   6.557 -0.0921  0.0324 -0.3784
  931MOL0     O22818   3.126   9.944   6.594  0.4246 -0.0042 -0.7282
  931MOL0     C22819   3.235   9.924   6.502  0.0213 -0.1612 -0.5994
  931MOL0     C22820   3.374   9.981   6.562 -0.1556  0.8193 -0.6666
  931MOL0     C22821   3.486   9.963   6.465  1.0842  0.3549  1.1516
  931MOL0     C22822   3.615   9.997   6.537  0.7677  0.2902 -0.0189
  931MOL0     C22823   3.679   9.887   6.621  0.7987  0.2559 -0.3014
  931MOL0     C22824   3.707   9.795   6.686 -0.1791  0.7511  0.3992
  931MOL0     C22825   2.955   9.873   6.426  0.1363  0.0137 -0.6435
  931MOL0     C22826   2.817   9.863   6.398  0.1193  0.2227 -0.2807
  931MOL0     H22827   2.349   9.924   6.260  0.0779 -1.1726 -0.5022
  931MOL0     H22828   2.096   9.855   6.253 -0.0498 -1.5168 -1.0548
  931MOL0     H22829   1.956   9.466   6.415 -1.7777  1.2647  1.8038
  931MOL0     H22830   1.990   9.486   6.248 -0.1053 -2.3110  1.4762
  931MOL0     H22831   1.741   9.557   6.412 -1.4791 -1.2078 -0.3614
  931MOL0     H22832   1.753   9.430   6.298 -1.0735 -0.7374  2.5402
  931MOL0     H22833   1.813   9.558   6.122 -0.4119 -2.1473  2.5753
  931MOL0     H22834   1.796   9.717   6.211  0.0925  0.3129 -1.0262
  931MOL0     H22835   1.602   9.675   6.066 -2.1038  1.7214  1.2155
  931MOL0     H22836   1.567   9.516   6.148 -1.6309  1.2973  2.1051
  931MOL0     H22837   1.534   9.639   6.348  0.2058  0.6989 -0.0525
  931MOL0     H22838   1.426   9.670   6.220 -0.6691 -0.6093  0.1933
  931MOL0     H22839   1.550   9.886   6.183  0.8914 -1.2846 -1.1552
  931MOL0     H22840   1.647   9.850   6.325 -0.0815  0.9007  0.0049
  931MOL0     H22841   1.432  10.000   6.345  0.5892  0.7312 -0.1639
  931MOL0     H22842   1.344   9.858   6.302  0.6581  0.1498 -0.5838
  931MOL0     H22843   1.520   9.920   6.544 -0.6959  0.3216 -0.0071
  931MOL0     H22844   1.448   9.755   6.524 -1.3658 -0.5337  0.4254
  931MOL0     H22845   1.396  10.124   6.604  0.7986 -0.2946  2.0056
  931MOL0     H22846   1.026  10.219   6.637 -1.0315  3.0360  3.6840
  931MOL0     H22847   1.183  10.288   6.646 -0.0925  1.3253 -0.7984
  931MOL0     H22848   1.198  10.233   6.886  1.4874  1.1159 -3.4113
  931MOL0     H22849   1.046  10.144   6.875  0.2368 -0.4512  0.5406
  931MOL0     H22850   1.108  10.439   6.886 -1.7729  1.2100 -0.3957
  931MOL0     H22851   0.970  10.394   6.768  0.9041 -3.0215 -1.5740
  931MOL0     H22852   0.891  10.457   7.009  0.2512  1.7359 -2.9946
  931MOL0     H22853   0.976  10.303   7.053 -2.1527 -0.4205  1.2880
  931MOL0     H22854   0.621  10.136   6.869  0.4096 -1.8549  0.6667
  931MOL0     H22855   0.427  10.088   7.000  0.2301 -0.2156 -2.3701
  931MOL0     H22856   0.313   9.879   7.403  0.4048 -0.1358  0.8005
  931MOL0     H22857   0.133   9.790   7.539 -2.5377  0.7479  0.8832
  931MOL0     H22858  -0.294   9.878   7.396 -0.4491  2.6364  0.7470
  931MOL0     H22859  -0.258   9.982   7.530  0.5936  0.5085  0.6044
  931MOL0     H22860  -0.281   9.755   7.680 -3.4905 -2.4920  1.9628
  931MOL0     H22861  -0.356   9.689   7.533 -1.3715 -0.3350  0.7584
  931MOL0     H22862  -0.531   9.856   7.553  1.6028 -0.9261 -2.4177
  931MOL0     H22863  -0.439   9.938   7.679  2.5286 -1.6191  2.2295
  931MOL0     H22864  -0.562   9.660   7.679  2.0622 -1.4563 -0.6448
  931MOL0     H22865  -0.459   9.734   7.813  0.8332  1.1575 -0.9412
  931MOL0     H22866  -0.639   9.897   7.861 -6.2029  1.3729  0.6888
  931MOL0     H22867  -0.708   9.734   7.861  0.6471 -0.9900 -1.3924
  931MOL0     H22868  -0.801   9.754   7.649 -2.7399  2.3800 -1.2933
  931MOL0     H22869  -0.729   9.918   7.634 -1.0585  0.0079 -1.4040
  931MOL0     H22870  -0.929   9.842   7.852  1.2013  2.2185  1.0466
  931MOL0     H22871  -0.867  10.002   7.820 -1.6327  1.7350 -1.0025
  931MOL0     H22872  -1.042   9.864   7.600  0.0249  0.9948 -1.0034
  931MOL0     H22873  -0.984  10.031   7.620  2.3687  0.1068  1.9070
  931MOL0     H22874  -0.140  10.050   7.323 -0.5624  1.8653  3.9799
  931MOL0     H22875   0.029  10.103   7.176  1.2766 -0.2727  0.4850
  931MOL0     H22876   0.634  10.240   7.358  1.4625 -4.3863  0.7212
  931MOL0     H22877   0.812  10.307   7.215 -0.6971 -0.0609 -0.2125
  931MOL0     H22878   2.179   9.514   6.489 -0.0683  0.0657  0.2167
  931MOL0     H22879   2.417   9.573   6.488 -0.2994 -0.8081 -0.9427
  931MOL0     H22880   2.704   9.853   6.716  0.0106 -1.3231  1.7853
  931MOL0     H22881   2.948   9.913   6.753 -0.9959  3.0612 -0.8022
  931MOL0     H22882   3.200   9.981   6.415  0.7962 -0.3279 -1.0298
  931MOL0     H22883   3.246   9.820   6.471  0.9043 -0.2966  0.1164
  931MOL0     H22884   3.360  10.084   6.596 -0.1035  1.6970 -3.0869
  931MOL0     H22885   3.394   9.919   6.650  0.6958  1.0644 -0.6756
  931MOL0     H22886   3.469  10.026   6.377 -2.7643 -1.1735  0.6301
  931MOL0     H22887   3.507   9.862   6.427 -1.1529  0.9247 -1.9822
  931MOL0     H22888   3.690  10.029   6.464  2.0285 -2.6974 -0.1563
  931MOL0     H22889   3.608  10.086   6.601  3.9595  1.8403 -1.5486
  931MOL0     H22890   3.742   9.710   6.742 -0.5823  0.1376 -0.2725
  931MOL0     H22891   3.027   9.871   6.345 -1.4872  3.1238 -2.3709
  931MOL0     H22892   2.778   9.858   6.297 -2.6633  1.7816  0.6121
  932MOL0     O22893  10.355   7.715   1.851 -0.1405  0.6730  0.2992
  932MOL0     C22894  10.390   7.812   1.913 -0.1639  0.0667 -0.1356
  932MOL0     O22895  10.315   7.916   1.956  0.1203 -0.5322  0.6947
  932MOL0     C22896  10.180   7.903   1.949 -0.5513 -0.2925 -0.2846
  932MOL0     C22897  10.115   7.784   1.976 -0.3486  0.3800 -0.3613
  932MOL0     C22898   9.974   7.780   1.976 -0.1510  0.8782 -0.5590
  932MOL0     C22899   9.899   7.898   1.969  0.1011 -0.3038  0.5092
  932MOL0     O22900   9.762   7.893   1.992 -0.0626 -0.0477  0.5625
  932MOL0     C22901   9.686   8.011   1.987  0.2974 -0.2389 -0.9509
  932MOL0     C22902   9.530   7.976   2.002  0.1077  0.0053  0.4432
  932MOL0     C22903   9.433   8.099   1.990  0.9617  0.0854 -0.3736
  932MOL0     C22904   9.299   8.044   2.027 -0.9753  0.6207 -0.5469
  932MOL0     C22905   9.196   8.157   2.006 -0.1642 -0.0898 -0.6072
  932MOL0     C22906   9.053   8.112   2.026  0.5789  0.1526  0.2983
  932MOL0     C22907   9.028   8.088   2.173 -0.5174 -0.7144  0.0191
  932MOL0     C22908   8.898   8.013   2.195  0.4493  0.1176 -0.5175
  932MOL0     N22909   8.780   8.099   2.164 -0.1816 -0.0810  0.6286
  932MOL0     C22910   8.676   8.107   2.251 -0.4713 -0.4239  0.3402
  932MOL0     C22911   8.567   8.153   2.179  0.3233  0.0152 -0.2428
  932MOL0     C22912   8.434   8.207   2.235 -0.5231  0.3609 -0.0153
  932MOL0     C22913   8.349   8.098   2.292 -0.0159 -0.3064 -0.1108
  932MOL0     C22914   8.406   8.032   2.417 -0.2711 -0.3962  0.0438
  932MOL0     C22915   8.294   7.965   2.494 -0.6004  0.6455 -0.4590
  932MOL0     O22916   8.193   8.060   2.533  0.7566  0.6752 -0.2525
  932MOL0     C22917   8.100   8.008   2.632  0.5160  0.5653  0.4918
  932MOL0     C22918   8.086   7.875   2.694  0.4687  0.0370  0.5344
  932MOL0     C22919   7.974   7.841   2.780  1.2490  0.3972  0.5208
  932MOL0     C22920   7.869   7.938   2.794 -0.1498 -0.4952 -0.1664
  932MOL0     C22921   7.756   7.896   2.874  0.2852  1.1206 -0.3344
  932MOL0     O22922   7.682   7.994   2.936  1.0368  0.3991 -0.1358
  932MOL0     C22923   7.581   7.954   3.019 -1.1014 -1.0651  0.0407
  932MOL0     C22924   7.590   7.858   3.120  0.2550 -0.6802  0.3473
  932MOL0     C22925   7.471   7.814   3.189 -0.4986 -0.2881  0.4764
  932MOL0     C22926   7.349   7.871   3.163 -0.2512 -1.0697  0.1844
  932MOL0     O22927   7.234   7.824   3.230 -0.2926  1.1230 -0.0985
  932MOL0     C22928   7.114   7.851   3.166  0.7024 -0.3514 -0.0969
  932MOL0     C22929   6.995   7.769   3.221 -0.9762 -0.3610 -0.5299
  932MOL0     C22930   6.981   7.770   3.374 -0.2929 -0.1867  0.4976
  932MOL0     C22931   6.865   7.680   3.426 -0.4063 -0.4116  0.3235
  932MOL0     C22932   6.811   7.715   3.573 -0.1036  0.1908  0.0667
  932MOL0     C22933   6.894   7.641   3.688 -0.8733  1.4043 -0.4562
  932MOL0     C22934   6.899   7.481   3.694 -0.5273  0.2555 -0.5923
  932MOL0     C22935   6.999   7.442   3.797 -1.4549 -0.0029  0.1641
  932MOL0    Cl22936   6.974   7.272   3.816 -0.0209 -0.1817  0.0436
  932MOL0     C22937   7.351   7.988   3.075 -0.2102  0.7337  0.0953
  932MOL0     C22938   7.466   8.022   3.006  1.0337 -0.4413 -0.3666
  932MOL0     O22939   7.740   7.772   2.885 -0.1371 -0.6624  0.1620
  932MOL0     C22940   7.887   8.067   2.737  0.0237  0.4684  0.3907
  932MOL0     C22941   7.996   8.095   2.666 -0.3594  0.2560  0.6057
  932MOL0     N22942   8.605   8.154   2.049 -0.6684 -0.4304 -0.7486
  932MOL0     N22943   8.731   8.131   2.041 -0.6446  0.0130 -0.1886
  932MOL0     C22944   9.973   8.012   1.951  0.1443  0.1630 -0.0052
  932MOL0     C22945  10.108   8.023   1.932 -0.0216  0.6360 -0.7853
  932MOL0     C22946  10.545   7.838   1.923  0.5058  0.4425 -0.3979
  932MOL0     C22947  10.594   7.960   1.975  0.9882 -0.0052 -0.1659
  932MOL0     C22948  10.727   7.978   1.989 -0.3393 -0.6298 -0.5101
  932MOL0     C22949  10.818   7.886   1.952 -0.4124  0.2065 -0.4323
  932MOL0     O22950  10.955   7.902   1.977 -0.3315  0.3010 -0.3306
  932MOL0     C22951  11.007   8.016   1.910 -0.4681 -0.9094  0.6923
  932MOL0     C22952  11.162   8.013   1.874  0.0059  0.5990  0.4716
  932MOL0     C22953  11.210   7.924   1.759  0.4572  0.4512  0.7047
  932MOL0     C22954  11.362   7.930   1.739  0.4471 -1.1176 -0.6121
  932MOL0     C22955  11.436   7.902   1.862 -0.8744 -0.3228  0.7165
  932MOL0     C22956  11.500   7.888   1.966  0.6604 -0.2998 -0.1246
  932MOL0     C22957  10.773   7.762   1.911 -0.2002  0.1956  0.9921
  932MOL0     C22958  10.638   7.737   1.899 -0.0757  0.3232  0.2072
  932MOL0     H22959  10.163   7.690   2.000 -0.2577  1.1898  3.0295
  932MOL0     H22960   9.926   7.688   2.007 -0.2795  0.7559 -1.1103
  932MOL0     H22961   9.694   8.068   1.893  0.0540  0.5267 -0.5159
  932MOL0     H22962   9.720   8.070   2.072  1.1031 -2.6847  0.5222
  932MOL0     H22963   9.523   7.924   2.098 -0.1576 -1.9660 -0.5988
  932MOL0     H22964   9.502   7.898   1.931  1.0184 -1.7752  1.9399
  932MOL0     H22965   9.430   8.143   1.890  0.2140  3.0595  0.8629
  932MOL0     H22966   9.465   8.184   2.050  3.3491 -0.5642 -0.6257
  932MOL0     H22967   9.285   7.951   1.971 -2.0382  1.4469 -1.7346
  932MOL0     H22968   9.310   8.026   2.134 -0.3068 -1.6858 -0.9462
  932MOL0     H22969   9.199   8.197   1.904  0.7831  2.5189  0.3612
  932MOL0     H22970   9.209   8.249   2.064 -0.3258  0.9639 -2.1454
  932MOL0     H22971   9.045   8.015   1.975  0.6671  1.0066 -1.4142
  932MOL0     H22972   8.978   8.179   1.982  2.6186  0.6454 -2.7396
  932MOL0     H22973   9.112   8.029   2.209 -0.6820 -0.2938  1.1417
  932MOL0     H22974   9.029   8.183   2.227  0.6748 -1.3454  1.1560
  932MOL0     H22975   8.890   7.992   2.302 -2.3721  0.6316 -0.5254
  932MOL0     H22976   8.878   7.920   2.141 -1.4990  1.5033 -2.3695
  932MOL0     H22977   8.679   8.104   2.360 -1.4730 -0.9266  0.3620
  932MOL0     H22978   8.393   8.260   2.149 -1.8856  2.6240  1.9083
  932MOL0     H22979   8.450   8.283   2.313  2.3954  0.8327 -0.9727
  932MOL0     H22980   8.324   8.024   2.215  0.0856 -0.0674 -0.3729
  932MOL0     H22981   8.260   8.150   2.329  0.0403 -0.3832  0.1364
  932MOL0     H22982   8.483   7.966   2.377  2.7660  3.6708 -1.6007
  932MOL0     H22983   8.451   8.109   2.481 -0.7264  0.2986 -0.4499
  932MOL0     H22984   8.338   7.906   2.575  0.8830  0.1283 -1.6045
  932MOL0     H22985   8.266   7.887   2.422  0.6530 -1.0389  0.7879
  932MOL0     H22986   8.160   7.801   2.667 -0.5798 -0.3320 -1.4629
  932MOL0     H22987   7.962   7.740   2.818 -1.2358  1.1876  2.0817
  932MOL0     H22988   7.689   7.817   3.136 -0.0745 -1.2317  1.0015
  932MOL0     H22989   7.472   7.732   3.260  1.0156 -1.8698 -1.2563
  932MOL0     H22990   7.116   7.842   3.057 -0.4954 -1.6205 -0.0341
  932MOL0     H22991   7.092   7.956   3.188  1.6506 -0.4589  1.5601
  932MOL0     H22992   7.020   7.666   3.192 -0.1373 -0.3618  0.1401
  932MOL0     H22993   6.900   7.797   3.177  0.2834  1.0749 -2.4697
  932MOL0     H22994   6.956   7.874   3.399  1.3478 -0.1060  2.0720
  932MOL0     H22995   7.078   7.748   3.419 -1.1435 -0.3769  2.3515
  932MOL0     H22996   6.774   7.689   3.367  0.2144 -2.0654 -0.9576
  932MOL0     H22997   6.899   7.576   3.438  1.1451  0.3772  4.5851
  932MOL0     H22998   6.704   7.698   3.588 -0.5406 -1.4168 -3.6922
  932MOL0     H22999   6.820   7.823   3.589 -1.3598  0.9214 -3.2596
  932MOL0     H23000   6.859   7.680   3.785 -1.2311 -0.0103  0.0048
  932MOL0     H23001   6.999   7.669   3.672 -0.0838 -2.4372 -3.5368
  932MOL0     H23002   6.802   7.434   3.712 -0.5077  0.8898  1.3375
  932MOL0     H23003   6.937   7.441   3.599 -0.3227  1.7591 -1.1829
  932MOL0     H23004   6.985   7.498   3.890  0.9788  2.0884 -0.6352
  932MOL0     H23005   7.098   7.460   3.754 -1.9740 -1.0382 -1.5761
  932MOL0     H23006   7.262   8.050   3.062 -1.1854 -1.1427 -4.0634
  932MOL0     H23007   7.449   8.102   2.935 -0.3823  1.9342  2.4066
  932MOL0     H23008   7.813   8.144   2.753 -0.6542 -0.1513  0.2667
  932MOL0     H23009   8.003   8.191   2.615 -3.3042  0.9230  1.2303
  932MOL0     H23010   9.916   8.105   1.953 -0.9530 -0.4632 -1.0109
  932MOL0     H23011  10.150   8.121   1.913  0.2281  0.3349 -1.9039
  932MOL0     H23012  10.521   8.033   2.009  0.9253 -0.4762  0.7588
  932MOL0     H23013  10.770   8.071   2.026  0.1953 -0.9352 -0.3480
  932MOL0     H23014  11.005   8.103   1.977  1.5024  1.2509 -1.8191
  932MOL0     H23015  10.950   8.039   1.820  0.4635 -0.9747  0.0736
  932MOL0     H23016  11.207   8.112   1.861 -0.3169  0.6825 -0.0331
  932MOL0     H23017  11.204   7.971   1.966  1.3431 -0.3495 -0.5389
  932MOL0     H23018  11.172   7.965   1.665  2.6315 -0.6040 -0.7009
  932MOL0     H23019  11.170   7.824   1.777  1.4524 -0.8188 -3.2744
  932MOL0     H23020  11.391   7.854   1.666 -1.2640 -2.1701 -0.2430
  932MOL0     H23021  11.381   8.033   1.706 -0.4984 -0.1061  1.7739
  932MOL0     H23022  11.544   7.892   2.063  0.4432 -1.5631  0.0482
  932MOL0     H23023  10.849   7.687   1.892 -0.5970 -0.0795  0.4541
  932MOL0     H23024  10.619   7.643   1.847 -0.7206  0.0948  0.8407
  933MOL0     O23025   0.728  10.297   6.342 -0.2571 -0.1674  0.6334
  933MOL0     C23026   0.783  10.208   6.412  0.2995  0.8277  0.4707
  933MOL0     O23027   0.917  10.176   6.412 -0.4824  0.6518 -0.3551
  933MOL0     C23028   1.014  10.237   6.334 -0.0943  0.2134  0.0854
  933MOL0     C23029   1.010  10.355   6.264 -0.3562 -0.2963 -0.2933
  933MOL0     C23030   1.111  10.405   6.183 -0.7400 -0.2970  0.1120
  933MOL0     C23031   1.234  10.337   6.182  0.5924 -0.0890 -0.0716
  933MOL0     O23032   1.342  10.367   6.104 -0.1554  0.3591  0.7968
  933MOL0     C23033   1.316  10.410   5.974  0.1667 -0.6254  0.2086
  933MOL0     C23034   1.441  10.460   5.899 -0.1798  0.1444  0.2103
  933MOL0     C23035   1.516  10.581   5.972 -0.2149  0.7381 -0.2867
  933MOL0     C23036   1.639  10.629   5.889  0.3284  0.3297 -0.9234
  933MOL0     C23037   1.594  10.701   5.760 -0.6017 -0.4184 -0.0426
  933MOL0     C23038   1.531  10.846   5.785  0.8551 -0.3430 -0.2319
  933MOL0     C23039   1.631  10.944   5.853  0.2749  0.7551  0.7861
  933MOL0     C23040   1.589  11.091   5.832  0.1897 -0.9590  0.2729
  933MOL0     N23041   1.448  11.113   5.878 -0.1316 -0.7091 -0.2075
  933MOL0     C23042   1.392  11.073   6.007  0.1921 -0.6038  0.7650
  933MOL0     C23043   1.293  11.153   6.024 -0.5471  0.8975 -0.2637
  933MOL0     C23044   1.206  11.137   6.146 -0.1551 -0.0403  0.4767
  933MOL0     C23045   1.106  11.256   6.163 -0.8552  0.0994  0.8138
  933MOL0     C23046   1.071  11.286   6.318  0.5498 -0.2381  0.1952
  933MOL0     C23047   1.033  11.163   6.402  0.0950  0.6241  0.1944
  933MOL0     O23048   0.961  11.208   6.516 -0.2387  0.0574 -0.3820
  933MOL0     C23049   0.817  11.213   6.505 -0.3937 -0.3300 -0.6765
  933MOL0     C23050   0.751  11.321   6.456 -0.2265 -0.3611  0.0253
  933MOL0     C23051   0.611  11.313   6.425  0.1160  0.1958 -0.3961
  933MOL0     C23052   0.545  11.194   6.437  0.4330 -0.2109  0.9289
  933MOL0     C23053   0.395  11.176   6.425  0.7126  0.9620  0.3229
  933MOL0     O23054   0.327  11.292   6.403 -0.5848  0.2782 -0.1326
  933MOL0     C23055   0.191  11.296   6.373  0.2366 -1.1820  0.2558
  933MOL0     C23056   0.112  11.372   6.457  0.4529 -0.4509  0.0035
  933MOL0     C23057  -0.028  11.367   6.440  0.1939  0.6780  0.8269
  933MOL0     C23058  -0.087  11.304   6.332  0.5780 -0.4304 -0.4761
  933MOL0     O23059  -0.225  11.302   6.320 -0.2604  0.7038  0.0354
  933MOL0     C23060  -0.289  11.185   6.264 -0.4212  0.8916  0.5717
  933MOL0     C23061  -0.436  11.230   6.254 -0.3576 -0.2105 -0.8448
  933MOL0     C23062  -0.509  11.202   6.384  0.1506 -0.4167  0.0693
  933MOL0     C23063  -0.654  11.244   6.360  0.3042  0.2848  0.0588
  933MOL0     C23064  -0.735  11.269   6.486  0.6394 -0.2606  0.5790
  933MOL0     C23065  -0.885  11.279   6.450 -0.3200 -0.2145  0.0308
  933MOL0     C23066  -0.967  11.313   6.577  0.3779 -0.2367  0.3831
  933MOL0     C23067  -1.114  11.291   6.542  0.3352  0.2969 -0.3521
  933MOL0    Cl23068  -1.210  11.323   6.692  0.1911 -0.0756  0.4564
  933MOL0     C23069   0.000  11.239   6.242  0.2350  0.2582 -0.1425
  933MOL0     C23070   0.141  11.234   6.265  1.0037 -0.2562 -0.5682
  933MOL0     O23071   0.351  11.061   6.413 -0.6353  0.3245  0.6758
  933MOL0     C23072   0.623  11.082   6.482 -0.4381  0.6893 -0.1441
  933MOL0     C23073   0.761  11.093   6.517 -0.9449 -0.0001  0.3109
  933MOL0     N23074   1.290  11.253   5.929  0.8692 -0.1741  0.2431
  933MOL0     N23075   1.377  11.225   5.842 -0.0578 -0.5637  1.4399
  933MOL0     C23076   1.242  10.220   6.247 -0.5544  0.1690  0.2904
  933MOL0     C23077   1.132  10.159   6.314 -0.1528  0.5279  0.9106
  933MOL0     C23078   0.708  10.128   6.503  0.2161 -0.8733  0.1121
  933MOL0     C23079   0.570  10.113   6.470 -0.1956  0.3187 -0.5164
  933MOL0     C23080   0.497  10.019   6.545  0.2335  0.7244 -0.8855
  933MOL0     C23081   0.550   9.943   6.654 -0.8595  0.7970 -0.0049
  933MOL0     O23082   0.472   9.856   6.722  0.3671 -0.2772 -0.2874
  933MOL0     C23083   0.519   9.784   6.837 -0.9890  0.2419  0.3927
  933MOL0     C23084   0.439   9.669   6.891 -0.2818 -0.2405  0.8116
  933MOL0     C23085   0.302   9.716   6.920  0.0776  0.4316 -0.3849
  933MOL0     C23086   0.237   9.645   7.042  0.2638  0.9808  0.2504
  933MOL0     C23087   0.099   9.696   7.067  0.1473 -0.0006 -0.7281
  933MOL0     C23088  -0.007   9.751   7.096  0.1924 -0.3932  0.0698
  933MOL0     C23089   0.687   9.953   6.679 -0.0740  0.1484  0.7547
  933MOL0     C23090   0.760  10.042   6.604 -0.6035 -0.8113  0.2385
  933MOL0     H23091   0.920  10.412   6.285 -0.9314 -1.0995 -0.5421
  933MOL0     H23092   1.091  10.499   6.131 -1.1030 -0.1780  0.4644
  933MOL0     H23093   1.239  10.487   5.976 -0.4791 -0.9048 -4.2075
  933MOL0     H23094   1.277  10.324   5.917  0.8206 -0.4478 -0.5194
  933MOL0     H23095   1.406  10.484   5.798 -0.1049  0.9578  0.3726
  933MOL0     H23096   1.509  10.375   5.896 -0.2077 -0.0181  2.5046
  933MOL0     H23097   1.556  10.535   6.063  1.6788  0.2789 -1.2778
  933MOL0     H23098   1.444  10.658   5.998 -0.7166 -0.1606  1.0805
  933MOL0     H23099   1.703  10.699   5.944  3.3630 -1.1461 -2.3245
  933MOL0     H23100   1.705  10.545   5.865 -0.9746 -0.1840 -3.0102
  933MOL0     H23101   1.527  10.629   5.712 -1.6402  1.4134 -1.4441
  933MOL0     H23102   1.677  10.716   5.691  0.4881 -1.6900  0.9086
  933MOL0     H23103   1.442  10.831   5.848 -1.2269  0.4208 -2.8021
  933MOL0     H23104   1.503  10.882   5.686  0.5653 -3.3278 -1.3377
  933MOL0     H23105   1.634  10.924   5.961 -1.2454  0.7639  0.8485
  933MOL0     H23106   1.732  10.921   5.819 -0.3994 -0.6520 -0.4136
  933MOL0     H23107   1.610  11.107   5.726  1.6640 -0.2901  0.6364
  933MOL0     H23108   1.655  11.150   5.897 -0.4194 -0.2016  0.2071
  933MOL0     H23109   1.424  10.997   6.079 -1.8004 -2.6962 -0.4120
  933MOL0     H23110   1.260  11.143   6.240  0.4348  2.8388  0.0499
  933MOL0     H23111   1.159  11.038   6.148  1.8068 -1.0005  2.2977
  933MOL0     H23112   1.006  11.243   6.118 -0.2903  0.6747 -0.6877
  933MOL0     H23113   1.155  11.346   6.126 -4.5117  2.1776  0.4767
  933MOL0     H23114   1.154  11.334   6.370 -1.1942  2.4642  0.6982
  933MOL0     H23115   0.990  11.360   6.324  0.1496 -0.3387 -2.5489
  933MOL0     H23116   1.120  11.111   6.444 -1.9161 -2.1573  1.2225
  933MOL0     H23117   0.975  11.097   6.338 -1.8496  0.8314  1.6340
  933MOL0     H23118   0.805  11.410   6.424 -1.0739 -0.4322 -1.6933
  933MOL0     H23119   0.562  11.399   6.380 -0.8449 -0.8839 -1.4916
  933MOL0     H23120   0.152  11.431   6.539  1.7166 -0.3439 -0.6636
  933MOL0     H23121  -0.088  11.411   6.519 -0.3979 -2.2034  2.0957
  933MOL0     H23122  -0.280  11.100   6.332  0.4195  1.2705  0.9486
  933MOL0     H23123  -0.262  11.157   6.161 -2.2312  0.7677  0.1000
  933MOL0     H23124  -0.487  11.180   6.171 -0.3061 -2.1181  0.2156
  933MOL0     H23125  -0.437  11.337   6.230 -1.0976 -0.3587 -1.5134
  933MOL0     H23126  -0.471  11.263   6.466 -2.1189  3.0919 -1.2834
  933MOL0     H23127  -0.495  11.096   6.407 -2.4133 -0.5068  1.4395
  933MOL0     H23128  -0.666  11.330   6.294 -1.0714 -1.6317 -2.3324
  933MOL0     H23129  -0.695  11.156   6.310  0.9943 -1.6947  2.7060
  933MOL0     H23130  -0.700  11.366   6.524  1.3341  0.5058 -1.8394
  933MOL0     H23131  -0.727  11.189   6.561  2.0546  2.2176  3.2894
  933MOL0     H23132  -0.923  11.184   6.412  2.8940 -1.0132 -1.5790
  933MOL0     H23133  -0.896  11.358   6.375  2.0878  1.0610  0.9089
  933MOL0     H23134  -0.941  11.241   6.656 -2.6475 -1.9196 -0.0118
  933MOL0     H23135  -0.942  11.412   6.615  1.2806 -0.3493  0.1283
  933MOL0     H23136  -1.127  11.192   6.496  1.2884  0.0497 -0.1146
  933MOL0     H23137  -1.151  11.363   6.470 -1.4135  0.2777  0.4613
  933MOL0     H23138  -0.028  11.192   6.148 -0.8641  1.3789 -0.3927
  933MOL0     H23139   0.206  11.171   6.205  1.3444 -0.6978  0.2479
  933MOL0     H23140   0.583  10.983   6.502  1.5609 -0.0128  0.6275
  933MOL0     H23141   0.831  11.012   6.537 -1.8720 -0.8739  0.0664
  933MOL0     H23142   1.336  10.168   6.230 -2.8039 -3.5028 -2.8681
  933MOL0     H23143   1.149  10.059   6.354  0.1297  0.0351 -0.3813
  933MOL0     H23144   0.524  10.158   6.383 -0.3345 -1.2011 -1.2613
  933MOL0     H23145   0.392   9.997   6.524 -0.0693  0.8838  0.4002
  933MOL0     H23146   0.535   9.858   6.917 -3.0858  0.2206  0.8775
  933MOL0     H23147   0.615   9.735   6.820 -1.3133 -1.9399  3.7972
  933MOL0     H23148   0.439   9.600   6.806  1.9825  1.9280 -1.1079
  933MOL0     H23149   0.498   9.627   6.973 -0.6232 -0.2039  1.0782
  933MOL0     H23150   0.228   9.707   6.840 -0.6447  0.5056  0.2606
  933MOL0     H23151   0.299   9.821   6.951 -0.6567  0.2480  0.1906
  933MOL0     H23152   0.241   9.537   7.031  2.5084  0.9466  0.8326
  933MOL0     H23153   0.293   9.684   7.128 -0.5530  1.2974  0.6554
  933MOL0     H23154  -0.087   9.815   7.128  0.2628  0.6094 -1.6493
  933MOL0     H23155   0.738   9.897   6.757 -0.6824 -1.1750  0.2426
  933MOL0     H23156   0.869  10.044   6.613 -0.3911  1.0188 -1.6942
  934MOL0     O23157   8.106   2.913   8.697 -0.6886  0.1292 -0.2702
  934MOL0     C23158   8.201   2.838   8.682 -0.3430  0.3051  0.0277
  934MOL0     O23159   8.193   2.725   8.609 -0.1362 -0.2061 -0.3232
  934MOL0     C23160   8.073   2.689   8.554  1.6816  0.0325 -0.5317
  934MOL0     C23161   7.970   2.777   8.507 -0.3185 -0.1623 -1.0842
  934MOL0     C23162   7.851   2.728   8.448  1.0480 -0.5128  0.4419
  934MOL0     C23163   7.827   2.590   8.454 -0.6671 -0.4103 -0.2458
  934MOL0     O23164   7.708   2.528   8.435 -0.1610  0.0663 -0.1444
  934MOL0     C23165   7.591   2.601   8.392 -0.4176 -0.0438  0.2924
  934MOL0     C23166   7.464   2.520   8.413 -0.4522 -0.1235 -0.1403
  934MOL0     C23167   7.438   2.465   8.554 -0.8066  0.2760 -0.3225
  934MOL0     C23168   7.421   2.582   8.655 -0.1208 -0.3846 -0.2741
  934MOL0     C23169   7.381   2.539   8.799  0.1544  0.0031  0.2563
  934MOL0     C23170   7.235   2.495   8.822 -0.1315  0.4791  0.5603
  934MOL0     C23171   7.134   2.612   8.791 -0.4309 -0.5923 -0.1008
  934MOL0     C23172   7.049   2.560   8.680 -0.1769 -0.7693 -0.0138
  934MOL0     N23173   6.945   2.656   8.625 -0.3880  0.7424  0.3336
  934MOL0     C23174   6.847   2.717   8.698  0.3772 -0.8869  0.5067
  934MOL0     C23175   6.779   2.791   8.605  0.6693  0.4440 -0.8860
  934MOL0     C23176   6.686   2.899   8.640 -0.1277 -0.6020  0.0767
  934MOL0     C23177   6.546   2.847   8.670 -0.2584  0.1534 -0.2080
  934MOL0     C23178   6.468   2.773   8.556  0.3159  0.2421 -1.1532
  934MOL0     C23179   6.438   2.864   8.438  0.0434  0.6345  0.1868
  934MOL0     O23180   6.365   2.803   8.334  0.5342 -0.6185  0.0184
  934MOL0     C23181   6.229   2.823   8.325 -0.0154  0.8411 -1.5846
  934MOL0     C23182   6.162   2.804   8.202 -0.0832  0.1265 -0.4273
  934MOL0     C23183   6.020   2.815   8.188 -0.2583  0.2768  0.6578
  934MOL0     C23184   5.929   2.844   8.296 -1.0183 -0.2199  0.2426
  934MOL0     C23185   5.786   2.866   8.280  0.1758  0.4573 -0.5526
  934MOL0     O23186   5.723   2.943   8.376 -0.2291  0.2820 -0.1157
  934MOL0     C23187   5.584   2.947   8.370  0.1978 -0.7936 -0.0106
  934MOL0     C23188   5.515   2.840   8.412 -1.3892 -0.1606 -0.1214
  934MOL0     C23189   5.374   2.834   8.411  0.4338  0.1827 -0.4823
  934MOL0     C23190   5.303   2.953   8.369  0.4046  0.2737  0.0053
  934MOL0     O23191   5.163   2.943   8.374  0.1540 -0.0869  0.9237
  934MOL0     C23192   5.093   3.073   8.386 -0.2851  0.3476  0.3660
  934MOL0     C23193   4.985   3.060   8.496 -0.5667  0.1220  0.9506
  934MOL0     C23194   4.973   3.191   8.582 -0.7179  0.6799  0.3623
  934MOL0     C23195   4.855   3.176   8.673  0.0687 -0.5874 -0.1622
  934MOL0     C23196   4.885   3.117   8.807  0.1876 -0.0817 -0.0306
  934MOL0     C23197   4.759   3.114   8.891 -0.1085 -0.6153 -0.1735
  934MOL0     C23198   4.645   3.035   8.831  0.3830  0.3295  0.2294
  934MOL0     C23199   4.556   2.952   8.926  0.0242 -0.0608  0.3266
  934MOL0    Cl23200   4.673   2.830   8.999  0.4786  0.1211 -0.2683
  934MOL0     C23201   5.378   3.064   8.325 -1.1866  0.4061  0.0199
  934MOL0     C23202   5.519   3.063   8.337 -0.5097  0.0077 -0.3056
  934MOL0     O23203   5.733   2.817   8.179 -0.6591  0.4111  0.6610
  934MOL0     C23204   5.993   2.872   8.412 -0.4246 -1.3319  0.6180
  934MOL0     C23205   6.138   2.859   8.427  0.0520 -0.6421  0.7868
  934MOL0     N23206   6.836   2.766   8.482  0.1566  0.2349  0.1012
  934MOL0     N23207   6.931   2.678   8.496  0.0082  0.7421 -0.0633
  934MOL0     C23208   7.931   2.503   8.498  0.7047 -0.4648  0.7040
  934MOL0     C23209   8.048   2.553   8.543  0.0924  0.4318 -0.4008
  934MOL0     C23210   8.329   2.874   8.745  0.0904  0.4303 -1.1347
  934MOL0     C23211   8.451   2.801   8.716  0.1448  0.2792 -1.0074
  934MOL0     C23212   8.570   2.830   8.771 -0.6325  0.0527 -0.2726
  934MOL0     C23213   8.586   2.934   8.867  1.1817  0.3185  0.4219
  934MOL0     O23214   8.703   2.956   8.929 -0.0723  0.0931  0.1457
  934MOL0     C23215   8.764   3.086   8.902  0.3286 -0.1857 -0.1409
  934MOL0     C23216   8.838   3.130   9.020 -0.5671  0.0025  0.1928
  934MOL0     C23217   8.739   3.154   9.133 -0.3476 -0.7345  0.3254
  934MOL0     C23218   8.812   3.222   9.253 -0.1078 -0.8397 -0.5535
  934MOL0     C23219   8.935   3.170   9.298 -0.0119 -0.7333 -1.7258
  934MOL0     C23220   9.044   3.145   9.342  0.0472 -0.0763 -0.3046
  934MOL0     C23221   8.473   3.001   8.902  0.0519 -0.0641  0.4457
  934MOL0     C23222   8.346   2.975   8.848  1.0333  0.3375  0.3695
  934MOL0     H23223   7.980   2.884   8.488 -1.5937  0.0258 -0.7694
  934MOL0     H23224   7.771   2.794   8.415 -0.8231 -3.2234 -0.8366
  934MOL0     H23225   7.590   2.622   8.284 -4.9263 -1.6245 -0.1557
  934MOL0     H23226   7.594   2.697   8.444 -0.6047 -0.2471  0.6812
  934MOL0     H23227   7.473   2.432   8.349 -1.2984 -0.5702  0.3327
  934MOL0     H23228   7.381   2.588   8.392  0.8535  0.9219 -2.3238
  934MOL0     H23229   7.520   2.396   8.574 -0.3254  0.7213 -0.7444
  934MOL0     H23230   7.345   2.406   8.549 -0.7533 -0.0061  1.4203
  934MOL0     H23231   7.510   2.644   8.666 -0.6280 -0.0267  2.3327
  934MOL0     H23232   7.352   2.652   8.607  2.4941  1.1168 -2.1077
  934MOL0     H23233   7.402   2.621   8.868  1.3548 -0.0294 -0.0599
  934MOL0     H23234   7.445   2.452   8.819  1.5016  0.4634 -1.8025
  934MOL0     H23235   7.225   2.465   8.926  1.7158  2.6453  1.4517
  934MOL0     H23236   7.215   2.403   8.767 -0.8189  0.6894  0.4474
  934MOL0     H23237   7.072   2.637   8.877  0.1301 -0.4311  0.2683
  934MOL0     H23238   7.183   2.702   8.752 -1.0750 -0.9341 -1.7966
  934MOL0     H23239   6.996   2.472   8.718 -1.1112 -0.6310 -0.9422
  934MOL0     H23240   7.110   2.515   8.602  1.0191 -0.5315  0.7579
  934MOL0     H23241   6.842   2.705   8.806 -2.1331  1.8927  0.8237
  934MOL0     H23242   6.668   2.967   8.556  0.6738 -1.1635 -0.5527
  934MOL0     H23243   6.726   2.956   8.725  1.5921 -1.3415 -0.2035
  934MOL0     H23244   6.481   2.929   8.703  1.2983  0.9593  0.9994
  934MOL0     H23245   6.546   2.787   8.761 -3.8617  0.6699  0.2924
  934MOL0     H23246   6.517   2.679   8.528  0.2899  0.3577 -1.5896
  934MOL0     H23247   6.372   2.745   8.600  1.4255 -1.1697  0.5308
  934MOL0     H23248   6.537   2.885   8.396  1.2101  0.5868  2.7197
  934MOL0     H23249   6.390   2.959   8.464 -1.0180 -0.3818  2.1620
  934MOL0     H23250   6.223   2.784   8.114 -0.6104  0.8965 -0.9826
  934MOL0     H23251   5.985   2.789   8.089  1.4037 -1.6109  0.5004
  934MOL0     H23252   5.573   2.749   8.427  1.6041  1.6373  0.1019
  934MOL0     H23253   5.317   2.744   8.433 -0.7452  1.2953  1.2127
  934MOL0     H23254   5.034   3.087   8.295  0.9764  1.5699 -0.2866
  934MOL0     H23255   5.159   3.158   8.405 -0.7987  1.3600 -2.0378
  934MOL0     H23256   5.023   2.978   8.558  0.5707 -1.3948 -1.5698
  934MOL0     H23257   4.892   3.048   8.440  0.6354  0.8449 -1.3604
  934MOL0     H23258   4.965   3.275   8.512 -2.0031  1.4514  1.4079
  934MOL0     H23259   5.064   3.210   8.639 -1.8991  1.1883  2.1595
  934MOL0     H23260   4.819   3.278   8.685  2.2483  0.0136  2.3020
  934MOL0     H23261   4.780   3.114   8.624  1.4588 -1.3475 -1.4019
  934MOL0     H23262   4.960   3.184   8.849 -0.1587  0.1507  0.2143
  934MOL0     H23263   4.934   3.021   8.786 -0.1519 -0.3083  0.1922
  934MOL0     H23264   4.722   3.215   8.913 -0.6685 -0.3559 -2.0985
  934MOL0     H23265   4.800   3.065   8.979  0.2196  0.6852  0.4307
  934MOL0     H23266   4.579   3.090   8.765 -0.6815 -0.0251  0.9680
  934MOL0     H23267   4.684   2.959   8.763 -1.6178 -0.3311 -0.2312
  934MOL0     H23268   4.478   2.911   8.862  0.5442  0.7832 -0.8894
  934MOL0     H23269   4.519   3.023   9.000  2.7147  1.2962  0.5131
  934MOL0     H23270   5.339   3.155   8.279 -1.8230 -0.1978 -0.6540
  934MOL0     H23271   5.581   3.152   8.324  0.1965  0.2027  3.2275
  934MOL0     H23272   5.930   2.905   8.494 -0.2750 -1.2680  0.7062
  934MOL0     H23273   6.173   2.892   8.524 -0.2295  1.8271  0.1327
  934MOL0     H23274   7.929   2.395   8.491  2.0897 -0.4736 -0.0680
  934MOL0     H23275   8.120   2.484   8.588 -0.9709  0.6107  1.7331
  934MOL0     H23276   8.456   2.725   8.639  1.0092  0.0569 -0.7465
  934MOL0     H23277   8.656   2.772   8.739 -0.0056  0.7931  0.0324
  934MOL0     H23278   8.691   3.165   8.882  1.4601  1.7092  2.5833
  934MOL0     H23279   8.840   3.068   8.826  1.1487 -1.3417  0.9063
  934MOL0     H23280   8.913   3.060   9.059 -0.3232 -0.0365 -0.3370
  934MOL0     H23281   8.899   3.218   8.998 -0.8656  0.4219  0.9887
  934MOL0     H23282   8.699   3.058   9.165 -0.5704 -0.7753 -0.0653
  934MOL0     H23283   8.655   3.216   9.101 -0.5651 -0.2915  1.6630
  934MOL0     H23284   8.853   3.317   9.218  0.2133 -1.6527 -2.5242
  934MOL0     H23285   8.744   3.247   9.335 -0.3437 -0.9962 -0.7008
  934MOL0     H23286   9.144   3.134   9.379  0.1419 -2.4390 -1.0959
  934MOL0     H23287   8.482   3.078   8.978  3.5927  0.7838 -0.6435
  934MOL0     H23288   8.261   3.028   8.890  2.0556  0.5590  2.2519
  935MOL0     O23289   0.537   0.644   1.026 -0.0270  0.3556 -0.9163
  935MOL0     C23290   0.552   0.524   1.013 -0.3036 -0.4137  0.7322
  935MOL0     O23291   0.464   0.432   1.055 -0.8103 -0.4075  0.5004
  935MOL0     C23292   0.340   0.466   1.108  0.7470 -0.2893 -0.0991
  935MOL0     C23293   0.316   0.471   1.243  0.3337  0.7600  0.0734
  935MOL0     C23294   0.190   0.513   1.283 -0.2447 -0.0073  0.5044
  935MOL0     C23295   0.094   0.556   1.197  0.7757  0.3704 -0.8770
  935MOL0     O23296  -0.032   0.576   1.248  0.1617  0.0935 -0.0822
  935MOL0     C23297  -0.043   0.631   1.383 -0.3293  0.0523 -0.1644
  935MOL0     C23298  -0.191   0.669   1.414 -0.1487  0.4422  0.1397
  935MOL0     C23299  -0.209   0.813   1.376  0.6276  0.3671 -0.6283
  935MOL0     C23300  -0.357   0.862   1.344  0.0959 -0.0381 -0.1394
  935MOL0     C23301  -0.456   0.846   1.462 -0.5584 -0.5562  0.0505
  935MOL0     C23302  -0.402   0.926   1.582  0.2024  0.0592  0.2692
  935MOL0     C23303  -0.520   0.969   1.676  0.0530  0.2576  0.7857
  935MOL0     C23304  -0.593   0.853   1.737 -0.7559  0.2882  0.0421
  935MOL0     N23305  -0.690   0.908   1.832 -0.7879 -0.1914  0.0232
  935MOL0     C23306  -0.648   0.969   1.951 -0.5981  0.2043 -0.0719
  935MOL0     C23307  -0.766   1.018   1.998 -0.0119  0.5505  0.3518
  935MOL0     C23308  -0.788   1.075   2.132 -1.0445 -0.5503  0.6690
  935MOL0     C23309  -0.914   1.164   2.144 -0.3426  0.2338  0.3131
  935MOL0     C23310  -0.909   1.258   2.270  0.4510 -0.4878  1.3402
  935MOL0     C23311  -1.039   1.334   2.289 -0.1744  0.5167  0.0781
  935MOL0     O23312  -1.140   1.242   2.329 -0.3257  0.5945 -0.4490
  935MOL0     C23313  -1.267   1.282   2.293  0.4955 -0.5434  0.1514
  935MOL0     C23314  -1.355   1.174   2.316  0.1952 -0.6532 -0.9919
  935MOL0     C23315  -1.491   1.190   2.306  0.6016  0.1430 -0.3001
  935MOL0     C23316  -1.552   1.317   2.276 -0.3946 -0.4379  0.1156
  935MOL0     C23317  -1.700   1.324   2.253 -0.2288 -0.5317  0.0334
  935MOL0     O23318  -1.749   1.449   2.238  0.1782 -0.5666 -0.3902
  935MOL0     C23319  -1.885   1.473   2.261  0.7739  0.5585 -0.3718
  935MOL0     C23320  -1.992   1.419   2.186 -0.4989  0.2402  0.5476
  935MOL0     C23321  -2.121   1.456   2.204  0.9075  0.1925  0.2348
  935MOL0     C23322  -2.157   1.539   2.317  0.1770  0.3621  0.1735
  935MOL0     O23323  -2.286   1.584   2.342  0.1657 -0.0817 -0.0381
  935MOL0     C23324  -2.391   1.484   2.344  0.2593 -0.0804 -0.5037
  935MOL0     C23325  -2.522   1.551   2.401  0.2930  0.6372  0.1032
  935MOL0     C23326  -2.617   1.618   2.300 -0.2276  0.0526 -0.7946
  935MOL0     C23327  -2.748   1.666   2.355  1.1913  0.4661  0.1757
  935MOL0     C23328  -2.839   1.688   2.233  0.3816 -0.0784 -0.5028
  935MOL0     C23329  -2.792   1.796   2.141 -0.2989 -0.4894 -0.1085
  935MOL0     C23330  -2.832   1.936   2.204 -0.1568  0.4496 -0.0588
  935MOL0     C23331  -2.696   1.999   2.234 -0.4916  0.4360  0.8491
  935MOL0    Cl23332  -2.603   2.024   2.084 -0.2501 -0.1862  0.5622
  935MOL0     C23333  -2.052   1.559   2.409 -0.3734 -0.0655 -0.5050
  935MOL0     C23334  -1.916   1.536   2.382 -0.5765  0.1999 -0.7152
  935MOL0     O23335  -1.760   1.219   2.259  0.6901  0.3989 -0.1896
  935MOL0     C23336  -1.465   1.436   2.267  0.5761  1.2683  0.2024
  935MOL0     C23337  -1.324   1.410   2.271 -0.6967 -0.9252 -0.4042
  935MOL0     N23338  -0.857   1.014   1.895  1.1787  0.6440 -0.3061
  935MOL0     N23339  -0.814   0.943   1.799  0.1205 -0.7878  0.1983
  935MOL0     C23340   0.115   0.549   1.062  0.6040  0.0792  0.5873
  935MOL0     C23341   0.239   0.502   1.017 -0.0541  0.1052 -0.1538
  935MOL0     C23342   0.683   0.475   0.952  0.1063 -0.3140 -0.0408
  935MOL0     C23343   0.721   0.336   0.960 -0.7500  0.4283  1.3323
  935MOL0     C23344   0.836   0.292   0.898  0.9368 -0.4742  0.9210
  935MOL0     C23345   0.921   0.384   0.826 -0.1286  0.8313  0.2576
  935MOL0     O23346   1.040   0.345   0.763 -0.3174  0.7411 -0.3384
  935MOL0     C23347   1.098   0.209   0.798 -0.2180  0.3210 -0.1935
  935MOL0     C23348   1.080   0.114   0.672  0.3996 -0.0642  0.1037
  935MOL0     C23349   1.148   0.172   0.554 -0.3272 -0.0309  0.6819
  935MOL0     C23350   1.199   0.072   0.448  0.3980 -0.9587 -1.3642
  935MOL0     C23351   1.088  -0.001   0.388 -0.0987  0.2628  0.6154
  935MOL0     C23352   0.996  -0.058   0.328 -0.3841 -0.2654 -0.6950
  935MOL0     C23353   0.893   0.520   0.827  0.4174 -0.0790  0.6370
  935MOL0     C23354   0.776   0.563   0.893  0.7431 -0.0665 -0.1781
  935MOL0     H23355   0.387   0.436   1.317 -0.0552  1.8881  1.0236
  935MOL0     H23356   0.176   0.503   1.391 -1.6262  1.8125  0.5452
  935MOL0     H23357   0.019   0.718   1.405 -0.2416 -0.2379  0.7772
  935MOL0     H23358  -0.020   0.557   1.460 -1.9044 -1.0138 -0.6655
  935MOL0     H23359  -0.213   0.653   1.520 -1.4417  0.1878 -0.1421
  935MOL0     H23360  -0.255   0.601   1.357 -0.2621 -0.6857  1.5465
  935MOL0     H23361  -0.152   0.851   1.291 -2.4975  0.7458 -2.7137
  935MOL0     H23362  -0.167   0.872   1.459 -0.4026  0.1490  0.0588
  935MOL0     H23363  -0.343   0.969   1.324 -0.5009 -0.5374 -3.9431
  935MOL0     H23364  -0.379   0.801   1.256  2.1513 -0.0771 -0.6761
  935MOL0     H23365  -0.458   0.740   1.492  0.2929 -0.6380 -0.1503
  935MOL0     H23366  -0.554   0.880   1.430  0.1896 -0.7760 -2.7052
  935MOL0     H23367  -0.355   1.019   1.548 -1.8328  2.1541  2.7622
  935MOL0     H23368  -0.327   0.864   1.634 -0.2060 -0.8152 -0.1643
  935MOL0     H23369  -0.485   1.034   1.757  2.8805  0.6011 -0.5985
  935MOL0     H23370  -0.591   1.030   1.619 -0.6513 -0.3264  1.0218
  935MOL0     H23371  -0.523   0.781   1.780 -0.6013  0.4918  0.1318
  935MOL0     H23372  -0.653   0.804   1.659  1.2527  2.8658 -3.4086
  935MOL0     H23373  -0.553   0.978   2.003 -1.0509  1.8122  0.5368
  935MOL0     H23374  -0.691   1.121   2.154 -0.8732 -1.2839  1.4762
  935MOL0     H23375  -0.795   0.993   2.204  1.4343 -1.0119  0.4804
  935MOL0     H23376  -1.000   1.097   2.146  0.1266 -0.4979 -1.6174
  935MOL0     H23377  -0.919   1.226   2.054 -1.4731 -2.5186 -1.6678
  935MOL0     H23378  -0.882   1.202   2.360 -0.0912 -0.3610  1.5848
  935MOL0     H23379  -0.831   1.334   2.262 -1.2088  1.1680 -0.1364
  935MOL0     H23380  -1.063   1.384   2.194 -3.1068 -2.4210 -0.9262
  935MOL0     H23381  -1.029   1.413   2.364 -1.2565  1.5413 -0.8134
  935MOL0     H23382  -1.327   1.069   2.321 -3.5483 -1.9025 -2.8688
  935MOL0     H23383  -1.561   1.108   2.302  0.5326  0.2267 -3.6121
  935MOL0     H23384  -1.977   1.357   2.098 -0.9423  1.1511 -0.1866
  935MOL0     H23385  -2.189   1.441   2.121  1.4450 -0.1309 -0.1459
  935MOL0     H23386  -2.376   1.406   2.419 -0.5337  1.2752  1.1325
  935MOL0     H23387  -2.410   1.435   2.248 -1.1746 -1.9091  0.6512
  935MOL0     H23388  -2.489   1.633   2.465  1.7332 -0.4498  0.7965
  935MOL0     H23389  -2.587   1.481   2.454 -2.4672  1.7638 -1.5571
  935MOL0     H23390  -2.635   1.546   2.220 -0.7362  0.3730 -0.9712
  935MOL0     H23391  -2.557   1.701   2.263  2.8459 -1.8658 -0.5097
  935MOL0     H23392  -2.798   1.587   2.412 -3.4949  1.6996 -1.7644
  935MOL0     H23393  -2.745   1.752   2.423 -2.4724  1.0968 -0.2904
  935MOL0     H23394  -2.939   1.715   2.269  1.5925  4.5321  0.0048
  935MOL0     H23395  -2.857   1.591   2.184  0.0478  0.6746 -1.9117
  935MOL0     H23396  -2.848   1.790   2.047 -1.8368  1.2376  0.6177
  935MOL0     H23397  -2.688   1.770   2.119 -0.7096 -2.1305 -0.2464
  935MOL0     H23398  -2.877   1.996   2.124  1.6423  3.4887  1.0545
  935MOL0     H23399  -2.894   1.931   2.294  0.0580 -2.4505  0.0159
  935MOL0     H23400  -2.627   1.946   2.301  0.5010  0.5190 -0.0766
  935MOL0     H23401  -2.702   2.101   2.273  1.0353 -0.1483  2.7981
  935MOL0     H23402  -2.079   1.610   2.500 -1.1482  0.5086 -1.0443
  935MOL0     H23403  -1.837   1.566   2.451 -1.7995 -0.0474  0.8437
  935MOL0     H23404  -1.504   1.534   2.243 -0.5579  0.9868  0.7986
  935MOL0     H23405  -1.270   1.504   2.257  0.6026 -1.8297 -1.8566
  935MOL0     H23406   0.047   0.568   0.980  1.5190 -1.2128 -0.5322
  935MOL0     H23407   0.272   0.505   0.914  0.3473  1.0778 -0.0087
  935MOL0     H23408   0.659   0.262   1.011 -0.0436 -0.4325  0.9748
  935MOL0     H23409   0.862   0.186   0.902 -0.8452 -0.9230  1.7144
  935MOL0     H23410   1.057   0.172   0.893  0.3120  0.0950 -0.0504
  935MOL0     H23411   1.206   0.225   0.808 -0.1621  0.9479 -1.5725
  935MOL0     H23412   1.102   0.010   0.698  2.4002  0.0663 -0.8595
  935MOL0     H23413   0.972   0.104   0.657  0.5854 -1.5942 -0.3925
  935MOL0     H23414   1.233   0.231   0.590 -1.8834  3.2235 -0.5571
  935MOL0     H23415   1.090   0.254   0.510  1.0385  0.8749  0.5174
  935MOL0     H23416   1.269   0.118   0.377 -0.6431  3.6178  0.2346
  935MOL0     H23417   1.251  -0.012   0.495 -1.2992 -3.0147 -2.9636
  935MOL0     H23418   0.913  -0.118   0.298 -0.9841  1.1201 -1.9326
  935MOL0     H23419   0.954   0.590   0.771 -1.5249  1.4769  0.3531
  935MOL0     H23420   0.740   0.665   0.899 -2.2277 -1.0267  0.0441
  936MOL0     O23421   8.983   9.809   2.104  0.6829  0.2702 -0.6758
  936MOL0     C23422   9.039   9.912   2.152 -0.4100 -0.2886  0.3467
  936MOL0     O23423   8.975  10.026   2.192  0.4613  0.0774 -0.0028
  936MOL0     C23424   8.844  10.043   2.170  0.7895 -0.6842 -0.1753
  936MOL0     C23425   8.786  10.145   2.087 -0.6675 -1.6391  0.2355
  936MOL0     C23426   8.655  10.161   2.073 -0.2010 -0.8288 -0.4160
  936MOL0     C23427   8.573  10.072   2.130  0.3165  1.0210 -0.3887
  936MOL0     O23428   8.436  10.074   2.131  0.3729  0.3002  0.1650
  936MOL0     C23429   8.369  10.206   2.113 -0.7826 -0.3144  0.1628
  936MOL0     C23430   8.214  10.201   2.104 -0.6281 -0.1774  0.3372
  936MOL0     C23431   8.168  10.167   1.953 -0.3183 -0.0057  0.3117
  936MOL0     C23432   8.014  10.198   1.939 -0.8802 -0.0705  0.0643
  936MOL0     C23433   7.998  10.328   1.858 -0.4753 -0.2359  0.9326
  936MOL0     C23434   8.028  10.448   1.946  0.0464 -0.1735  0.1490
  936MOL0     C23435   7.970  10.574   1.880  0.5433 -0.7467  0.5519
  936MOL0     C23436   8.004  10.707   1.952  0.4019  0.4751  0.0916
  936MOL0     N23437   7.883  10.790   1.963  0.3169 -0.2332  0.1514
  936MOL0     C23438   7.852  10.896   1.875 -0.7199  1.0382 -0.3141
  936MOL0     C23439   7.729  10.941   1.910  0.1444 -0.4367 -0.3708
  936MOL0     C23440   7.631  11.042   1.854 -0.5635 -0.2225 -0.3254
  936MOL0     C23441   7.702  11.173   1.819  0.5530  0.9083 -0.3120
  936MOL0     C23442   7.758  11.236   1.951 -0.1343 -0.1964  0.5771
  936MOL0     C23443   7.864  11.340   1.920  0.5331  0.2522  0.3321
  936MOL0     O23444   7.964  11.279   1.845 -0.0034  0.2831  1.2212
  936MOL0     C23445   8.074  11.218   1.913 -0.0116  0.0705 -0.2798
  936MOL0     C23446   8.180  11.179   1.822 -0.4835 -0.2185 -0.7127
  936MOL0     C23447   8.303  11.145   1.878  0.0521  0.1356  0.0190
  936MOL0     C23448   8.327  11.143   2.016  0.8925  0.1204 -0.4896
  936MOL0     C23449   8.462  11.111   2.065  0.2101 -0.7848 -0.5950
  936MOL0     O23450   8.563  11.098   1.974 -0.1968  0.0999  0.0902
  936MOL0     C23451   8.693  11.058   1.993 -0.2221  0.4451 -0.3993
  936MOL0     C23452   8.732  10.987   2.108  0.5096 -0.1274 -0.2892
  936MOL0     C23453   8.860  10.946   2.119 -1.2145  0.4182  0.1322
  936MOL0     C23454   8.956  10.971   2.016 -0.4597 -0.3470  0.1625
  936MOL0     O23455   9.090  10.931   2.025  0.6050 -0.5031 -0.4145
  936MOL0     C23456   9.164  10.931   2.150  0.3735  0.4746  1.2609
  936MOL0     C23457   9.290  10.843   2.134 -0.4948  0.6439 -0.2308
  936MOL0     C23458   9.379  10.902   2.023 -0.5850 -0.4367 -0.4095
  936MOL0     C23459   9.507  10.808   2.021 -0.1423  0.2489  0.0954
  936MOL0     C23460   9.597  10.857   1.914  0.1199  0.4475 -0.0596
  936MOL0     C23461   9.726  10.788   1.902 -1.2683  0.4767 -0.7426
  936MOL0     C23462   9.816  10.850   1.790  0.7998 -0.1123  1.7567
  936MOL0     C23463   9.935  10.753   1.750 -0.3698  0.0312  0.3057
  936MOL0    Cl23464  10.048  10.757   1.898 -0.2071  0.0067 -0.2363
  936MOL0     C23465   8.917  11.030   1.895 -0.3905  0.1974 -0.4125
  936MOL0     C23466   8.786  11.081   1.889 -0.1236 -0.4099  0.8650
  936MOL0     O23467   8.469  11.115   2.184 -0.2780  0.5042  0.0462
  936MOL0     C23468   8.218  11.170   2.106 -0.7191 -0.5086  0.5133
  936MOL0     C23469   8.090  11.205   2.056 -0.3441 -0.0466  1.0457
  936MOL0     N23470   7.704  10.891   2.040 -0.0827  1.2299 -0.0963
  936MOL0     N23471   7.780  10.782   2.056 -0.0148  0.0826  0.1046
  936MOL0     C23472   8.626   9.975   2.218  0.1572 -0.4315 -1.2259
  936MOL0     C23473   8.757   9.956   2.237  0.2040 -0.2497 -0.4590
  936MOL0     C23474   9.185   9.912   2.151 -0.2048  0.5217  0.2417
  936MOL0     C23475   9.256  10.027   2.187  0.9283  0.9407  0.3205
  936MOL0     C23476   9.396  10.036   2.180  0.1695 -0.0544 -1.0570
  936MOL0     C23477   9.472   9.924   2.142  0.3330  0.4090 -0.0029
  936MOL0     O23478   9.610   9.933   2.115  0.4561 -0.4703  0.1749
  936MOL0     C23479   9.691   9.842   2.194 -0.1339  0.1268 -0.2814
  936MOL0     C23480   9.814   9.808   2.107 -0.8874 -0.6585 -0.4480
  936MOL0     C23481   9.921   9.913   2.123 -0.4974 -0.3679  0.5512
  936MOL0     C23482  10.032   9.886   2.015 -0.0397  0.0236 -0.5075
  936MOL0     C23483  10.157   9.956   2.038  0.0870 -0.8983  1.3532
  936MOL0     C23484  10.269  10.004   2.054  1.0712 -0.8743 -0.0007
  936MOL0     C23485   9.405   9.808   2.112  0.3719  0.5729  0.4801
  936MOL0     C23486   9.265   9.806   2.113 -0.0754  0.1873 -0.1675
  936MOL0     H23487   8.845  10.226   2.046  0.7695 -2.7882 -0.0858
  936MOL0     H23488   8.635  10.244   2.006 -1.2440 -1.0058 -0.3372
  936MOL0     H23489   8.419  10.248   2.025  0.6917 -1.5026  0.3784
  936MOL0     H23490   8.386  10.272   2.198  5.0083  1.3209 -1.7729
  936MOL0     H23491   8.172  10.299   2.129 -0.3459 -0.2350  1.0676
  936MOL0     H23492   8.171  10.127   2.172 -2.0535  0.5598  0.2612
  936MOL0     H23493   8.186  10.063   1.924 -0.3488 -0.2562  1.1610
  936MOL0     H23494   8.235  10.221   1.887  0.7779  1.2726  2.3491
  936MOL0     H23495   7.959  10.125   1.880  2.6421 -2.4225 -0.6087
  936MOL0     H23496   7.971  10.193   2.040  0.0760 -1.9885  0.4178
  936MOL0     H23497   7.893  10.325   1.828 -0.2345  2.0247 -0.3279
  936MOL0     H23498   8.060  10.340   1.769 -2.6039  0.6152 -0.5052
  936MOL0     H23499   8.136  10.463   1.955 -0.1565  0.8411  1.0691
  936MOL0     H23500   7.996  10.438   2.050 -0.3659  1.7113  0.2403
  936MOL0     H23501   7.992  10.581   1.773  2.5726  1.9767  1.0185
  936MOL0     H23502   7.861  10.566   1.880  0.1899  1.8862 -2.6726
  936MOL0     H23503   8.083  10.749   1.889  1.6426 -1.7446  0.0703
  936MOL0     H23504   8.058  10.697   2.047  0.8969  0.0339 -0.2271
  936MOL0     H23505   7.908  10.906   1.782 -2.2606 -0.6726 -1.5182
  936MOL0     H23506   7.561  11.067   1.934 -1.0913  0.0080 -0.8508
  936MOL0     H23507   7.586  11.004   1.762 -0.8999 -0.7865  0.0672
  936MOL0     H23508   7.622  11.234   1.777 -0.6224 -0.6597 -0.4386
  936MOL0     H23509   7.779  11.152   1.744  1.1899  0.1655  0.5273
  936MOL0     H23510   7.665  11.267   1.999 -1.4242 -0.1877 -1.7663
  936MOL0     H23511   7.805  11.165   2.020 -1.1084  0.1878  1.6659
  936MOL0     H23512   7.903  11.382   2.013  1.0622  0.0831  0.1887
  936MOL0     H23513   7.820  11.424   1.865  0.8340  0.3310  0.2102
  936MOL0     H23514   8.174  11.198   1.715  0.5121 -2.5116 -1.2486
  936MOL0     H23515   8.390  11.123   1.817  1.1575 -0.0907  1.6084
  936MOL0     H23516   8.662  10.947   2.181  1.2600 -2.0884 -0.5838
  936MOL0     H23517   8.889  10.885   2.204  1.6448 -0.7677 -1.5373
  936MOL0     H23518   9.108  10.889   2.234  0.3087 -0.1124  0.9344
  936MOL0     H23519   9.183  11.033   2.183 -1.7130  0.6654  1.9843
  936MOL0     H23520   9.258  10.740   2.118 -1.5219  0.6949  1.2770
  936MOL0     H23521   9.348  10.835   2.226 -1.4657  1.0522  0.4400
  936MOL0     H23522   9.412  10.999   2.061 -0.3341 -1.1657  1.3389
  936MOL0     H23523   9.324  10.907   1.929 -0.1840  1.1650 -0.5948
  936MOL0     H23524   9.570  10.810   2.111  0.5518  1.1036 -0.3888
  936MOL0     H23525   9.478  10.706   1.996 -0.2520  0.8792 -2.6784
  936MOL0     H23526   9.626  10.962   1.924  1.7807  0.5109 -3.6271
  936MOL0     H23527   9.545  10.847   1.818  0.1840  0.0282 -0.0506
  936MOL0     H23528   9.699  10.685   1.877 -0.1366 -0.1026  0.3054
  936MOL0     H23529   9.789  10.769   1.989 -0.7910 -0.8376 -1.3388
  936MOL0     H23530   9.762  10.864   1.696  3.8833 -0.0135 -0.1625
  936MOL0     H23531   9.867  10.946   1.809 -0.0534  0.7621 -0.0845
  936MOL0     H23532   9.973  10.792   1.655 -2.0875  1.6382  0.1909
  936MOL0     H23533   9.894  10.654   1.727  2.3604 -1.3688  1.0986
  936MOL0     H23534   8.985  11.057   1.815  1.5844  3.5618  2.1420
  936MOL0     H23535   8.756  11.141   1.803  2.0331 -0.1131  0.2698
  936MOL0     H23536   8.239  11.173   2.212  0.3126 -0.9303  0.3274
  936MOL0     H23537   8.016  11.229   2.132 -0.5896 -1.9590  1.4744
  936MOL0     H23538   8.562   9.919   2.285  0.5943 -1.1367 -1.3883
  936MOL0     H23539   8.799   9.890   2.311 -1.5779 -0.1642  0.6754
  936MOL0     H23540   9.201  10.117   2.211 -1.4201 -0.4052  0.3248
  936MOL0     H23541   9.448  10.130   2.195  1.9604 -1.2169  0.4164
  936MOL0     H23542   9.646   9.747   2.227  1.0314  0.1961  1.6552
  936MOL0     H23543   9.708   9.888   2.291 -1.6433 -0.1076  0.1255
  936MOL0     H23544   9.858   9.714   2.142  1.4228 -0.1974 -1.8908
  936MOL0     H23545   9.790   9.801   2.001  0.5825 -1.5888 -0.7505
  936MOL0     H23546   9.971   9.908   2.220  0.6946 -1.3042 -0.0925
  936MOL0     H23547   9.890  10.015   2.097 -1.0093 -0.6389  0.0868
  936MOL0     H23548  10.047   9.779   2.002  1.3979  0.1538 -0.0461
  936MOL0     H23549   9.991   9.919   1.919 -1.3645  1.7759  0.5873
  936MOL0     H23550  10.359  10.062   2.051 -0.4054  1.6610  1.4121
  936MOL0     H23551   9.448   9.716   2.074  0.3666  0.6003  0.4067
  936MOL0     H23552   9.220   9.709   2.095  0.2902  0.1549 -0.9456
  937MOL0     O23553   5.060   2.103   7.195  0.7203 -0.9368  0.5198
  937MOL0     C23554   5.165   2.046   7.160  0.2672  0.1218 -0.5845
  937MOL0     O23555   5.287   2.094   7.153 -0.1757 -0.9029 -0.7029
  937MOL0     C23556   5.316   2.229   7.185  0.4551 -0.0545  1.5702
  937MOL0     C23557   5.253   2.342   7.131 -0.3193 -1.2287 -0.4080
  937MOL0     C23558   5.255   2.472   7.194  0.2661  0.8187  0.0661
  937MOL0     C23559   5.336   2.493   7.308  0.0188  0.7713 -0.0357
  937MOL0     O23560   5.353   2.606   7.376  0.2020 -0.1128 -0.0682
  937MOL0     C23561   5.277   2.725   7.361  0.1979  0.0267 -0.1537
  937MOL0     C23562   5.309   2.840   7.452 -0.4114 -0.4682 -0.2227
  937MOL0     C23563   5.447   2.874   7.493 -0.1380 -0.1208  0.1744
  937MOL0     C23564   5.548   2.854   7.372  0.0763 -0.8540  0.3010
  937MOL0     C23565   5.682   2.919   7.418  0.2531  0.0267  0.2933
  937MOL0     C23566   5.800   2.885   7.320 -0.4528  0.1663 -0.0736
  937MOL0     C23567   5.948   2.944   7.357 -0.2405  0.1759 -1.1586
  937MOL0     C23568   6.038   2.937   7.245 -0.3254 -0.1138 -0.0649
  937MOL0     N23569   6.172   2.937   7.286  0.7623  0.1697 -0.4964
  937MOL0     C23570   6.244   3.039   7.338 -0.3632  0.1732  0.2552
  937MOL0     C23571   6.371   2.982   7.349 -0.4614  0.4177 -0.5416
  937MOL0     C23572   6.498   3.039   7.420  0.0234 -0.2407 -0.1706
  937MOL0     C23573   6.477   3.188   7.447 -0.4250  0.1897 -1.1327
  937MOL0     C23574   6.475   3.276   7.322  0.1932  0.9460 -0.0425
  937MOL0     C23575   6.426   3.414   7.353 -0.6038  0.2387 -0.3719
  937MOL0     O23576   6.321   3.423   7.443  0.6916 -0.2407  0.7374
  937MOL0     C23577   6.191   3.418   7.390 -0.4189 -0.6194  0.1471
  937MOL0     C23578   6.094   3.428   7.487  0.2288 -1.0502  0.1831
  937MOL0     C23579   5.957   3.415   7.460  0.1446  0.2109  0.8759
  937MOL0     C23580   5.911   3.399   7.323 -0.3810  0.0150  0.7308
  937MOL0     C23581   5.764   3.386   7.292  0.0007  0.7416 -0.6450
  937MOL0     O23582   5.679   3.420   7.397 -0.6075  0.6562  0.5611
  937MOL0     C23583   5.542   3.389   7.386  0.0573 -0.7716 -0.6860
  937MOL0     C23584   5.469   3.397   7.267 -0.2019 -0.3561  0.6530
  937MOL0     C23585   5.334   3.385   7.260  0.2791  0.0994 -0.1200
  937MOL0     C23586   5.261   3.386   7.373  0.5369  0.3482 -0.3694
  937MOL0     O23587   5.127   3.375   7.367  0.5793 -0.3519 -0.0202
  937MOL0     C23588   5.055   3.484   7.442  0.6511 -0.0090  0.7261
  937MOL0     C23589   4.925   3.535   7.372  0.8345 -0.6363 -0.5858
  937MOL0     C23590   4.812   3.425   7.353 -0.9354  0.4535 -0.3720
  937MOL0     C23591   4.779   3.364   7.486 -0.1636 -0.3743  0.7840
  937MOL0     C23592   4.661   3.267   7.487  0.9001 -0.7224 -0.2410
  937MOL0     C23593   4.607   3.259   7.636  0.3396  0.7800  0.4979
  937MOL0     C23594   4.543   3.118   7.653  0.6296  0.6212  0.0939
  937MOL0     C23595   4.648   3.013   7.690  0.7458  0.7630  0.3051
  937MOL0    Cl23596   4.733   2.942   7.544  0.3681 -0.7610  0.0239
  937MOL0     C23597   5.327   3.376   7.488 -0.1388 -0.1655 -0.6072
  937MOL0     C23598   5.472   3.378   7.500  0.8216 -0.6683 -0.4553
  937MOL0     O23599   5.730   3.338   7.186 -0.6593  0.5079  0.0301
  937MOL0     C23600   6.012   3.375   7.224 -0.2865  0.0551  0.2210
  937MOL0     C23601   6.149   3.401   7.253  0.0024  0.3508  0.2773
  937MOL0     N23602   6.368   2.859   7.289 -0.3357  0.1918  0.4353
  937MOL0     N23603   6.240   2.834   7.250 -1.0932 -0.3696 -0.4662
  937MOL0     C23604   5.414   2.383   7.343 -0.2427  0.2327 -0.2928
  937MOL0     C23605   5.405   2.259   7.284  0.0703  0.5374  0.1472
  937MOL0     C23606   5.139   1.902   7.146 -0.2668  0.2282  0.4729
  937MOL0     C23607   5.026   1.844   7.202 -0.0745  0.6339 -0.0601
  937MOL0     C23608   4.998   1.702   7.200  0.3196  0.2312 -0.4634
  937MOL0     C23609   5.085   1.619   7.122  0.2044  0.3857 -0.2708
  937MOL0     O23610   5.084   1.487   7.118 -0.2160  0.3555 -0.6120
  937MOL0     C23611   4.955   1.434   7.153  0.3866 -0.0911 -0.4666
  937MOL0     C23612   4.941   1.277   7.120 -0.4715 -1.2761 -0.5565
  937MOL0     C23613   4.920   1.247   6.971  0.2818  0.0517  1.0700
  937MOL0     C23614   4.898   1.096   6.939  0.1114  0.3138  0.6108
  937MOL0     C23615   4.871   1.077   6.796 -0.6174  0.2857  0.7734
  937MOL0     C23616   4.859   1.042   6.681 -0.7589 -0.0798  0.3207
  937MOL0     C23617   5.194   1.676   7.065  0.4813 -0.5126  0.7398
  937MOL0     C23618   5.228   1.811   7.073 -0.1686 -0.0429  0.0151
  937MOL0     H23619   5.194   2.331   7.041  0.7224 -0.1815 -1.2467
  937MOL0     H23620   5.201   2.552   7.144 -1.1798  0.5284  1.0679
  937MOL0     H23621   5.173   2.699   7.381  0.4784 -0.9363  0.1071
  937MOL0     H23622   5.287   2.751   7.255 -1.0335  0.2144 -0.2345
  937MOL0     H23623   5.251   2.839   7.545 -0.3948 -2.9556 -0.1770
  937MOL0     H23624   5.272   2.930   7.401 -0.9659 -2.4158 -3.5175
  937MOL0     H23625   5.479   2.819   7.582  0.6404  2.5810  1.6945
  937MOL0     H23626   5.438   2.977   7.530  2.6595  0.3029 -0.0957
  937MOL0     H23627   5.567   2.748   7.355  0.4447 -0.6909 -0.3495
  937MOL0     H23628   5.512   2.896   7.278 -1.1465  1.0859  1.5705
  937MOL0     H23629   5.696   2.874   7.517 -1.2175  0.9793  0.9747
  937MOL0     H23630   5.672   3.024   7.445 -0.6600 -0.1741  0.7957
  937MOL0     H23631   5.771   2.917   7.220  1.0694  2.1575  0.0561
  937MOL0     H23632   5.814   2.779   7.343 -1.7897  0.2833  1.4479
  937MOL0     H23633   5.927   3.049   7.380 -0.3194 -0.2162  0.6435
  937MOL0     H23634   5.972   2.880   7.442 -3.1603 -3.3443 -2.6760
  937MOL0     H23635   6.039   3.026   7.181  1.8058  0.1192  0.2353
  937MOL0     H23636   6.016   2.852   7.180 -1.4563  1.0971 -1.3433
  937MOL0     H23637   6.220   3.132   7.388  4.2074  0.7548  1.8504
  937MOL0     H23638   6.587   3.014   7.362  3.0967  1.5672  3.3621
  937MOL0     H23639   6.510   2.996   7.519  0.9043  1.1118  0.3325
  937MOL0     H23640   6.565   3.215   7.506  0.2325 -1.3526 -1.3722
  937MOL0     H23641   6.391   3.202   7.513  0.9533 -0.9207  0.9944
  937MOL0     H23642   6.572   3.277   7.272 -0.6220 -2.4276 -2.0034
  937MOL0     H23643   6.403   3.231   7.254  0.7281  0.0928 -0.0504
  937MOL0     H23644   6.399   3.466   7.260 -0.8686 -0.1422 -0.5093
  937MOL0     H23645   6.512   3.463   7.400 -0.6657 -0.1568  0.1574
  937MOL0     H23646   6.126   3.441   7.590  0.4650  0.2222 -0.0351
  937MOL0     H23647   5.887   3.427   7.542 -0.7761  4.3768 -0.2757
  937MOL0     H23648   5.514   3.418   7.170 -0.2478  2.2403  1.1222
  937MOL0     H23649   5.291   3.389   7.160  0.4759  0.4426 -0.1931
  937MOL0     H23650   5.120   3.571   7.449  2.9069 -1.2357 -2.6246
  937MOL0     H23651   5.044   3.442   7.542  1.0473 -0.5600  0.5447
  937MOL0     H23652   4.945   3.577   7.272  2.2804  3.3119  1.1472
  937MOL0     H23653   4.879   3.619   7.424  1.6083 -0.8560  0.4658
  937MOL0     H23654   4.851   3.344   7.289  2.0460  0.0815  1.6829
  937MOL0     H23655   4.719   3.468   7.315 -2.8210 -1.3601  1.8393
  937MOL0     H23656   4.867   3.312   7.525  0.8170  1.5210  1.2503
  937MOL0     H23657   4.759   3.452   7.548 -0.8842  0.4169 -0.5189
  937MOL0     H23658   4.708   3.171   7.464 -2.7193 -2.6528 -0.1642
  937MOL0     H23659   4.578   3.291   7.420 -0.4554 -0.9580  1.2865
  937MOL0     H23660   4.526   3.332   7.640 -1.6079 -1.3068  1.3101
  937MOL0     H23661   4.682   3.280   7.713 -0.9767  2.8044  1.3200
  937MOL0     H23662   4.478   3.125   7.741  1.7351 -0.6637  1.0468
  937MOL0     H23663   4.474   3.087   7.574  0.0011  2.5242 -0.1562
  937MOL0     H23664   4.601   2.930   7.744 -0.9125  0.1730 -1.9154
  937MOL0     H23665   4.722   3.050   7.763  0.5903 -0.5783  1.1847
  937MOL0     H23666   5.255   3.366   7.569 -0.1586 -3.2204 -0.8632
  937MOL0     H23667   5.510   3.363   7.600 -2.8768 -0.2533  1.1875
  937MOL0     H23668   5.972   3.349   7.127  2.8460 -1.7388 -0.7410
  937MOL0     H23669   6.221   3.404   7.172  1.1398  1.1950  1.2816
  937MOL0     H23670   5.475   2.385   7.432  1.0445 -0.0992 -1.1356
  937MOL0     H23671   5.450   2.176   7.336 -2.0312  0.1307  1.4536
  937MOL0     H23672   4.954   1.913   7.245  1.1484  1.0494  1.4006
  937MOL0     H23673   4.909   1.670   7.252  0.4874 -0.7576 -0.7671
  937MOL0     H23674   4.876   1.484   7.097 -1.1225 -1.2091  0.6137
  937MOL0     H23675   4.933   1.455   7.258 -1.6193  0.4970 -0.9718
  937MOL0     H23676   5.031   1.231   7.162  0.1306 -0.1005 -0.5161
  937MOL0     H23677   4.853   1.255   7.181 -0.8269  3.1713  0.9527
  937MOL0     H23678   5.012   1.279   6.920 -0.6346  1.9480  0.5248
  937MOL0     H23679   4.839   1.303   6.923  0.3995 -2.2511 -2.2066
  937MOL0     H23680   4.976   1.025   6.971  0.7247 -1.6820 -4.3571
  937MOL0     H23681   4.809   1.065   6.995  0.8687 -1.7428  0.8016
  937MOL0     H23682   4.845   1.021   6.577  1.1811  0.1414 -0.0268
  937MOL0     H23683   5.267   1.611   7.019 -0.2746 -2.0799  1.7044
  937MOL0     H23684   5.318   1.852   7.029  0.1187 -0.1345  0.5121
  938MOL0     O23685   3.050   7.874   7.472  0.4367  0.6234 -0.2207
  938MOL0     C23686   3.055   7.987   7.508  0.4028 -0.2890  0.9077
  938MOL0     O23687   2.963   8.088   7.493  0.0345  0.3194  0.2594
  938MOL0     C23688   2.833   8.054   7.455  0.0094  0.4580 -0.7271
  938MOL0     C23689   2.781   8.104   7.336  0.3205  0.1810 -0.0554
  938MOL0     C23690   2.664   8.039   7.284  0.1808 -0.4258 -0.0577
  938MOL0     C23691   2.599   7.935   7.348  0.2239 -0.2295  0.5483
  938MOL0     O23692   2.481   7.882   7.302 -0.5008  0.2672  0.2461
  938MOL0     C23693   2.408   7.953   7.199  0.0869  0.7451  0.2497
  938MOL0     C23694   2.265   7.911   7.225  0.6440  0.3532  0.6745
  938MOL0     C23695   2.169   7.975   7.115 -0.2432  0.3378  0.1527
  938MOL0     C23696   2.029   7.916   7.142  0.5929 -0.1510 -0.0918
  938MOL0     C23697   1.915   7.998   7.074 -0.0280 -0.0601 -0.1684
  938MOL0     C23698   1.789   7.915   7.089 -0.6616  0.1928 -0.4835
  938MOL0     C23699   1.669   7.982   7.021  0.4126  0.5809 -0.2115
  938MOL0     C23700   1.666   7.965   6.875 -0.0848  0.4051 -0.7247
  938MOL0     N23701   1.549   8.028   6.812 -0.6383  0.4220 -0.2153
  938MOL0     C23702   1.426   7.974   6.790 -0.5617 -0.5958 -0.5901
  938MOL0     C23703   1.358   8.058   6.703  0.6985 -0.1994  0.4306
  938MOL0     C23704   1.223   8.033   6.644  0.8478  0.2356 -1.1227
  938MOL0     C23705   1.110   8.120   6.697 -0.4096 -0.1307 -0.0599
  938MOL0     C23706   1.004   8.143   6.589 -1.4926  0.3021  0.6832
  938MOL0     C23707   0.892   8.240   6.636  0.0366 -0.4104 -0.1117
  938MOL0     O23708   0.793   8.226   6.539 -0.6836  0.1209  0.0944
  938MOL0     C23709   0.667   8.291   6.534  0.3241  0.4327 -0.2291
  938MOL0     C23710   0.578   8.255   6.426  0.1368 -0.6059 -0.4342
  938MOL0     C23711   0.454   8.319   6.416 -0.5332  0.4114 -0.7865
  938MOL0     C23712   0.414   8.412   6.511 -0.0440  0.6105 -0.6522
  938MOL0     C23713   0.275   8.467   6.507  0.1194  0.0512 -0.2866
  938MOL0     O23714   0.182   8.405   6.439  0.2803  0.2483  0.9025
  938MOL0     C23715   0.055   8.435   6.416 -0.3085 -0.0366  0.3588
  938MOL0     C23716  -0.033   8.340   6.375 -0.5577 -0.4813 -0.3074
  938MOL0     C23717  -0.169   8.365   6.359  0.3910 -0.1673  0.4194
  938MOL0     C23718  -0.225   8.490   6.371 -0.6309 -0.3126  0.6509
  938MOL0     O23719  -0.365   8.507   6.347 -0.1116  0.4464 -0.3965
  938MOL0     C23720  -0.426   8.639   6.360 -0.1385 -0.0334  0.1252
  938MOL0     C23721  -0.556   8.637   6.282 -0.9615  0.3947  0.5489
  938MOL0     C23722  -0.649   8.527   6.317  0.3101 -0.3403  0.1899
  938MOL0     C23723  -0.691   8.535   6.466 -0.7011 -0.3837 -0.4962
  938MOL0     C23724  -0.796   8.435   6.512 -0.0385 -0.3883  0.7156
  938MOL0     C23725  -0.932   8.433   6.437  0.4967  0.1985  0.2124
  938MOL0     C23726  -1.014   8.562   6.431 -0.5489  0.2009  0.8600
  938MOL0     C23727  -1.075   8.597   6.576 -0.7935  0.6848  0.0340
  938MOL0    Cl23728  -1.203   8.486   6.625  0.1343  0.0471 -0.2399
  938MOL0     C23729  -0.141   8.594   6.411  0.2819  0.2315  0.0522
  938MOL0     C23730  -0.005   8.564   6.436 -0.4631  0.2498  0.1475
  938MOL0     O23731   0.272   8.581   6.554  0.6761  0.4356  0.4079
  938MOL0     C23732   0.507   8.439   6.616  0.0110  1.2023  1.0864
  938MOL0     C23733   0.631   8.382   6.632  0.7392 -0.5307  0.2809
  938MOL0     N23734   1.445   8.151   6.661  0.1449 -0.0488 -0.3735
  938MOL0     N23735   1.555   8.132   6.726  0.7073 -0.0733 -0.2770
  938MOL0     C23736   2.649   7.896   7.475  0.0642  0.7107 -0.7012
  938MOL0     C23737   2.768   7.945   7.530  0.2113 -0.7538  0.3457
  938MOL0     C23738   3.183   8.023   7.563  0.3501  0.2318 -0.7562
  938MOL0     C23739   3.190   8.121   7.664 -0.2971 -0.4157  0.1288
  938MOL0     C23740   3.314   8.161   7.723 -0.8127 -0.0990  0.9469
  938MOL0     C23741   3.437   8.100   7.688 -0.4270  1.0099 -0.4072
  938MOL0     O23742   3.547   8.153   7.753 -0.9320 -0.4771 -0.4485
  938MOL0     C23743   3.676   8.111   7.705 -0.7837  0.6714  0.9985
  938MOL0     C23744   3.780   8.176   7.781  0.3871 -0.3136 -0.1927
  938MOL0     C23745   3.918   8.113   7.754  0.4406  0.5403  0.4191
  938MOL0     C23746   3.946   7.967   7.804  0.4972  0.8710 -0.0398
  938MOL0     C23747   4.064   7.926   7.732  0.4352 -0.0557 -0.2392
  938MOL0     C23748   4.153   7.904   7.656 -0.5847 -0.2450 -0.4691
  938MOL0     C23749   3.432   7.995   7.594  0.5472  0.5643  0.2990
  938MOL0     C23750   3.309   7.960   7.532  0.0741 -0.0489  0.0253
  938MOL0     H23751   2.835   8.170   7.269  0.7546 -0.5097 -0.3963
  938MOL0     H23752   2.634   8.069   7.183  2.8812  2.0701 -0.2468
  938MOL0     H23753   2.444   7.924   7.100  0.0601 -0.0608  0.4729
  938MOL0     H23754   2.414   8.061   7.185 -0.6865  0.7385 -0.1964
  938MOL0     H23755   2.236   7.934   7.328  0.7273  0.0363  0.7725
  938MOL0     H23756   2.273   7.803   7.205  0.8682  0.2867  1.0993
  938MOL0     H23757   2.196   7.961   7.010 -3.0717 -1.3727 -0.4689
  938MOL0     H23758   2.158   8.083   7.128 -1.2037  0.4878 -1.5831
  938MOL0     H23759   2.029   7.811   7.112  0.0653  0.3753 -2.0354
  938MOL0     H23760   2.024   7.925   7.251  3.5926  0.4465  0.1045
  938MOL0     H23761   1.938   8.013   6.968  1.8614 -0.5189  0.1508
  938MOL0     H23762   1.913   8.093   7.128 -3.6136 -0.7540  1.2248
  938MOL0     H23763   1.764   7.903   7.195  1.1492 -2.1335 -0.2398
  938MOL0     H23764   1.798   7.818   7.039  0.7239 -0.1995  0.4730
  938MOL0     H23765   1.580   7.923   7.045  1.2527  0.3730  2.6744
  938MOL0     H23766   1.652   8.086   7.049  1.4439  0.3730  1.2768
  938MOL0     H23767   1.680   7.864   6.837 -0.3432  0.9225 -2.2783
  938MOL0     H23768   1.750   8.028   6.843 -2.5585  3.7606 -1.2814
  938MOL0     H23769   1.381   7.878   6.812  2.7629 -3.2100 -3.6858
  938MOL0     H23770   1.191   7.931   6.667 -1.3966  0.7637 -1.6299
  938MOL0     H23771   1.225   8.043   6.535 -2.5254 -4.1810 -1.8757
  938MOL0     H23772   1.150   8.213   6.740 -1.1691 -0.3726  1.2389
  938MOL0     H23773   1.068   8.071   6.786  1.1910  0.1068  0.8652
  938MOL0     H23774   1.045   8.190   6.500 -2.3331 -1.3333 -0.6092
  938MOL0     H23775   0.961   8.046   6.563  0.6326 -0.4094 -0.3896
  938MOL0     H23776   0.916   8.347   6.636 -1.4600 -0.0415 -1.4419
  938MOL0     H23777   0.856   8.214   6.736 -1.2317 -0.9747 -0.6935
  938MOL0     H23778   0.609   8.175   6.360  0.5722 -0.7931 -0.0065
  938MOL0     H23779   0.382   8.273   6.349  0.7360 -1.3552 -0.9933
  938MOL0     H23780   0.016   8.245   6.357  1.2380  0.4034 -0.2628
  938MOL0     H23781  -0.231   8.285   6.320 -2.3354  1.2465  1.5874
  938MOL0     H23782  -0.359   8.714   6.315  0.9255 -1.9604 -1.7212
  938MOL0     H23783  -0.450   8.666   6.463 -0.4586  0.1961 -0.0067
  938MOL0     H23784  -0.536   8.623   6.175 -2.0908  1.0313  0.2454
  938MOL0     H23785  -0.610   8.732   6.279  1.2263  1.7730  2.0797
  938MOL0     H23786  -0.616   8.425   6.294 -0.7869 -0.2608 -2.0455
  938MOL0     H23787  -0.743   8.537   6.262  0.4959 -2.4992 -0.6411
  938MOL0     H23788  -0.609   8.511   6.534 -2.6330 -1.1256  1.7078
  938MOL0     H23789  -0.727   8.634   6.498 -0.5825  0.0578 -1.6539
  938MOL0     H23790  -0.813   8.458   6.618 -0.9478 -2.5501  1.1047
  938MOL0     H23791  -0.743   8.339   6.516  2.8477  1.1018  0.8726
  938MOL0     H23792  -0.991   8.350   6.477  1.3077 -0.0718  0.8741
  938MOL0     H23793  -0.914   8.399   6.335 -0.3074 -1.2463  0.5179
  938MOL0     H23794  -0.944   8.636   6.391  0.3348 -1.4736 -0.8444
  938MOL0     H23795  -1.093   8.558   6.355 -0.0831 -0.6864  0.4098
  938MOL0     H23796  -1.106   8.702   6.582 -0.3816  0.7516  1.4308
  938MOL0     H23797  -1.004   8.585   6.659 -0.6030  1.1475 -0.0565
  938MOL0     H23798  -0.171   8.696   6.432  2.3536  1.0519 -0.6944
  938MOL0     H23799   0.060   8.647   6.462 -1.3933  0.6243  1.3841
  938MOL0     H23800   0.476   8.525   6.675 -3.3189  1.6444 -1.0632
  938MOL0     H23801   0.701   8.407   6.711  1.7912 -2.1394 -0.0837
  938MOL0     H23802   2.607   7.807   7.520  0.2102  0.7428 -0.5021
  938MOL0     H23803   2.807   7.899   7.620 -2.8407  0.1190  2.2767
  938MOL0     H23804   3.106   8.176   7.707 -1.5809 -1.0630 -1.4303
  938MOL0     H23805   3.320   8.238   7.798  0.4496  1.2038 -0.4116
  938MOL0     H23806   3.687   8.127   7.597  0.6849 -1.8450  0.7100
  938MOL0     H23807   3.677   8.005   7.731 -0.6599  0.6133  0.7498
  938MOL0     H23808   3.781   8.280   7.747  0.5944 -0.3256 -0.2293
  938MOL0     H23809   3.746   8.179   7.884 -0.4286 -2.3912 -0.3463
  938MOL0     H23810   3.997   8.178   7.794  1.9444 -1.0630  0.1714
  938MOL0     H23811   3.932   8.115   7.646  1.1141  5.9656  0.3106
  938MOL0     H23812   3.958   7.970   7.912  1.3973  2.1214 -0.1523
  938MOL0     H23813   3.861   7.904   7.774 -0.2919  0.1805  3.2440
  938MOL0     H23814   4.239   7.884   7.595 -0.1456  0.2821 -0.0361
  938MOL0     H23815   3.508   7.926   7.558 -1.1677 -2.1327  1.4918
  938MOL0     H23816   3.318   7.881   7.458  0.2142  1.8657 -2.1110
  939MOL0     O23817   3.839   2.232   6.956  0.2162  0.2139  0.1101
  939MOL0     C23818   3.886   2.348   6.941  0.3539  0.3152 -0.0032
  939MOL0     O23819   3.816   2.455   6.912 -0.4199 -0.6361  0.7120
  939MOL0     C23820   3.678   2.468   6.916  0.3802 -0.0635 -0.0459
  939MOL0     C23821   3.593   2.399   7.006 -0.5847  0.8414 -0.2504
  939MOL0     C23822   3.460   2.427   6.998 -0.0169 -0.1124 -0.3570
  939MOL0     C23823   3.402   2.511   6.907  1.3138 -0.4108  0.1984
  939MOL0     O23824   3.264   2.530   6.903  0.0416  0.2043  0.8150
  939MOL0     C23825   3.183   2.409   6.891  0.1914  0.4079 -0.1772
  939MOL0     C23826   3.037   2.466   6.869 -0.3071 -0.3694 -0.2309
  939MOL0     C23827   2.936   2.360   6.904 -0.2865 -0.1025  0.0818
  939MOL0     C23828   2.795   2.413   6.888 -0.6003  1.1403  0.4902
  939MOL0     C23829   2.692   2.303   6.933 -0.3719  0.7041  0.3053
  939MOL0     C23830   2.551   2.345   6.895 -0.0914  0.4131  0.0542
  939MOL0     C23831   2.445   2.255   6.949 -0.8332  0.5895 -0.9880
  939MOL0     C23832   2.305   2.300   6.911 -0.0473 -0.1414  0.7338
  939MOL0     N23833   2.201   2.195   6.925 -0.1468 -0.3300  1.2391
  939MOL0     C23834   2.134   2.133   6.817 -0.5739 -0.0146  0.3450
  939MOL0     C23835   2.081   2.030   6.879  0.6398  0.3018 -0.0976
  939MOL0     C23836   1.977   1.922   6.844 -0.1839  0.8576  0.0426
  939MOL0     C23837   1.844   1.989   6.837  0.4120 -0.6689  0.2477
  939MOL0     C23838   1.748   1.912   6.739  0.6649  0.7837  0.4081
  939MOL0     C23839   1.628   1.995   6.685 -0.4278 -0.4259  0.3638
  939MOL0     O23840   1.557   2.051   6.797  0.4906 -0.3193  0.6548
  939MOL0     C23841   1.427   2.015   6.836  0.2356 -0.2326 -0.4739
  939MOL0     C23842   1.361   1.899   6.792 -0.5262  0.2938  0.0391
  939MOL0     C23843   1.232   1.860   6.840  1.2042 -0.8144  0.2230
  939MOL0     C23844   1.161   1.942   6.933  0.3421  1.3189 -0.1840
  939MOL0     C23845   1.024   1.907   6.982 -0.5241  0.3509 -0.5766
  939MOL0     O23846   0.965   1.801   6.923 -0.1148 -0.1005 -0.5336
  939MOL0     C23847   0.830   1.765   6.949 -0.6265 -0.9922 -0.9377
  939MOL0     C23848   0.802   1.727   7.083 -0.9545  0.5094 -0.1236
  939MOL0     C23849   0.673   1.682   7.107 -0.6160 -0.6876 -0.8390
  939MOL0     C23850   0.580   1.659   7.004 -1.7682 -0.7044  0.0973
  939MOL0     O23851   0.463   1.599   7.043 -0.9609  0.7076 -0.1572
  939MOL0     C23852   0.354   1.564   6.958  0.1482  0.2612  0.5525
  939MOL0     C23853   0.265   1.497   7.056 -0.0852  0.1211 -0.6734
  939MOL0     C23854   0.126   1.485   7.000  0.6530  0.2718 -0.3679
  939MOL0     C23855   0.039   1.437   7.113  0.1307 -0.0040  0.2614
  939MOL0     C23856  -0.106   1.448   7.077  0.1883 -0.4022  0.1682
  939MOL0     C23857  -0.162   1.316   7.013 -0.0215 -0.2378 -0.6851
  939MOL0     C23858  -0.310   1.303   7.062 -0.2615  0.7220 -0.4772
  939MOL0     C23859  -0.324   1.231   7.196  0.0727  0.6127 -0.8820
  939MOL0    Cl23860  -0.490   1.217   7.255 -0.4006  0.1207 -0.3488
  939MOL0     C23861   0.615   1.686   6.871 -0.6164 -0.6933  0.1404
  939MOL0     C23862   0.737   1.750   6.847 -0.4778  0.4155  0.4064
  939MOL0     O23863   0.975   1.975   7.075  0.3202  0.1570  0.0601
  939MOL0     C23864   1.224   2.060   6.981 -0.3659  1.0830  1.0129
  939MOL0     C23865   1.353   2.094   6.930  0.4225 -0.1720  0.1047
  939MOL0     N23866   2.113   2.025   7.014 -0.1921  0.4491 -0.0985
  939MOL0     N23867   2.186   2.124   7.041 -0.3070 -0.6327 -0.7684
  939MOL0     C23868   3.477   2.573   6.812  0.2752 -0.4255 -0.7129
  939MOL0     C23869   3.617   2.550   6.820  0.5103  0.0493 -0.4834
  939MOL0     C23870   4.025   2.376   6.974 -1.0077  0.0642  0.1051
  939MOL0     C23871   4.116   2.272   6.988  0.2287  0.7934 -0.3533
  939MOL0     C23872   4.244   2.299   7.031  0.8316  0.2108  0.4909
  939MOL0     C23873   4.289   2.430   7.059 -0.3308 -0.3386 -0.4141
  939MOL0     O23874   4.417   2.441   7.114 -0.1963  0.4921 -0.5289
  939MOL0     C23875   4.472   2.569   7.131  0.0481  0.5901 -0.6002
  939MOL0     C23876   4.628   2.570   7.155  0.3436 -0.5503 -0.6184
  939MOL0     C23877   4.702   2.464   7.069  1.3120  0.2869 -0.6497
  939MOL0     C23878   4.848   2.466   7.108 -1.2505 -0.8517 -0.0755
  939MOL0     C23879   4.943   2.439   7.001  0.2855 -0.0524  0.2393
  939MOL0     C23880   5.019   2.425   6.911  0.7624 -1.0149  0.1940
  939MOL0     C23881   4.200   2.534   7.042 -0.6195 -0.0363 -1.0306
  939MOL0     C23882   4.068   2.508   7.004 -0.3595  0.3598 -0.0166
  939MOL0     H23883   3.639   2.334   7.080  0.7430  2.0526  0.0243
  939MOL0     H23884   3.404   2.388   7.082  1.8988  2.4200  2.2966
  939MOL0     H23885   3.188   2.351   6.984  2.4197  1.5773  0.5233
  939MOL0     H23886   3.214   2.348   6.806 -0.7856  2.9354 -2.4949
  939MOL0     H23887   3.023   2.502   6.766  2.3563  2.8649  0.3794
  939MOL0     H23888   3.035   2.554   6.933  4.6146  0.0907 -0.3432
  939MOL0     H23889   2.952   2.339   7.010  0.0655  0.0142  0.0514
  939MOL0     H23890   2.943   2.271   6.841  1.5699 -1.2189  1.7856
  939MOL0     H23891   2.775   2.498   6.954 -0.6558  1.2610  0.3187
  939MOL0     H23892   2.782   2.441   6.783  4.0440  0.9335 -0.3739
  939MOL0     H23893   2.706   2.287   7.041 -0.2534  0.2837  0.2304
  939MOL0     H23894   2.717   2.207   6.886 -1.1987  0.5012  0.2545
  939MOL0     H23895   2.544   2.337   6.786  0.4362  0.4679  0.0112
  939MOL0     H23896   2.526   2.445   6.932  0.7489  0.5824  0.2018
  939MOL0     H23897   2.468   2.158   6.904 -0.4300  0.0227  0.3704
  939MOL0     H23898   2.447   2.257   7.059 -1.0058  3.6003 -0.9742
  939MOL0     H23899   2.293   2.326   6.805  1.5719 -0.9060  0.3242
  939MOL0     H23900   2.269   2.386   6.968 -2.7159 -0.0944 -0.8445
  939MOL0     H23901   2.118   2.152   6.712 -0.3911  0.3380  0.3799
  939MOL0     H23902   1.970   1.844   6.920  3.4031  0.9172  0.6124
  939MOL0     H23903   2.014   1.878   6.751  1.0570  0.2087  0.8138
  939MOL0     H23904   1.863   2.091   6.803 -1.7613  0.0828  1.1157
  939MOL0     H23905   1.797   2.003   6.934 -0.7214  2.1714 -0.6011
  939MOL0     H23906   1.799   1.863   6.655 -2.8507 -0.5392 -1.1463
  939MOL0     H23907   1.702   1.835   6.801  1.1763  1.3726  1.5579
  939MOL0     H23908   1.561   1.932   6.625 -2.1288 -0.3790  2.1464
  939MOL0     H23909   1.665   2.076   6.621 -2.8968  1.3400  1.0394
  939MOL0     H23910   1.409   1.842   6.714  1.3745  2.9327 -0.8564
  939MOL0     H23911   1.176   1.768   6.824 -2.4684  0.9708  1.7532
  939MOL0     H23912   0.886   1.752   7.147  2.9070 -0.8005 -4.1515
  939MOL0     H23913   0.647   1.674   7.212  1.2803  2.9801  0.0676
  939MOL0     H23914   0.387   1.502   6.875  1.1274  1.4970  0.0006
  939MOL0     H23915   0.306   1.653   6.918  0.1513  0.2618  0.5500
  939MOL0     H23916   0.264   1.554   7.149  1.7929  0.3181 -0.7347
  939MOL0     H23917   0.302   1.396   7.078 -2.6107 -0.6491  0.3886
  939MOL0     H23918   0.112   1.412   6.920 -1.6933  0.5992 -0.3099
  939MOL0     H23919   0.087   1.580   6.961 -1.1947 -1.2121 -2.3669
  939MOL0     H23920   0.066   1.336   7.147 -0.2205  0.0034  0.5687
  939MOL0     H23921   0.049   1.512   7.192  0.9951  0.8690 -0.6557
  939MOL0     H23922  -0.122   1.522   6.997  0.1946 -0.3092  0.2532
  939MOL0     H23923  -0.165   1.472   7.166  1.2320 -2.0872  1.3751
  939MOL0     H23924  -0.105   1.228   7.045  0.9150  0.1580 -1.2359
  939MOL0     H23925  -0.180   1.321   6.906 -0.6438 -2.2449 -0.7254
  939MOL0     H23926  -0.356   1.401   7.076 -0.1637  0.6040  0.7950
  939MOL0     H23927  -0.356   1.250   6.978  0.3837  0.7490 -0.8495
  939MOL0     H23928  -0.264   1.291   7.265 -0.8649 -0.1371  0.6493
  939MOL0     H23929  -0.284   1.130   7.181 -0.5159  0.2567 -0.1488
  939MOL0     H23930   0.549   1.667   6.787 -1.3961 -0.5711  0.7165
  939MOL0     H23931   0.758   1.766   6.741 -1.5424 -1.9263 -0.2230
  939MOL0     H23932   1.192   2.129   7.059 -1.4042  3.0719 -1.0408
  939MOL0     H23933   1.400   2.182   6.973  0.7743  0.0220 -0.6562
  939MOL0     H23934   3.427   2.648   6.751  0.1990  0.8858  0.8894
  939MOL0     H23935   3.680   2.611   6.756  1.4822  0.0043  0.4064
  939MOL0     H23936   4.098   2.167   6.969  2.3067  0.6684 -2.0769
  939MOL0     H23937   4.307   2.214   7.055 -2.1264 -2.4385 -0.3797
  939MOL0     H23938   4.426   2.628   7.212  0.7926 -1.4726  1.4407
  939MOL0     H23939   4.463   2.619   7.034  1.7634 -0.2123 -1.2180
  939MOL0     H23940   4.671   2.668   7.132 -0.8835 -0.1719 -1.4160
  939MOL0     H23941   4.639   2.558   7.263 -0.9552  1.5283 -0.1936
  939MOL0     H23942   4.680   2.494   6.967  1.6421  2.2344 -0.1862
  939MOL0     H23943   4.663   2.362   7.076  0.7105  0.5843  0.6569
  939MOL0     H23944   4.870   2.560   7.158 -1.9476 -1.9324  2.4311
  939MOL0     H23945   4.866   2.386   7.180  1.3809  1.7352  2.3499
  939MOL0     H23946   5.083   2.411   6.826 -2.4137 -2.5708 -2.1677
  939MOL0     H23947   4.224   2.639   7.051 -3.1076  0.5019  0.1566
  939MOL0     H23948   3.994   2.588   7.008  1.4890  2.1011  1.9613
  940MOL0     O23949  10.425   7.688   9.784  0.1697  0.8487 -0.7877
  940MOL0     C23950  10.437   7.761   9.687  0.0261 -0.0583 -0.1958
  940MOL0     O23951  10.558   7.808   9.632  1.0075 -0.3667 -0.3454
  940MOL0     C23952  10.676   7.750   9.662  0.2633  0.4117 -0.1570
  940MOL0     C23953  10.796   7.820   9.644  0.2320 -0.0130  0.2020
  940MOL0     C23954  10.919   7.778   9.652 -0.0063 -0.3774 -0.7037
  940MOL0     C23955  10.950   7.649   9.699  0.5954 -1.5152 -0.2750
  940MOL0     O23956  11.083   7.608   9.716 -0.5977 -0.5360  0.1184
  940MOL0     C23957  11.119   7.512   9.817 -0.2752  0.8675 -0.0508
  940MOL0     C23958  11.268   7.479   9.819  1.6486  1.2250  0.4091
  940MOL0     C23959  11.345   7.571   9.917 -0.4474 -0.6519  0.9463
  940MOL0     C23960  11.497   7.588   9.876 -0.9330  0.4012 -0.0213
  940MOL0     C23961  11.593   7.624   9.984 -1.0852 -0.3545 -0.1006
  940MOL0     C23962  11.573   7.776  10.027 -0.5666 -0.6791  0.6774
  940MOL0     C23963  11.527   7.879   9.924  0.3016 -0.1931 -0.8471
  940MOL0     C23964  11.628   7.905   9.816 -0.2268 -0.1247  0.4225
  940MOL0     N23965  11.749   7.986   9.861  0.5087 -0.8922 -0.1886
  940MOL0     C23966  11.757   8.125   9.855  0.7836 -0.2441  0.1589
  940MOL0     C23967  11.875   8.156   9.911 -0.3485 -0.6446 -0.0666
  940MOL0     C23968  11.926   8.291   9.941 -0.3462 -0.4373  0.0941
  940MOL0     C23969  11.988   8.359   9.811  0.2717 -0.0899  0.4585
  940MOL0     C23970  12.046   8.494   9.840  0.4769  1.0463 -0.5444
  940MOL0     C23971  12.140   8.544   9.727 -0.3572 -0.3823 -0.0691
  940MOL0     O23972  12.065   8.600   9.617 -0.2924  1.3863  0.0667
  940MOL0     C23973  12.129   8.680   9.520  1.1814 -0.4855  0.7342
  940MOL0     C23974  12.263   8.717   9.527 -0.1777 -0.8711  0.4154
  940MOL0     C23975  12.320   8.791   9.428  0.1206  0.2430 -0.0283
  940MOL0     C23976  12.244   8.842   9.321 -0.0230 -0.8024  0.1535
  940MOL0     C23977  12.316   8.907   9.205  0.4303  0.3817 -0.0178
  940MOL0     O23978  12.434   8.974   9.234 -0.7280 -0.0426 -0.1375
  940MOL0     C23979  12.511   9.036   9.143  0.0565 -0.3501 -0.1935
  940MOL0     C23980  12.515   9.011   9.003 -0.4600  0.2080 -0.2499
  940MOL0     C23981  12.622   9.057   8.924 -0.0057 -0.8109 -0.6812
  940MOL0     C23982  12.716   9.133   8.979  0.6271  0.8006  0.1533
  940MOL0     O23983  12.796   9.192   8.888 -0.1639  0.8839  0.1055
  940MOL0     C23984  12.920   9.258   8.926 -0.4637 -0.5653  0.0768
  940MOL0     C23985  12.986   9.289   8.788  0.2275  0.3135 -0.0371
  940MOL0     C23986  13.128   9.328   8.816  0.7656 -0.6051  0.2448
  940MOL0     C23987  13.179   9.427   8.710  0.1534 -0.5852 -0.2840
  940MOL0     C23988  13.114   9.567   8.711  0.0046 -0.0724 -0.0736
  940MOL0     C23989  13.217   9.677   8.674 -0.0592  0.3093  1.6186
  940MOL0     C23990  13.141   9.813   8.667 -0.4901  0.3153 -0.2557
  940MOL0     C23991  13.217   9.931   8.603 -0.2647  0.9121 -0.0035
  940MOL0    Cl23992  13.365   9.990   8.687  0.2731 -0.0456  0.0558
  940MOL0     C23993  12.718   9.161   9.119  0.9022  0.1478 -0.6377
  940MOL0     C23994  12.616   9.104   9.207 -0.2972  0.0401  1.1086
  940MOL0     O23995  12.266   8.888   9.095  0.1866  0.5799  0.4274
  940MOL0     C23996  12.107   8.794   9.314 -0.5151  0.3747 -0.3093
  940MOL0     C23997  12.052   8.719   9.416 -0.3500 -0.5966  0.3271
  940MOL0     N23998  11.942   8.039   9.949 -0.3572  0.2020 -0.1582
  940MOL0     N23999  11.858   7.940   9.934  0.9094  0.6183 -1.1906
  940MOL0     C24000  10.836   7.567   9.701 -0.0069  0.4092  0.5266
  940MOL0     C24001  10.705   7.614   9.691 -0.1996  0.5984  0.5113
  940MOL0     C24002  10.303   7.804   9.635 -0.0970 -0.5636 -0.7691
  940MOL0     C24003  10.299   7.861   9.508  0.1549  0.1795 -0.4532
  940MOL0     C24004  10.184   7.923   9.459 -0.1250  0.6383 -0.3918
  940MOL0     C24005  10.060   7.917   9.532 -1.0249 -0.0587 -0.4561
  940MOL0     O24006   9.943   7.978   9.502  0.2132 -0.5465  0.4472
  940MOL0     C24007   9.927   8.027   9.368  0.1185 -0.1654  0.8638
  940MOL0     C24008   9.774   8.044   9.326 -0.3374  0.3732 -0.6359
  940MOL0     C24009   9.701   8.150   9.412 -0.9238  0.0729  0.1251
  940MOL0     C24010   9.551   8.163   9.376 -0.4830 -0.1556  0.5242
  940MOL0     C24011   9.473   8.234   9.481 -0.5730 -0.2309 -0.1638
  940MOL0     C24012   9.403   8.307   9.552 -0.1679  0.5739  0.6070
  940MOL0     C24013  10.059   7.847   9.662 -1.0247  0.5440  0.1708
  940MOL0     C24014  10.181   7.795   9.711 -0.8535 -0.4480  0.3880
  940MOL0     H24015  10.783   7.926   9.627 -0.3190 -0.0793  0.1745
  940MOL0     H24016  11.007   7.840   9.641  0.2396 -0.1627  1.9072
  940MOL0     H24017  11.068   7.419   9.789  1.4243  0.2804 -1.3306
  940MOL0     H24018  11.079   7.531   9.917 -1.9048 -0.5406 -0.3809
  940MOL0     H24019  11.303   7.482   9.715  1.4002 -0.6588  0.2368
  940MOL0     H24020  11.281   7.380   9.863  0.3028  0.2595 -1.2495
  940MOL0     H24021  11.326   7.537  10.020  0.8006 -2.1908  0.7065
  940MOL0     H24022  11.308   7.673   9.905 -0.3669 -0.8752 -1.9012
  940MOL0     H24023  11.532   7.491   9.839  1.5636 -0.3223  3.6803
  940MOL0     H24024  11.501   7.659   9.792 -2.8361  0.4390 -0.1186
  940MOL0     H24025  11.700   7.620   9.961  0.2125  0.0806  4.7217
  940MOL0     H24026  11.591   7.555  10.069 -1.0504  0.4504  0.5671
  940MOL0     H24027  11.669   7.815  10.061  0.2298  0.1164 -2.2437
  940MOL0     H24028  11.503   7.768  10.110  2.9439 -0.9694  3.8919
  940MOL0     H24029  11.432   7.854   9.876  1.0361  3.1229 -4.5022
  940MOL0     H24030  11.513   7.971   9.983  0.7536 -0.4768 -0.2836
  940MOL0     H24031  11.571   7.950   9.734  2.4074  1.6028 -0.6104
  940MOL0     H24032  11.667   7.810   9.779 -2.0448 -1.4455  1.7316
  940MOL0     H24033  11.682   8.194   9.816 -0.7621 -1.6201  0.5948
  940MOL0     H24034  12.003   8.291  10.018 -0.1603  0.7327 -0.0655
  940MOL0     H24035  11.850   8.362   9.975  0.9868 -0.1402  2.7388
  940MOL0     H24036  11.909   8.380   9.739  0.9750  1.9865  0.1983
  940MOL0     H24037  12.065   8.290   9.773 -0.0710  0.0946 -0.6042
  940MOL0     H24038  11.969   8.571   9.850 -1.9852 -1.2656 -0.4266
  940MOL0     H24039  12.100   8.494   9.936 -0.9904  1.6686  0.3159
  940MOL0     H24040  12.197   8.462   9.683  0.6305  0.8398 -1.1683
  940MOL0     H24041  12.213   8.612   9.773  0.4357 -0.4527 -1.1813
  940MOL0     H24042  12.326   8.682   9.608 -1.6346 -2.1138  1.0635
  940MOL0     H24043  12.427   8.809   9.426  0.3006 -0.8243 -1.5483
  940MOL0     H24044  12.436   8.944   8.970 -0.0513  0.4695 -1.8373
  940MOL0     H24045  12.620   9.041   8.817 -4.5971  0.0819 -0.9476
  940MOL0     H24046  12.991   9.193   8.978  0.1256 -2.7715 -3.1429
  940MOL0     H24047  12.902   9.349   8.983 -0.3051  0.5523 -1.5680
  940MOL0     H24048  12.930   9.372   8.743  2.6487  1.7601 -0.5764
  940MOL0     H24049  12.997   9.203   8.720 -2.0893 -0.1150  0.0499
  940MOL0     H24050  13.198   9.245   8.821  2.3156  0.6996  2.4243
  940MOL0     H24051  13.126   9.372   8.916  1.1356 -1.8942  0.8405
  940MOL0     H24052  13.287   9.428   8.731  0.6906 -0.5785 -2.7238
  940MOL0     H24053  13.161   9.385   8.611 -1.2336  0.3296 -0.4395
  940MOL0     H24054  13.079   9.588   8.812 -0.7367 -0.8705 -0.1462
  940MOL0     H24055  13.031   9.559   8.640 -0.3172 -1.7233  0.4497
  940MOL0     H24056  13.256   9.653   8.575 -0.0506 -1.4857  2.0114
  940MOL0     H24057  13.304   9.672   8.741  2.0806 -4.5380 -1.0496
  940MOL0     H24058  13.043   9.815   8.617 -1.1982 -0.2329  1.0560
  940MOL0     H24059  13.115   9.840   8.769  3.0206 -0.4651  0.9624
  940MOL0     H24060  13.151  10.018   8.607  0.2603  1.3132  0.0836
  940MOL0     H24061  13.240   9.904   8.500 -1.2807 -2.7286  0.5740
  940MOL0     H24062  12.793   9.230   9.158  2.0295 -1.9011  1.0148
  940MOL0     H24063  12.612   9.108   9.315 -2.0011 -1.3126  1.1400
  940MOL0     H24064  12.045   8.811   9.226  2.7990  2.4699 -2.4522
  940MOL0     H24065  11.953   8.676   9.413  0.1943 -1.8984  0.5301
  940MOL0     H24066  10.845   7.462   9.723 -1.1905 -0.3674 -2.2431
  940MOL0     H24067  10.624   7.542   9.689  0.0108  0.3713 -1.6394
  940MOL0     H24068  10.392   7.867   9.453  0.8311  0.3575  0.6773
  940MOL0     H24069  10.196   7.975   9.364 -0.7581  0.8867 -0.3375
  940MOL0     H24070   9.986   7.975   9.292  1.4901  1.6662  0.6025
  940MOL0     H24071   9.957   8.132   9.370  0.6759 -0.3330  1.5644
  940MOL0     H24072   9.764   8.083   9.224 -0.8072 -0.4018 -0.8934
  940MOL0     H24073   9.734   7.944   9.344  0.7506 -0.1529 -1.0217
  940MOL0     H24074   9.755   8.245   9.415 -2.2625  0.8570  3.4287
  940MOL0     H24075   9.705   8.115   9.515  0.1184  4.3032  1.6938
  940MOL0     H24076   9.532   8.202   9.275  1.8207 -1.1962 -0.3601
  940MOL0     H24077   9.505   8.065   9.364  0.4032 -0.6419  1.0651
  940MOL0     H24078   9.372   8.378   9.625  2.5024  0.3820  2.0527
  940MOL0     H24079   9.973   7.839   9.727 -0.5492  0.8601  0.8485
  940MOL0     H24080  10.174   7.746   9.808 -0.1793 -1.4698 -0.0573
  941MOL0     O24081   2.372   3.621   4.182 -0.5432 -1.0956  1.0160
  941MOL0     C24082   2.402   3.726   4.239 -0.9517  0.3097  0.8860
  941MOL0     O24083   2.331   3.833   4.259 -0.2866  0.1051  0.4931
  941MOL0     C24084   2.198   3.848   4.246 -0.0753 -0.0582  0.4116
  941MOL0     C24085   2.114   3.762   4.169  0.4585  0.1422  0.9103
  941MOL0     C24086   1.976   3.783   4.175  0.2502 -0.9079 -0.7470
  941MOL0     C24087   1.922   3.901   4.235 -0.3784  0.2889 -0.4543
  941MOL0     O24088   1.790   3.933   4.246 -0.2233  0.7350  0.2206
  941MOL0     C24089   1.689   3.878   4.167  1.0746 -1.0220  0.1786
  941MOL0     C24090   1.568   3.973   4.178  0.0249 -0.3659  0.4964
  941MOL0     C24091   1.523   4.007   4.315  0.2737 -0.6524 -0.5165
  941MOL0     C24092   1.475   3.886   4.391 -0.2041  1.1592 -0.3755
  941MOL0     C24093   1.346   3.920   4.466 -0.1571 -0.3520  0.5018
  941MOL0     C24094   1.269   3.792   4.519 -0.1102 -0.5009  0.1982
  941MOL0     C24095   1.176   3.826   4.632  0.4215 -0.8755 -0.1861
  941MOL0     C24096   1.109   3.694   4.679 -0.4599  0.0065 -0.2128
  941MOL0     N24097   1.003   3.718   4.777  0.9200  0.1637 -1.0057
  941MOL0     C24098   1.019   3.761   4.906 -0.1865  0.3098  0.4047
  941MOL0     C24099   0.888   3.775   4.959 -0.6397  0.0528 -0.2279
  941MOL0     C24100   0.858   3.826   5.097  0.6648  0.4134  0.0070
  941MOL0     C24101   0.701   3.814   5.127 -0.6021  0.6394 -0.2728
  941MOL0     C24102   0.623   3.908   5.043  0.0625  0.2678  0.0178
  941MOL0     C24103   0.480   3.933   5.102  0.4682  0.5115 -0.7386
  941MOL0     O24104   0.434   3.798   5.135 -0.3264 -0.2258  0.6242
  941MOL0     C24105   0.307   3.766   5.171 -0.4149 -0.4147  0.1616
  941MOL0     C24106   0.280   3.633   5.183 -0.8305  1.3871 -0.1532
  941MOL0     C24107   0.150   3.588   5.206  0.8954 -0.7860  1.2101
  941MOL0     C24108   0.042   3.684   5.234 -0.7272 -0.7211  0.3346
  941MOL0     C24109  -0.100   3.637   5.262  1.2159 -0.1684  0.9535
  941MOL0     O24110  -0.122   3.510   5.295 -1.0383  0.0701 -0.1373
  941MOL0     C24111  -0.246   3.478   5.311 -0.2315 -0.3097  0.1372
  941MOL0     C24112  -0.299   3.468   5.442 -1.2318 -0.4851  0.3363
  941MOL0     C24113  -0.433   3.435   5.458 -0.7787 -0.1462  0.1189
  941MOL0     C24114  -0.518   3.411   5.344 -0.6996 -0.3563 -0.2333
  941MOL0     O24115  -0.650   3.383   5.378  0.4183 -0.1839  0.3250
  941MOL0     C24116  -0.761   3.380   5.282 -0.0916  0.3399 -0.5998
  941MOL0     C24117  -0.879   3.311   5.351 -0.2530 -0.3328  0.0480
  941MOL0     C24118  -0.975   3.313   5.233 -0.3865 -0.4214 -0.0529
  941MOL0     C24119  -1.106   3.243   5.263 -0.7275  0.1386  0.0916
  941MOL0     C24120  -1.179   3.289   5.395 -0.2947 -0.3532 -0.2868
  941MOL0     C24121  -1.307   3.204   5.420  0.0553 -0.5923  0.1068
  941MOL0     C24122  -1.403   3.192   5.305  0.4192  0.2789 -0.1676
  941MOL0     C24123  -1.489   3.319   5.276 -0.5985  0.2007 -0.0195
  941MOL0    Cl24124  -1.616   3.269   5.156  0.0728 -0.3232 -0.4450
  941MOL0     C24125  -0.465   3.425   5.220 -0.7210 -0.3900  0.1914
  941MOL0     C24126  -0.324   3.456   5.200  0.6722 -0.3774  0.7050
  941MOL0     O24127  -0.191   3.720   5.236  0.0974 -0.2005 -0.3783
  941MOL0     C24128   0.073   3.820   5.229  1.1835  0.3829  0.1722
  941MOL0     C24129   0.204   3.857   5.203 -0.2638  0.5501  0.5831
  941MOL0     N24130   0.805   3.732   4.861 -0.3084  0.3529 -0.4202
  941MOL0     N24131   0.864   3.700   4.751 -0.0319 -0.0710 -0.3785
  941MOL0     C24132   2.004   3.987   4.299 -0.5785 -0.7583 -0.3656
  941MOL0     C24133   2.143   3.961   4.303  0.1672 -0.5760  0.1796
  941MOL0     C24134   2.540   3.733   4.294  0.6632 -0.4942  0.7877
  941MOL0     C24135   2.651   3.658   4.238  0.1839 -0.0384  0.3991
  941MOL0     C24136   2.778   3.677   4.283 -0.0277 -0.0910  0.2818
  941MOL0     C24137   2.801   3.774   4.387 -0.3651  0.0054 -0.3637
  941MOL0     O24138   2.929   3.794   4.437 -0.5026  0.6035 -0.2321
  941MOL0     C24139   3.027   3.710   4.383  0.2326  0.3443 -0.4857
  941MOL0     C24140   3.163   3.746   4.442  0.3031 -0.1229  0.0132
  941MOL0     C24141   3.274   3.684   4.363  0.6000  1.4400  0.8680
  941MOL0     C24142   3.404   3.721   4.428 -0.3124  0.1679  0.2117
  941MOL0     C24143   3.524   3.667   4.359  0.1247  0.6170  0.1120
  941MOL0     C24144   3.613   3.627   4.287  0.5004  0.3169 -0.6967
  941MOL0     C24145   2.697   3.836   4.448  0.3255  0.4226 -0.1882
  941MOL0     C24146   2.563   3.819   4.402  0.3246 -0.1772 -0.4729
  941MOL0     H24147   2.156   3.679   4.113 -2.2717 -0.0377 -1.0430
  941MOL0     H24148   1.909   3.706   4.136 -0.9095 -0.4532  0.2703
  941MOL0     H24149   1.659   3.778   4.199  0.7954 -0.5135  1.5769
  941MOL0     H24150   1.718   3.880   4.061  1.0703 -1.7424  0.1643
  941MOL0     H24151   1.480   3.940   4.122 -0.9241  1.2384  0.9680
  941MOL0     H24152   1.598   4.071   4.137  0.1399 -0.5106  0.2306
  941MOL0     H24153   1.431   4.066   4.312  1.0910  0.7520  0.7984
  941MOL0     H24154   1.600   4.056   4.375 -0.7301  0.1893  0.1265
  941MOL0     H24155   1.454   3.807   4.319 -2.3136 -0.4231  1.8053
  941MOL0     H24156   1.555   3.851   4.458 -1.1219  0.0304  0.1652
  941MOL0     H24157   1.278   3.975   4.401  1.8008  1.2304 -0.3007
  941MOL0     H24158   1.371   3.992   4.544  0.0059  1.0252 -0.7777
  941MOL0     H24159   1.354   3.732   4.552  1.5781  0.7616 -1.6283
  941MOL0     H24160   1.222   3.735   4.438  0.6744 -3.1130  1.4736
  941MOL0     H24161   1.236   3.867   4.715 -0.8622 -0.5335  0.6041
  941MOL0     H24162   1.100   3.891   4.589  0.0432  0.4095  2.2273
  941MOL0     H24163   1.188   3.632   4.722 -1.2245 -0.3946  0.6704
  941MOL0     H24164   1.070   3.642   4.591  0.7710 -0.5255 -0.4595
  941MOL0     H24165   1.110   3.768   4.964  0.6728 -2.7570 -0.3988
  941MOL0     H24166   0.886   3.931   5.110 -3.4261  2.2064 -3.3907
  941MOL0     H24167   0.916   3.759   5.162  1.2844  0.0215 -0.9258
  941MOL0     H24168   0.691   3.843   5.232 -2.1223  1.3050 -0.5761
  941MOL0     H24169   0.670   3.714   5.098  1.8973  0.4583 -2.8360
  941MOL0     H24170   0.669   3.998   5.003 -0.5446  1.4638  1.8826
  941MOL0     H24171   0.615   3.868   4.941  0.8891 -2.0194  0.7852
  941MOL0     H24172   0.406   3.981   5.037  1.1354  2.7513  0.0761
  941MOL0     H24173   0.473   3.994   5.192 -2.7997 -1.2656  0.3966
  941MOL0     H24174   0.360   3.565   5.154 -1.0938  1.9633 -2.3745
  941MOL0     H24175   0.130   3.482   5.196 -1.1872 -0.5354  2.1820
  941MOL0     H24176  -0.229   3.495   5.520  0.8867  0.4775 -1.7811
  941MOL0     H24177  -0.481   3.435   5.555  0.1503 -3.5907  0.7232
  941MOL0     H24178  -0.716   3.319   5.204 -0.2638 -1.1347  0.4061
  941MOL0     H24179  -0.792   3.475   5.237 -1.4957  0.1527 -0.0680
  941MOL0     H24180  -0.935   3.364   5.428  2.6071  0.1218  1.9192
  941MOL0     H24181  -0.855   3.213   5.393 -2.0025 -1.1011 -0.6113
  941MOL0     H24182  -0.935   3.258   5.147 -1.9026 -0.5863 -0.6882
  941MOL0     H24183  -0.991   3.416   5.200  2.6952  0.1373 -0.0494
  941MOL0     H24184  -1.163   3.247   5.170  0.8485 -1.7439 -1.0089
  941MOL0     H24185  -1.089   3.136   5.271  1.6060  0.1772 -2.7955
  941MOL0     H24186  -1.205   3.395   5.384  3.3044  0.9608  2.1377
  941MOL0     H24187  -1.110   3.290   5.480 -0.4649 -2.7756 -0.0573
  941MOL0     H24188  -1.362   3.250   5.503 -1.3812  2.6270 -2.4107
  941MOL0     H24189  -1.274   3.103   5.445 -0.7862 -0.7524  0.5993
  941MOL0     H24190  -1.362   3.151   5.213 -0.1931 -1.8441  0.4574
  941MOL0     H24191  -1.467   3.113   5.347  0.9701  0.5791  1.3006
  941MOL0     H24192  -1.425   3.399   5.241  2.6007 -0.8521  2.8691
  941MOL0     H24193  -1.531   3.364   5.366  0.7021 -2.7589  2.2613
  941MOL0     H24194  -0.529   3.404   5.135 -0.8848  1.2601 -0.1215
  941MOL0     H24195  -0.264   3.462   5.110  2.7897  0.6022  2.1112
  941MOL0     H24196  -0.008   3.891   5.236  0.0330 -0.7183 -1.4772
  941MOL0     H24197   0.220   3.963   5.187 -2.1201  0.7069 -0.5842
  941MOL0     H24198   1.954   4.066   4.355 -1.8401 -0.4851 -1.7917
  941MOL0     H24199   2.209   4.030   4.354  0.9939 -0.4873 -0.9700
  941MOL0     H24200   2.631   3.578   4.167  3.8625  0.1479 -1.0627
  941MOL0     H24201   2.853   3.611   4.240 -0.6365 -1.1758  0.8563
  941MOL0     H24202   3.030   3.717   4.274  1.3656 -0.6484 -0.5401
  941MOL0     H24203   3.011   3.604   4.404  2.7818 -0.0926 -0.4159
  941MOL0     H24204   3.174   3.855   4.433  2.3301 -0.3737 -1.0035
  941MOL0     H24205   3.157   3.729   4.549 -1.8554  1.8813  0.3160
  941MOL0     H24206   3.279   3.716   4.258 -1.6413 -0.1298  0.2121
  941MOL0     H24207   3.264   3.575   4.363 -0.8764  1.5512  0.7220
  941MOL0     H24208   3.420   3.829   4.422  2.0190 -0.1239  0.5327
  941MOL0     H24209   3.414   3.705   4.536  0.8549 -0.8760 -0.0283
  941MOL0     H24210   3.688   3.587   4.221 -0.7856 -1.7162 -1.0364
  941MOL0     H24211   2.716   3.905   4.530 -2.1178  1.4124 -0.3498
  941MOL0     H24212   2.482   3.870   4.453  1.0869  0.1967  0.4102
  942MOL0     O24213   7.397   9.479   1.020 -0.6693  0.8438  0.4353
  942MOL0     C24214   7.372   9.457   1.139 -0.0254 -0.9630  0.1112
  942MOL0     O24215   7.244   9.462   1.196  0.2144  0.0519 -0.1553
  942MOL0     C24216   7.133   9.458   1.113 -0.5006 -0.2668 -0.0527
  942MOL0     C24217   7.034   9.361   1.126  0.4119 -0.5605 -0.8725
  942MOL0     C24218   6.935   9.341   1.032  1.3049 -0.1055 -0.7368
  942MOL0     C24219   6.910   9.433   0.922  0.4138  0.2291 -0.4777
  942MOL0     O24220   6.810   9.432   0.837  0.6312 -0.1295  0.1917
  942MOL0     C24221   6.705   9.344   0.852  0.0496 -0.7031  0.7529
  942MOL0     C24222   6.597   9.382   0.748  0.4411  0.8798 -0.6210
  942MOL0     C24223   6.561   9.533   0.751 -0.1402 -0.1525 -0.3324
  942MOL0     C24224   6.449   9.564   0.648  0.0936  0.5649 -0.4463
  942MOL0     C24225   6.511   9.576   0.505  0.3167 -0.2171  0.1138
  942MOL0     C24226   6.400   9.628   0.410  0.1149 -0.6491  0.1252
  942MOL0     C24227   6.454   9.640   0.263  0.0720  0.1547 -0.3580
  942MOL0     C24228   6.353   9.714   0.174  0.5791 -0.3997 -0.7804
  942MOL0     N24229   6.234   9.642   0.133 -0.1770  0.2411  0.2485
  942MOL0     C24230   6.138   9.693   0.050  0.2303 -0.1956 -0.2862
  942MOL0     C24231   6.056   9.585   0.023  0.4695  0.1361  0.0685
  942MOL0     C24232   5.926   9.581  -0.058 -0.3044  0.0476  0.0864
  942MOL0     C24233   5.813   9.606   0.043  1.0706  0.3313  1.7811
  942MOL0     C24234   5.680   9.563  -0.015  0.3008  0.4006 -0.9193
  942MOL0     C24235   5.553   9.580   0.075 -0.2501 -0.1566 -0.5246
  942MOL0     O24236   5.457   9.494   0.036 -0.1244 -0.3624 -0.2658
  942MOL0     C24237   5.333   9.517   0.094  0.7779  0.4512 -0.2462
  942MOL0     C24238   5.291   9.624   0.178  1.0282 -0.9352  0.2829
  942MOL0     C24239   5.158   9.626   0.230 -0.0322  0.4165 -0.5717
  942MOL0     C24240   5.064   9.519   0.197  0.6928 -0.1425 -0.4465
  942MOL0     C24241   4.922   9.516   0.256 -0.3055  0.0338 -0.4416
  942MOL0     O24242   4.863   9.397   0.298 -0.5134  0.0216  0.1294
  942MOL0     C24243   4.732   9.388   0.320  0.3360 -0.4029 -0.5269
  942MOL0     C24244   4.664   9.303   0.239  0.2202 -0.6228  0.1333
  942MOL0     C24245   4.524   9.307   0.247  0.2127 -0.3173 -0.2792
  942MOL0     C24246   4.455   9.383   0.335 -0.7271 -0.3148  0.2652
  942MOL0     O24247   4.316   9.381   0.345 -0.0025 -0.0724  0.2191
  942MOL0     C24248   4.246   9.492   0.299  0.3633 -0.0371  1.0273
  942MOL0     C24249   4.151   9.553   0.396 -0.2109 -0.2141  0.3318
  942MOL0     C24250   4.044   9.452   0.441 -0.0268  0.6202  0.6078
  942MOL0     C24251   3.916   9.528   0.477 -0.4543  0.6675  0.5782
  942MOL0     C24252   3.803   9.435   0.521  0.2709  0.3957  0.7262
  942MOL0     C24253   3.737   9.365   0.400  0.2947  0.1431  0.2320
  942MOL0     C24254   3.627   9.268   0.452 -0.0738  0.4549  0.2740
  942MOL0     C24255   3.526   9.221   0.340 -0.6054  0.0055  0.5757
  942MOL0    Cl24256   3.421   9.098   0.410  0.1554 -0.3029 -0.5306
  942MOL0     C24257   4.527   9.463   0.425  1.0435 -0.0583  0.8710
  942MOL0     C24258   4.669   9.470   0.419  0.1167 -0.5655  0.0245
  942MOL0     O24259   4.863   9.618   0.246  0.0842 -0.7992 -0.5672
  942MOL0     C24260   5.113   9.418   0.112  0.1958  0.4710 -0.9470
  942MOL0     C24261   5.244   9.415   0.070  0.1604  0.2163 -0.1957
  942MOL0     N24262   6.105   9.471   0.082 -0.2521  0.4313 -0.8195
  942MOL0     N24263   6.220   9.501   0.143 -0.3930  0.2222  0.0966
  942MOL0     C24264   7.002   9.536   0.921 -0.1817  0.1010  1.2152
  942MOL0     C24265   7.107   9.550   1.009 -0.0056 -0.3928 -0.5252
  942MOL0     C24266   7.494   9.454   1.235  0.6500  1.0281  0.2737
  942MOL0     C24267   7.619   9.481   1.184 -0.8306  0.0054 -0.4910
  942MOL0     C24268   7.725   9.483   1.275 -0.3933  0.3823  0.7336
  942MOL0     C24269   7.711   9.432   1.401  0.1574  0.1678 -0.0181
  942MOL0     O24270   7.828   9.400   1.461 -0.5412  0.3182  0.5116
  942MOL0     C24271   7.839   9.308   1.569 -0.3480 -0.2038 -0.0815
  942MOL0     C24272   7.846   9.160   1.520  0.1667  0.3266 -1.1309
  942MOL0     C24273   7.849   9.064   1.642 -0.5157 -0.3857  0.1378
  942MOL0     C24274   7.866   8.917   1.578  1.1095 -0.1685 -0.5929
  942MOL0     C24275   7.747   8.880   1.510  0.2875  0.5906  0.6344
  942MOL0     C24276   7.656   8.814   1.454 -1.1337 -0.2649 -0.1749
  942MOL0     C24277   7.586   9.418   1.460 -0.1307  0.1682 -0.2965
  942MOL0     C24278   7.471   9.423   1.376 -0.3600 -0.1551 -0.5736
  942MOL0     H24279   7.041   9.283   1.201  2.9538 -1.2732 -1.7589
  942MOL0     H24280   6.869   9.257   1.048 -1.2843  0.9553 -4.4501
  942MOL0     H24281   6.674   9.347   0.957 -2.0357  2.9316  0.2023
  942MOL0     H24282   6.741   9.243   0.834  1.8691  0.4421 -3.2375
  942MOL0     H24283   6.516   9.310   0.762  2.6980 -1.6326  0.3580
  942MOL0     H24284   6.636   9.364   0.647  4.5392  2.2060  0.5120
  942MOL0     H24285   6.648   9.596   0.729 -0.2180  0.2758  0.5200
  942MOL0     H24286   6.536   9.543   0.857 -0.8240  1.2737 -0.6049
  942MOL0     H24287   6.365   9.494   0.648 -1.5394  2.3743 -2.3205
  942MOL0     H24288   6.402   9.662   0.664 -0.1858  0.5335 -1.0546
  942MOL0     H24289   6.528   9.471   0.480  0.6642 -0.2006  0.2805
  942MOL0     H24290   6.604   9.633   0.500  0.4413 -0.4131  0.2327
  942MOL0     H24291   6.369   9.725   0.449  1.3441 -1.5266  3.6054
  942MOL0     H24292   6.321   9.553   0.421 -2.1266  1.5919  0.0653
  942MOL0     H24293   6.554   9.685   0.263 -0.3046  1.0128  0.0695
  942MOL0     H24294   6.476   9.540   0.226  1.5737 -0.6563  2.4867
  942MOL0     H24295   6.403   9.754   0.085 -1.0813  0.1121 -1.5115
  942MOL0     H24296   6.313   9.799   0.230 -1.4078 -0.7409 -1.6290
  942MOL0     H24297   6.108   9.795   0.027 -4.7825 -1.3165  0.0394
  942MOL0     H24298   5.901   9.484  -0.102 -4.7691  0.5337  1.0988
  942MOL0     H24299   5.927   9.657  -0.137  0.4637 -2.7915 -2.8413
  942MOL0     H24300   5.811   9.712   0.071  1.1039  1.4587 -1.9254
  942MOL0     H24301   5.828   9.556   0.139 -0.6027  2.3064  3.1703
  942MOL0     H24302   5.659   9.608  -0.113  0.1601  2.4182 -0.0145
  942MOL0     H24303   5.677   9.454  -0.021 -0.1161  0.2363  1.4478
  942MOL0     H24304   5.517   9.683   0.069  0.2001  0.1184  1.0370
  942MOL0     H24305   5.573   9.576   0.183  0.6617  3.0452 -0.4777
  942MOL0     H24306   5.360   9.706   0.197  0.4112  0.7073 -3.5502
  942MOL0     H24307   5.128   9.716   0.283 -2.9021  0.3988 -1.9549
  942MOL0     H24308   4.715   9.233   0.172  3.2101  0.8703  0.6952
  942MOL0     H24309   4.475   9.239   0.178  3.6603 -2.5508 -0.7907
  942MOL0     H24310   4.178   9.449   0.225  2.3955  0.2204 -1.1146
  942MOL0     H24311   4.305   9.573   0.256 -0.9417 -0.2379 -1.2937
  942MOL0     H24312   4.101   9.635   0.345 -1.0024 -1.3205 -0.7359
  942MOL0     H24313   4.204   9.577   0.489  0.3096  1.8785 -0.4655
  942MOL0     H24314   4.071   9.386   0.524  0.2524  0.3704  0.3229
  942MOL0     H24315   4.018   9.387   0.356  0.8647 -1.0899  1.5903
  942MOL0     H24316   3.951   9.606   0.545  2.2777 -2.0476  2.5524
  942MOL0     H24317   3.879   9.564   0.380  0.7657  0.4202  0.0100
  942MOL0     H24318   3.728   9.485   0.583 -0.9556 -0.2585 -0.1788
  942MOL0     H24319   3.842   9.345   0.570  1.0737 -1.3965 -2.8689
  942MOL0     H24320   3.820   9.307   0.359  0.4302 -0.0419  0.7537
  942MOL0     H24321   3.695   9.440   0.333 -0.4043  1.5304  2.1114
  942MOL0     H24322   3.688   9.193   0.501 -0.2499 -0.0686 -0.2914
  942MOL0     H24323   3.559   9.318   0.522  1.2095 -1.2681  2.8914
  942MOL0     H24324   3.585   9.181   0.257  0.5013 -0.8591  1.7418
  942MOL0     H24325   3.468   9.301   0.292  3.3599  2.5272 -0.4935
  942MOL0     H24326   4.482   9.521   0.504  0.4281  3.8896 -2.0821
  942MOL0     H24327   4.723   9.524   0.496  0.1514 -1.1791  0.4332
  942MOL0     H24328   5.063   9.327   0.079  2.2178 -1.3608  0.7192
  942MOL0     H24329   5.261   9.328   0.007 -1.6990  1.2585 -2.3116
  942MOL0     H24330   6.996   9.604   0.837 -1.4499 -1.5616 -0.1173
  942MOL0     H24331   7.173   9.633   0.983  0.2479  0.1841  1.7715
  942MOL0     H24332   7.643   9.515   1.084 -2.0638  0.7811 -0.5466
  942MOL0     H24333   7.826   9.495   1.237  0.2214  0.0695  2.2271
  942MOL0     H24334   7.748   9.316   1.628 -0.4513 -1.9338  0.0226
  942MOL0     H24335   7.928   9.340   1.625  1.4241 -2.6530 -1.3061
  942MOL0     H24336   7.758   9.140   1.458  0.2938  0.2564 -1.2897
  942MOL0     H24337   7.934   9.136   1.460  1.7496  1.0041  0.8519
  942MOL0     H24338   7.755   9.059   1.697 -0.7048 -0.9860 -0.2226
  942MOL0     H24339   7.933   9.095   1.704 -0.9545  1.7448 -0.2552
  942MOL0     H24340   7.950   8.899   1.510  0.4512  0.7388 -1.6931
  942MOL0     H24341   7.882   8.844   1.658  4.3780  0.4641 -0.5149
  942MOL0     H24342   7.578   8.754   1.410  0.8223 -1.4529 -2.2171
  942MOL0     H24343   7.579   9.391   1.565  2.6687  1.1273  0.2395
  942MOL0     H24344   7.371   9.408   1.413 -0.9017 -0.8190 -2.2346
  943MOL0     O24345   6.687   1.260   2.712  0.6710 -0.2052 -0.1170
  943MOL0     C24346   6.729   1.291   2.600  0.5553  0.1333 -0.4781
  943MOL0     O24347   6.647   1.315   2.491  0.2280  0.1127  0.3042
  943MOL0     C24348   6.515   1.305   2.520  0.1325  0.1645  0.0578
  943MOL0     C24349   6.432   1.200   2.482  0.5529 -0.7076  1.0899
  943MOL0     C24350   6.296   1.180   2.517 -0.7328  0.2181 -0.0161
  943MOL0     C24351   6.243   1.278   2.603 -0.3356  0.3312  0.2627
  943MOL0     O24352   6.110   1.268   2.627 -0.5786  0.4261  0.1887
  943MOL0     C24353   6.079   1.233   2.758  0.3013 -0.5931 -0.1949
  943MOL0     C24354   5.946   1.170   2.767 -0.1267  0.8765 -0.0691
  943MOL0     C24355   5.831   1.250   2.716  0.1607  0.1583  0.7654
  943MOL0     C24356   5.706   1.242   2.801  1.9834 -0.7091 -0.2645
  943MOL0     C24357   5.597   1.316   2.723 -0.3428  0.4966  0.3660
  943MOL0     C24358   5.493   1.356   2.825 -0.3976 -0.0843 -0.7867
  943MOL0     C24359   5.359   1.417   2.777 -0.7473  0.1401 -0.0083
  943MOL0     C24360   5.240   1.377   2.859  0.6402 -0.5571 -0.9890
  943MOL0     N24361   5.231   1.459   2.982 -0.3300  0.0565 -0.8673
  943MOL0     C24362   5.218   1.594   2.987 -0.5397 -0.3761  0.5488
  943MOL0     C24363   5.239   1.630   3.115 -0.0655  0.1700 -0.7450
  943MOL0     C24364   5.254   1.762   3.185 -0.2995  0.8246 -0.2105
  943MOL0     C24365   5.148   1.805   3.282 -0.0409 -0.6765  0.6935
  943MOL0     C24366   5.152   1.705   3.394  0.0430 -0.0801 -0.0864
  943MOL0     C24367   5.085   1.774   3.515 -0.5219  0.9291  0.0334
  943MOL0     O24368   5.065   1.685   3.632 -0.0885 -0.3602 -0.0659
  943MOL0     C24369   4.974   1.718   3.728 -0.4710  0.0209 -0.3418
  943MOL0     C24370   4.969   1.628   3.833  0.8623 -0.5088 -0.6304
  943MOL0     C24371   4.875   1.647   3.927  0.1046 -0.0870  0.4555
  943MOL0     C24372   4.786   1.754   3.930  0.3195 -0.4423 -0.8275
  943MOL0     C24373   4.678   1.761   4.034  1.0355 -0.5972  0.5586
  943MOL0     O24374   4.673   1.655   4.123 -0.3194 -0.2020 -0.1701
  943MOL0     C24375   4.569   1.648   4.215  0.2180  0.4569  0.7856
  943MOL0     C24376   4.540   1.762   4.296 -0.3969  0.3065 -0.5343
  943MOL0     C24377   4.447   1.755   4.407  0.0164  1.4626  0.8571
  943MOL0     C24378   4.374   1.635   4.426 -0.7070 -0.2137  0.1794
  943MOL0     O24379   4.276   1.612   4.514 -0.7112  0.0615 -0.2370
  943MOL0     C24380   4.262   1.709   4.624 -1.0142  0.4168  0.5508
  943MOL0     C24381   4.187   1.627   4.734  0.4268  0.4224 -0.3494
  943MOL0     C24382   4.040   1.579   4.701 -0.0060  0.0141  0.2111
  943MOL0     C24383   3.983   1.495   4.815 -0.2329 -0.4995 -0.2870
  943MOL0     C24384   3.830   1.458   4.778 -0.3868 -0.4073 -0.6107
  943MOL0     C24385   3.815   1.356   4.661 -0.3026 -0.2480 -1.3457
  943MOL0     C24386   3.690   1.269   4.678 -0.6618 -1.0076  0.2226
  943MOL0     C24387   3.654   1.186   4.562 -0.3403 -0.8633 -0.5480
  943MOL0    Cl24388   3.503   1.094   4.606  0.4716  0.0006 -0.0190
  943MOL0     C24389   4.405   1.529   4.339 -0.2965  0.2774  0.0431
  943MOL0     C24390   4.507   1.530   4.237  0.2890  0.5607 -0.1460
  943MOL0     O24391   4.587   1.849   4.018 -0.7936  0.1044  0.3046
  943MOL0     C24392   4.797   1.839   3.823  0.3422 -0.8017 -0.0169
  943MOL0     C24393   4.889   1.827   3.725  0.1629  0.3445  0.5842
  943MOL0     N24394   5.254   1.507   3.186 -0.8679  1.0172 -0.5404
  943MOL0     N24395   5.247   1.407   3.104 -0.4277 -0.1909  0.2452
  943MOL0     C24396   6.320   1.394   2.638 -0.7020  0.4316 -1.2990
  943MOL0     C24397   6.453   1.408   2.598 -0.9439 -0.0301 -0.4502
  943MOL0     C24398   6.874   1.293   2.594  0.1992  0.0914  0.3617
  943MOL0     C24399   6.927   1.262   2.468  0.0152 -0.1505 -0.1280
  943MOL0     C24400   7.070   1.259   2.453  0.1604  0.1744 -0.0893
  943MOL0     C24401   7.154   1.276   2.552 -0.2502  0.2618  0.6872
  943MOL0     O24402   7.289   1.286   2.518 -0.9048  0.0481 -0.6371
  943MOL0     C24403   7.403   1.261   2.611  0.2821  0.1614 -0.0015
  943MOL0     C24404   7.402   1.118   2.665 -0.9209 -0.3268  0.3595
  943MOL0     C24405   7.535   1.069   2.724  0.1104  0.6834 -0.4098
  943MOL0     C24406   7.516   0.919   2.764 -0.1126 -0.5961  0.2975
  943MOL0     C24407   7.635   0.874   2.839 -0.0231  0.6064  0.1725
  943MOL0     C24408   7.730   0.830   2.899 -0.0846 -0.6059 -0.4936
  943MOL0     C24409   7.104   1.298   2.685  0.0241  0.5039 -0.0073
  943MOL0     C24410   6.961   1.295   2.707  0.1339  0.0347 -0.5678
  943MOL0     H24411   6.470   1.123   2.415 -1.7131 -0.0210 -1.1230
  943MOL0     H24412   6.243   1.093   2.479 -0.7081 -0.2787  1.0535
  943MOL0     H24413   6.075   1.325   2.817  1.2898  0.1037 -1.1587
  943MOL0     H24414   6.147   1.163   2.808 -1.4939 -2.9140 -0.8288
  943MOL0     H24415   5.931   1.151   2.874  1.3945 -1.7749 -0.2329
  943MOL0     H24416   5.950   1.079   2.707 -0.4128  1.3179 -0.7656
  943MOL0     H24417   5.814   1.209   2.616 -1.3479 -0.2671  1.1681
  943MOL0     H24418   5.864   1.353   2.708  0.2561 -0.0179 -2.1247
  943MOL0     H24419   5.684   1.138   2.825 -0.5780 -0.1964 -0.1335
  943MOL0     H24420   5.731   1.294   2.894 -0.7719  1.1776 -0.4827
  943MOL0     H24421   5.551   1.256   2.644 -1.0631 -0.3038  1.3577
  943MOL0     H24422   5.634   1.409   2.679 -1.0368  0.1381 -1.0449
  943MOL0     H24423   5.528   1.437   2.889 -0.7808 -1.5714  1.4014
  943MOL0     H24424   5.480   1.285   2.907 -1.8455  2.0052  0.9120
  943MOL0     H24425   5.368   1.525   2.762 -1.7652  0.2524  0.0885
  943MOL0     H24426   5.344   1.376   2.677  1.5955 -2.7573  0.6917
  943MOL0     H24427   5.247   1.271   2.883 -3.2712 -0.5724  0.7339
  943MOL0     H24428   5.155   1.404   2.796  2.3225  0.7729 -2.8405
  943MOL0     H24429   5.222   1.660   2.901  0.2790 -0.7572  0.2808
  943MOL0     H24430   5.246   1.836   3.105 -0.9440  1.0790  0.0769
  943MOL0     H24431   5.356   1.756   3.223 -1.3098 -1.3360  2.5686
  943MOL0     H24432   5.048   1.799   3.237 -0.0201 -1.6642  0.7564
  943MOL0     H24433   5.187   1.900   3.318 -0.5775 -0.4418  0.6669
  943MOL0     H24434   5.092   1.616   3.371 -1.3548  0.7799  0.0884
  943MOL0     H24435   5.254   1.679   3.424  0.8272  2.7130 -0.0976
  943MOL0     H24436   4.997   1.823   3.470  0.8007  2.9449 -0.5083
  943MOL0     H24437   5.154   1.856   3.539  0.8960 -0.6872  1.7047
  943MOL0     H24438   5.033   1.540   3.837  2.4092  0.6039  1.0811
  943MOL0     H24439   4.866   1.558   3.989  1.7171 -0.2761  0.4532
  943MOL0     H24440   4.597   1.851   4.274  0.2716 -0.1095 -0.5007
  943MOL0     H24441   4.444   1.848   4.463  3.3678  1.8028  0.7023
  943MOL0     H24442   4.201   1.794   4.591 -1.8655 -0.5340 -0.4076
  943MOL0     H24443   4.356   1.749   4.662 -0.0626 -0.1349 -1.1236
  943MOL0     H24444   4.191   1.677   4.831 -1.5017 -3.9924  2.3454
  943MOL0     H24445   4.249   1.537   4.741 -0.0162  0.1581  0.4103
  943MOL0     H24446   4.035   1.518   4.610 -1.5820 -0.4277  0.5612
  943MOL0     H24447   3.957   1.648   4.684 -0.9939 -1.6986 -2.5231
  943MOL0     H24448   4.043   1.406   4.833  2.4964  0.9036 -1.9085
  943MOL0     H24449   3.984   1.549   4.910 -0.7370  2.4688 -1.8484
  943MOL0     H24450   3.775   1.550   4.757  1.9059  0.6427 -2.5622
  943MOL0     H24451   3.786   1.427   4.873 -0.2334  1.6396  0.1819
  943MOL0     H24452   3.901   1.289   4.658 -0.0031  0.1657 -2.5304
  943MOL0     H24453   3.813   1.404   4.563 -0.8437  0.4779 -0.9939
  943MOL0     H24454   3.707   1.195   4.757  2.0387 -0.0465  0.6430
  943MOL0     H24455   3.611   1.337   4.711  0.3545  2.1476 -3.2198
  943MOL0     H24456   3.739   1.122   4.537  1.4154  1.0333  0.2789
  943MOL0     H24457   3.639   1.253   4.476  3.4388  2.0670  0.7680
  943MOL0     H24458   4.354   1.435   4.359  0.5889 -0.0524  0.8609
  943MOL0     H24459   4.529   1.449   4.168  0.0237  0.5921 -0.2707
  943MOL0     H24460   4.739   1.930   3.813 -0.3685 -1.1622  0.6932
  943MOL0     H24461   4.898   1.889   3.637  4.9088 -3.7792 -2.3411
  943MOL0     H24462   6.274   1.481   2.683  1.0647 -0.2775  2.2495
  943MOL0     H24463   6.503   1.498   2.632 -0.8368  0.6612 -2.3006
  943MOL0     H24464   6.871   1.253   2.376 -0.4387  2.1109 -0.1508
  943MOL0     H24465   7.100   1.234   2.352  0.6391 -0.3112  0.1750
  943MOL0     H24466   7.387   1.335   2.690 -0.4525 -1.8499  1.8317
  943MOL0     H24467   7.498   1.281   2.560 -1.6724  1.7809 -3.3058
  943MOL0     H24468   7.323   1.121   2.741 -1.0713  2.9598  0.1994
  943MOL0     H24469   7.366   1.050   2.587 -1.6128 -0.5064  0.8237
  943MOL0     H24470   7.578   1.118   2.812 -0.4752  0.9755 -0.2805
  943MOL0     H24471   7.607   1.059   2.642  1.5609  0.4970  0.8438
  943MOL0     H24472   7.417   0.917   2.811 -0.5134 -1.4830 -0.5341
  943MOL0     H24473   7.513   0.859   2.672  1.0477  0.7908 -0.6755
  943MOL0     H24474   7.796   0.778   2.965  1.0188  0.3667 -0.8127
  943MOL0     H24475   7.161   1.320   2.775 -1.3299 -1.1702  1.3444
  943MOL0     H24476   6.923   1.300   2.809  4.0466 -0.1703  1.0896
  944MOL0     O24477   8.738   4.422   7.067 -0.8480 -0.0789 -0.4932
  944MOL0     C24478   8.809   4.423   7.168  0.3099  0.6167 -0.5459
  944MOL0     O24479   8.786   4.349   7.284  0.3108 -1.2561 -0.1373
  944MOL0     C24480   8.664   4.291   7.303  0.4980  0.1165  0.2853
  944MOL0     C24481   8.545   4.352   7.258 -0.1601 -0.0891 -0.4647
  944MOL0     C24482   8.417   4.290   7.271  0.5625  0.0526  0.5589
  944MOL0     C24483   8.417   4.165   7.338  0.3687  0.1397 -0.2965
  944MOL0     O24484   8.301   4.098   7.373  1.0970  0.4776  0.3979
  944MOL0     C24485   8.203   4.080   7.271  0.0399 -0.8767  0.3998
  944MOL0     C24486   8.130   3.965   7.323  0.7116  0.5746 -0.7031
  944MOL0     C24487   7.999   3.942   7.243 -0.2387  0.8330  0.5533
  944MOL0     C24488   7.927   3.821   7.290  0.7277  1.0709  0.4280
  944MOL0     C24489   7.777   3.826   7.243  0.2243  0.4356  0.4495
  944MOL0     C24490   7.701   3.936   7.329  0.0593 -0.2973 -0.2341
  944MOL0     C24491   7.550   3.911   7.304  0.1271 -0.5167  0.1849
  944MOL0     C24492   7.483   4.036   7.354 -0.0196  0.2320 -0.7534
  944MOL0     N24493   7.342   4.034   7.350 -0.0044 -0.2429 -0.5877
  944MOL0     C24494   7.260   3.940   7.414 -0.2116  1.0175  0.0823
  944MOL0     C24495   7.135   3.991   7.409 -0.3464 -0.1540 -0.2019
  944MOL0     C24496   7.001   3.953   7.476 -0.8690 -0.0366  0.4531
  944MOL0     C24497   6.876   4.000   7.398 -0.0541 -0.1901 -0.3173
  944MOL0     C24498   6.747   3.918   7.429  0.1583  0.1165 -0.6027
  944MOL0     C24499   6.634   3.936   7.348 -0.3982 -0.4964  0.0936
  944MOL0     O24500   6.526   3.844   7.383 -0.3142  0.1681  0.2454
  944MOL0     C24501   6.415   3.845   7.307  0.7730  0.0623  0.2976
  944MOL0     C24502   6.396   3.927   7.197  0.5453  0.0443 -0.1918
  944MOL0     C24503   6.271   3.935   7.136 -0.2816  0.0282 -0.4763
  944MOL0     C24504   6.156   3.855   7.170 -0.1651 -0.2055  0.0818
  944MOL0     C24505   6.021   3.870   7.104 -1.1284  0.0156 -0.4587
  944MOL0     O24506   5.919   3.788   7.152  0.0385 -0.0211  1.0079
  944MOL0     C24507   5.809   3.796   7.073  0.9073 -0.1758 -0.5323
  944MOL0     C24508   5.734   3.910   7.044 -0.3269  0.0886  0.2814
  944MOL0     C24509   5.616   3.897   6.974 -0.3176 -0.3702 -0.5867
  944MOL0     C24510   5.572   3.779   6.925  0.5253  0.1928  0.5109
  944MOL0     O24511   5.461   3.787   6.834 -0.4432  0.3307 -0.1915
  944MOL0     C24512   5.405   3.679   6.758 -0.0707  0.3151 -0.9949
  944MOL0     C24513   5.318   3.583   6.843  0.6018 -0.0868  0.7738
  944MOL0     C24514   5.171   3.634   6.869  0.2707  0.3622  0.0489
  944MOL0     C24515   5.174   3.762   6.950 -0.0423  0.1388  0.8192
  944MOL0     C24516   5.054   3.788   7.039 -0.0177  0.9625 -0.8765
  944MOL0     C24517   4.915   3.779   6.973 -0.1561  0.6662  0.6264
  944MOL0     C24518   4.908   3.860   6.832  1.4319  1.5617 -0.7072
  944MOL0     C24519   4.769   3.845   6.760  0.0856  0.3048 -0.3519
  944MOL0    Cl24520   4.637   3.900   6.870 -0.5420  0.0545 -0.0733
  944MOL0     C24521   5.647   3.669   6.951 -0.2187 -0.2874  0.3498
  944MOL0     C24522   5.763   3.676   7.022  0.0982  0.3157  0.1628
  944MOL0     O24523   6.022   3.939   7.004  0.1436  0.3581  0.5437
  944MOL0     C24524   6.183   3.777   7.280  0.9013 -0.6040 -0.3908
  944MOL0     C24525   6.308   3.766   7.347  0.4606 -0.5758  0.4236
  944MOL0     N24526   7.138   4.110   7.336 -0.3293  0.6096 -0.4335
  944MOL0     N24527   7.264   4.136   7.299  0.3631  0.2694  0.4952
  944MOL0     C24528   8.536   4.105   7.380 -0.2595  0.4324  0.5987
  944MOL0     C24529   8.659   4.166   7.362 -0.4389 -0.8974 -0.6188
  944MOL0     C24530   8.922   4.514   7.165  0.1153 -0.3115  0.5063
  944MOL0     C24531   9.051   4.483   7.218  0.6663  0.3562  0.0583
  944MOL0     C24532   9.153   4.580   7.205  0.3692  0.5745 -0.1855
  944MOL0     C24533   9.139   4.699   7.134  0.0267  0.3143  0.2448
  944MOL0     O24534   9.232   4.802   7.107  0.4650  0.1917 -0.3034
  944MOL0     C24535   9.354   4.827   7.182  0.6330  0.1696  0.5568
  944MOL0     C24536   9.446   4.928   7.115 -0.6979 -0.4592  0.7085
  944MOL0     C24537   9.583   4.950   7.179 -0.4462  0.5366 -0.4761
  944MOL0     C24538   9.696   5.010   7.085 -0.0844 -0.0015 -0.5977
  944MOL0     C24539   9.658   5.143   7.049  0.1437 -0.0675  0.3426
  944MOL0     C24540   9.643   5.239   6.984  0.0903 -0.2551 -0.4057
  944MOL0     C24541   9.010   4.723   7.083  0.4981 -0.8222  0.6163
  944MOL0     C24542   8.905   4.634   7.094 -0.1320 -0.5418 -0.1202
  944MOL0     H24543   8.562   4.451   7.219 -0.7887 -0.5450 -1.9622
  944MOL0     H24544   8.332   4.344   7.230 -0.5419 -1.4678  0.7642
  944MOL0     H24545   8.249   4.059   7.173  0.5075 -1.6726  0.7824
  944MOL0     H24546   8.139   4.168   7.256 -2.9753 -2.7858  1.1826
  944MOL0     H24547   8.108   3.978   7.430 -0.0048 -1.3251 -0.5783
  944MOL0     H24548   8.195   3.877   7.318 -0.5029 -0.3869 -0.2898
  944MOL0     H24549   8.020   3.928   7.137 -2.0332  1.5942  0.0806
  944MOL0     H24550   7.945   4.035   7.258  1.3386  1.5715  2.0961
  944MOL0     H24551   7.966   3.737   7.231 -3.0109 -0.1087 -0.6434
  944MOL0     H24552   7.927   3.802   7.397  0.4269 -1.5379  0.0238
  944MOL0     H24553   7.732   3.727   7.254  0.0416  0.3715 -0.7783
  944MOL0     H24554   7.789   3.852   7.138 -1.7057  0.5068  0.2099
  944MOL0     H24555   7.728   4.037   7.298  1.4164  0.6984  3.6595
  944MOL0     H24556   7.719   3.928   7.437 -1.2083  1.9736  0.2321
  944MOL0     H24557   7.533   3.892   7.197  0.8166 -0.3958  0.0478
  944MOL0     H24558   7.513   3.825   7.362 -0.1864 -0.6602 -0.2188
  944MOL0     H24559   7.515   4.122   7.295 -0.8193  0.5450 -0.7395
  944MOL0     H24560   7.514   4.063   7.455 -1.5163 -0.9751  0.0863
  944MOL0     H24561   7.297   3.849   7.460 -0.9359  1.5472  1.7949
  944MOL0     H24562   7.003   4.001   7.574  3.0392 -2.5104  1.8409
  944MOL0     H24563   7.002   3.844   7.491 -4.3155 -0.6327 -2.4241
  944MOL0     H24564   6.886   3.991   7.289 -2.3160  0.0468 -0.5935
  944MOL0     H24565   6.866   4.108   7.406 -0.4553 -0.2435 -0.0743
  944MOL0     H24566   6.776   3.813   7.429 -2.0317 -0.6673  2.7950
  944MOL0     H24567   6.708   3.943   7.528  1.2498  1.6549 -0.5222
  944MOL0     H24568   6.665   3.931   7.243  1.9039  3.0290  0.4545
  944MOL0     H24569   6.596   4.037   7.368  0.9120 -0.3848  2.2040
  944MOL0     H24570   6.468   3.996   7.154  0.9324  0.3863  0.9728
  944MOL0     H24571   6.239   4.010   7.065  0.4103 -0.7600 -1.6611
  944MOL0     H24572   5.772   4.006   7.077  1.6424 -0.1068 -1.2227
  944MOL0     H24573   5.553   3.984   6.959  1.6548  1.5016  1.3237
  944MOL0     H24574   5.487   3.619   6.717 -0.3052 -0.5046 -0.2958
  944MOL0     H24575   5.353   3.716   6.669 -1.2352 -0.6621 -0.7450
  944MOL0     H24576   5.376   3.581   6.936  2.0647  4.0412  0.1639
  944MOL0     H24577   5.324   3.487   6.791 -0.4832 -0.6409  1.6316
  944MOL0     H24578   5.135   3.561   6.943  0.9831  0.5407  0.5782
  944MOL0     H24579   5.100   3.646   6.787 -1.1308  0.9342  1.3109
  944MOL0     H24580   5.262   3.765   7.014  0.8803  0.9748 -0.4268
  944MOL0     H24581   5.182   3.854   6.891  1.5368  0.1840  1.0626
  944MOL0     H24582   5.058   3.886   7.087 -1.8672 -0.6574  3.0420
  944MOL0     H24583   5.057   3.713   7.119 -0.6273  3.5679  1.7588
  944MOL0     H24584   4.838   3.815   7.042  1.2709  2.8289  1.1649
  944MOL0     H24585   4.895   3.674   6.948 -2.5636  0.5921  2.4941
  944MOL0     H24586   4.922   3.965   6.859  1.7378  1.1582  0.8262
  944MOL0     H24587   4.988   3.825   6.766  2.7237  1.5981  0.7781
  944MOL0     H24588   4.752   3.745   6.719 -2.2959  1.1188 -1.5119
  944MOL0     H24589   4.779   3.914   6.675  1.5844 -2.3287 -2.4617
  944MOL0     H24590   5.615   3.580   6.898 -0.2899  1.1889 -2.2434
  944MOL0     H24591   5.819   3.584   7.038 -0.8543  0.2185  3.6244
  944MOL0     H24592   6.098   3.726   7.325 -0.8467  0.3635 -2.4114
  944MOL0     H24593   6.310   3.686   7.420 -0.0084 -4.5231 -3.5193
  944MOL0     H24594   8.539   4.000   7.409 -2.7790  0.1160 -0.0515
  944MOL0     H24595   8.754   4.120   7.389  1.1789  0.1885 -3.9560
  944MOL0     H24596   9.059   4.396   7.283 -0.5331 -0.2345 -0.5370
  944MOL0     H24597   9.250   4.562   7.251  0.1718 -2.1130 -0.6436
  944MOL0     H24598   9.409   4.732   7.181  4.0708  2.0335 -0.6403
  944MOL0     H24599   9.332   4.867   7.282  1.8408  3.1179 -0.2719
  944MOL0     H24600   9.456   4.901   7.009 -5.8125  1.7282 -0.6448
  944MOL0     H24601   9.405   5.029   7.119  1.2023  0.4569 -0.8338
  944MOL0     H24602   9.622   4.855   7.217 -0.6921  2.2727  4.9794
  944MOL0     H24603   9.569   4.994   7.278 -2.5279 -2.1691  0.5701
  944MOL0     H24604   9.798   5.012   7.124 -0.0853  0.2135 -0.6001
  944MOL0     H24605   9.711   4.951   6.994  4.8055  0.3280 -0.2602
  944MOL0     H24606   9.634   5.312   6.906 -2.6330  0.3453  0.3790
  944MOL0     H24607   8.998   4.811   7.021  3.0800 -1.3789 -0.8195
  944MOL0     H24608   8.809   4.665   7.053 -1.0535  0.8970  2.8910
  945MOL0     O24609   5.593   9.196   3.508  0.3685 -0.0593  0.5922
  945MOL0     C24610   5.710   9.190   3.466 -0.8659 -0.2918 -0.6044
  945MOL0     O24611   5.766   9.091   3.375  0.3363  0.3201 -0.5954
  945MOL0     C24612   5.678   9.018   3.295 -0.3011  0.5885  0.0916
  945MOL0     C24613   5.557   9.065   3.240  0.3689 -0.1439  0.0482
  945MOL0     C24614   5.478   8.990   3.157 -0.3629  0.0060 -0.3396
  945MOL0     C24615   5.528   8.864   3.115  0.6466  0.4330  0.8977
  945MOL0     O24616   5.446   8.788   3.036  1.1942 -0.5187  0.1599
  945MOL0     C24617   5.472   8.807   2.895  0.4171  0.1791  0.3207
  945MOL0     C24618   5.423   8.692   2.807 -0.2930  0.2574  0.2244
  945MOL0     C24619   5.272   8.643   2.826  0.7034  0.0164  0.2901
  945MOL0     C24620   5.155   8.750   2.791 -0.1045 -0.6690 -0.0005
  945MOL0     C24621   5.016   8.705   2.841  0.0669 -0.5469 -0.3286
  945MOL0     C24622   5.009   8.714   2.990  0.4580  0.4245  0.1427
  945MOL0     C24623   4.945   8.589   3.049  0.6742  0.1857  0.3825
  945MOL0     C24624   4.897   8.622   3.194 -0.0878  0.6111 -0.3615
  945MOL0     N24625   4.860   8.500   3.269 -0.5164 -0.5877 -0.3698
  945MOL0     C24626   4.735   8.468   3.316 -0.8991 -0.4401  0.3748
  945MOL0     C24627   4.755   8.370   3.405 -0.1516 -0.4489 -0.8280
  945MOL0     C24628   4.642   8.321   3.505 -0.3810  1.2371 -0.9328
  945MOL0     C24629   4.654   8.174   3.547 -0.0065 -0.0224 -0.5219
  945MOL0     C24630   4.664   8.081   3.430 -0.0947 -0.3865  0.7428
  945MOL0     C24631   4.674   7.940   3.456 -0.2707  0.8669 -0.3185
  945MOL0     O24632   4.802   7.905   3.519  0.1538 -0.0349 -0.5619
  945MOL0     C24633   4.912   7.896   3.443 -0.6226  0.9312 -0.7027
  945MOL0     C24634   4.932   7.785   3.363  0.2560  0.7446 -0.3918
  945MOL0     C24635   5.045   7.787   3.279  0.0292  0.4753  0.6607
  945MOL0     C24636   5.136   7.894   3.281  0.0873 -0.7823 -0.8492
  945MOL0     C24637   5.272   7.886   3.211  0.1560 -0.2456 -0.3513
  945MOL0     O24638   5.313   7.765   3.160  0.3126 -0.9840 -0.5695
  945MOL0     C24639   5.423   7.767   3.077  0.4189 -0.3259  0.4570
  945MOL0     C24640   5.459   7.863   2.978  0.7841  0.3563  0.3085
  945MOL0     C24641   5.567   7.846   2.895 -0.4985  0.1467 -0.3592
  945MOL0     C24642   5.633   7.723   2.901 -0.0821 -0.4111 -1.2951
  945MOL0     O24643   5.733   7.710   2.811  0.4888  0.7847 -0.2779
  945MOL0     C24644   5.819   7.593   2.813 -0.6475  0.4576 -0.2852
  945MOL0     C24645   5.939   7.638   2.713  0.1198  0.8424 -0.1985
  945MOL0     C24646   6.051   7.537   2.732  0.4310  0.9257  0.0063
  945MOL0     C24647   6.133   7.530   2.603 -0.4508  1.0131 -0.5237
  945MOL0     C24648   6.246   7.428   2.623 -0.0842  0.5947 -0.6449
  945MOL0     C24649   6.338   7.435   2.499  0.6323  0.4763 -0.3376
  945MOL0     C24650   6.442   7.331   2.517 -0.5647  0.8746  0.1871
  945MOL0     C24651   6.545   7.370   2.623  0.1098 -0.6410 -0.2032
  945MOL0    Cl24652   6.698   7.462   2.546  0.2056  0.1926  0.0781
  945MOL0     C24653   5.593   7.620   2.985 -0.4693  0.7282  0.5245
  945MOL0     C24654   5.500   7.650   3.086  0.0804 -0.1608 -0.2349
  945MOL0     O24655   5.339   7.988   3.219 -0.2053 -0.2655  0.0267
  945MOL0     C24656   5.107   8.008   3.358 -0.8254  0.0484 -0.1701
  945MOL0     C24657   5.002   8.002   3.447  0.2276 -0.0592  0.0897
  945MOL0     N24658   4.887   8.338   3.422  0.7703  0.0279  0.1696
  945MOL0     N24659   4.949   8.414   3.333 -0.0355 -0.0650 -0.0241
  945MOL0     C24660   5.643   8.816   3.167  0.3062 -0.1192  0.2208
  945MOL0     C24661   5.718   8.897   3.257  0.4598  0.1113 -0.1518
  945MOL0     C24662   5.802   9.299   3.517 -0.2450  0.3928  0.4660
  945MOL0     C24663   5.927   9.312   3.460  0.5788 -0.6728 -0.2531
  945MOL0     C24664   6.015   9.406   3.517 -0.9763 -0.5259 -0.4046
  945MOL0     C24665   5.974   9.479   3.630 -1.0572 -0.3069  0.4168
  945MOL0     O24666   6.053   9.574   3.693 -0.1631  0.6670 -0.1045
  945MOL0     C24667   6.189   9.536   3.705 -0.7246 -0.2571 -0.4103
  945MOL0     C24668   6.248   9.576   3.836  0.8961 -0.2997 -0.5127
  945MOL0     C24669   6.403   9.564   3.837  0.0344  0.3418  0.6255
  945MOL0     C24670   6.447   9.567   3.978  0.8677 -0.4585 -0.2407
  945MOL0     C24671   6.590   9.542   3.980  0.4164  0.0655 -0.4464
  945MOL0     C24672   6.707   9.506   3.988  0.9284  0.5001  0.7694
  945MOL0     C24673   5.850   9.471   3.674  0.3802  0.8014  0.0425
  945MOL0     C24674   5.758   9.381   3.622 -0.0344 -0.8146 -0.7385
  945MOL0     H24675   5.518   9.158   3.282  2.0940  1.0283 -0.8133
  945MOL0     H24676   5.382   9.026   3.121 -0.6973 -0.6353 -0.0979
  945MOL0     H24677   5.576   8.826   2.869 -0.3269  1.9270 -1.7339
  945MOL0     H24678   5.433   8.907   2.872 -0.3942 -0.3183 -0.5530
  945MOL0     H24679   5.489   8.606   2.819  1.2737  1.3120 -0.4140
  945MOL0     H24680   5.430   8.719   2.701 -1.3344 -0.1742  0.0377
  945MOL0     H24681   5.256   8.615   2.930 -0.9282 -3.8754 -0.8412
  945MOL0     H24682   5.254   8.552   2.768 -0.0282  2.5189 -3.8820
  945MOL0     H24683   5.186   8.849   2.826  5.4827 -1.4210 -1.6821
  945MOL0     H24684   5.147   8.760   2.682  0.9697  1.9928  0.0908
  945MOL0     H24685   5.002   8.602   2.807 -1.1425 -0.0867 -1.2784
  945MOL0     H24686   4.950   8.779   2.795 -0.5008 -0.4067  0.6809
  945MOL0     H24687   4.950   8.802   3.016  1.3638  0.7813  1.0467
  945MOL0     H24688   5.108   8.742   3.029  0.7987 -0.5051 -0.0172
  945MOL0     H24689   4.862   8.566   2.981 -0.2047 -1.8760  2.0502
  945MOL0     H24690   5.019   8.509   3.045  1.8550  1.2463  0.2672
  945MOL0     H24691   4.823   8.702   3.197 -2.2389 -1.1567 -2.2766
  945MOL0     H24692   4.981   8.662   3.252  0.5925 -2.4086  0.9638
  945MOL0     H24693   4.645   8.525   3.293 -1.0194 -1.1960 -1.2245
  945MOL0     H24694   4.552   8.339   3.446  1.0880  1.1210 -3.3899
  945MOL0     H24695   4.646   8.372   3.601  0.9685 -1.8055  0.7725
  945MOL0     H24696   4.563   8.161   3.606  0.4269  1.7145  0.5997
  945MOL0     H24697   4.739   8.157   3.614 -0.2902 -1.2038 -0.4407
  945MOL0     H24698   4.564   8.093   3.386  0.3617 -0.0552 -0.2320
  945MOL0     H24699   4.741   8.117   3.361  0.7048  1.0438  2.3005
  945MOL0     H24700   4.655   7.875   3.370  0.3372  1.3000 -0.7925
  945MOL0     H24701   4.596   7.908   3.526 -0.4881 -2.2281 -1.7793
  945MOL0     H24702   4.851   7.714   3.350  1.2081 -0.0609 -2.6150
  945MOL0     H24703   5.070   7.696   3.226 -1.6515 -1.1079  2.4041
  945MOL0     H24704   5.401   7.954   2.969 -0.9684 -0.8286 -1.1957
  945MOL0     H24705   5.588   7.932   2.832 -1.0021  1.1929  0.8594
  945MOL0     H24706   5.761   7.514   2.764 -0.9755  1.3953 -1.4604
  945MOL0     H24707   5.855   7.557   2.909  1.1259  1.6101 -0.4833
  945MOL0     H24708   5.986   7.734   2.734  3.1332 -0.7302  0.8274
  945MOL0     H24709   5.911   7.634   2.608  0.5994 -2.0035 -0.3022
  945MOL0     H24710   6.000   7.441   2.748  0.0348  0.9154 -1.2146
  945MOL0     H24711   6.105   7.564   2.823 -0.7151 -1.1104  1.3807
  945MOL0     H24712   6.083   7.501   2.510  1.6147 -2.6491 -0.6759
  945MOL0     H24713   6.182   7.626   2.584 -2.5449  2.0296 -1.0387
  945MOL0     H24714   6.220   7.327   2.657 -0.3119  1.3437  1.5369
  945MOL0     H24715   6.307   7.468   2.704  1.9644  1.8274 -2.6609
  945MOL0     H24716   6.393   7.529   2.488  0.6363  0.6432  0.9641
  945MOL0     H24717   6.278   7.409   2.412  2.6256 -0.6324 -1.4605
  945MOL0     H24718   6.391   7.240   2.548  1.1583  0.3176  1.5464
  945MOL0     H24719   6.486   7.312   2.418  1.8246  0.9870  1.1495
  945MOL0     H24720   6.593   7.283   2.668 -1.4260 -2.0490 -1.1690
  945MOL0     H24721   6.501   7.421   2.709 -0.4982  0.4020 -1.0945
  945MOL0     H24722   5.638   7.521   2.982 -0.5908  0.6931 -0.3709
  945MOL0     H24723   5.467   7.566   3.146 -0.5124  1.0011  1.1213
  945MOL0     H24724   5.173   8.094   3.362  1.9546 -1.9821  0.0280
  945MOL0     H24725   4.974   8.086   3.509  4.1403 -0.0787  2.2016
  945MOL0     H24726   5.665   8.712   3.150 -0.1152 -0.7550  2.9809
  945MOL0     H24727   5.802   8.848   3.305 -1.3531  0.5352  3.8299
  945MOL0     H24728   5.962   9.238   3.389  0.6773 -0.4867 -0.3977
  945MOL0     H24729   6.116   9.412   3.476 -1.1742  2.8585 -0.6594
  945MOL0     H24730   6.241   9.586   3.623 -2.9780  0.0415 -1.7690
  945MOL0     H24731   6.213   9.431   3.689  0.9428  0.3616 -2.3806
  945MOL0     H24732   6.225   9.683   3.842 -1.8175 -0.5241 -3.9196
  945MOL0     H24733   6.207   9.527   3.925  1.2512 -3.5694 -2.0086
  945MOL0     H24734   6.462   9.638   3.782  3.6326 -2.8834 -0.3886
  945MOL0     H24735   6.423   9.465   3.794 -0.1539  0.2901  0.6561
  945MOL0     H24736   6.419   9.661   4.026 -0.9773 -1.5750  1.0027
  945MOL0     H24737   6.399   9.492   4.041  1.3682 -1.1024 -0.6059
  945MOL0     H24738   6.801   9.456   4.003  0.6241 -0.5741 -0.6499
  945MOL0     H24739   5.811   9.523   3.761 -2.1325  1.3229 -1.3295
  945MOL0     H24740   5.665   9.363   3.675  0.0471  0.5031 -0.0945
  946MOL0     O24741   4.823   5.671   9.870 -0.3007 -0.4109 -0.2764
  946MOL0     C24742   4.888   5.706   9.972  0.5312  0.4894  0.1709
  946MOL0     O24743   4.834   5.768  10.073  0.2879  0.2318  0.7752
  946MOL0     C24744   4.714   5.827  10.049 -0.8118  0.1428  0.5990
  946MOL0     C24745   4.600   5.750  10.075  0.3135 -0.3598  0.6402
  946MOL0     C24746   4.467   5.796  10.067 -0.2250  0.5686  0.6101
  946MOL0     C24747   4.450   5.925  10.022  0.0834 -1.2517 -0.1059
  946MOL0     O24748   4.316   5.967   9.991 -0.0560 -0.0202  0.3501
  946MOL0     C24749   4.296   6.099   9.943  0.9317  0.2840 -0.1788
  946MOL0     C24750   4.144   6.129   9.959  0.0784 -0.1800  0.7481
  946MOL0     C24751   4.115   6.268   9.903  0.4148 -0.1458 -0.1061
  946MOL0     C24752   3.962   6.309   9.907 -0.6708  0.1355 -0.0434
  946MOL0     C24753   3.940   6.450   9.826 -0.5980 -0.1170 -0.3521
  946MOL0     C24754   3.798   6.500   9.801 -0.8433 -0.4448  0.8973
  946MOL0     C24755   3.718   6.415   9.706  0.1691 -0.0453 -1.1123
  946MOL0     C24756   3.595   6.492   9.662 -0.1493 -0.0074  0.9842
  946MOL0     N24757   3.540   6.438   9.535  0.5052  0.4126 -0.1296
  946MOL0     C24758   3.452   6.329   9.531  0.1899 -0.2824 -0.3124
  946MOL0     C24759   3.376   6.360   9.422  0.2861 -0.3732 -0.0952
  946MOL0     C24760   3.263   6.274   9.386  0.2466 -0.2006 -0.2811
  946MOL0     C24761   3.189   6.316   9.259  0.3123 -0.4679  0.2072
  946MOL0     C24762   3.081   6.209   9.224 -0.6188  0.4472  0.7241
  946MOL0     C24763   2.935   6.243   9.269 -0.3609  0.8754  0.6386
  946MOL0     O24764   2.851   6.142   9.215 -0.5758  0.3125 -0.6764
  946MOL0     C24765   2.714   6.147   9.232 -0.1977  0.7876  0.1741
  946MOL0     C24766   2.650   6.091   9.128  0.1521 -0.4281 -0.8046
  946MOL0     C24767   2.513   6.066   9.131 -0.0384  0.0988  0.2043
  946MOL0     C24768   2.435   6.103   9.241 -0.8051  0.2983  0.3304
  946MOL0     C24769   2.290   6.071   9.261 -0.5809  1.0802  0.7777
  946MOL0     O24770   2.235   6.024   9.147  0.6188 -0.2196 -0.4921
  946MOL0     C24771   2.096   6.004   9.153  0.0688  0.2766  0.2722
  946MOL0     C24772   2.026   5.933   9.252 -0.2888  0.1458  0.4944
  946MOL0     C24773   1.900   5.893   9.234  0.2338  0.5669 -0.4780
  946MOL0     C24774   1.828   5.928   9.120  0.1141  0.3513 -0.8371
  946MOL0     O24775   1.696   5.901   9.111 -0.2708 -0.0655 -0.6659
  946MOL0     C24776   1.670   5.786   9.025 -0.6221 -0.3361  0.4852
  946MOL0     C24777   1.522   5.809   8.979 -0.6581 -0.0513 -0.6067
  946MOL0     C24778   1.479   5.683   8.894  0.9070 -0.0836  0.3658
  946MOL0     C24779   1.339   5.695   8.828 -0.2390 -0.0652 -0.3929
  946MOL0     C24780   1.285   5.580   8.742 -0.4744 -0.4942 -0.1510
  946MOL0     C24781   1.141   5.615   8.723  0.9719 -0.6668 -0.4734
  946MOL0     C24782   1.064   5.520   8.618 -0.4130 -0.5900 -0.8805
  946MOL0     C24783   0.942   5.589   8.556 -0.2966 -0.2090 -0.2656
  946MOL0    Cl24784   0.820   5.607   8.675  0.2553  0.5723 -0.1843
  946MOL0     C24785   1.889   6.011   9.024 -0.5570 -0.2043  0.0351
  946MOL0     C24786   2.024   6.046   9.042  0.1004  0.1142 -0.0236
  946MOL0     O24787   2.239   6.084   9.373 -0.4737 -0.6955  0.8534
  946MOL0     C24788   2.506   6.164   9.351  0.5318  0.1231  0.5749
  946MOL0     C24789   2.643   6.182   9.352 -0.4289 -0.9231 -0.4086
  946MOL0     N24790   3.421   6.470   9.351 -0.5385  0.4204  0.9180
  946MOL0     N24791   3.525   6.512   9.422  0.9469  0.2383 -0.3459
  946MOL0     C24792   4.566   6.000   9.982  0.7011 -0.3140  0.1865
  946MOL0     C24793   4.697   5.951   9.993  0.3196  0.3158 -0.4291
  946MOL0     C24794   5.033   5.662   9.987 -0.1839  0.2951  0.5094
  946MOL0     C24795   5.091   5.595   9.874  0.7100  0.1073 -0.9042
  946MOL0     C24796   5.226   5.561   9.882 -0.7932 -0.4607 -0.6556
  946MOL0     C24797   5.304   5.606   9.992 -0.0647 -0.6382 -0.4989
  946MOL0     O24798   5.438   5.582  10.015 -0.3726 -0.0724  0.2848
  946MOL0     C24799   5.517   5.492   9.929  0.0141 -0.1974  0.6659
  946MOL0     C24800   5.656   5.531   9.897 -1.1439 -0.0775 -0.2184
  946MOL0     C24801   5.666   5.651   9.801 -0.0874 -0.0858 -0.3843
  946MOL0     C24802   5.794   5.678   9.727  0.2834  0.7794  0.3690
  946MOL0     C24803   5.899   5.706   9.824  0.3098  0.2556  0.3974
  946MOL0     C24804   5.981   5.735   9.909 -0.2915 -1.0486  0.3883
  946MOL0     C24805   5.245   5.686  10.091  0.8301  1.2983 -0.3938
  946MOL0     C24806   5.107   5.706  10.095  0.5964  0.2011 -0.0535
  946MOL0     H24807   4.618   5.648  10.109  1.8038  0.0557  1.1743
  946MOL0     H24808   4.385   5.730  10.094 -0.4832  0.9992  0.8707
  946MOL0     H24809   4.317   6.111   9.836 -1.7819  2.1206 -0.6299
  946MOL0     H24810   4.350   6.161  10.016 -0.3968 -1.6901  2.6568
  946MOL0     H24811   4.114   6.120  10.064  1.4815  0.4193  1.2192
  946MOL0     H24812   4.091   6.060   9.892 -2.4382  2.4234 -0.1632
  946MOL0     H24813   4.175   6.275   9.812  0.7337  1.4131  0.1928
  946MOL0     H24814   4.161   6.343   9.968  3.8302 -2.2085  0.0871
  946MOL0     H24815   3.897   6.235   9.861  0.0274 -0.4112 -0.1619
  946MOL0     H24816   3.921   6.315  10.009 -0.5199  0.0333  0.0228
  946MOL0     H24817   3.989   6.440   9.729 -1.2313 -0.7314 -0.6243
  946MOL0     H24818   3.994   6.525   9.884 -0.6301 -2.0468  2.3928
  946MOL0     H24819   3.807   6.598   9.753 -1.2641 -1.0975 -0.5444
  946MOL0     H24820   3.756   6.524   9.899  1.7143 -2.6637  2.6951
  946MOL0     H24821   3.781   6.384   9.622  1.8370 -0.2273  0.1469
  946MOL0     H24822   3.694   6.319   9.753  1.4108 -0.5355 -1.4274
  946MOL0     H24823   3.626   6.589   9.622  0.4985 -0.5909  0.0447
  946MOL0     H24824   3.526   6.496   9.747  0.1907  2.1528  1.2141
  946MOL0     H24825   3.430   6.250   9.602  1.2798 -0.5989 -0.3137
  946MOL0     H24826   3.204   6.256   9.477  2.4021  0.1924  1.2683
  946MOL0     H24827   3.302   6.173   9.372  1.6158  0.5690 -2.5189
  946MOL0     H24828   3.263   6.318   9.178 -0.1282  0.9931 -0.1892
  946MOL0     H24829   3.141   6.413   9.268 -0.5806 -0.4402 -3.3122
  946MOL0     H24830   3.086   6.190   9.117 -1.2455 -1.4253  1.0014
  946MOL0     H24831   3.117   6.116   9.270  1.8075  1.2312  0.5439
  946MOL0     H24832   2.908   6.344   9.238  0.4717  0.7457 -0.5938
  946MOL0     H24833   2.937   6.242   9.379 -1.0563  0.5339  0.6517
  946MOL0     H24834   2.712   6.074   9.041  1.5916 -0.9634  0.2800
  946MOL0     H24835   2.458   6.023   9.048  1.0356 -3.2213  1.0559
  946MOL0     H24836   2.074   5.894   9.341 -2.3364  0.6914  1.9019
  946MOL0     H24837   1.846   5.832   9.306 -1.3498 -1.5958 -3.2771
  946MOL0     H24838   1.685   5.692   9.078 -1.4824 -0.8891 -0.2322
  946MOL0     H24839   1.729   5.783   8.933 -2.3847  1.1094 -0.7699
  946MOL0     H24840   1.521   5.907   8.932  2.0007  0.5666  0.4693
  946MOL0     H24841   1.483   5.816   9.081  0.6256  0.7864 -0.1479
  946MOL0     H24842   1.491   5.591   8.952 -1.7855 -0.6493  0.1212
  946MOL0     H24843   1.552   5.667   8.814  1.4029 -1.3767  1.0553
  946MOL0     H24844   1.272   5.729   8.908 -1.0241  0.4339 -1.2390
  946MOL0     H24845   1.334   5.785   8.767 -1.6377  0.4227  0.3904
  946MOL0     H24846   1.290   5.492   8.807 -5.1589 -1.0183 -0.1350
  946MOL0     H24847   1.343   5.575   8.650  0.1297  3.4681 -0.1488
  946MOL0     H24848   1.138   5.717   8.686  2.2637 -0.1630  0.7542
  946MOL0     H24849   1.096   5.609   8.823 -0.4459  1.1129 -0.9545
  946MOL0     H24850   1.128   5.494   8.533 -2.1986 -2.0269 -1.8648
  946MOL0     H24851   1.036   5.420   8.653 -1.9089 -1.5810 -4.3656
  946MOL0     H24852   0.903   5.521   8.479 -2.8655  1.2021 -0.3265
  946MOL0     H24853   0.972   5.686   8.517 -0.3247 -0.0887  0.0110
  946MOL0     H24854   1.837   6.035   8.932  0.4735  1.3377 -0.1801
  946MOL0     H24855   2.077   6.105   8.969  1.2791 -0.2926  0.4659
  946MOL0     H24856   2.442   6.195   9.433 -2.6462  1.1347 -2.0356
  946MOL0     H24857   2.688   6.221   9.444 -1.0900  0.4046 -0.6282
  946MOL0     H24858   4.553   6.094   9.930  2.4627 -1.3573 -2.2854
  946MOL0     H24859   4.782   6.017   9.979  0.5170  0.0264 -0.5835
  946MOL0     H24860   5.025   5.555   9.797 -1.3659 -3.0649  2.1701
  946MOL0     H24861   5.274   5.502   9.804 -0.1667 -2.4417  1.1524
  946MOL0     H24862   5.469   5.471   9.833  3.5604  0.0949 -1.3384
  946MOL0     H24863   5.519   5.393   9.976  3.0347 -1.1848 -1.2364
  946MOL0     H24864   5.720   5.548   9.984 -0.8705  1.7474 -0.7253
  946MOL0     H24865   5.706   5.451   9.842 -1.0799 -0.2469  0.0804
  946MOL0     H24866   5.660   5.735   9.871 -0.4986 -2.7124  2.9924
  946MOL0     H24867   5.580   5.651   9.734 -0.6712 -2.3419  0.2831
  946MOL0     H24868   5.817   5.596   9.659  0.4001 -0.5208  1.9261
  946MOL0     H24869   5.779   5.767   9.665 -2.3171  0.3778  0.3017
  946MOL0     H24870   6.054   5.768   9.981 -1.2321 -3.5361  2.6492
  946MOL0     H24871   5.300   5.707  10.182  1.1168 -1.0070  0.0005
  946MOL0     H24872   5.063   5.769  10.171  0.5471  0.1009 -0.0003
  947MOL0     O24873  10.600   4.012   0.298  0.1082  0.0059  0.4988
  947MOL0     C24874  10.673   3.934   0.362 -0.6138  0.3625  0.1452
  947MOL0     O24875  10.630   3.855   0.465 -0.8845 -0.6290 -0.0317
  947MOL0     C24876  10.502   3.829   0.497 -0.3967  0.4740 -0.0232
  947MOL0     C24877  10.402   3.801   0.399  0.5670 -0.0808 -0.3237
  947MOL0     C24878  10.273   3.764   0.429  0.2247 -0.0485 -0.4775
  947MOL0     C24879  10.245   3.748   0.563  0.7373  1.4391 -0.2012
  947MOL0     O24880  10.122   3.697   0.602 -0.1819  0.5798 -0.2431
  947MOL0     C24881  10.064   3.721   0.732 -0.3203  0.1452 -0.1897
  947MOL0     C24882   9.925   3.664   0.727  0.3036 -0.4658 -0.2346
  947MOL0     C24883   9.853   3.657   0.865  0.2235  0.1321 -0.3197
  947MOL0     C24884   9.700   3.635   0.841 -0.3075 -0.2603 -0.7137
  947MOL0     C24885   9.631   3.625   0.982  0.1441  0.5941 -0.4097
  947MOL0     C24886   9.479   3.655   0.977  0.5629  0.8715 -0.3950
  947MOL0     C24887   9.400   3.546   0.899 -0.3987  1.2623  0.2731
  947MOL0     C24888   9.261   3.529   0.967  0.1303 -0.7279  0.2858
  947MOL0     N24889   9.188   3.414   0.931  0.0818  0.3799  0.2260
  947MOL0     C24890   9.109   3.416   0.818  0.6215  0.4259  0.0815
  947MOL0     C24891   9.043   3.297   0.822  0.3917  0.3460 -1.3726
  947MOL0     C24892   8.939   3.235   0.720 -0.4772  0.1762 -1.2624
  947MOL0     C24893   8.859   3.118   0.784  0.3352  0.5023 -0.0647
  947MOL0     C24894   8.731   3.080   0.708  0.1523 -0.4539 -0.4188
  947MOL0     C24895   8.617   3.186   0.685 -0.2202 -0.3532 -0.1650
  947MOL0     O24896   8.559   3.236   0.815 -0.0879 -0.3161 -0.1503
  947MOL0     C24897   8.424   3.281   0.803 -0.9230 -0.0081 -0.7078
  947MOL0     C24898   8.357   3.301   0.686  0.5272 -0.2066 -0.8617
  947MOL0     C24899   8.221   3.339   0.691 -0.0819  1.0543  0.1523
  947MOL0     C24900   8.145   3.359   0.810  0.0821  0.2482 -0.1768
  947MOL0     C24901   8.001   3.399   0.805  0.3606 -0.4017  0.1731
  947MOL0     O24902   7.933   3.406   0.927  0.6827 -0.0707 -0.0221
  947MOL0     C24903   7.798   3.445   0.910 -0.0027 -0.9040  0.3479
  947MOL0     C24904   7.706   3.383   0.829 -0.7963 -0.6372 -1.0760
  947MOL0     C24905   7.576   3.434   0.816  0.3210 -0.1713 -0.1162
  947MOL0     C24906   7.538   3.544   0.891  0.1693  0.0625 -1.0632
  947MOL0     O24907   7.412   3.599   0.882  0.3968  0.2729  0.0821
  947MOL0     C24908   7.315   3.519   0.818 -0.6386 -0.5162  0.4249
  947MOL0     C24909   7.183   3.589   0.817  0.3858 -0.9161 -0.4820
  947MOL0     C24910   7.094   3.556   0.931  0.0501  0.2751  0.0171
  947MOL0     C24911   6.978   3.657   0.946  0.0584  0.0103 -0.4448
  947MOL0     C24912   6.870   3.602   1.037 -0.2409 -0.0333  0.0305
  947MOL0     C24913   6.735   3.679   1.042  0.1929 -0.0119  0.1667
  947MOL0     C24914   6.632   3.595   1.135 -0.5919 -0.0289 -0.1129
  947MOL0     C24915   6.482   3.641   1.122 -0.1348 -0.3585 -0.1210
  947MOL0    Cl24916   6.442   3.811   1.161 -0.1926 -0.0256  0.2098
  947MOL0     C24917   7.632   3.608   0.974  0.3398 -0.4988 -0.2373
  947MOL0     C24918   7.760   3.561   0.986  0.6114  0.2363 -0.5825
  947MOL0     O24919   7.967   3.447   0.696  0.2359  0.0686  0.4834
  947MOL0     C24920   8.212   3.334   0.926 -0.3301  0.1525  0.1923
  947MOL0     C24921   8.352   3.295   0.928 -0.8382 -0.0876  0.2247
  947MOL0     N24922   9.099   3.227   0.932 -0.3764  0.2687 -0.6802
  947MOL0     N24923   9.176   3.303   1.003  0.2063 -0.0838 -1.0280
  947MOL0     C24924  10.332   3.784   0.662 -0.3134  0.1902 -0.8107
  947MOL0     C24925  10.463   3.824   0.627 -0.2317  0.1527 -0.8871
  947MOL0     C24926  10.820   3.943   0.332  0.5368  0.3339 -0.1434
  947MOL0     C24927  10.871   4.064   0.275 -0.9769 -0.8883 -1.1086
  947MOL0     C24928  11.013   4.092   0.285  0.5808  0.5849  0.3704
  947MOL0     C24929  11.095   3.993   0.348 -0.8487  0.1342 -0.5217
  947MOL0     O24930  11.232   4.010   0.353 -0.5123 -0.2592 -0.1694
  947MOL0     C24931  11.290   4.028   0.225 -0.8517  0.0643  0.7655
  947MOL0     C24932  11.406   4.129   0.224  0.4166  0.0664 -0.0021
  947MOL0     C24933  11.521   4.092   0.312 -0.0569  0.3382 -1.0152
  947MOL0     C24934  11.633   4.191   0.296  0.6646  0.1226 -0.4887
  947MOL0     C24935  11.749   4.154   0.384 -0.0992  0.5726 -0.0293
  947MOL0     C24936  11.833   4.107   0.461  0.8932 -0.3654  0.3027
  947MOL0     C24937  11.046   3.880   0.403 -0.3288 -0.5351  0.9210
  947MOL0     C24938  10.912   3.858   0.403  1.1999 -1.2963 -1.0731
  947MOL0     H24939  10.441   3.805   0.298 -2.7629 -1.4295 -1.7835
  947MOL0     H24940  10.194   3.733   0.362 -0.3966 -1.1060  0.6942
  947MOL0     H24941  10.062   3.828   0.756  4.0550  0.2936  0.3537
  947MOL0     H24942  10.122   3.668   0.808 -2.1249 -0.0948  1.0914
  947MOL0     H24943   9.926   3.564   0.682  0.5176  0.3292 -2.0612
  947MOL0     H24944   9.860   3.719   0.658 -1.9294 -0.3678  1.8219
  947MOL0     H24945   9.861   3.750   0.923 -0.6622 -0.3189  0.5534
  947MOL0     H24946   9.899   3.575   0.920  1.0759 -0.1203 -1.3845
  947MOL0     H24947   9.653   3.714   0.782 -0.9215 -0.3362 -0.3277
  947MOL0     H24948   9.685   3.539   0.793  0.7118 -0.0045 -1.5928
  947MOL0     H24949   9.661   3.708   1.046 -2.3384  1.2195  0.0368
  947MOL0     H24950   9.658   3.529   1.027  0.2577  1.1326  0.7002
  947MOL0     H24951   9.455   3.759   0.953  0.7917  1.6249  2.3001
  947MOL0     H24952   9.455   3.649   1.084  0.6056  2.9332 -0.2173
  947MOL0     H24953   9.374   3.572   0.796 -2.4305 -1.3421  0.0294
  947MOL0     H24954   9.460   3.455   0.905  1.0393  2.0606 -1.1849
  947MOL0     H24955   9.195   3.614   0.947  2.2556  0.6337 -1.4130
  947MOL0     H24956   9.270   3.526   1.076  1.8730 -0.5240  0.1786
  947MOL0     H24957   9.093   3.492   0.742 -0.2425  0.7172  0.5345
  947MOL0     H24958   8.981   3.211   0.621  4.3798 -2.5534  1.1017
  947MOL0     H24959   8.863   3.312   0.709  0.8332  1.6611 -0.3024
  947MOL0     H24960   8.829   3.142   0.887  3.0258  0.5847  0.7863
  947MOL0     H24961   8.921   3.028   0.789  1.0101  0.7807 -2.3010
  947MOL0     H24962   8.760   3.036   0.612 -3.0698 -1.7286 -0.9447
  947MOL0     H24963   8.690   2.989   0.754 -2.0367  0.6355 -0.0730
  947MOL0     H24964   8.548   3.139   0.615 -0.8175  0.6271 -0.2583
  947MOL0     H24965   8.654   3.278   0.639 -2.0607  2.1269  2.8659
  947MOL0     H24966   8.414   3.304   0.594 -2.2524  1.7408 -2.6933
  947MOL0     H24967   8.173   3.372   0.600  0.8889 -2.3453 -1.7448
  947MOL0     H24968   7.728   3.289   0.779  1.7237 -1.0897  0.6957
  947MOL0     H24969   7.506   3.381   0.753 -0.0677  0.6883 -0.4129
  947MOL0     H24970   7.297   3.422   0.865 -1.0534 -0.1880  0.9609
  947MOL0     H24971   7.337   3.501   0.712 -0.6876 -2.1308  0.6671
  947MOL0     H24972   7.137   3.560   0.722 -0.5517 -2.8110  0.5003
  947MOL0     H24973   7.194   3.698   0.820 -1.8406 -0.6237  2.6182
  947MOL0     H24974   7.152   3.549   1.024 -3.2026  1.9729  2.3820
  947MOL0     H24975   7.058   3.457   0.904 -1.2934  0.7001  0.1321
  947MOL0     H24976   7.022   3.751   0.983 -0.3743  0.3587 -0.8074
  947MOL0     H24977   6.941   3.689   0.849 -0.1434 -0.8293 -0.6465
  947MOL0     H24978   6.905   3.602   1.140 -2.1278 -0.7365  0.7049
  947MOL0     H24979   6.850   3.507   0.987 -0.4689  0.5252 -0.9876
  947MOL0     H24980   6.703   3.697   0.939  0.2587  0.8783  0.2968
  947MOL0     H24981   6.735   3.780   1.083  0.0833  0.9619 -2.0769
  947MOL0     H24982   6.631   3.492   1.099 -0.5730 -0.9439  2.3254
  947MOL0     H24983   6.658   3.584   1.241 -1.0915 -0.6387 -0.0494
  947MOL0     H24984   6.426   3.579   1.192 -2.6097  0.8294 -0.9396
  947MOL0     H24985   6.453   3.623   1.018  1.2546  3.1628 -1.2520
  947MOL0     H24986   7.599   3.694   1.032 -0.0534 -0.4020 -0.6038
  947MOL0     H24987   7.842   3.609   1.040  2.5281  0.2506 -3.2816
  947MOL0     H24988   8.159   3.349   1.020  0.6331  2.7222  0.3934
  947MOL0     H24989   8.423   3.290   1.010  0.2580 -1.3510 -0.7584
  947MOL0     H24990  10.307   3.788   0.768 -1.4063  1.2653 -1.0877
  947MOL0     H24991  10.553   3.837   0.686 -2.1656  2.3920  1.8082
  947MOL0     H24992  10.812   4.143   0.228 -1.5171 -1.1549 -0.8853
  947MOL0     H24993  11.067   4.176   0.245  2.2839 -0.2935  0.7144
  947MOL0     H24994  11.221   4.057   0.146  1.8618 -0.1027 -1.8403
  947MOL0     H24995  11.319   3.925   0.200 -0.3859 -0.1384  2.0152
  947MOL0     H24996  11.446   4.137   0.122  2.4697 -3.3311  0.4014
  947MOL0     H24997  11.368   4.223   0.265  2.6469  0.6915  0.7701
  947MOL0     H24998  11.561   3.991   0.299  2.0675  0.8867  0.6090
  947MOL0     H24999  11.483   4.091   0.415  0.3942  2.8500 -0.7651
  947MOL0     H25000  11.666   4.180   0.193  0.9523  2.4885 -0.7156
  947MOL0     H25001  11.585   4.287   0.319 -1.6186 -0.4950 -2.3020
  947MOL0     H25002  11.905   4.075   0.533  0.5058 -1.8046  0.0891
  947MOL0     H25003  11.108   3.807   0.453  1.5723  0.5041  0.1801
  947MOL0     H25004  10.872   3.783   0.470  1.3552 -0.4958 -0.0406
  948MOL0     O25005   8.381   9.315   8.322 -0.0369  0.3790  0.3983
  948MOL0     C25006   8.401   9.422   8.379  0.0587  0.9563 -1.1064
  948MOL0     O25007   8.306   9.510   8.412 -0.1672 -0.5047 -0.9878
  948MOL0     C25008   8.179   9.497   8.349 -0.9485  0.9601 -0.0326
  948MOL0     C25009   8.155   9.490   8.212 -0.6277  0.3917 -0.6304
  948MOL0     C25010   8.023   9.470   8.171 -0.1927 -1.3823 -1.5191
  948MOL0     C25011   7.910   9.489   8.251 -0.5980  1.2547 -0.2969
  948MOL0     O25012   7.791   9.494   8.198 -0.2361  0.4232 -0.2671
  948MOL0     C25013   7.698   9.557   8.271  0.0610  0.2051  0.3763
  948MOL0     C25014   7.571   9.571   8.184  0.4826 -0.4347 -0.3600
  948MOL0     C25015   7.578   9.693   8.094 -1.3712  0.1032  0.2696
  948MOL0     C25016   7.455   9.686   7.997  0.8547  0.3573 -0.9456
  948MOL0     C25017   7.312   9.686   8.056 -0.9659  0.2467  0.2662
  948MOL0     C25018   7.285   9.810   8.146 -0.9590 -0.0076  0.3312
  948MOL0     C25019   7.149   9.803   8.198  0.7002  0.0664  0.1430
  948MOL0     C25020   7.042   9.838   8.093  0.7223  0.2829 -0.1424
  948MOL0     N25021   6.901   9.788   8.112  0.0656  1.0195 -0.1100
  948MOL0     C25022   6.819   9.844   8.208 -0.3641 -0.6370 -0.1576
  948MOL0     C25023   6.705   9.763   8.204 -0.5825 -0.2233 -0.5255
  948MOL0     C25024   6.581   9.782   8.285 -0.2349 -0.0385 -0.0994
  948MOL0     C25025   6.459   9.748   8.198 -0.2891 -0.2275  0.1419
  948MOL0     C25026   6.433   9.596   8.201 -0.2397  0.1843  0.2184
  948MOL0     C25027   6.290   9.563   8.166  0.0206 -0.1459 -0.4937
  948MOL0     O25028   6.287   9.423   8.134  0.0729 -0.6537 -0.0463
  948MOL0     C25029   6.178   9.344   8.158  0.8795  0.2769  0.4225
  948MOL0     C25030   6.171   9.237   8.068  0.5782  0.6445 -0.1426
  948MOL0     C25031   6.064   9.147   8.074 -0.1648  0.0911  0.1933
  948MOL0     C25032   5.970   9.156   8.180 -0.0900 -0.5680  0.2443
  948MOL0     C25033   5.859   9.063   8.186 -0.2454  0.4352 -0.5290
  948MOL0     O25034   5.780   9.085   8.290 -0.0630  0.6858  1.3605
  948MOL0     C25035   5.664   9.003   8.305  0.0289  0.0297 -0.1145
  948MOL0     C25036   5.536   9.051   8.305 -0.4613 -0.6262  0.3686
  948MOL0     C25037   5.420   8.966   8.320  0.1846 -0.4059 -0.2731
  948MOL0     C25038   5.426   8.833   8.331 -0.7610  0.8268  0.3451
  948MOL0     O25039   5.301   8.761   8.327  0.2577 -0.2030  0.3628
  948MOL0     C25040   5.300   8.631   8.271 -0.0039  0.1291 -0.2947
  948MOL0     C25041   5.151   8.562   8.269 -0.9010 -0.6973  0.2725
  948MOL0     C25042   5.133   8.484   8.398  0.3098  0.2418  0.5972
  948MOL0     C25043   4.991   8.416   8.390  0.2215 -0.3352 -0.8590
  948MOL0     C25044   4.900   8.478   8.497  0.8496  0.1962 -0.3462
  948MOL0     C25045   4.846   8.616   8.456  0.8853 -0.5261 -1.0666
  948MOL0     C25046   4.799   8.702   8.574  0.6680  0.5158 -0.2764
  948MOL0     C25047   4.709   8.819   8.530 -0.1553  0.6475  0.3525
  948MOL0    Cl25048   4.556   8.752   8.461  0.6168 -0.2946 -0.0528
  948MOL0     C25049   5.559   8.774   8.315  0.5466  0.6036  0.0185
  948MOL0     C25050   5.677   8.862   8.305  1.6024  0.0584 -0.1814
  948MOL0     O25051   5.847   8.974   8.104 -0.0735  0.6616 -0.6521
  948MOL0     C25052   5.976   9.270   8.264  0.9004  0.1151 -0.5251
  948MOL0     C25053   6.080   9.359   8.257 -0.3212  0.2378  0.7405
  948MOL0     N25054   6.734   9.661   8.107 -1.0790  0.4836 -0.0693
  948MOL0     N25055   6.846   9.681   8.046  0.0675 -1.1052  0.7008
  948MOL0     C25056   7.939   9.500   8.390 -0.1459 -0.1548  0.1703
  948MOL0     C25057   8.071   9.514   8.439  0.0921 -0.2333  0.0823
  948MOL0     C25058   8.542   9.469   8.414  0.0238  0.3302 -0.2027
  948MOL0     C25059   8.576   9.611   8.437  0.7094 -0.8609 -0.8429
  948MOL0     C25060   8.700   9.651   8.481 -0.5356  0.6119  0.6856
  948MOL0     C25061   8.808   9.561   8.485  0.3822  1.2504  0.5500
  948MOL0     O25062   8.938   9.604   8.498 -0.2359 -0.0435  0.0331
  948MOL0     C25063   8.976   9.712   8.404  0.7698  0.3937 -0.6096
  948MOL0     C25064   9.131   9.727   8.410 -0.4403  0.0460 -0.6126
  948MOL0     C25065   9.201   9.740   8.545 -0.4461 -0.9135 -0.6336
  948MOL0     C25066   9.354   9.739   8.524 -0.0186 -0.1985  0.1022
  948MOL0     C25067   9.431   9.777   8.643 -0.6214 -0.5496 -0.0607
  948MOL0     C25068   9.504   9.818   8.725 -0.1476  0.5991 -1.0020
  948MOL0     C25069   8.776   9.427   8.461 -0.2658 -0.0054 -0.1881
  948MOL0     C25070   8.650   9.380   8.429 -0.0260  0.4831  0.9147
  948MOL0     H25071   8.235   9.495   8.138 -0.4224 -3.5720 -0.8944
  948MOL0     H25072   8.000   9.467   8.065  0.8030 -0.5559 -1.7703
  948MOL0     H25073   7.721   9.654   8.316  2.6400 -0.0107 -0.3514
  948MOL0     H25074   7.667   9.488   8.350 -0.2967  2.4506  2.3052
  948MOL0     H25075   7.482   9.582   8.247 -0.3849 -0.2025 -1.6006
  948MOL0     H25076   7.562   9.481   8.122  1.4758 -1.0278  0.3141
  948MOL0     H25077   7.667   9.681   8.030 -1.6489  2.0849 -0.5425
  948MOL0     H25078   7.587   9.784   8.152  2.2431  0.0667  0.0425
  948MOL0     H25079   7.463   9.775   7.934  0.5323 -0.1565 -1.7322
  948MOL0     H25080   7.468   9.600   7.931  4.7044  0.6664 -0.8151
  948MOL0     H25081   7.300   9.589   8.105  2.4892 -0.4352 -0.0050
  948MOL0     H25082   7.248   9.691   7.967  1.2905  2.1135 -1.3552
  948MOL0     H25083   7.312   9.902   8.095  0.4465 -0.6993 -0.2067
  948MOL0     H25084   7.348   9.816   8.235  1.4970 -1.3640 -1.2245
  948MOL0     H25085   7.127   9.705   8.241  2.8331  0.2092  1.6887
  948MOL0     H25086   7.134   9.877   8.278  0.1076  0.4944 -0.3551
  948MOL0     H25087   7.065   9.797   7.995  1.2014  0.7791 -0.2398
  948MOL0     H25088   7.037   9.947   8.084  0.6391  0.2975  0.0755
  948MOL0     H25089   6.840   9.936   8.262  0.2568 -0.0243 -1.3798
  948MOL0     H25090   6.573   9.883   8.325 -3.1600  0.4676 -1.6455
  948MOL0     H25091   6.584   9.722   8.377 -2.0564 -2.1472 -1.3168
  948MOL0     H25092   6.476   9.784   8.096  2.7039  0.9997  0.9680
  948MOL0     H25093   6.366   9.801   8.220 -1.1781 -1.6063 -0.1757
  948MOL0     H25094   6.491   9.559   8.115 -1.1350  0.7811 -0.6633
  948MOL0     H25095   6.477   9.535   8.280  0.9639  1.1820  0.3487
  948MOL0     H25096   6.244   9.621   8.086 -4.2223 -1.2818  0.8668
  948MOL0     H25097   6.231   9.590   8.254  2.0680 -0.1698  0.9526
  948MOL0     H25098   6.244   9.224   7.989 -0.3441  0.2462 -0.9496
  948MOL0     H25099   6.041   9.075   7.995  0.1883 -0.6902  0.7903
  948MOL0     H25100   5.516   9.157   8.314  1.2407 -0.4483  3.4385
  948MOL0     H25101   5.324   9.013   8.336  0.5702 -0.3450  2.3417
  948MOL0     H25102   5.376   8.573   8.324  2.6205  2.8582 -0.8188
  948MOL0     H25103   5.328   8.631   8.165  1.8625  1.9956  0.1534
  948MOL0     H25104   5.155   8.478   8.198 -0.7108 -0.1589 -0.3640
  948MOL0     H25105   5.074   8.639   8.258 -1.9760 -1.7795 -0.0318
  948MOL0     H25106   5.146   8.546   8.487  1.4668 -0.2730  0.8071
  948MOL0     H25107   5.211   8.407   8.407 -1.1120 -0.9790  3.4081
  948MOL0     H25108   4.950   8.446   8.293 -0.7681 -0.2863 -0.4355
  948MOL0     H25109   4.998   8.306   8.396 -2.3664 -0.4772  0.6928
  948MOL0     H25110   4.956   8.491   8.590 -1.4279  4.3197  0.7054
  948MOL0     H25111   4.818   8.406   8.511  1.5321 -0.4227  0.6593
  948MOL0     H25112   4.767   8.599   8.382  1.3601  0.6247 -1.8629
  948MOL0     H25113   4.921   8.683   8.414  0.3539  0.2886 -0.7318
  948MOL0     H25114   4.742   8.633   8.638  1.2652 -1.1604 -1.4827
  948MOL0     H25115   4.886   8.725   8.635  0.0153 -0.0941  0.9301
  948MOL0     H25116   4.756   8.867   8.443 -2.3223  0.4325 -1.0324
  948MOL0     H25117   4.698   8.884   8.616 -0.2042  0.0579  0.7967
  948MOL0     H25118   5.563   8.666   8.321  0.0248  0.6577  2.1123
  948MOL0     H25119   5.773   8.812   8.300  0.7680 -1.5878 -0.4628
  948MOL0     H25120   5.910   9.286   8.349  2.3918  0.5874  0.5952
  948MOL0     H25121   6.089   9.442   8.326  0.9042  0.8682 -0.1347
  948MOL0     H25122   7.856   9.518   8.458  0.6578  1.9949  0.6509
  948MOL0     H25123   8.092   9.529   8.545  4.4049  1.1697 -0.7684
  948MOL0     H25124   8.498   9.687   8.428  0.3837 -1.1208 -0.2813
  948MOL0     H25125   8.718   9.754   8.510 -2.5320  1.8905 -2.1362
  948MOL0     H25126   8.936   9.799   8.456  1.7836 -0.9085  2.6135
  948MOL0     H25127   8.939   9.701   8.302 -1.0838 -1.4151  0.1891
  948MOL0     H25128   9.183   9.659   8.342  3.2176  2.1619 -0.2314
  948MOL0     H25129   9.151   9.824   8.362  2.2073 -0.2546 -0.2756
  948MOL0     H25130   9.191   9.657   8.616  2.1054  0.3335  1.3422
  948MOL0     H25131   9.175   9.834   8.594  2.4311 -1.2120  1.8022
  948MOL0     H25132   9.395   9.643   8.491  0.9445  0.4961 -0.8053
  948MOL0     H25133   9.377   9.820   8.454  5.0062 -1.8681 -0.5996
  948MOL0     H25134   9.559   9.853   8.810 -3.8287  0.4549  1.6903
  948MOL0     H25135   8.861   9.361   8.475  0.1164  0.7076  0.9385
  948MOL0     H25136   8.631   9.274   8.419  0.7450  0.5679 -3.7630
  949MOL0     O25137   0.734   8.734   6.691  0.1525 -1.0669  0.0707
  949MOL0     C25138   0.821   8.698   6.605  1.2586  0.5558 -0.6899
  949MOL0     O25139   0.816   8.715   6.475  0.2241 -0.0542  0.6470
  949MOL0     C25140   0.716   8.778   6.414 -0.3619  0.2172 -0.0673
  949MOL0     C25141   0.735   8.856   6.298 -1.0529  0.6766 -0.4667
  949MOL0     C25142   0.636   8.926   6.231 -0.4064  0.1117  0.7066
  949MOL0     C25143   0.513   8.938   6.287  0.5888 -0.1022  0.2496
  949MOL0     O25144   0.427   9.027   6.226 -0.9336 -0.4757  0.5101
  949MOL0     C25145   0.333   9.098   6.310  0.1033  0.1915 -0.4123
  949MOL0     C25146   0.203   9.078   6.243  0.4217  0.3052 -0.9650
  949MOL0     C25147   0.145   8.939   6.252  0.3829 -0.0339 -0.3901
  949MOL0     C25148   0.032   8.905   6.152  0.4107  0.4091  0.3576
  949MOL0     C25149  -0.103   8.974   6.175 -0.1943  0.0461 -1.3331
  949MOL0     C25150  -0.194   8.970   6.059 -0.1575  0.7682 -0.9095
  949MOL0     C25151  -0.245   8.832   6.015 -0.2202 -0.7556 -0.3781
  949MOL0     C25152  -0.341   8.835   5.893 -0.0257  0.3173  0.1680
  949MOL0     N25153  -0.475   8.901   5.918 -0.5947 -0.3999  0.3411
  949MOL0     C25154  -0.533   9.004   5.843 -0.2006  0.1947  0.1383
  949MOL0     C25155  -0.636   9.060   5.918 -0.3223  0.0203 -0.4247
  949MOL0     C25156  -0.720   9.176   5.873 -0.6337 -0.6599  0.4419
  949MOL0     C25157  -0.855   9.132   5.824 -0.0308 -0.8439 -0.1565
  949MOL0     C25158  -0.944   9.062   5.934 -0.4963  0.0021  0.4864
  949MOL0     C25159  -1.090   9.066   5.904  0.5905 -0.0353 -0.1363
  949MOL0     O25160  -1.113   9.000   5.780 -0.3848 -0.0957 -0.0574
  949MOL0     C25161  -1.247   8.999   5.727 -0.0278 -0.2775 -1.2143
  949MOL0     C25162  -1.371   9.059   5.774 -0.5197 -0.9879 -0.1893
  949MOL0     C25163  -1.488   9.048   5.694 -0.2017 -0.2017  0.0707
  949MOL0     C25164  -1.487   8.964   5.577  0.0984  0.7039 -0.4465
  949MOL0     C25165  -1.611   8.944   5.510  0.2887  0.2868  0.1098
  949MOL0     O25166  -1.714   9.031   5.538  0.0499 -0.1029 -0.9792
  949MOL0     C25167  -1.838   9.011   5.476  0.0872 -0.7727 -0.1440
  949MOL0     C25168  -1.910   9.126   5.430 -0.1723 -0.2536  0.1927
  949MOL0     C25169  -2.027   9.119   5.350  0.5447  0.1382  0.0197
  949MOL0     C25170  -2.071   8.994   5.308 -0.1972  0.2169 -0.7895
  949MOL0     O25171  -2.187   8.976   5.232 -0.0879  0.0142  0.5178
  949MOL0     C25172  -2.292   9.075   5.236  0.1087  0.0689 -0.0562
  949MOL0     C25173  -2.398   9.028   5.143 -0.5716 -0.9606  0.3724
  949MOL0     C25174  -2.522   9.109   5.145 -0.1994  0.2613  0.0321
  949MOL0     C25175  -2.618   9.101   5.027  0.4792  0.0301  1.0948
  949MOL0     C25176  -2.736   9.190   5.062  0.1021  0.3492 -0.6677
  949MOL0     C25177  -2.822   9.223   4.945  0.2334  0.1025  1.3798
  949MOL0     C25178  -2.907   9.342   4.956 -0.0384 -0.0209 -0.2272
  949MOL0     C25179  -2.997   9.377   4.837  0.2251  0.2394  0.7757
  949MOL0    Cl25180  -2.887   9.440   4.718  0.3528 -0.0905  0.1594
  949MOL0     C25181  -2.002   8.880   5.350  0.0065 -0.4114  0.0801
  949MOL0     C25182  -1.891   8.889   5.427 -0.8061  0.1300 -0.7970
  949MOL0     O25183  -1.618   8.846   5.431  0.9034 -0.5165  0.6834
  949MOL0     C25184  -1.369   8.904   5.540 -0.8699 -0.6154 -0.3959
  949MOL0     C25185  -1.246   8.916   5.614 -0.6688  0.4504  0.1166
  949MOL0     N25186  -0.645   8.981   6.031  0.0410 -0.4587 -0.0324
  949MOL0     N25187  -0.552   8.889   6.037  0.3087  0.0160  0.4208
  949MOL0     C25188   0.481   8.858   6.398  0.7774  0.2186  0.2834
  949MOL0     C25189   0.579   8.777   6.463 -0.1239 -0.5189 -0.3934
  949MOL0     C25190   0.941   8.637   6.656 -0.0997  0.5130 -0.5875
  949MOL0     C25191   0.979   8.645   6.791  0.5006  0.6112  0.5154
  949MOL0     C25192   1.100   8.609   6.841 -0.4038  0.4763  0.2407
  949MOL0     C25193   1.195   8.554   6.751  0.4249  0.0020  0.4449
  949MOL0     O25194   1.309   8.515   6.807  0.0564  0.4124 -0.4241
  949MOL0     C25195   1.420   8.465   6.729 -0.3355 -0.7005 -0.5982
  949MOL0     C25196   1.527   8.572   6.703 -0.1491 -0.1113 -0.1845
  949MOL0     C25197   1.624   8.527   6.598 -0.1484 -0.3187 -0.3176
  949MOL0     C25198   1.730   8.432   6.655 -1.1034  0.8510 -0.1587
  949MOL0     C25199   1.851   8.419   6.566  0.5733  0.0371 -0.4601
  949MOL0     C25200   1.949   8.425   6.497 -0.1228 -0.4506  1.1486
  949MOL0     C25201   1.157   8.532   6.617 -0.0081  0.2348 -0.2445
  949MOL0     C25202   1.030   8.573   6.574 -0.3353  0.7975 -0.1904
  949MOL0     H25203   0.833   8.852   6.252 -1.7864 -0.0010 -2.0189
  949MOL0     H25204   0.657   8.975   6.136 -0.0201  0.1561  0.8142
  949MOL0     H25205   0.350   9.205   6.316  0.2971  0.1455 -0.1336
  949MOL0     H25206   0.329   9.073   6.416 -1.4005  2.3089  0.1024
  949MOL0     H25207   0.216   9.094   6.136 -0.8115  1.6064 -0.9520
  949MOL0     H25208   0.133   9.157   6.273 -0.6628 -1.0578  0.2219
  949MOL0     H25209   0.122   8.912   6.356  4.8805 -0.6338  0.7031
  949MOL0     H25210   0.226   8.867   6.232  0.0115 -0.3352 -0.8177
  949MOL0     H25211   0.062   8.925   6.048  1.3669 -1.7770  0.1513
  949MOL0     H25212   0.023   8.796   6.150 -2.0044  0.4910  2.5668
  949MOL0     H25213  -0.082   9.077   6.204  1.7902 -0.7578  0.2522
  949MOL0     H25214  -0.140   8.921   6.263  4.6327 -0.2438  0.7979
  949MOL0     H25215  -0.136   9.011   5.976 -0.2506 -0.3598 -1.5495
  949MOL0     H25216  -0.281   9.032   6.085  1.8396  2.2653  2.9794
  949MOL0     H25217  -0.168   8.761   5.987 -0.6731 -0.5760 -2.1615
  949MOL0     H25218  -0.295   8.772   6.092  0.2373 -1.0273 -0.2943
  949MOL0     H25219  -0.360   8.729   5.872  1.0617 -0.1476  1.3856
  949MOL0     H25220  -0.290   8.888   5.812  1.1199 -0.8611  0.1008
  949MOL0     H25221  -0.504   9.041   5.745 -2.2449  0.0960 -0.5511
  949MOL0     H25222  -0.665   9.235   5.799 -1.2950 -0.2748  0.2524
  949MOL0     H25223  -0.733   9.243   5.959  0.8718  1.0349 -0.5690
  949MOL0     H25224  -0.837   9.069   5.736  0.6004 -1.8015  0.6374
  949MOL0     H25225  -0.912   9.218   5.788 -1.2391 -1.3848  0.3825
  949MOL0     H25226  -0.906   8.961   5.952  1.8358  0.6943 -0.1816
  949MOL0     H25227  -0.931   9.110   6.032 -3.1255  3.0955 -0.5050
  949MOL0     H25228  -1.121   9.171   5.907 -1.3195 -0.5744  0.0668
  949MOL0     H25229  -1.162   9.019   5.971 -2.6072  0.0783 -3.2043
  949MOL0     H25230  -1.354   9.126   5.858 -0.2998 -0.4100 -0.6825
  949MOL0     H25231  -1.583   9.087   5.729 -1.0885 -1.8778 -0.3266
  949MOL0     H25232  -1.865   9.222   5.449 -2.2977  1.1276 -1.3048
  949MOL0     H25233  -2.079   9.208   5.317  1.4001 -0.0413 -2.0103
  949MOL0     H25234  -2.259   9.174   5.204 -2.0667  1.3378  1.4067
  949MOL0     H25235  -2.324   9.076   5.340 -0.0662 -0.1931 -0.1080
  949MOL0     H25236  -2.425   8.925   5.168  1.0494 -1.8368 -1.2562
  949MOL0     H25237  -2.368   9.029   5.038  1.6711  0.8607  0.9551
  949MOL0     H25238  -2.498   9.213   5.167  2.5599 -0.2427 -0.2983
  949MOL0     H25239  -2.578   9.081   5.235  1.1318  0.9218  1.0875
  949MOL0     H25240  -2.555   9.134   4.944  2.6983 -2.9090  1.4283
  949MOL0     H25241  -2.653   9.001   4.999  0.1967  0.3847  0.1527
  949MOL0     H25242  -2.686   9.280   5.101  1.9658 -1.5344  1.5493
  949MOL0     H25243  -2.794   9.145   5.143 -3.2761  2.2894 -1.7656
  949MOL0     H25244  -2.890   9.140   4.926 -1.6498  1.4079  2.0797
  949MOL0     H25245  -2.751   9.224   4.862  0.8425 -4.3123  1.6183
  949MOL0     H25246  -2.963   9.332   5.049 -1.2301  3.8223 -0.3611
  949MOL0     H25247  -2.850   9.433   4.975  0.8090 -0.4410 -0.7085
  949MOL0     H25248  -3.081   9.442   4.865  0.5224  0.6271  0.7793
  949MOL0     H25249  -3.043   9.288   4.792  0.1005  0.2792  0.8241
  949MOL0     H25250  -2.028   8.781   5.313 -0.9760 -0.2181  0.2496
  949MOL0     H25251  -1.855   8.794   5.464 -2.2890 -0.6422 -1.2538
  949MOL0     H25252  -1.370   8.830   5.460  0.1809 -0.2543 -0.7668
  949MOL0     H25253  -1.160   8.861   5.577  0.8461  2.6509  0.1504
  949MOL0     H25254   0.383   8.865   6.445  2.1199  3.0918  3.0581
  949MOL0     H25255   0.551   8.722   6.552 -2.7462 -0.7106 -1.2247
  949MOL0     H25256   0.915   8.697   6.862 -0.8153 -0.3832  0.1055
  949MOL0     H25257   1.114   8.624   6.947 -0.9084 -1.5382  0.6382
  949MOL0     H25258   1.391   8.414   6.636  0.2966 -1.2343 -0.5124
  949MOL0     H25259   1.463   8.385   6.789 -0.9357 -1.5014 -1.2152
  949MOL0     H25260   1.478   8.663   6.668 -3.0231  0.0909  3.7163
  949MOL0     H25261   1.588   8.599   6.789  1.4568 -0.7069 -1.0767
  949MOL0     H25262   1.682   8.614   6.564  3.4115 -2.2475  0.2870
  949MOL0     H25263   1.563   8.500   6.511 -0.2506 -1.6076  0.1377
  949MOL0     H25264   1.760   8.462   6.755 -1.9718 -3.8280  1.7923
  949MOL0     H25265   1.700   8.327   6.666  1.9903  0.0279  1.4274
  949MOL0     H25266   2.028   8.426   6.424  0.3532 -3.4044  1.5116
  949MOL0     H25267   1.235   8.491   6.554  2.2152  0.5913  2.0778
  949MOL0     H25268   1.012   8.569   6.467 -3.1463  0.6787  0.2202
  950MOL0     O25269   0.969   0.136   4.665  0.6318  0.0560  0.5200
  950MOL0     C25270   1.008   0.242   4.703 -0.5448 -0.1008 -0.1804
  950MOL0     O25271   0.928   0.350   4.742 -0.0928  0.4891 -0.1480
  950MOL0     C25272   0.792   0.343   4.725  1.3036  0.7155 -0.0657
  950MOL0     C25273   0.730   0.382   4.604 -0.6302 -0.2038  0.0428
  950MOL0     C25274   0.590   0.386   4.595  0.1933 -0.2575 -0.2000
  950MOL0     C25275   0.512   0.336   4.705  0.8574 -0.4675 -0.2955
  950MOL0     O25276   0.380   0.336   4.680  0.0521  0.3561  0.0396
  950MOL0     C25277   0.292   0.335   4.797  0.7206  0.5325 -0.2791
  950MOL0     C25278   0.151   0.315   4.736  0.4578  0.2224 -0.0154
  950MOL0     C25279   0.047   0.317   4.849  0.3710  0.3248 -0.1995
  950MOL0     C25280  -0.079   0.235   4.809  0.6487  0.1230 -0.4924
  950MOL0     C25281  -0.185   0.250   4.918  0.0024  0.4578 -0.3438
  950MOL0     C25282  -0.253   0.387   4.924  0.3132 -0.1862 -0.0629
  950MOL0     C25283  -0.366   0.416   5.025 -0.1385 -0.1561 -0.3087
  950MOL0     C25284  -0.483   0.342   4.970  0.4474 -0.2183  0.1823
  950MOL0     N25285  -0.599   0.390   5.032 -0.5330 -0.2692  0.2507
  950MOL0     C25286  -0.704   0.461   4.972  0.0717 -0.1357  0.6786
  950MOL0     C25287  -0.793   0.490   5.064 -0.2731  0.9753 -1.0459
  950MOL0     C25288  -0.925   0.583   5.046 -0.5031  0.4812 -0.4514
  950MOL0     C25289  -0.909   0.722   5.108 -0.1007  0.3703 -0.1784
  950MOL0     C25290  -0.787   0.803   5.057 -0.1148 -0.1282  0.4401
  950MOL0     C25291  -0.789   0.942   5.120 -0.4197  1.2098  0.1952
  950MOL0     O25292  -0.730   1.038   5.030  0.6513 -0.4774 -0.1334
  950MOL0     C25293  -0.598   1.072   5.033 -0.4656  0.1718 -0.5477
  950MOL0     C25294  -0.545   1.162   4.939 -0.2726 -0.1119  0.2811
  950MOL0     C25295  -0.403   1.167   4.912  0.4463  0.7786 -0.4116
  950MOL0     C25296  -0.307   1.101   4.992  0.8173  0.8589 -0.5139
  950MOL0     C25297  -0.160   1.123   4.975  1.3233  0.7750  0.6289
  950MOL0     O25298  -0.120   1.239   4.914  0.9137 -0.0884 -0.4543
  950MOL0     C25299   0.011   1.256   4.885 -0.1437 -1.3623  0.1690
  950MOL0     C25300   0.046   1.268   4.749  0.1116 -1.0575  0.4262
  950MOL0     C25301   0.181   1.288   4.708 -0.1704 -0.1223 -1.1698
  950MOL0     C25302   0.282   1.306   4.808  0.7062 -0.0807  0.5890
  950MOL0     O25303   0.408   1.338   4.767 -0.0596  0.2758 -0.4541
  950MOL0     C25304   0.518   1.291   4.859  0.0019 -0.4594 -0.1849
  950MOL0     C25305   0.625   1.248   4.761  0.8242 -0.1141 -0.7830
  950MOL0     C25306   0.759   1.305   4.803 -0.1744 -0.0017 -0.0274
  950MOL0     C25307   0.868   1.304   4.694  0.2031 -0.6966  0.1876
  950MOL0     C25308   0.990   1.379   4.756 -0.4706  0.5241 -1.6437
  950MOL0     C25309   1.103   1.400   4.655 -0.6223  0.4592  0.1221
  950MOL0     C25310   1.243   1.418   4.733  0.1821  0.0285 -0.5702
  950MOL0     C25311   1.320   1.527   4.674 -0.4781 -0.0582  0.8150
  950MOL0    Cl25312   1.470   1.570   4.761  0.3317 -0.1538  0.1801
  950MOL0     C25313   0.243   1.316   4.948  0.8160  0.2493  0.0976
  950MOL0     C25314   0.112   1.287   4.982  0.8641  0.2054 -0.8389
  950MOL0     O25315  -0.078   1.038   5.019  0.7991  0.1499 -0.1069
  950MOL0     C25316  -0.358   1.014   5.094 -1.0658  0.1231 -0.7070
  950MOL0     C25317  -0.497   1.004   5.114 -1.5906 -0.3111 -0.4384
  950MOL0     N25318  -0.752   0.426   5.186  0.1148  0.8237 -0.1970
  950MOL0     N25319  -0.635   0.375   5.161  0.3505  0.2511 -0.5324
  950MOL0     C25320   0.570   0.305   4.833 -0.6636  1.6050  0.4596
  950MOL0     C25321   0.709   0.307   4.842 -0.0428 -0.3330 -0.4661
  950MOL0     C25322   1.162   0.258   4.720  0.4801  0.0167 -0.1099
  950MOL0     C25323   1.245   0.146   4.746 -0.1505 -1.0592  0.0118
  950MOL0     C25324   1.382   0.175   4.751  0.3639  1.1092 -0.0790
  950MOL0     C25325   1.433   0.303   4.753 -0.3248  1.2987 -0.0338
  950MOL0     O25326   1.564   0.343   4.775 -0.5389  0.6263  1.1568
  950MOL0     C25327   1.664   0.249   4.800  0.8382  0.0517 -0.3342
  950MOL0     C25328   1.794   0.315   4.836 -0.0136 -0.0009  0.5331
  950MOL0     C25329   1.879   0.348   4.714 -0.3547 -0.8087  0.7875
  950MOL0     C25330   1.987   0.460   4.731  0.2147  0.4719  0.3136
  950MOL0     C25331   2.097   0.454   4.635  1.7130  0.4418  0.5976
  950MOL0     C25332   2.185   0.444   4.547 -0.5252  0.6851 -0.1852
  950MOL0     C25333   1.349   0.408   4.736  0.0924  0.1539  0.1262
  950MOL0     C25334   1.213   0.392   4.714 -0.2299 -0.8900  0.4194
  950MOL0     H25335   0.806   0.414   4.532 -0.7742  3.4101  1.2806
  950MOL0     H25336   0.548   0.415   4.499 -2.1351 -0.1812  0.7755
  950MOL0     H25337   0.300   0.425   4.857  0.8326  1.7253 -2.0059
  950MOL0     H25338   0.306   0.250   4.865 -2.1519 -3.1156 -3.7699
  950MOL0     H25339   0.149   0.223   4.677 -3.4779  1.6656 -2.5183
  950MOL0     H25340   0.120   0.389   4.661  2.2829  1.0426 -0.0104
  950MOL0     H25341   0.037   0.421   4.881 -1.1502  1.2289 -3.1441
  950MOL0     H25342   0.098   0.267   4.931  1.8944  0.7282 -0.8765
  950MOL0     H25343  -0.124   0.273   4.717  0.9521 -0.1739 -0.7618
  950MOL0     H25344  -0.057   0.130   4.793  1.1305  0.1935 -0.2966
  950MOL0     H25345  -0.146   0.229   5.018  0.3374 -2.6928 -1.0247
  950MOL0     H25346  -0.258   0.173   4.892  0.4403 -0.1510  0.1917
  950MOL0     H25347  -0.273   0.431   4.825  0.3552  2.4845  1.0236
  950MOL0     H25348  -0.171   0.451   4.958  0.7392  0.1610 -1.6729
  950MOL0     H25349  -0.350   0.391   5.130 -3.3603 -0.6704  0.1680
  950MOL0     H25350  -0.388   0.523   5.029  0.8079  0.0255  2.8233
  950MOL0     H25351  -0.465   0.237   4.996 -1.2781 -0.9791 -1.4671
  950MOL0     H25352  -0.493   0.348   4.861 -0.0204 -0.9250  0.1755
  950MOL0     H25353  -0.701   0.483   4.866  1.4666  2.6370  1.2176
  950MOL0     H25354  -1.003   0.546   5.114 -0.3323  1.9964  0.6448
  950MOL0     H25355  -0.953   0.588   4.941  1.2235 -3.4133 -1.2601
  950MOL0     H25356  -0.904   0.706   5.217 -2.2038 -0.2134 -0.1120
  950MOL0     H25357  -1.004   0.773   5.088 -0.4423 -0.7755 -1.6448
  950MOL0     H25358  -0.690   0.757   5.075  0.8540  1.2781 -0.9809
  950MOL0     H25359  -0.796   0.810   4.948  0.6206 -0.6101  0.3463
  950MOL0     H25360  -0.747   0.934   5.221 -1.5193 -2.9830  0.4689
  950MOL0     H25361  -0.894   0.968   5.136 -1.0054 -1.4690  1.1198
  950MOL0     H25362  -0.612   1.205   4.865  0.0945  0.5192  0.3039
  950MOL0     H25363  -0.367   1.233   4.834  2.5059 -0.9510 -0.9939
  950MOL0     H25364  -0.039   1.264   4.682 -1.7410  1.8986  2.3727
  950MOL0     H25365   0.201   1.296   4.602 -1.6136  1.5191 -1.3647
  950MOL0     H25366   0.478   1.212   4.924 -0.8315  1.3487  1.5970
  950MOL0     H25367   0.551   1.372   4.923 -1.9028  0.4978 -0.3539
  950MOL0     H25368   0.607   1.286   4.660 -4.9866  1.3870  0.4473
  950MOL0     H25369   0.628   1.139   4.763 -2.1881 -0.2885 -0.9569
  950MOL0     H25370   0.784   1.247   4.892 -0.4311 -2.9871 -1.7701
  950MOL0     H25371   0.734   1.406   4.836 -0.7362 -0.4964  1.1033
  950MOL0     H25372   0.893   1.204   4.656 -3.3746 -1.8133  0.4059
  950MOL0     H25373   0.837   1.361   4.606 -0.2520  0.5090  1.1173
  950MOL0     H25374   1.026   1.315   4.836 -1.3728  0.5846 -1.1717
  950MOL0     H25375   0.972   1.474   4.807  1.7918 -1.3415  3.1570
  950MOL0     H25376   1.093   1.493   4.597  1.2420  1.1775  0.8660
  950MOL0     H25377   1.103   1.316   4.585  0.1968  1.8763 -1.6885
  950MOL0     H25378   1.231   1.421   4.842  1.6507  0.6459 -0.3957
  950MOL0     H25379   1.305   1.328   4.722  1.2544  0.4652  1.3801
  950MOL0     H25380   1.264   1.621   4.668 -0.1934  0.1085  0.7907
  950MOL0     H25381   1.339   1.495   4.571  2.8047  3.2437  0.2024
  950MOL0     H25382   0.312   1.342   5.028  1.7773 -1.0905 -0.2566
  950MOL0     H25383   0.081   1.285   5.085 -2.4479 -3.8994 -1.6358
  950MOL0     H25384  -0.299   0.948   5.157 -2.1534  0.3233  0.5513
  950MOL0     H25385  -0.525   0.922   5.179 -0.9813  2.0889  3.1657
  950MOL0     H25386   0.509   0.301   4.922 -1.1313  1.4366  0.1384
  950MOL0     H25387   0.762   0.297   4.936 -0.7431  0.1923 -0.0117
  950MOL0     H25388   1.209   0.044   4.757 -0.8838 -0.9089 -0.8739
  950MOL0     H25389   1.449   0.090   4.747 -1.9180 -0.7439 -3.0598
  950MOL0     H25390   1.671   0.185   4.711  2.3472  1.6631 -1.4315
  950MOL0     H25391   1.630   0.189   4.885 -0.4531  1.7932  0.4384
  950MOL0     H25392   1.778   0.403   4.898  1.6724  0.6054  0.1448
  950MOL0     H25393   1.857   0.244   4.891  1.0829 -0.8099 -1.6369
  950MOL0     H25394   1.805   0.378   4.640  2.9723  2.0004 -1.7292
  950MOL0     H25395   1.929   0.258   4.677 -0.7732 -0.9815  0.6392
  950MOL0     H25396   1.935   0.556   4.741  0.6361  0.8499 -0.9206
  950MOL0     H25397   2.032   0.445   4.830  0.3231 -2.8737 -0.1289
  950MOL0     H25398   2.275   0.427   4.493  0.3314  1.2975  0.9974
  950MOL0     H25399   1.394   0.506   4.729 -0.2592  0.2787 -0.4571
  950MOL0     H25400   1.140   0.469   4.691  0.3722 -0.2442  0.6692
  951MOL0     O25401   6.421   3.628   7.629 -0.3705  0.0661 -0.6389
  951MOL0     C25402   6.444   3.724   7.708  0.1921  0.4542  0.6566
  951MOL0     O25403   6.351   3.823   7.744 -0.1063  0.3210  0.3357
  951MOL0     C25404   6.223   3.813   7.712  0.1504 -0.3393 -0.4101
  951MOL0     C25405   6.142   3.704   7.760  0.5438  0.2064 -0.1153
  951MOL0     C25406   6.008   3.688   7.717 -0.5366  0.0727 -0.3442
  951MOL0     C25407   5.941   3.789   7.643 -0.4491  0.3088  0.1549
  951MOL0     O25408   5.818   3.756   7.618 -0.0650 -0.5294  0.3070
  951MOL0     C25409   5.758   3.812   7.499 -0.2915 -0.0135  0.2363
  951MOL0     C25410   5.608   3.776   7.477 -0.1263 -0.4202 -0.0452
  951MOL0     C25411   5.579   3.782   7.325  0.2384 -0.7946  0.3384
  951MOL0     C25412   5.427   3.770   7.308 -0.4023  0.1016 -0.1020
  951MOL0     C25413   5.368   3.903   7.351  0.5640  0.3082 -0.7672
  951MOL0     C25414   5.214   3.909   7.357 -0.6722  0.5320 -0.0976
  951MOL0     C25415   5.140   4.032   7.301 -0.6248 -0.0110 -0.8521
  951MOL0     C25416   5.158   4.149   7.396  0.4548  0.5071  0.0583
  951MOL0     N25417   5.053   4.244   7.366 -0.2906 -0.5706 -0.3881
  951MOL0     C25418   5.060   4.322   7.255  0.7205  0.3630  0.2636
  951MOL0     C25419   4.946   4.392   7.266 -0.2304 -0.2656  0.2345
  951MOL0     C25420   4.888   4.483   7.163 -0.0445 -0.1225 -0.7326
  951MOL0     C25421   4.870   4.414   7.031  0.0611  1.0204  0.0277
  951MOL0     C25422   4.777   4.281   7.048 -0.0254 -0.7588  0.0269
  951MOL0     C25423   4.628   4.314   7.060 -0.6357  0.1799 -0.0075
  951MOL0     O25424   4.598   4.347   6.928  0.2271 -0.2736 -0.0569
  951MOL0     C25425   4.459   4.352   6.896 -0.9086 -0.3867  0.0547
  951MOL0     C25426   4.429   4.372   6.762 -1.3043 -0.2062  0.0273
  951MOL0     C25427   4.302   4.398   6.733  0.3286  0.3472 -0.2590
  951MOL0     C25428   4.198   4.385   6.823 -0.1161  0.4111 -0.7546
  951MOL0     C25429   4.059   4.409   6.774  0.3933  0.6006 -0.1898
  951MOL0     O25430   3.962   4.358   6.852  0.2615  0.2130 -0.0479
  951MOL0     C25431   3.831   4.386   6.816  0.9888 -0.7571  1.4039
  951MOL0     C25432   3.772   4.306   6.709 -0.0454 -0.3466 -0.6365
  951MOL0     C25433   3.640   4.340   6.675 -0.5228 -0.1062 -1.5100
  951MOL0     C25434   3.557   4.423   6.745 -0.7278 -0.8381 -0.4937
  951MOL0     O25435   3.425   4.428   6.718 -0.0430 -0.0472  0.1767
  951MOL0     C25436   3.334   4.449   6.826 -0.1212  0.5694 -0.1005
  951MOL0     C25437   3.228   4.340   6.816  0.7728 -0.0842 -0.1788
  951MOL0     C25438   3.149   4.325   6.954  0.2291 -0.8982  0.1295
  951MOL0     C25439   3.035   4.220   6.937 -1.2788 -0.2070  0.3151
  951MOL0     C25440   2.957   4.210   7.060  1.1193  0.3601 -0.7506
  951MOL0     C25441   2.860   4.090   7.058  0.3576 -0.5244  0.2416
  951MOL0     C25442   2.763   4.093   7.176 -0.1507 -0.2265  0.1642
  951MOL0     C25443   2.656   3.980   7.156 -0.2077  0.3137  0.3429
  951MOL0    Cl25444   2.716   3.817   7.176  0.1811  0.6167 -0.1970
  951MOL0     C25445   3.615   4.501   6.850  0.6634 -0.1546  0.0667
  951MOL0     C25446   3.751   4.478   6.886 -0.5770  0.6918 -0.0788
  951MOL0     O25447   4.040   4.458   6.662 -0.6038 -0.6829 -0.4551
  951MOL0     C25448   4.224   4.350   6.957 -0.2012 -0.5999  0.4242
  951MOL0     C25449   4.357   4.350   6.994 -0.1734  0.7389 -0.0445
  951MOL0     N25450   4.875   4.358   7.381  0.3876 -0.1770 -0.4407
  951MOL0     N25451   4.943   4.268   7.445 -0.2685 -0.6761 -0.3064
  951MOL0     C25452   6.023   3.894   7.589  0.4990 -0.1376  0.6910
  951MOL0     C25453   6.157   3.908   7.618 -0.0517  0.9815 -0.0609
  951MOL0     C25454   6.578   3.748   7.749 -0.7285  0.6881 -0.9522
  951MOL0     C25455   6.682   3.684   7.686  0.4860  0.0722  0.3644
  951MOL0     C25456   6.810   3.735   7.702  0.2346  0.3532  0.2094
  951MOL0     C25457   6.843   3.842   7.789  0.3128 -0.3432  0.6301
  951MOL0     O25458   6.977   3.877   7.782  0.2161  1.1838 -0.0620
  951MOL0     C25459   7.035   3.883   7.912  0.5643  0.1858 -0.4634
  951MOL0     C25460   7.184   3.911   7.892 -0.9609  0.1381  0.2025
  951MOL0     C25461   7.206   4.046   7.827  0.1067 -0.4909  0.3868
  951MOL0     C25462   7.323   4.120   7.894 -0.0760 -0.2106  0.3433
  951MOL0     C25463   7.354   4.238   7.818 -1.0542 -0.3494  0.3906
  951MOL0     C25464   7.382   4.343   7.758  0.0595 -0.0316  0.0121
  951MOL0     C25465   6.741   3.901   7.864  0.1109  0.5856  0.5285
  951MOL0     C25466   6.607   3.857   7.833 -0.1736 -0.1883 -0.3973
  951MOL0     H25467   6.196   3.626   7.811  1.8555  2.2611  1.8448
  951MOL0     H25468   5.969   3.590   7.740 -0.2173  0.4959  2.3482
  951MOL0     H25469   5.819   3.787   7.411  0.5914  1.0905  0.5216
  951MOL0     H25470   5.766   3.921   7.498  1.3836 -0.1061 -0.5929
  951MOL0     H25471   5.545   3.841   7.538  1.0600  1.0592 -0.3342
  951MOL0     H25472   5.581   3.678   7.517 -1.4049  0.2201  0.6958
  951MOL0     H25473   5.617   3.692   7.276 -1.2808 -1.9888  1.2789
  951MOL0     H25474   5.632   3.867   7.281  1.5903 -1.0621  1.3769
  951MOL0     H25475   5.400   3.751   7.204 -2.3417 -1.9891  0.7090
  951MOL0     H25476   5.401   3.679   7.362  3.3765 -2.0511 -1.5617
  951MOL0     H25477   5.395   3.974   7.272 -0.1492  2.4742  0.8389
  951MOL0     H25478   5.400   3.945   7.447 -1.4309  0.3030 -0.0474
  951MOL0     H25479   5.191   3.900   7.464  0.0657  0.5976  0.0753
  951MOL0     H25480   5.161   3.830   7.303  0.1310  0.0930 -0.2694
  951MOL0     H25481   5.171   4.058   7.199 -0.3071 -1.6371 -1.2030
  951MOL0     H25482   5.033   4.009   7.304 -1.4823  3.4000  1.9993
  951MOL0     H25483   5.256   4.190   7.371 -0.2866  2.2372 -0.1696
  951MOL0     H25484   5.159   4.125   7.503  1.3524  0.6908  0.0912
  951MOL0     H25485   5.138   4.335   7.180  0.4592  1.2634  0.1346
  951MOL0     H25486   4.943   4.576   7.146 -1.1998  0.9784  1.0657
  951MOL0     H25487   4.790   4.506   7.206 -1.0113 -4.2784 -0.3252
  951MOL0     H25488   4.973   4.383   7.011 -0.7844 -2.3704  0.3615
  951MOL0     H25489   4.842   4.479   6.948  0.8251 -0.8329 -1.7487
  951MOL0     H25490   4.793   4.223   6.956 -0.2246 -2.9675  1.3069
  951MOL0     H25491   4.815   4.222   7.133  1.2834  0.7005  0.5014
  951MOL0     H25492   4.608   4.391   7.136 -1.2649  0.2645 -0.2510
  951MOL0     H25493   4.579   4.222   7.093 -0.4419  0.0923  0.0378
  951MOL0     H25494   4.504   4.373   6.683  0.0465  0.5722  1.2803
  951MOL0     H25495   4.276   4.418   6.629  0.8830 -1.6376 -0.8188
  951MOL0     H25496   3.827   4.226   6.661  0.6721 -1.5815  2.0307
  951MOL0     H25497   3.597   4.277   6.598  2.6781 -2.5239 -1.5031
  951MOL0     H25498   3.298   4.552   6.819 -0.1543  0.6974  1.4619
  951MOL0     H25499   3.379   4.448   6.926 -2.4978  3.0821  1.1136
  951MOL0     H25500   3.272   4.244   6.788  3.9810  0.8232  1.2395
  951MOL0     H25501   3.157   4.365   6.737  1.2016  0.5548 -0.3753
  951MOL0     H25502   3.105   4.422   6.977  0.9549 -0.3687 -0.6278
  951MOL0     H25503   3.211   4.289   7.037  0.6953 -2.9506 -1.0267
  951MOL0     H25504   2.969   4.247   6.854 -0.0252  1.0388 -0.3245
  951MOL0     H25505   3.075   4.122   6.909 -1.7691 -0.3292  0.0285
  951MOL0     H25506   2.908   4.304   7.089  0.3259 -0.4574  0.6817
  951MOL0     H25507   3.021   4.192   7.147  2.4224  0.8433 -1.5757
  951MOL0     H25508   2.921   4.000   7.073  2.0200  0.4218 -0.6001
  951MOL0     H25509   2.813   4.090   6.960  2.1469  0.6794 -0.6776
  951MOL0     H25510   2.811   4.083   7.274  3.4216 -0.3185 -1.4600
  951MOL0     H25511   2.714   4.191   7.176 -2.8424 -1.4716 -0.4203
  951MOL0     H25512   2.607   3.988   7.059  0.7105  2.3066 -0.0046
  951MOL0     H25513   2.580   3.998   7.233  0.4870  1.2225  0.8458
  951MOL0     H25514   3.559   4.570   6.913 -0.3031 -2.8714  2.3984
  951MOL0     H25515   3.811   4.530   6.961  0.0315 -2.1876  1.5714
  951MOL0     H25516   4.146   4.352   7.033  1.1029  1.6939  1.7900
  951MOL0     H25517   4.372   4.336   7.101 -1.0321 -0.2415 -0.0433
  951MOL0     H25518   5.977   3.959   7.515 -0.7861 -1.9558 -0.1968
  951MOL0     H25519   6.224   3.976   7.568 -0.1999 -0.2556 -2.0705
  951MOL0     H25520   6.678   3.605   7.612  0.9484 -1.4149  1.8798
  951MOL0     H25521   6.896   3.691   7.653  0.0205 -0.5741  0.6617
  951MOL0     H25522   7.023   3.784   7.956  1.3109 -0.1827 -1.0757
  951MOL0     H25523   6.986   3.960   7.973  0.4160  0.0512 -0.4109
  951MOL0     H25524   7.245   3.912   7.983  3.4296 -0.3172 -2.3972
  951MOL0     H25525   7.223   3.836   7.822 -1.4469 -0.9808  1.1047
  951MOL0     H25526   7.110   4.098   7.838  0.6371  0.1926  2.0825
  951MOL0     H25527   7.220   4.033   7.719  0.5261  1.3819  0.1800
  951MOL0     H25528   7.293   4.151   7.994 -2.2225 -2.0789  0.3747
  951MOL0     H25529   7.412   4.057   7.905  2.2048  3.0490  2.0514
  951MOL0     H25530   7.411   4.434   7.710 -0.4134  0.5157  0.7485
  951MOL0     H25531   6.758   3.991   7.921  0.4337 -0.5831  2.3730
  951MOL0     H25532   6.531   3.916   7.885  0.9224  0.0383  1.0189
  952MOL0     O25533  10.820   6.091   4.414  0.5170  0.2459  0.3438
  952MOL0     C25534  10.799   6.133   4.525 -0.0552 -0.5179 -0.1964
  952MOL0     O25535  10.684   6.194   4.574 -0.8632 -0.4480 -0.2970
  952MOL0     C25536  10.577   6.163   4.504 -0.7966 -0.0409  1.0047
  952MOL0     C25537  10.491   6.268   4.480  0.3852 -0.2987 -0.5850
  952MOL0     C25538  10.375   6.236   4.415  0.3856  0.4259 -0.0458
  952MOL0     C25539  10.339   6.110   4.372  0.3046  0.3239 -0.0390
  952MOL0     O25540  10.213   6.110   4.317  0.0911 -0.1130 -0.3162
  952MOL0     C25541  10.149   5.984   4.310  0.8975  0.3700  0.5744
  952MOL0     C25542  10.175   5.923   4.166  0.5600  0.7016 -0.0565
  952MOL0     C25543  10.163   5.766   4.168  0.8677  0.0184 -0.0398
  952MOL0     C25544  10.123   5.707   4.026  0.5449  0.1884 -0.5954
  952MOL0     C25545   9.972   5.731   3.984  0.0872  0.1752  0.2178
  952MOL0     C25546   9.938   5.676   3.844  0.0312 -0.7066  0.2005
  952MOL0     C25547   9.978   5.532   3.807 -0.2239 -0.2902  0.3093
  952MOL0     C25548   9.926   5.501   3.672 -0.1520  0.5353 -0.0495
  952MOL0     N25549   9.967   5.365   3.650 -0.7079  1.0418 -0.8030
  952MOL0     C25550  10.087   5.338   3.596 -0.4365  0.0516  0.1631
  952MOL0     C25551  10.086   5.203   3.583 -0.0961 -0.8273  0.8506
  952MOL0     C25552  10.196   5.130   3.507  0.6805  0.7874 -0.1089
  952MOL0     C25553  10.181   5.151   3.358 -0.6110 -0.3486  0.7241
  952MOL0     C25554  10.195   5.295   3.301 -0.8079  0.5735 -0.0443
  952MOL0     C25555  10.341   5.339   3.285 -0.6230 -0.7409  0.0928
  952MOL0     O25556  10.396   5.341   3.415  0.3760 -0.5622 -0.3271
  952MOL0     C25557  10.522   5.381   3.445  0.4199 -0.0219 -0.3424
  952MOL0     C25558  10.557   5.353   3.574  0.4901  0.3631  0.1877
  952MOL0     C25559  10.679   5.399   3.626 -0.3851  0.3943  0.1839
  952MOL0     C25560  10.771   5.472   3.541 -0.0423  0.7107 -0.0690
  952MOL0     C25561  10.897   5.524   3.583  1.0270  0.2454  0.4205
  952MOL0     O25562  10.975   5.584   3.484 -0.5420 -0.3227  0.4246
  952MOL0     C25563  11.078   5.668   3.527  0.3903  0.6175 -0.6844
  952MOL0     C25564  11.058   5.798   3.569 -0.8183  0.1129 -0.5141
  952MOL0     C25565  11.160   5.887   3.607 -0.3021 -0.1147  0.2897
  952MOL0     C25566  11.289   5.842   3.604 -0.5825 -0.3104  0.0649
  952MOL0     O25567  11.381   5.919   3.668 -1.0327  0.0192  0.3289
  952MOL0     C25568  11.478   5.861   3.750 -0.3820  0.4844  0.9923
  952MOL0     C25569  11.557   5.976   3.809 -0.2515  1.0151 -0.2614
  952MOL0     C25570  11.472   6.065   3.893  0.2237  0.5522 -0.0432
  952MOL0     C25571  11.557   6.154   3.977 -0.8840 -0.0477 -0.1532
  952MOL0     C25572  11.596   6.074   4.109  0.5762 -0.5618  0.6727
  952MOL0     C25573  11.701   6.144   4.192 -0.6789  0.8467  0.0504
  952MOL0     C25574  11.832   6.175   4.108  0.2464 -0.1041 -0.6255
  952MOL0     C25575  11.930   6.239   4.205  0.5147  0.0052  0.7007
  952MOL0    Cl25576  12.072   6.302   4.128  0.3193  0.3789 -0.1599
  952MOL0     C25577  11.317   5.705   3.557  0.6614  0.4971  0.3452
  952MOL0     C25578  11.209   5.624   3.518 -0.4458 -1.0893  0.3799
  952MOL0     O25579  10.917   5.520   3.700 -0.1442 -0.9185 -0.0996
  952MOL0     C25580  10.731   5.495   3.407  0.4175 -0.9253 -0.3475
  952MOL0     C25581  10.606   5.461   3.365 -0.3703  0.4959 -0.2904
  952MOL0     N25582   9.976   5.150   3.646 -0.9662  0.2198  0.2446
  952MOL0     N25583   9.904   5.251   3.687  0.6944  0.7625 -0.4252
  952MOL0     C25584  10.422   6.007   4.411 -0.3005 -0.5098  0.1312
  952MOL0     C25585  10.539   6.029   4.478 -0.5497 -0.9654  0.0162
  952MOL0     C25586  10.912   6.128   4.619 -0.0553 -0.3928 -0.6232
  952MOL0     C25587  10.900   6.159   4.757  0.5496 -0.7648  0.7003
  952MOL0     C25588  10.998   6.140   4.847 -0.2452  0.5449  0.7539
  952MOL0     C25589  11.119   6.090   4.797 -0.9651 -0.8020  0.0545
  952MOL0     O25590  11.214   6.064   4.898  0.0500  0.3007  0.2369
  952MOL0     C25591  11.351   6.077   4.881 -0.3314  1.0366  0.2964
  952MOL0     C25592  11.393   6.223   4.823 -0.8677 -0.2180 -0.3104
  952MOL0     C25593  11.415   6.324   4.932 -0.4654 -0.1864  0.6169
  952MOL0     C25594  11.431   6.458   4.871 -0.0032 -0.5324 -0.0771
  952MOL0     C25595  11.300   6.518   4.878 -0.2829 -0.0883  0.8824
  952MOL0     C25596  11.179   6.556   4.884 -0.2971  0.4397 -0.6244
  952MOL0     C25597  11.143   6.073   4.659 -0.9338 -0.7994 -0.3858
  952MOL0     C25598  11.039   6.093   4.568  0.5597 -0.7431  0.0600
  952MOL0     H25599  10.516   6.370   4.507 -0.5767 -0.5577  1.4929
  952MOL0     H25600  10.297   6.309   4.393 -1.4303 -0.7946  1.9055
  952MOL0     H25601  10.042   6.004   4.318  0.9642  2.3217 -1.9184
  952MOL0     H25602  10.180   5.920   4.393  1.7919  1.0558  0.7922
  952MOL0     H25603  10.277   5.941   4.132  0.5052  4.2159  1.3214
  952MOL0     H25604  10.110   5.971   4.091 -3.4273  0.4633  2.9132
  952MOL0     H25605  10.080   5.757   4.240  0.0054  1.9757 -0.7295
  952MOL0     H25606  10.245   5.709   4.212 -0.0069  0.3580  2.2112
  952MOL0     H25607  10.191   5.751   3.952  1.4471  0.0801  0.1524
  952MOL0     H25608  10.137   5.598   4.031 -0.2636  0.0689 -0.7783
  952MOL0     H25609   9.952   5.838   3.986  0.0226  0.1614  0.3643
  952MOL0     H25610   9.907   5.678   4.055  1.2025  0.8064  1.7756
  952MOL0     H25611   9.971   5.739   3.762 -1.4734 -2.2270 -1.6603
  952MOL0     H25612   9.829   5.673   3.841  0.0191  0.4316 -1.5615
  952MOL0     H25613  10.087   5.532   3.801 -0.1207 -1.7627  1.5994
  952MOL0     H25614   9.950   5.459   3.883 -0.5528 -1.3302 -0.7945
  952MOL0     H25615   9.972   5.557   3.590  4.1585 -3.3621 -0.7328
  952MOL0     H25616   9.817   5.497   3.666 -0.0578 -0.4750 -3.5121
  952MOL0     H25617  10.156   5.412   3.556 -1.5305  0.6663 -0.6369
  952MOL0     H25618  10.187   5.024   3.532  1.0071  1.0993  1.3851
  952MOL0     H25619  10.291   5.168   3.545  2.0597 -0.9509 -1.6364
  952MOL0     H25620  10.080   5.116   3.334 -0.5477 -0.8090  1.1017
  952MOL0     H25621  10.247   5.088   3.297  0.5034  3.9041 -3.0472
  952MOL0     H25622  10.153   5.298   3.200 -0.5448  1.5825 -0.1327
  952MOL0     H25623  10.146   5.372   3.360  2.0797  1.5541  1.2507
  952MOL0     H25624  10.341   5.437   3.235  1.0701 -1.5678 -1.6437
  952MOL0     H25625  10.397   5.276   3.217  0.9527  1.8222 -1.1555
  952MOL0     H25626  10.488   5.305   3.642 -1.9343  0.1669 -2.2219
  952MOL0     H25627  10.715   5.386   3.727  4.4808  1.9915 -1.0559
  952MOL0     H25628  10.952   5.819   3.558 -0.1551  2.9834 -2.7862
  952MOL0     H25629  11.134   5.990   3.630  2.6841  1.3810 -2.3316
  952MOL0     H25630  11.538   5.789   3.695 -0.1115  0.3141  1.5012
  952MOL0     H25631  11.424   5.817   3.835 -0.4569  2.9240  2.2842
  952MOL0     H25632  11.605   6.038   3.733 -0.1973 -0.0051 -1.0824
  952MOL0     H25633  11.635   5.929   3.868 -1.0943 -1.9488 -1.3003
  952MOL0     H25634  11.406   6.003   3.954 -1.8046 -1.5979 -4.0182
  952MOL0     H25635  11.415   6.123   3.820 -0.3877  1.7276  1.3119
  952MOL0     H25636  11.640   6.187   3.915  0.2645  2.0814  2.3172
  952MOL0     H25637  11.499   6.241   4.009  0.1849  0.7075 -0.2034
  952MOL0     H25638  11.624   5.970   4.092  2.0467 -0.0182 -0.4802
  952MOL0     H25639  11.499   6.087   4.159 -0.5881  1.6652 -1.8762
  952MOL0     H25640  11.726   6.077   4.274  0.6942  0.8010 -0.3747
  952MOL0     H25641  11.658   6.235   4.233 -2.4647  0.1112 -0.0963
  952MOL0     H25642  11.867   6.081   4.065  0.7850 -0.5363  0.7190
  952MOL0     H25643  11.807   6.245   4.027  3.4142  0.7467 -0.9923
  952MOL0     H25644  11.953   6.172   4.289 -1.2349 -0.2699  1.0068
  952MOL0     H25645  11.865   6.317   4.245 -2.4620 -2.4063  0.8930
  952MOL0     H25646  11.420   5.672   3.560  0.3592 -0.4053  2.5737
  952MOL0     H25647  11.233   5.527   3.476  2.4784 -0.6602  0.8781
  952MOL0     H25648  10.797   5.550   3.341  1.8757 -0.5709  1.3384
  952MOL0     H25649  10.588   5.489   3.262  0.7390  0.5742 -0.4770
  952MOL0     H25650  10.400   5.903   4.389 -1.4940  0.0758 -1.7669
  952MOL0     H25651  10.604   5.946   4.503 -1.3129 -1.1002  1.6636
  952MOL0     H25652  10.800   6.183   4.794 -0.8845 -1.3748 -2.4376
  952MOL0     H25653  10.973   6.157   4.951 -0.2419 -1.1574  1.0672
  952MOL0     H25654  11.387   6.001   4.811 -1.2576  1.2183 -0.3858
  952MOL0     H25655  11.394   6.060   4.980  1.9439  0.6013 -0.6923
  952MOL0     H25656  11.488   6.208   4.772 -0.5270 -0.3390  0.3462
  952MOL0     H25657  11.318   6.259   4.752 -2.9600  0.9270  2.2918
  952MOL0     H25658  11.506   6.303   4.988  1.2527  2.3309 -1.0359
  952MOL0     H25659  11.325   6.317   4.993  0.2830 -3.3722  1.5369
  952MOL0     H25660  11.495   6.526   4.927 -2.3506  1.5911  0.1785
  952MOL0     H25661  11.476   6.447   4.772  0.5150  2.9067 -0.3240
  952MOL0     H25662  11.078   6.587   4.902 -0.4795 -0.6446  0.3779
  952MOL0     H25663  11.235   6.026   4.626 -2.7083 -3.2826 -2.0653
  952MOL0     H25664  11.050   6.081   4.461  2.1320  0.5915  0.0345
  953MOL0     O25665   4.510   7.325   7.021 -0.1260 -0.6070 -0.6210
  953MOL0     C25666   4.539   7.350   6.902  0.1417 -0.1635  0.9207
  953MOL0     O25667   4.460   7.420   6.820  0.3079 -0.1816  0.6286
  953MOL0     C25668   4.329   7.434   6.852  0.7645 -0.3152  0.1469
  953MOL0     C25669   4.242   7.333   6.825 -0.1752  0.0354 -0.0493
  953MOL0     C25670   4.106   7.357   6.848 -0.1185  0.1014 -0.5339
  953MOL0     C25671   4.061   7.469   6.920  0.3720 -0.5318 -0.0565
  953MOL0     O25672   3.934   7.519   6.942  0.5884  0.1816  0.3802
  953MOL0     C25673   3.826   7.439   6.903  0.2263  0.1484  0.3888
  953MOL0     C25674   3.708   7.516   6.949 -0.3340 -0.2093 -0.3527
  953MOL0     C25675   3.586   7.452   6.895  0.6322  0.0267 -0.2494
  953MOL0     C25676   3.453   7.510   6.932 -0.8507 -0.0597 -0.4995
  953MOL0     C25677   3.338   7.430   6.876  0.0001  0.9176  0.2219
  953MOL0     C25678   3.203   7.495   6.899 -0.5657  0.0215 -0.2653
  953MOL0     C25679   3.098   7.419   6.834  0.0486  0.6499  0.0762
  953MOL0     C25680   2.964   7.481   6.875 -0.5376  0.8130 -0.7690
  953MOL0     N25681   2.848   7.404   6.825 -0.3417  0.1955  0.2657
  953MOL0     C25682   2.750   7.352   6.903 -0.1985 -0.0102 -0.0612
  953MOL0     C25683   2.668   7.274   6.823 -0.8816  0.2040 -1.1745
  953MOL0     C25684   2.536   7.202   6.847  0.1951 -0.0930 -0.7575
  953MOL0     C25685   2.554   7.077   6.920 -0.1556  0.3508 -0.6810
  953MOL0     C25686   2.604   6.950   6.837  1.0541 -0.1068 -0.7186
  953MOL0     C25687   2.671   6.840   6.923  0.6638  0.1760  0.3859
  953MOL0     O25688   2.764   6.755   6.848  0.4839  0.5388 -0.0429
  953MOL0     C25689   2.889   6.794   6.818 -0.1933  0.5447  0.1608
  953MOL0     C25690   2.948   6.918   6.847  0.0453 -0.9214  0.7827
  953MOL0     C25691   3.084   6.945   6.832 -0.6599 -0.2950  0.2727
  953MOL0     C25692   3.169   6.847   6.779 -0.1012  0.6912  0.2940
  953MOL0     C25693   3.315   6.873   6.772 -0.6390 -0.3371  0.5954
  953MOL0     O25694   3.371   6.978   6.835 -0.3064  0.7086 -0.3985
  953MOL0     C25695   3.508   6.973   6.841  0.1195  0.2813 -0.7650
  953MOL0     C25696   3.586   7.056   6.759 -0.2012 -0.3186  0.5263
  953MOL0     C25697   3.726   7.049   6.765  0.6557  0.0022  0.4514
  953MOL0     C25698   3.793   6.946   6.839  0.3320 -1.1532  0.8007
  953MOL0     O25699   3.935   6.936   6.828 -0.2247  0.2270 -0.0521
  953MOL0     C25700   4.002   6.925   6.959  0.8912  0.3535  0.6294
  953MOL0     C25701   4.141   6.920   6.905 -1.1844  0.5335  0.1472
  953MOL0     C25702   4.243   6.923   7.017 -0.3159  0.6719 -0.1315
  953MOL0     C25703   4.387   6.933   6.960 -0.2971 -0.4474  0.9958
  953MOL0     C25704   4.493   6.892   7.069 -0.3402  0.4026 -0.5030
  953MOL0     C25705   4.635   6.905   7.025  0.6454  0.5531 -1.5868
  953MOL0     C25706   4.741   6.856   7.140  0.0253 -0.0318 -0.2615
  953MOL0     C25707   4.736   6.928   7.275 -0.0734 -0.1197  0.2889
  953MOL0    Cl25708   4.768   7.093   7.243 -0.0348 -0.1300  0.4068
  953MOL0     C25709   3.713   6.869   6.925 -0.7332 -0.1989  0.0773
  953MOL0     C25710   3.569   6.880   6.938  0.1868 -0.2518 -0.0662
  953MOL0     O25711   3.371   6.801   6.691 -0.7263 -0.2006 -0.3943
  953MOL0     C25712   3.113   6.723   6.738  0.9415 -0.6012  0.0131
  953MOL0     C25713   2.975   6.699   6.761  0.0411 -1.0731  0.0803
  953MOL0     N25714   2.730   7.268   6.702 -0.8314 -0.2702 -0.3182
  953MOL0     N25715   2.832   7.340   6.700 -0.5224  0.1793 -0.2170
  953MOL0     C25716   4.153   7.575   6.941  0.8005 -0.4854 -0.0390
  953MOL0     C25717   4.283   7.559   6.895  0.4871  0.2996  0.2701
  953MOL0     C25718   4.667   7.316   6.850  0.4435 -0.2338 -0.2093
  953MOL0     C25719   4.758   7.264   6.946 -0.2719  0.1940  0.0559
  953MOL0     C25720   4.884   7.223   6.901 -0.6395 -0.3031 -0.0698
  953MOL0     C25721   4.915   7.230   6.764  0.7539 -0.6114  0.0729
  953MOL0     O25722   5.034   7.181   6.731  0.2310 -0.1615 -0.0976
  953MOL0     C25723   5.133   7.281   6.703 -0.9863 -0.0251 -0.2410
  953MOL0     C25724   5.277   7.226   6.681 -0.3636  0.2454  0.8465
  953MOL0     C25725   5.325   7.141   6.805  0.0698 -0.4088 -0.6520
  953MOL0     C25726   5.431   7.035   6.779  0.0151 -0.6736 -0.7153
  953MOL0     C25727   5.567   7.085   6.809  0.2614 -0.5804  0.7510
  953MOL0     C25728   5.680   7.127   6.829 -0.0755  0.1076 -0.7224
  953MOL0     C25729   4.832   7.289   6.672 -0.3917  1.0641 -0.2292
  953MOL0     C25730   4.706   7.331   6.716 -0.7161 -0.1241  0.5511
  953MOL0     H25731   4.266   7.238   6.779  0.4062  1.6194 -3.3106
  953MOL0     H25732   4.031   7.283   6.822 -1.3476  0.2653  2.1604
  953MOL0     H25733   3.813   7.345   6.956 -1.2840 -1.3442 -2.3553
  953MOL0     H25734   3.821   7.427   6.794  1.5058  1.1154  0.1995
  953MOL0     H25735   3.714   7.618   6.909  0.5619 -0.6596 -1.4220
  953MOL0     H25736   3.720   7.521   7.058  2.5368 -1.1833 -0.5312
  953MOL0     H25737   3.578   7.349   6.929 -1.4862 -0.2980 -1.5221
  953MOL0     H25738   3.596   7.453   6.786 -1.3647 -2.3009 -0.5446
  953MOL0     H25739   3.455   7.514   7.041  5.3118 -2.9007 -0.1244
  953MOL0     H25740   3.453   7.611   6.888 -0.1623  0.7183  1.1861
  953MOL0     H25741   3.342   7.334   6.928 -0.5695  1.5115  1.4078
  953MOL0     H25742   3.350   7.422   6.768 -0.4580  1.5866  0.1139
  953MOL0     H25743   3.201   7.599   6.864 -0.9394  0.7487  1.7809
  953MOL0     H25744   3.187   7.495   7.007 -2.1559  0.5999 -0.4779
  953MOL0     H25745   3.110   7.412   6.725  2.0608  1.5491  0.2000
  953MOL0     H25746   3.110   7.322   6.884  1.7618  0.6457 -0.2737
  953MOL0     H25747   2.980   7.583   6.839  3.6375  0.9806  1.0034
  953MOL0     H25748   2.954   7.498   6.983 -0.1696 -0.2654 -0.5513
  953MOL0     H25749   2.727   7.365   7.008  3.3248  0.3455  0.7690
  953MOL0     H25750   2.488   7.173   6.753 -1.2376 -3.3964  0.8324
  953MOL0     H25751   2.462   7.262   6.900 -0.6981 -2.3117  0.6458
  953MOL0     H25752   2.463   7.048   6.972 -0.5992  0.6019 -1.3109
  953MOL0     H25753   2.633   7.094   6.994  0.8103  1.4458 -1.9127
  953MOL0     H25754   2.514   6.906   6.793 -0.9249 -0.3752  3.1767
  953MOL0     H25755   2.676   6.981   6.760  3.3216  2.2822  2.1280
  953MOL0     H25756   2.587   6.778   6.958  1.4093 -1.3577 -0.4585
  953MOL0     H25757   2.718   6.887   7.010  1.1916  2.0823 -0.8716
  953MOL0     H25758   2.888   6.995   6.894  0.6300 -0.3384  0.5865
  953MOL0     H25759   3.115   7.046   6.857 -0.0087 -0.2415 -0.6725
  953MOL0     H25760   3.537   7.132   6.699 -1.1313  0.7558  2.5334
  953MOL0     H25761   3.777   7.123   6.705 -0.1554  0.9803  0.9310
  953MOL0     H25762   3.969   6.842   7.022 -2.3198  3.6628  3.8080
  953MOL0     H25763   3.988   7.020   7.011  3.4374 -0.3286  2.8039
  953MOL0     H25764   4.170   7.009   6.849  0.7674 -0.2360 -0.1371
  953MOL0     H25765   4.165   6.830   6.848  0.4428  0.8540  0.2741
  953MOL0     H25766   4.238   6.835   7.083 -1.8778  0.5475 -0.3653
  953MOL0     H25767   4.225   7.010   7.081 -1.8400  0.3503 -0.0768
  953MOL0     H25768   4.403   6.868   6.874 -0.1721  1.4123 -0.4399
  953MOL0     H25769   4.390   7.034   6.917 -0.8778 -1.0530 -0.5284
  953MOL0     H25770   4.471   6.788   7.095 -0.7953  0.5212 -0.4013
  953MOL0     H25771   4.470   6.945   7.161 -2.8852  0.7559 -1.2667
  953MOL0     H25772   4.667   7.009   7.013 -0.2046  1.1122  0.5187
  953MOL0     H25773   4.658   6.858   6.929  2.5445  2.6330 -2.2262
  953MOL0     H25774   4.719   6.752   7.166  3.1818 -0.5850  0.6500
  953MOL0     H25775   4.840   6.859   7.095  0.1565  0.4531  0.0477
  953MOL0     H25776   4.816   6.895   7.341 -0.1113  1.3029  1.0646
  953MOL0     H25777   4.642   6.905   7.325  0.0392 -2.2593 -0.3769
  953MOL0     H25778   3.764   6.801   6.993 -1.4076 -0.6621  0.1356
  953MOL0     H25779   3.511   6.825   7.012 -0.4176 -0.1136 -0.4342
  953MOL0     H25780   3.173   6.642   6.697 -0.2647 -0.5959 -1.8733
  953MOL0     H25781   2.942   6.600   6.731  1.9471 -2.1753  1.4168
  953MOL0     H25782   4.099   7.666   6.962  2.1440  0.0609  1.2162
  953MOL0     H25783   4.345   7.647   6.907  0.7172  0.0109  1.3462
  953MOL0     H25784   4.744   7.269   7.054 -1.1206  2.5720 -0.1094
  953MOL0     H25785   4.953   7.183   6.974  0.1838  1.5128  0.2248
  953MOL0     H25786   5.143   7.368   6.768  0.1890  1.1235 -1.8648
  953MOL0     H25787   5.104   7.331   6.610 -1.0007 -0.6615 -0.5814
  953MOL0     H25788   5.272   7.170   6.588 -1.4719  1.0588  0.3916
  953MOL0     H25789   5.352   7.305   6.665  0.4576 -0.6500  0.1665
  953MOL0     H25790   5.237   7.092   6.846  1.2976 -1.9310  0.2822
  953MOL0     H25791   5.361   7.199   6.891  1.0007  1.3987 -2.1659
  953MOL0     H25792   5.414   6.960   6.857 -1.2813 -0.0421 -0.3673
  953MOL0     H25793   5.449   7.006   6.675  1.2787 -0.6485 -0.5264
  953MOL0     H25794   5.780   7.147   6.863 -0.3920 -2.0973  1.9007
  953MOL0     H25795   4.865   7.297   6.568 -0.0668  0.9478 -0.1350
  953MOL0     H25796   4.640   7.390   6.653  0.6442  0.9798  0.0902
  954MOL0     O25797   7.369   3.910   9.030  0.3399 -0.7259 -0.3124
  954MOL0     C25798   7.424   3.834   8.954 -0.4304  0.2036  0.2505
  954MOL0     O25799   7.372   3.768   8.854  0.6126 -0.2288 -0.1650
  954MOL0     C25800   7.228   3.752   8.848 -0.0371  0.2259 -0.9752
  954MOL0     C25801   7.139   3.737   8.958  0.3919 -0.4709 -0.4570
  954MOL0     C25802   7.000   3.708   8.942  0.2108  0.0399  0.5538
  954MOL0     C25803   6.955   3.675   8.808 -0.8393 -0.0564 -0.9830
  954MOL0     O25804   6.831   3.641   8.770  0.2288 -0.0807 -0.4016
  954MOL0     C25805   6.718   3.654   8.864 -0.1071 -0.1997  0.0261
  954MOL0     C25806   6.599   3.615   8.789 -0.9845 -0.0772  0.6365
  954MOL0     C25807   6.488   3.577   8.878 -1.1302 -0.0838  0.9602
  954MOL0     C25808   6.383   3.501   8.791 -0.1372  0.0189 -0.0096
  954MOL0     C25809   6.276   3.457   8.885 -0.2543 -0.0045  0.8486
  954MOL0     C25810   6.164   3.373   8.819 -0.1201  0.3376  0.4617
  954MOL0     C25811   6.091   3.439   8.699 -0.7956  0.3935  0.1051
  954MOL0     C25812   6.015   3.554   8.750  0.1302 -0.3756  0.0557
  954MOL0     N25813   5.908   3.603   8.661  0.3549 -0.7449 -0.2311
  954MOL0     C25814   5.793   3.528   8.629  0.8150 -0.9990  0.0507
  954MOL0     C25815   5.721   3.621   8.559 -0.9079  0.4762  0.1422
  954MOL0     C25816   5.577   3.602   8.520 -0.1710  0.3302 -0.1649
  954MOL0     C25817   5.485   3.656   8.640 -0.5045  0.1461 -0.8296
  954MOL0     C25818   5.332   3.643   8.611  0.3341 -0.2189  0.3248
  954MOL0     C25819   5.296   3.497   8.612  0.4604  0.3165  0.4600
  954MOL0     O25820   5.153   3.503   8.592 -0.3496  0.1797 -0.1253
  954MOL0     C25821   5.072   3.500   8.709  0.5015  0.0886  0.4227
  954MOL0     C25822   5.098   3.466   8.845 -0.3866  0.4012 -0.5176
  954MOL0     C25823   5.001   3.468   8.944 -0.0089  0.8731  0.5307
  954MOL0     C25824   4.865   3.491   8.908  0.0558  0.0684 -0.5076
  954MOL0     C25825   4.749   3.486   9.012 -0.3875  0.1869 -0.1659
  954MOL0     O25826   4.788   3.469   9.144  0.1529 -0.4872  0.4947
  954MOL0     C25827   4.692   3.465   9.241  0.1736  0.6340 -0.9479
  954MOL0     C25828   4.654   3.581   9.309  0.7228 -0.0566 -0.2910
  954MOL0     C25829   4.544   3.574   9.395 -0.2263 -0.3203 -0.4012
  954MOL0     C25830   4.481   3.456   9.423 -0.1440 -0.5920  0.6219
  954MOL0     O25831   4.377   3.466   9.517 -0.0579 -0.5473  1.4255
  954MOL0     C25832   4.371   3.365   9.616 -0.2586 -0.4879 -0.4698
  954MOL0     C25833   4.408   3.428   9.758 -0.3615  0.4069  0.5917
  954MOL0     C25834   4.396   3.337   9.881 -0.4044  0.3541 -0.7406
  954MOL0     C25835   4.486   3.213   9.859  0.4181 -0.4038 -0.6439
  954MOL0     C25836   4.493   3.147   9.992  0.7956  0.1993 -0.2567
  954MOL0     C25837   4.365   3.089  10.026 -0.4235  0.2502 -0.7743
  954MOL0     C25838   4.394   2.968  10.121  0.0338 -0.0030 -0.0638
  954MOL0     C25839   4.265   2.884  10.132 -0.2576 -0.7936  0.2816
  954MOL0    Cl25840   4.147   2.981  10.232 -0.0257  0.0665 -0.4630
  954MOL0     C25841   4.517   3.338   9.351  0.1082 -0.5694 -0.3391
  954MOL0     C25842   4.636   3.341   9.273  0.6838  0.2728  0.9425
  954MOL0     O25843   4.636   3.515   8.979  0.9148  0.1207 -0.2007
  954MOL0     C25844   4.836   3.520   8.768  0.1023 -0.5171  0.2367
  954MOL0     C25845   4.943   3.529   8.677  0.6599  0.3494 -0.1355
  954MOL0     N25846   5.788   3.740   8.547 -0.2476  0.1112 -0.3800
  954MOL0     N25847   5.899   3.728   8.612 -0.0602 -0.1055 -0.4107
  954MOL0     C25848   7.042   3.692   8.701 -0.2503  0.2432  0.2540
  954MOL0     C25849   7.175   3.734   8.723  0.5578 -0.5734  0.3398
  954MOL0     C25850   7.570   3.833   8.962 -0.1824 -0.1122 -0.2687
  954MOL0     C25851   7.642   3.724   8.909 -0.4460  0.1740 -0.3807
  954MOL0     C25852   7.775   3.702   8.947 -0.1068 -0.4059  0.0976
  954MOL0     C25853   7.848   3.807   9.013  0.8573  0.2768 -0.0196
  954MOL0     O25854   7.980   3.771   9.026 -0.1276  0.2152 -0.2783
  954MOL0     C25855   8.065   3.860   9.101 -0.8568 -0.1949  0.3148
  954MOL0     C25856   8.189   3.774   9.127  0.1886  0.3589 -0.4081
  954MOL0     C25857   8.300   3.865   9.181 -0.0693  0.3666 -0.4776
  954MOL0     C25858   8.284   3.875   9.337  0.1940 -1.0619 -0.1046
  954MOL0     C25859   8.392   3.967   9.374  0.6938 -0.0636 -0.5529
  954MOL0     C25860   8.470   4.049   9.387 -0.6337 -0.2358  0.6156
  954MOL0     C25861   7.788   3.931   9.042 -0.1075  0.8391  0.3005
  954MOL0     C25862   7.650   3.938   9.033 -0.0752  0.3853  0.8339
  954MOL0     H25863   7.189   3.750   9.054  0.6796 -0.6692 -0.5779
  954MOL0     H25864   6.922   3.698   9.017 -1.7946  0.2023 -1.4081
  954MOL0     H25865   6.717   3.762   8.882  1.9022 -0.2022  0.3621
  954MOL0     H25866   6.733   3.601   8.959  2.0706  1.4609  0.6985
  954MOL0     H25867   6.637   3.537   8.722  0.0363  1.0208 -0.0926
  954MOL0     H25868   6.558   3.699   8.732 -2.1309 -1.1210 -0.1429
  954MOL0     H25869   6.447   3.669   8.922  1.8138  1.5965  0.4033
  954MOL0     H25870   6.523   3.506   8.954 -2.7834 -0.9308  0.9744
  954MOL0     H25871   6.344   3.580   8.726  3.7042  0.2877 -2.2866
  954MOL0     H25872   6.426   3.421   8.731 -0.9235 -1.6191  1.5020
  954MOL0     H25873   6.230   3.546   8.929  2.8833  2.9857 -1.4023
  954MOL0     H25874   6.315   3.390   8.963 -0.3444 -0.5048  0.4709
  954MOL0     H25875   6.093   3.340   8.895  1.5620  0.2903  2.0755
  954MOL0     H25876   6.208   3.283   8.774 -1.5270 -0.1099 -0.0791
  954MOL0     H25877   6.167   3.466   8.625 -0.1441  0.6079  0.8335
  954MOL0     H25878   6.035   3.365   8.642  0.1879  0.3196 -0.7811
  954MOL0     H25879   6.081   3.639   8.772  1.8503 -1.7181  0.2432
  954MOL0     H25880   5.971   3.533   8.847  3.4231  0.1208  1.8200
  954MOL0     H25881   5.774   3.424   8.656  0.2945 -0.9633 -0.1590
  954MOL0     H25882   5.572   3.496   8.492 -2.6161  0.9282 -2.2569
  954MOL0     H25883   5.563   3.655   8.426  1.0691 -1.2877 -1.3272
  954MOL0     H25884   5.508   3.761   8.662 -2.0727  0.2685  0.3433
  954MOL0     H25885   5.505   3.602   8.733 -1.9826  3.9585  1.9519
  954MOL0     H25886   5.283   3.697   8.693 -0.1357  1.2602 -0.8803
  954MOL0     H25887   5.290   3.688   8.520 -0.6900  1.2396  1.4698
  954MOL0     H25888   5.321   3.463   8.713  1.2624  2.8876  1.2047
  954MOL0     H25889   5.345   3.430   8.541 -0.8461 -2.9346  2.3942
  954MOL0     H25890   5.195   3.427   8.874 -1.7191 -1.5174  1.6793
  954MOL0     H25891   5.030   3.431   9.042 -0.4840 -0.5916  0.1507
  954MOL0     H25892   4.699   3.680   9.299 -0.1157  0.4126  0.4405
  954MOL0     H25893   4.506   3.661   9.447  1.1495  0.8012 -1.2182
  954MOL0     H25894   4.452   3.294   9.598  1.5692  0.4669  3.0139
  954MOL0     H25895   4.276   3.311   9.615 -1.4866  1.5470 -0.5794
  954MOL0     H25896   4.339   3.511   9.777  0.8194  1.3102  1.0620
  954MOL0     H25897   4.512   3.461   9.754 -0.5468  1.3587  2.4958
  954MOL0     H25898   4.290   3.310   9.890 -0.3536  0.8380  2.3071
  954MOL0     H25899   4.430   3.400   9.963  2.4914 -0.5441 -1.1451
  954MOL0     H25900   4.442   3.147   9.784 -1.7751  0.8027 -0.5087
  954MOL0     H25901   4.583   3.251   9.825  0.1312 -1.0848 -2.3548
  954MOL0     H25902   4.516   3.212  10.077  5.0364 -1.2392 -0.0973
  954MOL0     H25903   4.566   3.067   9.979  0.2481 -0.5964  1.2931
  954MOL0     H25904   4.314   3.054   9.935  1.1665 -2.3911 -0.7598
  954MOL0     H25905   4.300   3.164  10.070  0.5786  2.1830 -2.4286
  954MOL0     H25906   4.469   2.904  10.074 -1.6534 -1.4139 -0.9770
  954MOL0     H25907   4.437   2.995  10.218 -2.0615  1.2279  0.5985
  954MOL0     H25908   4.292   2.789  10.179  0.9792 -0.0947  1.0614
  954MOL0     H25909   4.229   2.866  10.031  1.3969  2.4893 -1.0651
  954MOL0     H25910   4.462   3.248   9.376 -2.2366 -0.1536 -3.3766
  954MOL0     H25911   4.692   3.257   9.233  0.0130 -0.2800  1.1464
  954MOL0     H25912   4.733   3.528   8.736 -0.0295 -0.3992  0.6922
  954MOL0     H25913   4.921   3.556   8.574 -1.8748 -0.5889  0.0885
  954MOL0     H25914   7.014   3.681   8.596 -0.9181 -0.4280  0.4938
  954MOL0     H25915   7.231   3.749   8.631 -0.4838 -2.9744 -0.7740
  954MOL0     H25916   7.583   3.653   8.851  1.5115 -0.9633 -1.0648
  954MOL0     H25917   7.818   3.603   8.949 -2.7102 -1.6214  1.7169
  954MOL0     H25918   8.013   3.901   9.189 -1.7956  0.7846 -0.6576
  954MOL0     H25919   8.095   3.949   9.045  2.3872 -2.5106 -1.9580
  954MOL0     H25920   8.159   3.692   9.193 -2.0310  1.1256 -0.3692
  954MOL0     H25921   8.213   3.739   9.026 -3.7665  2.6716 -2.3825
  954MOL0     H25922   8.307   3.956   9.120  2.3797  0.1846 -0.5673
  954MOL0     H25923   8.396   3.815   9.162 -0.2126  0.1590 -0.6580
  954MOL0     H25924   8.189   3.921   9.365 -0.1015 -0.2787 -2.2243
  954MOL0     H25925   8.298   3.773   9.374 -1.5108 -3.3276 -4.8430
  954MOL0     H25926   8.551   4.119   9.397 -3.5794  3.1997  3.6816
  954MOL0     H25927   7.854   4.008   9.081  0.9422 -1.1870  2.7895
  954MOL0     H25928   7.598   4.026   9.070 -0.8561 -0.1866  1.1108
  955MOL0     O25929   1.096   6.305   7.952 -0.6924 -0.1142 -0.2674
  955MOL0     C25930   1.133   6.319   8.069  0.3036  0.0026 -0.4690
  955MOL0     O25931   1.049   6.362   8.168 -0.2644 -0.0005 -0.2057
  955MOL0     C25932   0.914   6.384   8.140 -0.8208 -0.8606 -0.7365
  955MOL0     C25933   0.826   6.304   8.211 -0.3701  0.4634 -0.6249
  955MOL0     C25934   0.692   6.314   8.179 -0.6930  0.1770  1.0679
  955MOL0     C25935   0.645   6.409   8.081  0.9073 -0.1306  0.8642
  955MOL0     O25936   0.510   6.417   8.058  0.5448 -0.2158  0.0540
  955MOL0     C25937   0.450   6.501   7.959  0.2743  0.1897 -0.3492
  955MOL0     C25938   0.316   6.562   8.005 -0.1174  0.6763 -0.4659
  955MOL0     C25939   0.263   6.657   7.897  0.8813 -0.3203 -0.8309
  955MOL0     C25940   0.223   6.581   7.766  0.8564 -0.6440 -0.0082
  955MOL0     C25941   0.162   6.672   7.654 -0.0171  0.0152  0.4500
  955MOL0     C25942   0.154   6.595   7.522  0.3117 -0.4175 -1.1816
  955MOL0     C25943   0.074   6.671   7.414 -0.1429 -0.4121  0.1339
  955MOL0     C25944  -0.075   6.713   7.434  0.0108  0.5331 -0.5500
  955MOL0     N25945  -0.158   6.600   7.490  0.7851  0.4770  1.5350
  955MOL0     C25946  -0.157   6.476   7.440 -0.5915 -0.3394  0.1020
  955MOL0     C25947  -0.265   6.417   7.490  0.5412 -0.3142  0.6491
  955MOL0     C25948  -0.330   6.277   7.482  0.1267  0.0736  0.5331
  955MOL0     C25949  -0.354   6.231   7.341 -0.7013 -0.1465 -0.0617
  955MOL0     C25950  -0.476   6.310   7.282 -0.4712  0.1532 -0.3244
  955MOL0     C25951  -0.489   6.291   7.133 -0.7167  0.6580 -0.4376
  955MOL0     O25952  -0.625   6.320   7.092  0.8887  0.5399  0.5423
  955MOL0     C25953  -0.647   6.318   6.956  0.2071 -0.3635  1.2819
  955MOL0     C25954  -0.775   6.296   6.908  0.4578  0.0303  0.3245
  955MOL0     C25955  -0.802   6.268   6.773 -0.0927 -0.1825 -0.3665
  955MOL0     C25956  -0.695   6.280   6.680  0.1403  0.2182 -0.3536
  955MOL0     C25957  -0.724   6.275   6.538 -0.7272  0.0467 -0.5700
  955MOL0     O25958  -0.851   6.255   6.501 -0.1188 -0.5001 -0.2626
  955MOL0     C25959  -0.898   6.274   6.375  0.3451 -0.3778  0.0718
  955MOL0     C25960  -1.016   6.205   6.343  0.1513 -0.2828 -0.2170
  955MOL0     C25961  -1.081   6.224   6.226  1.0881 -0.8064  0.2042
  955MOL0     C25962  -1.033   6.301   6.126 -0.4018  1.0318 -0.5417
  955MOL0     O25963  -1.108   6.308   6.011  0.6282  0.2898 -0.4063
  955MOL0     C25964  -1.075   6.388   5.896 -0.1092 -0.4157  0.4674
  955MOL0     C25965  -1.104   6.535   5.922 -0.5144 -0.8884 -1.2237
  955MOL0     C25966  -1.099   6.617   5.787  0.8012  0.2675  0.5336
  955MOL0     C25967  -0.953   6.626   5.738 -0.4693  0.5925  0.4521
  955MOL0     C25968  -0.935   6.733   5.625 -0.1805 -0.1255  0.5038
  955MOL0     C25969  -0.798   6.795   5.647  0.3469 -0.1921 -0.1507
  955MOL0     C25970  -0.783   6.901   5.540 -0.2815 -0.6390 -0.1901
  955MOL0     C25971  -0.667   6.998   5.572 -0.8985 -0.5511 -0.1869
  955MOL0    Cl25972  -0.517   6.899   5.562 -0.2486  0.1099  0.5684
  955MOL0     C25973  -0.913   6.381   6.164 -0.2395  0.4251  0.0322
  955MOL0     C25974  -0.846   6.367   6.288  0.1525 -0.1737  0.8330
  955MOL0     O25975  -0.629   6.286   6.462 -0.1867 -0.4499 -0.3420
  955MOL0     C25976  -0.564   6.292   6.729 -1.0236 -0.3413 -0.6449
  955MOL0     C25977  -0.542   6.314   6.867 -0.0871 -0.1589 -0.6899
  955MOL0     N25978  -0.339   6.509   7.567  0.0898 -0.7617 -0.3732
  955MOL0     N25979  -0.276   6.621   7.565 -0.1112  1.0249  0.0942
  955MOL0     C25980   0.737   6.481   8.009 -0.3511 -0.8482 -0.3700
  955MOL0     C25981   0.878   6.476   8.049  0.1576 -1.1212  0.6741
  955MOL0     C25982   1.274   6.289   8.105  0.3876 -0.1961  0.3703
  955MOL0     C25983   1.331   6.327   8.232  0.9990  0.5069  0.5190
  955MOL0     C25984   1.464   6.282   8.248 -0.7404  0.0212 -0.1755
  955MOL0     C25985   1.541   6.201   8.164 -0.7026  0.0136 -0.5499
  955MOL0     O25986   1.670   6.174   8.196  0.0817 -0.1342  0.4032
  955MOL0     C25987   1.758   6.106   8.095 -0.1185  0.7350  1.2994
  955MOL0     C25988   1.759   5.953   8.127 -0.9473  0.0749  0.8801
  955MOL0     C25989   1.808   5.881   8.009  0.2287 -1.0590  0.1469
  955MOL0     C25990   1.960   5.910   7.974 -0.2309  0.5396 -0.2364
  955MOL0     C25991   2.041   5.892   8.091 -0.6070 -0.2879 -0.0304
  955MOL0     C25992   2.113   5.872   8.192  0.0104 -0.0932 -0.6315
  955MOL0     C25993   1.475   6.159   8.047 -0.2395  0.3876 -0.5090
  955MOL0     C25994   1.341   6.203   8.018  0.8514 -0.9074 -0.2015
  955MOL0     H25995   0.871   6.227   8.273 -0.1528 -0.1845 -1.5546
  955MOL0     H25996   0.622   6.250   8.233 -0.6791 -0.9085 -0.1569
  955MOL0     H25997   0.433   6.449   7.863  0.2039 -2.4816  1.0003
  955MOL0     H25998   0.523   6.578   7.934  0.4997 -0.5928 -2.3572
  955MOL0     H25999   0.336   6.617   8.097  1.1516  1.0377 -0.9456
  955MOL0     H26000   0.251   6.479   8.035  1.0544  0.2092  0.8582
  955MOL0     H26001   0.334   6.737   7.873 -2.2135  2.4065 -1.7108
  955MOL0     H26002   0.172   6.714   7.920  1.9030  1.3218 -0.7345
  955MOL0     H26003   0.314   6.529   7.737  2.3498  0.0315  3.0835
  955MOL0     H26004   0.142   6.511   7.790 -0.3023  0.7813  0.4216
  955MOL0     H26005   0.206   6.771   7.638 -1.1653  0.6552  1.0859
  955MOL0     H26006   0.067   6.715   7.688  0.9973  0.6324  2.7332
  955MOL0     H26007   0.110   6.499   7.549 -0.6761  0.8691  2.2804
  955MOL0     H26008   0.257   6.586   7.485  0.4018 -0.2765 -0.9667
  955MOL0     H26009   0.135   6.760   7.398 -0.2738  0.1994  2.6229
  955MOL0     H26010   0.073   6.608   7.324 -3.3900  1.7012 -1.5283
  955MOL0     H26011  -0.116   6.743   7.337  0.0368 -0.8414 -1.0128
  955MOL0     H26012  -0.081   6.799   7.501  2.9059  1.4028 -1.2313
  955MOL0     H26013  -0.086   6.429   7.373 -0.0487 -0.1260  0.5297
  955MOL0     H26014  -0.422   6.280   7.541  0.1318  0.3708  0.5265
  955MOL0     H26015  -0.269   6.200   7.530  0.1364  0.3880  1.0292
  955MOL0     H26016  -0.378   6.124   7.349 -0.1663 -0.3105 -0.5840
  955MOL0     H26017  -0.265   6.249   7.281 -0.5477 -0.6149  0.0225
  955MOL0     H26018  -0.569   6.275   7.327 -0.8531  0.3533 -0.9503
  955MOL0     H26019  -0.457   6.417   7.297 -2.0558  0.6126 -1.3777
  955MOL0     H26020  -0.478   6.186   7.103 -2.3540  0.7305 -1.3961
  955MOL0     H26021  -0.418   6.363   7.091  0.3595  0.4110  0.8935
  955MOL0     H26022  -0.860   6.288   6.975  1.1847 -1.5387  1.1340
  955MOL0     H26023  -0.906   6.247   6.750 -0.2231 -0.4726  0.4498
  955MOL0     H26024  -1.072   6.131   6.400 -0.5630 -2.1268 -3.0646
  955MOL0     H26025  -1.176   6.181   6.197  1.8403 -0.9819 -2.2704
  955MOL0     H26026  -1.146   6.355   5.819 -3.9192 -1.7995  4.1126
  955MOL0     H26027  -0.972   6.375   5.863 -0.4076  0.5969 -0.9235
  955MOL0     H26028  -1.029   6.566   5.996  0.9970 -1.1405 -2.5900
  955MOL0     H26029  -1.195   6.558   5.977  0.6591  0.0100  0.4541
  955MOL0     H26030  -1.135   6.719   5.804 -1.4965 -0.5543  0.9901
  955MOL0     H26031  -1.169   6.566   5.721  2.4763 -1.9350  0.3543
  955MOL0     H26032  -0.890   6.648   5.825 -2.4378  0.4499  1.9776
  955MOL0     H26033  -0.925   6.531   5.692 -2.2374  1.4547 -2.6679
  955MOL0     H26034  -1.015   6.806   5.638  0.6169  0.7345  0.7137
  955MOL0     H26035  -0.944   6.683   5.528 -0.8124 -2.2183  1.5837
  955MOL0     H26036  -0.711   6.730   5.636  0.4909 -0.0612  0.1875
  955MOL0     H26037  -0.806   6.844   5.745 -1.6121 -3.5200  1.5256
  955MOL0     H26038  -0.778   6.867   5.435 -2.9132  0.0275 -0.6042
  955MOL0     H26039  -0.877   6.957   5.550 -2.1531 -3.2568 -1.6402
  955MOL0     H26040  -0.668   7.055   5.665  3.0376 -0.2759 -0.1444
  955MOL0     H26041  -0.672   7.074   5.493 -2.0367 -0.1284  0.2666
  955MOL0     H26042  -0.874   6.454   6.094  0.8537 -1.8892 -1.9229
  955MOL0     H26043  -0.757   6.428   6.302 -0.5742  0.9663  0.5977
  955MOL0     H26044  -0.480   6.307   6.662  0.3512  0.9854  1.2622
  955MOL0     H26045  -0.437   6.330   6.888 -0.9158  2.5760  2.1661
  955MOL0     H26046   0.713   6.554   7.932  2.6975  1.4791  0.6776
  955MOL0     H26047   0.954   6.540   8.005  0.0948 -1.4568  0.0694
  955MOL0     H26048   1.296   6.392   8.312  1.3830 -0.1375  1.2275
  955MOL0     H26049   1.522   6.322   8.330 -1.1539  1.1002 -0.3953
  955MOL0     H26050   1.851   6.164   8.101  0.8037 -0.0489 -2.6521
  955MOL0     H26051   1.730   6.133   7.993  3.1534  0.3695  0.1796
  955MOL0     H26052   1.817   5.936   8.218 -2.2545  0.5662  1.8247
  955MOL0     H26053   1.656   5.925   8.149 -0.4927 -1.0934  1.5707
  955MOL0     H26054   1.744   5.910   7.925  1.7014 -0.1654 -0.7222
  955MOL0     H26055   1.787   5.775   8.026 -0.4793 -1.1938 -1.4284
  955MOL0     H26056   1.990   5.846   7.891 -0.9887 -0.7316  0.4379
  955MOL0     H26057   1.978   6.011   7.937  2.1732 -1.1217 -4.2678
  955MOL0     H26058   2.167   5.858   8.284  1.4713 -1.3872 -1.6313
  955MOL0     H26059   1.529   6.100   7.974  0.6066  2.5990 -1.7620
  955MOL0     H26060   1.292   6.172   7.926 -4.7684 -0.1269  2.1370
  956MOL0     O26061   3.487   7.412   4.281  0.3752 -0.0012  0.1503
  956MOL0     C26062   3.500   7.400   4.158  0.3453 -0.0891  0.7122
  956MOL0     O26063   3.406   7.356   4.064  0.2294 -0.5704  0.0944
  956MOL0     C26064   3.285   7.316   4.111  0.1282 -0.5435  0.8240
  956MOL0     C26065   3.187   7.354   4.013  0.5779 -0.3309  0.6945
  956MOL0     C26066   3.053   7.356   4.029 -0.4987 -0.5817  0.1226
  956MOL0     C26067   3.010   7.331   4.157  0.9625 -0.4739 -0.1053
  956MOL0     O26068   2.876   7.349   4.184 -0.0733  0.1730 -0.2187
  956MOL0     C26069   2.827   7.486   4.203  0.0508  0.5984 -0.2603
  956MOL0     C26070   2.679   7.511   4.239 -0.0079 -0.0182 -0.5321
  956MOL0     C26071   2.588   7.429   4.146 -0.8608 -0.6607  0.3145
  956MOL0     C26072   2.445   7.435   4.192  0.8269  0.0371  0.0488
  956MOL0     C26073   2.340   7.395   4.093  0.1724  0.0451 -0.7153
  956MOL0     C26074   2.198   7.417   4.131 -0.1496 -0.1227 -0.4130
  956MOL0     C26075   2.090   7.377   4.026  0.0420 -0.0270  0.1504
  956MOL0     C26076   2.059   7.485   3.932  0.1049 -1.2156  0.1700
  956MOL0     N26077   1.943   7.449   3.845  0.4226  0.6993 -0.5439
  956MOL0     C26078   1.936   7.340   3.769 -0.5444  0.8898 -0.4932
  956MOL0     C26079   1.840   7.355   3.676  0.3081  0.0154  0.0700
  956MOL0     C26080   1.793   7.268   3.562  0.5985 -0.0585 -0.5385
  956MOL0     C26081   1.898   7.239   3.462  0.1758  0.0695 -0.4444
  956MOL0     C26082   1.867   7.118   3.366 -0.1344 -0.6625 -0.5243
  956MOL0     C26083   1.967   7.115   3.247 -0.9249  0.1174 -0.2685
  956MOL0     O26084   2.084   7.049   3.308  0.1568  0.2359 -0.2855
  956MOL0     C26085   2.210   7.098   3.279 -0.1423 -0.5302 -0.3335
  956MOL0     C26086   2.261   7.170   3.171  0.9705 -0.6375  0.5546
  956MOL0     C26087   2.398   7.208   3.161 -0.2142 -0.4121 -0.7644
  956MOL0     C26088   2.483   7.175   3.268 -0.9110 -0.4107  0.8641
  956MOL0     C26089   2.630   7.198   3.267  0.7282 -0.8066 -0.4582
  956MOL0     O26090   2.687   7.213   3.149 -0.0356  0.0795 -0.5577
  956MOL0     C26091   2.823   7.228   3.133 -0.0385 -0.2578 -0.0931
  956MOL0     C26092   2.917   7.292   3.223  0.0610 -0.6583  0.5310
  956MOL0     C26093   3.050   7.294   3.191  0.1241 -0.1784 -0.5022
  956MOL0     C26094   3.099   7.252   3.071  0.3384  0.2599  0.1976
  956MOL0     O26095   3.232   7.260   3.033  0.1445 -0.2377  0.4309
  956MOL0     C26096   3.331   7.316   3.116 -0.2822 -0.0115  0.2619
  956MOL0     C26097   3.465   7.332   3.045  0.4283 -0.0640  0.5581
  956MOL0     C26098   3.461   7.422   2.916  0.3694 -0.8882  0.2205
  956MOL0     C26099   3.603   7.464   2.873 -0.0044  0.1780 -0.7835
  956MOL0     C26100   3.610   7.507   2.726 -0.6514  0.4504 -0.3614
  956MOL0     C26101   3.760   7.524   2.689  0.2605  1.0448 -0.2878
  956MOL0     C26102   3.787   7.605   2.560 -0.1248  0.4452 -0.2858
  956MOL0     C26103   3.931   7.647   2.555 -0.8685 -0.1457  0.4267
  956MOL0    Cl26104   3.962   7.701   2.395  0.2643  0.1677 -0.1242
  956MOL0     C26105   3.010   7.194   2.974  0.9548 -0.0574 -0.1732
  956MOL0     C26106   2.873   7.182   3.007 -0.6854  0.5074 -0.1382
  956MOL0     O26107   2.691   7.195   3.367 -0.0776  0.1247  0.4011
  956MOL0     C26108   2.437   7.101   3.368  0.2035  0.7146 -0.1304
  956MOL0     C26109   2.307   7.055   3.375  0.7975  0.1760 -0.4153
  956MOL0     N26110   1.792   7.488   3.696  0.1953  0.1149 -0.6829
  956MOL0     N26111   1.852   7.542   3.796 -0.9966 -0.0488  0.0368
  956MOL0     C26112   3.096   7.294   4.261  0.7568  0.1792 -0.2210
  956MOL0     C26113   3.239   7.280   4.237  0.3369 -0.3876  0.1591
  956MOL0     C26114   3.619   7.475   4.111  0.6970  0.3463  0.3931
  956MOL0     C26115   3.640   7.486   3.973 -0.0326 -0.1541 -0.3694
  956MOL0     C26116   3.746   7.565   3.919  0.8486 -0.6913 -0.0344
  956MOL0     C26117   3.834   7.629   4.000 -1.4662  1.0206  0.2600
  956MOL0     O26118   3.953   7.683   3.953 -0.6216 -0.2615 -0.3411
  956MOL0     C26119   3.950   7.734   3.816  0.4844 -0.1220 -0.2131
  956MOL0     C26120   4.070   7.814   3.771  0.0162  0.6235  0.0578
  956MOL0     C26121   4.200   7.718   3.743 -0.2740  0.0708  0.2983
  956MOL0     C26122   4.333   7.775   3.715  0.0413  0.6609 -0.0691
  956MOL0     C26123   4.333   7.843   3.584  0.2774  0.2336  0.3316
  956MOL0     C26124   4.325   7.911   3.486 -0.7272 -0.5558 -0.1631
  956MOL0     C26125   3.827   7.604   4.136 -0.2573 -0.0894 -0.8272
  956MOL0     C26126   3.716   7.529   4.190 -0.6670  0.2726 -0.0714
  956MOL0     H26127   3.216   7.388   3.914 -0.2825 -0.5013  0.3701
  956MOL0     H26128   2.992   7.387   3.945 -1.2888  1.7806  1.4741
  956MOL0     H26129   2.836   7.544   4.111  2.4306  3.9382  1.8330
  956MOL0     H26130   2.897   7.536   4.271 -0.2401  0.2958  0.2709
  956MOL0     H26131   2.664   7.616   4.216 -1.0324 -0.1856 -0.6895
  956MOL0     H26132   2.656   7.491   4.344  0.2906  1.0384 -0.2613
  956MOL0     H26133   2.619   7.325   4.130 -0.3743  0.0010 -4.5841
  956MOL0     H26134   2.600   7.471   4.046  1.7466  1.8200  1.5237
  956MOL0     H26135   2.441   7.360   4.272 -2.2456 -3.0101 -2.6592
  956MOL0     H26136   2.422   7.535   4.231  3.6163  2.3161 -3.5357
  956MOL0     H26137   2.360   7.291   4.066  1.9066  0.5818 -1.6191
  956MOL0     H26138   2.357   7.451   4.001 -0.7378  0.9857 -0.3423
  956MOL0     H26139   2.181   7.520   4.165  3.1411  1.1277 -2.1410
  956MOL0     H26140   2.178   7.351   4.216 -2.1746  0.1132 -0.6585
  956MOL0     H26141   2.120   7.284   3.976 -1.1915  0.1792 -1.0123
  956MOL0     H26142   1.994   7.368   4.077 -0.5835  1.3207 -0.7455
  956MOL0     H26143   2.144   7.506   3.867 -0.1603  0.7788  0.4223
  956MOL0     H26144   2.041   7.576   3.990 -0.0172 -1.3128  0.2858
  956MOL0     H26145   2.014   7.265   3.778  1.4533  2.9761  0.7909
  956MOL0     H26146   1.710   7.324   3.518 -1.3383 -0.9345  1.7430
  956MOL0     H26147   1.755   7.169   3.590  1.0646  0.0986  0.7124
  956MOL0     H26148   1.992   7.212   3.511  0.0257 -1.5424 -0.9772
  956MOL0     H26149   1.913   7.327   3.398 -0.2685 -0.1648 -0.8830
  956MOL0     H26150   1.865   7.019   3.411 -1.0879  0.8194  3.0544
  956MOL0     H26151   1.767   7.147   3.333  0.0866  1.0358  0.1994
  956MOL0     H26152   1.993   7.208   3.196  0.1500 -0.8772 -1.6003
  956MOL0     H26153   1.930   7.045   3.172  0.9012  0.6252 -1.7082
  956MOL0     H26154   2.198   7.205   3.090  1.9118  0.8995  0.4487
  956MOL0     H26155   2.441   7.260   3.077 -1.6574  3.9967  0.9508
  956MOL0     H26156   2.891   7.338   3.317 -0.0980 -0.7868  0.5499
  956MOL0     H26157   3.123   7.330   3.264 -0.8598 -0.6837  0.7682
  956MOL0     H26158   3.333   7.246   3.201  0.6603  1.6871  1.7113
  956MOL0     H26159   3.302   7.414   3.154 -2.1796 -1.1214  1.8945
  956MOL0     H26160   3.495   7.232   3.014 -2.3707 -0.3925 -1.4028
  956MOL0     H26161   3.539   7.377   3.112  0.9226  0.1334 -0.1142
  956MOL0     H26162   3.404   7.511   2.941  2.4168  0.3011  0.8503
  956MOL0     H26163   3.399   7.379   2.836 -2.1085  2.2325  0.2504
  956MOL0     H26164   3.632   7.543   2.942 -1.6118 -1.0611  1.4428
  956MOL0     H26165   3.671   7.379   2.884 -0.8647 -0.6500 -1.6692
  956MOL0     H26166   3.542   7.588   2.700 -0.0217  1.1025  0.0093
  956MOL0     H26167   3.577   7.421   2.667  2.0615 -0.9498  0.0116
  956MOL0     H26168   3.799   7.422   2.679 -2.9539 -0.1219 -2.4826
  956MOL0     H26169   3.808   7.575   2.773  0.2760  2.0047 -0.8759
  956MOL0     H26170   3.764   7.547   2.471 -0.2796 -1.3608  0.8941
  956MOL0     H26171   3.726   7.696   2.552  1.5782  1.4766 -3.5328
  956MOL0     H26172   3.993   7.563   2.589 -2.6732 -1.8747 -0.2907
  956MOL0     H26173   3.952   7.733   2.618 -0.4781  1.3154 -1.6096
  956MOL0     H26174   3.048   7.136   2.890 -0.3140 -5.6061  2.5651
  956MOL0     H26175   2.798   7.140   2.940  0.8841 -0.7951 -1.1739
  956MOL0     H26176   2.492   7.061   3.452 -4.9717 -1.5869  2.6481
  956MOL0     H26177   2.276   6.982   3.449  4.0632 -1.4685 -0.5102
  956MOL0     H26178   3.053   7.264   4.356  0.4909  1.4392  0.0740
  956MOL0     H26179   3.302   7.251   4.320  1.4847 -0.4063 -0.6925
  956MOL0     H26180   3.576   7.451   3.893 -1.1637  0.8813  0.0585
  956MOL0     H26181   3.748   7.580   3.812  0.6946  0.7899  0.1505
  956MOL0     H26182   3.859   7.795   3.814 -0.8628 -2.0439 -0.5286
  956MOL0     H26183   3.930   7.651   3.748 -3.2995 -1.1788  1.8867
  956MOL0     H26184   4.032   7.860   3.679 -1.1432 -0.5097 -0.0489
  956MOL0     H26185   4.094   7.894   3.842 -2.5619  0.6437  0.9957
  956MOL0     H26186   4.176   7.647   3.662  2.3540 -1.6706  0.9087
  956MOL0     H26187   4.217   7.662   3.835  2.1728 -1.1076 -0.7798
  956MOL0     H26188   4.355   7.844   3.798  1.7381 -1.6234  1.4843
  956MOL0     H26189   4.411   7.699   3.720  1.4212  2.0646  3.2592
  956MOL0     H26190   4.313   7.959   3.391  1.7940  3.1589  1.1307
  956MOL0     H26191   3.902   7.642   4.204 -1.4850  0.8851  0.0325
  956MOL0     H26192   3.707   7.503   4.295 -1.7497  1.7274  0.2207
  957MOL0     O26193   2.721   5.010   5.809  0.4687  0.8022 -0.0579
  957MOL0     C26194   2.649   5.070   5.885  0.2601 -1.0118  0.3393
  957MOL0     O26195   2.681   5.141   6.006  0.0778  0.4292 -0.5331
  957MOL0     C26196   2.807   5.118   6.052 -0.5044  0.3565  0.0458
  957MOL0     C26197   2.918   5.145   5.972 -1.5545 -0.0211  0.0221
  957MOL0     C26198   3.047   5.107   6.017  0.0534 -0.6088  1.2166
  957MOL0     C26199   3.064   5.046   6.143  0.0968  0.3688  0.8144
  957MOL0     O26200   3.182   4.990   6.179  0.0126  0.1558 -0.1046
  957MOL0     C26201   3.301   5.001   6.099  0.3945 -0.6366 -0.1153
  957MOL0     C26202   3.414   4.964   6.186  0.3818  0.0801  0.4194
  957MOL0     C26203   3.557   4.966   6.118  0.3306 -1.2657 -0.1694
  957MOL0     C26204   3.658   4.873   6.195  0.2853 -0.6056 -0.1700
  957MOL0     C26205   3.793   4.868   6.130 -0.4963  0.5646  0.9649
  957MOL0     C26206   3.898   4.786   6.208 -0.3669 -0.4101 -0.1345
  957MOL0     C26207   4.030   4.840   6.159 -0.4656 -0.2846 -0.0062
  957MOL0     C26208   4.150   4.763   6.226 -0.6137 -0.0740 -0.2258
  957MOL0     N26209   4.133   4.616   6.230 -0.1202  1.3289 -0.7379
  957MOL0     C26210   4.072   4.534   6.333  0.8663 -0.3827  0.5708
  957MOL0     C26211   4.059   4.406   6.282 -0.1864  0.1756 -0.0546
  957MOL0     C26212   3.999   4.293   6.361 -0.0659  0.1539  0.0100
  957MOL0     C26213   3.946   4.196   6.263  0.2312  0.6959  0.0528
  957MOL0     C26214   3.835   4.244   6.167  0.1291  0.7998  0.1178
  957MOL0     C26215   3.713   4.293   6.249  0.6067 -0.5082 -0.4009
  957MOL0     O26216   3.600   4.254   6.172  0.7694 -0.5446 -0.3085
  957MOL0     C26217   3.481   4.234   6.239  0.0033 -0.5096  0.4778
  957MOL0     C26218   3.451   4.291   6.363  0.3521 -0.2608 -0.2403
  957MOL0     C26219   3.322   4.287   6.417  0.4083  0.0093 -0.5181
  957MOL0     C26220   3.218   4.217   6.361  0.3141  0.8790 -0.3898
  957MOL0     C26221   3.086   4.194   6.421 -0.4632 -0.6820 -0.4402
  957MOL0     O26222   2.988   4.144   6.344 -0.0010 -0.3677  1.0221
  957MOL0     C26223   2.854   4.162   6.385  0.1862 -0.1352 -0.1279
  957MOL0     C26224   2.806   4.136   6.512 -0.2252  0.4692  0.2326
  957MOL0     C26225   2.673   4.142   6.548  0.1143  0.2143 -0.1681
  957MOL0     C26226   2.580   4.192   6.458 -1.1155 -0.5038  0.4365
  957MOL0     O26227   2.457   4.207   6.507  0.8063  0.3379 -0.2865
  957MOL0     C26228   2.379   4.328   6.475 -0.4345  0.6923  0.2392
  957MOL0     C26229   2.285   4.341   6.598 -0.9192 -0.8310 -0.6060
  957MOL0     C26230   2.182   4.228   6.642 -1.2370  0.6598  0.2862
  957MOL0     C26231   2.093   4.261   6.759 -0.0706 -0.5031  0.1125
  957MOL0     C26232   2.016   4.137   6.816  0.2600  0.1687 -0.1957
  957MOL0     C26233   1.899   4.094   6.733 -0.1681  0.8545  0.2602
  957MOL0     C26234   1.851   3.943   6.753  0.6139 -0.0247  0.3793
  957MOL0     C26235   1.960   3.838   6.743 -0.2403  0.2653  0.0108
  957MOL0    Cl26236   1.913   3.695   6.839  0.3398  0.2309  0.4805
  957MOL0     C26237   2.632   4.232   6.329  0.3355  0.2284 -1.1930
  957MOL0     C26238   2.765   4.206   6.288  0.3537 -0.1894  0.3763
  957MOL0     O26239   3.073   4.225   6.539 -0.7145 -0.2854  0.1216
  957MOL0     C26240   3.242   4.168   6.232  0.4657  0.4099  0.7558
  957MOL0     C26241   3.369   4.174   6.169  0.0139 -0.9651  0.2803
  957MOL0     N26242   4.117   4.404   6.156 -0.2908  0.0712 -0.2382
  957MOL0     N26243   4.167   4.519   6.132 -0.0277  0.3006 -0.2341
  957MOL0     C26244   2.952   5.033   6.223 -0.0454  0.1683 -0.2363
  957MOL0     C26245   2.829   5.064   6.180 -0.1701  0.2244  0.7353
  957MOL0     C26246   2.520   5.105   5.821  0.8118 -0.4694 -0.1441
  957MOL0     C26247   2.409   5.152   5.900  0.1152  0.8072  0.8621
  957MOL0     C26248   2.289   5.176   5.835  0.1419  0.3505  0.0980
  957MOL0     C26249   2.280   5.186   5.698 -0.2044 -0.5077  0.0599
  957MOL0     O26250   2.171   5.227   5.627  0.5934 -0.3134  0.3297
  957MOL0     C26251   2.044   5.237   5.697  0.3150  0.4262 -0.1198
  957MOL0     C26252   1.930   5.244   5.592  0.0986  0.3694  0.6482
  957MOL0     C26253   1.919   5.112   5.530  0.3461  0.4669  0.3942
  957MOL0     C26254   1.779   5.091   5.461 -0.3695  0.1913  0.3071
  957MOL0     C26255   1.674   5.091   5.554 -0.3079  0.8041  0.1888
  957MOL0     C26256   1.604   5.077   5.649  0.4093 -0.3930  0.2944
  957MOL0     C26257   2.393   5.164   5.621  0.1168 -0.0873 -0.2078
  957MOL0     C26258   2.507   5.118   5.686 -0.3897  0.0390 -0.8359
  957MOL0     H26259   2.916   5.191   5.874 -2.1103  0.9747  0.4837
  957MOL0     H26260   3.132   5.137   5.957 -1.3964  2.1301  0.3589
  957MOL0     H26261   3.308   5.101   6.056  1.3238 -0.3695  0.6444
  957MOL0     H26262   3.306   4.933   6.014  2.7208 -4.0723  2.4963
  957MOL0     H26263   3.388   4.861   6.213  0.3125 -1.1884 -3.7997
  957MOL0     H26264   3.418   5.027   6.276 -3.4543  0.7849  0.2557
  957MOL0     H26265   3.589   5.070   6.108 -2.4100 -0.3159  0.0811
  957MOL0     H26266   3.542   4.931   6.015  1.5584  4.2529 -2.6150
  957MOL0     H26267   3.669   4.906   6.298 -0.6709 -4.0347  1.1969
  957MOL0     H26268   3.616   4.772   6.209 -1.5452  0.2225  0.6701
  957MOL0     H26269   3.823   4.973   6.127  0.1394  0.3616 -1.0855
  957MOL0     H26270   3.780   4.837   6.026 -0.5096 -0.1621  1.1743
  957MOL0     H26271   3.894   4.680   6.182 -1.8742  0.0653 -2.0107
  957MOL0     H26272   3.886   4.799   6.316 -1.9471 -1.3705 -0.1621
  957MOL0     H26273   4.034   4.827   6.050 -0.6493  1.1348 -0.2028
  957MOL0     H26274   4.038   4.946   6.185  2.3922 -0.1336 -1.1531
  957MOL0     H26275   4.155   4.797   6.330 -0.9114  0.4445 -0.3737
  957MOL0     H26276   4.243   4.791   6.175  0.7818  0.0278  2.2304
  957MOL0     H26277   4.044   4.560   6.435 -0.9881  2.0528 -0.4604
  957MOL0     H26278   3.929   4.346   6.426 -1.1053 -0.5229 -0.5119
  957MOL0     H26279   4.083   4.254   6.418  0.8078  0.2592 -1.1530
  957MOL0     H26280   3.904   4.108   6.313 -2.0110 -0.2805 -3.2505
  957MOL0     H26281   4.027   4.156   6.201  2.0049  2.0495  1.3848
  957MOL0     H26282   3.869   4.327   6.103  0.9129 -0.7951 -1.6127
  957MOL0     H26283   3.801   4.157   6.111  2.4768  0.2433 -0.5739
  957MOL0     H26284   3.708   4.402   6.256 -0.6444 -0.5075 -0.9789
  957MOL0     H26285   3.714   4.249   6.349 -0.8225 -0.3604 -0.3092
  957MOL0     H26286   3.517   4.356   6.420  0.1695  0.5105 -0.8717
  957MOL0     H26287   3.301   4.332   6.514 -2.5271 -2.2752  0.0821
  957MOL0     H26288   2.873   4.090   6.584  2.7753  0.1615 -2.5480
  957MOL0     H26289   2.652   4.120   6.653  1.0447  0.9015  0.1767
  957MOL0     H26290   2.314   4.325   6.388  0.7433  0.4213 -0.6508
  957MOL0     H26291   2.436   4.422   6.472  0.3757  0.1934 -0.2376
  957MOL0     H26292   2.232   4.435   6.582 -0.9701 -0.9782 -1.3488
  957MOL0     H26293   2.351   4.366   6.681 -0.2028  0.6870 -1.5733
  957MOL0     H26294   2.244   4.145   6.677 -0.1138  0.1173 -2.6921
  957MOL0     H26295   2.122   4.209   6.553 -0.3560  0.5048 -0.2846
  957MOL0     H26296   2.156   4.300   6.839 -1.6292  2.4290  0.0280
  957MOL0     H26297   2.030   4.349   6.743 -1.0074 -0.6728  2.4292
  957MOL0     H26298   1.983   4.157   6.919  1.4411 -2.2143  0.7253
  957MOL0     H26299   2.085   4.052   6.824  0.3634  0.2787  0.0762
  957MOL0     H26300   1.914   4.109   6.626 -2.6230  0.2917 -0.2280
  957MOL0     H26301   1.820   4.166   6.755  0.7690  1.7125  0.8886
  957MOL0     H26302   1.805   3.934   6.852  0.0251  1.5250  0.2716
  957MOL0     H26303   1.779   3.922   6.673  1.0662 -0.1217 -0.0136
  957MOL0     H26304   2.051   3.879   6.787 -1.4625  3.0873  0.1125
  957MOL0     H26305   1.970   3.810   6.637  1.5292  1.4957 -0.1853
  957MOL0     H26306   2.572   4.273   6.248  0.9005  0.7719 -1.3376
  957MOL0     H26307   2.790   4.219   6.184  1.6708  1.6914  0.8817
  957MOL0     H26308   3.161   4.132   6.169  1.0619  0.0983  0.1502
  957MOL0     H26309   3.371   4.138   6.067 -2.1663 -2.3367  0.6575
  957MOL0     H26310   2.958   4.995   6.324 -2.5936 -0.7959 -0.3717
  957MOL0     H26311   2.744   5.039   6.242 -0.1950  3.0242  1.9806
  957MOL0     H26312   2.428   5.144   6.006  3.5092 -2.1963  0.2542
  957MOL0     H26313   2.201   5.184   5.899 -0.8997 -2.0344 -0.9019
  957MOL0     H26314   2.045   5.322   5.765  0.1408  1.0270 -0.8472
  957MOL0     H26315   2.024   5.147   5.757 -1.7911  0.8785 -0.0407
  957MOL0     H26316   1.834   5.272   5.638 -1.5793  0.6953 -2.7778
  957MOL0     H26317   1.956   5.325   5.524 -0.6621 -1.0835 -1.4645
  957MOL0     H26318   1.935   5.028   5.599 -0.4138 -1.6184 -1.8270
  957MOL0     H26319   1.996   5.103   5.453 -2.1840  0.5599 -2.3063
  957MOL0     H26320   1.769   5.159   5.376  5.9551  0.8167 -0.4480
  957MOL0     H26321   1.778   4.997   5.406  0.7814 -1.2893  2.6654
  957MOL0     H26322   1.523   5.075   5.719 -0.3795  4.0816 -0.1528
  957MOL0     H26323   2.398   5.184   5.514  1.1915  0.8835  0.0016
  957MOL0     H26324   2.591   5.087   5.626  1.2519  0.1656  1.2670
  958MOL0     O26325   6.948   3.965   4.276 -0.0072 -0.0657  0.3691
  958MOL0     C26326   6.860   4.032   4.338 -0.2677 -0.0037  0.8500
  958MOL0     O26327   6.860   4.171   4.338 -0.3182 -0.1163  0.1639
  958MOL0     C26328   6.933   4.237   4.240  0.1018 -0.7063 -0.5489
  958MOL0     C26329   6.861   4.282   4.131 -0.3322  0.0477 -0.5034
  958MOL0     C26330   6.922   4.365   4.037 -0.9493  0.4813 -0.2027
  958MOL0     C26331   7.059   4.400   4.056  0.1439  0.1019  0.6898
  958MOL0     O26332   7.106   4.476   3.956  0.0273  0.6342 -0.1340
  958MOL0     C26333   7.248   4.482   3.925  1.0461 -0.0690 -0.8753
  958MOL0     C26334   7.296   4.361   3.847 -0.5976 -0.6808 -0.1744
  958MOL0     C26335   7.417   4.389   3.754  0.2879  0.8097 -0.8982
  958MOL0     C26336   7.471   4.272   3.669 -0.0438  0.1110 -0.2580
  958MOL0     C26337   7.386   4.227   3.549  0.1282 -0.4198  0.5764
  958MOL0     C26338   7.315   4.099   3.566  1.1598 -0.1913  0.8354
  958MOL0     C26339   7.242   4.071   3.437 -0.3205  0.8003  0.1312
  958MOL0     C26340   7.170   3.938   3.433 -0.8919 -0.5070  0.4247
  958MOL0     N26341   7.264   3.827   3.445 -0.9126  0.4065 -0.2343
  958MOL0     C26342   7.386   3.812   3.374  0.3394  0.9783 -0.1820
  958MOL0     C26343   7.449   3.706   3.432  0.9595  0.5638 -0.1266
  958MOL0     C26344   7.575   3.649   3.378 -0.4349  0.3752  0.5599
  958MOL0     C26345   7.692   3.740   3.381 -0.6336  0.0728  0.8744
  958MOL0     C26346   7.721   3.771   3.524 -0.3222  0.1968  0.4155
  958MOL0     C26347   7.837   3.849   3.555 -0.2792 -0.4685  0.4968
  958MOL0     O26348   7.839   3.981   3.496  0.1892  0.0349  0.0609
  958MOL0     C26349   7.954   4.052   3.495 -0.0549  0.9735 -0.2227
  958MOL0     C26350   7.936   4.186   3.458 -0.2235 -0.3221  0.5831
  958MOL0     C26351   8.044   4.273   3.450  0.4728 -0.5193  0.1552
  958MOL0     C26352   8.172   4.239   3.492 -0.6782  0.2107  0.8135
  958MOL0     C26353   8.283   4.329   3.495 -0.0078  0.8172 -0.0148
  958MOL0     O26354   8.256   4.452   3.442  0.3399  0.1072 -0.4200
  958MOL0     C26355   8.340   4.550   3.473 -0.4891  0.1806 -0.1871
  958MOL0     C26356   8.376   4.641   3.366 -0.5146 -0.0556  0.3021
  958MOL0     C26357   8.466   4.754   3.397  0.2804  0.6097  0.5857
  958MOL0     C26358   8.509   4.773   3.523  0.1667  0.0901  0.1693
  958MOL0     O26359   8.594   4.876   3.565  0.4433 -0.5933 -0.1491
  958MOL0     C26360   8.605   5.001   3.497  0.2339 -0.2960 -0.0858
  958MOL0     C26361   8.665   5.105   3.600  0.6305  0.7721  0.2348
  958MOL0     C26362   8.723   5.231   3.541  0.5894  0.5615 -0.0868
  958MOL0     C26363   8.824   5.299   3.628 -0.1973  0.9772  0.2570
  958MOL0     C26364   8.954   5.223   3.664  0.0836 -0.0904 -0.0678
  958MOL0     C26365   9.017   5.191   3.524 -0.2987 -0.4221 -0.3065
  958MOL0     C26366   9.166   5.168   3.547  0.0872  0.2188 -0.4938
  958MOL0     C26367   9.243   5.086   3.444  1.2728 -0.9487  0.8256
  958MOL0    Cl26368   9.180   5.146   3.281 -0.1563  0.0330 -0.1287
  958MOL0     C26369   8.481   4.675   3.626  0.1336  0.4508 -0.1195
  958MOL0     C26370   8.385   4.568   3.606 -0.5949  0.5790 -0.2434
  958MOL0     O26371   8.389   4.285   3.546  0.8699 -0.8992  0.2072
  958MOL0     C26372   8.195   4.096   3.516  0.4315  0.2437  0.0578
  958MOL0     C26373   8.087   4.010   3.519 -0.0950 -0.4759 -0.5473
  958MOL0     N26374   7.372   3.673   3.547  0.2324 -0.0318  0.1936
  958MOL0     N26375   7.262   3.736   3.548  0.4849 -0.4782  0.0530
  958MOL0     C26376   7.133   4.351   4.168  0.2913  0.2638 -1.1319
  958MOL0     C26377   7.070   4.268   4.255  0.1662  1.3824  0.4907
  958MOL0     C26378   6.778   3.970   4.447 -0.3231 -0.0814 -0.7753
  958MOL0     C26379   6.690   4.054   4.513 -0.7358 -0.4929  0.4525
  958MOL0     C26380   6.609   4.007   4.620  0.1156 -0.6275 -0.5010
  958MOL0     C26381   6.608   3.872   4.652 -0.0249 -0.7664  0.0416
  958MOL0     O26382   6.543   3.822   4.759  0.2252 -0.4364 -0.3763
  958MOL0     C26383   6.407   3.859   4.768 -0.5452 -0.3656 -0.0681
  958MOL0     C26384   6.368   3.830   4.914  0.8190  0.2417 -0.1703
  958MOL0     C26385   6.218   3.832   4.916 -0.7902 -0.7573 -0.6722
  958MOL0     C26386   6.181   3.873   5.057 -0.4839  1.1975 -0.1908
  958MOL0     C26387   6.043   3.837   5.086 -0.2568  0.0634 -0.7621
  958MOL0     C26388   5.930   3.794   5.106  0.2813  0.4875  0.0831
  958MOL0     C26389   6.701   3.792   4.590  0.7337  0.6586 -0.3856
  958MOL0     C26390   6.783   3.836   4.484 -0.4066  0.3186 -0.4346
  958MOL0     H26391   6.755   4.259   4.127 -0.6537  1.4172 -0.3260
  958MOL0     H26392   6.863   4.392   3.949 -2.1837 -0.6689  0.2343
  958MOL0     H26393   7.309   4.482   4.016  0.3323 -2.0552 -0.3568
  958MOL0     H26394   7.271   4.566   3.859  0.5030 -1.6603 -3.2030
  958MOL0     H26395   7.206   4.334   3.790 -4.3985 -0.1977  4.8441
  958MOL0     H26396   7.328   4.278   3.910 -0.2261  1.8855  3.3509
  958MOL0     H26397   7.504   4.421   3.811 -0.3865 -1.3100  1.5093
  958MOL0     H26398   7.385   4.471   3.688 -0.5146 -0.3018 -1.9447
  958MOL0     H26399   7.570   4.303   3.637  0.9956  1.3972  3.6114
  958MOL0     H26400   7.488   4.192   3.741  1.6563  1.1968  0.6087
  958MOL0     H26401   7.458   4.216   3.467 -0.8999  2.3541 -0.8264
  958MOL0     H26402   7.315   4.304   3.518 -0.4765 -1.3138 -0.3109
  958MOL0     H26403   7.242   4.112   3.646 -0.4789  1.0290 -0.7602
  958MOL0     H26404   7.377   4.015   3.599  1.4738 -0.2011  0.2473
  958MOL0     H26405   7.162   4.144   3.423 -0.8895  0.3527  0.9944
  958MOL0     H26406   7.303   4.079   3.346  0.2353  1.1708  0.5264
  958MOL0     H26407   7.131   3.931   3.331 -0.3329 -1.4845  0.2653
  958MOL0     H26408   7.098   3.931   3.515 -0.4003 -0.7485  0.8450
  958MOL0     H26409   7.427   3.870   3.293  1.4796 -0.4548 -0.6707
  958MOL0     H26410   7.550   3.614   3.277  0.8954  2.0799 -0.4006
  958MOL0     H26411   7.595   3.559   3.437 -3.7058  0.2890  1.7641
  958MOL0     H26412   7.683   3.837   3.332 -0.2057  1.3210  3.0976
  958MOL0     H26413   7.774   3.687   3.332 -1.7634  0.8200 -1.9998
  958MOL0     H26414   7.646   3.837   3.568 -1.1622  0.1286 -0.8737
  958MOL0     H26415   7.726   3.676   3.579 -0.7486 -1.5596 -2.3951
  958MOL0     H26416   7.924   3.794   3.517  0.5137  1.9033 -1.4024
  958MOL0     H26417   7.848   3.863   3.663 -1.7134  1.1783  0.4587
  958MOL0     H26418   7.838   4.223   3.431  1.1526  2.2542 -1.3018
  958MOL0     H26419   8.023   4.374   3.416  1.0039 -1.1895 -2.3690
  958MOL0     H26420   8.327   4.640   3.270  0.6843 -0.2270 -0.3293
  958MOL0     H26421   8.500   4.818   3.316 -3.9458  2.0253 -0.3112
  958MOL0     H26422   8.509   5.036   3.460  0.2296 -0.2090  0.0080
  958MOL0     H26423   8.671   5.001   3.409 -0.7522 -0.9045 -0.8438
  958MOL0     H26424   8.735   5.048   3.663 -1.0331 -2.3800 -0.5475
  958MOL0     H26425   8.585   5.132   3.669  1.4516  0.1359  1.4688
  958MOL0     H26426   8.642   5.303   3.523 -1.2241 -1.0383  1.1626
  958MOL0     H26427   8.773   5.203   3.448  0.3323  0.4669 -0.1984
  958MOL0     H26428   8.853   5.386   3.569  0.1073 -0.0645 -1.1797
  958MOL0     H26429   8.780   5.332   3.722  0.4993  1.9228  0.2575
  958MOL0     H26430   8.930   5.129   3.715 -1.6982  0.0800 -0.5168
  958MOL0     H26431   9.021   5.277   3.731  1.8992 -0.3119 -1.6115
  958MOL0     H26432   8.997   5.267   3.448  2.1778 -0.0670 -0.6883
  958MOL0     H26433   8.982   5.095   3.486 -3.1560  0.7642 -0.9068
  958MOL0     H26434   9.227   5.258   3.561  1.2146 -0.4660 -0.8647
  958MOL0     H26435   9.180   5.125   3.647  0.4720  1.6627  0.1096
  958MOL0     H26436   9.218   4.980   3.442  2.7266 -1.4208 -3.3353
  958MOL0     H26437   9.351   5.106   3.452  0.8029  1.7534  1.2836
  958MOL0     H26438   8.510   4.693   3.729  0.0682  0.3470 -0.0834
  958MOL0     H26439   8.356   4.500   3.684  4.0462 -1.5375 -0.0073
  958MOL0     H26440   8.292   4.048   3.530  1.6782  1.1277 -4.0427
  958MOL0     H26441   8.114   3.907   3.540 -1.8570 -1.6417 -3.4123
  958MOL0     H26442   7.239   4.368   4.183  0.4411 -1.5035  0.1038
  958MOL0     H26443   7.119   4.239   4.347 -0.9217 -0.2678  0.5858
  958MOL0     H26444   6.697   4.160   4.494  1.4015 -0.7948 -0.6712
  958MOL0     H26445   6.542   4.079   4.666  2.8828  3.3243 -2.0920
  958MOL0     H26446   6.354   3.789   4.703  1.2450 -1.6658 -0.2012
  958MOL0     H26447   6.387   3.964   4.742 -0.4086 -0.3617 -0.1596
  958MOL0     H26448   6.393   3.731   4.954  1.2442  0.5199  0.2606
  958MOL0     H26449   6.410   3.902   4.985 -1.4799 -0.9504  2.6467
  958MOL0     H26450   6.189   3.727   4.904  1.2821 -1.5090  0.3849
  958MOL0     H26451   6.180   3.893   4.834  0.9260 -0.3048 -1.1776
  958MOL0     H26452   6.250   3.845   5.138 -2.0323  0.0303  0.7851
  958MOL0     H26453   6.203   3.980   5.052  5.7621  0.3205  0.1580
  958MOL0     H26454   5.833   3.749   5.104  0.9724 -1.0654  0.2696
  958MOL0     H26455   6.725   3.691   4.620  0.4152  1.2220  1.9720
  958MOL0     H26456   6.851   3.764   4.439 -2.3456 -1.3619 -0.7973
  959MOL0     O26457   9.438   8.020   4.939  0.1983 -0.5200  0.0837
  959MOL0     C26458   9.466   8.077   4.829  0.1753  0.2150  0.2676
  959MOL0     O26459   9.376   8.130   4.743 -0.0830 -0.3076  0.1823
  959MOL0     C26460   9.243   8.141   4.785 -0.1370  0.0317  0.4109
  959MOL0     C26461   9.179   8.266   4.780 -0.0161  0.5622 -0.9873
  959MOL0     C26462   9.048   8.280   4.821  1.2593 -0.2453  0.7898
  959MOL0     C26463   8.966   8.170   4.822  0.8988  0.0109 -0.1811
  959MOL0     O26464   8.831   8.179   4.858 -0.2525  0.0456  0.6439
  959MOL0     C26465   8.740   8.255   4.786  0.6777  1.1571  0.2473
  959MOL0     C26466   8.666   8.162   4.684  0.8846 -0.7238  0.6654
  959MOL0     C26467   8.558   8.068   4.748  0.2911 -0.8891  0.0432
  959MOL0     C26468   8.428   8.136   4.801  0.2145 -0.4012 -0.0939
  959MOL0     C26469   8.352   8.231   4.708 -0.0325  0.7940  1.2054
  959MOL0     C26470   8.215   8.285   4.761 -0.5330  0.6644 -0.3403
  959MOL0     C26471   8.145   8.392   4.681 -0.3222 -0.7583 -0.2397
  959MOL0     C26472   8.124   8.352   4.538  0.2688  0.8742  0.0813
  959MOL0     N26473   8.021   8.245   4.536 -0.6925  0.2953 -0.5717
  959MOL0     C26474   7.886   8.249   4.569 -0.1083 -0.4583  0.3495
  959MOL0     C26475   7.843   8.126   4.555 -0.4283  0.1206  0.0384
  959MOL0     C26476   7.698   8.084   4.569  0.3451  0.6283  0.2092
  959MOL0     C26477   7.621   8.160   4.461 -0.2164  0.2736 -0.3458
  959MOL0     C26478   7.490   8.091   4.407 -0.0841 -0.0587 -0.4142
  959MOL0     C26479   7.384   8.072   4.503  0.0466 -0.2940 -0.1966
  959MOL0     O26480   7.262   8.018   4.436 -0.3201 -0.0482 -0.3817
  959MOL0     C26481   7.153   7.997   4.519 -0.1368  0.4881  0.5590
  959MOL0     C26482   7.033   7.963   4.454  0.4426 -0.0309 -0.5690
  959MOL0     C26483   6.914   7.963   4.520  0.1126  0.8903 -0.0106
  959MOL0     C26484   6.915   7.997   4.656  0.5343 -0.2013  0.3164
  959MOL0     C26485   6.788   7.989   4.725 -0.6345  0.4393 -0.3692
  959MOL0     O26486   6.680   7.939   4.646 -0.3776 -0.9378  0.0901
  959MOL0     C26487   6.548   7.980   4.664 -0.0546  0.3619  0.0460
  959MOL0     C26488   6.470   7.970   4.548 -0.1733  0.2580 -0.1497
  959MOL0     C26489   6.330   7.979   4.551  0.6301 -0.1811  0.0664
  959MOL0     C26490   6.274   8.024   4.674  0.0101 -0.4495  0.2190
  959MOL0     O26491   6.139   8.037   4.690  0.3972 -0.4581 -0.6870
  959MOL0     C26492   6.043   7.994   4.597 -0.6765  0.3232  0.6598
  959MOL0     C26493   5.908   8.057   4.625  0.7951 -0.3830 -0.1670
  959MOL0     C26494   5.831   7.980   4.728  0.5970  1.8475 -0.7541
  959MOL0     C26495   5.691   8.016   4.757  0.0002 -0.0614 -0.2797
  959MOL0     C26496   5.638   7.948   4.880  0.5826  0.4592 -0.1457
  959MOL0     C26497   5.486   7.951   4.886  0.4132  0.8332  0.7000
  959MOL0     C26498   5.429   8.088   4.866 -0.1823 -0.1659  0.2636
  959MOL0     C26499   5.279   8.076   4.899 -0.5040 -0.2110 -1.1507
  959MOL0    Cl26500   5.230   7.979   5.049  0.2179  0.0335  0.6885
  959MOL0     C26501   6.353   8.035   4.788  0.1318  0.4779  0.0192
  959MOL0     C26502   6.488   8.017   4.788 -0.0590  0.5117  0.8176
  959MOL0     O26503   6.780   8.031   4.840 -0.5528  0.1880  0.4066
  959MOL0     C26504   7.033   8.037   4.723  1.2859  0.7979  0.5973
  959MOL0     C26505   7.149   8.030   4.653  0.2348 -0.0779 -0.4616
  959MOL0     N26506   7.952   8.050   4.506  0.9411 -0.6412  0.1009
  959MOL0     N26507   8.058   8.124   4.495  0.2407  0.2962 -1.3638
  959MOL0     C26508   9.022   8.045   4.817  0.2030 -0.5801  0.1803
  959MOL0     C26509   9.163   8.030   4.816  0.2820 -0.3588  0.0439
  959MOL0     C26510   9.607   8.103   4.800  0.2823  0.7974  0.2818
  959MOL0     C26511   9.705   8.065   4.894  0.8385 -0.4225  1.0498
  959MOL0     C26512   9.845   8.075   4.863 -0.4641  0.0433  0.3151
  959MOL0     C26513   9.885   8.138   4.746 -0.7771 -0.2853  0.1684
  959MOL0     O26514  10.023   8.155   4.728 -0.0030  0.2149  0.9266
  959MOL0     C26515  10.069   8.199   4.598  0.3348 -0.6907 -0.3039
  959MOL0     C26516  10.218   8.159   4.569 -0.3655 -0.3842 -1.1866
  959MOL0     C26517  10.273   8.193   4.422 -1.0617 -0.0822  0.1845
  959MOL0     C26518  10.405   8.129   4.388 -1.2381  0.6165  0.6838
  959MOL0     C26519  10.511   8.168   4.484  0.2031  0.1033 -0.3426
  959MOL0     C26520  10.597   8.211   4.559  0.0183  0.0217 -0.4499
  959MOL0     C26521   9.783   8.182   4.664  0.2967 -0.3081 -0.3063
  959MOL0     C26522   9.651   8.164   4.684 -0.2029 -0.0050 -0.9936
  959MOL0     H26523   9.241   8.354   4.763  1.2058  0.2383  1.4362
  959MOL0     H26524   9.009   8.381   4.818 -0.7850 -0.9984 -2.3087
  959MOL0     H26525   8.786   8.341   4.735 -1.4005  1.3481 -1.4398
  959MOL0     H26526   8.658   8.296   4.845 -0.9318  1.0604 -1.7985
  959MOL0     H26527   8.732   8.087   4.639  1.5435 -1.4551  2.7321
  959MOL0     H26528   8.627   8.218   4.599 -0.6147  0.5451  2.1342
  959MOL0     H26529   8.609   8.022   4.834  1.3238  4.6498  2.8498
  959MOL0     H26530   8.524   7.994   4.676 -0.9978 -1.0154  0.7435
  959MOL0     H26531   8.362   8.058   4.841  0.1853 -1.0947 -1.4378
  959MOL0     H26532   8.461   8.186   4.892 -4.2525 -1.4156  2.4219
  959MOL0     H26533   8.328   8.173   4.618 -0.0236 -1.0232  2.3126
  959MOL0     H26534   8.423   8.309   4.682 -1.5692  1.8496  0.0457
  959MOL0     H26535   8.246   8.309   4.863  3.2607 -1.8216 -0.7209
  959MOL0     H26536   8.148   8.199   4.770  0.1475  0.2218  0.6553
  959MOL0     H26537   8.053   8.429   4.727 -1.9248 -1.7231 -2.5252
  959MOL0     H26538   8.216   8.474   4.697  1.6791 -2.8302  2.7469
  959MOL0     H26539   8.218   8.313   4.498  0.2350 -0.9511  1.6350
  959MOL0     H26540   8.095   8.439   4.477 -2.9245 -0.7916 -1.0112
  959MOL0     H26541   7.822   8.333   4.592 -1.3521 -0.7796 -1.6582
  959MOL0     H26542   7.649   8.104   4.665  1.3990  1.3259  0.6100
  959MOL0     H26543   7.690   7.975   4.560  2.5706  0.3985  0.6793
  959MOL0     H26544   7.684   8.162   4.372  0.3508 -1.8392 -0.0556
  959MOL0     H26545   7.600   8.261   4.498 -0.1790  0.2452 -0.2458
  959MOL0     H26546   7.454   8.155   4.326 -0.5338  1.2376  0.7681
  959MOL0     H26547   7.522   7.996   4.364  1.3856  0.2681 -0.1048
  959MOL0     H26548   7.346   8.167   4.541 -1.2541 -0.8625 -0.0120
  959MOL0     H26549   7.423   8.007   4.582 -0.5952  0.6327  0.9049
  959MOL0     H26550   7.036   7.954   4.346  0.4425 -1.2098 -0.4841
  959MOL0     H26551   6.823   7.936   4.467 -1.3328  0.9401  2.3135
  959MOL0     H26552   6.530   7.939   4.463  0.4031 -0.0552  0.3577
  959MOL0     H26553   6.277   7.938   4.465  1.4047  0.9808 -0.9882
  959MOL0     H26554   6.037   7.885   4.606  2.4937 -0.0204 -0.1614
  959MOL0     H26555   6.065   8.010   4.491 -3.7045 -0.4329 -0.1615
  959MOL0     H26556   5.844   8.054   4.537 -1.8488  1.0699  1.5391
  959MOL0     H26557   5.912   8.162   4.657  0.0987 -0.9267  1.8939
  959MOL0     H26558   5.887   7.984   4.822 -0.1562 -3.0272  0.1887
  959MOL0     H26559   5.830   7.874   4.703 -3.8580  2.1958 -3.0929
  959MOL0     H26560   5.686   8.123   4.780  0.3126  0.0061 -0.5271
  959MOL0     H26561   5.644   7.994   4.661  2.1796 -1.3697 -1.1055
  959MOL0     H26562   5.684   7.990   4.970 -0.8838  1.6591  0.0770
  959MOL0     H26563   5.665   7.842   4.888  2.8511  1.0413  0.7913
  959MOL0     H26564   5.457   7.919   4.986 -1.1152  0.8346  0.2829
  959MOL0     H26565   5.450   7.881   4.810 -2.1115  3.4650 -0.7182
  959MOL0     H26566   5.483   8.158   4.930 -0.2088  0.7742 -0.7174
  959MOL0     H26567   5.432   8.116   4.760 -1.4540  2.2315  0.7978
  959MOL0     H26568   5.240   8.021   4.813 -2.2978  0.5506 -0.8799
  959MOL0     H26569   5.216   8.166   4.897  0.5870  0.5570 -2.0399
  959MOL0     H26570   6.301   8.049   4.882  0.9104 -1.0161  0.7128
  959MOL0     H26571   6.538   8.029   4.884  0.5935  0.8998  0.4363
  959MOL0     H26572   7.019   8.071   4.825 -3.0877  0.2181  0.3928
  959MOL0     H26573   7.240   8.071   4.698  0.0656  2.6399 -2.3939
  959MOL0     H26574   8.957   7.958   4.829 -1.6327  0.6197 -0.6328
  959MOL0     H26575   9.207   7.930   4.817 -1.6822 -1.2723  0.2524
  959MOL0     H26576   9.676   8.002   4.978  1.9192  0.3308  2.0308
  959MOL0     H26577   9.914   8.046   4.941  0.7194  0.9957 -0.3277
  959MOL0     H26578  10.060   8.308   4.600  0.6260 -0.6742  1.0447
  959MOL0     H26579  10.000   8.157   4.524 -1.5871  0.1650  0.9113
  959MOL0     H26580  10.281   8.208   4.644 -2.8076 -0.0434  0.8118
  959MOL0     H26581  10.218   8.051   4.589  2.6983  0.0260  1.9490
  959MOL0     H26582  10.274   8.302   4.416 -2.0379 -0.1302 -1.2039
  959MOL0     H26583  10.198   8.155   4.352  3.1199 -5.7956 -1.9786
  959MOL0     H26584  10.394   8.021   4.379 -1.7130  0.7900 -1.4236
  959MOL0     H26585  10.437   8.168   4.291  1.8111 -1.3233  0.7883
  959MOL0     H26586  10.672   8.254   4.621  2.9268  0.2053 -3.7736
  959MOL0     H26587   9.796   8.235   4.570 -1.4482  1.0661  0.1667
  959MOL0     H26588   9.589   8.204   4.605 -0.5409  0.8865 -0.3066
  960MOL0     O26589   8.508   6.706   0.453  0.0439 -0.8384 -0.0181
  960MOL0     C26590   8.445   6.608   0.421 -0.2840 -0.1937 -1.5172
  960MOL0     O26591   8.445   6.494   0.492 -0.6272 -0.3121 -0.0895
  960MOL0     C26592   8.547   6.467   0.588 -0.5781 -1.1419 -0.2181
  960MOL0     C26593   8.682   6.524   0.598  0.0648  0.0407  0.3581
  960MOL0     C26594   8.774   6.492   0.698 -0.3211  0.1620  0.3574
  960MOL0     C26595   8.744   6.389   0.791  0.0178  0.9208 -0.3187
  960MOL0     O26596   8.816   6.330   0.887  0.3023  1.1475  0.2932
  960MOL0     C26597   8.957   6.352   0.869 -0.9617  0.3777 -0.6121
  960MOL0     C26598   9.030   6.293   0.991  0.1627 -0.2337  0.0732
  960MOL0     C26599   9.169   6.326   0.982  0.4737  0.1128  0.3718
  960MOL0     C26600   9.231   6.326   1.123  0.0979  0.4892  0.0532
  960MOL0     C26601   9.371   6.387   1.141  0.4782 -0.0376 -0.8376
  960MOL0     C26602   9.463   6.329   1.029  0.8147 -0.2173 -0.0139
  960MOL0     C26603   9.611   6.360   1.061  0.2335 -0.3700 -0.8167
  960MOL0     C26604   9.702   6.327   0.940  0.5423  0.8443 -0.2979
  960MOL0     N26605   9.847   6.318   0.981  0.4205  0.3363  0.2441
  960MOL0     C26606   9.937   6.419   0.973  0.9748 -0.0521 -0.5166
  960MOL0     C26607  10.052   6.367   1.026  1.0049  0.7002  0.1386
  960MOL0     C26608  10.181   6.442   1.045 -0.6902 -0.3663 -0.3002
  960MOL0     C26609  10.146   6.570   1.132 -0.1293  0.2933 -0.2132
  960MOL0     C26610  10.246   6.685   1.102 -0.1144  0.1941  1.2872
  960MOL0     C26611  10.221   6.758   0.971  0.1351  0.9895  0.0679
  960MOL0     O26612  10.112   6.855   0.983  0.3405  0.1802 -0.5074
  960MOL0     C26613   9.983   6.820   0.949  0.0711  0.2114 -0.6879
  960MOL0     C26614   9.962   6.770   0.823 -0.9637 -0.1691  0.1532
  960MOL0     C26615   9.840   6.734   0.769  0.0384  1.2085 -0.0482
  960MOL0     C26616   9.721   6.762   0.841 -0.4741 -0.6092  0.1423
  960MOL0     C26617   9.590   6.752   0.781  0.8284  0.5525 -0.2601
  960MOL0     O26618   9.485   6.786   0.869  0.0877 -0.0135 -0.5200
  960MOL0     C26619   9.359   6.793   0.812  0.3044 -0.3733  0.3292
  960MOL0     C26620   9.336   6.834   0.671 -0.4998 -0.2888 -0.4828
  960MOL0     C26621   9.208   6.832   0.620 -0.8459 -0.6558  0.8353
  960MOL0     C26622   9.099   6.784   0.699 -0.1478  1.2310 -0.6840
  960MOL0     O26623   8.967   6.792   0.659 -0.0145 -0.0114  0.9951
  960MOL0     C26624   8.943   6.905   0.574 -0.5299 -0.0113  0.5055
  960MOL0     C26625   8.794   6.931   0.545  0.2824  0.2542 -0.3323
  960MOL0     C26626   8.762   7.033   0.432  1.2486  0.0152  0.6973
  960MOL0     C26627   8.614   7.051   0.429  0.6838 -0.1987 -0.3415
  960MOL0     C26628   8.580   7.183   0.346 -0.6675 -0.0892 -0.0976
  960MOL0     C26629   8.448   7.246   0.400  0.0647  1.3061  0.0914
  960MOL0     C26630   8.331   7.145   0.386 -0.3238 -0.9967  0.8647
  960MOL0     C26631   8.194   7.213   0.391 -0.1005 -0.6499  0.4612
  960MOL0    Cl26632   8.078   7.114   0.317 -0.0402 -0.2018  0.0058
  960MOL0     C26633   9.124   6.731   0.828 -0.2583  0.3825  0.3605
  960MOL0     C26634   9.251   6.737   0.878  0.9204  0.0825 -0.5602
  960MOL0     O26635   9.575   6.685   0.677  0.3114 -0.0819  0.2169
  960MOL0     C26636   9.741   6.819   0.973 -0.3965 -0.0480  0.0544
  960MOL0     C26637   9.867   6.846   1.023 -0.9836  0.6693  0.0131
  960MOL0     N26638  10.024   6.240   1.061  0.3393  0.0605 -0.2846
  960MOL0     N26639   9.908   6.207   1.033 -0.7405  0.3409  0.2210
  960MOL0     C26640   8.615   6.332   0.777  0.3965  0.0440  0.1595
  960MOL0     C26641   8.513   6.366   0.682  0.0533 -0.7880 -0.7083
  960MOL0     C26642   8.367   6.627   0.298  0.5726  0.5563 -0.9004
  960MOL0     C26643   8.268   6.536   0.271  0.7281 -0.0178  1.0383
  960MOL0     C26644   8.194   6.555   0.153  0.2067  0.2531  0.2349
  960MOL0     C26645   8.190   6.680   0.084  0.1487 -0.4786  0.0872
  960MOL0     O26646   8.104   6.724  -0.013 -0.5918 -0.0296 -0.4464
  960MOL0     C26647   8.108   6.661  -0.136  0.0557  0.0662  0.4060
  960MOL0     C26648   8.231   6.576  -0.168  0.2500 -0.1625  0.4670
  960MOL0     C26649   8.230   6.563  -0.324 -0.5631  0.2359 -0.5727
  960MOL0     C26650   8.342   6.468  -0.362  0.1756 -0.3397  0.4726
  960MOL0     C26651   8.483   6.529  -0.364 -0.2046  0.9183 -0.5492
  960MOL0     C26652   8.603   6.565  -0.369  0.1569 -0.2232 -0.0134
  960MOL0     C26653   8.285   6.771   0.125 -0.3300 -0.5357 -0.3601
  960MOL0     C26654   8.380   6.748   0.226  0.4084 -0.6627  0.4302
  960MOL0     H26655   8.713   6.605   0.533 -3.6848  1.4206  0.0294
  960MOL0     H26656   8.876   6.530   0.699  0.5378 -2.0163  0.2304
  960MOL0     H26657   8.980   6.458   0.857  3.0969 -0.2215  0.3754
  960MOL0     H26658   8.991   6.305   0.777  3.8093 -0.1815  1.1612
  960MOL0     H26659   9.016   6.188   0.964 -1.2349  0.9515 -4.7413
  960MOL0     H26660   8.981   6.326   1.083 -1.7237 -0.9719 -0.5995
  960MOL0     H26661   9.185   6.430   0.952 -0.0012  0.1959  0.3981
  960MOL0     H26662   9.219   6.262   0.909  0.7683 -0.6737  1.2462
  960MOL0     H26663   9.164   6.378   1.191  2.8853  2.0842  1.7338
  960MOL0     H26664   9.232   6.221   1.153 -1.3230  0.3859 -0.1750
  960MOL0     H26665   9.417   6.351   1.233  1.7749  0.4736 -1.2654
  960MOL0     H26666   9.358   6.495   1.147 -0.7390 -0.2477  1.2664
  960MOL0     H26667   9.433   6.359   0.928 -2.6462 -0.3564  0.8372
  960MOL0     H26668   9.457   6.220   1.019  1.8420 -0.1368 -2.1637
  960MOL0     H26669   9.606   6.469   1.071 -4.9911 -0.3755 -0.8018
  960MOL0     H26670   9.657   6.305   1.144  1.1815  0.3132 -0.8740
  960MOL0     H26671   9.672   6.390   0.855 -1.4593 -0.5085 -0.6522
  960MOL0     H26672   9.678   6.222   0.920  1.5234 -0.3327  3.9241
  960MOL0     H26673   9.934   6.514   0.921 -1.8951 -0.6123 -1.5419
  960MOL0     H26674  10.219   6.460   0.944 -0.5083 -1.7836 -0.4997
  960MOL0     H26675  10.256   6.382   1.097  1.1583  0.7749 -1.5298
  960MOL0     H26676  10.156   6.529   1.233 -1.1161 -2.6817 -1.2047
  960MOL0     H26677  10.041   6.601   1.131 -0.1213  0.4250  1.0221
  960MOL0     H26678  10.242   6.759   1.182 -1.3519  0.0493  1.3816
  960MOL0     H26679  10.347   6.646   1.113 -1.3708 -3.6813  0.8399
  960MOL0     H26680  10.213   6.689   0.887  1.7934  0.5688  0.2155
  960MOL0     H26681  10.312   6.811   0.941  1.8738 -1.7572  0.1393
  960MOL0     H26682  10.048   6.746   0.761 -2.7758  0.8958 -3.0203
  960MOL0     H26683   9.840   6.706   0.664 -0.2246  2.5929 -0.4378
  960MOL0     H26684   9.417   6.871   0.609  0.5712 -0.7865  0.5812
  960MOL0     H26685   9.207   6.874   0.520  1.8535  0.3969  1.1445
  960MOL0     H26686   8.986   6.886   0.475  1.7192  2.0039  0.9709
  960MOL0     H26687   8.988   6.992   0.623  0.6280 -0.8178  0.9105
  960MOL0     H26688   8.747   6.971   0.635  0.3600  0.9640 -0.6021
  960MOL0     H26689   8.756   6.832   0.518  0.4667 -0.3386  1.4598
  960MOL0     H26690   8.793   7.006   0.331 -0.8184  1.5364 -0.4133
  960MOL0     H26691   8.813   7.123   0.466  1.0245  0.8916 -1.1726
  960MOL0     H26692   8.576   6.960   0.379  2.8997  0.2302 -3.0585
  960MOL0     H26693   8.577   7.052   0.532  0.0647 -0.7851 -0.5419
  960MOL0     H26694   8.576   7.168   0.238 -0.0674  1.7371 -0.4065
  960MOL0     H26695   8.664   7.252   0.356  1.8171 -3.1230  2.0528
  960MOL0     H26696   8.433   7.342   0.349  4.8149  1.2119 -2.0641
  960MOL0     H26697   8.453   7.269   0.506 -0.9476 -1.0360  0.7015
  960MOL0     H26698   8.335   7.103   0.285  0.6782 -1.2447  1.0042
  960MOL0     H26699   8.338   7.061   0.455  1.5897 -0.6814  1.0861
  960MOL0     H26700   8.194   7.298   0.322 -1.4684 -0.5770  0.5148
  960MOL0     H26701   8.158   7.230   0.493 -0.7690  0.7828  0.0159
  960MOL0     H26702   9.052   6.694   0.899  0.6774  0.7677  1.5418
  960MOL0     H26703   9.271   6.702   0.978  2.1013  1.2884 -0.3366
  960MOL0     H26704   9.655   6.848   1.033 -0.1935  0.2323  0.2128
  960MOL0     H26705   9.886   6.871   1.127  2.2671 -0.0885 -0.2875
  960MOL0     H26706   8.587   6.258   0.852 -1.6533  1.9094  1.3485
  960MOL0     H26707   8.410   6.333   0.689 -0.8589  2.0611  1.0018
  960MOL0     H26708   8.249   6.454   0.340 -3.2423 -1.6285 -1.6162
  960MOL0     H26709   8.110   6.497   0.116  0.4043  0.4707 -0.5837
  960MOL0     H26710   8.096   6.735  -0.216  0.7004 -0.2866 -0.0276
  960MOL0     H26711   8.019   6.598  -0.141  0.1998 -0.0598 -0.8766
  960MOL0     H26712   8.323   6.632  -0.153  0.0298 -0.2855  2.5423
  960MOL0     H26713   8.236   6.482  -0.112  2.5781  0.3127  1.1649
  960MOL0     H26714   8.244   6.656  -0.379 -2.0399  1.8097  1.5490
  960MOL0     H26715   8.136   6.510  -0.345 -1.5476  1.0013  1.5943
  960MOL0     H26716   8.331   6.378  -0.301 -1.2131 -1.3238 -1.1621
  960MOL0     H26717   8.318   6.438  -0.464 -1.6450 -0.8017  1.0137
  960MOL0     H26718   8.700   6.608  -0.383 -0.2065  1.0417  1.1001
  960MOL0     H26719   8.282   6.875   0.095 -2.5422 -0.2034  0.8032
  960MOL0     H26720   8.441   6.833   0.255  0.2946  0.0588 -1.3097
  961MOL0     O26721   5.503   0.729   9.145 -0.0696 -0.4740 -0.5483
  961MOL0     C26722   5.516   0.679   9.032  0.2216 -0.0670  0.3466
  961MOL0     O26723   5.408   0.658   8.942  0.2773  0.5709 -0.3430
  961MOL0     C26724   5.280   0.677   8.980 -0.5667 -0.5321  1.3409
  961MOL0     C26725   5.179   0.581   8.956 -0.0834 -0.0470 -0.2490
  961MOL0     C26726   5.042   0.601   8.986 -0.2611 -0.4216 -0.5835
  961MOL0     C26727   5.004   0.723   9.039  0.3041 -0.1558 -0.4437
  961MOL0     O26728   4.875   0.760   9.063 -0.4352  0.0543  0.6863
  961MOL0     C26729   4.767   0.661   9.095  0.0474 -0.2395 -0.2928
  961MOL0     C26730   4.708   0.711   9.231  0.1302  0.3686  0.2149
  961MOL0     C26731   4.589   0.616   9.263  0.1754  0.1372  0.1952
  961MOL0     C26732   4.500   0.654   9.377 -0.7932 -0.5450  0.0945
  961MOL0     C26733   4.390   0.555   9.393 -0.1792 -0.6919  0.3228
  961MOL0     C26734   4.262   0.614   9.331 -0.9762  0.4648  0.1024
  961MOL0     C26735   4.136   0.526   9.356 -0.3131 -0.2652  0.1820
  961MOL0     C26736   4.092   0.535   9.502 -0.7235  0.1205 -0.3356
  961MOL0     N26737   3.968   0.458   9.526  0.3144  0.7050 -0.5757
  961MOL0     C26738   3.959   0.326   9.492 -0.2624  0.1538  0.0366
  961MOL0     C26739   3.833   0.282   9.521  0.8278 -0.3474 -0.4180
  961MOL0     C26740   3.764   0.148   9.507 -0.5940 -0.2069  1.0561
  961MOL0     C26741   3.606   0.153   9.482 -0.2141 -0.1676 -0.2276
  961MOL0     C26742   3.556   0.015   9.490 -0.1028  0.0988  0.1909
  961MOL0     C26743   3.408   0.008   9.435  0.2307 -0.0426 -0.2661
  961MOL0     O26744   3.337   0.111   9.497 -0.2667 -0.4421  0.0452
  961MOL0     C26745   3.196   0.107   9.490 -0.3510  0.0240 -0.2017
  961MOL0     C26746   3.132   0.032   9.394 -0.4664  0.0904  0.4877
  961MOL0     C26747   2.985   0.028   9.382 -0.8603  0.1027 -0.0028
  961MOL0     C26748   2.909   0.104   9.466  0.3953 -0.3604  0.4670
  961MOL0     C26749   2.758   0.113   9.446  0.5218  0.2446  0.3847
  961MOL0     O26750   2.696   0.216   9.511  0.0012 -0.3266 -0.4467
  961MOL0     C26751   2.566   0.239   9.492 -0.4144 -0.1941  0.0175
  961MOL0     C26752   2.463   0.168   9.556  0.5794 -0.0291 -0.0790
  961MOL0     C26753   2.330   0.215   9.544  0.7707 -0.9918 -0.8599
  961MOL0     C26754   2.301   0.318   9.454  0.1057 -0.2467 -0.9643
  961MOL0     O26755   2.171   0.351   9.422  0.5159 -0.0504  0.4543
  961MOL0     C26756   2.073   0.300   9.504  0.2914  0.3954  0.5514
  961MOL0     C26757   1.929   0.342   9.462 -0.0742  0.8196  0.0017
  961MOL0     C26758   1.889   0.293   9.327 -0.5515  0.5215 -0.2334
  961MOL0     C26759   1.744   0.307   9.287 -0.0536  1.0034 -0.0619
  961MOL0     C26760   1.707   0.452   9.256  0.8975 -0.3487  0.6329
  961MOL0     C26761   1.562   0.487   9.219 -0.2860 -0.4161  0.6367
  961MOL0     C26762   1.508   0.417   9.089 -0.4512  0.1996  0.3594
  961MOL0     C26763   1.571   0.451   8.963  0.3170  0.5106 -0.5689
  961MOL0    Cl26764   1.489   0.332   8.839  0.0786 -0.3378  0.3812
  961MOL0     C26765   2.403   0.379   9.385  0.3217 -0.1529  0.2472
  961MOL0     C26766   2.532   0.337   9.400  0.4666  0.1243  0.4227
  961MOL0     O26767   2.702   0.038   9.371  0.2146 -0.2191  0.0026
  961MOL0     C26768   2.979   0.188   9.554  0.0853  0.1519 -0.2803
  961MOL0     C26769   3.115   0.186   9.570  0.3758 -0.2764  0.3504
  961MOL0     N26770   3.765   0.398   9.569 -0.5718  0.4700 -0.5006
  961MOL0     N26771   3.849   0.499   9.578 -0.1184  0.5260  0.5636
  961MOL0     C26772   5.103   0.821   9.064  0.5952 -0.0268 -0.0796
  961MOL0     C26773   5.243   0.806   9.024  0.7390 -0.2272  0.8558
  961MOL0     C26774   5.659   0.646   8.995  0.2148 -0.2908  0.6214
  961MOL0     C26775   5.767   0.689   9.071  0.5329  0.3659 -0.9999
  961MOL0     C26776   5.891   0.655   9.034  0.8457  0.8336  0.3699
  961MOL0     C26777   5.928   0.569   8.925 -0.4225 -0.7154  0.4899
  961MOL0     O26778   6.050   0.525   8.890  0.0273 -0.2576  0.0368
  961MOL0     C26779   6.154   0.548   8.977 -0.2756  0.1037  0.5422
  961MOL0     C26780   6.281   0.486   8.920  0.1001 -0.2385  0.4864
  961MOL0     C26781   6.404   0.554   8.988 -0.2251 -0.3840 -0.0407
  961MOL0     C26782   6.529   0.499   8.920 -0.0855  0.4598  0.0993
  961MOL0     C26783   6.655   0.507   9.001  0.3323 -0.3008 -0.0973
  961MOL0     C26784   6.759   0.507   9.067  0.2815 -0.0678  0.5994
  961MOL0     C26785   5.818   0.534   8.853  0.3820 -0.4851  0.6055
  961MOL0     C26786   5.686   0.575   8.877  0.3616 -0.0761  0.2150
  961MOL0     H26787   5.230   0.491   8.922  0.5502  0.4266 -0.5715
  961MOL0     H26788   4.977   0.517   8.962 -1.1029  0.4788 -1.5668
  961MOL0     H26789   4.808   0.559   9.097 -0.2604 -0.4263 -1.9908
  961MOL0     H26790   4.693   0.668   9.015  0.2153 -1.0070 -0.5265
  961MOL0     H26791   4.685   0.817   9.216  2.4825  0.7017 -1.4827
  961MOL0     H26792   4.785   0.703   9.308  0.9963  2.3703 -0.3855
  961MOL0     H26793   4.637   0.519   9.274 -0.3635 -0.3534 -1.4444
  961MOL0     H26794   4.529   0.616   9.171 -2.7348  5.7053  1.6313
  961MOL0     H26795   4.559   0.656   9.469 -2.8660  1.1533  1.5100
  961MOL0     H26796   4.458   0.750   9.344  0.0576 -0.0177  0.5133
  961MOL0     H26797   4.365   0.552   9.499  0.8637 -1.8351  0.5656
  961MOL0     H26798   4.411   0.451   9.365 -1.3765 -1.2020  1.2218
  961MOL0     H26799   4.277   0.635   9.225 -0.9504  1.7584  0.3355
  961MOL0     H26800   4.233   0.708   9.380 -0.6265  1.0777 -0.8287
  961MOL0     H26801   4.060   0.563   9.286 -1.8496 -2.3234  0.6446
  961MOL0     H26802   4.153   0.425   9.317  2.5467  0.5460 -0.8881
  961MOL0     H26803   4.075   0.639   9.533  0.9968 -0.3794  2.6233
  961MOL0     H26804   4.169   0.491   9.566  2.1177  1.6065 -2.4879
  961MOL0     H26805   4.041   0.262   9.461  0.7376  1.2361  0.3791
  961MOL0     H26806   3.789   0.084   9.593 -0.8653 -1.8568 -0.0536
  961MOL0     H26807   3.803   0.093   9.421 -5.6357 -0.8687 -1.1587
  961MOL0     H26808   3.576   0.176   9.380 -1.1145  1.4948  0.3795
  961MOL0     H26809   3.557   0.211   9.560  2.1710 -0.0717  1.2870
  961MOL0     H26810   3.615  -0.054   9.429  0.8822 -0.3905  1.6389
  961MOL0     H26811   3.561  -0.030   9.590 -0.3490 -0.6040 -0.1083
  961MOL0     H26812   3.360  -0.088   9.456  3.2215 -1.8456 -1.1461
  961MOL0     H26813   3.414   0.017   9.326 -2.3042 -0.1468 -0.4804
  961MOL0     H26814   3.190  -0.035   9.332 -1.3150  2.2599 -2.9051
  961MOL0     H26815   2.942  -0.040   9.310  0.7890 -1.9541  0.8202
  961MOL0     H26816   2.477   0.087   9.626  0.4012 -0.5645 -0.6542
  961MOL0     H26817   2.253   0.160   9.598 -0.9946 -1.1739 -3.3933
  961MOL0     H26818   2.085   0.320   9.611 -1.8117 -1.7336  1.2768
  961MOL0     H26819   2.082   0.193   9.483  0.7256  0.6312 -0.5370
  961MOL0     H26820   1.915   0.451   9.470 -0.2852  0.7348  0.8449
  961MOL0     H26821   1.857   0.285   9.522 -1.3728 -1.7835 -3.6852
  961MOL0     H26822   1.924   0.192   9.301 -1.8256 -0.0102  0.0568
  961MOL0     H26823   1.937   0.352   9.248 -0.6655  2.1920  0.8874
  961MOL0     H26824   1.723   0.247   9.198  0.2827 -0.3031  0.7083
  961MOL0     H26825   1.677   0.281   9.370 -0.4380  0.5567 -0.5047
  961MOL0     H26826   1.773   0.475   9.172 -1.0136 -0.9542 -1.1405
  961MOL0     H26827   1.737   0.528   9.328 -2.1618  3.3380 -1.5498
  961MOL0     H26828   1.559   0.595   9.200  0.1102 -0.3874  0.7229
  961MOL0     H26829   1.494   0.467   9.302 -0.7144 -2.4993 -0.1722
  961MOL0     H26830   1.521   0.308   9.100 -0.8548  0.1805  0.6833
  961MOL0     H26831   1.400   0.430   9.091 -0.7840 -1.2914 -2.5450
  961MOL0     H26832   1.680   0.444   8.968  0.1266 -3.0764  1.2218
  961MOL0     H26833   1.556   0.557   8.940 -1.6509  0.2905 -0.4535
  961MOL0     H26834   2.381   0.447   9.303 -1.5923 -1.2578 -0.2158
  961MOL0     H26835   2.601   0.394   9.338  1.8216  0.1478  1.8802
  961MOL0     H26836   2.921   0.246   9.625 -0.2546  0.1911 -0.5859
  961MOL0     H26837   3.161   0.257   9.638  0.9669  0.1767 -0.5027
  961MOL0     H26838   5.071   0.919   9.097  0.3941  0.7961 -2.4894
  961MOL0     H26839   5.303   0.895   9.043 -0.3267  0.2142  2.2937
  961MOL0     H26840   5.753   0.753   9.158  0.8248  0.0022 -0.6846
  961MOL0     H26841   5.971   0.695   9.095  0.7184  1.7430 -0.0426
  961MOL0     H26842   6.125   0.500   9.071 -1.3560 -1.7538 -0.6787
  961MOL0     H26843   6.174   0.656   8.986  2.0869 -0.1577 -0.7661
  961MOL0     H26844   6.281   0.382   8.952 -0.9872  0.3471  2.6112
  961MOL0     H26845   6.288   0.503   8.812 -0.4972 -0.4563  0.4146
  961MOL0     H26846   6.393   0.522   9.092 -2.6482  0.0292 -0.0972
  961MOL0     H26847   6.415   0.663   8.991  2.8444 -0.5448 -1.6268
  961MOL0     H26848   6.522   0.392   8.900  2.8540 -0.2962  2.5247
  961MOL0     H26849   6.541   0.557   8.828 -0.8977  1.7055  0.7486
  961MOL0     H26850   6.845   0.485   9.126 -1.2205 -0.4950  2.7494
  961MOL0     H26851   5.840   0.465   8.772  2.1756 -0.3776  0.9754
  961MOL0     H26852   5.608   0.533   8.813 -1.9891  0.4528  2.5562
  962MOL0     O26853   1.704   9.951  10.469 -0.2466  0.5306 -0.5289
  962MOL0     C26854   1.694   9.905  10.583  0.8376 -0.3612 -0.8714
  962MOL0     O26855   1.585   9.926  10.662  0.1031  0.1422  0.1187
  962MOL0     C26856   1.483  10.014  10.626 -0.6220  0.8479 -0.3532
  962MOL0     C26857   1.370   9.996  10.700 -0.0730  0.1459 -0.7691
  962MOL0     C26858   1.251  10.066  10.684 -0.1037 -0.8875  1.2724
  962MOL0     C26859   1.249  10.169  10.580  0.0098 -0.3124 -1.0072
  962MOL0     O26860   1.139  10.251  10.570 -0.1844  0.3028  0.3829
  962MOL0     C26861   1.138  10.357  10.471 -0.1770 -0.3210  0.4868
  962MOL0     C26862   0.995  10.411  10.456 -0.7014  0.4552  0.1377
  962MOL0     C26863   0.949  10.478  10.584 -0.0668  0.1422 -0.7169
  962MOL0     C26864   0.813  10.548  10.586  0.0365  0.3100  0.0124
  962MOL0     C26865   0.788  10.584  10.737 -0.1636  0.4848  0.2753
  962MOL0     C26866   0.645  10.625  10.763 -0.7577 -0.1394  0.4165
  962MOL0     C26867   0.614  10.704  10.885  0.6144  0.3384  0.4887
  962MOL0     C26868   0.467  10.722  10.926 -0.2694 -0.1801 -0.0844
  962MOL0     N26869   0.380  10.610  10.908 -0.2719  0.1075 -0.0060
  962MOL0     C26870   0.280  10.604  10.818  0.9038 -0.1506  0.1713
  962MOL0     C26871   0.235  10.479  10.833 -0.4201 -0.1676 -0.3635
  962MOL0     C26872   0.112  10.412  10.766  0.0813 -0.8935 -0.0548
  962MOL0     C26873   0.119  10.439  10.616  0.0546 -0.1064  0.8266
  962MOL0     C26874   0.258  10.392  10.546  0.3677 -0.8292  0.4312
  962MOL0     C26875   0.245  10.422  10.391 -0.1582 -0.0837 -0.1522
  962MOL0     O26876   0.334  10.320  10.330  0.4276  0.3283  0.1776
  962MOL0     C26877   0.462  10.358  10.295 -0.7028  0.0683  0.0662
  962MOL0     C26878   0.532  10.255  10.239 -0.4563  0.1501  0.6562
  962MOL0     C26879   0.660  10.276  10.186  0.1466 -0.3846  0.5169
  962MOL0     C26880   0.717  10.401  10.179 -1.1722 -0.3449 -0.2353
  962MOL0     C26881   0.843  10.437  10.112  0.2199  0.3416 -0.3519
  962MOL0     O26882   0.904  10.325  10.043  0.1546 -0.3608 -0.9127
  962MOL0     C26883   1.024  10.334   9.960  0.7216  0.5335  0.2372
  962MOL0     C26884   1.141  10.380  10.019 -0.6941  1.0218 -0.7421
  962MOL0     C26885   1.251  10.394   9.931 -0.2245  0.5149  0.5435
  962MOL0     C26886   1.256  10.355   9.788  0.9882 -0.0018 -0.0079
  962MOL0     O26887   1.368  10.378   9.704 -0.2011  0.9249  0.0814
  962MOL0     C26888   1.350  10.351   9.561  0.3287 -0.4094 -0.7615
  962MOL0     C26889   1.481  10.333   9.486 -0.2448 -0.0897 -1.1698
  962MOL0     C26890   1.472  10.261   9.358 -0.7973 -0.4452 -0.1863
  962MOL0     C26891   1.612  10.269   9.291  0.0903 -0.7603  0.1896
  962MOL0     C26892   1.625  10.199   9.160  0.6806 -0.3561 -0.8992
  962MOL0     C26893   1.765  10.200   9.099 -1.3879 -0.3087  0.2693
  962MOL0     C26894   1.784  10.327   9.020  0.4689  0.8118  0.0431
  962MOL0     C26895   1.900  10.413   9.064  0.7260  0.1101 -0.0851
  962MOL0    Cl26896   1.932  10.574   8.984  0.2081  0.1690  0.2143
  962MOL0     C26897   1.129  10.320   9.739  0.3688 -0.4475  0.2846
  962MOL0     C26898   1.017  10.309   9.824  0.2680  0.4363 -0.0446
  962MOL0     O26899   0.885  10.547  10.110  0.0909 -0.9285 -0.6914
  962MOL0     C26900   0.648  10.502  10.245  0.2295  0.1954 -0.1855
  962MOL0     C26901   0.522  10.484  10.312 -0.2766 -0.2141  0.5463
  962MOL0     N26902   0.305  10.421  10.937 -0.4454 -0.4856 -0.0986
  962MOL0     N26903   0.398  10.497  10.979  0.3932  0.0725  0.4314
  962MOL0     C26904   1.371  10.184  10.513  1.0033  0.8071 -0.2968
  962MOL0     C26905   1.485  10.115  10.532 -0.3704 -0.2697  0.1793
  962MOL0     C26906   1.812   9.836  10.643  1.0450  0.2811  0.1669
  962MOL0     C26907   1.819   9.822  10.784 -0.6318  1.1796  0.2527
  962MOL0     C26908   1.942   9.755  10.834 -0.0486 -0.3077  0.9113
  962MOL0     C26909   2.046   9.708  10.750  0.1653  0.6484 -0.8180
  962MOL0     O26910   2.160   9.639  10.808 -0.4863  0.5875  0.4919
  962MOL0     C26911   2.162   9.623  10.949  0.3109 -0.5110 -0.2375
  962MOL0     C26912   2.281   9.544  11.003 -0.1064  0.4069 -0.1398
  962MOL0     C26913   2.406   9.585  10.927 -0.0659  0.3776 -0.1445
  962MOL0     C26914   2.532   9.552  11.003  0.9351 -0.5225  0.5283
  962MOL0     C26915   2.530   9.415  11.047 -0.1507  0.2806 -0.0456
  962MOL0     C26916   2.523   9.301  11.083  0.5115 -0.0083 -0.7703
  962MOL0     C26917   2.026   9.719  10.611 -0.4834 -0.5551 -0.1597
  962MOL0     C26918   1.914   9.781  10.560  0.2066  0.9247  0.8327
  962MOL0     H26919   1.380   9.927  10.783  3.0031  1.8484  0.4316
  962MOL0     H26920   1.161  10.059  10.744 -2.2967 -2.2129 -1.8959
  962MOL0     H26921   1.157  10.321  10.369  3.6117  2.0481  0.1609
  962MOL0     H26922   1.221  10.425  10.494  1.0914 -0.4957 -2.9687
  962MOL0     H26923   0.943  10.321  10.423 -1.2545  1.3528 -1.5774
  962MOL0     H26924   0.991  10.486  10.376  2.6858  2.1907  1.3680
  962MOL0     H26925   1.017  10.562  10.604 -0.3648  0.2217  0.0090
  962MOL0     H26926   0.961  10.402  10.662 -0.7429  0.8279  0.0778
  962MOL0     H26927   0.815  10.633  10.517 -1.1678 -1.1274 -1.8642
  962MOL0     H26928   0.740  10.476  10.549 -0.3936 -0.1189  1.6127
  962MOL0     H26929   0.856  10.663  10.769  3.1240 -2.2742  0.7041
  962MOL0     H26930   0.821  10.503  10.803 -1.5136 -0.9033 -0.6825
  962MOL0     H26931   0.587  10.532  10.765  0.5889 -1.0061 -0.0536
  962MOL0     H26932   0.611  10.677  10.673 -2.6934  1.9309  2.2191
  962MOL0     H26933   0.660  10.651  10.969  0.9841  3.3244  2.3092
  962MOL0     H26934   0.665  10.801  10.879 -1.7908  1.6180 -0.5813
  962MOL0     H26935   0.424  10.815  10.887 -2.0023 -0.9502 -0.1123
  962MOL0     H26936   0.461  10.737  11.035  1.3576  1.0905 -0.1362
  962MOL0     H26937   0.230  10.678  10.757  0.6401 -1.4974 -1.3116
  962MOL0     H26938   0.030  10.469  10.811  0.1459 -2.9025  2.9002
  962MOL0     H26939   0.108  10.308  10.798  1.5674 -1.3049 -1.1120
  962MOL0     H26940   0.099  10.545  10.596 -0.8889 -0.6489 -1.4301
  962MOL0     H26941   0.031  10.389  10.575 -1.2867  2.9944 -0.3764
  962MOL0     H26942   0.331  10.464  10.583 -0.4962 -0.8282  2.2246
  962MOL0     H26943   0.282  10.287  10.566  1.3935 -0.3490  1.8609
  962MOL0     H26944   0.268  10.528  10.376  0.4578 -0.1170  0.5089
  962MOL0     H26945   0.139  10.410  10.369 -0.3519  2.2145 -0.7299
  962MOL0     H26946   0.480  10.162  10.217  0.5978 -0.6036  1.2544
  962MOL0     H26947   0.708  10.195  10.132  0.2467  1.4327 -2.3436
  962MOL0     H26948   1.164  10.381  10.125 -0.1734 -0.6381 -0.8120
  962MOL0     H26949   1.346  10.435   9.962 -1.8292  4.0715  1.2054
  962MOL0     H26950   1.302  10.437   9.513  3.1491  1.9549  0.3213
  962MOL0     H26951   1.304  10.253   9.546  0.5372 -0.6784  0.2818
  962MOL0     H26952   1.550  10.280   9.553  2.2447  0.9225 -2.7835
  962MOL0     H26953   1.523  10.433   9.472 -0.4550  0.1864  0.0134
  962MOL0     H26954   1.403  10.304   9.285 -3.4604 -2.7163  0.8255
  962MOL0     H26955   1.440  10.162   9.390 -0.0333 -0.3454  0.9530
  962MOL0     H26956   1.648  10.370   9.267 -1.1167 -0.6756 -1.4616
  962MOL0     H26957   1.695  10.232   9.351  2.2658  1.1075 -1.4750
  962MOL0     H26958   1.554  10.228   9.082  1.0513 -1.5958 -1.7434
  962MOL0     H26959   1.599  10.096   9.186 -3.2353  0.6396 -0.2866
  962MOL0     H26960   1.777  10.118   9.027 -0.2370 -2.0308  2.3187
  962MOL0     H26961   1.832  10.184   9.184 -2.2783  0.2680  1.0959
  962MOL0     H26962   1.799  10.310   8.913  1.0759 -1.0981  0.4092
  962MOL0     H26963   1.687  10.376   9.037  0.9584  1.0506  2.4948
  962MOL0     H26964   2.000  10.370   9.054  1.8382  2.8064 -1.7369
  962MOL0     H26965   1.884  10.431   9.170 -2.0431 -2.2041  0.0264
  962MOL0     H26966   1.113  10.284   9.638 -1.9137  1.3089 -0.0697
  962MOL0     H26967   0.924  10.285   9.773  0.9552  0.6037 -1.4404
  962MOL0     H26968   0.684  10.604  10.247 -0.9313  0.6302 -0.9078
  962MOL0     H26969   0.486  10.566  10.373 -0.1438 -0.6514  1.2167
  962MOL0     H26970   1.372  10.255  10.431 -0.8798  0.3648 -0.7494
  962MOL0     H26971   1.575  10.149  10.482 -2.0977  1.4098 -2.0415
  962MOL0     H26972   1.740   9.849  10.853 -0.4168 -1.8136  1.8348
  962MOL0     H26973   1.959   9.760  10.942  1.7996 -0.2573  0.6548
  962MOL0     H26974   2.075   9.571  10.990  0.7637 -0.5213  0.7353
  962MOL0     H26975   2.156   9.720  11.001 -2.9951 -1.9019  2.3375
  962MOL0     H26976   2.297   9.546  11.111 -0.5133 -0.8956 -0.0368
  962MOL0     H26977   2.258   9.441  10.973  1.0508  0.7740 -2.4907
  962MOL0     H26978   2.405   9.694  10.917 -2.2870  0.6999  2.4454
  962MOL0     H26979   2.417   9.547  10.825  3.3268  2.0003 -0.5360
  962MOL0     H26980   2.612   9.572  10.932 -2.5018  2.4116 -2.9391
  962MOL0     H26981   2.552   9.634  11.072  1.0407  0.4894 -0.6841
  962MOL0     H26982   2.536   9.203  11.125  0.9835  0.3794  0.0221
  962MOL0     H26983   2.093   9.665  10.544  1.3058  2.1974 -0.7633
  962MOL0     H26984   1.902   9.791  10.452  3.3637  0.2650  0.3215
  963MOL0     O26985   3.580   4.443   1.496  0.3866  0.1038 -0.6197
  963MOL0     C26986   3.606   4.388   1.608  0.1371 -0.7598  0.4466
  963MOL0     O26987   3.514   4.327   1.687 -0.1733  0.0545  0.0814
  963MOL0     C26988   3.383   4.315   1.653  0.1150 -0.6190  0.3852
  963MOL0     C26989   3.284   4.329   1.755  0.5147  0.1244 -0.3873
  963MOL0     C26990   3.145   4.313   1.733 -0.6036  0.1315 -0.1200
  963MOL0     C26991   3.103   4.269   1.604  0.5481 -0.4315 -0.2587
  963MOL0     O26992   2.968   4.248   1.564 -0.1930  0.3727  0.3324
  963MOL0     C26993   2.856   4.293   1.654  0.1488 -0.3308  0.7966
  963MOL0     C26994   2.740   4.192   1.661 -0.9002  0.7548  0.1743
  963MOL0     C26995   2.786   4.044   1.661 -0.3769 -0.1839 -0.1412
  963MOL0     C26996   2.654   3.946   1.649 -0.4256 -0.7196 -1.0051
  963MOL0     C26997   2.597   3.921   1.507  0.6258 -0.2766 -0.6501
  963MOL0     C26998   2.703   3.883   1.408  0.1655  0.2626 -0.4039
  963MOL0     C26999   2.652   3.822   1.280 -0.5530  0.4446 -1.7869
  963MOL0     C27000   2.743   3.838   1.150  0.5483  0.5845  1.1642
  963MOL0     N27001   2.881   3.775   1.176 -0.3164 -0.3025  0.1314
  963MOL0     C27002   2.993   3.850   1.202  0.4145 -0.7852  0.7160
  963MOL0     C27003   3.102   3.766   1.197  0.1290  0.2131  0.2991
  963MOL0     C27004   3.251   3.814   1.216  0.6789 -0.0999 -0.8262
  963MOL0     C27005   3.275   3.821   1.369 -0.4951  0.5543  0.3554
  963MOL0     C27006   3.384   3.914   1.393  0.0856 -0.1895 -0.1207
  963MOL0     C27007   3.425   3.908   1.539 -0.5416  0.3141 -0.3172
  963MOL0     O27008   3.529   4.012   1.539  0.3170  0.5721 -0.1180
  963MOL0     C27009   3.647   3.987   1.614  0.3948  0.0980  0.0816
  963MOL0     C27010   3.655   3.934   1.751  0.5845  0.0740 -0.2361
  963MOL0     C27011   3.779   3.903   1.801 -0.3003 -0.6095  0.4681
  963MOL0     C27012   3.904   3.938   1.736  0.1826  0.7834  0.4666
  963MOL0     C27013   4.036   3.912   1.800 -0.5456  0.2720  1.3599
  963MOL0     O27014   4.046   3.896   1.936  0.3141 -0.1819 -0.5391
  963MOL0     C27015   4.164   3.874   2.009 -0.0626 -0.5399 -0.0762
  963MOL0     C27016   4.296   3.856   1.971 -0.7643 -1.1466  0.1619
  963MOL0     C27017   4.410   3.848   2.054  1.3090 -0.9784 -0.6881
  963MOL0     C27018   4.395   3.887   2.191 -0.9170 -0.1992 -0.1310
  963MOL0     O27019   4.502   3.880   2.277 -0.0108 -0.7635 -0.1392
  963MOL0     C27020   4.636   3.838   2.231  1.1918 -0.1160  0.1509
  963MOL0     C27021   4.717   3.843   2.359  0.1506 -0.3121 -0.6903
  963MOL0     C27022   4.678   3.730   2.448 -0.1978 -0.7977 -0.0825
  963MOL0     C27023   4.772   3.709   2.567  1.0594  0.5454 -0.1823
  963MOL0     C27024   4.747   3.570   2.633 -0.0171  0.2045  0.7864
  963MOL0     C27025   4.603   3.553   2.685 -0.1216  0.3217 -0.7377
  963MOL0     C27026   4.614   3.474   2.820 -0.4536  0.3299 -0.2448
  963MOL0     C27027   4.593   3.324   2.792 -0.0041  0.0560 -0.2961
  963MOL0    Cl27028   4.625   3.232   2.951 -0.5031 -0.0417  0.1686
  963MOL0     C27029   4.267   3.919   2.233  0.6625 -0.3754  0.3975
  963MOL0     C27030   4.149   3.898   2.154  0.2920 -0.4667 -0.0677
  963MOL0     O27031   4.135   3.915   1.720 -0.1906 -0.1476  0.1153
  963MOL0     C27032   3.894   4.002   1.614  1.1677  0.5170  0.9936
  963MOL0     C27033   3.768   4.027   1.547 -0.0768 -0.0837 -1.1780
  963MOL0     N27034   3.053   3.639   1.160 -0.1270 -0.3434  0.5819
  963MOL0     N27035   2.924   3.644   1.149 -0.1982  0.0473  0.1561
  963MOL0     C27036   3.205   4.265   1.504  0.4441 -1.2513  0.4956
  963MOL0     C27037   3.344   4.272   1.525 -0.1133  0.9047  0.4373
  963MOL0     C27038   3.743   4.385   1.655 -0.1706  0.4159  1.1196
  963MOL0     C27039   3.793   4.289   1.741  0.9086 -0.2946 -0.3888
  963MOL0     C27040   3.928   4.299   1.786 -0.4269 -0.2283 -0.2745
  963MOL0     C27041   4.015   4.402   1.738 -0.6532  0.2901  0.5336
  963MOL0     O27042   4.140   4.425   1.778  0.4906  0.2468  0.1060
  963MOL0     C27043   4.215   4.311   1.818 -1.1213  1.0354 -0.3834
  963MOL0     C27044   4.365   4.322   1.782  0.0916  0.1499  0.4991
  963MOL0     C27045   4.447   4.189   1.822  0.7637  0.2762 -0.1656
  963MOL0     C27046   4.601   4.201   1.805  0.1337 -0.1094 -0.7803
  963MOL0     C27047   4.631   4.167   1.661  0.3627 -0.0402  0.8348
  963MOL0     C27048   4.640   4.150   1.538  1.2253  0.3874 -1.0952
  963MOL0     C27049   3.951   4.501   1.662  0.6904 -0.2323 -0.2822
  963MOL0     C27050   3.818   4.494   1.615  0.0794 -0.0967  0.7329
  963MOL0     H27051   3.320   4.344   1.857  0.0998 -1.2047 -0.0240
  963MOL0     H27052   3.086   4.335   1.821  1.1182  3.2875  0.4264
  963MOL0     H27053   2.822   4.388   1.613  2.5854  0.1926 -0.1774
  963MOL0     H27054   2.901   4.322   1.749  1.3279  0.4113  0.0420
  963MOL0     H27055   2.680   4.197   1.570  1.1335 -0.0729 -1.2699
  963MOL0     H27056   2.687   4.213   1.755  0.3487  1.9400  0.6425
  963MOL0     H27057   2.854   4.027   1.745 -0.1273  2.3695  0.2370
  963MOL0     H27058   2.843   4.027   1.570  0.3749  1.7922 -0.0928
  963MOL0     H27059   2.683   3.846   1.684  0.8500  0.1035  0.4006
  963MOL0     H27060   2.585   3.984   1.725  1.4415  0.8847 -0.0340
  963MOL0     H27061   2.538   4.008   1.475 -1.2643 -0.0590  2.8620
  963MOL0     H27062   2.532   3.833   1.518  0.5747 -0.0888  0.6737
  963MOL0     H27063   2.771   3.817   1.463 -0.6641  0.9510  1.5693
  963MOL0     H27064   2.753   3.974   1.374 -0.9536  0.6586 -1.0443
  963MOL0     H27065   2.635   3.717   1.306  0.5992  0.1178 -2.2765
  963MOL0     H27066   2.553   3.858   1.252 -0.1554  0.8459 -2.7309
  963MOL0     H27067   2.747   3.943   1.120 -0.6915  0.5233  0.7245
  963MOL0     H27068   2.689   3.793   1.065 -0.8351  3.5765  0.3378
  963MOL0     H27069   2.992   3.957   1.214 -3.8087 -0.5323 -0.5345
  963MOL0     H27070   3.267   3.913   1.171 -3.4104  0.7281 -0.8356
  963MOL0     H27071   3.315   3.740   1.166  0.4764 -1.4773  0.8620
  963MOL0     H27072   3.310   3.725   1.408  4.5855  0.7272 -2.9168
  963MOL0     H27073   3.183   3.852   1.421 -0.8635 -0.8942  0.6040
  963MOL0     H27074   3.469   3.876   1.336  1.6905  0.4214  1.7736
  963MOL0     H27075   3.351   4.016   1.370 -0.8620  0.6034  4.0626
  963MOL0     H27076   3.464   3.807   1.555 -1.7642 -0.2158 -0.5350
  963MOL0     H27077   3.345   3.928   1.611  0.8481 -0.0223  1.3658
  963MOL0     H27078   3.558   3.913   1.795  0.5196  0.9560  0.0565
  963MOL0     H27079   3.778   3.838   1.888 -0.5936 -3.6302 -1.6242
  963MOL0     H27080   4.301   3.858   1.862 -0.1935  2.6061  0.1500
  963MOL0     H27081   4.503   3.812   2.013 -0.0520 -2.7062 -2.4574
  963MOL0     H27082   4.672   3.919   2.166  0.1946 -0.6079 -1.0593
  963MOL0     H27083   4.642   3.739   2.184 -0.8372 -0.3518  0.2811
  963MOL0     H27084   4.700   3.935   2.416 -0.7228 -1.5586  1.2010
  963MOL0     H27085   4.823   3.841   2.335  1.0747  4.8266  1.6241
  963MOL0     H27086   4.684   3.642   2.383 -0.8572 -2.1188  1.5692
  963MOL0     H27087   4.576   3.749   2.481  0.6046  2.0900  1.0122
  963MOL0     H27088   4.880   3.707   2.548  1.1795 -1.5025  0.5244
  963MOL0     H27089   4.742   3.795   2.628  0.1232  0.0971  0.0053
  963MOL0     H27090   4.824   3.567   2.711  0.1570 -1.4227  0.5979
  963MOL0     H27091   4.771   3.490   2.562  0.4325  1.1033 -0.0994
  963MOL0     H27092   4.536   3.496   2.620  2.0887 -2.8131 -0.4804
  963MOL0     H27093   4.545   3.644   2.702  0.2411  0.1466  1.7301
  963MOL0     H27094   4.700   3.506   2.880  0.7287 -0.6747 -1.3420
  963MOL0     H27095   4.529   3.507   2.880  1.7451 -0.2182  3.5545
  963MOL0     H27096   4.653   3.290   2.706 -1.8567 -2.6144 -0.6925
  963MOL0     H27097   4.488   3.298   2.773  0.3120 -0.6335 -1.1970
  963MOL0     H27098   4.263   3.937   2.340  1.9001 -1.8647  0.7227
  963MOL0     H27099   4.050   3.914   2.196  1.1070  0.2607  1.6490
  963MOL0     H27100   3.974   4.058   1.567 -1.3878  3.4232 -0.1941
  963MOL0     H27101   3.758   4.083   1.455 -2.8085 -1.0631 -1.5832
  963MOL0     H27102   3.174   4.249   1.402 -2.0445  0.9264  0.8076
  963MOL0     H27103   3.411   4.245   1.445  1.1377 -0.3294  1.8347
  963MOL0     H27104   3.729   4.214   1.785  0.2981 -1.0683 -2.4689
  963MOL0     H27105   3.962   4.234   1.865  0.0715 -0.1596 -0.4272
  963MOL0     H27106   4.171   4.218   1.779 -0.7394 -0.1101  1.7618
  963MOL0     H27107   4.200   4.305   1.926 -3.6064 -0.2016 -0.7273
  963MOL0     H27108   4.385   4.347   1.678  1.7737 -0.9314  0.5097
  963MOL0     H27109   4.398   4.410   1.840 -1.2486  2.0188 -1.4325
  963MOL0     H27110   4.417   4.098   1.769  2.3019  0.8823 -2.2005
  963MOL0     H27111   4.426   4.171   1.928 -0.1006  0.1611 -0.3527
  963MOL0     H27112   4.631   4.305   1.820  0.5670 -0.6726  3.1424
  963MOL0     H27113   4.670   4.143   1.867  2.0033  3.3707  0.6967
  963MOL0     H27114   4.643   4.128   1.434  0.9858  0.5823 -1.1430
  963MOL0     H27115   3.999   4.592   1.627  4.2133 -0.4888  3.1103
  963MOL0     H27116   3.765   4.580   1.576  0.3984 -0.0865  0.3149
  964MOL0     O27117   2.581  10.539   9.226 -0.3172  0.4731 -1.1098
  964MOL0     C27118   2.676  10.462   9.187  0.0165 -0.4538 -0.1745
  964MOL0     O27119   2.700  10.420   9.058  0.4723  0.0010 -1.2060
  964MOL0     C27120   2.599  10.444   8.972  0.7093  0.3721 -0.6937
  964MOL0     C27121   2.538  10.334   8.915 -0.4122  0.9904 -0.3359
  964MOL0     C27122   2.427  10.346   8.838 -0.1393 -0.0288 -0.6674
  964MOL0     C27123   2.363  10.471   8.807  0.1663 -0.5765 -0.7502
  964MOL0     O27124   2.240  10.477   8.732 -0.1227 -0.3720  0.1417
  964MOL0     C27125   2.171  10.355   8.710 -0.2927  1.0899  0.4756
  964MOL0     C27126   2.031  10.382   8.636 -0.2982 -0.2536 -0.0096
  964MOL0     C27127   2.047  10.498   8.519 -0.0780  0.1883 -0.3010
  964MOL0     C27128   1.904  10.515   8.450  0.1577  0.7601 -0.4613
  964MOL0     C27129   1.837  10.636   8.521  0.1867 -0.7577 -0.6049
  964MOL0     C27130   1.690  10.659   8.471 -0.4096 -0.0221  0.2312
  964MOL0     C27131   1.611  10.738   8.567 -0.3681  0.4993 -0.6051
  964MOL0     C27132   1.649  10.887   8.557 -0.8931  0.2510 -0.9620
  964MOL0     N27133   1.564  10.983   8.637  0.0156  0.0062 -0.6463
  964MOL0     C27134   1.593  11.049   8.749 -0.5942  0.2149 -0.6141
  964MOL0     C27135   1.490  11.116   8.790  0.2753 -0.3582 -0.5340
  964MOL0     C27136   1.470  11.199   8.907 -0.3315 -0.1575 -0.2330
  964MOL0     C27137   1.423  11.106   9.018  0.4439  0.0131  0.7088
  964MOL0     C27138   1.457  11.157   9.155 -0.3019  0.0075  0.2241
  964MOL0     C27139   1.373  11.285   9.202  0.8167 -0.1860  0.6976
  964MOL0     O27140   1.411  11.334   9.332  0.1007 -0.8343  0.1644
  964MOL0     C27141   1.347  11.436   9.401  0.5122 -0.2050  0.0974
  964MOL0     C27142   1.230  11.505   9.352  0.0566 -0.1577 -0.1412
  964MOL0     C27143   1.161  11.599   9.434 -0.2910  0.1323  0.3372
  964MOL0     C27144   1.207  11.620   9.566  0.1744  0.6635 -0.8832
  964MOL0     C27145   1.126  11.704   9.666 -0.3433 -0.6539 -0.0966
  964MOL0     O27146   1.015  11.773   9.627  0.1212  0.2141 -0.4786
  964MOL0     C27147   0.929  11.804   9.731 -1.1823 -1.5344 -0.2542
  964MOL0     C27148   0.909  11.935   9.745 -0.3338 -0.7689 -0.2918
  964MOL0     C27149   0.839  11.990   9.852 -0.4565 -0.5359 -0.5789
  964MOL0     C27150   0.770  11.910   9.935 -0.1913  0.5822 -0.1973
  964MOL0     O27151   0.700  11.947  10.041  0.3222  1.1167 -0.1845
  964MOL0     C27152   0.754  11.911  10.162  0.3077 -0.1414 -0.2039
  964MOL0     C27153   0.671  11.991  10.273  0.7637  0.3592  1.0264
  964MOL0     C27154   0.747  11.973  10.406  0.3741 -0.0911 -0.4846
  964MOL0     C27155   0.655  12.040  10.515 -0.4474  0.6900 -0.6581
  964MOL0     C27156   0.714  12.023  10.661 -0.1719 -0.6601  0.2423
  964MOL0     C27157   0.642  12.121  10.753  0.1578 -0.5164 -0.3993
  964MOL0     C27158   0.716  12.105  10.896  0.3986 -0.0673 -0.2370
  964MOL0     C27159   0.647  12.183  10.999  0.5968  0.6448 -0.2430
  964MOL0    Cl27160   0.725  12.146  11.155  0.1948 -0.4124 -0.2584
  964MOL0     C27161   0.778  11.770   9.912  0.4183 -0.4775 -0.2074
  964MOL0     C27162   0.864  11.720   9.820 -0.5273  0.1680  0.0609
  964MOL0     O27163   1.167  11.703   9.781 -0.8051 -0.2963  0.1585
  964MOL0     C27164   1.322  11.552   9.615 -0.6686  0.4883 -0.5985
  964MOL0     C27165   1.392  11.464   9.530  0.2984  1.0658  0.2790
  964MOL0     N27166   1.389  11.091   8.701  1.1871  0.7353  0.3467
  964MOL0     N27167   1.430  10.999   8.617  0.0363 -0.3535 -0.3273
  964MOL0     C27168   2.438  10.584   8.849 -0.2634 -0.1401  1.0816
  964MOL0     C27169   2.548  10.567   8.937  0.1288  0.0180  0.5128
  964MOL0     C27170   2.784  10.443   9.287 -0.5405  1.1528  0.0828
  964MOL0     C27171   2.800  10.526   9.398 -0.4647  0.4830 -0.5268
  964MOL0     C27172   2.920  10.521   9.472  0.1471 -0.2035 -0.2583
  964MOL0     C27173   3.023  10.432   9.443  0.1376 -0.0003  0.2323
  964MOL0     O27174   3.142  10.429   9.504 -0.0437 -0.5921  0.0632
  964MOL0     C27175   3.169  10.535   9.606 -0.8287  0.2702 -0.5380
  964MOL0     C27176   3.315  10.530   9.631  0.3252 -0.1368  0.6588
  964MOL0     C27177   3.414  10.574   9.521 -0.3904 -0.0285  0.3490
  964MOL0     C27178   3.559  10.588   9.584 -0.9003  0.1275  0.0459
  964MOL0     C27179   3.667  10.614   9.491 -0.0874 -0.2653  0.3560
  964MOL0     C27180   3.748  10.656   9.410  0.5308 -0.1426 -0.1001
  964MOL0     C27181   3.006  10.342   9.336 -0.3680  0.1917  0.5969
  964MOL0     C27182   2.893  10.348   9.258  0.0370  0.2186  0.7152
  964MOL0     H27183   2.571  10.232   8.932 -2.8847  0.4251  1.5639
  964MOL0     H27184   2.375  10.258   8.802 -0.6022 -0.3598  0.7392
  964MOL0     H27185   2.149  10.301   8.803  1.2525  2.6470  1.8283
  964MOL0     H27186   2.232  10.296   8.641 -0.5429  0.7069  0.5757
  964MOL0     H27187   1.959  10.408   8.715 -0.4125  1.2482 -0.5826
  964MOL0     H27188   1.991  10.291   8.590  2.3584 -0.0957 -2.9034
  964MOL0     H27189   2.119  10.452   8.450 -1.0199 -2.9515  0.6056
  964MOL0     H27190   2.096  10.591   8.550  0.7653  0.0651 -1.2041
  964MOL0     H27191   1.919  10.534   8.344 -0.1221  0.0932 -0.6262
  964MOL0     H27192   1.844  10.424   8.459 -0.0854  0.9335 -0.3169
  964MOL0     H27193   1.903  10.722   8.509  3.0436 -2.5943  0.8786
  964MOL0     H27194   1.837  10.609   8.627  1.5523  0.5170 -0.2394
  964MOL0     H27195   1.629  10.569   8.480 -0.2533 -0.0528  1.0331
  964MOL0     H27196   1.699  10.690   8.366  2.9134  1.3634  0.8185
  964MOL0     H27197   1.505  10.730   8.541 -1.6931  4.1424  2.6124
  964MOL0     H27198   1.626  10.704   8.670  1.8520  3.0329  0.0459
  964MOL0     H27199   1.632  10.919   8.454  0.1851 -0.8730 -1.5011
  964MOL0     H27200   1.754  10.905   8.580 -0.9262 -0.8519  0.1850
  964MOL0     H27201   1.692  11.045   8.795  0.5828  0.1253 -2.9859
  964MOL0     H27202   1.405  11.286   8.891 -0.7171 -0.2119  0.9534
  964MOL0     H27203   1.573  11.232   8.924 -0.0166 -0.3087 -1.6914
  964MOL0     H27204   1.462  11.005   9.004  1.4966  0.5561 -0.4988
  964MOL0     H27205   1.314  11.096   9.014  0.4814 -0.3028  0.5169
  964MOL0     H27206   1.436  11.075   9.224  1.6862 -0.5748  0.2057
  964MOL0     H27207   1.560  11.193   9.162 -0.9983  1.8698  2.0584
  964MOL0     H27208   1.272  11.245   9.199  0.2820  1.1558 -1.8865
  964MOL0     H27209   1.364  11.364   9.127 -0.1512 -0.7737  0.1791
  964MOL0     H27210   1.190  11.480   9.254  1.7424  0.6255 -1.0823
  964MOL0     H27211   1.072  11.645   9.395 -0.1755 -0.9488 -1.3187
  964MOL0     H27212   0.952  11.997   9.667  0.7030  0.0446  0.8969
  964MOL0     H27213   0.826  12.096   9.870  1.1980 -0.3957  0.0029
  964MOL0     H27214   0.857  11.947  10.166  0.5128 -0.1640 -3.1260
  964MOL0     H27215   0.747  11.804  10.184  0.7612 -0.2789 -0.7165
  964MOL0     H27216   0.566  11.960  10.276  0.2449  1.9360  0.2794
  964MOL0     H27217   0.677  12.098  10.251  6.0156  0.0645 -0.3195
  964MOL0     H27218   0.841  12.028  10.402  1.2415 -1.5008 -0.2340
  964MOL0     H27219   0.770  11.869  10.431 -0.9474 -0.2466  0.1583
  964MOL0     H27220   0.644  12.146  10.492 -1.4361  1.1851  1.7526
  964MOL0     H27221   0.561  11.983  10.515  1.1490 -2.2054  1.4088
  964MOL0     H27222   0.819  12.054  10.666 -0.5685  0.5736  3.6533
  964MOL0     H27223   0.704  11.917  10.686 -0.4348 -1.3844 -2.6695
  964MOL0     H27224   0.537  12.093  10.767  0.4173 -4.9130 -4.4833
  964MOL0     H27225   0.649  12.225  10.720  1.4669 -0.6918 -0.7555
  964MOL0     H27226   0.725  12.001  10.928 -0.1710  0.2078  0.8486
  964MOL0     H27227   0.812  12.157  10.885 -1.1220  2.9322 -0.4362
  964MOL0     H27228   0.539  12.168  11.003  0.5853  0.8317  0.3766
  964MOL0     H27229   0.665  12.289  10.982  3.6134  0.1619 -0.7639
  964MOL0     H27230   0.729  11.697   9.976 -0.6195  0.4697  0.1089
  964MOL0     H27231   0.870  11.611   9.815 -2.9784  0.0402 -1.7662
  964MOL0     H27232   1.374  11.571   9.708 -0.9888  2.2443 -0.7391
  964MOL0     H27233   1.484  11.422   9.570  0.2433 -1.5951 -2.0981
  964MOL0     H27234   2.425  10.687   8.819  3.7219 -0.2193 -1.6833
  964MOL0     H27235   2.589  10.659   8.978  0.6560 -0.1568  0.3841
  964MOL0     H27236   2.726  10.601   9.424 -2.6965 -2.2520  1.6718
  964MOL0     H27237   2.922  10.593   9.553  0.7216 -0.3725 -0.1217
  964MOL0     H27238   3.127  10.505   9.702  2.1352 -1.2167  0.4411
  964MOL0     H27239   3.139  10.632   9.565  0.5772  0.8225 -0.3438
  964MOL0     H27240   3.331  10.581   9.726 -0.3249 -1.1668  1.3372
  964MOL0     H27241   3.350  10.430   9.657  0.6581  0.0688  1.0135
  964MOL0     H27242   3.384  10.668   9.474 -0.9018  0.0184  0.7537
  964MOL0     H27243   3.416  10.499   9.442  1.0601  0.6144 -0.2512
  964MOL0     H27244   3.555  10.663   9.664  0.9107 -0.6256  0.8857
  964MOL0     H27245   3.593  10.495   9.630  1.3164  0.8057 -0.0909
  964MOL0     H27246   3.810  10.706   9.339 -2.2666  0.3380 -2.4092
  964MOL0     H27247   3.092  10.279   9.316  0.4963  1.5221  0.0019
  964MOL0     H27248   2.892  10.297   9.162 -1.1697  3.2881 -1.0572
  965MOL0     O27249   2.134  11.227   9.325  0.0433  1.1416 -0.1879
  965MOL0     C27250   2.124  11.263   9.208  0.3096  0.0420 -0.9961
  965MOL0     O27251   2.017  11.243   9.126 -0.3480  0.2629 -0.1079
  965MOL0     C27252   1.917  11.155   9.159 -1.2075  0.0733  0.3931
  965MOL0     C27253   1.859  11.152   9.287 -0.9788  0.6080 -0.0137
  965MOL0     C27254   1.762  11.058   9.308  0.2101  0.8208  1.1281
  965MOL0     C27255   1.733  10.960   9.212 -0.2518 -0.4733  0.5050
  965MOL0     O27256   1.641  10.868   9.249  0.0241 -0.3335 -0.4180
  965MOL0     C27257   1.608  10.761   9.167 -0.5562 -0.4029 -0.2515
  965MOL0     C27258   1.485  10.702   9.222  0.7341 -0.2546  0.7388
  965MOL0     C27259   1.449  10.585   9.124 -0.5224 -0.4680 -1.1446
  965MOL0     C27260   1.416  10.621   8.985 -0.8441  0.2036  0.1597
  965MOL0     C27261   1.318  10.524   8.915  0.0183  0.6374  0.2094
  965MOL0     C27262   1.289  10.578   8.781  0.2430 -0.0675  1.3881
  965MOL0     C27263   1.214  10.484   8.680  0.0709  0.6637 -0.4017
  965MOL0     C27264   1.071  10.457   8.725  0.2887 -0.1843  0.8618
  965MOL0     N27265   0.998  10.342   8.660 -0.8057 -0.5327  0.3304
  965MOL0     C27266   0.897  10.350   8.571  0.7449  1.0545 -0.6430
  965MOL0     C27267   0.839  10.217   8.554  0.2947 -0.1531 -0.3514
  965MOL0     C27268   0.715  10.179   8.478 -0.1902  0.1670 -0.4926
  965MOL0     C27269   0.599  10.269   8.526 -0.0236 -0.6056  0.1763
  965MOL0     C27270   0.540  10.216   8.659 -0.1299 -0.2669  0.0795
  965MOL0     C27271   0.450  10.095   8.623 -0.3611  0.6113  0.1921
  965MOL0     O27272   0.332  10.136   8.548 -0.1849  0.1954 -0.0450
  965MOL0     C27273   0.222  10.201   8.617  0.2361  0.3230  0.5697
  965MOL0     C27274   0.171  10.147   8.725  0.4544 -0.3404  0.2465
  965MOL0     C27275   0.063  10.210   8.783 -0.2008  0.4389 -0.2009
  965MOL0     C27276   0.006  10.323   8.717 -0.2000 -0.3517 -0.2024
  965MOL0     C27277  -0.109  10.385   8.776 -0.1200 -0.1360  0.3769
  965MOL0     O27278  -0.184  10.297   8.847  0.9251 -0.2437 -0.2685
  965MOL0     C27279  -0.302  10.348   8.912 -2.2332  1.3629  0.5321
  965MOL0     C27280  -0.311  10.332   9.049  0.0953 -0.2404 -0.0107
  965MOL0     C27281  -0.432  10.354   9.116 -0.8572 -0.2100 -0.1768
  965MOL0     C27282  -0.542  10.416   9.049  0.4782 -0.1252 -0.7227
  965MOL0     O27283  -0.652  10.463   9.123  0.6402 -0.7760 -0.3621
  965MOL0     C27284  -0.780  10.450   9.066  0.1112  0.2181  0.4088
  965MOL0     C27285  -0.890  10.513   9.169 -0.0833  0.5143  0.6147
  965MOL0     C27286  -0.919  10.409   9.286 -0.2096 -0.4369  0.6767
  965MOL0     C27287  -1.033  10.454   9.372  0.2135  0.3913 -0.0498
  965MOL0     C27288  -1.067  10.347   9.477  0.8728 -0.8666  0.1617
  965MOL0     C27289  -1.160  10.396   9.584 -0.5077  0.4335 -0.2071
  965MOL0     C27290  -1.307  10.395   9.539  0.0421  0.0461  1.1378
  965MOL0     C27291  -1.403  10.447   9.637 -0.5110 -0.3099  0.1233
  965MOL0    Cl27292  -1.376  10.619   9.678  0.3005  0.2418  0.3873
  965MOL0     C27293  -0.512  10.460   8.916 -0.2904 -0.5293 -0.1633
  965MOL0     C27294  -0.397  10.407   8.847 -0.6518  0.4386  0.2885
  965MOL0     O27295  -0.138  10.509   8.763  0.2372 -0.8975  0.2437
  965MOL0     C27296   0.074  10.385   8.610  0.7267  0.0145 -0.2200
  965MOL0     C27297   0.181  10.318   8.556  0.8446  0.6393  0.6200
  965MOL0     N27298   0.917  10.137   8.636 -0.1516 -0.1657 -0.0583
  965MOL0     N27299   1.003  10.211   8.699  0.6813 -0.7088  0.1034
  965MOL0     C27300   1.805  10.954   9.091 -0.0350 -0.2560  0.0888
  965MOL0     C27301   1.896  11.052   9.061 -0.2220  0.1010 -0.3773
  965MOL0     C27302   2.232  11.337   9.143  0.0892  0.0819 -0.2840
  965MOL0     C27303   2.204  11.437   9.057 -0.2284 -0.0227  0.6731
  965MOL0     C27304   2.299  11.522   9.007  0.3524 -0.0653  0.6035
  965MOL0     C27305   2.433  11.501   9.038  0.3888  0.0322  0.0738
  965MOL0     O27306   2.518  11.591   8.979 -0.9487 -0.0792  0.7567
  965MOL0     C27307   2.662  11.570   8.970 -0.4314  0.5597  0.7095
  965MOL0     C27308   2.697  11.455   8.876  0.6098 -0.3991 -0.2474
  965MOL0     C27309   2.848  11.444   8.873 -0.8616  0.8161  0.5365
  965MOL0     C27310   2.909  11.387   9.001 -0.1719 -0.2167  0.2052
  965MOL0     C27311   3.049  11.383   9.001 -1.2401  0.1420  0.3957
  965MOL0     C27312   3.169  11.368   9.016 -0.0953  0.4328  0.4862
  965MOL0     C27313   2.464  11.394   9.133  0.2302 -0.2647  0.8717
  965MOL0     C27314   2.366  11.314   9.185  0.6576 -0.8772 -0.2446
  965MOL0     H27315   1.878  11.217   9.372  0.6642  0.1919 -0.0294
  965MOL0     H27316   1.716  11.058   9.407  0.9474  1.2962  1.4795
  965MOL0     H27317   1.686  10.684   9.169 -2.1126 -2.0692 -0.5904
  965MOL0     H27318   1.580  10.797   9.067 -2.0112 -0.1290  0.2314
  965MOL0     H27319   1.408  10.780   9.223  0.6618 -0.3268  1.2416
  965MOL0     H27320   1.502  10.668   9.325  1.9646  1.3571  1.1015
  965MOL0     H27321   1.363  10.530   9.161  0.1823 -2.3550 -2.2061
  965MOL0     H27322   1.524  10.507   9.134  0.9434  0.9597 -0.3769
  965MOL0     H27323   1.376  10.723   8.991 -1.2683 -0.0045  1.0398
  965MOL0     H27324   1.511  10.621   8.931 -1.2479 -0.9316 -0.5815
  965MOL0     H27325   1.229  10.504   8.975 -1.4507  1.5810 -1.5763
  965MOL0     H27326   1.371  10.429   8.918  1.7292  1.5680  1.1331
  965MOL0     H27327   1.383  10.603   8.731 -1.4689  0.6847 -1.7030
  965MOL0     H27328   1.245  10.677   8.797  0.9125  0.1331  1.9941
  965MOL0     H27329   1.195  10.532   8.584 -3.7660  0.0562 -0.0965
  965MOL0     H27330   1.275  10.394   8.673  2.1819  1.8344  1.4585
  965MOL0     H27331   1.009  10.545   8.705 -0.2286 -0.7255  0.0175
  965MOL0     H27332   1.065  10.444   8.834 -0.0572 -1.4795  0.7100
  965MOL0     H27333   0.853  10.431   8.514  1.5736 -0.6906 -4.0377
  965MOL0     H27334   0.691  10.073   8.486  5.3005 -1.2177  2.0258
  965MOL0     H27335   0.744  10.186   8.373  0.0155 -0.2735 -0.4651
  965MOL0     H27336   0.520  10.284   8.452 -3.3132  2.3732  3.8046
  965MOL0     H27337   0.632  10.369   8.556 -1.9747  0.3423 -0.6541
  965MOL0     H27338   0.625  10.187   8.721  1.5548 -1.1276 -2.4707
  965MOL0     H27339   0.476  10.287   8.712  0.3500 -0.8335  1.4565
  965MOL0     H27340   0.431  10.042   8.717 -0.8140  0.2471 -0.0976
  965MOL0     H27341   0.504  10.025   8.558 -2.3450  0.4847 -1.4015
  965MOL0     H27342   0.214  10.051   8.754 -0.2526 -1.1818 -1.3222
  965MOL0     H27343   0.009  10.160   8.863  0.9568 -1.9232 -0.7811
  965MOL0     H27344  -0.222  10.302   9.103 -1.0006 -2.1088  0.8598
  965MOL0     H27345  -0.446  10.338   9.222 -0.9762  2.4362  0.2583
  965MOL0     H27346  -0.818  10.352   9.033 -1.2960  0.4164  1.3799
  965MOL0     H27347  -0.789  10.506   8.972  0.8496  0.7024  0.6234
  965MOL0     H27348  -0.983  10.537   9.118 -0.0391  0.1801  0.3793
  965MOL0     H27349  -0.857  10.610   9.209  0.5272 -0.0624  1.5634
  965MOL0     H27350  -0.835  10.396   9.355 -1.0127  1.5759  2.1171
  965MOL0     H27351  -0.949  10.316   9.236  1.5898 -0.8840  0.3544
  965MOL0     H27352  -0.996  10.549   9.410  1.3418  0.1466 -0.5148
  965MOL0     H27353  -1.132  10.469   9.327  0.0489  0.0436  0.1863
  965MOL0     H27354  -0.982  10.287   9.510  0.4536 -1.3081  0.4521
  965MOL0     H27355  -1.119  10.275   9.413  1.4296 -1.0663 -0.0771
  965MOL0     H27356  -1.134  10.501   9.599 -0.2795  0.7340 -2.3175
  965MOL0     H27357  -1.147  10.333   9.672 -0.0299 -0.5262 -0.9417
  965MOL0     H27358  -1.313  10.447   9.443  1.2577 -2.2213 -0.2722
  965MOL0     H27359  -1.351  10.296   9.526 -0.4861  0.4883 -0.7960
  965MOL0     H27360  -1.392  10.385   9.726 -0.6822 -0.2203  0.2082
  965MOL0     H27361  -1.505  10.433   9.600 -1.1759 -1.0308  2.0711
  965MOL0     H27362  -0.583  10.523   8.864  0.5083  0.4547 -0.0812
  965MOL0     H27363  -0.382  10.446   8.746 -3.1720 -1.1623 -0.8079
  965MOL0     H27364   0.047  10.475   8.554  3.2872 -0.2940 -2.1190
  965MOL0     H27365   0.240  10.345   8.470  0.8639 -2.9516 -0.6696
  965MOL0     H27366   1.786  10.882   9.012  0.1704  2.2345 -2.3875
  965MOL0     H27367   1.944  11.048   8.964  0.2561 -1.9411 -0.1019
  965MOL0     H27368   2.099  11.451   9.033 -0.5787 -0.1436  2.0687
  965MOL0     H27369   2.280  11.603   8.938  0.0547 -1.0054 -0.4539
  965MOL0     H27370   2.697  11.557   9.074  3.4680 -2.5687 -0.7134
  965MOL0     H27371   2.723  11.654   8.936  2.6373 -1.8394 -0.1621
  965MOL0     H27372   2.657  11.362   8.916  1.1573 -0.6515 -0.2813
  965MOL0     H27373   2.664  11.470   8.773 -1.4622 -0.2649  0.3934
  965MOL0     H27374   2.896  11.541   8.858 -0.2915  0.2941 -1.2212
  965MOL0     H27375   2.864  11.370   8.794  1.9019  0.2722  1.4901
  965MOL0     H27376   2.876  11.448   9.086  0.5246 -0.8139  0.9195
  965MOL0     H27377   2.873  11.285   9.019 -0.1006 -0.1022  1.0281
  965MOL0     H27378   3.275  11.355   9.020  0.3985  3.7656  1.2305
  965MOL0     H27379   2.563  11.393   9.178  0.8425 -0.9917 -0.4163
  965MOL0     H27380   2.401  11.237   9.254  2.7183 -0.8397 -1.1937
  966MOL0     O27381   2.737  10.906   7.893  0.2919 -0.0208  0.3206
  966MOL0     C27382   2.790  10.881   7.785  0.1049  0.0603  0.1686
  966MOL0     O27383   2.727  10.866   7.662 -0.4386  0.3278 -0.3574
  966MOL0     C27384   2.597  10.906   7.639  0.7994 -0.1429  1.2537
  966MOL0     C27385   2.547  10.863   7.513  0.3498  0.3329 -0.2566
  966MOL0     C27386   2.422  10.895   7.465 -0.3423  0.2821  0.1462
  966MOL0     C27387   2.337  10.978   7.531 -0.2954  0.3844  0.1343
  966MOL0     O27388   2.223  11.024   7.482 -0.1865 -0.4230 -0.0458
  966MOL0     C27389   2.172  11.137   7.552  0.0615 -0.3508  0.2368
  966MOL0     C27390   2.055  11.197   7.465 -0.5615  0.4361  0.1659
  966MOL0     C27391   1.942  11.101   7.447  0.8256  0.1604 -0.5253
  966MOL0     C27392   1.821  11.176   7.409 -0.3166 -0.5071 -0.0078
  966MOL0     C27393   1.702  11.077   7.408 -0.1875 -0.0719  0.3554
  966MOL0     C27394   1.571  11.146   7.347 -1.1081 -0.1263  0.7048
  966MOL0     C27395   1.443  11.077   7.367  0.1698  0.7723  0.2354
  966MOL0     C27396   1.329  11.179   7.370 -0.1320 -0.0295  0.2536
  966MOL0     N27397   1.198  11.110   7.373 -0.5274  0.0707  0.6393
  966MOL0     C27398   1.102  11.129   7.278  0.1496  0.0217 -0.7644
  966MOL0     C27399   1.000  11.046   7.326 -0.1389  0.0026  0.4144
  966MOL0     C27400   0.869  11.046   7.264 -0.0186 -0.0062  0.1496
  966MOL0     C27401   0.766  10.991   7.369  0.6938  0.4971  0.2630
  966MOL0     C27402   0.619  10.982   7.310 -0.0452 -0.7293  0.3674
  966MOL0     C27403   0.534  11.104   7.353  1.4130  0.5840 -0.2071
  966MOL0     O27404   0.400  11.077   7.309 -0.0603  0.1343 -0.2966
  966MOL0     C27405   0.310  11.026   7.405  0.1923 -0.3306 -0.2096
  966MOL0     C27406   0.175  11.045   7.368  0.5216 -0.1275 -0.2219
  966MOL0     C27407   0.070  11.019   7.453  0.0664  0.1782 -0.3257
  966MOL0     C27408   0.094  10.968   7.589 -0.5772  0.3320 -0.1075
  966MOL0     C27409  -0.016  10.925   7.675  0.4117 -0.0160 -0.6708
  966MOL0     O27410  -0.149  10.930   7.638  0.4265 -0.1956 -0.0948
  966MOL0     C27411  -0.255  10.889   7.723  0.2567  0.2272  0.8132
  966MOL0     C27412  -0.364  10.973   7.718 -0.0207  0.6218 -0.9815
  966MOL0     C27413  -0.474  10.938   7.799  0.1830 -1.3855  0.8429
  966MOL0     C27414  -0.471  10.825   7.888  0.4314 -0.7467  0.6837
  966MOL0     O27415  -0.581  10.807   7.970  0.2324 -0.6091  0.1096
  966MOL0     C27416  -0.562  10.721   8.083  0.2371 -0.0211 -0.4846
  966MOL0     C27417  -0.695  10.696   8.167  1.1080  0.4035 -0.9580
  966MOL0     C27418  -0.822  10.652   8.108  0.3373  0.6777  0.0592
  966MOL0     C27419  -0.937  10.640   8.209 -0.4370 -0.0953  0.3743
  966MOL0     C27420  -1.064  10.600   8.139 -0.3962  0.3571  0.0859
  966MOL0     C27421  -1.193  10.600   8.220 -1.2254 -0.2244 -0.3454
  966MOL0     C27422  -1.294  10.521   8.151  0.7571  0.2293 -0.4174
  966MOL0     C27423  -1.424  10.522   8.241  0.1816  0.4136  0.1430
  966MOL0    Cl27424  -1.547  10.400   8.197  0.0975  0.0290  0.1325
  966MOL0     C27425  -0.361  10.747   7.879 -0.2567 -0.0621  0.5735
  966MOL0     C27426  -0.253  10.770   7.791  0.3408  0.1944 -0.6038
  966MOL0     O27427   0.019  10.863   7.779  0.4398 -0.3411 -0.4596
  966MOL0     C27428   0.227  10.950   7.625 -0.0729 -0.2997  0.9079
  966MOL0     C27429   0.332  10.988   7.545  0.3450 -0.5278  0.3856
  966MOL0     N27430   1.057  10.979   7.432  0.4148 -0.6564 -0.6999
  966MOL0     N27431   1.168  11.020   7.474 -0.0034  0.8885 -0.4147
  966MOL0     C27432   2.393  11.018   7.655  0.4218 -0.4140 -0.7474
  966MOL0     C27433   2.516  10.992   7.706  1.2357 -0.1412  0.1046
  966MOL0     C27434   2.932  10.831   7.796 -0.5120  0.1828 -0.1113
  966MOL0     C27435   2.980  10.738   7.698 -0.1506 -0.8794 -0.1867
  966MOL0     C27436   3.105  10.678   7.710 -0.5702 -0.6928 -0.4987
  966MOL0     C27437   3.183  10.702   7.825 -0.3355  0.3860 -0.7405
  966MOL0     O27438   3.288  10.607   7.825 -0.3445  0.3823 -0.0569
  966MOL0     C27439   3.411  10.644   7.895  0.2482  0.2157 -0.4928
  966MOL0     C27440   3.481  10.526   7.963 -0.2899 -0.3280 -0.6861
  966MOL0     C27441   3.529  10.420   7.866  0.3401 -0.1057  0.0884
  966MOL0     C27442   3.604  10.305   7.943 -0.1697 -0.0582  0.4428
  966MOL0     C27443   3.744  10.349   7.944  0.3710  0.0996 -0.1465
  966MOL0     C27444   3.850  10.408   7.961  1.2551  0.7402  0.7690
  966MOL0     C27445   3.155  10.810   7.910 -0.0830 -0.2832  0.2094
  966MOL0     C27446   3.022  10.863   7.897  0.2533 -0.7159  0.1598
  966MOL0     H27447   2.616  10.800   7.458 -0.8114 -1.7521  0.5243
  966MOL0     H27448   2.385  10.870   7.365  2.7451 -0.9240 -0.8042
  966MOL0     H27449   2.245  11.218   7.566 -1.5200  1.2395 -0.2628
  966MOL0     H27450   2.129  11.114   7.649 -1.7940 -1.0608 -0.7119
  966MOL0     H27451   2.093  11.223   7.366 -0.8788 -2.4812 -0.8241
  966MOL0     H27452   2.018  11.280   7.526  0.8314  0.7087  0.6734
  966MOL0     H27453   1.923  11.046   7.539  0.3823  1.0208 -0.0856
  966MOL0     H27454   1.985  11.035   7.371  1.4928 -1.0650  0.8831
  966MOL0     H27455   1.814  11.258   7.482 -2.1009 -0.0956 -0.5884
  966MOL0     H27456   1.837  11.235   7.318 -0.4533  0.4294  0.5571
  966MOL0     H27457   1.673  11.054   7.511  0.4969 -0.3540  0.4913
  966MOL0     H27458   1.736  10.986   7.357  2.0043  0.9235 -0.0349
  966MOL0     H27459   1.588  11.174   7.242 -1.9632 -0.4364  0.4796
  966MOL0     H27460   1.561  11.240   7.401  0.4610  1.6188 -1.8233
  966MOL0     H27461   1.434  11.000   7.290 -1.8612  0.2936  0.9079
  966MOL0     H27462   1.451  11.020   7.460 -0.9736 -1.6147 -1.0438
  966MOL0     H27463   1.338  11.251   7.288  0.1934 -1.2371 -0.7877
  966MOL0     H27464   1.339  11.232   7.465  0.6479 -3.3343  2.1513
  966MOL0     H27465   1.105  11.194   7.191 -1.0160  0.9344 -0.1506
  966MOL0     H27466   0.876  10.987   7.173 -0.1711 -1.1783  0.8816
  966MOL0     H27467   0.849  11.148   7.228  4.4419  1.2422  0.5548
  966MOL0     H27468   0.766  11.052   7.460  3.2354 -0.0601  0.7388
  966MOL0     H27469   0.793  10.890   7.401 -2.4438 -0.0853  1.4166
  966MOL0     H27470   0.611  10.974   7.201 -2.9838 -0.9533  0.5222
  966MOL0     H27471   0.578  10.891   7.353 -0.5529 -0.6223  0.1269
  966MOL0     H27472   0.573  11.188   7.294  0.4345  0.2995 -1.3027
  966MOL0     H27473   0.548  11.124   7.459 -1.1261 -1.1716  0.5484
  966MOL0     H27474   0.157  11.078   7.266 -0.5064 -3.0474 -1.1021
  966MOL0     H27475  -0.032  11.033   7.419  0.4317  1.1009 -1.0676
  966MOL0     H27476  -0.344  11.065   7.664  2.9821 -0.6340 -2.2602
  966MOL0     H27477  -0.566  10.993   7.784  0.0329 -1.6629  0.7352
  966MOL0     H27478  -0.490  10.770   8.150  2.1984 -1.2537 -1.5896
  966MOL0     H27479  -0.521  10.623   8.055 -0.3399 -1.2862  2.6265
  966MOL0     H27480  -0.715  10.784   8.229 -1.6467 -0.0065 -1.1393
  966MOL0     H27481  -0.658  10.618   8.236 -2.5143  0.7710  1.6890
  966MOL0     H27482  -0.796  10.553   8.068  3.3613  1.6826 -0.7482
  966MOL0     H27483  -0.835  10.718   8.022  2.8361 -2.3873 -2.9810
  966MOL0     H27484  -0.914  10.563   8.283 -2.8258  0.9500  2.3250
  966MOL0     H27485  -0.948  10.732   8.267 -3.2827 -0.0317 -0.1182
  966MOL0     H27486  -1.041  10.501   8.099  0.7544  0.9186 -0.6971
  966MOL0     H27487  -1.074  10.675   8.060 -0.1946 -0.4001 -0.6818
  966MOL0     H27488  -1.232  10.702   8.215 -0.1962  0.1373 -1.5640
  966MOL0     H27489  -1.165  10.561   8.318  2.8693 -0.0557 -1.2417
  966MOL0     H27490  -1.318  10.556   8.050  5.6102 -0.5000 -2.0997
  966MOL0     H27491  -1.260  10.417   8.150  2.6565  0.7869  1.0428
  966MOL0     H27492  -1.465  10.623   8.229 -1.0842 -0.1603 -0.6272
  966MOL0     H27493  -1.389  10.493   8.340 -1.3432 -2.7296 -0.1418
  966MOL0     H27494  -0.357  10.662   7.946  2.7833  0.7819  1.6480
  966MOL0     H27495  -0.168  10.707   7.813  0.3917  1.2252  2.7836
  966MOL0     H27496   0.260  10.908   7.720  3.0794 -0.2930 -0.0849
  966MOL0     H27497   0.432  10.977   7.586 -0.8124  0.3473  3.7984
  966MOL0     H27498   2.343  11.088   7.721  1.6793  1.2204 -1.4413
  966MOL0     H27499   2.563  11.036   7.794 -0.6622  1.1461  0.5285
  966MOL0     H27500   2.910  10.715   7.618 -1.1962 -0.0907  0.4802
  966MOL0     H27501   3.135  10.609   7.632  0.9683  1.3856 -1.8510
  966MOL0     H27502   3.386  10.728   7.961  0.2224  1.3473 -1.8792
  966MOL0     H27503   3.479  10.681   7.818 -1.5321  3.5779 -0.6251
  966MOL0     H27504   3.568  10.567   8.015 -0.0790 -3.1955  1.4350
  966MOL0     H27505   3.417  10.474   8.034 -1.0884  1.9821  0.3834
  966MOL0     H27506   3.575  10.463   7.777  1.0973  0.0772  0.5503
  966MOL0     H27507   3.439  10.363   7.843  1.3891 -2.1382  0.7404
  966MOL0     H27508   3.582  10.290   8.049  0.6391 -1.5586  0.4169
  966MOL0     H27509   3.602  10.209   7.892  2.8456  0.3598 -0.6775
  966MOL0     H27510   3.938  10.466   7.983  1.0109  0.6585  2.0091
  966MOL0     H27511   3.225  10.849   7.982 -2.4756  4.8315  0.2184
  966MOL0     H27512   3.003  10.924   7.985 -3.3194 -0.1439 -0.8448
  967MOL0     O27513   7.228   5.969   9.845  0.6805 -0.1875 -0.4681
  967MOL0     C27514   7.195   6.085   9.812  0.7249  0.1192  0.1229
  967MOL0     O27515   7.082   6.151   9.857  0.8161  1.1651  0.6759
  967MOL0     C27516   7.012   6.100   9.967 -0.4984 -0.1975  0.3882
  967MOL0     C27517   7.055   6.088  10.100 -0.9670 -0.4031  0.4086
  967MOL0     C27518   6.982   6.034  10.202 -0.1805 -0.4047 -0.2759
  967MOL0     C27519   6.846   6.000  10.177  0.2350  0.4174  0.2314
  967MOL0     O27520   6.769   5.943  10.280  0.2264  0.2278  0.5023
  967MOL0     C27521   6.820   5.897  10.404 -0.4013  0.4524  0.1720
  967MOL0     C27522   6.730   5.798  10.465 -1.0654 -0.2423 -0.3308
  967MOL0     C27523   6.601   5.872  10.505 -0.3403 -0.1908  0.6101
  967MOL0     C27524   6.510   5.783  10.568  0.1659  0.5328 -0.2304
  967MOL0     C27525   6.386   5.843  10.632 -0.7728 -0.0253  0.0800
  967MOL0     C27526   6.322   5.740  10.722  0.8491 -0.0295  0.0847
  967MOL0     C27527   6.187   5.785  10.789  0.1460  0.1027  0.0340
  967MOL0     C27528   6.200   5.921  10.859  0.0964 -0.0462 -1.7399
  967MOL0     N27529   6.084   5.961  10.941  0.7631  0.8522  0.8861
  967MOL0     C27530   6.089   6.038  11.056 -0.6240 -0.0860  0.9510
  967MOL0     C27531   5.968   6.050  11.111  0.3666  0.6596  0.4390
  967MOL0     C27532   5.929   6.136  11.224 -0.4631 -0.1717 -0.0764
  967MOL0     C27533   5.942   6.079  11.370 -0.2119 -0.2766  0.3962
  967MOL0     C27534   5.859   6.169  11.464 -0.1981  0.6840 -0.3836
  967MOL0     C27535   5.709   6.150  11.465 -0.2726  0.3046  0.1848
  967MOL0     O27536   5.679   6.016  11.501  0.3943  0.5782  1.0496
  967MOL0     C27537   5.550   5.988  11.529 -0.4360  0.3702  0.2729
  967MOL0     C27538   5.493   5.868  11.473 -0.3223  0.2863  0.8425
  967MOL0     C27539   5.354   5.838  11.475 -0.1998 -0.4744 -0.7813
  967MOL0     C27540   5.279   5.919  11.563 -0.3293  0.0746 -0.1740
  967MOL0     C27541   5.143   5.877  11.581 -0.3265 -0.7329  0.9625
  967MOL0     O27542   5.105   5.750  11.544 -0.0217 -0.3665 -0.2283
  967MOL0     C27543   4.975   5.739  11.500  0.3540 -0.0224  0.5251
  967MOL0     C27544   4.895   5.638  11.553  0.1199  0.3029 -0.0345
  967MOL0     C27545   4.770   5.623  11.492  1.0277 -0.1190 -0.2961
  967MOL0     C27546   4.722   5.692  11.389 -0.1910 -0.5027 -0.4495
  967MOL0     O27547   4.591   5.669  11.339  0.4118  0.1425  0.1232
  967MOL0     C27548   4.533   5.752  11.241  0.4433  0.2980 -0.5083
  967MOL0     C27549   4.387   5.719  11.219  0.3123 -0.9144  0.2327
  967MOL0     C27550   4.287   5.782  11.324  0.4201 -1.1913 -0.2604
  967MOL0     C27551   4.144   5.715  11.305  0.6910  0.2040 -0.2094
  967MOL0     C27552   4.037   5.770  11.399 -0.0604  0.2651 -0.0851
  967MOL0     C27553   3.944   5.658  11.439  0.3145  0.8059 -0.2759
  967MOL0     C27554   3.830   5.707  11.524 -0.8532 -0.9704 -0.1360
  967MOL0     C27555   3.741   5.595  11.551 -0.0316 -0.4277  0.7547
  967MOL0    Cl27556   3.625   5.636  11.685 -0.1929 -0.1037  0.2892
  967MOL0     C27557   4.804   5.789  11.331 -0.0225 -0.0909  0.4194
  967MOL0     C27558   4.934   5.809  11.384 -0.7298 -0.0411 -0.5360
  967MOL0     O27559   5.067   5.969  11.618 -0.4362 -0.3541 -0.0130
  967MOL0     C27560   5.334   6.028  11.624 -0.0825 -0.2866  0.7453
  967MOL0     C27561   5.469   6.063  11.611 -0.5423  0.5201  0.2442
  967MOL0     N27562   5.884   5.977  11.025 -0.2928  0.1254  0.4180
  967MOL0     N27563   5.952   5.926  10.923  1.6313 -0.8911 -0.4307
  967MOL0     C27564   6.802   5.999  10.040 -0.5264 -0.2939 -0.6352
  967MOL0     C27565   6.889   6.042   9.943  0.0437  0.4375  0.4310
  967MOL0     C27566   7.277   6.139   9.705  0.5041 -0.6430  0.6800
  967MOL0     C27567   7.238   6.249   9.622 -0.6175  0.6815  0.3337
  967MOL0     C27568   7.323   6.309   9.530  0.5180 -0.0217  0.4028
  967MOL0     C27569   7.457   6.269   9.512  0.6365 -0.5252  0.5671
  967MOL0     O27570   7.537   6.310   9.407 -0.2504 -0.2522 -0.0419
  967MOL0     C27571   7.478   6.396   9.305 -0.0209  0.1564 -0.4180
  967MOL0     C27572   7.593   6.482   9.241  0.6122 -0.8260  0.1094
  967MOL0     C27573   7.673   6.398   9.141 -0.7198  0.4949  0.1614
  967MOL0     C27574   7.776   6.480   9.066 -1.3169  0.4116  0.0945
  967MOL0     C27575   7.900   6.399   9.050 -0.2192 -0.1660 -0.3594
  967MOL0     C27576   7.996   6.326   9.026  0.4356 -0.3288  0.4720
  967MOL0     C27577   7.498   6.161   9.585  0.4515  0.0687 -0.9107
  967MOL0     C27578   7.415   6.103   9.688  0.0428  0.0428 -0.5074
  967MOL0     H27579   7.152   6.125  10.130 -2.0449  3.9636 -0.7550
  967MOL0     H27580   7.021   6.028  10.303  2.7891 -0.2500 -1.3332
  967MOL0     H27581   6.835   5.980  10.474 -3.5193 -0.9623  2.8222
  967MOL0     H27582   6.913   5.841  10.392 -2.0669 -2.6770  0.8279
  967MOL0     H27583   6.776   5.749  10.551  2.2028  0.4702 -1.5390
  967MOL0     H27584   6.703   5.705  10.413 -1.4792 -1.0147  1.1978
  967MOL0     H27585   6.548   5.899  10.414  1.1653  1.7974  0.2550
  967MOL0     H27586   6.638   5.953  10.569  3.6315 -1.8299  0.6769
  967MOL0     H27587   6.475   5.709  10.496 -1.9385  0.9605  0.3056
  967MOL0     H27588   6.568   5.727  10.642  0.4076  0.9601 -0.0943
  967MOL0     H27589   6.315   5.869  10.553  1.9902 -1.4973 -3.1741
  967MOL0     H27590   6.414   5.927  10.695 -0.8478 -1.1197  1.6280
  967MOL0     H27591   6.389   5.704  10.801 -0.1542  1.6327  1.7767
  967MOL0     H27592   6.287   5.656  10.660  0.8210  0.0481 -0.0043
  967MOL0     H27593   6.109   5.792  10.713  1.4863 -1.3547 -1.5453
  967MOL0     H27594   6.146   5.712  10.859  0.2168 -1.0707 -1.0999
  967MOL0     H27595   6.211   6.001  10.785  3.5478 -0.0230 -1.3667
  967MOL0     H27596   6.289   5.915  10.923 -1.5251  0.1283  0.6647
  967MOL0     H27597   6.179   6.081  11.098  1.0471 -0.6219 -1.8195
  967MOL0     H27598   5.824   6.164  11.216 -0.7514 -0.8048  1.3447
  967MOL0     H27599   5.984   6.231  11.230  0.2642 -0.6878  3.9211
  967MOL0     H27600   6.047   6.085  11.399 -0.7847  2.7958  2.2108
  967MOL0     H27601   5.903   5.976  11.374  1.5097 -0.9435  1.0075
  967MOL0     H27602   5.898   6.161  11.566 -3.6476  1.9612  1.1974
  967MOL0     H27603   5.889   6.272  11.440  0.6388  0.1449 -1.7529
  967MOL0     H27604   5.674   6.171  11.363  0.1929  1.1408  0.1873
  967MOL0     H27605   5.668   6.218  11.540 -1.5454 -0.3261  0.1007
  967MOL0     H27606   5.544   5.799  11.407  0.7744  0.3311  1.6116
  967MOL0     H27607   5.314   5.755  11.418 -0.3818 -1.0335  0.1580
  967MOL0     H27608   4.946   5.577  11.627  2.0918  0.6169 -1.0744
  967MOL0     H27609   4.721   5.541  11.544 -0.0987  0.3150 -0.6614
  967MOL0     H27610   4.580   5.743  11.143  3.1476 -0.3104  0.7456
  967MOL0     H27611   4.548   5.856  11.269  0.3461 -0.1335  1.3068
  967MOL0     H27612   4.371   5.611  11.212 -1.6628 -0.8617  2.5767
  967MOL0     H27613   4.367   5.749  11.116 -1.0283 -2.9002 -0.1344
  967MOL0     H27614   4.281   5.890  11.306  0.1909 -1.2113 -0.3149
  967MOL0     H27615   4.324   5.764  11.425 -0.4121 -0.1481  0.2499
  967MOL0     H27616   4.109   5.732  11.202 -1.2772  4.9553  0.9677
  967MOL0     H27617   4.153   5.606  11.307 -1.3668 -0.0284 -0.8464
  967MOL0     H27618   3.981   5.846  11.344  0.0598  0.1109 -0.4237
  967MOL0     H27619   4.091   5.808  11.487  2.4680 -2.7771 -0.1537
  967MOL0     H27620   4.002   5.591  11.503  0.5496  2.4362  1.2842
  967MOL0     H27621   3.893   5.607  11.357 -2.0244  0.3412  1.3618
  967MOL0     H27622   3.870   5.745  11.618  1.3454 -1.7621 -0.6828
  967MOL0     H27623   3.789   5.790  11.465  0.1753 -1.6521 -1.8897
  967MOL0     H27624   3.800   5.510  11.587 -1.1836 -1.6486 -0.1055
  967MOL0     H27625   3.686   5.573  11.459  1.5728 -0.0160 -0.3310
  967MOL0     H27626   4.768   5.850  11.249 -1.0359  1.3963  1.9083
  967MOL0     H27627   4.994   5.889  11.342 -0.9870  1.9057  2.5032
  967MOL0     H27628   5.273   6.083  11.695  0.2902  0.1714  0.7137
  967MOL0     H27629   5.508   6.150  11.663 -0.1484  0.1784  0.5296
  967MOL0     H27630   6.702   5.967  10.012  0.3218 -1.3349 -2.6544
  967MOL0     H27631   6.869   6.040   9.836 -0.5894  0.8534  0.5380
  967MOL0     H27632   7.143   6.296   9.647 -0.0853  1.6532  0.5930
  967MOL0     H27633   7.279   6.390   9.472  0.3139 -1.8204 -2.0829
  967MOL0     H27634   7.412   6.474   9.345 -1.3800 -0.9684 -0.4095
  967MOL0     H27635   7.426   6.338   9.228 -0.2741 -0.6532  0.3470
  967MOL0     H27636   7.544   6.563   9.187  1.9272 -1.2615 -1.8152
  967MOL0     H27637   7.660   6.520   9.319 -0.1973 -0.9530  0.8978
  967MOL0     H27638   7.617   6.336   9.071  2.3316 -1.6395 -0.6328
  967MOL0     H27639   7.735   6.329   9.200 -0.2230  1.0733  0.3256
  967MOL0     H27640   7.735   6.506   8.968 -0.7382  1.6372  0.1615
  967MOL0     H27641   7.804   6.572   9.117 -0.8207  0.1637  0.2800
  967MOL0     H27642   8.071   6.256   8.996  1.1273  0.7179 -0.3050
  967MOL0     H27643   7.596   6.117   9.574  0.9274 -1.1575  4.7596
  967MOL0     H27644   7.458   6.015   9.735  0.5872 -0.1438 -1.3304
  968MOL0     O27645   0.527   3.431   1.737 -0.1832  0.2426  0.3102
  968MOL0     C27646   0.547   3.375   1.628 -0.7832 -0.0200  0.2786
  968MOL0     O27647   0.449   3.332   1.542 -0.2717 -0.0401  0.1389
  968MOL0     C27648   0.320   3.375   1.578  0.4972  0.1962 -0.2339
  968MOL0     C27649   0.271   3.491   1.523 -0.0537 -0.4150  0.1050
  968MOL0     C27650   0.143   3.529   1.553 -0.2490  1.0671 -0.2240
  968MOL0     C27651   0.062   3.463   1.641  0.0386 -0.3466  0.0356
  968MOL0     O27652  -0.065   3.503   1.662  0.5454  0.5191  0.6713
  968MOL0     C27653  -0.143   3.449   1.773 -0.0134  0.9413 -0.8242
  968MOL0     C27654  -0.286   3.505   1.758 -0.3130 -0.4743  0.1965
  968MOL0     C27655  -0.300   3.655   1.795  0.2561  0.3193  0.0509
  968MOL0     C27656  -0.437   3.707   1.755 -0.1824  0.5020  0.8506
  968MOL0     C27657  -0.545   3.678   1.857  0.2573 -0.0011  0.0686
  968MOL0     C27658  -0.678   3.684   1.801 -0.2728 -0.2030  0.1373
  968MOL0     C27659  -0.798   3.694   1.904  0.6684  0.4546 -0.7456
  968MOL0     C27660  -0.828   3.833   1.934  0.0743  0.5557  0.3904
  968MOL0     N27661  -0.948   3.835   2.024 -0.3585  0.4535 -0.0951
  968MOL0     C27662  -1.070   3.895   2.009  0.8789  0.6692  0.5459
  968MOL0     C27663  -1.129   3.872   2.123  0.4846 -0.6723  0.7733
  968MOL0     C27664  -1.263   3.939   2.153 -0.0072  0.0742  0.0437
  968MOL0     C27665  -1.253   4.078   2.223 -0.2410  0.4139 -0.1590
  968MOL0     C27666  -1.338   4.083   2.344 -1.0740  0.7407 -0.3996
  968MOL0     C27667  -1.343   4.226   2.398 -0.6787  0.3051  0.0074
  968MOL0     O27668  -1.406   4.217   2.524  0.2545  1.0563  0.8672
  968MOL0     C27669  -1.414   4.327   2.602 -0.0726  1.4496  0.2049
  968MOL0     C27670  -1.314   4.421   2.606 -0.4112  0.0087  0.2117
  968MOL0     C27671  -1.313   4.536   2.687 -0.1698  0.0064 -0.2228
  968MOL0     C27672  -1.421   4.548   2.774 -0.4684 -0.1487 -0.5093
  968MOL0     C27673  -1.435   4.665   2.862 -0.0609 -0.4497 -0.0799
  968MOL0     O27674  -1.347   4.765   2.841 -0.5772 -0.1376  0.2195
  968MOL0     C27675  -1.367   4.886   2.913 -0.1850  0.3813  0.0392
  968MOL0     C27676  -1.494   4.948   2.920  0.1202  0.1279 -0.6479
  968MOL0     C27677  -1.494   5.074   2.988  0.1512  0.2055  0.0687
  968MOL0     C27678  -1.376   5.136   3.034 -0.0398 -0.5664 -0.6255
  968MOL0     O27679  -1.380   5.250   3.108 -0.4593  0.0371  0.2839
  968MOL0     C27680  -1.501   5.280   3.177  0.5327  0.6846  0.4655
  968MOL0     C27681  -1.446   5.394   3.262  0.5627  0.0995 -0.2771
  968MOL0     C27682  -1.547   5.473   3.346  0.5970  0.0282 -0.3047
  968MOL0     C27683  -1.626   5.381   3.443  1.1075  0.2908  0.1306
  968MOL0     C27684  -1.745   5.455   3.513 -0.3896 -0.4764  0.2575
  968MOL0     C27685  -1.863   5.475   3.427 -0.4675 -0.2816 -0.0534
  968MOL0     C27686  -1.980   5.539   3.505 -0.9164 -0.6658  0.4483
  968MOL0     C27687  -1.988   5.683   3.513  0.1796  0.4120  0.4370
  968MOL0    Cl27688  -1.849   5.765   3.590 -0.1483  0.3327 -0.1498
  968MOL0     C27689  -1.252   5.069   3.023  0.5130  1.1721 -0.3549
  968MOL0     C27690  -1.247   4.936   2.968  0.2047 -0.3740  1.1043
  968MOL0     O27691  -1.531   4.662   2.936  0.5103  0.3794  0.0392
  968MOL0     C27692  -1.521   4.445   2.774 -0.1002  0.0052  0.3589
  968MOL0     C27693  -1.519   4.335   2.690 -0.0910 -0.4218 -0.3235
  968MOL0     N27694  -1.058   3.795   2.203 -0.1570  0.4164  0.3220
  968MOL0     N27695  -0.943   3.780   2.150  0.0861 -0.1309  0.0010
  968MOL0     C27696   0.109   3.346   1.697 -0.4030 -0.4489  0.3204
  968MOL0     C27697   0.238   3.295   1.655  1.0118  0.0910  0.0850
  968MOL0     C27698   0.681   3.316   1.613  0.8973 -0.9446 -0.0554
  968MOL0     C27699   0.695   3.214   1.525 -1.0483  0.4622 -0.7514
  968MOL0     C27700   0.814   3.143   1.530 -0.8345  0.1876 -0.9679
  968MOL0     C27701   0.928   3.175   1.608 -0.8712 -0.2530  0.3903
  968MOL0     O27702   1.038   3.106   1.621 -0.3206  0.1185 -0.1594
  968MOL0     C27703   1.151   3.158   1.683  0.4294  0.4642 -0.0536
  968MOL0     C27704   1.273   3.073   1.662  0.1566  0.2758  1.1602
  968MOL0     C27705   1.403   3.157   1.705 -0.1143  1.5108  0.2823
  968MOL0     C27706   1.528   3.084   1.655  0.0849 -0.6671 -0.3950
  968MOL0     C27707   1.654   3.112   1.718  0.2227 -0.2303  0.2570
  968MOL0     C27708   1.762   3.114   1.772 -0.0305 -0.6869  0.0422
  968MOL0     C27709   0.904   3.288   1.689 -0.0868 -0.2737  0.0662
  968MOL0     C27710   0.785   3.356   1.694 -0.6321  0.4868  0.1944
  968MOL0     H27711   0.339   3.554   1.467  1.5145 -2.3301 -0.2782
  968MOL0     H27712   0.101   3.612   1.497  0.2289  0.0501 -2.1662
  968MOL0     H27713  -0.097   3.479   1.868  0.4974 -3.7591  0.6832
  968MOL0     H27714  -0.153   3.340   1.778  0.6126  0.9379  0.7668
  968MOL0     H27715  -0.352   3.445   1.821 -1.7668 -0.7603 -1.5246
  968MOL0     H27716  -0.331   3.497   1.659 -0.8793  2.3642  0.1381
  968MOL0     H27717  -0.226   3.713   1.738 -1.2208  2.3326  0.0860
  968MOL0     H27718  -0.280   3.663   1.902 -0.2073  3.4014 -0.0149
  968MOL0     H27719  -0.428   3.813   1.732  0.3655  0.5049  1.0578
  968MOL0     H27720  -0.461   3.666   1.657 -1.4299  1.9408  0.5069
  968MOL0     H27721  -0.534   3.743   1.945  0.1561 -1.0964  0.9150
  968MOL0     H27722  -0.540   3.575   1.893  1.4202 -0.6746 -1.9013
  968MOL0     H27723  -0.687   3.603   1.728 -1.2768 -2.9869  3.1122
  968MOL0     H27724  -0.681   3.781   1.750 -0.5624  0.1951  0.8902
  968MOL0     H27725  -0.882   3.634   1.866  1.1899  0.0484 -1.2817
  968MOL0     H27726  -0.768   3.639   1.994  0.1582 -0.6628 -1.2324
  968MOL0     H27727  -0.847   3.888   1.841  1.0343  3.1805  1.6728
  968MOL0     H27728  -0.745   3.889   1.979  1.2637  0.8338 -1.9561
  968MOL0     H27729  -1.107   3.962   1.933  0.4474 -1.8864 -1.6352
  968MOL0     H27730  -1.328   3.866   2.202  0.3548 -0.3642 -0.1195
  968MOL0     H27731  -1.309   3.952   2.055 -2.1139  3.2251  1.3012
  968MOL0     H27732  -1.283   4.156   2.152  1.1734  1.7290  0.6133
  968MOL0     H27733  -1.148   4.094   2.249 -0.6511 -0.3681  2.2224
  968MOL0     H27734  -1.436   4.041   2.319 -1.3295  1.9818 -1.5928
  968MOL0     H27735  -1.300   4.023   2.428 -3.0448  3.7918  2.9725
  968MOL0     H27736  -1.406   4.281   2.327  1.8277  1.7163 -1.2637
  968MOL0     H27737  -1.241   4.265   2.405  0.9178 -2.8449 -2.9497
  968MOL0     H27738  -1.231   4.418   2.536 -0.5726 -2.2958  0.0606
  968MOL0     H27739  -1.234   4.610   2.690 -0.8393  0.7459 -0.5512
  968MOL0     H27740  -1.585   4.911   2.873  0.2674  1.7224 -2.2989
  968MOL0     H27741  -1.590   5.123   3.000  0.0209 -0.1676  0.5983
  968MOL0     H27742  -1.546   5.201   3.238 -1.9835  2.8678  1.6160
  968MOL0     H27743  -1.576   5.313   3.104  2.6988  0.1359 -2.1965
  968MOL0     H27744  -1.393   5.469   3.204  2.1112  0.4103  1.4601
  968MOL0     H27745  -1.367   5.357   3.328  0.1349 -0.5084 -0.0922
  968MOL0     H27746  -1.616   5.521   3.275  0.2865 -0.2484 -0.1951
  968MOL0     H27747  -1.499   5.555   3.399 -0.2315  1.9976 -2.4171
  968MOL0     H27748  -1.664   5.301   3.379  2.1144  1.7269 -2.4115
  968MOL0     H27749  -1.557   5.337   3.515  0.4956  0.0324  0.5728
  968MOL0     H27750  -1.701   5.552   3.536  2.0262 -1.3505 -0.4008
  968MOL0     H27751  -1.775   5.404   3.605  1.0589  0.4242  1.2597
  968MOL0     H27752  -1.888   5.376   3.389 -1.8981 -0.4643  1.2666
  968MOL0     H27753  -1.844   5.541   3.342  0.7998 -3.2303 -2.2254
  968MOL0     H27754  -2.062   5.509   3.439  0.4050 -1.3665 -0.9423
  968MOL0     H27755  -1.982   5.504   3.608  2.4230 -0.2291  0.7706
  968MOL0     H27756  -2.081   5.722   3.555 -0.7226 -2.8519  1.7962
  968MOL0     H27757  -1.983   5.711   3.408 -2.0286 -1.3017 -0.2020
  968MOL0     H27758  -1.164   5.120   3.061  1.2568  0.0836 -0.5885
  968MOL0     H27759  -1.152   4.885   2.954  0.3360  0.2225 -0.4075
  968MOL0     H27760  -1.607   4.446   2.841  0.6480  1.1415  1.3415
  968MOL0     H27761  -1.599   4.263   2.701 -0.8650  0.2469 -1.3342
  968MOL0     H27762   0.048   3.282   1.761  0.8600 -0.6255  1.3898
  968MOL0     H27763   0.275   3.202   1.698 -2.4548 -1.4142  0.0832
  968MOL0     H27764   0.631   3.172   1.448  1.6016 -0.0969 -2.8000
  968MOL0     H27765   0.805   3.060   1.461 -1.6175  0.5786 -1.3528
  968MOL0     H27766   1.140   3.159   1.792  0.6519  2.3675 -0.0148
  968MOL0     H27767   1.174   3.261   1.653 -1.8626  1.3068  0.7871
  968MOL0     H27768   1.278   2.978   1.715 -0.5255 -2.5977 -3.3197
  968MOL0     H27769   1.278   3.041   1.557 -0.5727 -0.9364  1.4753
  968MOL0     H27770   1.413   3.192   1.809 -0.3560 -0.5725  1.0469
  968MOL0     H27771   1.400   3.254   1.654 -2.5498  0.5055 -1.7156
  968MOL0     H27772   1.519   2.976   1.661 -1.0942 -0.6834 -1.8379
  968MOL0     H27773   1.543   3.112   1.550  0.7413  2.3191  0.3895
  968MOL0     H27774   1.858   3.125   1.820 -1.2063  0.4683  2.2892
  968MOL0     H27775   0.980   3.334   1.751  0.3484 -0.4989 -0.3004
  968MOL0     H27776   0.777   3.436   1.767  4.8221  0.9485  0.7033
  969MOL0     O27777   0.533   0.447   7.526  0.4758  0.2811  0.2771
  969MOL0     C27778   0.570   0.332   7.546  0.0745  0.4899 -0.2615
  969MOL0     O27779   0.486   0.220   7.553  0.0173 -0.2602  0.2520
  969MOL0     C27780   0.361   0.232   7.608  0.7886  0.3239 -0.3026
  969MOL0     C27781   0.293   0.344   7.655  0.3129  0.1526 -1.0305
  969MOL0     C27782   0.163   0.333   7.702  0.2103  0.7340 -0.4350
  969MOL0     C27783   0.095   0.210   7.700  0.1098 -0.1581  0.1579
  969MOL0     O27784  -0.038   0.215   7.732 -0.3999  0.4232  0.3660
  969MOL0     C27785  -0.091   0.110   7.815  0.0818  0.5292  0.1192
  969MOL0     C27786  -0.221   0.151   7.889 -0.5179  0.3781  0.7721
  969MOL0     C27787  -0.201   0.276   7.979  0.2696  0.6385  0.4350
  969MOL0     C27788  -0.123   0.233   8.105 -0.1539 -0.1542 -0.6431
  969MOL0     C27789  -0.098   0.356   8.189 -0.2154 -0.1154 -0.7790
  969MOL0     C27790  -0.020   0.325   8.319  0.1812  0.4066 -0.5372
  969MOL0     C27791  -0.065   0.423   8.436  0.2915 -0.0901 -0.6318
  969MOL0     C27792   0.028   0.394   8.563 -0.1261 -0.4121  0.6500
  969MOL0     N27793   0.039   0.260   8.622  0.4021  0.2379  0.2378
  969MOL0     C27794  -0.055   0.161   8.640  0.1379 -0.6153  0.3745
  969MOL0     C27795   0.009   0.060   8.701 -0.5206  0.2603  0.3796
  969MOL0     C27796  -0.047  -0.079   8.737  0.4923  0.4497 -0.4528
  969MOL0     C27797  -0.163  -0.142   8.644 -1.5883  0.1503 -0.3431
  969MOL0     C27798  -0.200  -0.286   8.692  0.3099 -0.8761  0.0542
  969MOL0     C27799  -0.297  -0.294   8.809 -0.2296  0.0423 -0.4139
  969MOL0     O27800  -0.415  -0.209   8.794  0.2237 -0.1796 -0.4278
  969MOL0     C27801  -0.546  -0.246   8.847  0.0994 -0.8757  1.3738
  969MOL0     C27802  -0.640  -0.146   8.840 -0.0905  0.0020 -0.0841
  969MOL0     C27803  -0.771  -0.171   8.884 -0.2968  0.0758 -0.1098
  969MOL0     C27804  -0.812  -0.302   8.925  0.4817  0.1615  0.3905
  969MOL0     C27805  -0.948  -0.332   8.958  0.8963  0.3086 -0.3794
  969MOL0     O27806  -0.975  -0.460   9.025  0.2676  0.0866  0.3542
  969MOL0     C27807  -1.100  -0.485   9.066  0.6934  0.7799  0.6374
  969MOL0     C27808  -1.212  -0.499   8.981 -0.0363  0.4674 -0.6085
  969MOL0     C27809  -1.348  -0.505   9.032 -0.4106 -0.1679  0.7926
  969MOL0     C27810  -1.368  -0.501   9.171 -0.6344 -0.0111 -0.2306
  969MOL0     O27811  -1.490  -0.492   9.225  0.1951  0.0718  0.1254
  969MOL0     C27812  -1.505  -0.493   9.366 -0.4498 -0.2863  0.1381
  969MOL0     C27813  -1.646  -0.486   9.405  0.7912  0.5175 -0.6333
  969MOL0     C27814  -1.716  -0.360   9.335  1.1962  0.3636 -0.4358
  969MOL0     C27815  -1.861  -0.341   9.390 -0.0633  0.3052  0.1181
  969MOL0     C27816  -1.967  -0.441   9.345 -0.4398 -0.7542 -0.6267
  969MOL0     C27817  -2.116  -0.388   9.360  0.7594  0.4409 -0.3867
  969MOL0     C27818  -2.204  -0.491   9.292 -0.5921  1.1752  0.9534
  969MOL0     C27819  -2.339  -0.432   9.254  0.0184 -0.0613  0.0814
  969MOL0    Cl27820  -2.324  -0.297   9.136  0.0977  0.0051  0.6265
  969MOL0     C27821  -1.250  -0.491   9.252  0.1033 -0.7682 -0.4750
  969MOL0     C27822  -1.127  -0.475   9.199  0.1457  0.3768 -0.1731
  969MOL0     O27823  -1.036  -0.254   8.939 -0.6305 -0.8114 -0.0919
  969MOL0     C27824  -0.716  -0.410   8.934  0.4455  0.8267 -0.7209
  969MOL0     C27825  -0.587  -0.382   8.890 -0.1611 -0.7476  0.0148
  969MOL0     N27826   0.132   0.100   8.728 -0.7029  0.4051 -0.3643
  969MOL0     N27827   0.157   0.218   8.677  0.0806  0.2442 -0.0303
  969MOL0     C27828   0.167   0.095   7.665  0.7305 -0.7567  0.4015
  969MOL0     C27829   0.297   0.105   7.614  0.6312  0.0334  0.6318
  969MOL0     C27830   0.712   0.308   7.550 -0.3231 -0.4281  0.6531
  969MOL0     C27831   0.803   0.416   7.543  0.5005 -0.5972 -0.5409
  969MOL0     C27832   0.937   0.397   7.517 -0.6798  0.3274 -0.6336
  969MOL0     C27833   0.990   0.274   7.504 -0.0522 -0.1525 -0.0800
  969MOL0     O27834   1.127   0.259   7.463 -0.4293 -0.0747  0.4062
  969MOL0     C27835   1.215   0.376   7.468  0.0077  0.8640  0.2575
  969MOL0     C27836   1.365   0.345   7.459  0.5571  0.4055  0.2979
  969MOL0     C27837   1.447   0.473   7.497 -0.7718 -0.0433 -0.6191
  969MOL0     C27838   1.583   0.434   7.550 -0.9847 -0.1359 -0.8604
  969MOL0     C27839   1.665   0.340   7.466 -0.0336  0.5776  0.5187
  969MOL0     C27840   1.705   0.263   7.379  0.2932  0.0635 -0.3079
  969MOL0     C27841   0.905   0.156   7.510 -0.6612 -0.6632  0.1193
  969MOL0     C27842   0.769   0.172   7.534  1.1887  0.1108  1.7403
  969MOL0     H27843   0.333   0.444   7.640 -0.9786  1.0807  1.2367
  969MOL0     H27844   0.115   0.423   7.738 -0.0627 -0.0315  1.1936
  969MOL0     H27845  -0.013   0.082   7.887  0.0751  1.1236  0.3669
  969MOL0     H27846  -0.114   0.028   7.747 -1.8441  1.5824 -0.5651
  969MOL0     H27847  -0.259   0.068   7.949  1.0156 -0.2363  0.9396
  969MOL0     H27848  -0.295   0.175   7.812  0.8570  0.6116 -0.5226
  969MOL0     H27849  -0.295   0.326   8.004 -0.4098 -1.4239  2.3605
  969MOL0     H27850  -0.145   0.358   7.933 -3.5194  3.1550 -0.0989
  969MOL0     H27851  -0.175   0.159   8.166 -2.0500 -0.8639 -2.9657
  969MOL0     H27852  -0.027   0.193   8.072 -0.3841 -1.6040  0.3332
  969MOL0     H27853  -0.195   0.398   8.220  0.4473  0.5939  0.4047
  969MOL0     H27854  -0.041   0.429   8.131  0.8747  1.5748  2.1972
  969MOL0     H27855   0.085   0.340   8.295  0.2820  1.5088  0.4780
  969MOL0     H27856  -0.037   0.225   8.359  4.7875  0.1206  1.3272
  969MOL0     H27857  -0.060   0.525   8.397  2.9427  0.2483  0.3763
  969MOL0     H27858  -0.171   0.401   8.451 -0.6247  2.4176 -2.6437
  969MOL0     H27859  -0.020   0.454   8.641 -0.1779 -0.4904  0.6777
  969MOL0     H27860   0.133   0.423   8.552 -0.4117  1.8896  2.9284
  969MOL0     H27861  -0.160   0.165   8.612  0.0594  0.4085  0.7413
  969MOL0     H27862  -0.088  -0.073   8.838 -1.7200 -1.7564 -1.0967
  969MOL0     H27863   0.042  -0.142   8.738  1.5994  1.9104 -1.7151
  969MOL0     H27864  -0.116  -0.144   8.545 -0.6752  1.6704  0.0177
  969MOL0     H27865  -0.250  -0.075   8.647  0.6655  3.2654  0.6385
  969MOL0     H27866  -0.251  -0.341   8.612  1.5511 -2.0258  0.0212
  969MOL0     H27867  -0.112  -0.346   8.715  1.7352  1.0675 -0.1126
  969MOL0     H27868  -0.239  -0.285   8.902  0.0105 -1.2235 -0.4154
  969MOL0     H27869  -0.339  -0.395   8.803 -2.3788  0.9088 -0.9383
  969MOL0     H27870  -0.612  -0.051   8.797 -2.6363  0.8983  0.0794
  969MOL0     H27871  -0.838  -0.085   8.889 -0.3817  0.0757 -1.2039
  969MOL0     H27872  -1.208  -0.504   8.873 -2.3042  1.4649 -0.7984
  969MOL0     H27873  -1.426  -0.502   8.957 -0.1306 -2.9340  0.3011
  969MOL0     H27874  -1.465  -0.397   9.397 -1.0141  1.1483 -3.1589
  969MOL0     H27875  -1.459  -0.583   9.410  1.1650 -0.0815 -1.0375
  969MOL0     H27876  -1.651  -0.480   9.514 -2.5957 -3.9124 -0.2776
  969MOL0     H27877  -1.690  -0.580   9.371 -0.9906 -0.5741  3.9171
  969MOL0     H27878  -1.711  -0.377   9.227  3.4709  5.3420 -1.4075
  969MOL0     H27879  -1.662  -0.268   9.357  1.1996  0.4828 -0.9407
  969MOL0     H27880  -1.867  -0.340   9.499 -1.8407 -0.5226  0.0612
  969MOL0     H27881  -1.891  -0.242   9.354 -0.2357 -0.2399 -1.3276
  969MOL0     H27882  -1.947  -0.540   9.385 -2.4480 -0.2722  1.8692
  969MOL0     H27883  -1.947  -0.450   9.238  0.7499  3.6472 -0.9794
  969MOL0     H27884  -2.122  -0.293   9.306 -0.8197 -0.4575 -1.8648
  969MOL0     H27885  -2.143  -0.374   9.465  0.6299 -0.0733 -0.3490
  969MOL0     H27886  -2.157  -0.529   9.201  1.3228 -0.5122  2.5482
  969MOL0     H27887  -2.218  -0.574   9.362 -1.0599 -0.8586 -1.4279
  969MOL0     H27888  -2.407  -0.409   9.337 -1.0249  0.9654 -1.0172
  969MOL0     H27889  -2.400  -0.511   9.210  0.0133 -0.8528  1.4375
  969MOL0     H27890  -1.261  -0.499   9.359 -1.3508 -1.8340 -0.6749
  969MOL0     H27891  -1.036  -0.456   9.256  0.5418 -1.7760 -0.0211
  969MOL0     H27892  -0.734  -0.504   8.984  0.4238  1.6920  0.9570
  969MOL0     H27893  -0.519  -0.466   8.901  0.0333 -0.6732 -0.5805
  969MOL0     H27894   0.111   0.003   7.656  1.7260 -1.2186 -1.8787
  969MOL0     H27895   0.350   0.020   7.573  0.7661 -0.3530  1.5629
  969MOL0     H27896   0.762   0.516   7.546  0.0250 -0.7489 -1.5826
  969MOL0     H27897   1.004   0.482   7.518  1.9499 -1.5877 -1.6888
  969MOL0     H27898   1.202   0.439   7.557 -0.7032  1.2028 -0.0720
  969MOL0     H27899   1.175   0.439   7.387  0.6659  2.6463  1.2506
  969MOL0     H27900   1.373   0.264   7.532  3.9339 -0.0197 -0.3897
  969MOL0     H27901   1.393   0.314   7.358  0.0329  1.7274 -0.2821
  969MOL0     H27902   1.402   0.526   7.582 -1.6084 -2.2212  0.3826
  969MOL0     H27903   1.459   0.538   7.410  1.4041  1.6639  0.8253
  969MOL0     H27904   1.649   0.521   7.552  0.6438 -1.2465 -2.5667
  969MOL0     H27905   1.581   0.403   7.655  4.3124  1.5384  0.0764
  969MOL0     H27906   1.744   0.199   7.303 -1.4547 -1.3022 -0.1211
  969MOL0     H27907   0.960   0.063   7.506  1.1832  0.4298 -1.7115
  969MOL0     H27908   0.693   0.095   7.529 -0.5850  1.8554 -0.2446
  970MOL0     O27909   5.348   9.326   8.420  0.9836  0.1512 -0.0470
  970MOL0     C27910   5.402   9.330   8.527  0.3112 -0.1712 -0.5402
  970MOL0     O27911   5.367   9.274   8.649  0.4245  0.7047  0.3489
  970MOL0     C27912   5.247   9.210   8.673 -0.6986  1.3810 -0.5260
  970MOL0     C27913   5.229   9.156   8.806 -0.0986 -0.5324  0.6884
  970MOL0     C27914   5.118   9.082   8.847  0.7827 -0.1618  0.5274
  970MOL0     C27915   5.012   9.054   8.752  0.0793 -1.0722  1.2283
  970MOL0     O27916   4.885   9.002   8.781  0.4540  0.2539  1.4013
  970MOL0     C27917   4.864   8.946   8.911  0.0102 -0.5020  0.8359
  970MOL0     C27918   4.722   8.898   8.933  0.0118  0.0280 -0.0807
  970MOL0     C27919   4.680   8.879   9.081  0.1255 -0.3235 -0.2905
  970MOL0     C27920   4.531   8.852   9.104 -0.4016  0.8641  0.6100
  970MOL0     C27921   4.468   8.991   9.109  0.5014  0.2595 -0.6936
  970MOL0     C27922   4.335   8.970   9.191  1.1027  0.3902 -0.2162
  970MOL0     C27923   4.215   8.882   9.135 -0.2523 -0.6802  0.3990
  970MOL0     C27924   4.140   8.953   9.012  0.0542 -0.6285 -0.3682
  970MOL0     N27925   4.033   8.868   8.961  0.7038  0.3049  0.3263
  970MOL0     C27926   3.896   8.874   8.992  0.1706 -0.2068 -1.0148
  970MOL0     C27927   3.836   8.770   8.913 -0.1047 -0.0399  0.1364
  970MOL0     C27928   3.692   8.738   8.916 -0.2680 -0.3528  0.3956
  970MOL0     C27929   3.657   8.690   9.049 -0.8799 -0.8996 -0.5232
  970MOL0     C27930   3.510   8.625   9.070 -0.0814  0.4610 -0.1214
  970MOL0     C27931   3.451   8.645   9.211  0.1240 -0.4507  0.4407
  970MOL0     O27932   3.329   8.573   9.236 -0.1017 -0.8667  0.3737
  970MOL0     C27933   3.230   8.592   9.142 -0.0928  0.0180  0.2853
  970MOL0     C27934   3.198   8.713   9.067 -0.3572 -0.1187  1.1514
  970MOL0     C27935   3.084   8.726   8.990  0.5889  0.6944  0.2775
  970MOL0     C27936   2.999   8.622   8.986  0.2771 -0.6854  0.6266
  970MOL0     C27937   2.880   8.629   8.886 -0.4197  0.3925 -0.1664
  970MOL0     O27938   2.796   8.527   8.903 -0.2997  0.4478  0.2369
  970MOL0     C27939   2.714   8.482   8.811  0.4682 -0.3319  0.7686
  970MOL0     C27940   2.697   8.348   8.779 -0.0300  0.8623  0.2574
  970MOL0     C27941   2.591   8.308   8.693 -0.3319 -0.1975 -0.3648
  970MOL0     C27942   2.502   8.401   8.642  0.0299  0.0010  0.4435
  970MOL0     O27943   2.392   8.357   8.575 -0.1515 -0.6661 -0.4637
  970MOL0     C27944   2.304   8.295   8.670  0.2463  0.6479  0.0490
  970MOL0     C27945   2.164   8.345   8.639  0.1396  0.2769  0.2171
  970MOL0     C27946   2.105   8.331   8.501 -0.6892  0.0727 -0.3840
  970MOL0     C27947   2.115   8.192   8.438  0.2573  0.1691 -0.6564
  970MOL0     C27948   2.044   8.181   8.299 -0.2100 -0.2271 -0.8647
  970MOL0     C27949   2.131   8.231   8.180 -0.3993  0.5333  0.4310
  970MOL0     C27950   2.040   8.230   8.055 -0.8207 -0.1137 -0.1072
  970MOL0     C27951   1.976   8.364   8.027  0.0306  0.6648  0.6853
  970MOL0    Cl27952   2.103   8.479   7.990  0.0201  0.2525 -0.2481
  970MOL0     C27953   2.511   8.536   8.677 -0.2995 -0.6806 -0.7170
  970MOL0     C27954   2.627   8.574   8.756  0.8434  0.8578  0.5074
  970MOL0     O27955   2.875   8.716   8.800 -0.6545  0.3516  0.2946
  970MOL0     C27956   3.022   8.511   9.066 -0.1907  0.3671  0.1278
  970MOL0     C27957   3.140   8.492   9.135 -0.2418  0.0162 -0.4905
  970MOL0     N27958   3.942   8.715   8.833 -0.3394 -0.3777  0.1938
  970MOL0     N27959   4.055   8.773   8.863 -0.0737 -0.3474  0.7352
  970MOL0     C27960   5.034   9.112   8.622 -0.5889  0.0600 -0.6173
  970MOL0     C27961   5.142   9.190   8.585 -0.2358  0.3550 -0.2918
  970MOL0     C27962   5.540   9.391   8.520 -0.0137 -0.0023 -0.6929
  970MOL0     C27963   5.628   9.402   8.627  0.0952  0.1882 -0.2503
  970MOL0     C27964   5.758   9.445   8.605  0.2519 -0.3630  0.3798
  970MOL0     C27965   5.800   9.496   8.484  0.1304  0.1569  0.7111
  970MOL0     O27966   5.921   9.558   8.457  0.6180 -0.3395 -0.4689
  970MOL0     C27967   6.017   9.556   8.573  0.2020 -0.0702  0.4719
  970MOL0     C27968   6.153   9.626   8.540 -0.7879 -0.3409 -0.2835
  970MOL0     C27969   6.137   9.772   8.497 -0.4245  0.1887 -0.5916
  970MOL0     C27970   6.261   9.852   8.538  1.1595 -0.2213  0.6815
  970MOL0     C27971   6.225   9.993   8.518  0.0482 -0.2214  0.3337
  970MOL0     C27972   6.212  10.116   8.508 -0.0862  0.6938  0.3219
  970MOL0     C27973   5.709   9.484   8.376  0.2929 -0.1852 -0.2135
  970MOL0     C27974   5.580   9.441   8.394 -0.6191  0.5399  0.3688
  970MOL0     H27975   5.312   9.186   8.870 -0.2664 -2.6157  1.9599
  970MOL0     H27976   5.117   9.043   8.948  0.4296 -2.5260 -0.3255
  970MOL0     H27977   4.896   9.017   8.988 -1.4410 -0.2836  1.2715
  970MOL0     H27978   4.933   8.861   8.911  0.3791 -0.3348 -2.3354
  970MOL0     H27979   4.707   8.796   8.896 -1.6377  0.4651 -0.6739
  970MOL0     H27980   4.654   8.972   8.890 -1.8722 -2.3112 -1.3933
  970MOL0     H27981   4.710   8.966   9.140  2.3127 -0.4682 -1.0882
  970MOL0     H27982   4.732   8.791   9.121 -1.7340 -1.4038 -0.1202
  970MOL0     H27983   4.481   8.798   9.024 -2.1268  1.6539  1.1105
  970MOL0     H27984   4.523   8.794   9.197 -0.0136 -1.9626 -1.0034
  970MOL0     H27985   4.450   9.033   9.010  1.8800  1.9166 -0.2795
  970MOL0     H27986   4.520   9.068   9.166  0.6279  0.3161 -0.8874
  970MOL0     H27987   4.297   9.070   9.213 -1.2550 -0.8664  1.9835
  970MOL0     H27988   4.348   8.937   9.294  1.4408  2.9818  0.6518
  970MOL0     H27989   4.253   8.783   9.111 -1.5171 -1.0616 -0.0976
  970MOL0     H27990   4.143   8.880   9.218 -0.7194  3.9037  0.3975
  970MOL0     H27991   4.214   8.964   8.932 -0.7033 -1.5282 -1.2062
  970MOL0     H27992   4.091   9.045   9.047 -2.0525 -2.7375  2.7877
  970MOL0     H27993   3.850   8.945   9.060  1.2206 -0.9589  0.5731
  970MOL0     H27994   3.671   8.673   8.830 -0.7683  0.9787 -0.5157
  970MOL0     H27995   3.631   8.827   8.901  1.0606  0.8169  1.7333
  970MOL0     H27996   3.665   8.770   9.123  1.1211  0.0796 -1.7198
  970MOL0     H27997   3.728   8.611   9.075  0.6984  0.0934 -1.6973
  970MOL0     H27998   3.435   8.661   8.999 -1.7632 -0.8971  0.8941
  970MOL0     H27999   3.518   8.517   9.056 -0.6765  0.4869 -0.6978
  970MOL0     H28000   3.433   8.752   9.222  1.1373 -0.3933  1.8453
  970MOL0     H28001   3.530   8.622   9.283  2.0673  0.2613 -1.3519
  970MOL0     H28002   3.263   8.799   9.073  1.1086 -1.2271  1.9425
  970MOL0     H28003   3.072   8.810   8.922 -1.9849  1.4116  1.5036
  970MOL0     H28004   2.770   8.277   8.816 -0.8631  0.4550  1.1511
  970MOL0     H28005   2.582   8.206   8.657 -0.2197 -0.4435  0.2963
  970MOL0     H28006   2.330   8.303   8.776  1.5710 -0.6330 -0.1474
  970MOL0     H28007   2.322   8.189   8.650  4.4534  0.1362  4.5281
  970MOL0     H28008   2.165   8.450   8.669  0.3299 -0.2108  2.0865
  970MOL0     H28009   2.092   8.287   8.698 -1.1395  0.4953 -1.0813
  970MOL0     H28010   2.155   8.403   8.436 -1.6520  0.5714 -0.5880
  970MOL0     H28011   1.998   8.351   8.512 -0.5596 -0.7085  3.8802
  970MOL0     H28012   2.216   8.152   8.425  0.4853  1.0148 -1.6708
  970MOL0     H28013   2.054   8.122   8.496 -1.0758  1.5655 -0.2958
  970MOL0     H28014   1.950   8.237   8.303  0.4405  0.8297  0.5389
  970MOL0     H28015   2.012   8.079   8.275 -3.9363  0.1808  1.4793
  970MOL0     H28016   2.207   8.153   8.176  0.3215  1.2470 -0.1715
  970MOL0     H28017   2.177   8.329   8.196 -1.6140  1.0265  1.0191
  970MOL0     H28018   2.107   8.204   7.973  0.8010  1.8098  0.5185
  970MOL0     H28019   1.960   8.156   8.045 -1.0334  0.4615 -5.2433
  970MOL0     H28020   1.921   8.406   8.111 -0.7873  2.0237 -0.4961
  970MOL0     H28021   1.908   8.358   7.942  0.4522  0.4367  0.3564
  970MOL0     H28022   2.441   8.613   8.645  0.5757  1.1543  1.4977
  970MOL0     H28023   2.628   8.680   8.774 -1.0946  0.9838  0.0498
  970MOL0     H28024   2.950   8.429   9.065 -4.7792  3.9694  0.7684
  970MOL0     H28025   3.167   8.395   9.177  0.0695  0.2627 -0.1149
  970MOL0     H28026   4.953   9.093   8.552 -1.2744 -4.1317  1.0327
  970MOL0     H28027   5.142   9.243   8.491 -0.7110  1.0795  0.1046
  970MOL0     H28028   5.595   9.373   8.726 -1.1709  2.8913  0.2326
  970MOL0     H28029   5.816   9.466   8.694 -1.3176 -2.0114  1.8413
  970MOL0     H28030   6.020   9.453   8.611 -2.2351 -0.5263 -0.3894
  970MOL0     H28031   5.967   9.611   8.652  1.0932 -0.1088  1.0774
  970MOL0     H28032   6.229   9.623   8.618  0.1855  1.9519 -1.0675
  970MOL0     H28033   6.187   9.562   8.458 -1.7542 -1.2820  0.0284
  970MOL0     H28034   6.043   9.816   8.533 -1.1398 -0.2955 -1.8319
  970MOL0     H28035   6.126   9.781   8.389 -2.6125 -1.9085 -0.6164
  970MOL0     H28036   6.273   9.832   8.645 -0.0981  0.3681  0.9601
  970MOL0     H28037   6.350   9.826   8.480 -0.4239 -2.1712 -1.0280
  970MOL0     H28038   6.189  10.220   8.505 -1.1200  0.8266  5.1942
  970MOL0     H28039   5.743   9.505   8.275  2.9964 -2.9435 -0.0433
  970MOL0     H28040   5.524   9.425   8.303  1.0364  0.8752 -0.7470
  971MOL0     O28041   3.928   9.487   8.840 -0.0947 -0.4784  0.2375
  971MOL0     C28042   3.941   9.599   8.895  0.2295  0.2186  0.0229
  971MOL0     O28043   3.836   9.672   8.936  0.1374 -0.7647 -0.1234
  971MOL0     C28044   3.711   9.650   8.880 -0.1982 -0.2216 -0.0109
  971MOL0     C28045   3.681   9.599   8.755  0.4030 -0.1893  0.0439
  971MOL0     C28046   3.549   9.574   8.717 -0.1101  0.7741  0.1213
  971MOL0     C28047   3.441   9.597   8.804  0.1201  0.4216  0.3234
  971MOL0     O28048   3.308   9.572   8.776  0.0591  0.5430  0.7709
  971MOL0     C28049   3.239   9.639   8.667  0.3182  0.0305 -0.0856
  971MOL0     C28050   3.123   9.563   8.595  0.2346 -0.9015  0.3446
  971MOL0     C28051   2.993   9.556   8.669  0.1794 -0.0766 -0.4759
  971MOL0     C28052   2.875   9.524   8.576  0.0301 -0.2841  0.6182
  971MOL0     C28053   2.741   9.519   8.655 -0.2360  0.1845 -0.1796
  971MOL0     C28054   2.694   9.661   8.684  0.0869 -0.7954  0.3647
  971MOL0     C28055   2.563   9.652   8.766 -0.2593  0.0881 -0.7631
  971MOL0     C28056   2.486   9.783   8.773  0.3579  0.5626  0.3312
  971MOL0     N28057   2.450   9.852   8.661 -0.9438  0.2038  1.0089
  971MOL0     C28058   2.383   9.796   8.553  0.2877 -0.0146 -0.5049
  971MOL0     C28059   2.401   9.885   8.452 -0.4320 -0.1311  0.1718
  971MOL0     C28060   2.341   9.891   8.317 -0.2535  0.4483 -0.2948
  971MOL0     C28061   2.256  10.017   8.314 -0.4344  1.6693  0.1321
  971MOL0     C28062   2.222  10.038   8.170 -0.5958 -0.4133  0.4710
  971MOL0     C28063   2.153  10.168   8.138 -0.4551 -0.1620  0.2011
  971MOL0     O28064   2.010  10.155   8.167 -0.0854  0.0281  0.6029
  971MOL0     C28065   1.926  10.270   8.154 -1.0936  0.3620  0.9905
  971MOL0     C28066   1.959  10.381   8.080  0.1488 -0.4590 -0.3364
  971MOL0     C28067   1.863  10.480   8.066 -1.1995  0.0405 -0.0855
  971MOL0     C28068   1.736  10.470   8.114  0.1453 -0.1532 -0.5879
  971MOL0     C28069   1.634  10.576   8.107 -0.1474  0.0087 -0.7119
  971MOL0     O28070   1.505  10.535   8.124 -0.0718 -0.4172  0.0582
  971MOL0     C28071   1.416  10.630   8.176  0.6890 -0.6191  1.6035
  971MOL0     C28072   1.286  10.584   8.176  0.7730  0.1681 -1.2814
  971MOL0     C28073   1.189  10.657   8.238  0.6674 -0.0888 -0.4330
  971MOL0     C28074   1.218  10.785   8.291 -0.4695  0.7074 -0.8449
  971MOL0     O28075   1.106  10.850   8.340  0.5933 -0.3947  1.2947
  971MOL0     C28076   1.105  10.977   8.395  0.2967 -0.1013 -0.4549
  971MOL0     C28077   0.970  11.039   8.431 -0.0001 -0.2123 -0.1926
  971MOL0     C28078   0.899  11.076   8.305 -0.3944  0.1765  0.1220
  971MOL0     C28079   0.758  11.124   8.335  0.4014 -0.0366 -0.7612
  971MOL0     C28080   0.660  11.018   8.386  0.0669  0.5715 -0.0305
  971MOL0     C28081   0.512  11.073   8.383  0.3549  0.4723 -0.4570
  971MOL0     C28082   0.461  11.164   8.504  0.2258  0.0542  0.3313
  971MOL0     C28083   0.303  11.171   8.510  0.6670 -0.6097 -0.1078
  971MOL0    Cl28084   0.224  11.004   8.493  0.1404  0.0436  0.2419
  971MOL0     C28085   1.349  10.819   8.302 -0.3416 -0.0861  0.6059
  971MOL0     C28086   1.451  10.747   8.240 -0.2658  0.3084  0.1514
  971MOL0     O28087   1.674  10.690   8.073  0.4028  0.8865  0.0946
  971MOL0     C28088   1.707  10.349   8.180 -0.3387 -0.5972 -0.5772
  971MOL0     C28089   1.806  10.258   8.201  0.0776  0.5487 -0.4454
  971MOL0     N28090   2.476   9.993   8.508  0.0866  0.1018  0.1941
  971MOL0     N28091   2.502   9.974   8.632  0.1410  0.6923  0.5737
  971MOL0     C28092   3.475   9.651   8.926 -0.2525  0.7499  0.0128
  971MOL0     C28093   3.611   9.683   8.964  0.1345 -0.6609  0.1398
  971MOL0     C28094   4.074   9.653   8.915  0.3759  0.2772  0.4060
  971MOL0     C28095   4.089   9.784   8.970 -0.2743  0.5086  0.7524
  971MOL0     C28096   4.210   9.847   8.979 -0.1532  0.2050  0.3268
  971MOL0     C28097   4.322   9.777   8.929 -0.6338  0.4989  0.0779
  971MOL0     O28098   4.443   9.847   8.942 -0.3428 -0.4271 -0.0474
  971MOL0     C28099   4.567   9.774   8.913 -0.6859 -0.1184  1.0418
  971MOL0     C28100   4.678   9.894   8.902  0.5231  0.0004 -0.9851
  971MOL0     C28101   4.819   9.838   8.917 -0.0351 -0.1890 -0.6713
  971MOL0     C28102   4.929   9.936   8.884  0.0583 -0.6950 -0.2785
  971MOL0     C28103   4.939  10.047   8.983 -0.5695  1.0495 -0.5169
  971MOL0     C28104   4.932  10.118   9.080 -0.3253  0.2116  0.8022
  971MOL0     C28105   4.312   9.654   8.867 -0.2294 -0.6573 -0.7737
  971MOL0     C28106   4.186   9.592   8.849 -0.1037 -1.1543 -0.6746
  971MOL0     H28107   3.762   9.560   8.695  0.1414  2.1725 -1.9642
  971MOL0     H28108   3.528   9.542   8.616 -0.6557  0.1047  0.4368
  971MOL0     H28109   3.313   9.659   8.589 -1.4865 -2.3051 -2.5734
  971MOL0     H28110   3.206   9.738   8.699  0.9564 -0.3499  1.8696
  971MOL0     H28111   3.167   9.465   8.573 -1.1975 -1.6598  0.7660
  971MOL0     H28112   3.107   9.628   8.509  1.3414  0.2392  0.9616
  971MOL0     H28113   2.972   9.654   8.714 -0.0443 -0.1114 -0.5031
  971MOL0     H28114   2.989   9.499   8.762 -1.5026  0.1416 -0.3819
  971MOL0     H28115   2.879   9.594   8.492  0.3122  0.6891  1.4315
  971MOL0     H28116   2.892   9.421   8.541  0.2056 -0.0275 -0.0725
  971MOL0     H28117   2.754   9.466   8.750 -0.7905 -0.1795 -0.3029
  971MOL0     H28118   2.667   9.473   8.590  0.7819 -0.9314 -0.5823
  971MOL0     H28119   2.676   9.721   8.595 -0.4609 -1.4207  0.0461
  971MOL0     H28120   2.764   9.726   8.739  0.7006 -1.2548  0.1388
  971MOL0     H28121   2.499   9.578   8.716  3.7248 -3.2499 -1.4829
  971MOL0     H28122   2.578   9.622   8.870 -0.7881  1.1167 -0.3809
  971MOL0     H28123   2.556   9.845   8.830  1.2434 -0.4607  0.4058
  971MOL0     H28124   2.390   9.774   8.823  0.0234  0.8135 -0.2627
  971MOL0     H28125   2.324   9.705   8.553 -0.7602  0.6528 -0.4106
  971MOL0     H28126   2.277   9.806   8.292  0.5936  0.1477 -1.5572
  971MOL0     H28127   2.422   9.886   8.243  1.4740  1.5239  1.4303
  971MOL0     H28128   2.307  10.108   8.346  1.6867  0.8282 -0.7169
  971MOL0     H28129   2.159   9.995   8.361 -0.3908 -2.2000 -1.2056
  971MOL0     H28130   2.322  10.044   8.127  1.1878 -2.8118  3.8645
  971MOL0     H28131   2.156   9.962   8.127 -1.3586 -1.5447  3.4316
  971MOL0     H28132   2.181  10.195   8.036  3.2868 -2.7169  0.3352
  971MOL0     H28133   2.181  10.251   8.204 -3.1162  0.5962  0.5106
  971MOL0     H28134   2.051  10.388   8.023  0.6259 -1.4606  0.2703
  971MOL0     H28135   1.894  10.560   7.999 -0.2912 -1.8715 -2.0574
  971MOL0     H28136   1.263  10.483   8.144 -0.8790 -0.0704  0.4969
  971MOL0     H28137   1.086  10.624   8.238  0.2132  1.2365  0.5670
  971MOL0     H28138   1.154  11.033   8.315 -0.4123  0.7280 -0.3292
  971MOL0     H28139   1.166  10.970   8.486 -1.0126 -0.6322  0.4114
  971MOL0     H28140   0.962  11.125   8.498 -3.2727 -1.2131  0.8871
  971MOL0     H28141   0.910  10.968   8.488 -0.7912  1.9364  1.8312
  971MOL0     H28142   0.897  10.990   8.236 -0.8522 -0.8186  1.3282
  971MOL0     H28143   0.950  11.153   8.247  0.4800 -1.3757 -1.2733
  971MOL0     H28144   0.770  11.209   8.402 -1.4831  0.3524 -0.8821
  971MOL0     H28145   0.715  11.153   8.239 -0.6228  1.4278  0.1021
  971MOL0     H28146   0.678  10.973   8.484 -2.4385  0.9704  0.6847
  971MOL0     H28147   0.661  10.943   8.307 -1.0383  0.4085  0.1017
  971MOL0     H28148   0.449  10.984   8.380  1.3964 -0.6701  3.8170
  971MOL0     H28149   0.492  11.122   8.288  0.2758  0.0426 -0.6632
  971MOL0     H28150   0.497  11.112   8.594 -0.2354  0.2392  0.6290
  971MOL0     H28151   0.498  11.267   8.505 -1.8726  0.8737 -0.0482
  971MOL0     H28152   0.266  11.239   8.433  2.4292  2.0073  1.1595
  971MOL0     H28153   0.280  11.217   8.607 -0.5574  0.9173 -1.0796
  971MOL0     H28154   1.384  10.909   8.353  3.2343 -0.0851 -1.5101
  971MOL0     H28155   1.554  10.780   8.250  0.1776 -0.4973 -1.4410
  971MOL0     H28156   1.608  10.341   8.223 -0.5781  3.3690 -0.0010
  971MOL0     H28157   1.775  10.174   8.262 -1.0080  0.9001 -0.4904
  971MOL0     H28158   3.388   9.674   8.986 -0.8718 -2.1941  0.3864
  971MOL0     H28159   3.633   9.733   9.058  0.7359  0.3328 -0.5115
  971MOL0     H28160   4.002   9.845   8.990  0.8654  2.4556 -0.0057
  971MOL0     H28161   4.225   9.947   9.019  0.4124  0.0273  0.5659
  971MOL0     H28162   4.563   9.721   8.817  1.4734  0.2444  0.6960
  971MOL0     H28163   4.598   9.700   8.987  1.6654 -0.3619 -0.0899
  971MOL0     H28164   4.675   9.950   8.808 -2.2558  1.2905 -0.2355
  971MOL0     H28165   4.676   9.963   8.987  0.2248  0.5861 -1.4610
  971MOL0     H28166   4.820   9.746   8.857 -2.2378 -1.3951  1.0118
  971MOL0     H28167   4.829   9.805   9.020  0.3795 -1.4187 -1.0848
  971MOL0     H28168   5.023   9.880   8.886  1.0781  0.6056 -4.1511
  971MOL0     H28169   4.908   9.964   8.781  0.2773 -1.2196 -0.4692
  971MOL0     H28170   4.916  10.193   9.154  1.8954  0.2396  1.3214
  971MOL0     H28171   4.397   9.596   8.833 -0.6257 -0.8116 -1.5225
  971MOL0     H28172   4.167   9.504   8.789 -1.0642 -1.3045 -0.1661
  972MOL0     O28173   7.254   0.653   8.044  0.9157 -0.2780  0.0042
  972MOL0     C28174   7.319   0.644   8.148  0.3143  0.6141  0.4753
  972MOL0     O28175   7.275   0.615   8.275 -0.6075 -0.8519 -0.6252
  972MOL0     C28176   7.144   0.584   8.303  0.4432 -0.2613 -0.0832
  972MOL0     C28177   7.102   0.595   8.435 -0.2948 -0.8356 -0.4016
  972MOL0     C28178   6.979   0.553   8.483 -0.1145 -1.5823  0.0841
  972MOL0     C28179   6.885   0.500   8.400  0.1465  0.5764  0.6314
  972MOL0     O28180   6.769   0.458   8.462  0.0334 -0.1793 -0.0689
  972MOL0     C28181   6.698   0.346   8.411  0.3689  0.1045  0.1171
  972MOL0     C28182   6.579   0.304   8.503  0.4108 -0.2056 -0.6150
  972MOL0     C28183   6.479   0.223   8.428 -0.4114 -0.0922 -0.2765
  972MOL0     C28184   6.381   0.142   8.504  0.3878  0.7828  0.3215
  972MOL0     C28185   6.274   0.064   8.424 -0.0249 -0.1027  0.6603
  972MOL0     C28186   6.179   0.156   8.356  0.4364 -0.4480 -0.4167
  972MOL0     C28187   6.056   0.065   8.313  0.4387 -0.9404  0.1699
  972MOL0     C28188   5.946   0.149   8.236  0.1647 -0.2745 -0.9810
  972MOL0     N28189   5.852   0.222   8.335 -0.2609 -0.6334  0.8363
  972MOL0     C28190   5.759   0.156   8.416 -0.1548 -0.6198  0.9416
  972MOL0     C28191   5.702   0.258   8.489 -1.0002 -1.0405  0.7669
  972MOL0     C28192   5.600   0.245   8.598  0.5600 -0.9901  0.1182
  972MOL0     C28193   5.465   0.295   8.559  1.0380  0.7363 -0.2869
  972MOL0     C28194   5.375   0.303   8.681  0.1381 -0.5520  0.1654
  972MOL0     C28195   5.225   0.345   8.652 -0.4941 -0.2062 -0.0551
  972MOL0     O28196   5.139   0.284   8.756 -0.5362  0.1265  0.0361
  972MOL0     C28197   5.006   0.293   8.734  0.2779  0.5707  0.8455
  972MOL0     C28198   4.935   0.241   8.843  0.0777  0.0960 -0.6128
  972MOL0     C28199   4.798   0.237   8.840  0.1820  0.3823  0.6514
  972MOL0     C28200   4.725   0.299   8.735 -0.3049 -0.3728 -0.5685
  972MOL0     C28201   4.584   0.299   8.735  1.1378 -0.4519  1.0677
  972MOL0     O28202   4.510   0.297   8.851 -0.0357 -0.4709 -0.5757
  972MOL0     C28203   4.372   0.285   8.855  0.2236  0.2853 -1.5459
  972MOL0     C28204   4.321   0.322   8.987 -0.2834 -0.2086 -0.0879
  972MOL0     C28205   4.188   0.333   9.009 -0.1371  0.3020 -0.4942
  972MOL0     C28206   4.097   0.324   8.897  0.2395  1.0174 -0.0800
  972MOL0     O28207   3.955   0.334   8.898 -0.5075  0.2194  0.3327
  972MOL0     C28208   3.897   0.362   9.030  0.0870 -0.0153  0.1744
  972MOL0     C28209   3.750   0.363   9.007  0.7423 -0.5647  0.1988
  972MOL0     C28210   3.672   0.397   9.133 -0.5754  0.1887 -0.4087
  972MOL0     C28211   3.530   0.375   9.102  0.6359 -0.3516  0.8565
  972MOL0     C28212   3.440   0.426   9.215  0.3225  0.3711  0.0966
  972MOL0     C28213   3.297   0.455   9.165 -0.0112  0.0456 -0.4773
  972MOL0     C28214   3.207   0.492   9.289  0.2609 -0.2465  0.0816
  972MOL0     C28215   3.074   0.414   9.280 -0.2256 -0.3248 -0.7976
  972MOL0    Cl28216   2.948   0.503   9.191 -0.4668 -0.0264  0.2344
  972MOL0     C28217   4.153   0.287   8.772  0.7725 -0.1193 -0.1932
  972MOL0     C28218   4.280   0.269   8.750 -0.1114  0.1466  0.5468
  972MOL0     O28219   4.528   0.294   8.622 -1.0465  0.3484  0.7389
  972MOL0     C28220   4.801   0.362   8.628 -0.4595 -0.2058 -0.3725
  972MOL0     C28221   4.942   0.352   8.625 -0.3516 -0.0045  0.5284
  972MOL0     N28222   5.761   0.382   8.451 -0.3990  0.0615 -0.0131
  972MOL0     N28223   5.855   0.354   8.369  0.0986  0.4587  0.3052
  972MOL0     C28224   6.917   0.487   8.268  0.5106 -0.0113  0.4403
  972MOL0     C28225   7.045   0.529   8.218  0.1761  0.0074 -0.5464
  972MOL0     C28226   7.460   0.672   8.138 -0.5636 -0.1725  0.3875
  972MOL0     C28227   7.551   0.634   8.242  0.2898  0.8790 -0.4843
  972MOL0     C28228   7.683   0.675   8.236  0.4786 -0.1222  0.3155
  972MOL0     C28229   7.723   0.751   8.125  0.3564  0.3032 -0.1164
  972MOL0     O28230   7.854   0.778   8.108 -0.7533  0.2226 -0.1216
  972MOL0     C28231   7.913   0.683   8.027 -0.5205 -0.3803  0.1070
  972MOL0     C28232   8.059   0.735   8.001 -0.3372 -0.1835  0.3763
  972MOL0     C28233   8.061   0.850   7.906  0.1878  1.7191  0.2104
  972MOL0     C28234   8.203   0.902   7.886  0.5219  0.2093 -0.3520
  972MOL0     C28235   8.208   1.031   7.812 -0.5252 -0.1908  0.2679
  972MOL0     C28236   8.220   1.141   7.756  0.9494  0.4134  0.0136
  972MOL0     C28237   7.639   0.792   8.020 -0.0103  0.5004 -0.7635
  972MOL0     C28238   7.508   0.752   8.033 -0.3685 -0.2060 -0.1537
  972MOL0     H28239   7.174   0.640   8.503  3.5750 -2.3873 -3.1271
  972MOL0     H28240   6.948   0.563   8.587 -1.9802 -3.5396 -0.2134
  972MOL0     H28241   6.764   0.260   8.404  0.7721  0.4474 -0.3492
  972MOL0     H28242   6.645   0.364   8.317 -3.0538 -2.3227  1.3789
  972MOL0     H28243   6.528   0.391   8.545  1.5904 -0.1174  0.6873
  972MOL0     H28244   6.614   0.244   8.588 -4.0253  0.4524  2.0253
  972MOL0     H28245   6.541   0.153   8.372  1.7218  1.3352  0.1816
  972MOL0     H28246   6.433   0.298   8.363  0.7754  1.5056  0.6733
  972MOL0     H28247   6.431   0.071   8.570 -2.2068 -1.0685  0.4391
  972MOL0     H28248   6.322   0.209   8.568 -0.7064  1.2256 -1.1056
  972MOL0     H28249   6.210   0.004   8.489 -0.5052  0.5418  0.7862
  972MOL0     H28250   6.335  -0.000   8.359  0.6470  0.4254  0.7541
  972MOL0     H28251   6.224   0.203   8.268  0.2587 -0.9809 -0.7978
  972MOL0     H28252   6.146   0.236   8.422  0.3185 -0.1393 -0.8430
  972MOL0     H28253   6.094  -0.016   8.250  1.0126 -0.3629 -0.2374
  972MOL0     H28254   6.006   0.021   8.400 -0.8205 -0.7670 -0.4432
  972MOL0     H28255   5.885   0.084   8.173 -1.7345  0.9131 -0.4279
  972MOL0     H28256   5.999   0.213   8.164  1.1079  1.0378  0.8034
  972MOL0     H28257   5.738   0.050   8.422  0.2351 -0.9214 -1.5845
  972MOL0     H28258   5.634   0.299   8.687  0.1035 -0.2686 -0.1300
  972MOL0     H28259   5.594   0.140   8.627 -0.8609 -1.1682 -0.7282
  972MOL0     H28260   5.414   0.221   8.497 -0.8020  2.2655 -0.7001
  972MOL0     H28261   5.462   0.391   8.506 -2.1860  0.6314 -0.4646
  972MOL0     H28262   5.374   0.201   8.721  0.6449 -0.1300  1.3058
  972MOL0     H28263   5.412   0.355   8.769 -1.3549 -3.9661  3.0620
  972MOL0     H28264   5.199   0.296   8.558 -0.0622  4.5848 -2.9944
  972MOL0     H28265   5.221   0.454   8.646  1.2926 -0.1052  0.0168
  972MOL0     H28266   4.984   0.199   8.930  1.2484  1.4957 -0.5688
  972MOL0     H28267   4.745   0.198   8.926  0.8606 -0.7973  0.5521
  972MOL0     H28268   4.388   0.340   9.071 -1.2498  5.5657 -0.1342
  972MOL0     H28269   4.140   0.342   9.106  0.6497  1.9682 -0.2137
  972MOL0     H28270   3.912   0.466   9.059 -1.4227 -0.3548  2.4219
  972MOL0     H28271   3.925   0.279   9.096  0.6801 -1.1976 -1.5001
  972MOL0     H28272   3.719   0.269   8.960 -4.5921 -1.1382  4.0007
  972MOL0     H28273   3.712   0.442   8.942  1.7672 -0.1861  0.0487
  972MOL0     H28274   3.689   0.502   9.158  0.3477 -0.2356  0.8594
  972MOL0     H28275   3.711   0.335   9.214 -1.6177  0.3007  0.1978
  972MOL0     H28276   3.505   0.430   9.011  2.1922 -1.5167 -0.3530
  972MOL0     H28277   3.513   0.270   9.074 -0.1908  0.1685 -0.7140
  972MOL0     H28278   3.471   0.520   9.260  2.3011  0.1342 -0.6869
  972MOL0     H28279   3.430   0.338   9.279  3.1758 -0.4840 -0.5027
  972MOL0     H28280   3.260   0.374   9.102  0.3425 -0.4671 -0.0325
  972MOL0     H28281   3.292   0.544   9.101 -0.5513  2.5160  2.7425
  972MOL0     H28282   3.252   0.462   9.384 -1.4156  3.6227  2.3005
  972MOL0     H28283   3.200   0.601   9.296  0.7265 -0.3281  2.6699
  972MOL0     H28284   3.027   0.401   9.378  0.3685  1.0783 -0.3012
  972MOL0     H28285   3.080   0.310   9.247 -0.9483 -0.9294  0.8718
  972MOL0     H28286   4.077   0.265   8.698  0.1329 -0.8498  0.6643
  972MOL0     H28287   4.325   0.227   8.661 -2.5524 -0.7280 -0.3530
  972MOL0     H28288   4.754   0.425   8.554  3.0651  1.9017 -1.0750
  972MOL0     H28289   4.989   0.397   8.538  1.7851 -2.0300  0.5313
  972MOL0     H28290   6.837   0.448   8.206 -0.4103  3.0740 -0.5209
  972MOL0     H28291   7.061   0.524   8.111 -1.0807 -0.5056 -0.7275
  972MOL0     H28292   7.527   0.562   8.320  0.5034  0.5887 -0.6828
  972MOL0     H28293   7.749   0.653   8.320 -0.3397 -0.5721  0.8527
  972MOL0     H28294   7.868   0.683   7.927  1.6561  3.2138 -1.0690
  972MOL0     H28295   7.914   0.582   8.069  1.4481 -0.2914  0.3666
  972MOL0     H28296   8.115   0.763   8.091  0.1117  2.0695 -0.5494
  972MOL0     H28297   8.113   0.655   7.951  2.4763  1.5150  0.5316
  972MOL0     H28298   7.997   0.930   7.945  0.0792  0.9751  1.5961
  972MOL0     H28299   8.020   0.815   7.811 -1.2189  3.2038  0.2235
  972MOL0     H28300   8.262   0.909   7.977  0.3691  2.0808 -0.3722
  972MOL0     H28301   8.258   0.834   7.820  0.0655  0.1419 -0.6716
  972MOL0     H28302   8.237   1.226   7.693 -0.3890 -0.0858 -1.0686
  972MOL0     H28303   7.677   0.851   7.938  2.2082  1.2467  0.7084
  972MOL0     H28304   7.448   0.774   7.945  1.0239 -2.9910 -1.9390
  973MOL0     O28305   0.868  10.386   1.216 -0.4978 -0.4430 -0.1342
  973MOL0     C28306   0.911  10.496   1.177 -0.0205 -0.1137  0.0219
  973MOL0     O28307   0.828  10.601   1.134 -0.6441 -0.1487 -0.0474
  973MOL0     C28308   0.700  10.562   1.120  0.6349 -1.4658 -0.4549
  973MOL0     C28309   0.606  10.538   1.219 -0.6644 -0.2175  0.2615
  973MOL0     C28310   0.478  10.493   1.197  1.0885 -0.2957 -0.2595
  973MOL0     C28311   0.433  10.479   1.067  0.3253  0.3111 -0.2259
  973MOL0     O28312   0.304  10.425   1.056  0.4945 -0.7833 -0.0215
  973MOL0     C28313   0.235  10.420   0.933 -0.4713  0.0072 -0.2461
  973MOL0     C28314   0.102  10.348   0.947 -0.0925  1.1221 -0.1392
  973MOL0     C28315   0.025  10.412   1.054  0.2941 -0.3974 -0.2453
  973MOL0     C28316  -0.121  10.380   1.029  0.3389  0.2057 -0.4014
  973MOL0     C28317  -0.218  10.439   1.132 -1.1181 -0.2185 -0.0128
  973MOL0     C28318  -0.361  10.383   1.123  0.4540  0.2723  0.0494
  973MOL0     C28319  -0.454  10.460   1.214 -0.2616  1.0434 -0.0221
  973MOL0     C28320  -0.590  10.394   1.202  0.4381 -0.4969  0.3792
  973MOL0     N28321  -0.685  10.472   1.272 -0.4945 -0.0416  1.1735
  973MOL0     C28322  -0.724  10.459   1.404 -0.2873 -0.4037 -0.1266
  973MOL0     C28323  -0.813  10.557   1.427  0.0415  0.6539 -0.5645
  973MOL0     C28324  -0.873  10.590   1.555  0.0877 -0.1027  0.0467
  973MOL0     C28325  -1.006  10.521   1.573  0.6829 -0.0018 -0.2605
  973MOL0     C28326  -1.103  10.539   1.458 -0.2820 -0.3438 -0.5920
  973MOL0     C28327  -1.214  10.426   1.467  0.2897 -0.4021 -0.2803
  973MOL0     O28328  -1.314  10.463   1.369 -0.0478  0.0206 -0.3564
  973MOL0     C28329  -1.437  10.405   1.375  0.2067 -0.0963  0.4850
  973MOL0     C28330  -1.473  10.278   1.429 -0.0681 -0.4627 -0.3213
  973MOL0     C28331  -1.609  10.239   1.441  0.0060  0.2904  0.3317
  973MOL0     C28332  -1.714  10.329   1.400  1.5786  0.6891  0.4219
  973MOL0     C28333  -1.865  10.304   1.420  0.4166 -0.1918 -0.5342
  973MOL0     O28334  -1.954  10.399   1.394 -0.7070 -0.1702  0.1195
  973MOL0     C28335  -2.091  10.383   1.404  0.3527  0.7765 -0.7536
  973MOL0     C28336  -2.161  10.486   1.457  0.3544  0.4078  0.4975
  973MOL0     C28337  -2.304  10.485   1.485 -0.5156 -0.5271  0.3031
  973MOL0     C28338  -2.374  10.367   1.445  0.9128  0.0850 -0.0760
  973MOL0     O28339  -2.507  10.348   1.474  1.1734 -0.1629  0.2911
  973MOL0     C28340  -2.542  10.372   1.615  0.2247 -1.4485 -0.7473
  973MOL0     C28341  -2.692  10.347   1.618 -1.0426 -0.9465 -1.1605
  973MOL0     C28342  -2.722  10.193   1.593 -0.0155 -0.2447  0.7648
  973MOL0     C28343  -2.880  10.187   1.579  0.4868  0.7883  1.0329
  973MOL0     C28344  -2.920  10.044   1.550  0.7264  0.7518 -0.0615
  973MOL0     C28345  -3.073  10.020   1.526  0.1146  0.5457  0.5427
  973MOL0     C28346  -3.088   9.871   1.497  0.3451  0.3665  0.3845
  973MOL0     C28347  -3.230   9.824   1.486  0.3646 -0.0802  0.1170
  973MOL0    Cl28348  -3.249   9.719   1.328 -0.2563  0.1211  0.1602
  973MOL0     C28349  -2.303  10.256   1.391  0.4420 -0.9741 -0.4986
  973MOL0     C28350  -2.169  10.265   1.378 -0.8290 -0.5084 -0.0636
  973MOL0     O28351  -1.893  10.190   1.446 -0.3771 -0.1582 -0.5195
  973MOL0     C28352  -1.676  10.456   1.343 -0.7145  0.4944  0.4731
  973MOL0     C28353  -1.541  10.486   1.333 -1.1260  0.3544  0.5172
  973MOL0     N28354  -0.818  10.647   1.317 -0.4121  0.3603 -0.1109
  973MOL0     N28355  -0.748  10.588   1.221 -0.4576  0.3877  0.1480
  973MOL0     C28356   0.528  10.512   0.968  0.5950  0.7334  0.2022
  973MOL0     C28357   0.656  10.545   0.990 -0.7481  0.5324 -0.1573
  973MOL0     C28358   1.053  10.527   1.212  0.3798  0.8594 -0.3269
  973MOL0     C28359   1.153  10.434   1.241 -0.8495 -0.7263 -0.6444
  973MOL0     C28360   1.287  10.462   1.277  0.0135  0.8221 -0.4303
  973MOL0     C28361   1.329  10.596   1.275  0.5892  0.2618 -0.0497
  973MOL0     O28362   1.461  10.642   1.285 -0.0179 -0.1674  0.5732
  973MOL0     C28363   1.563  10.535   1.292  0.3142 -0.9339 -0.0377
  973MOL0     C28364   1.685  10.594   1.221 -0.3774 -0.0419  0.0693
  973MOL0     C28365   1.739  10.704   1.302 -0.1366  0.3391 -0.0279
  973MOL0     C28366   1.884  10.722   1.265 -0.0908  0.0593  0.8216
  973MOL0     C28367   1.935  10.850   1.320 -0.3152  0.3444 -0.6305
  973MOL0     C28368   1.998  10.947   1.362  0.5737 -0.0111 -0.1460
  973MOL0     C28369   1.230  10.694   1.240 -0.3531  0.7014  0.2735
  973MOL0     C28370   1.099  10.658   1.213  0.0630  0.3499 -0.1574
  973MOL0     H28371   0.637  10.556   1.322 -2.3742  0.4106  0.7151
  973MOL0     H28372   0.409  10.482   1.280  1.8330 -0.8636  0.2916
  973MOL0     H28373   0.303  10.373   0.861  2.5369  3.4579  0.0750
  973MOL0     H28374   0.227  10.522   0.895  2.3968  1.1600  1.9052
  973MOL0     H28375   0.122  10.243   0.967  0.4157  1.2916  0.2478
  973MOL0     H28376   0.060  10.351   0.846 -1.0422 -3.0540 -0.0384
  973MOL0     H28377   0.036  10.520   1.047 -3.1750  0.1734  0.8468
  973MOL0     H28378   0.043  10.369   1.153  0.4041 -0.0568 -0.1199
  973MOL0     H28379  -0.153  10.409   0.929  1.5639 -0.9091 -1.1503
  973MOL0     H28380  -0.138  10.273   1.045 -1.4477  0.6583  1.0058
  973MOL0     H28381  -0.219  10.548   1.117  0.8984 -0.3753 -1.6619
  973MOL0     H28382  -0.176  10.403   1.227  0.4581 -0.3147 -0.7090
  973MOL0     H28383  -0.348  10.276   1.140  4.1701  0.5130 -0.4286
  973MOL0     H28384  -0.405  10.395   1.023  2.3962 -1.1655 -1.0388
  973MOL0     H28385  -0.426  10.445   1.318  1.4845  0.1320 -0.5895
  973MOL0     H28386  -0.470  10.566   1.193  1.1211  1.4245  0.7583
  973MOL0     H28387  -0.601  10.289   1.230 -0.3906 -0.1981  1.2152
  973MOL0     H28388  -0.620  10.410   1.098  0.3457  2.1865  0.7453
  973MOL0     H28389  -0.697  10.376   1.468 -2.3378 -0.8146  0.2508
  973MOL0     H28390  -0.873  10.698   1.577  1.0879 -0.4652  2.0967
  973MOL0     H28391  -0.802  10.564   1.634  0.1246 -1.5001 -0.4251
  973MOL0     H28392  -1.052  10.543   1.670 -1.0671 -2.5209 -0.4450
  973MOL0     H28393  -0.983  10.414   1.578  0.8890 -0.0036 -1.0937
  973MOL0     H28394  -1.141  10.638   1.483  1.6805  0.5114 -0.8420
  973MOL0     H28395  -1.055  10.535   1.360 -0.5794  1.5997 -0.8499
  973MOL0     H28396  -1.277  10.423   1.556 -2.0117 -1.4263 -1.8421
  973MOL0     H28397  -1.163  10.331   1.448  0.7385 -0.2576  0.1843
  973MOL0     H28398  -1.383  10.223   1.454 -0.5614 -1.1893 -0.1205
  973MOL0     H28399  -1.647  10.144   1.476 -1.6956  0.5669 -0.6928
  973MOL0     H28400  -2.104  10.577   1.468  2.6373 -0.7724 -0.8080
  973MOL0     H28401  -2.351  10.577   1.518 -1.9735 -0.8999 -0.6385
  973MOL0     H28402  -2.526  10.478   1.638 -2.0364 -0.8507 -1.5922
  973MOL0     H28403  -2.483  10.307   1.679  0.1053 -2.0487 -1.2405
  973MOL0     H28404  -2.742  10.416   1.550  0.9759  3.1336  1.0544
  973MOL0     H28405  -2.711  10.375   1.722  0.7724  2.2645 -1.5463
  973MOL0     H28406  -2.691  10.131   1.678  0.3909  0.8991  1.4823
  973MOL0     H28407  -2.672  10.165   1.500  1.5747 -1.9528  2.0552
  973MOL0     H28408  -2.932  10.230   1.666  0.3453  0.0371  1.3220
  973MOL0     H28409  -2.903  10.242   1.487 -0.3572 -1.2222 -0.0098
  973MOL0     H28410  -2.892   9.984   1.637  2.4114  1.0244 -0.3939
  973MOL0     H28411  -2.869  10.006   1.461 -1.6595 -0.8975 -0.8280
  973MOL0     H28412  -3.093  10.067   1.429  2.8821  2.5211  0.8021
  973MOL0     H28413  -3.129  10.049   1.616  1.6867 -1.7503  2.3669
  973MOL0     H28414  -3.041   9.852   1.400  0.5098 -0.2153  0.5690
  973MOL0     H28415  -3.040   9.814   1.578  0.0894  1.1569  1.1041
  973MOL0     H28416  -3.301   9.908   1.491  2.0920  1.3427  2.5598
  973MOL0     H28417  -3.269   9.774   1.575 -1.2624  1.7729  0.5306
  973MOL0     H28418  -2.356  10.162   1.380 -1.0664 -0.5451  2.1330
  973MOL0     H28419  -2.113  10.174   1.356  0.9434 -0.0103  2.1091
  973MOL0     H28420  -1.747  10.535   1.325 -1.0160 -0.1919 -1.6002
  973MOL0     H28421  -1.516  10.587   1.302  1.0075 -1.0541 -2.9335
  973MOL0     H28422   0.492  10.498   0.867  0.7706 -1.8469  0.4362
  973MOL0     H28423   0.705  10.578   0.898 -0.6185  1.9763  0.3979
  973MOL0     H28424   1.125  10.329   1.243  1.4759 -1.4113  1.1152
  973MOL0     H28425   1.347  10.375   1.302 -2.3120 -0.3254  1.6471
  973MOL0     H28426   1.547  10.442   1.238  0.6071 -0.8385 -0.2916
  973MOL0     H28427   1.570  10.512   1.399 -1.8208  0.3982  0.4582
  973MOL0     H28428   1.764  10.518   1.216  2.3702  2.6386 -4.4716
  973MOL0     H28429   1.674  10.631   1.118  3.5018  0.4259 -0.3045
  973MOL0     H28430   1.719  10.690   1.408  0.8741 -1.3888 -0.0319
  973MOL0     H28431   1.683  10.790   1.263 -0.1380 -0.4005 -1.7445
  973MOL0     H28432   1.953  10.658   1.321  2.4540  2.0404  0.1201
  973MOL0     H28433   1.903  10.717   1.157 -0.5623 -0.2803  0.7479
  973MOL0     H28434   2.066  11.019   1.403  0.2163 -0.6768  1.7118
  973MOL0     H28435   1.272  10.789   1.210  0.1367 -0.0584 -1.5787
  973MOL0     H28436   1.028  10.737   1.191 -0.8561 -1.0187 -2.4582
  974MOL0     O28437   4.959   2.812   6.762 -0.1531 -0.4734 -0.1623
  974MOL0     C28438   5.053   2.869   6.708 -0.8270  0.1418  0.6391
  974MOL0     O28439   5.050   2.938   6.591 -0.0939 -0.3306 -0.2008
  974MOL0     C28440   4.934   2.994   6.550 -0.0487 -0.6748 -0.0505
  974MOL0     C28441   4.830   3.039   6.628  0.1657  0.2827  0.2620
  974MOL0     C28442   4.713   3.086   6.570  0.5321  1.2404  0.0491
  974MOL0     C28443   4.695   3.085   6.432 -0.8392  0.9547  0.3059
  974MOL0     O28444   4.568   3.098   6.384  0.4825  0.2219  0.0115
  974MOL0     C28445   4.546   3.113   6.238  0.0674  0.7601 -0.5058
  974MOL0     C28446   4.399   3.125   6.218  0.5354 -0.3592  0.1320
  974MOL0     C28447   4.325   2.993   6.242 -0.3328  0.1377  0.0069
  974MOL0     C28448   4.173   3.017   6.268 -0.2550  0.3262  0.1732
  974MOL0     C28449   4.102   3.081   6.155 -0.0425  0.0096  0.2836
  974MOL0     C28450   3.953   3.068   6.189  1.1152  0.5166 -0.0781
  974MOL0     C28451   3.915   3.185   6.294 -0.6911  0.6755  0.3970
  974MOL0     C28452   3.767   3.181   6.338  0.1323  0.0910  0.7792
  974MOL0     N28453   3.674   3.230   6.229 -0.9269 -0.2763 -0.0303
  974MOL0     C28454   3.596   3.338   6.257  0.3266  0.0968  0.2329
  974MOL0     C28455   3.504   3.334   6.151 -0.0776 -0.7439  0.4251
  974MOL0     C28456   3.409   3.444   6.118 -0.3935  0.0687  0.1419
  974MOL0     C28457   3.282   3.429   6.204  0.0991 -0.2323 -0.0185
  974MOL0     C28458   3.210   3.312   6.143 -0.0406  0.4668 -0.2513
  974MOL0     C28459   3.077   3.285   6.221 -0.7356 -0.0563 -0.0945
  974MOL0     O28460   2.993   3.178   6.159  0.0533  0.4168  0.7470
  974MOL0     C28461   2.873   3.149   6.210  0.7292  0.0550 -0.3838
  974MOL0     C28462   2.826   3.188   6.343 -0.7955  0.5610  0.2716
  974MOL0     C28463   2.699   3.143   6.390  0.3935 -0.0828 -0.6679
  974MOL0     C28464   2.620   3.072   6.300  0.6459 -0.5474  0.3033
  974MOL0     C28465   2.492   3.020   6.349 -0.4396 -0.2272  0.1901
  974MOL0     O28466   2.450   3.074   6.465 -0.2405 -0.0394  0.6651
  974MOL0     C28467   2.333   3.035   6.523 -1.1491  0.1382 -0.2092
  974MOL0     C28468   2.215   3.026   6.461  0.7491  0.1235  0.6311
  974MOL0     C28469   2.099   3.012   6.529  0.2883 -0.4672  0.6524
  974MOL0     C28470   2.094   2.995   6.671 -0.1088 -0.1053  0.0327
  974MOL0     O28471   1.988   2.974   6.757  0.0372  0.1013  0.0693
  974MOL0     C28472   1.864   2.949   6.681 -0.9383 -0.2476 -0.4099
  974MOL0     C28473   1.752   2.907   6.775 -0.1143 -0.2974 -0.0764
  974MOL0     C28474   1.613   2.898   6.712  0.2301 -0.4130  0.2380
  974MOL0     C28475   1.506   2.818   6.795  0.0895 -0.1463  1.3866
  974MOL0     C28476   1.375   2.891   6.807 -0.4401  0.2755  0.0506
  974MOL0     C28477   1.307   2.937   6.676 -1.0105 -0.0975 -0.5304
  974MOL0     C28478   1.239   2.825   6.595 -0.0658  0.4405  0.1422
  974MOL0     C28479   1.195   2.882   6.469 -0.3512 -0.7789 -0.2083
  974MOL0    Cl28480   1.085   2.753   6.410  0.0037  0.0945 -0.4181
  974MOL0     C28481   2.220   2.992   6.735  0.0788  0.2320 -0.2155
  974MOL0     C28482   2.339   3.008   6.662  0.0583  0.6878 -0.0132
  974MOL0     O28483   2.452   2.913   6.299 -0.3368 -0.1694  0.0324
  974MOL0     C28484   2.666   3.048   6.162  0.2106  0.1702 -0.1475
  974MOL0     C28485   2.795   3.083   6.124 -0.4822  0.9694 -0.0676
  974MOL0     N28486   3.522   3.218   6.076 -0.5030  0.9489  0.5613
  974MOL0     N28487   3.623   3.157   6.132  0.5538 -0.0985 -0.4364
  974MOL0     C28488   4.806   3.057   6.349  0.0776 -0.3058  0.7226
  974MOL0     C28489   4.925   3.016   6.408 -0.6533  0.2764 -0.0428
  974MOL0     C28490   5.193   2.833   6.760  0.0221  0.4099  0.2576
  974MOL0     C28491   5.209   2.734   6.862  0.1552  0.2958 -0.2102
  974MOL0     C28492   5.333   2.699   6.904  0.2715  0.0809  0.0443
  974MOL0     C28493   5.448   2.765   6.859  0.7564  0.2136  0.5242
  974MOL0     O28494   5.569   2.719   6.901  0.1282 -0.5322 -0.2648
  974MOL0     C28495   5.595   2.607   6.989 -0.1525 -0.4733  0.2356
  974MOL0     C28496   5.748   2.617   7.018  0.1878  0.2848 -0.0317
  974MOL0     C28497   5.821   2.576   6.889  1.1167 -0.0063  1.1024
  974MOL0     C28498   5.963   2.524   6.911  0.7784 -0.0543 -0.8981
  974MOL0     C28499   6.045   2.564   6.797  0.3568  0.2773  0.8959
  974MOL0     C28500   6.123   2.584   6.703  0.5077 -0.8776 -0.2461
  974MOL0     C28501   5.434   2.862   6.761 -0.5785  0.1873  0.4388
  974MOL0     C28502   5.312   2.901   6.705 -0.8734 -0.7567 -0.9865
  974MOL0     H28503   4.830   3.025   6.736 -0.3389 -1.7060  0.0399
  974MOL0     H28504   4.635   3.105   6.643  0.8986 -3.4697  1.9974
  974MOL0     H28505   4.579   3.024   6.185 -0.5388 -0.1587  0.6178
  974MOL0     H28506   4.595   3.203   6.199 -0.4648 -0.1585 -3.4907
  974MOL0     H28507   4.382   3.164   6.117  0.0236  0.9067  0.6836
  974MOL0     H28508   4.369   3.205   6.287  0.1468 -0.1825 -0.2389
  974MOL0     H28509   4.363   2.934   6.326 -2.7644 -0.7321  0.5958
  974MOL0     H28510   4.333   2.928   6.154 -1.9122 -1.9441  1.3116
  974MOL0     H28511   4.125   2.923   6.297 -1.5501  1.6877  2.7944
  974MOL0     H28512   4.160   3.085   6.353 -1.5223 -0.2945  0.4889
  974MOL0     H28513   4.107   3.027   6.060  1.0752 -0.4635  0.5903
  974MOL0     H28514   4.130   3.183   6.130 -0.2465 -0.0699 -0.2828
  974MOL0     H28515   3.919   2.968   6.215  1.1790  0.5209  0.0206
  974MOL0     H28516   3.898   3.082   6.095  0.6136 -0.3360  0.0795
  974MOL0     H28517   3.974   3.179   6.386 -1.5179  1.2776  0.9787
  974MOL0     H28518   3.936   3.275   6.236  1.9743 -0.8372 -1.1847
  974MOL0     H28519   3.758   3.236   6.432 -0.3731 -0.3369  0.9880
  974MOL0     H28520   3.742   3.077   6.364  1.6908 -0.6331 -0.4436
  974MOL0     H28521   3.608   3.411   6.336  2.1214 -0.3841  0.4402
  974MOL0     H28522   3.368   3.432   6.017 -2.3217  0.0986  0.8851
  974MOL0     H28523   3.457   3.539   6.140  1.9796 -1.6865  3.3371
  974MOL0     H28524   3.221   3.519   6.207 -0.8122 -0.8188 -0.3265
  974MOL0     H28525   3.307   3.404   6.308  0.9742 -4.5524 -1.0428
  974MOL0     H28526   3.183   3.335   6.040  1.8212  1.8417 -0.4956
  974MOL0     H28527   3.266   3.218   6.141 -2.0932 -0.7786 -1.3917
  974MOL0     H28528   3.020   3.376   6.242 -1.5649 -0.2434 -1.4347
  974MOL0     H28529   3.122   3.245   6.312  2.3738 -1.3986 -2.0459
  974MOL0     H28530   2.898   3.239   6.406  0.6582 -1.0970  0.0336
  974MOL0     H28531   2.689   3.166   6.496  1.0290 -0.3040 -0.5531
  974MOL0     H28532   2.206   3.063   6.359  0.6233  0.0479  0.6144
  974MOL0     H28533   2.009   3.016   6.468  2.1085  1.3478 -2.1366
  974MOL0     H28534   1.883   2.873   6.605 -2.0280 -0.6813 -0.2683
  974MOL0     H28535   1.834   3.038   6.625  1.0471  3.9097  4.3609
  974MOL0     H28536   1.757   2.964   6.868  2.2766 -1.9305  0.8942
  974MOL0     H28537   1.761   2.806   6.815 -0.8129  0.3814  1.9452
  974MOL0     H28538   1.617   2.850   6.615 -0.6706 -2.4127  1.1281
  974MOL0     H28539   1.583   3.003   6.701  1.5557 -0.1563 -1.2178
  974MOL0     H28540   1.498   2.716   6.757 -0.6386  0.7313 -1.0166
  974MOL0     H28541   1.548   2.804   6.895  0.6353 -3.7773  0.7860
  974MOL0     H28542   1.393   2.982   6.866  1.1904  2.0625 -2.9514
  974MOL0     H28543   1.306   2.827   6.863  2.7737 -1.8068  1.9983
  974MOL0     H28544   1.385   2.981   6.613 -1.5568  0.3829 -0.8761
  974MOL0     H28545   1.234   3.016   6.690 -1.8959 -0.8803 -0.6250
  974MOL0     H28546   1.294   2.732   6.577  1.8971  1.7894 -1.2534
  974MOL0     H28547   1.145   2.800   6.644  0.2110  0.1954  0.5539
  974MOL0     H28548   1.267   2.917   6.395 -1.4107  3.7349  0.5864
  974MOL0     H28549   1.137   2.970   6.499 -1.4300 -1.8017  0.8127
  974MOL0     H28550   2.220   2.967   6.840 -2.3467 -2.0129 -0.6280
  974MOL0     H28551   2.440   3.011   6.704 -0.3816  0.8168  1.0734
  974MOL0     H28552   2.603   3.004   6.085  0.4474  0.9233 -0.7742
  974MOL0     H28553   2.825   3.065   6.021 -1.0900  1.6251 -0.3729
  974MOL0     H28554   4.801   3.060   6.241 -3.1788 -1.9557  0.7247
  974MOL0     H28555   5.010   2.971   6.358  0.7771  0.2694  2.2471
  974MOL0     H28556   5.122   2.694   6.913  0.5807 -0.0463  0.2485
  974MOL0     H28557   5.344   2.621   6.979  0.6200  0.9583  0.9193
  974MOL0     H28558   5.565   2.507   6.955 -2.5320 -0.1986  1.3821
  974MOL0     H28559   5.541   2.625   7.082 -0.9493 -2.7504  0.2752
  974MOL0     H28560   5.769   2.720   7.047  1.4847  0.3047 -0.9627
  974MOL0     H28561   5.773   2.559   7.107  0.9548  2.4457  1.2352
  974MOL0     H28562   5.807   2.663   6.824  1.7510  1.5994  3.0197
  974MOL0     H28563   5.756   2.496   6.852 -1.8446  2.4954  0.3869
  974MOL0     H28564   6.003   2.590   6.989  0.0587  0.4147 -0.9195
  974MOL0     H28565   5.956   2.421   6.945 -2.5642 -0.5407 -2.6951
  974MOL0     H28566   6.197   2.602   6.628 -0.4535  0.6515 -0.8698
  974MOL0     H28567   5.528   2.915   6.744  0.2920 -1.8000 -1.3852
  974MOL0     H28568   5.305   2.969   6.621  0.0693  0.0097 -0.4635
  975MOL0     O28569   7.312   5.187   7.637 -0.3734 -0.3917  0.0361
  975MOL0     C28570   7.328   5.156   7.518  0.2572  0.3267 -0.9079
  975MOL0     O28571   7.227   5.113   7.435  0.1762 -0.6243  0.5570
  975MOL0     C28572   7.096   5.099   7.479 -0.3947  0.1107 -0.0143
  975MOL0     C28573   7.053   5.054   7.598 -0.5138  0.4604 -0.0245
  975MOL0     C28574   6.921   5.047   7.633 -0.1639  0.3281 -0.4082
  975MOL0     C28575   6.823   5.066   7.532  0.3751  0.5663  0.2556
  975MOL0     O28576   6.691   5.042   7.556  0.2873 -0.0062  0.1906
  975MOL0     C28577   6.594   5.091   7.460  0.6785  0.7925 -0.5017
  975MOL0     C28578   6.449   5.086   7.521 -0.0145 -0.2721  0.1163
  975MOL0     C28579   6.409   5.151   7.652  0.6160  0.0808 -0.5361
  975MOL0     C28580   6.276   5.090   7.707 -0.0912  0.8761 -0.3220
  975MOL0     C28581   6.302   4.948   7.768  0.3744 -0.9258 -0.1029
  975MOL0     C28582   6.189   4.912   7.866 -0.5471  1.3386 -0.0206
  975MOL0     C28583   6.050   4.928   7.805  0.8777  0.5862 -0.4069
  975MOL0     C28584   5.948   4.870   7.909 -0.3070 -0.4300 -0.3380
  975MOL0     N28585   5.811   4.884   7.876 -0.1673  0.4498  1.0120
  975MOL0     C28586   5.709   4.855   7.957  0.2729 -0.3395 -0.4790
  975MOL0     C28587   5.592   4.868   7.890 -0.1236  0.3603 -1.7898
  975MOL0     C28588   5.454   4.836   7.944  0.3553  0.0125  0.4365
  975MOL0     C28589   5.444   4.693   7.988  0.4984  0.1767 -0.3823
  975MOL0     C28590   5.310   4.636   8.034  1.1076 -1.0759  0.3088
  975MOL0     C28591   5.233   4.725   8.135 -0.0483 -0.7188  0.0827
  975MOL0     O28592   5.097   4.680   8.127 -0.2815  0.8760 -0.1368
  975MOL0     C28593   5.004   4.749   8.198 -0.0374  1.1104 -0.0149
  975MOL0     C28594   4.876   4.686   8.202  0.9841  1.2784  0.3449
  975MOL0     C28595   4.769   4.751   8.271 -0.6680 -0.1017  0.4964
  975MOL0     C28596   4.784   4.876   8.328  0.1341  0.0044 -0.6592
  975MOL0     C28597   4.680   4.926   8.412  0.1505  1.2237 -0.1577
  975MOL0     O28598   4.560   4.861   8.385 -0.6469  0.6619 -0.2482
  975MOL0     C28599   4.448   4.908   8.449 -0.9190  0.4983 -0.6890
  975MOL0     C28600   4.364   5.004   8.394  0.0086 -0.3481  0.2903
  975MOL0     C28601   4.259   5.057   8.471  0.3786  0.5324  0.1085
  975MOL0     C28602   4.226   5.010   8.594  0.4311 -0.7471 -0.3257
  975MOL0     O28603   4.104   5.060   8.640  0.3517  0.0619 -0.0646
  975MOL0     C28604   4.081   5.030   8.776  0.7855  0.2155  0.0226
  975MOL0     C28605   3.957   5.132   8.796 -0.5291  0.0842 -0.2336
  975MOL0     C28606   3.836   5.082   8.722  0.0992  0.6294  0.7670
  975MOL0     C28607   3.726   5.192   8.726  0.6291 -0.6948  0.5335
  975MOL0     C28608   3.596   5.135   8.658  0.0839 -0.9501  0.4281
  975MOL0     C28609   3.487   5.237   8.638 -0.0887 -0.3299 -0.5333
  975MOL0     C28610   3.422   5.258   8.779  0.5218  0.6063 -0.1623
  975MOL0     C28611   3.323   5.373   8.783  1.1493  0.2253 -1.0673
  975MOL0    Cl28612   3.275   5.383   8.960  0.0413  0.5462  0.1921
  975MOL0     C28613   4.313   4.914   8.652 -0.4110  0.4838  0.5588
  975MOL0     C28614   4.417   4.859   8.581  0.3579 -0.2756  0.8568
  975MOL0     O28615   4.697   5.020   8.490  0.5504 -0.1527  0.0936
  975MOL0     C28616   4.908   4.938   8.323  0.2019 -0.0944  0.2625
  975MOL0     C28617   5.017   4.872   8.262  0.3840  0.4037 -0.4280
  975MOL0     N28618   5.626   4.897   7.758 -0.2263 -0.0924  0.1066
  975MOL0     N28619   5.755   4.918   7.751  0.3155 -0.2184 -0.0843
  975MOL0     C28620   6.867   5.099   7.400  0.0784 -0.1335 -0.4972
  975MOL0     C28621   7.000   5.126   7.379 -0.1091 -0.4047  0.2271
  975MOL0     C28622   7.459   5.162   7.454 -0.1608 -0.4141  0.5709
  975MOL0     C28623   7.463   5.157   7.312 -0.1202  1.0374 -0.0997
  975MOL0     C28624   7.590   5.161   7.252  0.4385 -0.5027  0.4361
  975MOL0     C28625   7.708   5.160   7.321 -0.5096 -0.5347 -0.0268
  975MOL0     O28626   7.834   5.154   7.255  0.1428  0.1297 -0.1893
  975MOL0     C28627   7.948   5.203   7.315  0.6742  0.3265 -0.1169
  975MOL0     C28628   8.055   5.196   7.216 -0.5516  0.1993  0.2526
  975MOL0     C28629   8.189   5.240   7.262  0.4632 -0.6793  0.1073
  975MOL0     C28630   8.287   5.257   7.149 -0.2516  0.1703  0.0799
  975MOL0     C28631   8.415   5.304   7.203  0.4345  0.9858  1.0571
  975MOL0     C28632   8.529   5.329   7.242 -0.4846 -0.0755  0.0570
  975MOL0     C28633   7.702   5.167   7.467 -0.0004 -0.5633 -0.3362
  975MOL0     C28634   7.576   5.165   7.526 -0.2029  0.5167 -0.1693
  975MOL0     H28635   7.132   5.031   7.668 -1.8825 -0.1313  1.3996
  975MOL0     H28636   6.884   5.024   7.733 -0.7095 -2.7615 -1.2183
  975MOL0     H28637   6.593   5.028   7.370 -0.7925  0.4563 -0.2815
  975MOL0     H28638   6.618   5.193   7.431  0.5409  0.5332 -1.5786
  975MOL0     H28639   6.415   4.982   7.523  0.8061 -0.5638  3.0775
  975MOL0     H28640   6.385   5.129   7.444  0.9853  0.6922 -0.2079
  975MOL0     H28641   6.401   5.259   7.635  0.5053  0.1189 -0.2325
  975MOL0     H28642   6.488   5.126   7.724  0.1597 -0.8438 -0.3457
  975MOL0     H28643   6.239   5.150   7.790 -1.1068  0.7096 -0.6477
  975MOL0     H28644   6.196   5.080   7.634  2.5796  0.3258 -3.4022
  975MOL0     H28645   6.393   4.957   7.828 -0.4475 -0.2590  1.0822
  975MOL0     H28646   6.327   4.870   7.696 -2.6773 -0.6110 -1.6731
  975MOL0     H28647   6.192   4.959   7.964 -0.4380 -0.8432  1.0789
  975MOL0     H28648   6.202   4.806   7.889  2.9285  2.2639  3.2084
  975MOL0     H28649   6.022   5.031   7.781 -0.8874  0.4222  0.7457
  975MOL0     H28650   6.032   4.865   7.717 -1.0132 -1.3664  1.2770
  975MOL0     H28651   5.963   4.923   8.003  0.4290 -1.8005  0.3438
  975MOL0     H28652   5.978   4.765   7.923 -0.6182 -0.6269 -1.0851
  975MOL0     H28653   5.740   4.813   8.052  3.7176  0.8524 -0.9424
  975MOL0     H28654   5.380   4.873   7.872  1.6063  2.2002  0.1746
  975MOL0     H28655   5.434   4.878   8.042  0.6654 -1.4598  1.1589
  975MOL0     H28656   5.508   4.684   8.076  0.5523  0.6332 -0.3730
  975MOL0     H28657   5.485   4.627   7.911  2.3715 -0.0409  0.7416
  975MOL0     H28658   5.254   4.603   7.947 -1.4067 -0.4117  1.5559
  975MOL0     H28659   5.331   4.547   8.094  3.0336 -1.2503 -0.5583
  975MOL0     H28660   5.240   4.832   8.114 -4.0163  0.3695  3.1777
  975MOL0     H28661   5.275   4.717   8.236  0.7953 -1.0950 -0.2832
  975MOL0     H28662   4.875   4.586   8.161  3.3338  2.2444 -2.4149
  975MOL0     H28663   4.677   4.693   8.278 -1.7049  1.4841  0.7048
  975MOL0     H28664   4.377   5.033   8.290 -1.8881  1.6586  0.5487
  975MOL0     H28665   4.185   5.125   8.429 -2.7103 -0.8621  2.8232
  975MOL0     H28666   4.167   5.062   8.836  1.2295  2.4620 -1.6669
  975MOL0     H28667   4.057   4.924   8.792 -0.0474  0.7160  2.6226
  975MOL0     H28668   3.980   5.228   8.749 -2.2940  1.3018  1.2343
  975MOL0     H28669   3.950   5.145   8.904  4.1743  1.2794  0.1565
  975MOL0     H28670   3.792   4.987   8.755  1.2169 -1.7822 -3.7558
  975MOL0     H28671   3.858   5.056   8.618 -1.0655 -0.2385  0.7099
  975MOL0     H28672   3.696   5.203   8.831 -1.4032 -0.6836 -0.0253
  975MOL0     H28673   3.763   5.281   8.675 -1.5352 -0.6800 -1.1287
  975MOL0     H28674   3.562   5.049   8.718  0.7395 -1.9617 -0.6058
  975MOL0     H28675   3.611   5.097   8.557 -0.6472 -0.1710  0.0174
  975MOL0     H28676   3.411   5.186   8.578  0.6052 -1.2672 -0.6327
  975MOL0     H28677   3.520   5.329   8.589  0.8962 -0.1096  0.5065
  975MOL0     H28678   3.370   5.170   8.817  0.7940  0.8267  0.7564
  975MOL0     H28679   3.496   5.281   8.856  0.2325  0.1212  0.2668
  975MOL0     H28680   3.238   5.345   8.719  0.8254 -3.1837  0.5960
  975MOL0     H28681   3.363   5.468   8.747  1.3483  1.0151  1.1352
  975MOL0     H28682   4.282   4.870   8.746 -0.6792  0.1709  0.3243
  975MOL0     H28683   4.480   4.779   8.619 -0.0526 -2.1133 -2.0421
  975MOL0     H28684   4.926   5.029   8.379  1.5200  0.2406 -0.6648
  975MOL0     H28685   5.114   4.922   8.254  0.1971  0.4635 -3.4389
  975MOL0     H28686   6.804   5.111   7.312 -0.0688  1.7142 -0.1927
  975MOL0     H28687   7.044   5.163   7.287  3.4504  0.0257  1.9206
  975MOL0     H28688   7.375   5.154   7.248  1.0708 -2.0842 -1.7968
  975MOL0     H28689   7.613   5.172   7.146 -1.6984 -1.1749 -0.1610
  975MOL0     H28690   7.963   5.139   7.402 -0.0619  0.6977  0.2904
  975MOL0     H28691   7.935   5.304   7.355 -0.4435  0.6665 -1.3021
  975MOL0     H28692   8.060   5.090   7.189 -1.4000 -0.0037  0.8389
  975MOL0     H28693   8.027   5.261   7.132 -0.5725  0.2525  0.3009
  975MOL0     H28694   8.239   5.167   7.327  0.9223  0.0650  0.6031
  975MOL0     H28695   8.173   5.334   7.315  2.2542  0.0894 -0.6252
  975MOL0     H28696   8.302   5.172   7.082  1.1706  1.3026 -1.1237
  975MOL0     H28697   8.254   5.339   7.084 -0.1717  1.6109  1.7633
  975MOL0     H28698   8.630   5.352   7.271 -0.2539  0.8793 -1.3819
  975MOL0     H28699   7.783   5.154   7.537 -2.7635 -0.5608  3.1233
  975MOL0     H28700   7.574   5.142   7.632  1.7542  2.6959  0.4303
  976MOL0     O28701  10.897  10.532   8.264  0.1415 -0.2969 -0.0690
  976MOL0     C28702  10.955  10.562   8.365 -0.4947 -0.3246 -0.8111
  976MOL0     O28703  10.897  10.588   8.483  0.3206 -0.1048 -0.1355
  976MOL0     C28704  10.764  10.580   8.504  0.6754  0.1377  0.5337
  976MOL0     C28705  10.691  10.688   8.552 -0.1501  0.3992  0.4794
  976MOL0     C28706  10.551  10.672   8.583 -1.1381 -0.0995 -0.5516
  976MOL0     C28707  10.489  10.546   8.583  0.3044  0.3680 -0.6167
  976MOL0     O28708  10.368  10.538   8.651 -0.6286  0.6228 -0.7181
  976MOL0     C28709  10.283  10.423   8.607 -0.1486  0.0799 -0.7714
  976MOL0     C28710  10.138  10.459   8.670 -0.6933 -0.9276  0.0695
  976MOL0     C28711  10.032  10.360   8.651  0.2208 -0.5708 -0.0719
  976MOL0     C28712   9.907  10.385   8.751  0.3515 -1.2618  0.8548
  976MOL0     C28713   9.780  10.315   8.702 -0.6641  0.0964  0.6229
  976MOL0     C28714   9.666  10.334   8.802  0.0090 -1.1450 -1.0232
  976MOL0     C28715   9.537  10.266   8.753 -0.3135  0.4073  0.2409
  976MOL0     C28716   9.424  10.273   8.859 -0.0362 -0.4703 -0.4903
  976MOL0     N28717   9.392  10.410   8.901  0.1881  0.1516  0.8736
  976MOL0     C28718   9.274  10.468   8.859 -0.1655  0.2813 -0.2278
  976MOL0     C28719   9.258  10.581   8.923 -0.5334 -0.0428 -0.6775
  976MOL0     C28720   9.138  10.673   8.910 -0.5347  0.2754  0.5995
  976MOL0     C28721   9.125  10.734   8.770  0.0332  0.3866  0.5851
  976MOL0     C28722   9.000  10.836   8.763 -0.5122  0.4084 -0.5506
  976MOL0     C28723   8.871  10.758   8.747 -0.2501  0.4607  0.9041
  976MOL0     O28724   8.766  10.849   8.703 -0.1515 -0.1061 -0.4692
  976MOL0     C28725   8.651  10.783   8.678 -0.4942  0.3456  0.0555
  976MOL0     C28726   8.623  10.650   8.721 -0.0189 -0.2904  0.1388
  976MOL0     C28727   8.508  10.580   8.678 -0.0228 -0.7387  0.4133
  976MOL0     C28728   8.421  10.653   8.593 -0.7008 -0.3487 -0.7643
  976MOL0     C28729   8.294  10.588   8.554 -0.1476 -0.1815  0.6167
  976MOL0     O28730   8.240  10.495   8.642 -0.3116  0.2441  0.9314
  976MOL0     C28731   8.121  10.424   8.607  0.0321  0.2460 -0.9515
  976MOL0     C28732   8.010  10.480   8.544 -0.1166  0.2672  0.6001
  976MOL0     C28733   7.896  10.402   8.523 -0.1628  0.5335  0.4318
  976MOL0     C28734   7.898  10.267   8.569 -1.5104  0.3374 -0.4223
  976MOL0     O28735   7.802  10.181   8.540  0.4508 -0.4105  0.0902
  976MOL0     C28736   7.725  10.199   8.415  0.0630  0.5687 -0.5214
  976MOL0     C28737   7.678  10.061   8.358 -0.4550 -0.3864  0.6826
  976MOL0     C28738   7.784   9.991   8.269  0.4072 -0.3560 -0.7634
  976MOL0     C28739   7.775  10.036   8.131 -0.7885 -0.9500  0.0289
  976MOL0     C28740   7.905  10.003   8.051  0.5762 -0.2336 -0.3083
  976MOL0     C28741   7.941   9.858   8.019 -0.5266 -0.0085 -0.9867
  976MOL0     C28742   8.057   9.843   7.914 -0.0836  1.1438 -0.9340
  976MOL0     C28743   8.187   9.918   7.957 -0.6972  0.9551 -0.3839
  976MOL0    Cl28744   8.328   9.902   7.852 -0.2728 -0.1725  0.2255
  976MOL0     C28745   8.007  10.213   8.636  0.0741  0.0170 -0.2390
  976MOL0     C28746   8.119  10.297   8.649 -0.2374  0.7655 -0.2618
  976MOL0     O28747   8.243  10.629   8.447 -0.7425 -0.0793 -0.3817
  976MOL0     C28748   8.446  10.787   8.560 -1.0419  0.3148  0.0724
  976MOL0     C28749   8.565  10.852   8.601 -0.0162  0.7215  0.1087
  976MOL0     N28750   9.364  10.593   9.000 -0.2037  0.4850  0.6197
  976MOL0     N28751   9.448  10.500   8.987  0.7153 -0.3264  0.6555
  976MOL0     C28752  10.562  10.431   8.543  0.5964  0.3770 -0.0590
  976MOL0     C28753  10.698  10.450   8.504 -0.5913  0.4490  0.5742
  976MOL0     C28754  11.102  10.574   8.364  1.0223  0.5465  0.8648
  976MOL0     C28755  11.162  10.680   8.437 -0.7832 -0.3351 -0.5853
  976MOL0     C28756  11.295  10.713   8.409  0.4939 -0.2870  0.4060
  976MOL0     C28757  11.372  10.628   8.323 -0.1093  0.3516 -0.2190
  976MOL0     O28758  11.501  10.655   8.304  0.7435  0.1516  0.4206
  976MOL0     C28759  11.575  10.555   8.240 -0.3021 -0.0544 -0.6911
  976MOL0     C28760  11.718  10.602   8.263 -0.4284  0.0528  0.2941
  976MOL0     C28761  11.804  10.485   8.232  0.7192 -0.2797 -0.3389
  976MOL0     C28762  11.944  10.525   8.190 -0.3220 -0.2311 -0.8783
  976MOL0     C28763  12.007  10.603   8.301 -0.5472  0.1507  0.0226
  976MOL0     C28764  12.054  10.676   8.388 -0.8828  0.3930 -0.2292
  976MOL0     C28765  11.310  10.526   8.253  0.4056  0.0410 -0.4307
  976MOL0     C28766  11.172  10.501   8.273 -0.1309 -0.0254  1.3796
  976MOL0     H28767  10.743  10.784   8.556 -1.3036  1.1215 -0.9594
  976MOL0     H28768  10.493  10.755   8.621 -3.0628 -0.8086 -1.8141
  976MOL0     H28769  10.325  10.329   8.645 -2.8320 -0.9913 -0.2022
  976MOL0     H28770  10.273  10.410   8.499 -0.7656 -0.2869 -0.6798
  976MOL0     H28771  10.097  10.550   8.625  2.6957 -0.2663 -2.0304
  976MOL0     H28772  10.153  10.479   8.777  3.2160 -0.0361 -0.4891
  976MOL0     H28773  10.068  10.257   8.653  1.8945 -0.0051  0.7735
  976MOL0     H28774   9.989  10.387   8.554 -0.3540  1.9067  0.7907
  976MOL0     H28775   9.940  10.336   8.843  0.8037  0.2040  1.5109
  976MOL0     H28776   9.893  10.494   8.748 -1.4147 -1.4814  0.4352
  976MOL0     H28777   9.810  10.209   8.704 -2.8274 -0.5874 -0.2107
  976MOL0     H28778   9.753  10.349   8.602  2.3196  1.9732  0.3447
  976MOL0     H28779   9.642  10.441   8.805  0.6689 -1.0176  0.5884
  976MOL0     H28780   9.688  10.313   8.907 -1.4062  1.1484 -0.1958
  976MOL0     H28781   9.501  10.313   8.661  0.8091  1.4560  0.3147
  976MOL0     H28782   9.546  10.159   8.732 -1.7052 -0.4251  3.2970
  976MOL0     H28783   9.460  10.216   8.946 -2.4822 -0.8295  0.3724
  976MOL0     H28784   9.328  10.232   8.827 -1.2920  0.4578  1.8020
  976MOL0     H28785   9.195  10.434   8.793 -1.7375  1.7528  0.8050
  976MOL0     H28786   9.138  10.748   8.990 -0.3898  0.2630  0.6107
  976MOL0     H28787   9.048  10.612   8.924  0.3241 -0.6126  2.5345
  976MOL0     H28788   9.115  10.656   8.695  2.5275 -2.2465  2.7284
  976MOL0     H28789   9.216  10.794   8.759  1.7044 -1.6060  2.4672
  976MOL0     H28790   8.998  10.899   8.853  1.5438  4.4185 -3.0276
  976MOL0     H28791   9.007  10.909   8.682  0.0793 -1.0306 -1.8358
  976MOL0     H28792   8.847  10.695   8.834 -1.5530  1.3402  1.2157
  976MOL0     H28793   8.890  10.693   8.661 -2.5260  1.0799 -0.1492
  976MOL0     H28794   8.684  10.596   8.792 -0.1612 -2.0600 -1.0105
  976MOL0     H28795   8.483  10.480   8.712 -0.9680 -1.3881 -1.9441
  976MOL0     H28796   8.006  10.585   8.517  1.6162  0.0601 -0.5677
  976MOL0     H28797   7.809  10.445   8.475 -1.4271 -0.1703  2.0086
  976MOL0     H28798   7.778  10.255   8.337  1.6874 -0.3489 -0.1168
  976MOL0     H28799   7.628  10.241   8.444  0.0673  0.5847 -0.5299
  976MOL0     H28800   7.585  10.072   8.303  0.6479  0.9726 -1.0323
  976MOL0     H28801   7.649   9.996   8.441  1.9722 -1.2581  0.9278
  976MOL0     H28802   7.779   9.883   8.284 -1.0714 -0.0106  1.9076
  976MOL0     H28803   7.882  10.017   8.310 -0.4000  0.4840  0.7210
  976MOL0     H28804   7.686   9.989   8.087 -1.8883  2.1855 -1.3562
  976MOL0     H28805   7.765  10.145   8.125 -1.3375 -1.0794 -2.9325
  976MOL0     H28806   7.991  10.044   8.105 -1.3696  1.3257  1.8197
  976MOL0     H28807   7.897  10.066   7.963  0.3509  1.6866  1.0346
  976MOL0     H28808   7.853   9.806   7.978 -1.7985 -1.6593  3.3273
  976MOL0     H28809   7.952   9.793   8.106 -3.4751 -2.6431 -2.3506
  976MOL0     H28810   8.082   9.736   7.908  0.0423  0.6122  4.2077
  976MOL0     H28811   8.024   9.873   7.815 -1.7089 -0.5271 -0.9419
  976MOL0     H28812   8.210   9.876   8.055  1.6011  0.9865 -0.8502
  976MOL0     H28813   8.178  10.027   7.970 -0.8589  1.1149 -1.6356
  976MOL0     H28814   8.006  10.114   8.680 -0.3853  0.0850 -0.0843
  976MOL0     H28815   8.206  10.259   8.701 -0.1110 -0.5621 -1.3673
  976MOL0     H28816   8.371  10.849   8.511 -1.7642 -0.4640  0.1685
  976MOL0     H28817   8.587  10.957   8.586  1.6536  0.5225  1.0052
  976MOL0     H28818  10.526  10.328   8.547  3.6932 -0.7791  2.3848
  976MOL0     H28819  10.751  10.359   8.479 -1.4224  0.0098  0.4029
  976MOL0     H28820  11.116  10.734   8.518 -0.4211  1.6482 -1.6310
  976MOL0     H28821  11.342  10.802   8.450  1.7093  0.8625 -3.1433
  976MOL0     H28822  11.554  10.546   8.133 -1.1489 -0.8074 -0.4731
  976MOL0     H28823  11.566  10.455   8.282  0.5885  0.7032  1.4127
  976MOL0     H28824  11.732  10.692   8.203 -5.3691  0.2371 -0.9540
  976MOL0     H28825  11.727  10.637   8.366  0.9471  0.1250  0.1760
  976MOL0     H28826  11.764  10.435   8.143 -1.0891  2.6027 -1.2771
  976MOL0     H28827  11.796  10.424   8.323  0.9048 -0.3806 -0.3887
  976MOL0     H28828  11.994  10.430   8.170 -0.2761  0.0076 -1.9304
  976MOL0     H28829  11.943  10.587   8.100  0.0315  1.0137 -0.0433
  976MOL0     H28830  12.103  10.744   8.454 -1.0587  0.3307 -0.0340
  976MOL0     H28831  11.358  10.463   8.180 -0.5995 -2.5480  1.0035
  976MOL0     H28832  11.123  10.430   8.208  0.1712  0.3591  0.7283
  977MOL0     O28833   5.326   8.552   1.386 -0.2004 -0.0575  0.1191
  977MOL0     C28834   5.395   8.614   1.464 -0.7370 -0.0230 -0.5213
  977MOL0     O28835   5.349   8.729   1.530  0.0741  0.7911  0.2408
  977MOL0     C28836   5.216   8.734   1.529 -0.3796  0.1144 -0.1775
  977MOL0     C28837   5.156   8.726   1.657  0.1843 -0.2475 -0.2804
  977MOL0     C28838   5.009   8.728   1.666 -0.6164 -0.0574 -0.1165
  977MOL0     C28839   4.930   8.746   1.545 -1.2820  0.3073 -0.6702
  977MOL0     O28840   4.791   8.751   1.540 -0.4782 -0.2094  1.0969
  977MOL0     C28841   4.714   8.678   1.638 -0.6937 -0.4115 -1.5340
  977MOL0     C28842   4.742   8.527   1.656  0.6378 -0.1250  0.4079
  977MOL0     C28843   4.611   8.442   1.671 -0.8927  0.0352 -0.2369
  977MOL0     C28844   4.531   8.486   1.802 -0.2478  0.9598  0.4368
  977MOL0     C28845   4.419   8.392   1.841 -0.3909 -0.4192 -0.3831
  977MOL0     C28846   4.475   8.254   1.886 -0.2637  0.3854  0.1461
  977MOL0     C28847   4.364   8.156   1.917  0.3112 -1.3146  0.0793
  977MOL0     C28848   4.414   8.018   1.942 -0.1007 -0.2397  0.3981
  977MOL0     N28849   4.417   7.940   1.818 -0.0104 -0.3498  0.1081
  977MOL0     C28850   4.531   7.899   1.744 -0.2786 -0.0138  0.3342
  977MOL0     C28851   4.469   7.858   1.625 -0.8247  0.7777 -0.5774
  977MOL0     C28852   4.530   7.824   1.485 -0.1811 -0.1526 -0.3920
  977MOL0     C28853   4.668   7.888   1.467  0.1584 -0.2332  0.8609
  977MOL0     C28854   4.668   8.044   1.469 -0.7990  0.1003  0.4943
  977MOL0     C28855   4.812   8.113   1.485 -0.6392  0.4893  0.3576
  977MOL0     O28856   4.848   8.103   1.621 -0.0835  0.3899 -0.2065
  977MOL0     C28857   4.977   8.153   1.648 -0.0138 -0.3837 -0.2533
  977MOL0     C28858   5.054   8.071   1.738  0.9925 -0.5702 -0.6298
  977MOL0     C28859   5.181   8.116   1.772 -0.5487 -0.2807 -0.4952
  977MOL0     C28860   5.237   8.236   1.720 -0.3794  0.0077  0.6420
  977MOL0     C28861   5.365   8.275   1.781 -0.8137  0.6037  0.4197
  977MOL0     O28862   5.450   8.176   1.815 -0.3943 -0.0085 -0.3259
  977MOL0     C28863   5.566   8.208   1.882  0.2230 -0.1978  0.5642
  977MOL0     C28864   5.664   8.285   1.819  0.2160 -0.8591  0.2069
  977MOL0     C28865   5.794   8.303   1.883 -0.1710  0.2140 -0.2654
  977MOL0     C28866   5.823   8.246   2.004  0.9912  0.2977  0.2275
  977MOL0     O28867   5.937   8.261   2.064 -0.0300  0.0986 -0.7319
  977MOL0     C28868   6.004   8.144   2.083  0.7834  0.0235 -0.7793
  977MOL0     C28869   6.145   8.195   2.113 -0.7785  0.6062  0.3918
  977MOL0     C28870   6.244   8.077   2.107  0.6636 -0.4595  0.2985
  977MOL0     C28871   6.386   8.124   2.142 -0.0633  0.1425 -0.3078
  977MOL0     C28872   6.489   8.010   2.127  0.4166  1.3773  0.2438
  977MOL0     C28873   6.614   8.050   2.049  0.4859 -0.4121 -0.2917
  977MOL0     C28874   6.687   7.925   2.000  0.2139 -0.4041 -0.7964
  977MOL0     C28875   6.830   7.950   1.953  0.9179 -0.5190 -0.5578
  977MOL0    Cl28876   6.926   8.001   2.101  0.5581 -0.4002  0.0972
  977MOL0     C28877   5.723   8.168   2.060 -0.4740  0.0949 -0.0925
  977MOL0     C28878   5.600   8.151   2.003 -1.0746 -0.9823 -0.2282
  977MOL0     O28879   5.390   8.394   1.792  0.1115 -0.5650 -0.3321
  977MOL0     C28880   5.158   8.317   1.639 -0.0336  0.0358 -0.6200
  977MOL0     C28881   5.025   8.284   1.605 -0.0373  0.6648 -0.8346
  977MOL0     N28882   4.331   7.866   1.643  0.4651  0.4230 -0.6863
  977MOL0     N28883   4.301   7.922   1.758 -0.2948 -0.2510 -0.2880
  977MOL0     C28884   4.999   8.769   1.424 -0.4202  0.1278 -0.0112
  977MOL0     C28885   5.136   8.761   1.417  0.6911  0.7126  0.5668
  977MOL0     C28886   5.535   8.562   1.488  0.9489 -1.2760  0.1854
  977MOL0     C28887   5.619   8.635   1.574 -0.3833 -0.0006 -0.2382
  977MOL0     C28888   5.745   8.579   1.600 -0.5035  0.9061 -0.2955
  977MOL0     C28889   5.787   8.459   1.542 -0.1137 -0.1081 -0.1716
  977MOL0     O28890   5.908   8.416   1.592  0.8029 -0.6590 -0.2952
  977MOL0     C28891   5.953   8.292   1.548 -0.1240  0.8351 -0.6743
  977MOL0     C28892   6.101   8.280   1.597 -0.4238 -1.1629 -0.3761
  977MOL0     C28893   6.140   8.136   1.600 -0.1786 -0.0779  1.0811
  977MOL0     C28894   6.296   8.133   1.628 -0.0804 -0.3920 -0.6186
  977MOL0     C28895   6.335   7.992   1.634 -0.0883  0.9050 -0.6416
  977MOL0     C28896   6.372   7.877   1.650  0.6184  0.1576  0.4793
  977MOL0     C28897   5.700   8.406   1.435  0.4134  1.2388  0.3734
  977MOL0     C28898   5.579   8.456   1.415 -0.3101 -0.0614 -0.9267
  977MOL0     H28899   5.226   8.722   1.739  1.7687  3.8825 -1.1733
  977MOL0     H28900   4.958   8.693   1.756  4.3391 -1.1750  2.6532
  977MOL0     H28901   4.608   8.701   1.618  0.1594  4.9550 -1.5615
  977MOL0     H28902   4.728   8.725   1.736  4.8751  0.4185 -2.4273
  977MOL0     H28903   4.820   8.490   1.723 -1.0311 -1.1920  1.8654
  977MOL0     H28904   4.781   8.500   1.557  0.9167  1.0387  0.1816
  977MOL0     H28905   4.630   8.334   1.675 -2.9966 -0.3799  3.8312
  977MOL0     H28906   4.546   8.458   1.585 -0.1264 -1.0143 -1.0491
  977MOL0     H28907   4.597   8.491   1.889 -2.3098  0.5136  2.1051
  977MOL0     H28908   4.492   8.587   1.783  0.4578  0.5809 -4.2026
  977MOL0     H28909   4.356   8.384   1.751  1.1237 -1.2115 -1.4236
  977MOL0     H28910   4.362   8.433   1.924  0.4841 -0.6184  0.3321
  977MOL0     H28911   4.541   8.268   1.973 -1.7295  0.2065  1.3345
  977MOL0     H28912   4.537   8.215   1.806  1.0390  2.4442  0.0703
  977MOL0     H28913   4.325   8.195   2.012  0.5893  2.5246 -1.2131
  977MOL0     H28914   4.288   8.165   1.839 -0.9182 -3.2962  0.9732
  977MOL0     H28915   4.357   7.955   2.010  0.9835  0.1377  1.6961
  977MOL0     H28916   4.512   8.018   1.990 -1.0510 -0.4153  2.4160
  977MOL0     H28917   4.637   7.905   1.764 -0.4991 -0.2901  1.6745
  977MOL0     H28918   4.464   7.847   1.400 -0.6764 -2.3582 -0.6672
  977MOL0     H28919   4.542   7.716   1.481 -0.6325 -0.1767 -2.4125
  977MOL0     H28920   4.714   7.847   1.377 -0.2996 -1.5829  1.2247
  977MOL0     H28921   4.737   7.846   1.540  0.5214 -0.7254  0.2450
  977MOL0     H28922   4.610   8.099   1.393  2.0448  1.8613 -0.5696
  977MOL0     H28923   4.628   8.077   1.565 -0.1556 -1.8894  1.4771
  977MOL0     H28924   4.803   8.219   1.461  1.7781  0.5931 -0.3452
  977MOL0     H28925   4.888   8.066   1.421 -2.5756 -0.4033 -1.4044
  977MOL0     H28926   5.015   7.979   1.780  0.1790  0.3255  0.6192
  977MOL0     H28927   5.240   8.066   1.849 -2.0995  0.4015  1.2129
  977MOL0     H28928   5.636   8.331   1.725  1.6092  1.3619  0.8086
  977MOL0     H28929   5.869   8.366   1.835 -1.0363 -0.9244 -3.3538
  977MOL0     H28930   5.991   8.074   1.999 -0.9885 -0.8325  0.1499
  977MOL0     H28931   5.966   8.094   2.173  3.7685  0.5373  0.8865
  977MOL0     H28932   6.140   8.227   2.217 -0.9043 -0.1502  0.6256
  977MOL0     H28933   6.171   8.275   2.043  0.6749 -0.4199 -0.2984
  977MOL0     H28934   6.241   8.026   2.010  0.6068 -2.5646  1.3518
  977MOL0     H28935   6.204   8.002   2.176  0.7216 -2.0700 -1.3210
  977MOL0     H28936   6.420   8.208   2.081  2.3762 -0.0468  0.6746
  977MOL0     H28937   6.390   8.162   2.244 -2.9314  0.3236 -0.1709
  977MOL0     H28938   6.447   7.925   2.073  3.4498 -0.0722 -0.0641
  977MOL0     H28939   6.518   7.979   2.228 -0.4869  0.2613  0.1933
  977MOL0     H28940   6.669   8.111   2.122 -0.7814  1.5792 -0.9257
  977MOL0     H28941   6.600   8.117   1.964  0.2562 -1.1350 -0.8349
  977MOL0     H28942   6.688   7.846   2.075  0.6146 -0.2804 -0.6680
  977MOL0     H28943   6.627   7.890   1.916 -0.5256 -1.1084  0.0162
  977MOL0     H28944   6.811   8.027   1.878 -0.6614  0.3697  0.6691
  977MOL0     H28945   6.879   7.869   1.899  2.8268 -0.1326  0.5194
  977MOL0     H28946   5.735   8.126   2.159 -1.0059 -2.2005 -0.9247
  977MOL0     H28947   5.523   8.091   2.051 -0.1449 -2.8636 -0.9453
  977MOL0     H28948   5.189   8.418   1.616  0.5583  0.0614  0.2501
  977MOL0     H28949   4.965   8.349   1.542 -0.9850  1.5393  0.8615
  977MOL0     H28950   4.950   8.779   1.327 -3.7231  3.3448  1.7383
  977MOL0     H28951   5.193   8.774   1.326 -0.8983 -0.2697 -0.6190
  977MOL0     H28952   5.585   8.725   1.625 -2.8960 -0.7875 -0.3551
  977MOL0     H28953   5.828   8.609   1.662  0.2546  0.1341 -0.9097
  977MOL0     H28954   5.959   8.282   1.439 -0.5473 -0.1632 -0.6100
  977MOL0     H28955   5.886   8.214   1.584 -0.7130  0.7229 -1.9627
  977MOL0     H28956   6.167   8.334   1.529 -0.6128 -1.7000 -0.9973
  977MOL0     H28957   6.117   8.318   1.698  1.5523 -0.2491 -0.9880
  977MOL0     H28958   6.122   8.091   1.502 -3.0643 -1.6641  2.2227
  977MOL0     H28959   6.082   8.076   1.672  0.8662 -0.7078  1.4216
  977MOL0     H28960   6.351   8.191   1.553 -0.4407  0.0422 -0.5510
  977MOL0     H28961   6.326   8.175   1.724  3.5104 -0.1062 -1.7269
  977MOL0     H28962   6.407   7.778   1.674 -1.9093 -0.4077  2.2442
  977MOL0     H28963   5.722   8.318   1.376  1.1805 -0.2251  2.6925
  977MOL0     H28964   5.518   8.411   1.337  1.0121 -0.2593 -1.8852
  978MOL0     O28965   5.367  11.196  11.239  0.7171 -0.8340  0.0410
  978MOL0     C28966   5.399  11.092  11.188 -0.0598 -0.3871  0.6194
  978MOL0     O28967   5.322  10.976  11.186 -0.3155  0.3788 -0.0463
  978MOL0     C28968   5.199  10.976  11.249 -0.5841  0.7480  0.9349
  978MOL0     C28969   5.165  10.845  11.292  0.5756  0.1427 -0.1516
  978MOL0     C28970   5.031  10.803  11.326  1.1443 -0.1964  0.2818
  978MOL0     C28971   4.942  10.902  11.351  0.2563 -0.8943 -0.0840
  978MOL0     O28972   4.808  10.881  11.390  0.1569 -0.3197 -0.6066
  978MOL0     C28973   4.779  10.783  11.491  0.6268  0.1882 -0.4476
  978MOL0     C28974   4.631  10.757  11.478  0.4949 -0.0720 -1.3776
  978MOL0     C28975   4.550  10.865  11.547  0.5743 -0.6652 -0.3440
  978MOL0     C28976   4.397  10.858  11.516 -0.5490  0.0524 -0.7600
  978MOL0     C28977   4.309  10.865  11.648 -0.7815  0.0496  0.3760
  978MOL0     C28978   4.162  10.839  11.627 -0.7188  0.1322 -0.2191
  978MOL0     C28979   4.077  10.886  11.738  0.4847 -0.3944 -0.4447
  978MOL0     C28980   3.936  10.865  11.705 -0.0328 -0.1832  0.2142
  978MOL0     N28981   3.848  10.908  11.816 -0.1423 -0.1765 -0.4467
  978MOL0     C28982   3.814  10.823  11.919 -0.4043 -0.2260 -0.1313
  978MOL0     C28983   3.716  10.882  11.994  0.7250 -0.3792 -1.1629
  978MOL0     C28984   3.676  10.838  12.125 -0.3600  0.2925 -0.3221
  978MOL0     C28985   3.529  10.868  12.157 -0.4783  0.5925 -0.2604
  978MOL0     C28986   3.507  10.849  12.303 -0.2196  0.4087  0.3566
  978MOL0     C28987   3.367  10.856  12.342  0.1950  0.4207 -0.5247
  978MOL0     O28988   3.305  10.728  12.302 -0.5854 -0.7614 -0.9359
  978MOL0     C28989   3.171  10.735  12.276  0.3107  0.9591 -0.3211
  978MOL0     C28990   3.071  10.835  12.312  0.3126 -0.1800 -0.5603
  978MOL0     C28991   2.940  10.829  12.256  0.6397 -0.8953 -0.4580
  978MOL0     C28992   2.907  10.732  12.162  0.6057  0.7132  0.3919
  978MOL0     C28993   2.768  10.735  12.099  0.3882 -0.2158 -0.9680
  978MOL0     O28994   2.669  10.795  12.180 -0.1304 -0.3335  0.1482
  978MOL0     C28995   2.541  10.805  12.142  0.2110  0.3214 -0.1170
  978MOL0     C28996   2.469  10.697  12.118  1.0029 -0.5302 -0.5451
  978MOL0     C28997   2.328  10.705  12.088 -0.2045  0.1469 -0.1075
  978MOL0     C28998   2.258  10.824  12.094 -0.0078  0.0175  0.0936
  978MOL0     O28999   2.123  10.812  12.061 -0.8460 -0.3567 -0.5468
  978MOL0     C29000   2.041  10.930  12.072  0.7138 -0.1685  0.4708
  978MOL0     C29001   1.895  10.884  12.037 -0.7801 -0.8720 -0.0486
  978MOL0     C29002   1.782  10.976  12.092 -0.0618 -0.2822  0.2449
  978MOL0     C29003   1.644  10.915  12.088 -0.8328 -0.6090 -0.2585
  978MOL0     C29004   1.528  11.008  12.130 -0.2621  0.8907 -0.0632
  978MOL0     C29005   1.406  10.917  12.118  0.3675 -0.2390  0.5022
  978MOL0     C29006   1.282  10.985  12.065  0.0627  0.0454 -0.3502
  978MOL0     C29007   1.213  11.085  12.168 -0.1040  0.2874 -0.4355
  978MOL0    Cl29008   1.170  11.005  12.324  0.1375  0.0383  0.0252
  978MOL0     C29009   2.343  10.937  12.116  0.4809  0.2058 -0.2593
  978MOL0     C29010   2.480  10.936  12.140  0.8194  0.6540  0.2922
  978MOL0     O29011   2.756  10.665  11.997 -0.0856 -0.0751 -0.1291
  978MOL0     C29012   3.000  10.633  12.141 -0.2847 -0.5128  0.7161
  978MOL0     C29013   3.130  10.632  12.192 -0.0309  0.4144  0.8311
  978MOL0     N29014   3.704  11.008  11.936  0.9730  0.4015 -0.3205
  978MOL0     N29015   3.769  11.024  11.830 -0.2733  0.5833  0.5466
  978MOL0     C29016   4.973  11.035  11.316  0.0765 -0.0545 -0.4555
  978MOL0     C29017   5.099  11.076  11.259 -0.7474  0.3861 -0.4961
  978MOL0     C29018   5.544  11.084  11.138 -0.3292 -0.1481  0.8379
  978MOL0     C29019   5.579  10.964  11.065 -0.5329 -0.3589  0.5293
  978MOL0     C29020   5.712  10.945  11.025 -0.0908  0.4767 -0.0335
  978MOL0     C29021   5.808  11.042  11.044 -0.0904 -1.0132 -0.4553
  978MOL0     O29022   5.935  11.010  10.989 -0.3073  0.3832 -0.2846
  978MOL0     C29023   5.981  11.095  10.885 -0.1712 -0.9669  0.3047
  978MOL0     C29024   6.115  11.149  10.922  0.7259 -0.0523 -0.2638
  978MOL0     C29025   6.223  11.038  10.921 -0.2642  0.6540  0.0038
  978MOL0     C29026   6.363  11.103  10.917 -0.6166  0.8746  0.5484
  978MOL0     C29027   6.471  11.011  10.922 -0.8958  0.6526  0.9799
  978MOL0     C29028   6.573  10.941  10.918  0.5977  0.1813  0.4344
  978MOL0     C29029   5.769  11.167  11.104  0.3181 -0.4154  0.6004
  978MOL0     C29030   5.642  11.185  11.154  1.0891 -0.5805  0.9967
  978MOL0     H29031   5.240  10.767  11.290  1.0739  0.6219 -0.6947
  978MOL0     H29032   5.013  10.697  11.335  0.8183 -0.0595  1.3514
  978MOL0     H29033   4.792  10.829  11.589  3.0073 -1.1476 -0.0876
  978MOL0     H29034   4.842  10.694  11.488  0.9819  0.4627 -1.2500
  978MOL0     H29035   4.615  10.662  11.530  0.6621  1.0081  0.7558
  978MOL0     H29036   4.594  10.754  11.375 -0.4603  1.4316 -1.0920
  978MOL0     H29037   4.583  10.967  11.529  1.0612 -0.9124 -0.8787
  978MOL0     H29038   4.565  10.861  11.655 -1.2685  0.5018  0.0058
  978MOL0     H29039   4.364  10.924  11.435 -1.7551  2.2891  1.4199
  978MOL0     H29040   4.380  10.754  11.486  0.0443 -0.8066  1.6470
  978MOL0     H29041   4.325  10.967  11.685  1.4760 -0.0354 -0.2388
  978MOL0     H29042   4.348  10.796  11.723 -3.0436  0.8649  2.4550
  978MOL0     H29043   4.146  10.732  11.611 -2.6597  0.7960 -3.9187
  978MOL0     H29044   4.135  10.877  11.528  1.4990  2.1474 -0.1408
  978MOL0     H29045   4.111  10.841  11.832  2.8200  0.4565 -0.8125
  978MOL0     H29046   4.101  10.989  11.763 -0.2886 -0.2957 -0.0926
  978MOL0     H29047   3.920  10.758  11.685  0.8426 -0.2249 -0.2923
  978MOL0     H29048   3.916  10.912  11.609  2.3874 -1.6743 -1.1222
  978MOL0     H29049   3.869  10.738  11.960  0.4711  0.5237  0.2811
  978MOL0     H29050   3.741  10.895  12.191  1.2339 -0.3495 -1.2876
  978MOL0     H29051   3.699  10.731  12.134  0.0038  0.3848 -0.1553
  978MOL0     H29052   3.468  10.788  12.115 -2.0119  0.1427  2.5674
  978MOL0     H29053   3.502  10.965  12.116  0.3703  1.1733  0.5061
  978MOL0     H29054   3.557  10.758  12.336  0.0364 -0.6011 -2.5808
  978MOL0     H29055   3.542  10.938  12.358  0.2280  1.8983 -2.2038
  978MOL0     H29056   3.324  10.944  12.292 -0.4694 -0.1340 -0.9400
  978MOL0     H29057   3.371  10.871  12.451 -1.1195 -0.2233 -0.3597
  978MOL0     H29058   3.092  10.927  12.365 -1.1315  0.5511 -1.1963
  978MOL0     H29059   2.877  10.917  12.270 -1.0085 -1.8451 -1.5828
  978MOL0     H29060   2.517  10.599  12.118 -1.1376 -1.6508  0.4746
  978MOL0     H29061   2.269  10.616  12.069 -0.9098  0.0545  2.1930
  978MOL0     H29062   2.068  11.020  12.015  0.2773 -0.0661  0.4150
  978MOL0     H29063   2.044  10.953  12.179  1.7433  1.6907  0.0929
  978MOL0     H29064   1.886  10.791  12.094  1.4092  0.1697  2.2202
  978MOL0     H29065   1.887  10.862  11.930  0.1974  0.7129 -0.4820
  978MOL0     H29066   1.770  11.067  12.032  1.7629  0.1113  0.4225
  978MOL0     H29067   1.797  11.007  12.196  1.7570 -0.2808  0.0286
  978MOL0     H29068   1.635  10.868  11.990  0.7526 -1.0685 -0.2130
  978MOL0     H29069   1.652  10.834  12.161 -0.7223  0.1106  0.5338
  978MOL0     H29070   1.530  11.090  12.058  5.4724  1.8730  0.7458
  978MOL0     H29071   1.530  11.031  12.237 -2.1959 -1.9636  0.7114
  978MOL0     H29072   1.385  10.877  12.218  2.0540  0.2616  1.0979
  978MOL0     H29073   1.424  10.841  12.042  2.3432 -0.5760  1.2381
  978MOL0     H29074   1.296  11.034  11.969 -0.4923  0.6302 -0.1358
  978MOL0     H29075   1.208  10.907  12.045  1.3596 -2.0848  2.4243
  978MOL0     H29076   1.124  11.132  12.127  0.1793 -0.7686 -2.4064
  978MOL0     H29077   1.287  11.162  12.191  0.4774  0.0323 -1.3882
  978MOL0     H29078   2.286  11.029  12.125  0.4383  0.1473  0.1087
  978MOL0     H29079   2.533  11.029  12.159  1.1611  0.5507 -0.1493
  978MOL0     H29080   2.991  10.553  12.069 -1.1850 -0.5715  0.8749
  978MOL0     H29081   3.200  10.551  12.173 -2.2711 -2.0956  2.6260
  978MOL0     H29082   4.892  11.108  11.319 -0.3040 -0.1827 -3.6060
  978MOL0     H29083   5.119  11.177  11.227  0.3773 -0.1576 -1.5635
  978MOL0     H29084   5.504  10.886  11.054  0.6367 -1.3161 -1.1509
  978MOL0     H29085   5.739  10.846  10.990  1.1110 -1.1192  4.7184
  978MOL0     H29086   5.913  11.179  10.866  0.9764  0.2595  1.4068
  978MOL0     H29087   5.988  11.041  10.790  0.2194  1.9079 -1.4008
  978MOL0     H29088   6.138  11.233  10.857 -0.6676 -0.2074 -0.9941
  978MOL0     H29089   6.107  11.197  11.020 -0.4473  1.7034 -1.1619
  978MOL0     H29090   6.198  10.973  10.837 -0.7560 -0.0656  0.6908
  978MOL0     H29091   6.223  10.988  11.018  0.2262  0.9622  0.1665
  978MOL0     H29092   6.389  11.154  10.824  0.2330 -0.1321  0.2089
  978MOL0     H29093   6.380  11.171  11.001  2.7107  1.9050 -0.7879
  978MOL0     H29094   6.655  10.873  10.907  0.7676 -0.0530  2.6903
  978MOL0     H29095   5.841  11.248  11.113 -1.5139  1.0881  2.5728
  978MOL0     H29096   5.604  11.275  11.200  0.0910 -0.2495 -0.3976
  979MOL0     O29097  10.943   7.535   4.421  0.5260 -0.1577  0.4417
  979MOL0     C29098  11.048   7.598   4.402  0.5712  0.9327  0.5324
  979MOL0     O29099  11.080   7.685   4.302  0.2546  0.4831 -0.4291
  979MOL0     C29100  10.972   7.744   4.237  0.8312  1.0812  0.3157
  979MOL0     C29101  10.845   7.771   4.294 -0.8630  0.7406 -0.3309
  979MOL0     C29102  10.734   7.815   4.223 -0.1235 -0.0234  0.4979
  979MOL0     C29103  10.750   7.851   4.089  0.0180  0.2054 -0.2185
  979MOL0     O29104  10.650   7.911   4.013 -0.1249  0.1223 -0.9097
  979MOL0     C29105  10.529   7.956   4.079 -0.1527  0.2963 -0.9901
  979MOL0     C29106  10.459   8.044   3.981 -0.5498  0.2093 -0.7753
  979MOL0     C29107  10.310   8.078   4.024  0.8507 -0.2722  0.0870
  979MOL0     C29108  10.250   8.170   3.923 -0.0387 -0.7219  0.2387
  979MOL0     C29109  10.128   8.255   3.961  0.8790  0.5915  0.0595
  979MOL0     C29110  10.140   8.350   4.087 -0.0673 -0.0227  0.4929
  979MOL0     C29111  10.009   8.423   4.124  0.7211 -1.2960 -0.7598
  979MOL0     C29112   9.895   8.336   4.190  0.4454 -0.6724 -0.9419
  979MOL0     N29113   9.787   8.425   4.246  0.0432 -0.7622  0.1829
  979MOL0     C29114   9.773   8.468   4.375  0.4477  0.1817 -0.1175
  979MOL0     C29115   9.648   8.537   4.371 -0.4331  0.0842  0.1687
  979MOL0     C29116   9.588   8.591   4.500  0.0671  0.2858 -0.2716
  979MOL0     C29117   9.436   8.601   4.469  0.4881 -0.5889  0.3277
  979MOL0     C29118   9.365   8.682   4.583  1.1639  0.1428 -0.2424
  979MOL0     C29119   9.207   8.692   4.558  0.4203 -0.4824  0.1890
  979MOL0     O29120   9.152   8.559   4.534  0.3502 -0.6411  0.0878
  979MOL0     C29121   9.017   8.540   4.513  0.3161  0.1854  0.5631
  979MOL0     C29122   8.974   8.412   4.475  0.3479  0.8781 -0.1137
  979MOL0     C29123   8.839   8.380   4.460 -0.9860 -0.2083  0.4663
  979MOL0     C29124   8.738   8.477   4.455 -0.2834 -0.1305 -0.4584
  979MOL0     C29125   8.599   8.460   4.411 -0.4762 -0.4160 -0.5509
  979MOL0     O29126   8.575   8.350   4.331  0.3094 -0.0529  0.0660
  979MOL0     C29127   8.448   8.316   4.278 -0.0997 -0.7512 -0.7572
  979MOL0     C29128   8.388   8.193   4.298  0.9143  0.4322  0.0705
  979MOL0     C29129   8.262   8.163   4.248  0.3728  0.2715 -0.2939
  979MOL0     C29130   8.181   8.254   4.180  0.2752 -0.2538  0.0418
  979MOL0     O29131   8.071   8.220   4.101 -0.3549 -0.0225  0.1413
  979MOL0     C29132   7.979   8.147   4.179  0.0180  0.0839  1.4461
  979MOL0     C29133   7.860   8.117   4.086  0.1299  0.1304  0.3990
  979MOL0     C29134   7.787   8.242   4.044 -0.4866  0.6179 -0.4522
  979MOL0     C29135   7.666   8.211   3.963 -0.7826  0.3933 -1.0324
  979MOL0     C29136   7.551   8.152   4.047  0.5561 -0.2830 -0.7232
  979MOL0     C29137   7.431   8.097   3.958 -0.3299  0.2971  0.0719
  979MOL0     C29138   7.318   8.038   4.041 -0.1192  0.2274  0.0990
  979MOL0     C29139   7.195   7.990   3.968  0.2931  0.7130  0.1658
  979MOL0    Cl29140   7.227   7.834   3.890  0.0703  0.0857 -0.0671
  979MOL0     C29141   8.241   8.387   4.188 -0.2090 -0.2267 -0.6117
  979MOL0     C29142   8.365   8.415   4.232 -0.7274 -0.1724 -0.3396
  979MOL0     O29143   8.512   8.535   4.467 -0.3544  0.2855  0.0266
  979MOL0     C29144   8.783   8.606   4.495  0.3465 -0.9481  0.0383
  979MOL0     C29145   8.916   8.634   4.528  0.1011  1.1257  0.9755
  979MOL0     N29146   9.591   8.511   4.253  1.3674 -1.0172  0.1302
  979MOL0     N29147   9.667   8.440   4.179 -0.1708  0.1493  0.5197
  979MOL0     C29148  10.875   7.832   4.040 -0.0717  0.1529  0.8333
  979MOL0     C29149  10.986   7.769   4.102 -0.7695  0.5091  0.2119
  979MOL0     C29150  11.159   7.547   4.490  0.0783 -0.0460  0.5325
  979MOL0     C29151  11.295   7.562   4.459 -0.4761  0.9813 -0.2409
  979MOL0     C29152  11.397   7.522   4.551  0.1105 -0.2135  1.2323
  979MOL0     C29153  11.366   7.465   4.673  0.4614  0.6955  0.7040
  979MOL0     O29154  11.454   7.437   4.769 -0.2565  0.2440  0.3712
  979MOL0     C29155  11.593   7.456   4.738  0.4099 -0.7369  1.1331
  979MOL0     C29156  11.684   7.406   4.847  0.1496  0.1759  0.1134
  979MOL0     C29157  11.826   7.418   4.820  0.1941  0.2566 -0.3433
  979MOL0     C29158  11.901   7.362   4.941 -0.0529  0.3734  0.0236
  979MOL0     C29159  12.045   7.344   4.917  0.4790 -0.7544  1.0445
  979MOL0     C29160  12.163   7.360   4.883  0.0485 -0.3286 -0.4125
  979MOL0     C29161  11.231   7.443   4.701  0.3512 -0.4220  0.2314
  979MOL0     C29162  11.129   7.477   4.613  0.1405  0.8211  0.5803
  979MOL0     H29163  10.836   7.753   4.401  3.5542  1.0251  0.3030
  979MOL0     H29164  10.637   7.834   4.269  0.2422  2.4611  0.3878
  979MOL0     H29165  10.542   8.010   4.174  2.5676 -2.5198  0.4505
  979MOL0     H29166  10.466   7.867   4.090 -1.5976  1.2582 -1.2100
  979MOL0     H29167  10.452   7.993   3.885  1.4047 -1.8375  0.0686
  979MOL0     H29168  10.519   8.135   3.982  0.2179 -0.2147  2.3180
  979MOL0     H29169  10.315   8.126   4.122  0.7400  1.8022 -0.8717
  979MOL0     H29170  10.245   7.990   4.031  1.6922 -1.1094 -1.9021
  979MOL0     H29171  10.317   8.255   3.908 -0.9111  0.5040  2.6914
  979MOL0     H29172  10.245   8.119   3.827  1.1784  0.9040 -0.7477
  979MOL0     H29173  10.037   8.196   3.974 -0.0931  2.1933  0.9080
  979MOL0     H29174  10.110   8.324   3.878  2.9763 -1.4452 -2.2609
  979MOL0     H29175  10.217   8.426   4.069 -0.2415 -0.0722 -0.4876
  979MOL0     H29176  10.186   8.283   4.161  0.9748 -0.6411 -0.6781
  979MOL0     H29177  10.018   8.509   4.191 -2.3657 -0.5597 -1.1176
  979MOL0     H29178   9.961   8.472   4.039 -1.2091 -0.5979  0.6488
  979MOL0     H29179   9.932   8.280   4.277 -3.5644  0.4539  1.7536
  979MOL0     H29180   9.861   8.273   4.108  3.1444 -1.9782 -1.1794
  979MOL0     H29181   9.845   8.466   4.456  0.8392  2.3439 -0.3468
  979MOL0     H29182   9.633   8.686   4.531  1.9787 -0.4529 -0.6064
  979MOL0     H29183   9.604   8.518   4.580  1.2024 -1.2456 -1.8345
  979MOL0     H29184   9.386   8.505   4.480  0.5277 -0.4142  2.5481
  979MOL0     H29185   9.414   8.638   4.369  2.1088 -1.2328 -0.2881
  979MOL0     H29186   9.379   8.641   4.683 -0.8329 -0.4618 -0.1646
  979MOL0     H29187   9.403   8.784   4.578 -0.0687  0.5731 -1.4596
  979MOL0     H29188   9.180   8.748   4.469 -0.4357 -2.6841 -1.0175
  979MOL0     H29189   9.157   8.736   4.644  4.5404 -1.2007  3.2896
  979MOL0     H29190   9.042   8.328   4.470 -0.7453  0.0040 -0.5721
  979MOL0     H29191   8.813   8.279   4.430  3.7051 -1.0515 -1.7143
  979MOL0     H29192   8.446   8.114   4.346  0.1893  0.7892  1.5702
  979MOL0     H29193   8.225   8.061   4.258 -0.4779  0.3471 -2.1706
  979MOL0     H29194   7.938   8.205   4.262  0.6440  1.4614  0.8218
  979MOL0     H29195   8.018   8.049   4.208  0.6541 -0.1418 -0.0445
  979MOL0     H29196   7.794   8.050   4.141 -0.5712 -2.2504 -2.9890
  979MOL0     H29197   7.899   8.057   4.003  1.3138 -1.4791  2.0420
  979MOL0     H29198   7.857   8.310   3.994 -3.4722  4.2825 -0.1379
  979MOL0     H29199   7.749   8.286   4.138 -0.1297 -1.8674  0.9388
  979MOL0     H29200   7.624   8.306   3.931 -1.5679  0.0620 -1.0074
  979MOL0     H29201   7.685   8.149   3.875  0.0539  0.4746 -0.9153
  979MOL0     H29202   7.499   8.228   4.106 -0.4370 -0.3895 -1.4356
  979MOL0     H29203   7.592   8.075   4.113  1.3478  0.1866 -0.6541
  979MOL0     H29204   7.468   8.015   3.896  3.1046  0.1574  2.0339
  979MOL0     H29205   7.397   8.177   3.892 -1.0159 -0.3490 -0.3649
  979MOL0     H29206   7.373   7.963   4.100 -0.1170 -0.7535 -1.1097
  979MOL0     H29207   7.288   8.121   4.106  1.7856  1.2736 -0.2920
  979MOL0     H29208   7.156   8.055   3.890  2.3472  0.2009 -1.3682
  979MOL0     H29209   7.119   7.976   4.045  1.6110 -0.7745  1.2550
  979MOL0     H29210   8.173   8.467   4.160 -1.7477 -1.3584 -0.2234
  979MOL0     H29211   8.402   8.517   4.237 -0.7543 -0.2115  2.3419
  979MOL0     H29212   8.709   8.686   4.496  0.2737 -1.0214  0.6748
  979MOL0     H29213   8.943   8.733   4.563  0.9304  1.7549 -1.2619
  979MOL0     H29214  10.897   7.864   3.938 -0.9785  0.3426  0.6850
  979MOL0     H29215  11.078   7.753   4.047 -0.4714 -1.3689  1.1665
  979MOL0     H29216  11.311   7.611   4.363 -0.6371 -0.3548 -0.9729
  979MOL0     H29217  11.497   7.543   4.516 -0.3674  0.0827 -0.0013
  979MOL0     H29218  11.614   7.563   4.727 -0.4190 -0.4188  2.3759
  979MOL0     H29219  11.610   7.403   4.644 -4.6636 -1.3867  0.3299
  979MOL0     H29220  11.662   7.451   4.944  0.6066 -2.5793  1.6075
  979MOL0     H29221  11.647   7.303   4.849 -2.9477  1.1522 -1.3035
  979MOL0     H29222  11.839   7.527   4.812 -0.7325  0.3488 -0.7649
  979MOL0     H29223  11.854   7.360   4.732 -3.3711 -0.7187 -0.9848
  979MOL0     H29224  11.892   7.428   5.028 -1.3743  1.2373 -0.7238
  979MOL0     H29225  11.854   7.266   4.968  1.2267 -0.5040 -0.7558
  979MOL0     H29226  12.258   7.349   4.835  0.6239 -1.1789  0.8523
  979MOL0     H29227  11.191   7.393   4.789 -2.9809  2.2717  0.4606
  979MOL0     H29228  11.026   7.465   4.647 -0.5399 -0.3043 -1.6895
  980MOL0     O29229   7.072   4.897   4.703  0.0957 -0.5512  0.6458
  980MOL0     C29230   7.049   4.952   4.812 -0.1567  0.0239  0.4900
  980MOL0     O29231   6.926   4.993   4.861 -0.6704 -0.3457 -0.3748
  980MOL0     C29232   6.822   4.976   4.781 -0.1746 -0.2062  0.4650
  980MOL0     C29233   6.790   4.856   4.721  1.1615  0.1481 -0.1333
  980MOL0     C29234   6.687   4.853   4.625 -0.7689  0.1247  0.3115
  980MOL0     C29235   6.603   4.963   4.603 -0.7811 -0.0865 -0.3654
  980MOL0     O29236   6.507   4.969   4.503  0.6199 -0.1715  0.7296
  980MOL0     C29237   6.512   4.870   4.396 -0.9408 -0.5864 -0.1104
  980MOL0     C29238   6.379   4.853   4.325  0.2274 -0.1795  1.1617
  980MOL0     C29239   6.242   4.831   4.396 -0.8197 -0.1696 -1.1341
  980MOL0     C29240   6.259   4.717   4.485  0.0741 -0.4532  0.0810
  980MOL0     C29241   6.125   4.644   4.517 -0.6066 -0.3201  0.0089
  980MOL0     C29242   6.018   4.735   4.578 -0.7063  0.5163  0.5762
  980MOL0     C29243   5.895   4.656   4.615  0.5382 -0.5062 -0.6488
  980MOL0     C29244   5.808   4.605   4.501 -0.4245  0.0034  0.5698
  980MOL0     N29245   5.666   4.588   4.524  0.6821 -1.3210 -0.3007
  980MOL0     C29246   5.631   4.478   4.601 -0.1224 -0.0976  1.1300
  980MOL0     C29247   5.507   4.438   4.556 -1.4572  0.0449  0.1972
  980MOL0     C29248   5.420   4.332   4.616  0.2142  0.6037  0.5477
  980MOL0     C29249   5.419   4.326   4.767  0.7946  0.6796 -0.1626
  980MOL0     C29250   5.346   4.445   4.849 -0.1199  0.0354  0.2149
  980MOL0     C29251   5.220   4.496   4.788 -0.1751  0.9756  0.3084
  980MOL0     O29252   5.119   4.389   4.803 -0.3791  0.5132  0.1886
  980MOL0     C29253   4.988   4.410   4.777 -0.3607  0.6487 -0.0464
  980MOL0     C29254   4.923   4.514   4.707  0.0697 -1.1568  0.3349
  980MOL0     C29255   4.782   4.508   4.679 -0.2313  0.3350  0.4383
  980MOL0     C29256   4.711   4.405   4.739  0.2858 -0.5129  0.1985
  980MOL0     C29257   4.564   4.388   4.726 -0.0317 -0.3251 -0.0600
  980MOL0     O29258   4.489   4.488   4.673 -0.3945  0.3965 -0.9165
  980MOL0     C29259   4.353   4.500   4.697 -0.1462 -0.7718  0.3812
  980MOL0     C29260   4.288   4.596   4.625  0.2824 -0.1541  0.7937
  980MOL0     C29261   4.150   4.634   4.640 -1.1005 -0.6151 -0.6545
  980MOL0     C29262   4.074   4.568   4.735  0.1014 -0.2104 -0.4734
  980MOL0     O29263   3.939   4.580   4.763  0.2158 -0.9947  0.1752
  980MOL0     C29264   3.852   4.632   4.655  0.1438  0.3471  0.5985
  980MOL0     C29265   3.815   4.524   4.558  0.3508  0.1212  0.5144
  980MOL0     C29266   3.709   4.566   4.453  0.2024 -0.0078 -0.5960
  980MOL0     C29267   3.570   4.594   4.524 -0.5480  0.7789  0.4911
  980MOL0     C29268   3.451   4.553   4.439 -0.2248 -0.0095  0.0471
  980MOL0     C29269   3.319   4.582   4.512  0.0377  0.6668  0.6032
  980MOL0     C29270   3.302   4.735   4.538 -0.5803  0.4869  0.0799
  980MOL0     C29271   3.173   4.760   4.613 -0.7781  0.5024 -0.1868
  980MOL0    Cl29272   3.027   4.742   4.516  0.1989 -0.3850  0.0227
  980MOL0     C29273   4.146   4.477   4.816 -0.1254  0.0931 -0.0185
  980MOL0     C29274   4.275   4.439   4.804 -0.4076  0.3710  0.5423
  980MOL0     O29275   4.520   4.289   4.784 -0.1240 -1.0230 -0.5805
  980MOL0     C29276   4.780   4.304   4.809  0.2853 -0.2307  0.3781
  980MOL0     C29277   4.917   4.304   4.825  0.3423 -0.7662 -0.3198
  980MOL0     N29278   5.476   4.533   4.452 -0.3238  0.4408 -0.3681
  980MOL0     N29279   5.565   4.615   4.435 -0.2428 -0.7089 -0.1932
  980MOL0     C29280   6.635   5.081   4.674  0.1363 -1.1861 -0.3904
  980MOL0     C29281   6.741   5.091   4.763  0.9171  0.1166  0.2572
  980MOL0     C29282   7.161   4.974   4.904 -0.4955  0.4180  1.2353
  980MOL0     C29283   7.290   4.915   4.878 -0.2838  0.1208 -0.2571
  980MOL0     C29284   7.392   4.927   4.960 -0.0689  0.3917 -0.5092
  980MOL0     C29285   7.379   4.995   5.076  0.0284  0.0439 -0.5503
  980MOL0     O29286   7.469   4.982   5.174 -0.1555  0.3313 -0.5040
  980MOL0     C29287   7.587   5.061   5.156 -0.2542 -0.0142  0.6833
  980MOL0     C29288   7.697   5.018   5.266  0.4718 -0.0809  0.3372
  980MOL0     C29289   7.842   5.065   5.217  0.0288  0.6225 -0.1347
  980MOL0     C29290   7.930   5.098   5.340  1.0147  0.9292 -0.1103
  980MOL0     C29291   7.981   4.976   5.407 -0.2003  0.0890 -0.3134
  980MOL0     C29292   8.016   4.877   5.476  0.0083 -0.4076 -0.6342
  980MOL0     C29293   7.254   5.051   5.118 -0.6436  0.4987  0.6615
  980MOL0     C29294   7.142   5.041   5.031  0.3131 -0.1350 -0.2897
  980MOL0     H29295   6.850   4.769   4.744 -2.8882 -2.6488  1.0279
  980MOL0     H29296   6.668   4.755   4.583 -1.3354 -0.7622  2.4996
  980MOL0     H29297   6.542   4.772   4.435 -1.4589 -0.5617  0.3607
  980MOL0     H29298   6.595   4.899   4.331 -0.5484 -0.1899  0.5518
  980MOL0     H29299   6.391   4.767   4.259 -3.0309  1.3822 -1.8332
  980MOL0     H29300   6.363   4.939   4.259  0.8671 -0.3644  0.7614
  980MOL0     H29301   6.162   4.809   4.325 -0.3587 -1.6658 -1.2367
  980MOL0     H29302   6.214   4.921   4.451  1.5955 -1.3538  2.4061
  980MOL0     H29303   6.333   4.643   4.455 -0.5301  0.0718 -3.1138
  980MOL0     H29304   6.301   4.760   4.576  2.6108  0.7179 -1.5436
  980MOL0     H29305   6.138   4.566   4.592 -1.0946  2.0265  2.6984
  980MOL0     H29306   6.077   4.591   4.434 -0.7103 -1.4720  0.7881
  980MOL0     H29307   5.986   4.817   4.513 -3.4710 -3.2804 -3.4511
  980MOL0     H29308   6.052   4.768   4.677 -0.7825  0.1009  0.7431
  980MOL0     H29309   5.926   4.579   4.686  1.6407 -1.0207 -1.6565
  980MOL0     H29310   5.826   4.714   4.677  2.2729  0.1262  0.7624
  980MOL0     H29311   5.848   4.509   4.469  2.5765  0.4533  2.6066
  980MOL0     H29312   5.817   4.674   4.416  2.4442  1.0398  1.6200
  980MOL0     H29313   5.696   4.427   4.671 -0.6030  0.9750  2.4195
  980MOL0     H29314   5.429   4.233   4.569 -0.4651  0.9822 -0.4226
  980MOL0     H29315   5.324   4.361   4.573 -0.9041  1.7562  3.5670
  980MOL0     H29316   5.519   4.317   4.811  1.7467  0.9907 -2.1444
  980MOL0     H29317   5.372   4.229   4.786  4.8533 -1.8801 -1.6868
  980MOL0     H29318   5.322   4.417   4.952 -2.5677  3.1762  0.6668
  980MOL0     H29319   5.421   4.525   4.855  0.7687 -0.8770  4.2930
  980MOL0     H29320   5.246   4.524   4.686 -1.3639 -1.5285 -0.7776
  980MOL0     H29321   5.189   4.587   4.842 -0.3689  0.8129  0.4751
  980MOL0     H29322   4.980   4.599   4.669 -0.5818 -1.1972 -0.7692
  980MOL0     H29323   4.745   4.587   4.615  1.9000  1.6960  0.7695
  980MOL0     H29324   4.350   4.641   4.548 -0.2334 -1.7713 -0.6338
  980MOL0     H29325   4.113   4.720   4.586  2.1017  1.5353  0.2859
  980MOL0     H29326   3.884   4.720   4.599  1.3715 -1.4809 -1.7420
  980MOL0     H29327   3.758   4.662   4.704  0.8579  1.1784  1.5073
  980MOL0     H29328   3.775   4.443   4.619 -0.7351 -0.0592 -0.4001
  980MOL0     H29329   3.899   4.476   4.509 -1.7635 -1.8967 -1.3880
  980MOL0     H29330   3.698   4.483   4.382 -1.9016  0.2992 -0.7044
  980MOL0     H29331   3.746   4.654   4.399 -0.0173  0.2025 -0.4013
  980MOL0     H29332   3.559   4.547   4.622 -0.7016  4.2180  2.2823
  980MOL0     H29333   3.578   4.699   4.551  0.0302  1.0908 -0.8341
  980MOL0     H29334   3.460   4.446   4.420  1.8610  0.2334 -0.5509
  980MOL0     H29335   3.446   4.609   4.345  0.7469  1.7316  0.9932
  980MOL0     H29336   3.321   4.527   4.607 -0.6542 -2.4775 -1.1077
  980MOL0     H29337   3.239   4.540   4.451 -0.2999 -0.0929  1.5457
  980MOL0     H29338   3.389   4.778   4.588  1.6721 -2.6606 -0.7979
  980MOL0     H29339   3.296   4.791   4.444  3.3045  0.9600 -0.0370
  980MOL0     H29340   3.180   4.853   4.671  0.6685 -1.0648  2.3340
  980MOL0     H29341   3.185   4.690   4.697  2.0624 -1.6819 -2.2279
  980MOL0     H29342   4.079   4.431   4.889 -1.3938  3.4838  1.1405
  980MOL0     H29343   4.312   4.360   4.868  1.1855 -0.4477 -1.2773
  980MOL0     H29344   4.734   4.207   4.825  1.2369 -0.6704  0.5430
  980MOL0     H29345   4.967   4.214   4.860  1.1344 -1.2412 -2.5387
  980MOL0     H29346   6.582   5.174   4.654 -0.2233 -1.8932 -3.1130
  980MOL0     H29347   6.769   5.176   4.824  0.0116  0.6395 -0.0374
  980MOL0     H29348   7.305   4.870   4.781  0.5219 -0.3649  0.0848
  980MOL0     H29349   7.485   4.885   4.923  0.7231  2.7547 -1.3847
  980MOL0     H29350   7.553   5.164   5.150 -0.6482 -0.1905 -0.3497
  980MOL0     H29351   7.621   5.042   5.054 -1.0381 -0.0658  0.4297
  980MOL0     H29352   7.664   5.061   5.361  1.5411  0.5953  0.4202
  980MOL0     H29353   7.699   4.910   5.283 -0.3244 -0.1539  0.0128
  980MOL0     H29354   7.837   5.144   5.142 -0.1845 -0.0393 -0.8300
  980MOL0     H29355   7.893   4.987   5.159 -0.1487  0.5353 -0.1746
  980MOL0     H29356   8.021   5.148   5.308  2.1262 -1.7643 -1.4770
  980MOL0     H29357   7.885   5.161   5.418  3.9082  2.8607  0.1408
  980MOL0     H29358   8.030   4.795   5.543  0.5757 -0.8008 -1.2201
  980MOL0     H29359   7.255   5.101   5.214 -0.9583 -0.0916  0.9779
  980MOL0     H29360   7.047   5.078   5.066  1.5353  1.6679  1.3164
  981MOL0     O29361   0.308   4.546   4.385  0.3457  0.0723  0.2514
  981MOL0     C29362   0.287   4.476   4.485 -0.3974  1.1738 -0.8491
  981MOL0     O29363   0.383   4.421   4.572  0.5331 -0.1028  0.0962
  981MOL0     C29364   0.509   4.439   4.517 -0.4835 -0.5669  0.6342
  981MOL0     C29365   0.569   4.568   4.497  0.3583  0.7085 -0.4158
  981MOL0     C29366   0.695   4.584   4.447 -0.3892  0.5687  0.2069
  981MOL0     C29367   0.779   4.475   4.415  0.3685  0.1002 -0.9717
  981MOL0     O29368   0.917   4.471   4.382  0.8377  0.5029  0.3997
  981MOL0     C29369   0.976   4.597   4.348 -0.4341 -0.0099  0.7678
  981MOL0     C29370   1.020   4.693   4.457  0.4315  0.4543 -0.8203
  981MOL0     C29371   1.131   4.794   4.408 -0.8534  0.0812  0.9966
  981MOL0     C29372   1.275   4.723   4.402  0.1549 -0.1999  0.2559
  981MOL0     C29373   1.372   4.807   4.330  0.9741  0.6216 -0.2475
  981MOL0     C29374   1.414   4.925   4.416  0.3208  0.3019  0.4290
  981MOL0     C29375   1.498   5.015   4.328  0.7100 -0.2862 -0.2049
  981MOL0     C29376   1.545   5.142   4.408  0.0729  0.4579 -0.2650
  981MOL0     N29377   1.443   5.249   4.387 -0.4007  0.5286 -0.4947
  981MOL0     C29378   1.433   5.361   4.308 -0.7535  0.5588 -0.3586
  981MOL0     C29379   1.307   5.406   4.313  0.3944  0.0440  0.1002
  981MOL0     C29380   1.252   5.535   4.239  0.7342  0.1511 -0.2017
  981MOL0     C29381   1.101   5.554   4.250 -0.4623  1.3547  0.7820
  981MOL0     C29382   1.033   5.457   4.147  0.0911  0.7332  0.1646
  981MOL0     C29383   0.879   5.487   4.155  0.1530  0.3131 -0.4761
  981MOL0     O29384   0.824   5.431   4.273 -1.4986 -0.5026 -0.1697
  981MOL0     C29385   0.688   5.416   4.280  0.9051  0.0785  0.1026
  981MOL0     C29386   0.597   5.455   4.185 -0.2486  0.2415  1.3241
  981MOL0     C29387   0.457   5.456   4.202 -0.2694  0.2531 -0.3871
  981MOL0     C29388   0.402   5.418   4.329 -0.0800  0.0860  0.8349
  981MOL0     C29389   0.261   5.412   4.342  0.2102  1.0889 -0.8755
  981MOL0     O29390   0.216   5.359   4.458 -0.3393  0.1462 -0.1610
  981MOL0     C29391   0.080   5.365   4.484 -0.4902 -0.0419  0.1680
  981MOL0     C29392   0.037   5.439   4.594 -0.3002 -0.1375 -0.4613
  981MOL0     C29393  -0.093   5.419   4.643  0.0179 -0.0009  1.4919
  981MOL0     C29394  -0.180   5.339   4.563  0.3186  0.0871 -0.6402
  981MOL0     O29395  -0.313   5.328   4.598  0.0532  0.2751 -0.5892
  981MOL0     C29396  -0.371   5.428   4.684  1.0405  0.2662 -0.0279
  981MOL0     C29397  -0.514   5.389   4.720  1.0709  0.6511 -1.2877
  981MOL0     C29398  -0.601   5.392   4.597  0.8660 -0.2242  1.1592
  981MOL0     C29399  -0.744   5.346   4.634 -0.2113 -0.0644  0.9664
  981MOL0     C29400  -0.835   5.328   4.514 -0.4588  0.7485  0.2248
  981MOL0     C29401  -0.864   5.456   4.426  0.5794  0.0394 -0.2324
  981MOL0     C29402  -0.954   5.414   4.313  0.3239 -0.4266 -0.0017
  981MOL0     C29403  -1.103   5.415   4.358  1.0303 -0.0128  0.1410
  981MOL0    Cl29404  -1.205   5.357   4.207  0.1149 -0.3169  0.0008
  981MOL0     C29405  -0.142   5.269   4.446  0.5871 -0.7264 -0.1051
  981MOL0     C29406  -0.014   5.286   4.408  0.4250 -0.0093  0.4179
  981MOL0     O29407   0.192   5.468   4.265  0.4596  0.2862  0.1715
  981MOL0     C29408   0.495   5.386   4.428 -0.5075 -0.4948 -0.7618
  981MOL0     C29409   0.634   5.378   4.402 -0.0569 -0.8206  0.7901
  981MOL0     N29410   1.241   5.335   4.404  0.0421 -0.1634  0.3770
  981MOL0     N29411   1.313   5.231   4.435 -0.5037 -0.0417 -0.7187
  981MOL0     C29412   0.716   4.347   4.427  1.8895  0.1450  1.0465
  981MOL0     C29413   0.583   4.330   4.469 -0.2782 -0.4992 -0.1670
  981MOL0     C29414   0.147   4.437   4.518  0.2657 -0.5064  0.7818
  981MOL0     C29415   0.106   4.361   4.620 -0.6513 -0.3510  0.0226
  981MOL0     C29416  -0.026   4.335   4.646 -1.0667 -0.1868 -0.7047
  981MOL0     C29417  -0.117   4.386   4.558  0.2382 -1.3333 -0.5661
  981MOL0     O29418  -0.251   4.346   4.588 -0.2737  0.4295 -0.6263
  981MOL0     C29419  -0.356   4.424   4.527 -0.1567  0.4172 -0.2035
  981MOL0     C29420  -0.490   4.427   4.610 -0.7419  0.6905 -0.2548
  981MOL0     C29421  -0.563   4.568   4.594 -0.1435  0.3484  0.0886
  981MOL0     C29422  -0.713   4.536   4.560  0.2722  0.6135 -0.0430
  981MOL0     C29423  -0.789   4.484   4.677 -0.7032 -0.1495  0.4933
  981MOL0     C29424  -0.840   4.428   4.769  0.0263  0.2550 -0.5314
  981MOL0     C29425  -0.082   4.462   4.447  0.4556  0.7194 -0.2199
  981MOL0     C29426   0.056   4.476   4.420 -0.0080  0.0801 -0.1280
  981MOL0     H29427   0.529   4.661   4.537 -1.2759  0.2376 -0.8979
  981MOL0     H29428   0.732   4.686   4.437 -0.8042  0.6429 -0.6405
  981MOL0     H29429   0.906   4.641   4.276  0.4429 -2.3534 -1.7289
  981MOL0     H29430   1.064   4.567   4.290  0.2204  1.9580  0.6756
  981MOL0     H29431   1.058   4.642   4.546 -0.1819  0.4972 -0.5269
  981MOL0     H29432   0.934   4.752   4.490 -0.4418 -1.6296  0.8426
  981MOL0     H29433   1.127   4.886   4.467 -0.3440 -0.7594  2.3989
  981MOL0     H29434   1.105   4.814   4.303 -0.1080  0.3341  0.8548
  981MOL0     H29435   1.296   4.713   4.509  4.7909  0.2103 -0.4255
  981MOL0     H29436   1.261   4.633   4.341 -3.1195  0.1607  0.2637
  981MOL0     H29437   1.339   4.832   4.229  2.2780  2.4814 -0.2703
  981MOL0     H29438   1.458   4.741   4.313 -0.5080 -0.7369 -3.2430
  981MOL0     H29439   1.473   4.890   4.501 -0.8735  0.2655  1.2632
  981MOL0     H29440   1.322   4.971   4.455 -0.4395 -2.1871  1.7861
  981MOL0     H29441   1.591   4.964   4.301  0.2974 -0.2535 -1.7748
  981MOL0     H29442   1.449   5.034   4.232  1.2029  1.1970 -0.1910
  981MOL0     H29443   1.639   5.181   4.367  0.8417 -3.6339 -2.9233
  981MOL0     H29444   1.560   5.112   4.512 -0.6952 -2.5329 -0.9218
  981MOL0     H29445   1.513   5.408   4.251  0.0347  0.4286  0.6128
  981MOL0     H29446   1.276   5.523   4.133  1.0891 -2.1285  0.0757
  981MOL0     H29447   1.304   5.617   4.289  0.1554  0.3053  0.1416
  981MOL0     H29448   1.077   5.661   4.247  3.0116  2.2511 -0.0198
  981MOL0     H29449   1.076   5.519   4.350  4.1819 -0.8781  1.4247
  981MOL0     H29450   1.063   5.476   4.044 -0.6284  1.3594  0.0618
  981MOL0     H29451   1.050   5.351   4.168 -2.7510  0.0458 -0.5666
  981MOL0     H29452   0.828   5.441   4.070  0.1734 -0.1217 -0.2540
  981MOL0     H29453   0.857   5.594   4.156  1.0089  0.5000 -0.1285
  981MOL0     H29454   0.628   5.479   4.084 -0.5644  1.0020  1.3984
  981MOL0     H29455   0.406   5.480   4.109 -1.1282  0.5035  0.1425
  981MOL0     H29456   0.104   5.509   4.644 -0.1517  2.0820 -3.4487
  981MOL0     H29457  -0.114   5.488   4.724 -2.1975  0.5035  0.5435
  981MOL0     H29458  -0.384   5.525   4.636 -2.4792  0.2614  0.6037
  981MOL0     H29459  -0.306   5.441   4.771  1.3200 -1.4638  0.0492
  981MOL0     H29460  -0.555   5.437   4.809 -1.9550 -0.1413 -2.1514
  981MOL0     H29461  -0.504   5.284   4.749  0.7238  0.5081 -1.6793
  981MOL0     H29462  -0.551   5.318   4.534 -1.9390 -1.4439  0.2402
  981MOL0     H29463  -0.598   5.490   4.547 -0.6906 -0.4057  0.6857
  981MOL0     H29464  -0.737   5.251   4.688 -2.7715 -2.5105 -2.5225
  981MOL0     H29465  -0.785   5.415   4.708  1.6558  0.9385  1.1480
  981MOL0     H29466  -0.935   5.301   4.551 -0.9508 -0.3951 -1.7600
  981MOL0     H29467  -0.799   5.253   4.442  2.0523 -0.5821  2.7035
  981MOL0     H29468  -0.773   5.502   4.386  1.9508  0.2430  2.8402
  981MOL0     H29469  -0.915   5.533   4.484  1.3905  1.1712 -0.9983
  981MOL0     H29470  -0.945   5.495   4.240 -1.3807 -1.1128 -1.0419
  981MOL0     H29471  -0.926   5.322   4.261 -0.1832  0.5645 -2.1586
  981MOL0     H29472  -1.131   5.518   4.382  1.6184  0.4697 -1.1398
  981MOL0     H29473  -1.114   5.358   4.451  0.1987 -2.4400 -1.3566
  981MOL0     H29474  -0.212   5.217   4.382 -1.3437  1.4474  0.1375
  981MOL0     H29475   0.024   5.235   4.319  1.7620  0.1435  0.8755
  981MOL0     H29476   0.459   5.377   4.530  1.6822 -0.7341  0.0521
  981MOL0     H29477   0.697   5.372   4.490  0.5297  0.8378  0.5275
  981MOL0     H29478   0.783   4.263   4.418 -0.3852 -1.5627 -2.1316
  981MOL0     H29479   0.535   4.233   4.466 -1.2425 -0.0165 -0.7350
  981MOL0     H29480   0.178   4.314   4.686 -2.1201 -0.7958  1.3766
  981MOL0     H29481  -0.048   4.277   4.735 -2.6731  1.2614 -0.0936
  981MOL0     H29482  -0.363   4.387   4.424  2.1611  1.6131 -0.8541
  981MOL0     H29483  -0.326   4.528   4.514  2.2388 -0.0685  0.8229
  981MOL0     H29484  -0.558   4.346   4.584 -0.4531  1.2374 -3.0725
  981MOL0     H29485  -0.463   4.409   4.715  2.8264 -2.8465 -1.5441
  981MOL0     H29486  -0.515   4.638   4.525 -1.0286  0.7769 -0.1107
  981MOL0     H29487  -0.555   4.607   4.695 -2.2599 -1.1668  0.9231
  981MOL0     H29488  -0.757   4.629   4.525 -0.3984 -0.1918 -1.4280
  981MOL0     H29489  -0.723   4.460   4.482 -1.0741 -0.4768  1.1235
  981MOL0     H29490  -0.891   4.376   4.848 -0.8857  1.1411 -0.5175
  981MOL0     H29491  -0.152   4.498   4.373  0.6190  1.4390 -0.0373
  981MOL0     H29492   0.072   4.511   4.319 -3.2113  0.1822 -0.7017
  982MOL0     O29493   7.981   7.093   3.266  0.6227 -0.0395  0.2127
  982MOL0     C29494   8.097   7.098   3.298 -0.8104  0.4364  0.8504
  982MOL0     O29495   8.157   7.015   3.392 -0.7649 -0.2092 -0.2394
  982MOL0     C29496   8.084   6.921   3.444  0.2617 -0.1874 -1.1830
  982MOL0     C29497   8.078   6.913   3.587 -0.5195 -0.0171 -0.1693
  982MOL0     C29498   8.002   6.815   3.641 -0.7112  0.1408 -0.3850
  982MOL0     C29499   7.925   6.728   3.563  0.0681  1.0384  0.8677
  982MOL0     O29500   7.852   6.623   3.608 -0.5012  0.8761 -0.3022
  982MOL0     C29501   7.730   6.646   3.674 -0.4376 -0.0409 -0.2242
  982MOL0     C29502   7.652   6.510   3.688 -0.0439 -0.3562  0.0189
  982MOL0     C29503   7.613   6.457   3.555 -0.1662  0.5232 -0.4504
  982MOL0     C29504   7.515   6.335   3.578  0.2231  0.0814 -0.3006
  982MOL0     C29505   7.520   6.241   3.452 -0.0180  0.3225 -1.2766
  982MOL0     C29506   7.425   6.125   3.464 -0.0426 -0.3294 -0.3825
  982MOL0     C29507   7.453   6.013   3.360 -0.6119  0.6513  0.6756
  982MOL0     C29508   7.353   5.895   3.382  0.1362  0.7547  0.4683
  982MOL0     N29509   7.213   5.938   3.370  0.8629 -0.0783  0.1015
  982MOL0     C29510   7.153   5.986   3.259 -0.6248 -0.8696  0.8104
  982MOL0     C29511   7.036   6.027   3.287  0.9151 -0.3724 -0.3701
  982MOL0     C29512   6.954   6.122   3.209  0.3596  0.1468  0.1893
  982MOL0     C29513   6.798   6.108   3.217  0.6639  1.5412 -0.0660
  982MOL0     C29514   6.732   5.979   3.169  0.3140 -0.1947  0.9233
  982MOL0     C29515   6.585   5.996   3.203  0.3354 -0.9784  0.1055
  982MOL0     O29516   6.512   5.889   3.153  0.2801  0.2665 -0.2062
  982MOL0     C29517   6.383   5.871   3.199 -0.0247  0.3530 -0.1972
  982MOL0     C29518   6.337   5.742   3.218  0.2406  1.2314 -0.3499
  982MOL0     C29519   6.203   5.728   3.256  0.5476  0.1368  0.0538
  982MOL0     C29520   6.111   5.822   3.281  0.3114  0.2231  0.1450
  982MOL0     C29521   5.967   5.800   3.319 -0.1959 -0.1856 -0.5220
  982MOL0     O29522   5.930   5.681   3.366 -0.6312 -0.0418  0.2847
  982MOL0     C29523   5.795   5.651   3.365  0.3072 -0.2669 -0.0772
  982MOL0     C29524   5.717   5.662   3.252  0.3995  0.2847  0.6722
  982MOL0     C29525   5.587   5.615   3.255  0.0359  0.0031  0.2649
  982MOL0     C29526   5.538   5.568   3.379 -0.1223  0.7618  0.5726
  982MOL0     O29527   5.404   5.520   3.376  0.0374  0.4103 -0.4282
  982MOL0     C29528   5.379   5.385   3.426  0.2780 -0.7143 -0.8511
  982MOL0     C29529   5.297   5.399   3.555  0.5446 -0.6269  0.0956
  982MOL0     C29530   5.148   5.388   3.518 -0.8092 -0.8403 -0.4366
  982MOL0     C29531   5.059   5.357   3.634 -1.3627 -0.1153  0.3007
  982MOL0     C29532   4.916   5.364   3.581 -1.0030 -0.4912 -0.1972
  982MOL0     C29533   4.811   5.337   3.682  0.3329 -0.7186  0.0052
  982MOL0     C29534   4.676   5.360   3.625 -0.4155  0.1438 -0.5028
  982MOL0     C29535   4.564   5.335   3.723 -0.3340  0.0286 -0.2178
  982MOL0    Cl29536   4.401   5.329   3.657  0.4728  0.2858  0.5098
  982MOL0     C29537   5.615   5.543   3.493  0.6908 -0.8254 -0.0412
  982MOL0     C29538   5.744   5.583   3.478  0.0889  0.7507  0.0229
  982MOL0     O29539   5.894   5.899   3.320  0.3330  0.5644 -0.3866
  982MOL0     C29540   6.162   5.955   3.278 -0.6790 -1.1391 -0.3749
  982MOL0     C29541   6.295   5.975   3.229 -0.3348 -0.7360 -0.2642
  982MOL0     N29542   7.012   5.990   3.420  0.6492  0.4191  0.4894
  982MOL0     N29543   7.123   5.935   3.470  0.4600  0.1443 -0.4131
  982MOL0     C29544   7.922   6.741   3.429  0.1827  0.4850  0.5632
  982MOL0     C29545   8.000   6.837   3.368 -0.3161  0.1370  0.2591
  982MOL0     C29546   8.173   7.211   3.238  0.8262  0.0164 -0.3838
  982MOL0     C29547   8.286   7.266   3.301 -0.3176  0.3732 -0.0358
  982MOL0     C29548   8.347   7.391   3.263  0.0486 -0.7933 -0.5300
  982MOL0     C29549   8.304   7.454   3.144  0.1522  0.4374 -0.1092
  982MOL0     O29550   8.356   7.572   3.094  0.5124 -0.3973  0.4437
  982MOL0     C29551   8.438   7.644   3.192 -1.0423 -0.0226  0.7926
  982MOL0     C29552   8.465   7.792   3.135  0.7788 -0.2008 -1.0460
  982MOL0     C29553   8.327   7.864   3.116 -0.7211 -0.0657  0.6650
  982MOL0     C29554   8.270   7.888   2.973 -0.4240  0.4548  0.0292
  982MOL0     C29555   8.374   7.952   2.887  0.2114 -0.9286  0.0802
  982MOL0     C29556   8.444   8.010   2.804  0.3575  0.2896 -0.6362
  982MOL0     C29557   8.197   7.390   3.077 -0.3676 -0.5425  0.3298
  982MOL0     C29558   8.134   7.280   3.119 -0.0672  0.4289  0.3953
  982MOL0     H29559   8.140   6.977   3.648  0.6092  1.4223 -2.6510
  982MOL0     H29560   8.009   6.802   3.749  1.2250 -2.9287 -0.7456
  982MOL0     H29561   7.663   6.708   3.613 -1.6579  0.9473  2.0143
  982MOL0     H29562   7.740   6.697   3.770 -1.0326 -0.9856  0.3485
  982MOL0     H29563   7.566   6.515   3.754  0.6254 -1.4921  1.0127
  982MOL0     H29564   7.726   6.445   3.736  0.1966  0.8830  1.3797
  982MOL0     H29565   7.710   6.435   3.510  0.7230  0.0554  1.6005
  982MOL0     H29566   7.550   6.531   3.505 -0.7650  0.0708 -0.3766
  982MOL0     H29567   7.556   6.270   3.656  4.1893 -0.7180 -2.7401
  982MOL0     H29568   7.417   6.366   3.615  1.1871 -0.3933  3.0159
  982MOL0     H29569   7.624   6.207   3.449  0.5646  1.0185  3.4113
  982MOL0     H29570   7.509   6.297   3.359 -0.3739  0.2858 -1.2580
  982MOL0     H29571   7.332   6.181   3.448  1.5536  2.8035  0.4954
  982MOL0     H29572   7.419   6.071   3.559 -3.7347 -0.9936 -0.8144
  982MOL0     H29573   7.447   6.037   3.254  0.4462  1.2372  0.7293
  982MOL0     H29574   7.552   5.969   3.374  0.2172  1.8738 -0.9921
  982MOL0     H29575   7.371   5.854   3.481  0.4950  2.3114  1.0776
  982MOL0     H29576   7.373   5.819   3.306  1.4926 -1.9319  3.3169
  982MOL0     H29577   7.209   6.010   3.169  2.3654 -0.7537  2.5488
  982MOL0     H29578   6.986   6.119   3.104 -0.1984 -3.5648 -0.0127
  982MOL0     H29579   6.982   6.222   3.241  0.4144 -0.3227  1.6638
  982MOL0     H29580   6.741   6.193   3.178  1.1459  0.7560 -2.6863
  982MOL0     H29581   6.783   6.111   3.325 -0.8579  2.7944 -0.2786
  982MOL0     H29582   6.750   5.968   3.062 -2.4555 -0.1623  0.3820
  982MOL0     H29583   6.771   5.892   3.224 -0.5746  0.5558  2.8528
  982MOL0     H29584   6.549   6.085   3.151 -0.5997 -0.2557  1.9010
  982MOL0     H29585   6.569   6.004   3.311 -2.3796  2.8392 -0.4001
  982MOL0     H29586   6.398   5.654   3.199  1.2844  1.8625  0.0118
  982MOL0     H29587   6.156   5.632   3.275 -1.3700  1.3548  2.0543
  982MOL0     H29588   5.756   5.700   3.158 -1.8335 -1.2278 -1.0057
  982MOL0     H29589   5.515   5.609   3.174  1.0337 -2.1255 -0.5293
  982MOL0     H29590   5.467   5.329   3.459  0.7095  1.1978  1.4924
  982MOL0     H29591   5.331   5.336   3.341 -2.1724  1.2862 -0.7259
  982MOL0     H29592   5.314   5.496   3.601 -0.6429  0.4829 -1.6962
  982MOL0     H29593   5.317   5.318   3.626  1.8752 -1.4331 -1.1290
  982MOL0     H29594   5.134   5.317   3.435 -1.7252  1.5169 -2.4250
  982MOL0     H29595   5.121   5.488   3.485 -0.4215 -1.5250 -3.1213
  982MOL0     H29596   5.077   5.258   3.678  0.0863 -0.2760 -0.5880
  982MOL0     H29597   5.080   5.430   3.713 -2.2525 -0.7327  1.1377
  982MOL0     H29598   4.910   5.300   3.492 -0.6022 -0.3777 -0.3058
  982MOL0     H29599   4.905   5.465   3.540 -0.9091 -0.7353 -0.8398
  982MOL0     H29600   4.819   5.412   3.762  1.1874  0.1063 -0.8162
  982MOL0     H29601   4.826   5.242   3.732  1.3195  1.2806  3.9215
  982MOL0     H29602   4.677   5.463   3.589 -1.3249 -0.4012 -2.2086
  982MOL0     H29603   4.661   5.289   3.544  0.6165 -0.0416 -0.5460
  982MOL0     H29604   4.576   5.411   3.801  1.1603 -1.1630  0.7627
  982MOL0     H29605   4.579   5.239   3.773  1.2496 -0.6036 -1.8015
  982MOL0     H29606   5.563   5.504   3.580 -1.2695  0.2734 -0.6545
  982MOL0     H29607   5.807   5.558   3.563 -0.1874 -4.4033 -0.9570
  982MOL0     H29608   6.100   6.042   3.298  0.8134  0.3014 -1.7451
  982MOL0     H29609   6.327   6.078   3.223  0.8546 -1.0371  0.4163
  982MOL0     H29610   7.858   6.675   3.372 -0.6597  1.4758  0.3330
  982MOL0     H29611   8.006   6.832   3.260 -0.2967 -1.9609  0.3083
  982MOL0     H29612   8.325   7.221   3.392 -0.6999  0.3711  0.1285
  982MOL0     H29613   8.429   7.423   3.327 -0.1316 -2.2610  0.5032
  982MOL0     H29614   8.535   7.596   3.206 -0.0890  1.6208 -0.0076
  982MOL0     H29615   8.381   7.645   3.286 -2.6834 -0.1987 -0.1530
  982MOL0     H29616   8.523   7.848   3.210 -2.2941  2.1834 -0.2426
  982MOL0     H29617   8.513   7.804   3.038 -0.8232  0.2057 -1.8134
  982MOL0     H29618   8.345   7.962   3.161 -2.7801 -0.3238  2.2011
  982MOL0     H29619   8.261   7.820   3.192  2.4662 -1.7225  2.6953
  982MOL0     H29620   8.238   7.799   2.918 -2.2330  0.2186  1.3574
  982MOL0     H29621   8.178   7.948   2.971 -0.3029  0.6986 -3.0343
  982MOL0     H29622   8.497   8.054   2.721 -1.2645  0.8583 -1.4076
  982MOL0     H29623   8.149   7.428   2.986 -2.0065  0.5323  1.5756
  982MOL0     H29624   8.055   7.244   3.054  0.7541  0.9464 -0.9267
  983MOL0     O29625  11.004   6.663   7.067 -0.4425  0.1703  0.2071
  983MOL0     C29626  11.030   6.706   6.953  0.4149  0.1915 -0.5045
  983MOL0     O29627  10.947   6.705   6.842  0.4874 -0.4630 -0.3776
  983MOL0     C29628  10.806   6.685   6.847  1.5006  0.0369  0.5362
  983MOL0     C29629  10.754   6.653   6.724  0.3276 -0.3432 -0.3014
  983MOL0     C29630  10.613   6.644   6.703 -0.8016 -0.5392  0.0873
  983MOL0     C29631  10.531   6.644   6.809  0.3526 -0.8976 -0.5484
  983MOL0     O29632  10.396   6.610   6.814  0.9756  0.4950  0.6298
  983MOL0     C29633  10.325   6.608   6.681 -0.6325  0.7288  0.0715
  983MOL0     C29634  10.184   6.572   6.695  0.7146  0.7012  0.0026
  983MOL0     C29635  10.117   6.569   6.561 -0.7619 -0.3090 -0.2781
  983MOL0     C29636  10.134   6.699   6.485  0.0131 -0.6797  0.3130
  983MOL0     C29637  10.094   6.690   6.340  0.3912 -0.1872 -0.8122
  983MOL0     C29638  10.043   6.827   6.293  0.2502 -0.2227  0.7264
  983MOL0     C29639  10.002   6.806   6.145  0.0546  0.3586  0.4267
  983MOL0     C29640   9.929   6.923   6.082  0.1770  0.8001  0.7283
  983MOL0     N29641   9.811   6.967   6.157 -0.0165  0.3703  0.3384
  983MOL0     C29642   9.782   7.101   6.204 -0.2170 -0.5365 -0.4485
  983MOL0     C29643   9.657   7.092   6.253 -0.2711  0.3118  0.2340
  983MOL0     C29644   9.587   7.207   6.311  0.1887  0.7911  0.8989
  983MOL0     C29645   9.663   7.281   6.425  0.9421 -0.3902  0.4931
  983MOL0     C29646   9.647   7.197   6.551 -0.7033  0.3938 -0.2202
  983MOL0     C29647   9.514   7.234   6.624  0.1728  0.4917 -0.1594
  983MOL0     O29648   9.478   7.146   6.728 -1.1593 -0.3024  0.1250
  983MOL0     C29649   9.368   7.182   6.803 -0.4238  0.0439 -0.6462
  983MOL0     C29650   9.325   7.310   6.840  0.0198  0.7566  0.1922
  983MOL0     C29651   9.215   7.338   6.924  0.4859  0.7425 -0.5670
  983MOL0     C29652   9.128   7.231   6.966  0.1239  0.0228 -0.0857
  983MOL0     C29653   9.006   7.258   7.043 -0.2511 -0.1949 -0.0340
  983MOL0     O29654   8.980   7.156   7.133  0.0495  0.1321  0.1373
  983MOL0     C29655   8.862   7.167   7.207  0.4270 -0.4761 -0.6446
  983MOL0     C29656   8.751   7.097   7.159  0.3169  0.6121 -0.3165
  983MOL0     C29657   8.625   7.095   7.225 -0.0261  1.1330  0.3153
  983MOL0     C29658   8.614   7.164   7.342 -0.1661 -0.6079  0.3923
  983MOL0     O29659   8.502   7.170   7.419  0.0717  0.5867  0.8059
  983MOL0     C29660   8.379   7.132   7.348  0.1402  0.2312 -0.1882
  983MOL0     C29661   8.254   7.154   7.440  0.5940  0.3533  0.5947
  983MOL0     C29662   8.199   7.290   7.433  0.3747 -1.1718 -0.1173
  983MOL0     C29663   8.153   7.338   7.296  0.8758 -0.5420  0.2514
  983MOL0     C29664   8.022   7.421   7.310 -0.0477 -0.1423  0.1452
  983MOL0     C29665   8.051   7.565   7.350 -0.4439  0.0021 -0.2028
  983MOL0     C29666   7.931   7.654   7.365  0.5162  0.6084 -0.0962
  983MOL0     C29667   7.960   7.798   7.371  0.7914 -0.7229 -0.3753
  983MOL0    Cl29668   7.821   7.902   7.395  0.7206  0.2551  0.1064
  983MOL0     C29669   8.728   7.239   7.390  0.9701 -0.2313  0.8612
  983MOL0     C29670   8.853   7.231   7.330  0.0667  0.1612 -0.4402
  983MOL0     O29671   8.943   7.361   7.025 -0.0585  0.4832 -0.2069
  983MOL0     C29672   9.169   7.096   6.927 -0.4691 -0.8281  0.0207
  983MOL0     C29673   9.288   7.074   6.858  0.6306 -0.3211 -1.0769
  983MOL0     N29674   9.617   6.959   6.232  0.6966 -0.5835  0.1043
  983MOL0     N29675   9.697   6.889   6.166  0.0128  0.0074  1.3179
  983MOL0     C29676  10.587   6.672   6.936  0.3561  1.1258  0.3713
  983MOL0     C29677  10.721   6.693   6.955 -0.5243  0.0942 -0.4001
  983MOL0     C29678  11.157   6.753   6.927 -0.0685  0.0490 -0.3509
  983MOL0     C29679  11.257   6.745   7.019  0.5331 -0.4713  0.3075
  983MOL0     C29680  11.383   6.798   6.996 -1.0227  0.1081 -0.7765
  983MOL0     C29681  11.413   6.869   6.877 -0.4748  0.5764  0.5229
  983MOL0     O29682  11.536   6.923   6.868 -0.8325  0.0191  0.1422
  983MOL0     C29683  11.577   7.008   6.750  0.7812  0.0808 -0.1374
  983MOL0     C29684  11.733   7.021   6.748 -0.1351  0.6572  0.0827
  983MOL0     C29685  11.811   6.889   6.746 -0.4955  0.2634 -0.4264
  983MOL0     C29686  11.806   6.810   6.614  0.4253  0.6170  0.6345
  983MOL0     C29687  11.902   6.699   6.601 -0.9161  0.7043 -0.1963
  983MOL0     C29688  11.959   6.598   6.594  0.0165  0.9625 -0.8954
  983MOL0     C29689  11.316   6.874   6.775 -1.2955  0.8087 -0.2724
  983MOL0     C29690  11.194   6.812   6.804  0.0068 -0.2625  0.2260
  983MOL0     H29691  10.821   6.646   6.639 -0.6643 -0.2080 -1.1221
  983MOL0     H29692  10.578   6.615   6.604  1.0136 -1.2329 -0.3926
  983MOL0     H29693  10.369   6.526   6.623 -1.6891 -0.7339  1.2558
  983MOL0     H29694  10.355   6.704   6.638  3.2598  0.9196  2.6941
  983MOL0     H29695  10.126   6.638   6.759 -0.1402 -1.5807  1.7299
  983MOL0     H29696  10.183   6.478   6.752 -3.6431  2.3656  3.2519
  983MOL0     H29697  10.010   6.546   6.560 -1.6145  3.0671  0.5284
  983MOL0     H29698  10.173   6.489   6.513 -0.2498 -1.7065  2.4329
  983MOL0     H29699  10.072   6.779   6.528 -0.0288  1.1253 -2.7431
  983MOL0     H29700  10.234   6.743   6.486 -1.1702  3.0200 -4.1879
  983MOL0     H29701  10.009   6.623   6.329  0.7028 -0.1618 -4.0652
  983MOL0     H29702  10.181   6.649   6.289  0.4129 -0.5868 -0.4656
  983MOL0     H29703  10.119   6.905   6.292  1.1412 -0.9584 -2.5801
  983MOL0     H29704   9.952   6.855   6.347 -0.2101 -1.7702  0.8158
  983MOL0     H29705  10.087   6.790   6.078  0.5436  1.3284  0.7955
  983MOL0     H29706   9.938   6.717   6.139  0.9561 -0.3240  0.5569
  983MOL0     H29707   9.899   6.889   5.982  0.6696  2.5948 -0.0607
  983MOL0     H29708  10.001   7.004   6.070 -1.0490  2.0674  1.6028
  983MOL0     H29709   9.832   7.197   6.202 -1.3335  0.0589 -1.1845
  983MOL0     H29710   9.489   7.166   6.340  0.0233  0.2152 -0.3671
  983MOL0     H29711   9.567   7.285   6.236 -1.9908  0.7183  1.3245
  983MOL0     H29712   9.617   7.378   6.446 -0.6388 -1.1113  0.4942
  983MOL0     H29713   9.770   7.289   6.405  0.6938 -1.6300 -1.5741
  983MOL0     H29714   9.670   7.094   6.521  0.4587 -0.2229  2.5293
  983MOL0     H29715   9.722   7.217   6.628 -1.1242 -1.5361  0.7570
  983MOL0     H29716   9.435   7.229   6.548 -0.1232 -2.1830  0.2255
  983MOL0     H29717   9.518   7.336   6.663 -0.8429  0.0860  1.0819
  983MOL0     H29718   9.365   7.396   6.788  0.8647 -0.9640 -2.1570
  983MOL0     H29719   9.186   7.440   6.948 -1.0184  0.6914 -2.0002
  983MOL0     H29720   8.749   7.032   7.073  0.1429 -0.6182  0.5813
  983MOL0     H29721   8.548   7.032   7.182 -1.5269  0.7159  3.3378
  983MOL0     H29722   8.389   7.026   7.320 -0.6879 -0.3218  1.4340
  983MOL0     H29723   8.366   7.191   7.257  1.2374 -0.1573 -0.6067
  983MOL0     H29724   8.282   7.130   7.543 -1.0778 -2.9007  0.4183
  983MOL0     H29725   8.178   7.082   7.409 -0.3557  2.5661 -2.8032
  983MOL0     H29726   8.274   7.361   7.470 -0.3198 -0.7309  0.4768
  983MOL0     H29727   8.118   7.293   7.507 -0.4490  0.9379 -1.0230
  983MOL0     H29728   8.227   7.404   7.250 -0.6396  2.7232  2.1289
  983MOL0     H29729   8.123   7.255   7.231 -0.2824  1.4530 -1.8915
  983MOL0     H29730   7.961   7.377   7.389  0.0126  1.5722  1.1883
  983MOL0     H29731   7.974   7.412   7.213  1.9844 -2.1423 -0.7726
  983MOL0     H29732   8.118   7.606   7.273 -2.1287 -1.2609 -2.4870
  983MOL0     H29733   8.103   7.574   7.446 -1.2244  2.4426  0.0755
  983MOL0     H29734   7.859   7.630   7.287  1.3770 -0.7210 -0.5161
  983MOL0     H29735   7.883   7.622   7.457  2.9572 -0.0424  1.0393
  983MOL0     H29736   7.994   7.834   7.273 -0.9566  1.7024 -0.1954
  983MOL0     H29737   8.033   7.824   7.448  1.2377 -3.6499  0.3055
  983MOL0     H29738   8.713   7.305   7.475  1.2957  0.3142  0.5014
  983MOL0     H29739   8.935   7.290   7.369 -0.0802 -0.6980  1.3042
  983MOL0     H29740   9.107   7.010   6.951  2.1873 -2.1351  2.9232
  983MOL0     H29741   9.313   6.976   6.820 -2.3397 -1.2894 -0.8073
  983MOL0     H29742  10.514   6.664   7.016 -0.1458  0.4752 -0.1457
  983MOL0     H29743  10.751   6.699   7.059 -3.2274 -2.0172  0.6394
  983MOL0     H29744  11.242   6.700   7.117  1.9600  0.3753  0.9467
  983MOL0     H29745  11.461   6.786   7.071 -0.8118  2.1142 -0.6267
  983MOL0     H29746  11.537   7.110   6.761  1.2643  0.1725  1.0007
  983MOL0     H29747  11.536   6.969   6.657 -4.8528 -0.5242  2.1843
  983MOL0     H29748  11.755   7.061   6.649  0.3980 -3.9831 -1.9186
  983MOL0     H29749  11.785   7.086   6.820  2.3074  1.7787 -2.5225
  983MOL0     H29750  11.777   6.837   6.836 -2.6768  0.6615 -0.9595
  983MOL0     H29751  11.915   6.921   6.758 -0.8280  1.9410 -1.6517
  983MOL0     H29752  11.713   6.755   6.596  1.4297 -0.9694  0.1054
  983MOL0     H29753  11.824   6.879   6.531 -0.5172 -0.4026 -0.4543
  983MOL0     H29754  12.014   6.506   6.586 -0.1894  0.7816 -0.2613
  983MOL0     H29755  11.331   6.917   6.676  0.7152  0.7621 -0.0246
  983MOL0     H29756  11.124   6.803   6.721  0.5829  3.7483 -0.8934
  984MOL0     O29757   5.433   4.216   7.166  0.1979  0.3328 -0.0992
  984MOL0     C29758   5.520   4.266   7.095  0.5757 -0.5949  0.5908
  984MOL0     O29759   5.505   4.300   6.965  0.5381 -0.1549 -0.5509
  984MOL0     C29760   5.386   4.294   6.910  0.2557  0.3269  0.3664
  984MOL0     C29761   5.340   4.408   6.838 -0.7045  0.5107 -1.2966
  984MOL0     C29762   5.210   4.412   6.785  0.7315 -0.0428 -0.5570
  984MOL0     C29763   5.140   4.292   6.798 -0.3849  0.3829  0.1672
  984MOL0     O29764   5.008   4.271   6.750 -0.6005  0.3795 -0.5165
  984MOL0     C29765   4.974   4.335   6.634  0.1718  0.0092 -0.5345
  984MOL0     C29766   4.830   4.299   6.594 -0.9330 -0.2563  1.0863
  984MOL0     C29767   4.803   4.356   6.455  0.9567 -0.4039  0.9787
  984MOL0     C29768   4.655   4.360   6.405  0.2852 -1.0477  1.5592
  984MOL0     C29769   4.633   4.423   6.271 -0.5620  0.7603 -0.1489
  984MOL0     C29770   4.494   4.431   6.213  0.1133  0.6034  0.6954
  984MOL0     C29771   4.446   4.281   6.176 -0.1744  0.2965 -1.2706
  984MOL0     C29772   4.528   4.234   6.060  0.1861  1.0517 -0.0208
  984MOL0     N29773   4.490   4.099   6.007  0.1395  0.6019 -0.6557
  984MOL0     C29774   4.360   4.073   5.964 -0.7519 -0.4512  1.0662
  984MOL0     C29775   4.371   3.947   5.917  0.7853 -0.1682  0.1314
  984MOL0     C29776   4.264   3.878   5.833 -0.5559 -0.3542  0.3433
  984MOL0     C29777   4.128   3.864   5.904 -0.3259 -0.3215  0.2573
  984MOL0     C29778   4.023   3.801   5.810 -0.4992 -0.2035  0.1221
  984MOL0     C29779   3.904   3.766   5.892 -0.3772  0.4165  0.2721
  984MOL0     O29780   3.819   3.881   5.939  0.9497 -0.3202  0.1299
  984MOL0     C29781   3.686   3.860   5.968  0.1861 -0.6489  0.0917
  984MOL0     C29782   3.604   3.794   5.873 -0.3877  0.5771 -0.4256
  984MOL0     C29783   3.467   3.774   5.897  0.5266 -0.1481 -0.2657
  984MOL0     C29784   3.410   3.833   6.016  0.2964  0.2874  1.0309
  984MOL0     C29785   3.265   3.812   6.050 -0.8410 -0.0448 -0.1844
  984MOL0     O29786   3.218   3.848   6.169 -0.1623  0.1139  0.3347
  984MOL0     C29787   3.094   3.798   6.198  0.2527 -0.6914  0.7661
  984MOL0     C29788   3.077   3.720   6.307  0.7739  0.0740  0.1961
  984MOL0     C29789   2.949   3.659   6.339 -0.3717 -0.5646 -0.4428
  984MOL0     C29790   2.845   3.675   6.240  0.5662  0.2932  0.7431
  984MOL0     O29791   2.717   3.627   6.253  1.0495 -0.5090  0.1718
  984MOL0     C29792   2.703   3.498   6.300  0.6530 -0.1379  0.1543
  984MOL0     C29793   2.553   3.457   6.294  0.0684 -0.0623 -0.8102
  984MOL0     C29794   2.476   3.497   6.423 -0.1910 -0.2443  0.0785
  984MOL0     C29795   2.339   3.418   6.439 -1.2712 -0.2758  0.7454
  984MOL0     C29796   2.252   3.476   6.543  0.0575 -0.6316 -0.4774
  984MOL0     C29797   2.115   3.402   6.539 -0.2358 -0.1807 -0.1664
  984MOL0     C29798   2.050   3.410   6.672 -0.4695  0.6019  0.5563
  984MOL0     C29799   1.909   3.361   6.661 -0.8807 -0.0616 -0.1283
  984MOL0    Cl29800   1.827   3.365   6.824  0.0061 -0.1955  0.0712
  984MOL0     C29801   2.865   3.762   6.135 -0.8641  0.4344 -0.0376
  984MOL0     C29802   2.991   3.818   6.106  0.2176 -0.2421 -1.0549
  984MOL0     O29803   3.201   3.738   5.967  0.1701 -0.0754  0.0494
  984MOL0     C29804   3.494   3.910   6.105  0.2322  0.5017  0.2594
  984MOL0     C29805   3.629   3.923   6.080  0.4749  0.1938  0.1310
  984MOL0     N29806   4.505   3.902   5.940  0.3818 -0.1322 -0.3792
  984MOL0     N29807   4.570   3.991   6.001  0.4424 -0.2642  0.6435
  984MOL0     C29808   5.187   4.171   6.852 -0.2482  0.2142  0.0115
  984MOL0     C29809   5.313   4.171   6.913  0.2946 -0.3850 -0.0505
  984MOL0     C29810   5.655   4.255   7.159  0.0134 -0.2319  0.1425
  984MOL0     C29811   5.773   4.274   7.080  0.1426 -0.4176  0.4461
  984MOL0     C29812   5.901   4.252   7.134 -1.0253  0.5502 -0.1054
  984MOL0     C29813   5.910   4.232   7.277  0.5027  0.5215  0.1312
  984MOL0     O29814   6.030   4.210   7.342  0.2493  0.6792  0.4525
  984MOL0     C29815   6.161   4.198   7.284  0.0880  1.0358 -0.0777
  984MOL0     C29816   6.253   4.314   7.302  0.1376 -0.5255  0.0673
  984MOL0     C29817   6.399   4.265   7.290  0.5891  0.1003 -0.0795
  984MOL0     C29818   6.497   4.375   7.279  0.2996  0.0687  0.2348
  984MOL0     C29819   6.634   4.333   7.293  0.1451  0.8550 -0.4593
  984MOL0     C29820   6.751   4.319   7.314  0.8949  0.1732  0.9322
  984MOL0     C29821   5.796   4.216   7.355 -0.1874 -0.3968  0.3567
  984MOL0     C29822   5.673   4.232   7.301 -0.4843  1.5459 -0.2371
  984MOL0     H29823   5.415   4.485   6.820  1.5666 -1.9408 -3.1419
  984MOL0     H29824   5.179   4.495   6.722 -1.9333 -1.1717 -0.8842
  984MOL0     H29825   5.047   4.302   6.559  1.0991  2.0432 -0.6084
  984MOL0     H29826   4.984   4.443   6.645 -0.1312  0.0521 -0.6948
  984MOL0     H29827   4.755   4.344   6.660 -1.9107  0.7046 -0.6022
  984MOL0     H29828   4.819   4.190   6.594  3.2101 -0.8573  2.5841
  984MOL0     H29829   4.867   4.292   6.394  3.1793  0.1931  2.5175
  984MOL0     H29830   4.841   4.458   6.457  2.0926 -0.5342 -3.4770
  984MOL0     H29831   4.613   4.260   6.391  1.7595 -1.5024  0.1510
  984MOL0     H29832   4.597   4.418   6.478  0.2963 -1.0191  1.5452
  984MOL0     H29833   4.693   4.386   6.188 -2.9474  1.0173 -2.0907
  984MOL0     H29834   4.659   4.529   6.282  1.1370  0.1300  5.3476
  984MOL0     H29835   4.506   4.487   6.119  0.6191 -1.3713 -0.4723
  984MOL0     H29836   4.422   4.471   6.285 -1.1650  0.9361 -0.7251
  984MOL0     H29837   4.431   4.220   6.266 -2.2925 -1.5060 -2.7307
  984MOL0     H29838   4.340   4.287   6.146 -0.0178  0.7628 -1.7433
  984MOL0     H29839   4.633   4.226   6.091 -0.3266  1.7367  2.0387
  984MOL0     H29840   4.523   4.304   5.976  1.2839 -0.2762 -1.2371
  984MOL0     H29841   4.272   4.137   5.958  1.2047  2.2727 -0.6582
  984MOL0     H29842   4.303   3.780   5.805 -2.2011 -0.4062 -2.0741
  984MOL0     H29843   4.255   3.929   5.737  0.0535 -2.7145 -1.0540
  984MOL0     H29844   4.086   3.963   5.925 -0.8420 -0.1531 -1.3910
  984MOL0     H29845   4.135   3.798   5.991  2.0619  0.9241  1.0918
  984MOL0     H29846   3.990   3.869   5.731 -0.3171  0.3868  0.5521
  984MOL0     H29847   4.059   3.709   5.762  1.4668  0.5557  0.0658
  984MOL0     H29848   3.924   3.704   5.980  1.0987 -0.7427 -0.8033
  984MOL0     H29849   3.852   3.693   5.829 -2.4800  1.5090  0.6481
  984MOL0     H29850   3.645   3.757   5.780 -1.1341  1.5825 -1.1758
  984MOL0     H29851   3.402   3.715   5.833  0.1750 -0.9981  0.8398
  984MOL0     H29852   3.160   3.702   6.375  1.2084  1.2522  0.0047
  984MOL0     H29853   2.940   3.596   6.427  3.2003  1.2668  1.4278
  984MOL0     H29854   2.735   3.481   6.404  0.9053 -1.9906 -0.1865
  984MOL0     H29855   2.763   3.427   6.242 -0.4820 -0.7292 -0.3179
  984MOL0     H29856   2.553   3.347   6.295 -0.2604 -0.0619  0.3961
  984MOL0     H29857   2.500   3.491   6.205 -0.5028 -3.2640 -1.8332
  984MOL0     H29858   2.458   3.604   6.430  0.5679 -0.1202  0.2902
  984MOL0     H29859   2.538   3.465   6.508 -0.5374 -0.4501  0.2584
  984MOL0     H29860   2.287   3.430   6.344 -1.0459 -1.7250  0.4192
  984MOL0     H29861   2.354   3.312   6.463  1.6041 -0.1032  0.0137
  984MOL0     H29862   2.232   3.584   6.536 -3.0827 -1.0417  0.3074
  984MOL0     H29863   2.287   3.450   6.643 -3.5596 -1.3310  0.7620
  984MOL0     H29864   2.130   3.297   6.511  0.3064 -0.0013 -0.5683
  984MOL0     H29865   2.042   3.426   6.461 -1.7552 -0.6544  1.0473
  984MOL0     H29866   2.108   3.341   6.735  2.4144  0.0668 -2.3921
  984MOL0     H29867   2.058   3.512   6.710  0.4394  1.2010 -1.1416
  984MOL0     H29868   1.898   3.257   6.628 -0.6696  1.0729 -4.2021
  984MOL0     H29869   1.863   3.419   6.581  1.7705  2.1219 -0.1973
  984MOL0     H29870   2.775   3.773   6.076 -1.8527 -0.0755  1.3253
  984MOL0     H29871   3.003   3.870   6.012  1.0411 -2.9036 -2.5175
  984MOL0     H29872   3.450   3.953   6.195  0.6902 -2.0846  1.8340
  984MOL0     H29873   3.702   3.970   6.144  3.6499 -2.2133 -1.4537
  984MOL0     H29874   5.142   4.072   6.848  1.2229 -0.4598 -0.8670
  984MOL0     H29875   5.353   4.083   6.963  0.2145  0.5666  1.7707
  984MOL0     H29876   5.766   4.277   6.972 -2.2666  2.5047  0.5522
  984MOL0     H29877   5.992   4.258   7.076  0.0621  0.6046  1.5263
  984MOL0     H29878   6.164   4.162   7.180 -3.9223 -1.6860  0.5003
  984MOL0     H29879   6.202   4.118   7.346 -0.5081  0.0896 -0.8659
  984MOL0     H29880   6.222   4.377   7.219 -1.2113 -1.9678 -0.5636
  984MOL0     H29881   6.237   4.354   7.403  0.0922 -3.2772  1.2364
  984MOL0     H29882   6.402   4.208   7.197 -2.2191  0.4178 -0.4388
  984MOL0     H29883   6.418   4.201   7.377  0.9051 -1.2302 -1.0925
  984MOL0     H29884   6.494   4.427   7.182  1.9508  2.2079  1.2248
  984MOL0     H29885   6.493   4.447   7.361  2.4302  1.0701 -0.4410
  984MOL0     H29886   6.855   4.312   7.336  1.0454 -1.2362 -0.1052
  984MOL0     H29887   5.793   4.202   7.463  1.9012 -1.2684  0.3523
  984MOL0     H29888   5.583   4.210   7.358  1.3645 -1.2349  1.8478
  985MOL0     O29889   2.188  10.971  10.931  0.4911 -0.2230  0.0888
  985MOL0     C29890   2.186  10.959  10.807  0.1544  0.3866  0.4850
  985MOL0     O29891   2.076  10.990  10.731  0.9221  0.1090 -0.1738
  985MOL0     C29892   1.977  11.080  10.775  0.4202  0.2524 -0.2409
  985MOL0     C29893   1.996  11.188  10.855  0.3127 -0.5060  0.4530
  985MOL0     C29894   1.893  11.271  10.896 -0.5477 -0.1391  0.6548
  985MOL0     C29895   1.765  11.250  10.855  0.7573 -0.0857 -0.4201
  985MOL0     O29896   1.674  11.335  10.917 -0.4936  0.1418 -0.1630
  985MOL0     C29897   1.532  11.312  10.892  0.7874 -0.9409  0.4297
  985MOL0     C29898   1.510  11.377  10.753 -0.1493 -0.9223  0.2645
  985MOL0     C29899   1.356  11.379  10.726  0.3108  0.8931 -1.1139
  985MOL0     C29900   1.302  11.256  10.657  0.0476  0.1647  0.6364
  985MOL0     C29901   1.158  11.283  10.593 -0.3435 -0.5023  0.2438
  985MOL0     C29902   1.056  11.314  10.706  0.1681  0.2544  0.6003
  985MOL0     C29903   1.045  11.207  10.819 -0.0971  0.1630  0.8215
  985MOL0     C29904   0.977  11.085  10.765  0.7812  0.7769  0.5314
  985MOL0     N29905   0.837  11.094  10.736  0.4324  0.5689 -0.1646
  985MOL0     C29906   0.739  11.164  10.801 -0.4785  0.2417  0.3370
  985MOL0     C29907   0.620  11.146  10.736 -0.7162 -0.5268  0.9179
  985MOL0     C29908   0.479  11.194  10.782  0.5145  0.4103  0.6765
  985MOL0     C29909   0.412  11.080  10.855  0.1152  0.7873  0.2306
  985MOL0     C29910   0.252  11.095  10.857 -0.3810 -0.9976 -0.3935
  985MOL0     C29911   0.189  11.230  10.918  0.8708  0.4802  1.5305
  985MOL0     O29912   0.225  11.260  11.057 -0.0173 -0.7034  0.5846
  985MOL0     C29913   0.124  11.310  11.137 -0.5909 -0.9230  0.1714
  985MOL0     C29914   0.043  11.411  11.091  0.2239 -0.8163 -0.7483
  985MOL0     C29915  -0.053  11.467  11.187  0.5395 -0.5900 -0.0409
  985MOL0     C29916  -0.071  11.421  11.315 -0.0098  0.4759  0.8383
  985MOL0     C29917  -0.176  11.463  11.406 -0.0415  0.2271 -0.2118
  985MOL0     O29918  -0.156  11.427  11.539 -0.4820 -0.4382  0.3257
  985MOL0     C29919  -0.256  11.472  11.621 -0.5781  0.1518  0.1067
  985MOL0     C29920  -0.331  11.374  11.690  0.8614 -0.5061 -0.0118
  985MOL0     C29921  -0.423  11.410  11.798  0.4983 -0.1475  0.3776
  985MOL0     C29922  -0.452  11.540  11.832  0.2299  0.4744  0.0061
  985MOL0     O29923  -0.563  11.564  11.895  0.1018  0.2670  0.0887
  985MOL0     C29924  -0.669  11.610  11.812 -0.3279  0.0245 -0.3681
  985MOL0     C29925  -0.721  11.735  11.865 -0.2870 -0.3451  0.7338
  985MOL0     C29926  -0.849  11.779  11.806  1.5363  0.2073  0.7375
  985MOL0     C29927  -0.976  11.698  11.846 -0.6688 -0.2335  0.9902
  985MOL0     C29928  -0.988  11.681  12.000  0.1584  0.0683 -0.2757
  985MOL0     C29929  -0.955  11.803  12.093 -0.5118 -0.4674  0.5173
  985MOL0     C29930  -1.046  11.807  12.220  0.1992 -0.5204 -0.3465
  985MOL0     C29931  -0.990  11.902  12.319  0.3713 -0.1650 -0.8978
  985MOL0    Cl29932  -1.038  12.067  12.295 -0.0673  0.0258  0.4307
  985MOL0     C29933  -0.380  11.639  11.753 -0.2616  0.2619 -0.5838
  985MOL0     C29934  -0.280  11.604  11.659 -0.1060 -0.0747  0.2155
  985MOL0     O29935  -0.263  11.541  11.358 -0.1235  0.3483  0.1069
  985MOL0     C29936   0.010  11.312  11.349 -0.4639 -0.0228 -0.1201
  985MOL0     C29937   0.112  11.261  11.270  0.4767 -0.7253 -0.6265
  985MOL0     N29938   0.646  11.057  10.632 -1.3484  0.3169  0.8672
  985MOL0     N29939   0.777  11.033  10.630 -0.3402 -0.5843 -0.1281
  985MOL0     C29940   1.740  11.136  10.774 -1.1293 -0.6546 -0.5481
  985MOL0     C29941   1.847  11.051  10.735 -0.2710 -0.3104 -0.1609
  985MOL0     C29942   2.304  10.888  10.756  0.1509  0.2108  0.7589
  985MOL0     C29943   2.305  10.829  10.628  0.4012  0.4711  1.0330
  985MOL0     C29944   2.411  10.736  10.590 -0.3295  0.0816  0.7275
  985MOL0     C29945   2.514  10.705  10.682  0.3175  0.0034  0.7907
  985MOL0     O29946   2.620  10.626  10.648  0.2687 -0.3072  0.5292
  985MOL0     C29947   2.590  10.504  10.575 -0.5546 -0.9234  0.3720
  985MOL0     C29948   2.677  10.384  10.631 -0.0168 -0.5892 -0.1042
  985MOL0     C29949   2.824  10.425  10.664  0.5405 -1.0429  0.3517
  985MOL0     C29950   2.926  10.309  10.682  0.2234 -0.8611 -1.0072
  985MOL0     C29951   2.943  10.216  10.578 -0.1031 -0.0508  0.3330
  985MOL0     C29952   2.958  10.134  10.485 -0.1063 -0.1937 -0.3071
  985MOL0     C29953   2.514  10.769  10.798  0.1226  0.1846  0.2219
  985MOL0     C29954   2.422  10.871  10.839 -0.3654  0.3737  0.6327
  985MOL0     H29955   2.097  11.199  10.892 -0.3199  2.9894  1.5722
  985MOL0     H29956   1.913  11.353  10.963 -0.7502 -0.3641  0.9939
  985MOL0     H29957   1.468  11.372  10.957  0.6383  0.4507 -0.9617
  985MOL0     H29958   1.504  11.206  10.898  1.4117 -1.1569 -0.3585
  985MOL0     H29959   1.567  11.331  10.672  1.0463 -0.1818  0.6662
  985MOL0     H29960   1.536  11.483  10.760 -2.4180 -0.2293 -0.5328
  985MOL0     H29961   1.344  11.457  10.650 -3.4597  1.8670  0.2509
  985MOL0     H29962   1.301  11.409  10.816 -0.2106 -0.1014 -1.0867
  985MOL0     H29963   1.377  11.228  10.582  0.4070  2.6785 -0.0254
  985MOL0     H29964   1.301  11.176  10.732 -2.4608 -0.3212  0.1884
  985MOL0     H29965   1.131  11.194  10.536  0.8306 -0.5588 -0.2417
  985MOL0     H29966   1.169  11.368  10.526  0.3386 -2.3091 -2.0649
  985MOL0     H29967   0.963  11.332  10.651  1.2429 -0.9991 -1.7250
  985MOL0     H29968   1.092  11.399  10.765  1.4915 -0.8919  1.5175
  985MOL0     H29969   1.143  11.184  10.861 -0.7518 -0.0265  2.2993
  985MOL0     H29970   0.997  11.242  10.910  1.1916  0.3695  1.4422
  985MOL0     H29971   0.996  10.996  10.827  0.4037 -0.7523 -1.4490
  985MOL0     H29972   1.018  11.055  10.668 -1.5164  1.3206 -0.6791
  985MOL0     H29973   0.758  11.234  10.882 -0.7720  0.6459  0.0623
  985MOL0     H29974   0.429  11.223  10.689  2.3330  2.5276  0.2753
  985MOL0     H29975   0.486  11.284  10.842 -0.2345  2.9515 -2.7308
  985MOL0     H29976   0.454  11.067  10.955 -1.5901  0.6393  0.9737
  985MOL0     H29977   0.440  10.994  10.795 -0.9982 -0.3127  1.2322
  985MOL0     H29978   0.228  11.064  10.755 -1.8112  0.5648 -0.5713
  985MOL0     H29979   0.213  11.013  10.918 -2.3376  0.5654  0.5834
  985MOL0     H29980   0.082  11.225  10.897  1.1703 -2.7332  0.1683
  985MOL0     H29981   0.221  11.318  10.862  2.2740  0.1856  1.8116
  985MOL0     H29982   0.050  11.444  10.988 -0.9027  0.8083 -0.3447
  985MOL0     H29983  -0.116  11.549  11.152  2.0782  0.2154 -1.0547
  985MOL0     H29984  -0.314  11.272  11.659 -2.8531 -1.2308 -0.1274
  985MOL0     H29985  -0.467  11.326  11.850  0.9395  0.8561  2.4509
  985MOL0     H29986  -0.747  11.533  11.816 -1.9475  1.6075 -0.4261
  985MOL0     H29987  -0.634  11.625  11.710  2.9469 -2.7180  0.1440
  985MOL0     H29988  -0.650  11.816  11.844 -1.6926  1.0974  1.4153
  985MOL0     H29989  -0.727  11.724  11.974  0.5956 -1.8210  0.6677
  985MOL0     H29990  -0.837  11.783  11.697 -0.4101 -2.0318  0.3579
  985MOL0     H29991  -0.865  11.881  11.840 -1.3126 -0.4846  1.7471
  985MOL0     H29992  -1.061  11.733  11.787  1.6272  0.9387 -1.8236
  985MOL0     H29993  -0.962  11.599  11.803  0.0200  0.7303 -1.1544
  985MOL0     H29994  -0.929  11.593  12.029 -3.8410 -1.8263  3.1680
  985MOL0     H29995  -1.090  11.650  12.020  1.1961 -2.9987  0.7987
  985MOL0     H29996  -0.961  11.901  12.046  0.9495 -0.6688 -0.1307
  985MOL0     H29997  -0.855  11.791  12.135 -0.9155 -0.4105  1.5236
  985MOL0     H29998  -1.143  11.849  12.195  2.3594  3.8515 -2.4939
  985MOL0     H29999  -1.053  11.709  12.269  3.1026 -1.0065 -0.6750
  985MOL0     H30000  -0.884  11.887  12.338  0.0191 -0.4558  1.1315
  985MOL0     H30001  -1.054  11.878  12.405  1.2944  2.1863  0.5428
  985MOL0     H30002  -0.390  11.742  11.784  0.9784 -0.1617  1.4376
  985MOL0     H30003  -0.223  11.683  11.611  0.5383 -2.2083 -2.9145
  985MOL0     H30004   0.001  11.261  11.444  1.1631  2.5492  1.5206
  985MOL0     H30005   0.169  11.182  11.317 -0.5126 -1.4273 -0.5735
  985MOL0     H30006   1.641  11.100  10.747 -2.3759  2.2056 -0.1510
  985MOL0     H30007   1.812  10.981  10.660  0.6744 -0.4161 -0.5180
  985MOL0     H30008   2.219  10.836  10.561  1.0531 -1.4154 -0.0749
  985MOL0     H30009   2.406  10.690  10.492  0.7870 -0.9511  1.1226
  985MOL0     H30010   2.617  10.518  10.470  0.0626  2.4911  0.8761
  985MOL0     H30011   2.489  10.472  10.601  0.1479 -1.5035  2.5807
  985MOL0     H30012   2.625  10.341  10.718  1.4136 -1.6589  0.2584
  985MOL0     H30013   2.674  10.303  10.558 -0.1281  0.3408 -1.1620
  985MOL0     H30014   2.812  10.488  10.753 -0.0327  2.3989 -1.9430
  985MOL0     H30015   2.867  10.492  10.588 -0.0741 -2.0075 -0.8953
  985MOL0     H30016   3.026  10.345  10.710 -0.3939 -1.8057  3.1346
  985MOL0     H30017   2.896  10.247  10.767  1.6796 -1.1627 -0.6913
  985MOL0     H30018   2.951  10.058  10.409  0.9608  0.2191 -0.8547
  985MOL0     H30019   2.597  10.762  10.868  0.8221  0.6933 -0.5278
  985MOL0     H30020   2.418  10.924  10.934 -2.0785  3.1511 -0.8452
  986MOL0     O30021   5.512   0.694   1.451  0.6978  0.5200  0.4151
  986MOL0     C30022   5.553   0.591   1.511  0.1729  0.6970 -0.3085
  986MOL0     O30023   5.489   0.528   1.619  0.2760  0.5970  0.4262
  986MOL0     C30024   5.357   0.528   1.630  0.8727  0.2193  0.4686
  986MOL0     C30025   5.270   0.508   1.518 -0.4128  0.2024  0.0118
  986MOL0     C30026   5.128   0.517   1.538  0.2889 -0.2370  0.1882
  986MOL0     C30027   5.068   0.548   1.664  0.4143  0.1459 -0.5590
  986MOL0     O30028   4.935   0.555   1.686  0.4903  0.3592  0.2915
  986MOL0     C30029   4.833   0.573   1.588 -0.3630 -0.2187  0.0311
  986MOL0     C30030   4.711   0.645   1.655  0.5260  0.5123  0.2916
  986MOL0     C30031   4.643   0.743   1.552 -0.6795  0.0264 -0.2653
  986MOL0     C30032   4.498   0.787   1.580  0.7469 -0.7486  0.5415
  986MOL0     C30033   4.450   0.886   1.471  0.0954  0.8260 -0.1381
  986MOL0     C30034   4.306   0.917   1.485  0.2967 -0.3951  1.0427
  986MOL0     C30035   4.274   1.039   1.390  1.0958 -0.0001  0.1647
  986MOL0     C30036   4.128   1.090   1.419 -0.1081 -0.8335  0.4181
  986MOL0     N30037   4.111   1.149   1.553  0.1654  0.7768 -0.1182
  986MOL0     C30038   4.191   1.246   1.607  0.1651  0.6660 -0.2953
  986MOL0     C30039   4.141   1.267   1.730  0.6073  0.7882  0.0816
  986MOL0     C30040   4.193   1.370   1.831  0.2860 -0.0993 -0.7571
  986MOL0     C30041   4.199   1.326   1.981 -0.0473  0.4064 -0.0698
  986MOL0     C30042   4.306   1.222   2.025  1.2504  0.5079  0.8984
  986MOL0     C30043   4.282   1.082   1.962 -0.2369  0.4256  0.2116
  986MOL0     O30044   4.372   0.982   2.011 -0.0790 -0.3788  0.3591
  986MOL0     C30045   4.503   0.989   1.971  0.7365 -0.9441  0.6491
  986MOL0     C30046   4.580   0.900   2.046 -0.1306 -0.2694 -0.2947
  986MOL0     C30047   4.717   0.905   2.021  0.0297  0.6187  0.5458
  986MOL0     C30048   4.771   0.987   1.924  0.0361 -0.2624 -0.0593
  986MOL0     C30049   4.917   0.986   1.906 -0.2836  0.1115  0.5716
  986MOL0     O30050   4.984   0.882   1.962  0.5963 -0.0109  0.9542
  986MOL0     C30051   5.129   0.877   1.950  0.5548  0.1402 -0.9414
  986MOL0     C30052   5.192   0.907   1.836  0.3522 -0.6452 -0.1967
  986MOL0     C30053   5.329   0.920   1.842 -0.2116  0.4426 -0.3124
  986MOL0     C30054   5.400   0.883   1.957  0.2582 -0.9264 -0.0314
  986MOL0     O30055   5.540   0.872   1.962  0.3753 -0.0502 -0.2520
  986MOL0     C30056   5.605   0.916   1.841  0.3499  0.2781  0.9394
  986MOL0     C30057   5.756   0.909   1.848 -0.3995  0.7085 -0.8409
  986MOL0     C30058   5.803   0.768   1.884 -0.3751 -0.4965 -0.6414
  986MOL0     C30059   5.810   0.680   1.761  0.0536 -0.3361 -0.2608
  986MOL0     C30060   5.934   0.716   1.679  0.0608  0.0119  0.6443
  986MOL0     C30061   6.072   0.668   1.734 -0.4168 -0.4643  0.2818
  986MOL0     C30062   6.189   0.691   1.627 -0.1168 -0.3068 -0.3521
  986MOL0     C30063   6.279   0.815   1.644  0.7886  0.4273  0.4617
  986MOL0    Cl30064   6.430   0.793   1.550 -0.0370 -0.2433  0.0702
  986MOL0     C30065   5.328   0.835   2.068  0.3231 -0.2036 -0.3089
  986MOL0     C30066   5.195   0.843   2.073 -0.8385  0.0665  0.4876
  986MOL0     O30067   4.972   1.083   1.860  0.1744 -0.3193 -0.8755
  986MOL0     C30068   4.693   1.083   1.857 -0.2201  0.1151  0.3096
  986MOL0     C30069   4.551   1.075   1.874  0.3505 -0.3741 -0.5230
  986MOL0     N30070   4.031   1.188   1.745 -0.5711  0.8695 -0.4450
  986MOL0     N30071   4.010   1.116   1.632  0.1222  0.5090  0.2863
  986MOL0     C30072   5.157   0.564   1.776  0.0432 -0.3883  0.6487
  986MOL0     C30073   5.294   0.545   1.756 -0.1889  0.4126 -0.0773
  986MOL0     C30074   5.677   0.528   1.463 -0.0844  0.8263  0.2833
  986MOL0     C30075   5.708   0.399   1.492 -0.3379  0.3606  0.8438
  986MOL0     C30076   5.832   0.347   1.440  0.3130  0.0109  0.3176
  986MOL0     C30077   5.914   0.418   1.350 -0.1017 -0.0663  0.1084
  986MOL0     O30078   6.035   0.368   1.301  0.2385  0.1456  0.5417
  986MOL0     C30079   6.127   0.453   1.229 -0.1685  0.6550  0.3244
  986MOL0     C30080   6.256   0.393   1.187 -0.2184 -0.4101 -0.5862
  986MOL0     C30081   6.347   0.499   1.125 -0.0123 -0.9373 -1.0730
  986MOL0     C30082   6.460   0.434   1.042  0.2292 -0.7009 -0.4317
  986MOL0     C30083   6.591   0.448   1.103  0.1484  0.1475  0.2684
  986MOL0     C30084   6.701   0.479   1.151 -0.0912  0.3358 -0.4625
  986MOL0     C30085   5.873   0.543   1.320 -0.0677 -0.2188  0.0919
  986MOL0     C30086   5.752   0.600   1.366  0.3153  0.1385  0.3978
  986MOL0     H30087   5.305   0.494   1.416  1.7168 -0.2706  0.7442
  986MOL0     H30088   5.055   0.497   1.460  0.3170  0.5178 -0.0373
  986MOL0     H30089   4.800   0.473   1.559 -0.1444 -0.6277  1.1664
  986MOL0     H30090   4.875   0.621   1.498 -0.6737 -0.3516 -0.1841
  986MOL0     H30091   4.731   0.704   1.745  3.0916  1.1110 -0.5881
  986MOL0     H30092   4.649   0.562   1.691 -1.8333  1.6131 -0.9494
  986MOL0     H30093   4.635   0.699   1.452 -0.4387 -0.3256 -0.1318
  986MOL0     H30094   4.693   0.838   1.533 -2.9791  1.3187 -0.2079
  986MOL0     H30095   4.422   0.708   1.581 -0.0776  0.0302  1.3500
  986MOL0     H30096   4.491   0.846   1.671 -1.1356 -1.1440  0.6984
  986MOL0     H30097   4.491   0.853   1.375  0.8139  6.3381 -2.0763
  986MOL0     H30098   4.503   0.981   1.476 -1.0610  1.4436  0.9845
  986MOL0     H30099   4.267   0.948   1.582 -2.4837  0.4072 -0.2004
  986MOL0     H30100   4.249   0.831   1.449  1.6136 -1.4141  1.3596
  986MOL0     H30101   4.338   1.127   1.401  0.1204  0.9507 -1.4607
  986MOL0     H30102   4.281   0.999   1.289 -2.1336 -0.9067  0.2063
  986MOL0     H30103   4.067   1.001   1.401  0.5712 -1.4507  1.0969
  986MOL0     H30104   4.103   1.159   1.337  1.3356 -1.9305 -1.0094
  986MOL0     H30105   4.278   1.290   1.559  0.0942  2.2756  0.9616
  986MOL0     H30106   4.131   1.459   1.814 -0.5112 -0.7479 -1.3418
  986MOL0     H30107   4.295   1.392   1.799  0.5229 -0.0032  0.0414
  986MOL0     H30108   4.104   1.288   2.020  0.5218 -1.5371 -0.5136
  986MOL0     H30109   4.220   1.421   2.031 -2.4250  1.0008 -0.0686
  986MOL0     H30110   4.407   1.250   1.994  0.4210  1.4111 -1.1918
  986MOL0     H30111   4.301   1.215   2.134 -1.1386 -0.2028  0.8008
  986MOL0     H30112   4.280   1.084   1.853 -1.1746 -0.8864  0.1925
  986MOL0     H30113   4.188   1.045   2.003 -0.0751  0.7059  0.8564
  986MOL0     H30114   4.539   0.826   2.114  0.2246 -0.3661 -0.1810
  986MOL0     H30115   4.789   0.837   2.065  2.7214  2.6796 -0.4046
  986MOL0     H30116   5.130   0.924   1.749  2.1750 -0.1048 -1.4339
  986MOL0     H30117   5.381   0.956   1.754  1.4910  2.1322  1.3104
  986MOL0     H30118   5.585   1.023   1.833 -0.2585  0.1277  0.4508
  986MOL0     H30119   5.569   0.858   1.756  0.3841 -0.3042  1.3151
  986MOL0     H30120   5.792   0.978   1.924  1.1225 -0.5136 -0.3959
  986MOL0     H30121   5.797   0.942   1.752  1.4001 -1.8117 -1.0484
  986MOL0     H30122   5.727   0.735   1.955 -1.8378  1.9586 -0.9623
  986MOL0     H30123   5.904   0.782   1.924 -0.0115 -0.0538 -1.6804
  986MOL0     H30124   5.810   0.576   1.795  4.0042 -0.3154  0.2196
  986MOL0     H30125   5.721   0.697   1.699  0.0063 -1.2334 -0.4621
  986MOL0     H30126   5.942   0.821   1.649  0.0888 -0.2651 -0.3764
  986MOL0     H30127   5.932   0.669   1.580 -0.4605  3.4114 -1.1075
  986MOL0     H30128   6.061   0.562   1.758 -1.4010 -0.1517  1.3562
  986MOL0     H30129   6.108   0.716   1.825  1.3321  1.3939 -1.2977
  986MOL0     H30130   6.259   0.612   1.654  1.4246  2.0483  3.3969
  986MOL0     H30131   6.166   0.674   1.522  2.0678 -0.8306 -0.7888
  986MOL0     H30132   6.305   0.846   1.745  0.9956  4.1253 -0.5844
  986MOL0     H30133   6.230   0.904   1.604 -1.8178 -1.2603 -0.3692
  986MOL0     H30134   5.372   0.783   2.152  2.5587 -0.0915 -1.3300
  986MOL0     H30135   5.135   0.816   2.160 -1.8695 -2.9285 -1.0111
  986MOL0     H30136   4.748   1.152   1.793  1.8370 -1.0512  0.7326
  986MOL0     H30137   4.485   1.143   1.821 -1.2081 -1.3904  0.0444
  986MOL0     H30138   5.120   0.587   1.875 -1.6584  2.3691 -0.4878
  986MOL0     H30139   5.353   0.567   1.844 -0.0192 -1.6712  0.3698
  986MOL0     H30140   5.646   0.345   1.563 -0.4328  0.2390  0.6719
  986MOL0     H30141   5.854   0.244   1.466  0.3576  0.1278  0.7615
  986MOL0     H30142   6.135   0.549   1.282 -1.3968  1.5774 -1.0841
  986MOL0     H30143   6.078   0.470   1.133 -0.1936  1.3860  0.4633
  986MOL0     H30144   6.307   0.370   1.281 -2.8688 -1.4186  0.7011
  986MOL0     H30145   6.241   0.311   1.117  1.5403 -1.4473  0.1881
  986MOL0     H30146   6.390   0.563   1.202 -0.0755 -1.2816 -0.7501
  986MOL0     H30147   6.294   0.564   1.055 -0.7876  0.1222  0.4557
  986MOL0     H30148   6.436   0.329   1.023 -2.3919 -0.2695  0.0520
  986MOL0     H30149   6.459   0.494   0.951  0.0368  1.3992  0.8651
  986MOL0     H30150   6.785   0.525   1.199 -0.7680  0.8242  0.2872
  986MOL0     H30151   5.927   0.613   1.257  1.4186 -1.1776  0.2562
  986MOL0     H30152   5.727   0.701   1.335 -1.6934 -0.9326 -1.8272
  987MOL0     O30153   5.230   6.710   7.945 -0.2580 -0.0690  0.2630
  987MOL0     C30154   5.227   6.806   8.019 -0.0897  0.2521  0.3692
  987MOL0     O30155   5.116   6.858   8.083  0.4450  0.1939  0.2739
  987MOL0     C30156   4.993   6.800   8.073  0.5228  0.3035 -0.1778
  987MOL0     C30157   4.956   6.675   8.115  0.3299  0.3699  0.3254
  987MOL0     C30158   4.822   6.635   8.094  0.3494 -0.5714  0.2266
  987MOL0     C30159   4.724   6.714   8.029 -0.3285 -0.4793 -0.7499
  987MOL0     O30160   4.589   6.664   8.016  0.2084 -0.4564 -0.0595
  987MOL0     C30161   4.499   6.732   7.935 -0.1686 -0.4346  0.2043
  987MOL0     C30162   4.357   6.663   7.935  0.2082 -0.2569 -0.8964
  987MOL0     C30163   4.261   6.759   7.863 -0.3610  0.3673  0.5678
  987MOL0     C30164   4.106   6.721   7.867  0.0797 -0.1893 -0.2424
  987MOL0     C30165   4.046   6.763   8.001  0.7730 -0.7600 -0.2918
  987MOL0     C30166   3.899   6.721   8.010 -0.6050 -0.5557  1.0190
  987MOL0     C30167   3.813   6.783   7.905  0.0557 -0.3501  0.0005
  987MOL0     C30168   3.670   6.725   7.908  0.2281 -0.1225 -0.0571
  987MOL0     N30169   3.599   6.793   7.801  0.1812  0.1731 -0.6537
  987MOL0     C30170   3.546   6.915   7.810 -0.0395 -0.1044 -0.7600
  987MOL0     C30171   3.499   6.948   7.686 -0.7780 -0.2853 -0.6068
  987MOL0     C30172   3.423   7.072   7.648  0.3846 -0.5954 -0.1619
  987MOL0     C30173   3.267   7.053   7.668 -0.0097 -0.6564 -0.1756
  987MOL0     C30174   3.185   7.188   7.646  0.6124  0.3336 -0.4326
  987MOL0     C30175   3.037   7.164   7.681 -0.3257  0.4219  0.1335
  987MOL0     O30176   3.008   7.214   7.811 -0.0213  1.0619 -0.1030
  987MOL0     C30177   2.873   7.230   7.843 -0.1729 -0.3542  0.7320
  987MOL0     C30178   2.845   7.307   7.953  0.0148 -0.4731  0.1114
  987MOL0     C30179   2.718   7.337   7.996  0.1588 -0.1586 -0.0881
  987MOL0     C30180   2.606   7.288   7.911 -1.3886  0.2452 -0.1876
  987MOL0     C30181   2.461   7.318   7.932  0.0348 -1.1162  0.1805
  987MOL0     O30182   2.368   7.275   7.842 -0.1261  0.3734  0.2890
  987MOL0     C30183   2.232   7.281   7.858  1.1797  1.1583  0.1133
  987MOL0     C30184   2.160   7.214   7.766 -0.0591 -0.3222  0.1859
  987MOL0     C30185   2.024   7.201   7.765  0.3469 -0.5286  0.7088
  987MOL0     C30186   1.948   7.255   7.872 -0.7951 -0.1584  0.2288
  987MOL0     O30187   1.813   7.237   7.884 -0.5677 -0.2961 -0.5797
  987MOL0     C30188   1.731   7.270   7.764  0.2833 -0.0322  1.0581
  987MOL0     C30189   1.589   7.222   7.768  0.7496  0.1514  0.2169
  987MOL0     C30190   1.522   7.217   7.622 -0.4799 -0.4939 -0.0170
  987MOL0     C30191   1.379   7.158   7.610 -0.0673 -0.3013  0.0819
  987MOL0     C30192   1.334   7.166   7.470 -0.2980  0.2577 -0.5300
  987MOL0     C30193   1.196   7.110   7.460  0.5485  0.1993  0.0982
  987MOL0     C30194   1.147   7.139   7.318  0.2909  0.5664  0.3967
  987MOL0     C30195   1.014   7.069   7.290 -0.2884 -0.2970 -0.3631
  987MOL0    Cl30196   0.882   7.139   7.391 -0.0083 -0.2175  0.3441
  987MOL0     C30197   2.022   7.303   7.982  0.1633  0.2851  0.2462
  987MOL0     C30198   2.164   7.315   7.977 -0.4045 -0.5964  0.5205
  987MOL0     O30199   2.442   7.391   8.028 -0.1403  0.5135 -0.5751
  987MOL0     C30200   2.628   7.201   7.805  0.2436 -0.2356  1.2197
  987MOL0     C30201   2.763   7.170   7.773 -0.4193 -0.0349  0.1217
  987MOL0     N30202   3.548   6.853   7.597 -0.6034 -0.4307 -0.2680
  987MOL0     N30203   3.592   6.759   7.669  0.3744  0.0585 -0.3098
  987MOL0     C30204   4.766   6.840   7.979 -0.4440  0.1101 -0.6929
  987MOL0     C30205   4.896   6.879   8.008  1.2224 -0.2057 -0.1169
  987MOL0     C30206   5.350   6.886   8.045  0.2714  0.2125  1.0334
  987MOL0     C30207   5.361   6.972   8.152  0.5241 -0.1661 -0.0771
  987MOL0     C30208   5.480   7.049   8.162 -0.0947 -0.1222  0.7413
  987MOL0     C30209   5.586   7.052   8.065  0.1874  0.0815 -0.3998
  987MOL0     O30210   5.699   7.120   8.079 -0.4353  1.3150 -0.8870
  987MOL0     C30211   5.748   7.198   7.973 -1.2475 -0.7127  0.3479
  987MOL0     C30212   5.877   7.265   8.012 -0.8971  0.6007 -0.3786
  987MOL0     C30213   5.872   7.363   8.135  0.6224 -0.9918  0.0579
  987MOL0     C30214   5.811   7.500   8.092 -0.4498 -0.0841  0.1280
  987MOL0     C30215   5.825   7.583   8.217 -0.6258  0.3133 -0.1889
  987MOL0     C30216   5.859   7.665   8.294 -0.3872 -1.0737 -0.1120
  987MOL0     C30217   5.570   6.960   7.961 -0.0770 -0.7764 -0.1789
  987MOL0     C30218   5.453   6.875   7.952 -0.4688  0.3394 -0.0474
  987MOL0     H30219   5.027   6.609   8.165 -1.0531 -0.7178  0.9202
  987MOL0     H30220   4.782   6.541   8.128  0.0211  0.3381  2.5271
  987MOL0     H30221   4.536   6.734   7.832  0.7649  0.5447  0.5375
  987MOL0     H30222   4.484   6.835   7.969 -3.5493  0.2673 -2.8508
  987MOL0     H30223   4.340   6.657   8.043  0.2906  1.4932 -0.7530
  987MOL0     H30224   4.353   6.560   7.899 -2.8483  0.2234 -2.2601
  987MOL0     H30225   4.293   6.779   7.761  0.6977  0.7468  0.9678
  987MOL0     H30226   4.266   6.853   7.918 -1.3665  0.7111  0.1061
  987MOL0     H30227   4.052   6.766   7.783 -1.7632 -0.5120  0.7321
  987MOL0     H30228   4.100   6.612   7.866  1.2420 -0.2666 -1.2920
  987MOL0     H30229   4.051   6.872   7.999  0.0149 -0.7257 -1.0104
  987MOL0     H30230   4.095   6.708   8.082 -0.5292 -2.8404 -0.8359
  987MOL0     H30231   3.868   6.740   8.113  1.9702 -0.1468  1.7900
  987MOL0     H30232   3.892   6.612   8.003 -1.2507 -0.4834  0.4296
  987MOL0     H30233   3.819   6.891   7.918  0.5302 -0.5284  1.3657
  987MOL0     H30234   3.854   6.752   7.808  2.7967  1.6873  0.4083
  987MOL0     H30235   3.635   6.752   8.008 -1.4029  1.0718 -0.8978
  987MOL0     H30236   3.672   6.616   7.899  2.0375 -0.0422 -1.1455
  987MOL0     H30237   3.511   6.967   7.899 -2.2934 -4.7984  1.4678
  987MOL0     H30238   3.452   7.100   7.546  0.3440  3.4996  0.8199
  987MOL0     H30239   3.456   7.153   7.713 -1.5344  1.6524 -1.8139
  987MOL0     H30240   3.251   7.010   7.767  2.4886 -0.9351  0.1629
  987MOL0     H30241   3.247   6.978   7.590  1.1738  1.2543 -2.4475
  987MOL0     H30242   3.236   7.264   7.705  2.9991 -1.7109  0.2980
  987MOL0     H30243   3.193   7.216   7.541  0.0075  3.1466  0.2105
  987MOL0     H30244   3.025   7.056   7.685  1.9302  0.1454  3.0071
  987MOL0     H30245   2.972   7.199   7.600 -3.1135  2.4224  2.9628
  987MOL0     H30246   2.930   7.348   8.007  0.6993  0.0065 -1.2659
  987MOL0     H30247   2.707   7.401   8.083  2.1672 -2.0705  1.6759
  987MOL0     H30248   2.201   7.164   7.679  0.3730 -2.4368  1.5286
  987MOL0     H30249   1.981   7.139   7.687  0.4847 -0.3432  0.4858
  987MOL0     H30250   1.786   7.228   7.680  1.4516  3.4129 -0.1009
  987MOL0     H30251   1.736   7.380   7.766 -1.6206  0.1180  0.0838
  987MOL0     H30252   1.535   7.295   7.829 -1.0739  1.9446 -3.2348
  987MOL0     H30253   1.585   7.122   7.812 -0.4079 -0.2281 -0.6870
  987MOL0     H30254   1.590   7.160   7.559  2.4682  2.1875  0.5009
  987MOL0     H30255   1.522   7.318   7.579  0.7416 -1.9326 -3.8042
  987MOL0     H30256   1.375   7.052   7.634  1.2173 -0.1773  0.9656
  987MOL0     H30257   1.316   7.222   7.673  0.1203  1.5132 -1.4914
  987MOL0     H30258   1.408   7.125   7.400 -1.2003  0.3698 -1.5773
  987MOL0     H30259   1.329   7.272   7.442  1.3266  0.3491 -0.5567
  987MOL0     H30260   1.132   7.154   7.537  1.4013  0.6927  0.5354
  987MOL0     H30261   1.190   7.004   7.485  1.4491 -0.0160 -0.5513
  987MOL0     H30262   1.134   7.242   7.283 -2.2694 -0.4689 -2.0165
  987MOL0     H30263   1.223   7.096   7.253  1.8040  0.6467  2.0193
  987MOL0     H30264   1.027   6.962   7.308 -2.3064 -0.3335  1.2227
  987MOL0     H30265   1.004   7.079   7.181  3.9603 -2.2518 -1.1137
  987MOL0     H30266   1.960   7.334   8.066 -2.4496 -0.3084 -1.3501
  987MOL0     H30267   2.219   7.358   8.060  0.4598  3.6764 -1.9590
  987MOL0     H30268   2.549   7.162   7.741  1.7051 -1.5292  0.1322
  987MOL0     H30269   2.786   7.103   7.691  2.6946  4.3713 -3.0703
  987MOL0     H30270   4.701   6.906   7.922  0.3489  4.5470  2.8941
  987MOL0     H30271   4.927   6.975   7.968  2.4391  0.4234  2.1808
  987MOL0     H30272   5.272   6.972   8.213 -0.6682 -1.2315 -1.6977
  987MOL0     H30273   5.492   7.126   8.238  1.4885 -2.4490  3.0071
  987MOL0     H30274   5.674   7.279   7.966  1.1665  1.6905  0.6003
  987MOL0     H30275   5.759   7.140   7.882 -2.0764 -2.3774  1.2572
  987MOL0     H30276   5.942   7.180   8.036  0.4531  0.5036 -3.8921
  987MOL0     H30277   5.920   7.325   7.931 -2.9699  1.0368 -1.2058
  987MOL0     H30278   5.977   7.371   8.166  1.4577 -1.5926 -2.3737
  987MOL0     H30279   5.810   7.326   8.217 -0.1607  1.6774  0.7503
  987MOL0     H30280   5.871   7.554   8.019  0.1842 -0.5265  0.3121
  987MOL0     H30281   5.707   7.491   8.059 -1.0894  2.0178  1.4032
  987MOL0     H30282   5.900   7.751   8.345 -2.0441 -0.0537 -0.4336
  987MOL0     H30283   5.659   6.948   7.900  0.5383  1.2793  0.2552
  987MOL0     H30284   5.446   6.811   7.864  0.0461 -1.2186  0.9862
  988MOL0     O30285   3.944   1.579   1.506  0.2891 -0.4726 -0.0871
  988MOL0     C30286   4.008   1.489   1.450 -0.0854  0.5378 -1.0264
  988MOL0     O30287   3.960   1.369   1.417 -1.0999  0.7810 -0.1735
  988MOL0     C30288   3.830   1.341   1.436 -0.4012  0.8130 -0.0529
  988MOL0     C30289   3.763   1.297   1.315 -0.0924  0.6666 -0.4550
  988MOL0     C30290   3.633   1.256   1.320  0.6657 -0.3552 -0.8838
  988MOL0     C30291   3.569   1.253   1.443 -0.5808 -0.0368 -0.5407
  988MOL0     O30292   3.439   1.209   1.447  0.0862  0.0597  0.0894
  988MOL0     C30293   3.379   1.174   1.580 -0.6479  0.4681 -0.1713
  988MOL0     C30294   3.245   1.124   1.552 -0.2461 -0.4280  0.3486
  988MOL0     C30295   3.148   1.122   1.676 -0.1202 -0.6820  0.5339
  988MOL0     C30296   3.162   0.995   1.760  0.8919 -0.4848  0.0025
  988MOL0     C30297   3.055   1.002   1.872  0.2943 -0.1453  0.4295
  988MOL0     C30298   2.910   0.959   1.815  0.5232 -0.5157 -0.7760
  988MOL0     C30299   2.808   0.971   1.933 -0.0108  0.5226  0.2439
  988MOL0     C30300   2.669   0.951   1.883 -0.3122  0.6551 -0.8017
  988MOL0     N30301   2.567   0.909   1.985  0.1099 -0.4187  0.5300
  988MOL0     C30302   2.432   0.935   1.966 -1.2015 -0.5110  0.1804
  988MOL0     C30303   2.376   0.865   2.072  0.5853 -0.1288  0.5281
  988MOL0     C30304   2.229   0.847   2.070 -0.0155  0.8667  0.5763
  988MOL0     C30305   2.158   0.977   2.087 -0.4445  0.3374  0.0569
  988MOL0     C30306   2.028   0.956   2.152  0.7179 -0.0055  0.0166
  988MOL0     C30307   1.970   1.090   2.196 -0.0049 -0.1019  0.5102
  988MOL0     O30308   1.843   1.092   2.269  0.1660  0.3321  0.4775
  988MOL0     C30309   1.717   1.060   2.220  0.0581  0.7521 -0.6045
  988MOL0     C30310   1.692   1.008   2.093 -0.4570 -0.8654 -0.0543
  988MOL0     C30311   1.570   0.954   2.066  0.1260 -0.6145 -0.1876
  988MOL0     C30312   1.464   0.952   2.160 -0.1385  0.0403  0.5694
  988MOL0     C30313   1.333   0.894   2.126 -0.7174  0.0528  0.0131
  988MOL0     O30314   1.349   0.789   2.049  0.6494 -0.2094 -0.0162
  988MOL0     C30315   1.242   0.702   2.032  0.2457 -0.5726 -0.2687
  988MOL0     C30316   1.262   0.604   1.928  0.7065  1.0143 -0.6760
  988MOL0     C30317   1.158   0.510   1.901 -1.0101  0.5065 -0.2774
  988MOL0     C30318   1.039   0.519   1.969  0.2781  0.7248  0.3823
  988MOL0     O30319   0.945   0.428   1.932 -0.2379  0.5361 -0.4445
  988MOL0     C30320   0.808   0.451   1.960 -0.5805 -0.1136 -0.1998
  988MOL0     C30321   0.734   0.359   1.876 -0.3482 -0.0590  0.0302
  988MOL0     C30322   0.750   0.211   1.917  0.3101 -0.1084  0.3169
  988MOL0     C30323   0.809   0.122   1.803  0.2234 -0.2548  0.0570
  988MOL0     C30324   0.807  -0.029   1.843 -0.6008  1.0367 -0.1865
  988MOL0     C30325   0.667  -0.094   1.837  0.3198  1.3545  0.6284
  988MOL0     C30326   0.676  -0.245   1.872 -0.5426  0.0645  0.8372
  988MOL0     C30327   0.539  -0.287   1.915 -0.9071 -0.3860  0.1645
  988MOL0    Cl30328   0.497  -0.204   2.076  0.2602  0.2203 -0.4800
  988MOL0     C30329   1.016   0.620   2.059 -0.1946 -0.3866 -0.0298
  988MOL0     C30330   1.115   0.708   2.096  0.7786  0.3693 -0.4233
  988MOL0     O30331   1.229   0.948   2.160 -0.2999 -0.4318 -0.2678
  988MOL0     C30332   1.483   1.012   2.278 -0.2842 -0.3164 -0.1087
  988MOL0     C30333   1.609   1.056   2.315  1.1180 -0.1834  0.5990
  988MOL0     N30334   2.470   0.798   2.141  0.5916  0.5959 -0.7847
  988MOL0     N30335   2.589   0.830   2.097 -0.5994  0.4518  0.0467
  988MOL0     C30336   3.637   1.301   1.559  0.5147  0.0378 -0.4729
  988MOL0     C30337   3.767   1.345   1.557 -0.1729  0.0344 -0.3602
  988MOL0     C30338   4.152   1.521   1.441 -0.5014 -0.2852 -0.1307
  988MOL0     C30339   4.219   1.616   1.516  0.2510  0.0526 -0.7047
  988MOL0     C30340   4.352   1.645   1.506  0.8778  0.4313 -0.7662
  988MOL0     C30341   4.427   1.579   1.411 -0.6540 -0.8630 -0.5157
  988MOL0     O30342   4.559   1.606   1.380 -0.3992 -0.5111  0.0013
  988MOL0     C30343   4.632   1.712   1.453 -0.2956  1.0915  0.1430
  988MOL0     C30344   4.776   1.721   1.386  0.6720  0.1563 -0.5803
  988MOL0     C30345   4.853   1.844   1.437  0.7590  0.3932 -0.3069
  988MOL0     C30346   4.995   1.828   1.486 -0.0456  0.2733 -0.5270
  988MOL0     C30347   5.027   1.955   1.562  0.4726 -0.8211  0.0515
  988MOL0     C30348   5.065   2.057   1.626 -0.3059 -0.1990  0.1034
  988MOL0     C30349   4.372   1.474   1.345 -0.0275 -1.1871  0.2677
  988MOL0     C30350   4.235   1.447   1.355 -0.6939 -0.1570  1.7299
  988MOL0     H30351   3.811   1.275   1.220 -1.3482 -1.6142 -0.6512
  988MOL0     H30352   3.571   1.214   1.241 -0.4538 -0.5871  0.1048
  988MOL0     H30353   3.356   1.264   1.638  1.4084 -0.2441  1.8988
  988MOL0     H30354   3.440   1.106   1.641  1.1592  0.6027 -1.7232
  988MOL0     H30355   3.258   1.028   1.500  1.6326  0.2500 -0.5503
  988MOL0     H30356   3.192   1.188   1.481 -2.5464 -0.7336  1.6975
  988MOL0     H30357   3.056   1.107   1.619 -0.3056  0.1088  0.6065
  988MOL0     H30358   3.154   1.217   1.730 -0.8345 -0.3230 -0.0082
  988MOL0     H30359   3.149   0.901   1.705 -1.5230  0.0533 -0.4552
  988MOL0     H30360   3.261   0.998   1.806 -0.0155  1.2909  2.0036
  988MOL0     H30361   3.066   1.101   1.917  0.1947  0.3900 -0.6865
  988MOL0     H30362   3.081   0.933   1.952 -0.0675  2.7262  3.2338
  988MOL0     H30363   2.904   0.856   1.780 -4.2236 -2.0224  3.2912
  988MOL0     H30364   2.876   1.035   1.744 -1.0810  0.9562  1.4170
  988MOL0     H30365   2.830   0.899   2.012 -2.2392 -2.5641 -1.7326
  988MOL0     H30366   2.827   1.067   1.981  1.1201 -0.8362  2.7226
  988MOL0     H30367   2.675   0.870   1.811 -0.3928  0.2874 -0.3981
  988MOL0     H30368   2.628   1.033   1.824 -2.2850  0.7185  0.5587
  988MOL0     H30369   2.390   0.979   1.876 -0.8555 -0.2338  0.1499
  988MOL0     H30370   2.211   0.778   2.153  0.8085  0.5316  0.4871
  988MOL0     H30371   2.201   0.805   1.972  1.2178 -0.0324  0.5841
  988MOL0     H30372   2.152   1.034   1.994  3.1910  1.2840  0.2447
  988MOL0     H30373   2.217   1.042   2.153  0.6158 -0.7538  0.2212
  988MOL0     H30374   1.949   0.904   2.097 -1.6114  0.1749  2.9566
  988MOL0     H30375   2.033   0.891   2.239 -1.1603 -1.5494 -0.9392
  988MOL0     H30376   1.963   1.153   2.107  2.0185  0.3115  0.5965
  988MOL0     H30377   2.042   1.143   2.258  2.8149 -1.4493 -1.3862
  988MOL0     H30378   1.760   1.001   2.008 -0.2990 -3.7059  0.2168
  988MOL0     H30379   1.558   0.907   1.968  1.0112  0.1672 -0.6903
  988MOL0     H30380   1.354   0.595   1.870  2.0788 -2.5480  1.6855
  988MOL0     H30381   1.175   0.429   1.831  0.8354 -0.4798  1.2258
  988MOL0     H30382   0.795   0.555   1.927  0.6640  0.5934  1.3932
  988MOL0     H30383   0.781   0.435   2.065 -1.6148 -1.6751 -0.6689
  988MOL0     H30384   0.749   0.368   1.768 -0.1517 -1.3094 -0.0573
  988MOL0     H30385   0.630   0.390   1.890 -0.5017 -0.2105 -0.7095
  988MOL0     H30386   0.659   0.164   1.954 -0.1390  1.8786  1.8900
  988MOL0     H30387   0.829   0.216   1.993 -2.0576  1.9538  2.8298
  988MOL0     H30388   0.741   0.130   1.717  1.9897  1.7691 -1.2426
  988MOL0     H30389   0.911   0.155   1.783 -0.1154  0.7006 -0.1299
  988MOL0     H30390   0.847  -0.046   1.944  2.7148 -0.3487 -1.5911
  988MOL0     H30391   0.875  -0.074   1.771 -1.7749 -0.7443 -0.2584
  988MOL0     H30392   0.628  -0.092   1.735 -2.4179 -1.9738  1.4072
  988MOL0     H30393   0.603  -0.046   1.912  0.8130  2.9338  0.0815
  988MOL0     H30394   0.719  -0.309   1.795  2.1141  2.1057  0.4705
  988MOL0     H30395   0.748  -0.261   1.953  0.6196 -4.6184 -0.8075
  988MOL0     H30396   0.534  -0.396   1.918  2.2475 -0.6001  0.0643
  988MOL0     H30397   0.470  -0.253   1.837 -2.7233 -2.8155  0.5938
  988MOL0     H30398   0.924   0.634   2.116  1.0165  1.8637  1.5282
  988MOL0     H30399   1.084   0.775   2.176 -0.6053 -1.3868  0.6047
  988MOL0     H30400   1.410   1.007   2.358  0.7659  3.5568  1.3051
  988MOL0     H30401   1.652   1.068   2.414  2.5649 -3.2059  0.4578
  988MOL0     H30402   3.590   1.292   1.656  2.7190 -2.1708  0.5068
  988MOL0     H30403   3.819   1.387   1.643  0.6110  2.7082 -2.0311
  988MOL0     H30404   4.154   1.662   1.589 -0.5067 -1.3728 -0.4616
  988MOL0     H30405   4.392   1.719   1.575  1.4924  0.1122 -0.7675
  988MOL0     H30406   4.642   1.675   1.556 -2.9912 -0.3129  0.0025
  988MOL0     H30407   4.576   1.805   1.453  2.7323  3.0354 -0.0358
  988MOL0     H30408   4.829   1.625   1.389  3.2544  1.5274  0.1374
  988MOL0     H30409   4.753   1.742   1.281 -1.2194  0.5358 -0.1409
  988MOL0     H30410   4.793   1.894   1.514 -0.2456 -0.5161 -0.4704
  988MOL0     H30411   4.855   1.922   1.360  3.4757  1.4595  0.7000
  988MOL0     H30412   5.006   1.744   1.555  1.1852  0.1751 -0.8076
  988MOL0     H30413   5.060   1.824   1.398 -2.3765  0.4538 -2.3676
  988MOL0     H30414   5.085   2.149   1.678 -0.8905  0.4710 -0.8255
  988MOL0     H30415   4.423   1.416   1.268 -0.8324 -0.5457 -0.7726
  988MOL0     H30416   4.187   1.377   1.288 -6.3862  4.8701 -0.4060
  989MOL0     O30417   6.423   6.919   1.054 -0.5964  0.9470 -0.2081
  989MOL0     C30418   6.447   6.873   0.940  0.1956 -0.3918  0.6261
  989MOL0     O30419   6.357   6.806   0.858 -0.1773 -0.0872 -0.5807
  989MOL0     C30420   6.232   6.775   0.909 -0.2583 -0.5487 -0.4098
  989MOL0     C30421   6.208   6.723   1.038 -0.2963 -0.5530  0.6047
  989MOL0     C30422   6.075   6.703   1.073  0.3043 -0.4961 -0.4510
  989MOL0     C30423   5.965   6.718   0.980 -0.4890 -0.1769 -0.4242
  989MOL0     O30424   5.842   6.710   1.035 -0.3275 -0.0900  0.8732
  989MOL0     C30425   5.724   6.746   0.967 -0.1486  0.1978  0.6899
  989MOL0     C30426   5.597   6.715   1.036 -0.0718  0.0151  0.1383
  989MOL0     C30427   5.597   6.732   1.184 -0.2781 -0.2111  0.1132
  989MOL0     C30428   5.471   6.683   1.258  0.2333 -0.3336 -0.3602
  989MOL0     C30429   5.354   6.773   1.222 -0.6858 -0.2809  0.2708
  989MOL0     C30430   5.227   6.739   1.297 -0.1877  0.3556  0.6133
  989MOL0     C30431   5.103   6.808   1.244 -0.4390 -0.0439  0.6423
  989MOL0     C30432   5.035   6.740   1.116  0.6785  0.3984 -0.0015
  989MOL0     N30433   4.983   6.603   1.137 -0.3212  0.3349  0.1875
  989MOL0     C30434   4.900   6.552   1.241  0.9050 -0.5894  0.0596
  989MOL0     C30435   4.912   6.419   1.234  0.1643 -0.3725  0.0114
  989MOL0     C30436   4.825   6.320   1.295 -1.1974  0.1333 -0.2543
  989MOL0     C30437   4.685   6.348   1.242 -0.2438  1.5362 -0.2043
  989MOL0     C30438   4.575   6.264   1.306 -0.2109 -0.7409 -0.1475
  989MOL0     C30439   4.441   6.269   1.241 -0.8596 -0.8814 -0.0515
  989MOL0     O30440   4.379   6.392   1.280 -0.3765 -0.2282  0.5791
  989MOL0     C30441   4.247   6.406   1.242 -0.1454  0.1254 -0.1275
  989MOL0     C30442   4.168   6.496   1.311  0.9871 -0.5626 -0.3910
  989MOL0     C30443   4.034   6.526   1.278 -0.1608 -0.0380 -0.9238
  989MOL0     C30444   3.966   6.442   1.193  0.4470 -0.0125 -0.5238
  989MOL0     C30445   3.821   6.461   1.167 -0.4242 -0.4120 -0.0050
  989MOL0     O30446   3.744   6.500   1.264  0.1950  0.5147  0.0865
  989MOL0     C30447   3.605   6.510   1.247 -0.0440 -0.4300 -0.1014
  989MOL0     C30448   3.537   6.562   1.138 -0.1464  0.1595 -0.3702
  989MOL0     C30449   3.395   6.577   1.144  0.0659 -0.1407  0.2137
  989MOL0     C30450   3.319   6.538   1.254  0.4057  0.1596  0.6704
  989MOL0     O30451   3.176   6.548   1.245 -0.6580 -0.5601  0.2941
  989MOL0     C30452   3.091   6.474   1.340 -0.7944  0.0107 -0.4875
  989MOL0     C30453   2.949   6.512   1.301 -0.4324 -0.4392 -0.2249
  989MOL0     C30454   2.840   6.452   1.397 -0.3606  0.8587  0.1893
  989MOL0     C30455   2.706   6.518   1.382  0.4108 -0.1440 -0.0501
  989MOL0     C30456   2.630   6.479   1.251 -0.7969  0.4617  0.4266
  989MOL0     C30457   2.482   6.536   1.252 -0.6327  0.3130 -1.1263
  989MOL0     C30458   2.409   6.505   1.129  0.3660  0.6953  0.4050
  989MOL0     C30459   2.419   6.616   1.024  0.3285  0.4476 -0.2158
  989MOL0    Cl30460   2.328   6.574   0.878  0.2800 -0.1426  0.6860
  989MOL0     C30461   3.390   6.495   1.359  0.3264 -0.0701 -0.4117
  989MOL0     C30462   3.527   6.491   1.369  0.4694  0.4494  1.0295
  989MOL0     O30463   3.781   6.416   1.060  0.5717 -0.1468 -0.3183
  989MOL0     C30464   4.044   6.350   1.120 -0.3857 -0.4131 -0.6594
  989MOL0     C30465   4.180   6.330   1.143  0.7457  0.4400 -0.0932
  989MOL0     N30466   4.988   6.386   1.123  0.6077 -0.4475  0.2612
  989MOL0     N30467   5.021   6.496   1.070  0.6293  0.2232 -0.1062
  989MOL0     C30468   5.994   6.751   0.850 -0.2422 -0.4013 -0.1856
  989MOL0     C30469   6.124   6.778   0.819  0.0458 -0.4538  0.4367
  989MOL0     C30470   6.590   6.889   0.895 -0.1605  0.0990 -0.3551
  989MOL0     C30471   6.611   6.901   0.756  1.0297 -0.6036 -0.4721
  989MOL0     C30472   6.744   6.927   0.714  0.3742 -0.6489 -0.4837
  989MOL0     C30473   6.851   6.933   0.798  0.4006  0.2171 -0.9334
  989MOL0     O30474   6.979   6.955   0.745 -0.1221 -0.6366  0.0445
  989MOL0     C30475   7.098   6.970   0.828 -0.3791 -0.1445 -0.2680
  989MOL0     C30476   7.140   6.836   0.860  0.2390  0.8835 -1.1020
  989MOL0     C30477   7.252   6.825   0.968  0.3948  0.4247 -0.2572
  989MOL0     C30478   7.397   6.835   0.921  0.2100 -0.3182  0.3256
  989MOL0     C30479   7.432   6.747   0.812  0.6299  0.1523  0.4619
  989MOL0     C30480   7.455   6.678   0.711 -0.7607  0.7129 -0.0640
  989MOL0     C30481   6.825   6.913   0.938  0.8606 -0.8981 -0.1237
  989MOL0     C30482   6.694   6.884   0.985 -0.9840  0.3049 -0.1086
  989MOL0     H30483   6.283   6.696   1.112  0.3631  1.1798  0.6108
  989MOL0     H30484   6.047   6.679   1.175  1.1499 -2.8427 -0.7190
  989MOL0     H30485   5.735   6.703   0.867  5.6405  5.0152 -1.3578
  989MOL0     H30486   5.723   6.853   0.942 -3.7068 -0.2054 -1.6502
  989MOL0     H30487   5.566   6.614   1.009 -0.7914 -0.7902  3.5549
  989MOL0     H30488   5.522   6.771   0.978  2.3236  2.2330 -1.0259
  989MOL0     H30489   5.625   6.836   1.206 -1.4146 -0.0040  0.6536
  989MOL0     H30490   5.677   6.671   1.227  1.3076  1.1252 -0.8067
  989MOL0     H30491   5.461   6.579   1.227  3.1238  0.0585 -3.0244
  989MOL0     H30492   5.486   6.691   1.366  1.7102  1.1057 -0.6339
  989MOL0     H30493   5.324   6.775   1.117 -2.5653 -2.6292  0.6653
  989MOL0     H30494   5.380   6.876   1.249 -0.4380 -0.2554 -0.0625
  989MOL0     H30495   5.259   6.770   1.397  1.5249  1.0924 -0.1241
  989MOL0     H30496   5.208   6.631   1.304 -1.2984  0.4592 -0.4087
  989MOL0     H30497   5.022   6.807   1.317 -1.2962  0.1723 -0.2872
  989MOL0     H30498   5.126   6.912   1.220 -0.0483 -0.6418 -1.8946
  989MOL0     H30499   5.105   6.737   1.032  0.8165 -3.6940  0.0391
  989MOL0     H30500   4.944   6.798   1.098 -1.1700 -3.0619 -3.5785
  989MOL0     H30501   4.845   6.616   1.309 -0.2506 -2.5047  0.9999
  989MOL0     H30502   4.834   6.328   1.404  3.2022 -1.9501 -0.2414
  989MOL0     H30503   4.871   6.224   1.270 -1.7642 -0.3665  0.5706
  989MOL0     H30504   4.701   6.319   1.138 -0.2051  0.5518  0.0670
  989MOL0     H30505   4.655   6.453   1.249 -4.6855  0.4656 -0.4570
  989MOL0     H30506   4.609   6.160   1.297 -1.8256 -1.3029 -0.0670
  989MOL0     H30507   4.556   6.290   1.411 -1.5184  0.7831 -0.7390
  989MOL0     H30508   4.380   6.181   1.263 -0.3925 -0.7924  1.7704
  989MOL0     H30509   4.456   6.281   1.133 -1.9692  1.9077  0.0278
  989MOL0     H30510   4.225   6.563   1.375  0.6686 -0.9182  0.2782
  989MOL0     H30511   3.983   6.603   1.335 -1.7946 -0.7131 -1.4357
  989MOL0     H30512   3.582   6.581   1.041  0.8324 -0.2195  0.0018
  989MOL0     H30513   3.338   6.624   1.065 -0.7975  0.1315  0.9765
  989MOL0     H30514   3.117   6.497   1.443  2.0311  2.2981 -1.5753
  989MOL0     H30515   3.117   6.371   1.314  0.6647  0.9545 -3.1889
  989MOL0     H30516   2.932   6.483   1.197 -2.2203 -1.2078  0.2438
  989MOL0     H30517   2.941   6.621   1.305  0.7466 -0.3417 -0.2254
  989MOL0     H30518   2.872   6.452   1.502 -2.7266 -1.5147  1.0328
  989MOL0     H30519   2.829   6.349   1.361 -0.6222  1.5867 -1.9201
  989MOL0     H30520   2.640   6.494   1.466  2.3187  1.5025  2.0413
  989MOL0     H30521   2.725   6.626   1.384 -0.3671  0.0078  2.1722
  989MOL0     H30522   2.615   6.371   1.244 -0.2956  0.4882 -2.6145
  989MOL0     H30523   2.680   6.523   1.163 -1.6681 -1.6320 -1.2059
  989MOL0     H30524   2.501   6.642   1.272 -0.3550  0.3633 -1.6428
  989MOL0     H30525   2.429   6.498   1.339 -0.3646 -1.0159 -1.5208
  989MOL0     H30526   2.460   6.421   1.080  1.5213  2.0804 -0.8696
  989MOL0     H30527   2.308   6.478   1.162  0.1904 -0.9825 -1.3029
  989MOL0     H30528   2.522   6.643   0.999  0.2440 -0.2706 -1.4272
  989MOL0     H30529   2.378   6.713   1.054  0.1096  1.2404 -2.7925
  989MOL0     H30530   3.336   6.455   1.444 -2.5501  0.4068 -1.8953
  989MOL0     H30531   3.571   6.464   1.465  0.2159 -0.2529  0.9526
  989MOL0     H30532   4.007   6.297   1.033 -0.3058  1.9930 -2.2484
  989MOL0     H30533   4.236   6.257   1.085  2.0681  1.8794 -0.7384
  989MOL0     H30534   5.918   6.761   0.774 -1.0166 -1.9848  0.3326
  989MOL0     H30535   6.136   6.801   0.714  1.3853  1.5600  0.9918
  989MOL0     H30536   6.535   6.888   0.680  1.0163 -1.9402 -0.2503
  989MOL0     H30537   6.778   6.941   0.612 -0.1379  0.7176 -0.4816
  989MOL0     H30538   7.085   7.042   0.909  0.9997 -0.8399  0.6219
  989MOL0     H30539   7.179   7.014   0.770  3.1633 -2.0198  2.8497
  989MOL0     H30540   7.055   6.781   0.900  2.4949 -0.5810  2.0765
  989MOL0     H30541   7.163   6.785   0.765 -1.6753  2.1997 -2.3388
  989MOL0     H30542   7.235   6.721   0.998 -0.6598 -0.1868 -2.7688
  989MOL0     H30543   7.239   6.886   1.058  0.9975 -1.1950  0.9798
  989MOL0     H30544   7.421   6.938   0.894  1.6028 -0.0031  2.5444
  989MOL0     H30545   7.452   6.803   1.010 -1.0563 -2.2359  0.4781
  989MOL0     H30546   7.488   6.605   0.640  1.5390  0.4781  1.1478
  989MOL0     H30547   6.911   6.920   1.004 -1.0710  0.2277  2.4968
  989MOL0     H30548   6.673   6.861   1.089  0.3211 -3.1550 -0.5051
  990MOL0     O30549   7.030   8.894   2.310 -0.0001 -0.6651  0.0295
  990MOL0     C30550   7.014   8.994   2.382  0.2953  0.8820 -1.0086
  990MOL0     O30551   6.893   9.062   2.405  0.1447 -0.2168 -0.4432
  990MOL0     C30552   6.802   9.062   2.302  0.5557  0.7491  0.4407
  990MOL0     C30553   6.730   8.947   2.256  0.3182  0.3771 -0.1004
  990MOL0     C30554   6.622   8.961   2.172  0.3145  0.3348  0.1676
  990MOL0     C30555   6.577   9.084   2.130 -0.1732 -0.3842  1.0341
  990MOL0     O30556   6.464   9.115   2.055  0.3287 -0.4641  0.7415
  990MOL0     C30557   6.357   9.021   2.075 -0.2445 -0.1891 -0.1594
  990MOL0     C30558   6.281   9.047   2.202  0.2290  0.4768 -0.9084
  990MOL0     C30559   6.196   9.174   2.195 -0.2509  0.6307 -0.7725
  990MOL0     C30560   6.083   9.170   2.097  0.8521  0.5532  0.2153
  990MOL0     C30561   5.977   9.269   2.131 -0.4358  0.6071  0.1696
  990MOL0     C30562   5.832   9.224   2.114  0.0569  0.4763  0.0524
  990MOL0     C30563   5.736   9.323   2.191  0.4599 -0.5973  0.0568
  990MOL0     C30564   5.604   9.260   2.258 -1.2328 -0.3368  0.9618
  990MOL0     N30565   5.508   9.357   2.309  0.2342  0.0508  0.1718
  990MOL0     C30566   5.421   9.331   2.412  0.4260  0.0076  0.3595
  990MOL0     C30567   5.328   9.430   2.406  0.0061  0.1792 -0.1576
  990MOL0     C30568   5.219   9.467   2.497 -0.3779 -0.8676  0.4742
  990MOL0     C30569   5.273   9.538   2.627 -0.5034  0.5229  0.0272
  990MOL0     C30570   5.374   9.654   2.589  0.5414  0.8363 -0.0298
  990MOL0     C30571   5.409   9.728   2.718  0.0206 -0.8237  0.6732
  990MOL0     O30572   5.303   9.797   2.789  0.4267  0.1684 -0.0247
  990MOL0     C30573   5.351   9.849   2.907 -0.3026 -0.4140 -0.0381
  990MOL0     C30574   5.383   9.980   2.937  0.7397 -0.9952  0.2816
  990MOL0     C30575   5.400  10.027   3.066 -0.5290  0.0344 -0.1585
  990MOL0     C30576   5.400   9.942   3.176  0.1185  0.3252  0.3202
  990MOL0     C30577   5.423   9.994   3.311  0.1800 -1.0461  0.1047
  990MOL0     O30578   5.418  10.132   3.327  0.3091  0.2252  1.1370
  990MOL0     C30579   5.419  10.169   3.458  0.4599 -0.7671 -0.1681
  990MOL0     C30580   5.310  10.161   3.552 -0.0979  0.2023 -0.1529
  990MOL0     C30581   5.310  10.214   3.682 -0.0683  0.1554  0.0530
  990MOL0     C30582   5.425  10.269   3.733 -0.7878  0.1116  0.8443
  990MOL0     O30583   5.420  10.315   3.860  0.0823 -0.0591  0.2496
  990MOL0     C30584   5.496  10.441   3.894  0.2695  0.3971 -0.3801
  990MOL0     C30585   5.436  10.571   3.838 -0.4374 -0.6897  0.1707
  990MOL0     C30586   5.296  10.589   3.896  0.0667 -0.4228  0.5446
  990MOL0     C30587   5.203  10.667   3.805 -0.5450 -0.1921  0.1959
  990MOL0     C30588   5.133  10.582   3.690 -0.1065 -0.7218  0.0253
  990MOL0     C30589   5.035  10.478   3.745 -0.2454  0.1481 -0.2385
  990MOL0     C30590   4.965  10.422   3.612  0.4320 -0.6302 -1.4023
  990MOL0     C30591   4.874  10.301   3.644  0.2288 -0.7834  0.0916
  990MOL0    Cl30592   4.759  10.272   3.500 -0.1599  0.6190 -0.2702
  990MOL0     C30593   5.536  10.271   3.644  0.1060  0.4826  0.5669
  990MOL0     C30594   5.537  10.223   3.510  0.0516 -0.7465  0.1711
  990MOL0     O30595   5.444   9.917   3.400  0.0292 -0.2608 -0.7639
  990MOL0     C30596   5.373   9.810   3.150  0.7667 -0.3348 -0.0861
  990MOL0     C30597   5.348   9.767   3.018  0.2582  0.4457  0.2366
  990MOL0     N30598   5.349   9.498   2.293  0.2509 -0.8367  0.1600
  990MOL0     N30599   5.454   9.463   2.236 -0.4090  0.5838  0.4608
  990MOL0     C30600   6.651   9.195   2.168 -0.2944 -0.6655  0.9100
  990MOL0     C30601   6.757   9.187   2.257 -0.9324  0.1538  1.1502
  990MOL0     C30602   7.134   9.045   2.457 -0.8497  0.1636 -0.6240
  990MOL0     C30603   7.234   8.959   2.502 -0.1800  0.3574 -0.0736
  990MOL0     C30604   7.343   9.003   2.579  0.8858 -0.1613 -1.0276
  990MOL0     C30605   7.352   9.141   2.606 -0.2551 -0.5841  0.1564
  990MOL0     O30606   7.456   9.198   2.671 -0.1325  0.3191 -0.6637
  990MOL0     C30607   7.558   9.110   2.729  0.3138 -0.9270 -0.8275
  990MOL0     C30608   7.510   9.051   2.862 -0.0422 -0.0477 -0.9756
  990MOL0     C30609   7.611   8.949   2.922 -0.3511 -0.1324 -1.4552
  990MOL0     C30610   7.682   8.837   2.839 -0.5746  1.2585  0.4724
  990MOL0     C30611   7.577   8.755   2.770 -0.1224  0.1170 -0.1568
  990MOL0     C30612   7.496   8.678   2.725 -0.8122 -0.3542  0.4561
  990MOL0     C30613   7.255   9.225   2.561 -0.0678 -0.0484 -0.1598
  990MOL0     C30614   7.148   9.178   2.484 -0.2378  0.5493 -0.8050
  990MOL0     H30615   6.766   8.849   2.287 -0.6510 -0.6657 -2.1276
  990MOL0     H30616   6.578   8.867   2.139  0.7540  0.8735 -2.1469
  990MOL0     H30617   6.399   8.920   2.068  1.3445  0.4631 -0.4719
  990MOL0     H30618   6.286   9.040   1.994 -2.4145  3.1471  2.2810
  990MOL0     H30619   6.348   9.061   2.288 -0.9479 -1.3465  0.3996
  990MOL0     H30620   6.234   8.954   2.237  3.9613 -1.9183 -1.6527
  990MOL0     H30621   6.246   9.269   2.170  0.1023  0.6000 -0.1968
  990MOL0     H30622   6.151   9.192   2.293 -0.5890 -0.0566 -0.8015
  990MOL0     H30623   6.112   9.198   1.995 -0.9897 -0.9510 -0.7897
  990MOL0     H30624   6.033   9.073   2.106  0.5663  0.2889 -3.0025
  990MOL0     H30625   5.990   9.351   2.060  2.2183  1.7587  1.8268
  990MOL0     H30626   5.992   9.315   2.229  2.0776 -2.5387  1.4459
  990MOL0     H30627   5.828   9.126   2.162  0.6059  0.5610  0.2798
  990MOL0     H30628   5.806   9.214   2.008  2.2217  1.4605 -0.6300
  990MOL0     H30629   5.793   9.368   2.273  1.0284  0.0404 -0.6685
  990MOL0     H30630   5.704   9.401   2.121  3.5915  0.6170 -0.1846
  990MOL0     H30631   5.638   9.202   2.344 -1.5415 -2.6327 -0.3726
  990MOL0     H30632   5.559   9.188   2.188 -0.5908 -1.6279  1.8221
  990MOL0     H30633   5.433   9.259   2.492  1.5012  1.9615  2.0502
  990MOL0     H30634   5.176   9.378   2.544  0.6898 -1.4822  0.3151
  990MOL0     H30635   5.150   9.527   2.436  1.9443  0.5370 -0.9453
  990MOL0     H30636   5.317   9.460   2.689  1.3558  0.3609 -1.3866
  990MOL0     H30637   5.188   9.589   2.672  0.2590  1.6848  0.2130
  990MOL0     H30638   5.472   9.626   2.548  1.9252  0.0967  3.4284
  990MOL0     H30639   5.329   9.730   2.524 -1.6337 -1.3742 -1.2433
  990MOL0     H30640   5.474   9.808   2.679  0.1318 -1.6388 -0.9069
  990MOL0     H30641   5.459   9.660   2.788  0.2398  0.7734  2.1231
  990MOL0     H30642   5.376  10.056   2.860  0.0436 -2.0368 -0.7263
  990MOL0     H30643   5.417  10.135   3.070 -0.3567  0.0224 -0.5620
  990MOL0     H30644   5.215  10.143   3.501 -0.8344  2.4957  0.2823
  990MOL0     H30645   5.214  10.210   3.732 -1.1146 -2.1251 -1.9566
  990MOL0     H30646   5.603  10.430   3.875 -0.0408 -3.4619 -0.7592
  990MOL0     H30647   5.495  10.456   4.003  1.4651 -1.8517  0.0075
  990MOL0     H30648   5.429  10.572   3.728  0.3714  1.1518  0.0996
  990MOL0     H30649   5.486  10.660   3.877 -0.3887 -0.8675  0.5112
  990MOL0     H30650   5.301  10.637   3.994 -0.6493 -0.0107  0.3842
  990MOL0     H30651   5.255  10.488   3.903  1.3557 -1.1312 -1.2748
  990MOL0     H30652   5.126  10.714   3.867 -2.5005 -1.3049 -1.3021
  990MOL0     H30653   5.264  10.751   3.770  0.5551 -0.3937  1.5258
  990MOL0     H30654   5.208  10.529   3.630 -0.3898  0.3325 -1.2755
  990MOL0     H30655   5.075  10.650   3.628 -0.7262  0.6100  1.9837
  990MOL0     H30656   4.959  10.515   3.814 -0.7952  1.3954 -1.4610
  990MOL0     H30657   5.095  10.399   3.790  1.7167  0.4313 -2.1329
  990MOL0     H30658   4.910  10.508   3.572 -1.8969 -1.7690 -0.8061
  990MOL0     H30659   5.048  10.392   3.548  1.9362  1.1219 -0.3821
  990MOL0     H30660   4.816  10.319   3.735 -1.8182  1.0903 -1.4748
  990MOL0     H30661   4.930  10.207   3.652 -1.0548 -1.6516 -0.6690
  990MOL0     H30662   5.626  10.313   3.686  0.8534 -3.1972  3.1471
  990MOL0     H30663   5.624  10.238   3.447  1.0072  0.2771  1.6677
  990MOL0     H30664   5.362   9.742   3.234  1.1817 -0.5775 -0.2258
  990MOL0     H30665   5.349   9.659   3.004  1.7677  0.5196 -0.3778
  990MOL0     H30666   6.612   9.291   2.134 -1.4969 -1.5721 -0.3937
  990MOL0     H30667   6.805   9.276   2.294  0.7926  0.7406 -2.1520
  990MOL0     H30668   7.211   8.855   2.479 -1.4555  1.2072 -3.0400
  990MOL0     H30669   7.410   8.927   2.618 -0.0509  0.1838  1.5006
  990MOL0     H30670   7.647   9.172   2.739 -2.1879  2.7515  0.7886
  990MOL0     H30671   7.570   9.019   2.668  0.0553 -1.7791  0.3671
  990MOL0     H30672   7.495   9.137   2.927  0.3013 -0.1710 -0.7293
  990MOL0     H30673   7.412   9.005   2.853 -0.1351  0.0758 -0.6090
  990MOL0     H30674   7.570   8.902   3.011  1.9639 -0.3296 -0.4245
  990MOL0     H30675   7.684   9.013   2.973 -1.6202 -0.4495  0.8810
  990MOL0     H30676   7.744   8.885   2.764 -0.1323 -3.8615 -2.9306
  990MOL0     H30677   7.744   8.765   2.894  1.6214 -2.1810 -5.6159
  990MOL0     H30678   7.413   8.624   2.685 -2.2572  1.9152  0.2187
  990MOL0     H30679   7.258   9.332   2.581 -0.6241  0.4448 -2.3437
  990MOL0     H30680   7.073   9.243   2.441 -0.5658  0.1794 -0.7947
  991MOL0     O30681   2.864   1.024   8.804  0.5494 -0.3201 -0.2032
  991MOL0     C30682   2.855   0.922   8.865 -0.0206  0.6223  0.0597
  991MOL0     O30683   2.752   0.890   8.950  0.2650  0.4233  0.2144
  991MOL0     C30684   2.633   0.955   8.970  0.3367 -0.3899  0.5210
  991MOL0     C30685   2.581   0.961   9.094 -0.1060  0.0046 -0.3960
  991MOL0     C30686   2.457   1.024   9.114  0.8110  0.5208 -0.4453
  991MOL0     C30687   2.393   1.098   9.011  0.7565  0.3632 -1.1418
  991MOL0     O30688   2.265   1.154   9.044 -0.2919  0.1591 -0.3108
  991MOL0     C30689   2.205   1.237   8.946  0.4731  0.4957  0.6004
  991MOL0     C30690   2.077   1.310   9.002 -0.4562  0.3343 -0.9610
  991MOL0     C30691   1.974   1.366   8.907  0.0747 -0.1469  0.6382
  991MOL0     C30692   1.999   1.486   8.826 -0.6853 -0.6626 -0.4873
  991MOL0     C30693   1.889   1.593   8.807 -0.1621  0.5308 -0.6782
  991MOL0     C30694   1.788   1.532   8.713  0.5452  0.3753 -0.5936
  991MOL0     C30695   1.662   1.615   8.675 -0.9084  0.1245 -0.0741
  991MOL0     C30696   1.674   1.713   8.553  0.7835  0.3305  0.8034
  991MOL0     N30697   1.548   1.792   8.530 -0.0549 -0.5204 -0.7894
  991MOL0     C30698   1.420   1.753   8.560  0.7647  0.9243  0.0658
  991MOL0     C30699   1.344   1.855   8.522 -0.6412 -0.0292 -0.1179
  991MOL0     C30700   1.201   1.851   8.544 -0.4308 -0.3407  0.3740
  991MOL0     C30701   1.118   1.884   8.426 -0.1652  0.7725  0.1993
  991MOL0     C30702   1.127   1.777   8.322  0.0764 -0.3952  0.4168
  991MOL0     C30703   1.004   1.736   8.256 -1.1097 -0.5877  0.3175
  991MOL0     O30704   0.919   1.684   8.356  0.2116  0.0616  0.6063
  991MOL0     C30705   0.783   1.699   8.341 -0.1791 -0.4319  0.8601
  991MOL0     C30706   0.717   1.645   8.238  0.7289 -0.7857  0.0577
  991MOL0     C30707   0.576   1.662   8.226  0.1735  0.4973 -0.0567
  991MOL0     C30708   0.510   1.716   8.339 -0.6784 -0.1104 -0.1414
  991MOL0     C30709   0.363   1.712   8.331  0.3264 -0.6990  0.0070
  991MOL0     O30710   0.305   1.646   8.226  0.5938 -0.2448 -0.1529
  991MOL0     C30711   0.163   1.637   8.228 -0.0304 -0.7287 -0.9682
  991MOL0     C30712   0.093   1.544   8.319 -0.3001 -0.5762 -0.1957
  991MOL0     C30713  -0.049   1.554   8.313 -0.2327  0.5817  0.2422
  991MOL0     C30714  -0.121   1.629   8.222  0.2501  0.8183  0.2142
  991MOL0     O30715  -0.259   1.603   8.214 -0.0856 -0.6352 -0.3520
  991MOL0     C30716  -0.344   1.712   8.159 -0.9791  0.2958 -0.7025
  991MOL0     C30717  -0.494   1.680   8.194  0.8905  0.1705  0.2335
  991MOL0     C30718  -0.573   1.782   8.118 -0.8174  0.3732 -0.0963
  991MOL0     C30719  -0.709   1.719   8.097 -1.0500 -0.2876 -0.3650
  991MOL0     C30720  -0.816   1.827   8.106 -0.3833 -0.3240  0.5218
  991MOL0     C30721  -0.845   1.880   8.251  0.1810  0.7081  0.2729
  991MOL0     C30722  -0.971   1.966   8.258 -0.7630 -0.3960  0.3076
  991MOL0     C30723  -1.102   1.894   8.270 -0.7632  0.2461  0.2484
  991MOL0    Cl30724  -1.205   1.957   8.400  0.4558  0.3244 -0.1453
  991MOL0     C30725  -0.048   1.711   8.129  1.2686 -0.2443 -0.4731
  991MOL0     C30726   0.088   1.714   8.138  0.1418 -0.3319  0.3018
  991MOL0     O30727   0.303   1.767   8.419 -0.0815 -0.4723 -0.7517
  991MOL0     C30728   0.581   1.761   8.455 -0.3983 -0.5497  0.1556
  991MOL0     C30729   0.723   1.760   8.451 -0.4674  0.3248  0.2207
  991MOL0     N30730   1.426   1.959   8.479  0.1892 -0.3759 -0.1976
  991MOL0     N30731   1.545   1.921   8.476 -0.2627 -0.2940  0.4846
  991MOL0     C30732   2.461   1.103   8.891 -0.1085  0.0503  0.2621
  991MOL0     C30733   2.574   1.030   8.871  0.4320 -0.8266  0.4550
  991MOL0     C30734   2.948   0.818   8.845  0.2174  0.1818 -0.5697
  991MOL0     C30735   2.921   0.691   8.892  0.3513  0.3277 -0.4204
  991MOL0     C30736   2.996   0.581   8.847  0.1041  0.8092  0.1366
  991MOL0     C30737   3.120   0.605   8.780 -0.2911 -0.2525  0.0026
  991MOL0     O30738   3.184   0.484   8.736  0.3097  0.1266 -0.4237
  991MOL0     C30739   3.328   0.493   8.737  0.4220  0.5406 -0.4338
  991MOL0     C30740   3.387   0.352   8.717 -0.0823 -0.3088 -0.3494
  991MOL0     C30741   3.536   0.362   8.705  0.4012 -0.0566  0.1817
  991MOL0     C30742   3.594   0.223   8.669 -0.2410  0.2394  0.9214
  991MOL0     C30743   3.718   0.239   8.595  0.2564  0.1312  0.1652
  991MOL0     C30744   3.827   0.252   8.545 -0.2574 -0.0499  0.5772
  991MOL0     C30745   3.159   0.734   8.754  0.3502 -0.1798 -0.4389
  991MOL0     C30746   3.072   0.840   8.785  0.5530  0.6878  0.0844
  991MOL0     H30747   2.628   0.905   9.174  0.8322  0.2611 -0.7540
  991MOL0     H30748   2.412   1.012   9.212 -0.0088 -3.1044 -1.1206
  991MOL0     H30749   2.185   1.180   8.854  1.1711  0.1924  0.6348
  991MOL0     H30750   2.271   1.322   8.926  0.7281  0.3239  0.7059
  991MOL0     H30751   2.114   1.383   9.075 -2.1493 -0.8866  1.2251
  991MOL0     H30752   2.033   1.234   9.066  1.6868 -0.0927  0.0836
  991MOL0     H30753   1.879   1.378   8.959 -0.2388  1.6649 -0.2844
  991MOL0     H30754   1.946   1.299   8.825 -2.4238  3.3217 -1.6031
  991MOL0     H30755   2.075   1.531   8.890 -0.5393 -1.5904  0.0042
  991MOL0     H30756   2.044   1.461   8.730 -1.9891  2.6404 -2.1189
  991MOL0     H30757   1.936   1.683   8.767 -0.0089  2.8672  4.0997
  991MOL0     H30758   1.855   1.618   8.907  0.2561  0.1583 -0.4368
  991MOL0     H30759   1.750   1.438   8.753  0.2394  0.1224 -1.4582
  991MOL0     H30760   1.833   1.507   8.616 -0.3096 -0.2655 -0.8401
  991MOL0     H30761   1.572   1.553   8.670 -0.2265 -0.9300  0.5405
  991MOL0     H30762   1.652   1.679   8.764 -0.1148 -0.6419  0.5814
  991MOL0     H30763   1.708   1.666   8.460  1.3120  2.9089 -0.3758
  991MOL0     H30764   1.749   1.789   8.574 -0.0030  1.2894  0.2274
  991MOL0     H30765   1.394   1.657   8.602  2.9744  0.7016  1.0582
  991MOL0     H30766   1.191   1.928   8.622 -1.0341 -1.9126  1.9100
  991MOL0     H30767   1.160   1.760   8.588 -3.7566  0.8001 -0.0945
  991MOL0     H30768   1.150   1.981   8.389 -0.0501  0.2204 -1.2104
  991MOL0     H30769   1.014   1.899   8.456 -0.8128  0.5789 -1.8287
  991MOL0     H30770   1.203   1.808   8.249  0.1270 -1.4465  0.0044
  991MOL0     H30771   1.169   1.686   8.366  0.1614 -1.2366 -1.3235
  991MOL0     H30772   1.021   1.654   8.184  1.7062  0.2786 -0.1339
  991MOL0     H30773   0.954   1.824   8.214 -0.1406 -1.0064 -1.8924
  991MOL0     H30774   0.773   1.593   8.161 -1.5069 -0.9440 -1.5922
  991MOL0     H30775   0.525   1.614   8.143  1.8918 -3.2671  0.8913
  991MOL0     H30776   0.150   1.480   8.384  1.0564 -0.6715 -1.4429
  991MOL0     H30777  -0.101   1.487   8.380  0.9121 -0.0875  0.4838
  991MOL0     H30778  -0.328   1.709   8.051 -0.1709  1.6112 -0.6463
  991MOL0     H30779  -0.320   1.814   8.190  0.9858  0.1996 -1.7861
  991MOL0     H30780  -0.514   1.679   8.301  2.5923 -1.1088  0.6022
  991MOL0     H30781  -0.523   1.585   8.148 -2.5107  1.8291 -1.4012
  991MOL0     H30782  -0.517   1.806   8.028 -0.6783  3.5096  0.7158
  991MOL0     H30783  -0.575   1.879   8.169 -1.5752  0.2998  0.0360
  991MOL0     H30784  -0.716   1.668   8.001  0.7495  0.1961 -0.7807
  991MOL0     H30785  -0.738   1.653   8.179 -1.3809  0.5153  0.1869
  991MOL0     H30786  -0.911   1.784   8.072 -1.3384  2.0962 -0.1034
  991MOL0     H30787  -0.793   1.909   8.038 -1.4013 -0.0440  0.4942
  991MOL0     H30788  -0.760   1.948   8.261 -0.1795  1.1257  0.5332
  991MOL0     H30789  -0.846   1.794   8.318 -1.4269 -0.3497 -1.0005
  991MOL0     H30790  -0.957   2.017   8.354  0.1638  0.2740 -0.1665
  991MOL0     H30791  -0.982   2.037   8.176  0.6924 -1.7674 -1.1567
  991MOL0     H30792  -1.096   1.786   8.281  0.1587  0.3128  0.4376
  991MOL0     H30793  -1.167   1.912   8.184 -0.4116  0.8222  0.0996
  991MOL0     H30794  -0.103   1.765   8.053 -1.6740  0.2722  1.8516
  991MOL0     H30795   0.150   1.774   8.072  0.4519 -0.6462  0.2977
  991MOL0     H30796   0.528   1.800   8.541  1.3356 -0.3160  1.1612
  991MOL0     H30797   0.773   1.814   8.531  0.9947 -0.4621 -0.1349
  991MOL0     H30798   2.421   1.153   8.804 -1.1375  1.7089  1.6481
  991MOL0     H30799   2.608   1.030   8.768 -0.9221  2.0327 -0.0838
  991MOL0     H30800   2.829   0.675   8.947 -0.8103 -3.1102 -2.9735
  991MOL0     H30801   2.954   0.483   8.867 -0.2498  0.7360 -0.8883
  991MOL0     H30802   3.364   0.533   8.832  0.0852 -0.7175  0.2361
  991MOL0     H30803   3.355   0.553   8.650  0.3214  0.5085 -0.4877
  991MOL0     H30804   3.370   0.281   8.799 -2.4964 -0.2490 -0.7100
  991MOL0     H30805   3.337   0.311   8.628  1.1504  0.2130 -1.3046
  991MOL0     H30806   3.574   0.392   8.804 -0.7028  0.2520  0.5201
  991MOL0     H30807   3.569   0.433   8.629  1.0046 -1.2900 -0.7390
  991MOL0     H30808   3.633   0.175   8.758  0.4139 -0.0582  0.4789
  991MOL0     H30809   3.526   0.162   8.608  2.7572 -1.7131 -0.7082
  991MOL0     H30810   3.926   0.253   8.504  0.0269  1.5195  1.2468
  991MOL0     H30811   3.252   0.758   8.703 -0.2208  2.3514 -0.4179
  991MOL0     H30812   3.118   0.933   8.752  2.6291 -1.5923 -4.3348
  992MOL0     O30813   3.679   0.377   2.359 -0.3529  0.0463 -0.5778
  992MOL0     C30814   3.780   0.375   2.429 -0.7008 -0.2613 -0.1955
  992MOL0     O30815   3.793   0.323   2.549 -0.8121  0.3636 -0.3455
  992MOL0     C30816   3.682   0.272   2.606  0.2286  0.0777  0.5176
  992MOL0     C30817   3.687   0.144   2.659 -0.2594  0.6640  1.1351
  992MOL0     C30818   3.585   0.102   2.741 -0.0021  0.2643  0.2411
  992MOL0     C30819   3.475   0.181   2.764 -0.0481  0.5249 -0.1613
  992MOL0     O30820   3.366   0.122   2.823  0.2395 -0.8164  0.0994
  992MOL0     C30821   3.241   0.191   2.823 -0.6252 -0.4219 -0.2507
  992MOL0     C30822   3.142   0.097   2.892 -1.2887 -0.2893 -0.3901
  992MOL0     C30823   3.013   0.173   2.902  1.3067  0.0110 -0.1098
  992MOL0     C30824   2.920   0.094   2.978 -0.3224 -0.1123 -0.0106
  992MOL0     C30825   2.782   0.154   2.985  0.7953  0.2263  0.5924
  992MOL0     C30826   2.677   0.068   3.058  0.7099  0.1669  0.2711
  992MOL0     C30827   2.619  -0.049   2.980  0.6938  0.0195 -0.6900
  992MOL0     C30828   2.535  -0.150   3.068  0.4374  1.2076  0.4060
  992MOL0     N30829   2.413  -0.092   3.129  0.1024 -0.8904  0.6909
  992MOL0     C30830   2.319  -0.134   3.219 -0.2193  0.0219  0.4511
  992MOL0     C30831   2.213  -0.044   3.213 -0.1897  0.0696  0.2963
  992MOL0     C30832   2.070  -0.056   3.263 -0.1919  0.2291 -0.5803
  992MOL0     C30833   2.052  -0.056   3.413 -0.1386  0.7624 -0.2011
  992MOL0     C30834   1.944  -0.148   3.462  0.7449  0.5242 -0.0732
  992MOL0     C30835   1.808  -0.081   3.433  0.0233  0.5604  0.9773
  992MOL0     O30836   1.727  -0.159   3.515  0.1532  0.1014  0.0815
  992MOL0     C30837   1.598  -0.149   3.508  0.0810 -0.2371 -0.2709
  992MOL0     C30838   1.538  -0.021   3.518 -0.2211 -0.4591  0.6524
  992MOL0     C30839   1.402  -0.004   3.517  0.7121  0.1032 -0.4489
  992MOL0     C30840   1.309  -0.114   3.508 -0.6329  0.1353  0.1072
  992MOL0     C30841   1.161  -0.104   3.515 -0.7324  0.6199  0.2450
  992MOL0     O30842   1.123   0.029   3.532 -0.4460  0.5195 -0.2484
  992MOL0     C30843   0.994   0.077   3.510  0.3732  0.1980 -0.0423
  992MOL0     C30844   0.966   0.212   3.551  0.6185 -0.6522  0.0703
  992MOL0     C30845   0.838   0.276   3.520  0.4014  0.4059 -0.1941
  992MOL0     C30846   0.742   0.199   3.452 -0.3713 -0.7285  0.7914
  992MOL0     O30847   0.626   0.254   3.421 -0.4304 -0.9338 -0.4002
  992MOL0     C30848   0.514   0.171   3.443 -0.0971  0.0961  0.3729
  992MOL0     C30849   0.388   0.244   3.498  0.0044  0.1793 -0.3306
  992MOL0     C30850   0.257   0.163   3.501 -0.1126  0.0004 -0.3261
  992MOL0     C30851   0.126   0.243   3.518  0.0090  0.0926 -0.2522
  992MOL0     C30852   0.002   0.151   3.535 -0.1566  0.0307 -0.5091
  992MOL0     C30853  -0.041   0.079   3.412  0.0058  0.1691  0.2173
  992MOL0     C30854  -0.104   0.180   3.315  0.7489  1.1892 -0.6669
  992MOL0     C30855  -0.241   0.221   3.362 -0.2018  0.0011  0.5512
  992MOL0    Cl30856  -0.313   0.320   3.227 -0.2257 -0.0066  0.2228
  992MOL0     C30857   0.776   0.070   3.407  0.0565 -0.4024 -0.3815
  992MOL0     C30858   0.892   0.009   3.438 -0.8647  0.2739  0.0738
  992MOL0     O30859   1.091  -0.202   3.510  0.7183  0.9565 -0.2415
  992MOL0     C30860   1.371  -0.244   3.514  0.0426  0.0106 -0.4853
  992MOL0     C30861   1.510  -0.262   3.514 -0.6362  0.0438 -0.2562
  992MOL0     N30862   2.245   0.048   3.123 -0.2874  0.5812  0.5035
  992MOL0     N30863   2.364   0.023   3.079 -0.3819 -1.1224  0.4241
  992MOL0     C30864   3.466   0.310   2.704  0.0522  0.0828  1.0850
  992MOL0     C30865   3.576   0.360   2.630  0.6869  0.1145 -1.0771
  992MOL0     C30866   3.902   0.430   2.363 -1.3378  0.1414 -0.1587
  992MOL0     C30867   4.011   0.449   2.447 -0.2173 -0.4392 -0.6894
  992MOL0     C30868   4.140   0.467   2.398  0.8990 -0.5440 -0.2477
  992MOL0     C30869   4.160   0.498   2.263 -0.1063 -0.4529 -0.8718
  992MOL0     O30870   4.279   0.553   2.220 -0.1757  0.2291 -0.9377
  992MOL0     C30871   4.309   0.538   2.082  0.0086 -0.2079  0.4767
  992MOL0     C30872   4.373   0.409   2.044 -0.0366  0.3918 -0.1099
  992MOL0     C30873   4.455   0.331   2.155  0.6355 -0.5923 -0.3042
  992MOL0     C30874   4.579   0.414   2.211 -0.0990  0.2161 -0.0870
  992MOL0     C30875   4.675   0.453   2.108  0.5468 -0.4498  0.3727
  992MOL0     C30876   4.753   0.470   2.019 -0.3726  0.4358  0.3372
  992MOL0     C30877   4.046   0.489   2.177  1.0812  0.2346 -0.5718
  992MOL0     C30878   3.922   0.447   2.226 -0.1325  0.7967  1.3360
  992MOL0     H30879   3.765   0.071   2.641 -2.8887 -1.5192 -2.9733
  992MOL0     H30880   3.585   0.004   2.786  0.1407 -0.5137 -1.3906
  992MOL0     H30881   3.206   0.195   2.720  2.7038 -1.5364 -1.5502
  992MOL0     H30882   3.244   0.290   2.870 -2.2098  0.0216 -0.9903
  992MOL0     H30883   3.183   0.088   2.993 -1.6808  1.0437 -0.0978
  992MOL0     H30884   3.148   0.001   2.840  0.0641 -0.7554  0.5518
  992MOL0     H30885   2.967   0.188   2.804  0.5425  2.7890  0.6021
  992MOL0     H30886   3.029   0.269   2.950 -0.6655 -0.1785  1.0373
  992MOL0     H30887   2.921  -0.005   2.932  1.9070 -0.6808  1.1242
  992MOL0     H30888   2.957   0.076   3.079  1.3684 -0.5517 -0.6783
  992MOL0     H30889   2.737   0.170   2.886 -2.2503 -0.6481  1.7090
  992MOL0     H30890   2.792   0.251   3.035 -0.0885  0.2045  0.8319
  992MOL0     H30891   2.586   0.128   3.071 -0.1261 -0.8953 -0.4356
  992MOL0     H30892   2.717   0.032   3.154 -1.7374 -1.7601  0.6904
  992MOL0     H30893   2.554  -0.013   2.899 -2.8721  0.7076  2.2059
  992MOL0     H30894   2.700  -0.111   2.941  1.9602  1.3943 -0.3156
  992MOL0     H30895   2.592  -0.194   3.150 -1.0036  0.2247  0.9189
  992MOL0     H30896   2.510  -0.229   2.996 -0.3115  2.0334 -0.2679
  992MOL0     H30897   2.322  -0.226   3.277 -0.3328 -0.8631 -0.8941
  992MOL0     H30898   2.036  -0.153   3.227  0.7680 -1.0155  1.6292
  992MOL0     H30899   2.019   0.026   3.213 -0.5838  0.4500  0.1744
  992MOL0     H30900   2.034   0.042   3.458 -0.7713 -0.6055  2.7649
  992MOL0     H30901   2.147  -0.093   3.454  0.0676  0.1099 -1.2430
  992MOL0     H30902   1.964  -0.248   3.421  2.0009  0.1073  1.4603
  992MOL0     H30903   1.956  -0.140   3.570  1.1661  0.2271 -0.0943
  992MOL0     H30904   1.777  -0.097   3.329  0.2117 -3.0153  1.3413
  992MOL0     H30905   1.808   0.026   3.458 -0.5895  1.4595 -2.3036
  992MOL0     H30906   1.604   0.065   3.523 -0.7961  0.2413 -2.0620
  992MOL0     H30907   1.369   0.093   3.552 -1.8651 -1.2445  1.1866
  992MOL0     H30908   1.051   0.260   3.599 -1.5089  2.7980  0.6933
  992MOL0     H30909   0.812   0.371   3.566 -1.4430  0.4482 -1.2014
  992MOL0     H30910   0.539   0.084   3.505 -0.0512 -0.2719 -0.1465
  992MOL0     H30911   0.482   0.140   3.342 -1.8837  2.6609  0.0701
  992MOL0     H30912   0.373   0.326   3.428  0.1159 -0.3976 -1.0343
  992MOL0     H30913   0.407   0.288   3.597  4.7424  0.2179 -1.0537
  992MOL0     H30914   0.275   0.075   3.563  1.4308 -1.6772 -2.9355
  992MOL0     H30915   0.247   0.110   3.405 -1.0785 -1.6401  0.6246
  992MOL0     H30916   0.139   0.304   3.607  0.4334 -1.8556  1.0921
  992MOL0     H30917   0.114   0.317   3.439  0.7643  3.0754  2.2550
  992MOL0     H30918  -0.077   0.221   3.563  0.1229  0.2795 -0.3310
  992MOL0     H30919   0.021   0.087   3.622  0.3533  0.4286 -0.3212
  992MOL0     H30920  -0.107  -0.007   3.429  2.0613 -1.1658  1.9983
  992MOL0     H30921   0.049   0.027   3.377  0.5110  1.7881 -1.0267
  992MOL0     H30922  -0.028   0.258   3.300  2.8571 -0.5803  0.2196
  992MOL0     H30923  -0.114   0.118   3.226  2.4061 -0.5415  0.2837
  992MOL0     H30924  -0.225   0.280   3.453  2.9308 -0.0249  0.1270
  992MOL0     H30925  -0.304   0.137   3.394  0.3512 -0.0248  1.6056
  992MOL0     H30926   0.715   0.012   3.339  0.9221 -2.8651  0.8314
  992MOL0     H30927   0.913  -0.088   3.393  0.0006  1.2178 -1.6395
  992MOL0     H30928   1.315  -0.335   3.530 -3.7148  2.0017 -1.2006
  992MOL0     H30929   1.552  -0.361   3.525 -1.3715 -0.5030 -2.0311
  992MOL0     H30930   3.380   0.375   2.711  0.2712  0.3012  1.9568
  992MOL0     H30931   3.569   0.463   2.598 -1.3718  1.4329  2.9225
  992MOL0     H30932   4.010   0.434   2.554 -0.6051 -1.9330 -0.8868
  992MOL0     H30933   4.214   0.475   2.477 -0.1875  0.1865  0.7256
  992MOL0     H30934   4.388   0.610   2.060  1.5494 -0.9937  2.9534
  992MOL0     H30935   4.231   0.553   2.008  0.7697 -0.8424 -0.4844
  992MOL0     H30936   4.298   0.341   2.004  0.5343  0.0510 -0.6194
  992MOL0     H30937   4.442   0.431   1.962 -2.5389 -1.3298 -2.8640
  992MOL0     H30938   4.478   0.227   2.132  1.3383 -1.2211  2.7877
  992MOL0     H30939   4.394   0.335   2.246 -0.6063  0.1402 -1.1325
  992MOL0     H30940   4.537   0.506   2.252 -1.7460 -0.9072  0.8722
  992MOL0     H30941   4.631   0.359   2.290  0.5800  0.4417 -0.3640
  992MOL0     H30942   4.841   0.502   1.965  1.6364 -0.1458  3.0632
  992MOL0     H30943   4.051   0.498   2.069  0.7477 -1.1399 -0.7167
  992MOL0     H30944   3.834   0.432   2.164  1.2067  1.2818 -0.7761
  993MOL0     O30945   5.153  10.858   6.325  0.5956 -0.8675  0.0030
  993MOL0     C30946   5.185  10.943   6.405  1.3487 -0.7006  0.6971
  993MOL0     O30947   5.106  11.002   6.494 -0.0197  0.3647  0.3924
  993MOL0     C30948   4.981  10.959   6.502  0.0525  0.1323 -0.2866
  993MOL0     C30949   4.942  10.865   6.595 -1.1027  0.3416  0.8767
  993MOL0     C30950   4.807  10.833   6.613 -0.4834 -0.1379 -0.4453
  993MOL0     C30951   4.702  10.893   6.544 -0.8032  0.6411 -0.0270
  993MOL0     O30952   4.568  10.859   6.560 -0.2779  0.0242  0.2695
  993MOL0     C30953   4.531  10.788   6.681 -0.0136 -0.9093  0.6903
  993MOL0     C30954   4.378  10.768   6.684  0.0591  0.3667  0.0967
  993MOL0     C30955   4.286  10.893   6.664  0.0848  0.2809  0.1888
  993MOL0     C30956   4.144  10.839   6.641  0.0980 -0.6636  1.3996
  993MOL0     C30957   4.049  10.963   6.591  0.1802  1.8561  0.4510
  993MOL0     C30958   3.900  10.940   6.633  0.1084  1.5857 -0.2998
  993MOL0     C30959   3.802  11.054   6.597  0.5148  0.4588 -0.6229
  993MOL0     C30960   3.668  11.040   6.662  0.5045 -0.4009 -0.0303
  993MOL0     N30961   3.583  11.153   6.632 -0.4690 -0.4118 -0.2410
  993MOL0     C30962   3.503  11.149   6.526  0.9027  0.1392 -0.7445
  993MOL0     C30963   3.420  11.259   6.522  0.0819  0.8078 -0.5135
  993MOL0     C30964   3.320  11.305   6.416 -0.5439  0.1635 -0.5338
  993MOL0     C30965   3.184  11.226   6.437 -0.1940  0.1158  0.9438
  993MOL0     C30966   3.107  11.293   6.556  0.4943  0.5369  0.5517
  993MOL0     C30967   2.966  11.233   6.584 -0.4350 -0.0602  0.5867
  993MOL0     O30968   2.894  11.327   6.666  0.4125  0.1697  0.1552
  993MOL0     C30969   2.776  11.278   6.725  1.1825  0.1061  0.0942
  993MOL0     C30970   2.739  11.144   6.751  0.3669 -0.2751  1.0402
  993MOL0     C30971   2.614  11.125   6.814 -0.4924  0.8175  0.1051
  993MOL0     C30972   2.526  11.225   6.868  0.0638  0.0587  1.0737
  993MOL0     C30973   2.410  11.179   6.935  0.5376 -0.8602 -0.2930
  993MOL0     O30974   2.371  11.049   6.929 -0.0874 -0.2044  0.4735
  993MOL0     C30975   2.259  10.999   6.997 -0.5341 -0.4995 -0.8081
  993MOL0     C30976   2.277  10.878   7.069 -0.3600  0.0733 -1.2396
  993MOL0     C30977   2.173  10.825   7.146  0.2669  0.0801 -0.3060
  993MOL0     C30978   2.048  10.891   7.148  0.5996  0.0134  0.1210
  993MOL0     O30979   1.930  10.838   7.187 -0.2326 -0.3730 -0.6824
  993MOL0     C30980   1.941  10.738   7.286  0.1201  0.0673  0.2476
  993MOL0     C30981   1.799  10.694   7.328 -0.0122 -0.0846  0.3559
  993MOL0     C30982   1.708  10.651   7.206  0.4357 -0.8537  0.4423
  993MOL0     C30983   1.733  10.519   7.158 -0.4322 -0.1627  0.0265
  993MOL0     C30984   1.719  10.398   7.253 -1.2901 -0.4900  0.4000
  993MOL0     C30985   1.574  10.378   7.300  0.2968 -0.3258  0.3202
  993MOL0     C30986   1.538  10.243   7.371  0.4475 -0.1512 -0.0350
  993MOL0     C30987   1.382  10.235   7.386  0.5449 -0.0937 -0.1388
  993MOL0    Cl30988   1.332  10.319   7.528  0.2124 -0.2253 -0.1591
  993MOL0     C30989   2.040  11.024   7.088  0.9938  0.9594 -1.0985
  993MOL0     C30990   2.140  11.072   7.007  0.3426 -1.0568 -0.4790
  993MOL0     O30991   2.358  11.268   7.006 -0.0696 -0.1387 -0.0483
  993MOL0     C30992   2.570  11.356   6.854 -0.7812  0.1312  0.6545
  993MOL0     C30993   2.693  11.372   6.780 -0.0833 -0.4838 -1.1149
  993MOL0     N30994   3.456  11.331   6.637  0.1130 -0.5250 -0.4324
  993MOL0     N30995   3.564  11.272   6.697  0.0290  0.1924 -0.6312
  993MOL0     C30996   4.745  10.970   6.438  0.0684 -0.4705 -0.3577
  993MOL0     C30997   4.880  11.001   6.411 -0.1481  0.6221 -0.1647
  993MOL0     C30998   5.317  10.996   6.382  0.5947  0.4257  0.1086
  993MOL0     C30999   5.414  10.929   6.298 -0.2710  0.0833 -0.1291
  993MOL0     C31000   5.536  10.981   6.271 -0.0650  0.7311 -0.4597
  993MOL0     C31001   5.563  11.110   6.325 -0.0342  0.2984 -0.0598
  993MOL0     O31002   5.672  11.186   6.311  0.4430  0.0559 -0.2821
  993MOL0     C31003   5.770  11.144   6.205 -0.2123 -1.5882 -0.6677
  993MOL0     C31004   5.885  11.261   6.219  0.1172  0.4993 -0.3583
  993MOL0     C31005   6.006  11.211   6.140  0.5014  0.1344 -0.4402
  993MOL0     C31006   6.055  11.076   6.181  0.5283 -0.4972 -0.0984
  993MOL0     C31007   6.193  11.053   6.133  0.3105  0.1793  0.3644
  993MOL0     C31008   6.294  11.009   6.082 -0.4766 -0.4026  0.3718
  993MOL0     C31009   5.474  11.176   6.406  0.4739 -0.7660  0.0291
  993MOL0     C31010   5.355  11.114   6.444 -0.0885 -0.9625  0.7203
  993MOL0     H31011   5.013  10.814   6.659 -0.6277 -2.0045 -1.3563
  993MOL0     H31012   4.796  10.748   6.680  4.2187 -0.7238 -0.0536
  993MOL0     H31013   4.562  10.842   6.771  0.6016  1.2881 -0.7528
  993MOL0     H31014   4.570  10.686   6.677 -0.6005 -1.1593  1.1058
  993MOL0     H31015   4.354  10.708   6.773 -1.4591  0.1000 -0.4537
  993MOL0     H31016   4.350  10.699   6.604  1.1584 -0.3388  0.2926
  993MOL0     H31017   4.315  10.963   6.586  0.1264  0.0992  0.0422
  993MOL0     H31018   4.294  10.950   6.757  0.6609  1.7944 -0.7460
  993MOL0     H31019   4.141  10.765   6.560  1.3637  0.7627 -0.0075
  993MOL0     H31020   4.097  10.792   6.728 -0.5460 -0.7272  1.0295
  993MOL0     H31021   4.055  10.977   6.483  2.8999  4.9525  0.8432
  993MOL0     H31022   4.096  11.050   6.637 -0.1379  1.2049  2.1146
  993MOL0     H31023   3.898  10.920   6.740 -0.4120 -0.7139 -0.6939
  993MOL0     H31024   3.872  10.850   6.578  4.6222 -0.5678  0.4252
  993MOL0     H31025   3.852  11.148   6.623  2.4294  0.2088 -3.0117
  993MOL0     H31026   3.792  11.059   6.488 -1.1165  0.0782 -0.5174
  993MOL0     H31027   3.678  11.035   6.771 -0.5336 -0.6442  0.0653
  993MOL0     H31028   3.623  10.949   6.622  1.3644 -1.3199  1.0186
  993MOL0     H31029   3.505  11.073   6.449 -0.4132 -0.5162 -0.1614
  993MOL0     H31030   3.367  11.288   6.318  1.0565  1.8495 -0.1133
  993MOL0     H31031   3.311  11.414   6.411 -1.1061  0.0659 -2.4949
  993MOL0     H31032   3.205  11.122   6.467 -0.5845  0.2361  1.6752
  993MOL0     H31033   3.140  11.219   6.338  0.5672  1.1048  0.5143
  993MOL0     H31034   3.163  11.287   6.650  1.5591  0.9334 -0.0348
  993MOL0     H31035   3.086  11.398   6.535 -1.6929  0.5266  2.3877
  993MOL0     H31036   2.971  11.136   6.634 -1.0582  0.5947  1.9862
  993MOL0     H31037   2.914  11.215   6.490  0.3530 -2.1180  0.4847
  993MOL0     H31038   2.798  11.061   6.715  0.0448 -1.5030  3.1526
  993MOL0     H31039   2.583  11.023   6.836  1.3253  0.5090  1.4511
  993MOL0     H31040   2.372  10.827   7.054  0.4840  1.3710 -0.5920
  993MOL0     H31041   2.181  10.721   7.175  1.3451  0.8448  2.4061
  993MOL0     H31042   1.994  10.764   7.377  2.8150 -1.6732 -0.7017
  993MOL0     H31043   1.988  10.657   7.228 -0.0612  1.4329 -1.9408
  993MOL0     H31044   1.741  10.766   7.385 -1.9528 -0.9706 -0.3966
  993MOL0     H31045   1.807  10.609   7.397  1.1290 -1.3252 -1.2188
  993MOL0     H31046   1.712  10.718   7.120 -1.6881 -0.8515  0.2855
  993MOL0     H31047   1.604  10.654   7.240 -0.1086  1.0260 -1.1898
  993MOL0     H31048   1.661  10.503   7.078 -0.5210 -1.0562  0.2798
  993MOL0     H31049   1.832  10.531   7.113 -2.0265  1.1167 -3.5645
  993MOL0     H31050   1.787  10.409   7.338 -0.7668 -0.3683 -0.0358
  993MOL0     H31051   1.760  10.314   7.197 -1.3166 -0.7624  0.7816
  993MOL0     H31052   1.508  10.382   7.213 -2.9424 -0.4879  2.5994
  993MOL0     H31053   1.549  10.463   7.365  0.4418 -0.5281  0.6423
  993MOL0     H31054   1.566  10.159   7.308 -3.8864 -1.2882 -0.7290
  993MOL0     H31055   1.592  10.228   7.466  0.3482  1.2701  0.2683
  993MOL0     H31056   1.347  10.132   7.395  1.3985 -0.6542 -2.4353
  993MOL0     H31057   1.338  10.270   7.292 -0.4347 -1.4407 -0.2080
  993MOL0     H31058   1.951  11.082   7.114 -0.5428 -2.4526  2.0322
  993MOL0     H31059   2.129  11.170   6.961 -1.3225 -1.1853 -0.3992
  993MOL0     H31060   2.519  11.446   6.887  0.5665  1.2821 -0.2479
  993MOL0     H31061   2.728  11.472   6.757 -1.0229  0.3943  1.0018
  993MOL0     H31062   4.673  11.014   6.369 -0.1821  0.4706  0.4780
  993MOL0     H31063   4.911  11.067   6.331  0.9554  1.0436  0.5894
  993MOL0     H31064   5.389  10.840   6.241 -0.5463 -0.9106  1.4764
  993MOL0     H31065   5.614  10.933   6.213  0.5640  1.2226 -0.0276
  993MOL0     H31066   5.721  11.130   6.109  0.9647 -1.9919 -1.2267
  993MOL0     H31067   5.809  11.048   6.241  1.3035 -0.5564  0.5941
  993MOL0     H31068   5.844  11.352   6.173 -1.7683 -0.2580 -0.2623
  993MOL0     H31069   5.921  11.285   6.320  2.3572  1.6520 -1.3640
  993MOL0     H31070   6.086  11.284   6.153  2.2340 -1.5896 -1.0315
  993MOL0     H31071   5.978  11.207   6.034 -1.3004 -3.3375  0.0370
  993MOL0     H31072   6.061  11.078   6.290 -1.3183  0.1697  0.0351
  993MOL0     H31073   5.990  10.993   6.152  0.3557  0.0042 -1.1640
  993MOL0     H31074   6.389  10.972   6.049  1.2384  2.5166  1.6179
  993MOL0     H31075   5.504  11.271   6.450  2.4682 -1.6502  0.7028
  993MOL0     H31076   5.302  11.175   6.516  1.0154 -0.1062  0.8287
  994MOL0     O31077   3.649   9.827   3.765  0.0072 -0.3244  0.3001
  994MOL0     C31078   3.603   9.878   3.867  0.2786  0.6146  0.2977
  994MOL0     O31079   3.657   9.981   3.934 -0.2569  0.5328  0.3221
  994MOL0     C31080   3.755  10.045   3.872  0.5664 -0.5666 -0.0767
  994MOL0     C31081   3.882   9.993   3.843 -0.2922  0.4407 -0.2499
  994MOL0     C31082   3.993  10.073   3.815 -0.3801  0.8153 -0.3001
  994MOL0     C31083   3.980  10.215   3.814 -0.1888 -0.1369 -0.0861
  994MOL0     O31084   4.092  10.283   3.789 -0.2924 -0.4637  0.4299
  994MOL0     C31085   4.092  10.420   3.793 -0.8697  0.0579 -0.9959
  994MOL0     C31086   4.095  10.477   3.935  0.1860 -0.2806  0.1577
  994MOL0     C31087   4.222  10.557   3.969 -0.1751  0.3537 -0.4906
  994MOL0     C31088   4.221  10.622   4.107  0.2575 -0.7456 -0.1177
  994MOL0     C31089   4.358  10.684   4.119  0.5423 -0.7366  0.1697
  994MOL0     C31090   4.382  10.752   4.256  0.1509 -0.5108 -0.1102
  994MOL0     C31091   4.513  10.831   4.253  0.2310 -0.7098 -0.4796
  994MOL0     C31092   4.561  10.874   4.396  0.6371  0.2243  0.6920
  994MOL0     N31093   4.692  10.931   4.408 -0.3109  0.3178  0.3762
  994MOL0     C31094   4.724  11.065   4.416  0.0782  0.3734  0.1003
  994MOL0     C31095   4.857  11.055   4.418  0.1498  1.0346  0.0873
  994MOL0     C31096   4.951  11.175   4.431  0.1245  0.2887 -0.8072
  994MOL0     C31097   5.006  11.203   4.570 -0.0210  0.1324 -0.7491
  994MOL0     C31098   5.088  11.334   4.572 -0.2794  0.0269  0.6592
  994MOL0     C31099   5.235  11.319   4.540  0.3403 -0.7030 -1.0480
  994MOL0     O31100   5.253  11.245   4.422  1.2795  0.2951 -1.1291
  994MOL0     C31101   5.384  11.243   4.380  0.1168  0.2512  1.2272
  994MOL0     C31102   5.404  11.191   4.254  0.1209 -0.1317  0.0860
  994MOL0     C31103   5.533  11.200   4.188  0.6677 -0.2595  0.9932
  994MOL0     C31104   5.643  11.245   4.256  0.4760  0.1058  0.7433
  994MOL0     C31105   5.769  11.239   4.190  0.1749 -0.1728  0.2096
  994MOL0     O31106   5.802  11.117   4.131 -1.0425 -1.0024 -0.0955
  994MOL0     C31107   5.913  11.118   4.049 -0.2003  0.4665 -0.4023
  994MOL0     C31108   5.907  11.090   3.904 -0.6787 -0.1666  0.3566
  994MOL0     C31109   6.025  11.095   3.828  0.0092  0.0184  0.1810
  994MOL0     C31110   6.140  11.118   3.890 -0.0633  0.2465  0.2811
  994MOL0     O31111   6.249  11.121   3.796 -0.1406  0.2632  0.3258
  994MOL0     C31112   6.386  11.090   3.838  0.3618  0.5995  0.0304
  994MOL0     C31113   6.466  11.069   3.710  0.2519 -1.3234  0.6130
  994MOL0     C31114   6.615  11.072   3.746  0.0700 -0.1138 -1.4342
  994MOL0     C31115   6.709  11.063   3.631  0.1750  0.2626 -0.9300
  994MOL0     C31116   6.856  11.070   3.686  0.7633 -0.5686  0.2141
  994MOL0     C31117   6.963  11.061   3.577 -0.8441  0.3601 -0.8075
  994MOL0     C31118   7.096  11.066   3.657  0.1702 -0.9902  0.7055
  994MOL0     C31119   7.211  11.083   3.555 -0.0647 -0.3806  0.0401
  994MOL0    Cl31120   7.233  10.924   3.473 -0.0851  0.0109 -0.2126
  994MOL0     C31121   6.154  11.140   4.026  0.8963 -0.0702 -0.3140
  994MOL0     C31122   6.040  11.140   4.102  0.9617  0.5685 -0.0889
  994MOL0     O31123   5.826  11.351   4.167  0.1044  0.2376  0.0246
  994MOL0     C31124   5.625  11.282   4.390  0.2469  0.1215 -0.1450
  994MOL0     C31125   5.503  11.283   4.445  0.5895  0.8012  0.0521
  994MOL0     N31126   4.907  10.929   4.420  0.1287 -0.5228  0.2056
  994MOL0     N31127   4.801  10.856   4.416 -0.4778  0.5441  0.0434
  994MOL0     C31128   3.852  10.259   3.828 -0.6783 -0.2704 -0.1153
  994MOL0     C31129   3.741  10.180   3.854 -0.4139  0.2424 -0.9383
  994MOL0     C31130   3.472   9.843   3.910 -0.3793 -1.0372  0.8584
  994MOL0     C31131   3.378   9.826   3.810 -0.0961  0.6095 -0.2910
  994MOL0     C31132   3.245   9.798   3.846 -0.3225 -0.2053  0.8518
  994MOL0     C31133   3.194   9.793   3.973 -0.2145  0.3413 -0.8155
  994MOL0     O31134   3.067   9.756   3.996 -0.1496  0.2046  0.5701
  994MOL0     C31135   3.001   9.800   4.117 -0.4058 -0.3436 -0.3592
  994MOL0     C31136   2.862   9.748   4.110  0.3398 -0.3033 -0.9454
  994MOL0     C31137   2.792   9.766   4.240  0.3692 -0.4274  0.1455
  994MOL0     C31138   2.671   9.668   4.241  0.1611 -0.1267  0.6460
  994MOL0     C31139   2.587   9.684   4.356  0.6514 -0.3772  0.0324
  994MOL0     C31140   2.529   9.691   4.456  0.0207  0.0595 -0.5454
  994MOL0     C31141   3.289   9.834   4.072 -0.4947  1.0576 -0.0653
  994MOL0     C31142   3.428   9.861   4.039 -0.1129  0.0714 -0.0115
  994MOL0     H31143   3.894   9.885   3.853  3.4029  0.7948  0.3509
  994MOL0     H31144   4.090  10.027   3.803 -0.7639  0.1460 -0.9697
  994MOL0     H31145   4.010  10.461   3.733  0.3744  1.4645 -1.7798
  994MOL0     H31146   4.173  10.463   3.734 -2.0986  0.1255 -2.7138
  994MOL0     H31147   4.095  10.395   4.008  0.0222 -0.2580  0.1838
  994MOL0     H31148   4.009  10.543   3.948  0.5546  0.1202  0.5982
  994MOL0     H31149   4.245  10.632   3.893 -1.5905  0.3870 -0.9013
  994MOL0     H31150   4.306  10.489   3.954  0.5638  1.3968 -1.2703
  994MOL0     H31151   4.135  10.688   4.120 -0.3233 -1.6497  0.7676
  994MOL0     H31152   4.205  10.544   4.183 -0.4409 -0.6438 -0.1605
  994MOL0     H31153   4.357  10.769   4.050 -3.5264  0.0146  0.8955
  994MOL0     H31154   4.444  10.617   4.106 -0.8114 -2.3219 -0.8866
  994MOL0     H31155   4.389  10.679   4.337 -0.1898  0.0000  0.3883
  994MOL0     H31156   4.289  10.807   4.276 -0.7433 -2.4870  1.5436
  994MOL0     H31157   4.586  10.768   4.201  0.2616 -1.9791  1.0295
  994MOL0     H31158   4.506  10.930   4.208  2.2092  0.1749  0.9646
  994MOL0     H31159   4.553  10.790   4.465  2.1703 -1.3589 -0.9373
  994MOL0     H31160   4.485  10.942   4.436 -0.9105 -0.8711 -0.2584
  994MOL0     H31161   4.664  11.155   4.417  1.3367  1.2504 -0.2142
  994MOL0     H31162   4.890  11.264   4.413  0.6781  1.1531  1.2744
  994MOL0     H31163   5.028  11.163   4.354  0.6340  1.7820 -0.5533
  994MOL0     H31164   5.067  11.120   4.608 -0.7039 -0.2160 -0.3980
  994MOL0     H31165   4.925  11.210   4.643  1.2141 -2.3373  0.9953
  994MOL0     H31166   5.041  11.406   4.505 -3.4327 -2.5893 -0.1946
  994MOL0     H31167   5.083  11.373   4.675  0.3996  1.2032  0.2671
  994MOL0     H31168   5.280  11.262   4.621  0.5610  0.3629 -0.3921
  994MOL0     H31169   5.286  11.416   4.534 -0.4018 -0.2785 -0.6625
  994MOL0     H31170   5.318  11.152   4.200  0.1442  1.0371 -0.8501
  994MOL0     H31171   5.540  11.169   4.084  0.7817 -1.7725  1.4226
  994MOL0     H31172   5.815  11.095   3.846 -0.5705  0.7800  0.2584
  994MOL0     H31173   6.023  11.071   3.722  1.4037  1.1765 -0.1430
  994MOL0     H31174   6.400  10.998   3.897 -0.0131 -0.3080 -1.2536
  994MOL0     H31175   6.427  11.166   3.905  3.6685 -1.4548  0.6049
  994MOL0     H31176   6.445  11.156   3.648  0.8783  1.2648  3.7697
  994MOL0     H31177   6.451  10.978   3.651  0.1896 -0.0979 -1.3301
  994MOL0     H31178   6.642  10.990   3.814  0.4924  0.9239 -0.3022
  994MOL0     H31179   6.626  11.171   3.792  0.7248 -1.0726  0.6264
  994MOL0     H31180   6.699  10.965   3.583 -2.5017  0.8709 -1.7452
  994MOL0     H31181   6.699  11.142   3.557  1.1476  0.2867 -1.0491
  994MOL0     H31182   6.866  10.981   3.750 -1.6926 -3.3449 -2.8548
  994MOL0     H31183   6.867  11.155   3.754  0.6407 -1.5575  1.5328
  994MOL0     H31184   6.950  11.146   3.509 -1.7901 -0.5174 -1.7602
  994MOL0     H31185   6.959  10.972   3.514 -5.7142  0.9182 -1.6579
  994MOL0     H31186   7.101  11.156   3.719 -3.5030  0.2370 -0.5047
  994MOL0     H31187   7.098  10.978   3.722 -0.2660  0.8530  3.3950
  994MOL0     H31188   7.293  11.107   3.623  0.0521  2.9731 -1.0825
  994MOL0     H31189   7.192  11.165   3.486 -4.5923 -0.9629  0.3097
  994MOL0     H31190   6.252  11.155   4.072  0.9108 -1.5212  0.1796
  994MOL0     H31191   6.064  11.163   4.206 -0.4874 -1.0823  0.6466
  994MOL0     H31192   5.718  11.286   4.446  0.6571 -3.5002 -0.3880
  994MOL0     H31193   5.502  11.329   4.543  3.0352 -0.4014  0.7319
  994MOL0     H31194   3.831  10.366   3.830 -2.2036 -0.4431 -2.6522
  994MOL0     H31195   3.649  10.227   3.886 -0.2620 -0.0214 -0.0773
  994MOL0     H31196   3.410   9.833   3.706  1.0678  1.2819  0.0872
  994MOL0     H31197   3.169   9.783   3.770  0.9685 -0.3084 -0.4698
  994MOL0     H31198   3.000   9.908   4.129 -2.0599 -0.5695  2.2566
  994MOL0     H31199   3.048   9.754   4.204 -1.2258  2.1923  1.5442
  994MOL0     H31200   2.797   9.790   4.032 -2.1004 -0.8900  0.6869
  994MOL0     H31201   2.874   9.641   4.090  0.9529 -0.7154  1.3861
  994MOL0     H31202   2.756   9.868   4.256 -2.0797 -0.7176 -2.5921
  994MOL0     H31203   2.864   9.753   4.321 -0.5644 -0.3897  0.9993
  994MOL0     H31204   2.606   9.685   4.155  0.1168  3.3797  1.2296
  994MOL0     H31205   2.706   9.565   4.233  1.6726  0.4309 -0.3298
  994MOL0     H31206   2.472   9.703   4.545  0.4433 -3.5238  0.3837
  994MOL0     H31207   3.264   9.843   4.177  2.8881 -2.8178  1.3840
  994MOL0     H31208   3.501   9.891   4.114 -2.3206 -0.7809  2.6839
  995MOL0     O31209   5.098   3.571   1.280  0.1773 -0.0281  0.9970
  995MOL0     C31210   5.103   3.686   1.256 -0.9031 -1.3310 -0.3384
  995MOL0     O31211   5.001   3.780   1.273  0.7615 -0.4632 -0.7220
  995MOL0     C31212   4.882   3.726   1.299  0.4232 -0.0290 -0.4024
  995MOL0     C31213   4.849   3.640   1.410 -0.3680  0.0672 -0.6070
  995MOL0     C31214   4.715   3.587   1.422 -0.0179 -0.2023 -0.1191
  995MOL0     C31215   4.610   3.642   1.339 -0.4091 -0.2491 -0.1547
  995MOL0     O31216   4.481   3.593   1.362  0.2578 -1.3138  0.3820
  995MOL0     C31217   4.376   3.688   1.335  0.7960 -0.1357  0.7854
  995MOL0     C31218   4.369   3.808   1.424  0.3260 -0.9800 -1.1346
  995MOL0     C31219   4.290   3.915   1.344 -0.1236 -0.6126 -1.3208
  995MOL0     C31220   4.274   4.050   1.413  0.7084 -0.0768  0.3463
  995MOL0     C31221   4.183   4.136   1.322 -0.6008 -0.0348 -0.2020
  995MOL0     C31222   4.176   4.286   1.379 -0.6148  0.1543  0.3589
  995MOL0     C31223   4.287   4.365   1.309  0.9553  0.4802 -0.1221
  995MOL0     C31224   4.319   4.499   1.379 -0.5015  0.2255  0.1647
  995MOL0     N31225   4.208   4.588   1.358  0.3057 -0.4403 -0.3201
  995MOL0     C31226   4.126   4.595   1.251  0.1793  0.1603  0.5372
  995MOL0     C31227   4.029   4.686   1.279  0.7480  0.0469  1.2595
  995MOL0     C31228   3.929   4.739   1.178 -0.2828  0.8907 -0.2731
  995MOL0     C31229   3.786   4.712   1.242  0.7649  0.2113 -0.1050
  995MOL0     C31230   3.668   4.732   1.151 -0.0179 -0.5335  0.5052
  995MOL0     C31231   3.535   4.700   1.220 -0.0743  0.1395 -0.1908
  995MOL0     O31232   3.442   4.687   1.116  0.1561  0.0816  0.0810
  995MOL0     C31233   3.345   4.591   1.119 -0.1634  0.5619 -0.3410
  995MOL0     C31234   3.357   4.456   1.159  0.1121 -1.3895 -0.5073
  995MOL0     C31235   3.245   4.367   1.172  0.4438 -0.1988  0.5380
  995MOL0     C31236   3.121   4.400   1.119  0.1096  0.1155  0.1082
  995MOL0     C31237   3.018   4.306   1.106  0.2200  0.5926 -0.5433
  995MOL0     O31238   2.926   4.322   1.007  0.0086  0.0607 -0.4156
  995MOL0     C31239   2.820   4.239   1.018  0.4968 -0.1544  0.7882
  995MOL0     C31240   2.794   4.165   0.904 -0.2182  1.3888 -0.8710
  995MOL0     C31241   2.678   4.079   0.884  0.0094  0.5740 -0.4144
  995MOL0     C31242   2.587   4.077   0.994 -0.2530  0.5856 -0.6500
  995MOL0     O31243   2.463   4.010   0.998  1.2851 -0.4436 -0.1220
  995MOL0     C31244   2.373   4.028   0.885 -0.6348 -0.3614  0.3777
  995MOL0     C31245   2.387   3.912   0.790  0.7271  0.5520  0.5042
  995MOL0     C31246   2.339   3.775   0.841  0.1408 -0.7974  0.2381
  995MOL0     C31247   2.184   3.787   0.854  0.2656  0.0706 -0.6445
  995MOL0     C31248   2.115   3.656   0.899 -0.0935 -0.4660 -0.6932
  995MOL0     C31249   1.968   3.687   0.940  0.1126 -0.2441  0.7014
  995MOL0     C31250   1.904   3.552   0.980  0.1710 -0.0136  0.5261
  995MOL0     C31251   1.752   3.564   0.975  0.4197  0.1212  0.0186
  995MOL0    Cl31252   1.694   3.653   1.128  0.0983 -0.0910  0.2566
  995MOL0     C31253   2.614   4.152   1.112 -1.0790 -0.1982  0.4227
  995MOL0     C31254   2.728   4.225   1.124  0.6893 -0.0706  0.3530
  995MOL0     O31255   3.018   4.213   1.191  0.5379  0.1032  0.9851
  995MOL0     C31256   3.116   4.529   1.057  0.2088  0.4152 -0.1438
  995MOL0     C31257   3.221   4.621   1.058 -0.1757 -0.0818 -1.0052
  995MOL0     N31258   4.059   4.736   1.406 -0.3668 -0.2838  0.1987
  995MOL0     N31259   4.164   4.673   1.450 -0.3886  0.4952 -0.0370
  995MOL0     C31260   4.649   3.737   1.237  0.2476  0.4777  0.1247
  995MOL0     C31261   4.781   3.769   1.216 -0.0586 -1.0511 -0.6090
  995MOL0     C31262   5.237   3.745   1.222  0.1639  0.2035 -0.5654
  995MOL0     C31263   5.248   3.874   1.176  0.1864 -0.3455  0.7326
  995MOL0     C31264   5.373   3.933   1.150  0.6274  0.5495 -0.7172
  995MOL0     C31265   5.481   3.853   1.152 -1.3636  0.7353 -0.1036
  995MOL0     O31266   5.613   3.901   1.120 -0.3277 -0.2842  0.3002
  995MOL0     C31267   5.629   4.033   1.068 -0.0376 -0.0844  1.0963
  995MOL0     C31268   5.779   4.043   1.033  0.0829 -0.0106  0.3143
  995MOL0     C31269   5.820   4.181   0.991  0.5638  1.0596  0.2149
  995MOL0     C31270   5.970   4.203   0.992  0.1925  1.0436 -0.4537
  995MOL0     C31271   5.994   4.341   0.952 -0.3415  1.2635 -0.2335
  995MOL0     C31272   6.014   4.450   0.922 -0.0817 -0.6554  0.2898
  995MOL0     C31273   5.471   3.719   1.190 -0.0133 -0.9841 -0.7166
  995MOL0     C31274   5.352   3.663   1.232  0.4235 -0.8380 -0.6745
  995MOL0     H31275   4.918   3.605   1.486 -0.6764  4.0585  1.7430
  995MOL0     H31276   4.691   3.506   1.491  0.8102 -1.5740 -1.3788
  995MOL0     H31277   4.279   3.636   1.339  0.3241  0.7364  0.8849
  995MOL0     H31278   4.385   3.712   1.229 -0.9868 -1.5341  0.2590
  995MOL0     H31279   4.473   3.842   1.436 -0.8417  3.3741 -1.6300
  995MOL0     H31280   4.327   3.775   1.520  0.8270 -1.4753 -1.0804
  995MOL0     H31281   4.193   3.880   1.308  0.1619 -0.8206 -1.9149
  995MOL0     H31282   4.343   3.927   1.249  2.2320 -2.2565 -0.3229
  995MOL0     H31283   4.238   4.041   1.515 -3.6587  2.2684 -0.7322
  995MOL0     H31284   4.369   4.104   1.416 -0.4446  2.4902 -2.9828
  995MOL0     H31285   4.082   4.095   1.324 -1.0719  1.0289  2.2798
  995MOL0     H31286   4.213   4.141   1.217  3.8593 -0.4764  0.8381
  995MOL0     H31287   4.205   4.286   1.485  1.3277 -0.8309 -0.1131
  995MOL0     H31288   4.084   4.339   1.355 -1.1237 -0.2429  1.3778
  995MOL0     H31289   4.371   4.295   1.312  1.6502  1.0607 -2.7643
  995MOL0     H31290   4.269   4.384   1.202 -0.4577  1.4203  0.2528
  995MOL0     H31291   4.411   4.541   1.340 -0.2290  2.3114  2.7532
  995MOL0     H31292   4.345   4.483   1.484  2.6565 -2.0238 -0.8276
  995MOL0     H31293   4.139   4.538   1.160  2.3549 -0.1849  1.0180
  995MOL0     H31294   3.934   4.684   1.084  0.7891 -0.0022  0.2789
  995MOL0     H31295   3.939   4.844   1.153  1.3365  0.8859  0.2441
  995MOL0     H31296   3.777   4.788   1.320  0.0568  0.7306 -0.6738
  995MOL0     H31297   3.778   4.613   1.286  2.1285  0.5809  1.0773
  995MOL0     H31298   3.663   4.838   1.123 -1.8889 -1.1297 -1.7475
  995MOL0     H31299   3.687   4.657   1.073 -0.9307 -1.8777  1.5258
  995MOL0     H31300   3.495   4.786   1.275  1.9928  1.0819 -0.0542
  995MOL0     H31301   3.541   4.603   1.269  0.5264  2.0364  3.8862
  995MOL0     H31302   3.451   4.415   1.195 -0.4631 -1.4190  1.0351
  995MOL0     H31303   3.255   4.261   1.196 -1.5357 -0.8326 -1.1457
  995MOL0     H31304   2.867   4.174   0.824  3.2876  0.5729  1.9555
  995MOL0     H31305   2.662   4.018   0.796  0.8861  2.6946 -2.1132
  995MOL0     H31306   2.379   4.125   0.836 -2.7487  1.0316  2.6193
  995MOL0     H31307   2.273   4.036   0.930  0.4518  2.0320  2.6472
  995MOL0     H31308   2.491   3.904   0.755  0.0425  0.1614 -1.6418
  995MOL0     H31309   2.324   3.927   0.701 -2.3281 -0.9815  2.2471
  995MOL0     H31310   2.394   3.745   0.930  1.2242 -0.7132 -0.3848
  995MOL0     H31311   2.360   3.699   0.766  1.9422 -0.4850  0.3846
  995MOL0     H31312   2.161   3.863   0.928  2.6971  0.3031 -0.0257
  995MOL0     H31313   2.132   3.835   0.770  0.4072  2.9936  0.8227
  995MOL0     H31314   2.168   3.615   0.985 -0.8503 -0.0052  0.0187
  995MOL0     H31315   2.125   3.580   0.821  0.6646  1.7066 -2.8308
  995MOL0     H31316   1.909   3.727   0.857 -2.2529 -0.0632  2.3890
  995MOL0     H31317   1.963   3.753   1.027 -2.1337 -0.5544  0.8665
  995MOL0     H31318   1.937   3.488   0.898  0.0682  0.7599 -0.1288
  995MOL0     H31319   1.929   3.523   1.083  0.6229  1.4211  0.8412
  995MOL0     H31320   1.710   3.463   0.974  0.9046 -0.0826 -0.2723
  995MOL0     H31321   1.723   3.615   0.883  2.7027 -1.5276 -1.7659
  995MOL0     H31322   2.554   4.149   1.203 -1.4930 -0.2489  0.1459
  995MOL0     H31323   2.758   4.270   1.218 -2.8602  1.8540  0.7006
  995MOL0     H31324   3.015   4.560   1.031  0.0750 -0.1702 -0.3369
  995MOL0     H31325   3.203   4.720   1.018  3.4117  0.5064 -1.5038
  995MOL0     H31326   4.579   3.778   1.165  1.4813  1.9722 -0.2819
  995MOL0     H31327   4.803   3.831   1.130 -3.4803 -3.1129 -3.2673
  995MOL0     H31328   5.162   3.940   1.167 -1.0291 -1.8657  0.6582
  995MOL0     H31329   5.369   4.039   1.128  0.5399  0.4851 -1.0253
  995MOL0     H31330   5.600   4.111   1.139  1.1857  1.8334 -0.3973
  995MOL0     H31331   5.554   4.047   0.989 -0.0637 -0.2444  1.0938
  995MOL0     H31332   5.840   4.001   1.114  1.1660  1.6242  0.4064
  995MOL0     H31333   5.797   3.976   0.949 -0.6349  0.6627 -0.3875
  995MOL0     H31334   5.779   4.255   1.060 -0.9934  3.7529 -3.3008
  995MOL0     H31335   5.779   4.219   0.897  4.3976  0.7415 -1.7996
  995MOL0     H31336   6.006   4.195   1.095 -1.2075  0.8995  0.0543
  995MOL0     H31337   6.020   4.143   0.915 -2.5691  1.0879 -2.4610
  995MOL0     H31338   6.045   4.548   0.893  2.4709 -1.6081 -0.5031
  995MOL0     H31339   5.572   3.680   1.198  2.8548  4.9723 -1.7315
  995MOL0     H31340   5.357   3.564   1.277  1.5059 -0.0212  1.1172
  996MOL0     O31341   4.808   2.005   7.532  0.2543  0.0181 -0.4061
  996MOL0     C31342   4.863   1.895   7.548 -0.4671 -0.3285  0.6633
  996MOL0     O31343   4.811   1.769   7.525 -0.3976  0.2823 -0.5920
  996MOL0     C31344   4.683   1.732   7.513  0.9221 -0.4032 -0.7722
  996MOL0     C31345   4.580   1.806   7.565 -0.3801  0.0619 -0.2901
  996MOL0     C31346   4.448   1.751   7.567  0.7631  0.5283  0.4050
  996MOL0     C31347   4.424   1.616   7.525 -0.6199  0.1367 -0.2411
  996MOL0     O31348   4.301   1.556   7.539  0.1050 -0.4079 -0.2553
  996MOL0     C31349   4.241   1.579   7.670  0.6566 -0.8013  0.6386
  996MOL0     C31350   4.105   1.512   7.655 -0.1620 -1.1034  0.1999
  996MOL0     C31351   4.069   1.465   7.788  0.0633  0.5209 -0.0715
  996MOL0     C31352   3.919   1.429   7.806 -0.4954 -0.5905 -0.3292
  996MOL0     C31353   3.871   1.408   7.955 -0.5304  0.5968 -0.3727
  996MOL0     C31354   3.756   1.323   7.964  0.4809  0.6102  0.2705
  996MOL0     C31355   3.625   1.391   7.904 -0.4145  0.4511  0.0369
  996MOL0     C31356   3.491   1.335   7.959  0.4727 -0.3701  0.0716
  996MOL0     N31357   3.377   1.409   7.910  0.3073  0.1135  0.1073
  996MOL0     C31358   3.292   1.501   7.970  0.2888 -0.5723  0.3370
  996MOL0     C31359   3.186   1.516   7.890  0.6600 -0.4881  0.4778
  996MOL0     C31360   3.066   1.602   7.920 -1.0493 -0.2827  0.3261
  996MOL0     C31361   2.960   1.514   7.979 -0.5947  0.2762 -0.0940
  996MOL0     C31362   2.914   1.579   8.116 -0.6121  0.2798  0.6668
  996MOL0     C31363   2.998   1.551   8.241  0.6020  0.2592  0.5227
  996MOL0     O31364   3.113   1.634   8.235  0.0824  1.1676 -0.5966
  996MOL0     C31365   3.112   1.760   8.283  0.9973 -0.2485 -0.0393
  996MOL0     C31366   3.237   1.823   8.301  0.1241 -0.7958  0.1369
  996MOL0     C31367   3.240   1.955   8.352  0.3052  0.9148  0.2386
  996MOL0     C31368   3.120   2.030   8.375 -0.1670  0.8692  0.8925
  996MOL0     C31369   3.106   2.165   8.437  0.3049 -0.3105 -0.6863
  996MOL0     O31370   3.211   2.245   8.449  0.4452  0.4118  0.1719
  996MOL0     C31371   3.195   2.375   8.493  0.6257  0.1027  0.3595
  996MOL0     C31372   3.275   2.410   8.600 -0.6067  0.2930 -0.2721
  996MOL0     C31373   3.280   2.542   8.642 -0.0754 -0.2449  1.1432
  996MOL0     C31374   3.197   2.641   8.591 -0.5319 -0.0667  0.0635
  996MOL0     O31375   3.177   2.763   8.650 -0.3300  0.1011  0.4871
  996MOL0     C31376   3.089   2.763   8.759 -0.4551 -0.3269  0.1262
  996MOL0     C31377   3.036   2.902   8.782  1.0729 -0.0142 -0.1134
  996MOL0     C31378   3.137   2.993   8.845 -0.2887  0.0381 -0.4099
  996MOL0     C31379   3.074   3.130   8.879  0.4835  0.1754 -0.4485
  996MOL0     C31380   3.187   3.217   8.945 -0.1802  0.3938 -0.1883
  996MOL0     C31381   3.302   3.263   8.853  0.0478 -0.1993  0.1640
  996MOL0     C31382   3.398   3.359   8.934  0.7757  0.0504  0.3310
  996MOL0     C31383   3.516   3.400   8.847  0.3896 -0.4603  0.3630
  996MOL0    Cl31384   3.608   3.534   8.935 -0.0339 -0.4526  0.0687
  996MOL0     C31385   3.111   2.599   8.489  0.0085 -0.4276 -0.5232
  996MOL0     C31386   3.103   2.469   8.442 -1.0480 -0.3367 -0.7361
  996MOL0     O31387   2.994   2.207   8.476  0.2848  0.5011 -0.5648
  996MOL0     C31388   3.000   1.961   8.362  0.7550  0.6623 -0.0941
  996MOL0     C31389   2.998   1.832   8.316 -0.6111  0.9437 -0.7045
  996MOL0     N31390   3.205   1.440   7.775 -0.0962 -0.3439 -0.4930
  996MOL0     N31391   3.326   1.388   7.786 -0.2103 -0.1979  0.1078
  996MOL0     C31392   4.532   1.550   7.481  0.5338  1.3640 -0.4511
  996MOL0     C31393   4.665   1.601   7.473  0.2323 -0.1376 -0.0675
  996MOL0     C31394   5.007   1.903   7.587 -0.4891 -0.0372 -1.0446
  996MOL0     C31395   5.080   1.812   7.665 -0.5387  0.6518 -0.4310
  996MOL0     C31396   5.218   1.830   7.697  0.2378  0.5420  0.2607
  996MOL0     C31397   5.292   1.935   7.647  0.9257  0.2522 -1.0577
  996MOL0     O31398   5.422   1.948   7.677 -0.3878  0.0995 -0.3398
  996MOL0     C31399   5.502   2.052   7.608 -0.1162 -0.1592 -0.1374
  996MOL0     C31400   5.652   2.035   7.644  0.0959  0.8570 -0.7552
  996MOL0     C31401   5.707   1.896   7.600  0.2990  0.9849  0.0112
  996MOL0     C31402   5.859   1.893   7.634  0.5425 -0.4462 -0.3857
  996MOL0     C31403   5.935   1.964   7.527  0.0184 -0.5862 -0.7589
  996MOL0     C31404   5.990   2.039   7.440  0.0778 -0.4462 -1.1870
  996MOL0     C31405   5.223   2.014   7.553 -0.2614 -0.3082 -0.1364
  996MOL0     C31406   5.087   2.001   7.535  0.5132 -0.4333  0.4255
  996MOL0     H31407   4.607   1.903   7.605  1.4337  0.5534 -2.5076
  996MOL0     H31408   4.363   1.811   7.599 -1.8633 -1.6608 -1.9152
  996MOL0     H31409   4.219   1.682   7.698  0.3659 -0.5524 -0.4434
  996MOL0     H31410   4.289   1.525   7.752 -0.3335  0.5726  2.1820
  996MOL0     H31411   4.103   1.417   7.600 -1.6113 -2.5945  2.6544
  996MOL0     H31412   4.032   1.579   7.607 -0.0509 -1.3896 -0.3763
  996MOL0     H31413   4.077   1.547   7.860  0.2293  0.3406  0.1137
  996MOL0     H31414   4.126   1.380   7.826  2.4247  2.4342  0.9052
  996MOL0     H31415   3.861   1.513   7.766  2.3920  2.3926  1.2319
  996MOL0     H31416   3.890   1.340   7.749 -0.8027  0.5380 -2.0334
  996MOL0     H31417   3.836   1.503   7.996 -0.4819 -0.2956  1.8686
  996MOL0     H31418   3.946   1.358   8.018  0.5813  0.9964 -1.3584
  996MOL0     H31419   3.749   1.298   8.071 -0.6250  5.3066  1.5381
  996MOL0     H31420   3.767   1.227   7.913  0.6242  1.9982 -2.4864
  996MOL0     H31421   3.630   1.495   7.936 -0.4305  0.2150  0.8088
  996MOL0     H31422   3.626   1.369   7.796 -2.3165 -2.9723  0.5587
  996MOL0     H31423   3.489   1.324   8.068 -0.8780 -1.0509 -0.0039
  996MOL0     H31424   3.488   1.232   7.921  0.4559 -0.0462 -0.8355
  996MOL0     H31425   3.309   1.547   8.067  1.3525  1.4477 -0.7372
  996MOL0     H31426   3.028   1.643   7.826 -1.9869 -0.1768  0.7450
  996MOL0     H31427   3.088   1.688   7.984 -3.9823  0.2713  0.7527
  996MOL0     H31428   2.983   1.408   7.987 -4.3439 -0.6643  0.0051
  996MOL0     H31429   2.876   1.515   7.910 -0.8066 -1.6780  0.0757
  996MOL0     H31430   2.903   1.687   8.105  1.7708  0.3540 -2.0827
  996MOL0     H31431   2.813   1.541   8.138 -0.1365 -1.3570  0.1607
  996MOL0     H31432   3.034   1.449   8.233 -1.4272 -0.5652  1.3050
  996MOL0     H31433   2.943   1.565   8.335  0.3292  3.2762  0.0402
  996MOL0     H31434   3.325   1.776   8.259 -0.4513 -0.7819 -1.1310
  996MOL0     H31435   3.336   1.994   8.383  2.2546 -2.8219 -0.4193
  996MOL0     H31436   3.325   2.326   8.646 -0.4167 -0.6230 -2.0576
  996MOL0     H31437   3.347   2.582   8.717 -0.7454 -0.3192  1.7898
  996MOL0     H31438   3.151   2.736   8.845  2.1515 -1.2843 -1.9067
  996MOL0     H31439   3.010   2.688   8.749  0.6858 -1.4450 -0.8688
  996MOL0     H31440   2.942   2.893   8.837  0.2141  2.9677 -0.9370
  996MOL0     H31441   3.019   2.949   8.685  1.9290  3.0377  1.0938
  996MOL0     H31442   3.227   3.010   8.785 -0.1465 -0.3192 -0.2965
  996MOL0     H31443   3.157   2.948   8.942 -0.2909 -1.8722 -1.2420
  996MOL0     H31444   3.023   3.179   8.796 -0.6664  3.9128  2.1766
  996MOL0     H31445   3.006   3.100   8.959  3.1679 -0.2991  1.8160
  996MOL0     H31446   3.240   3.153   9.016 -1.4563 -1.8182 -1.1150
  996MOL0     H31447   3.137   3.294   9.004 -1.9805 -1.2160  0.4966
  996MOL0     H31448   3.254   3.315   8.770 -0.7112 -1.1753 -0.0215
  996MOL0     H31449   3.356   3.176   8.813  3.8374  2.4807 -1.2028
  996MOL0     H31450   3.352   3.458   8.939  1.2875  0.3123  0.0448
  996MOL0     H31451   3.421   3.329   9.037  1.2670 -1.7488 -0.2764
  996MOL0     H31452   3.478   3.433   8.750 -0.4779  0.8032  1.1027
  996MOL0     H31453   3.580   3.315   8.824  1.2659  0.9451 -2.9741
  996MOL0     H31454   3.042   2.660   8.431 -0.9597 -2.7670 -2.0259
  996MOL0     H31455   3.038   2.442   8.359 -0.5771  0.5346 -1.4072
  996MOL0     H31456   2.907   1.993   8.408 -0.5363 -4.0449  1.0975
  996MOL0     H31457   2.903   1.783   8.301  0.7001 -1.9821 -0.1913
  996MOL0     H31458   4.516   1.446   7.452  2.0738 -0.1763  3.4677
  996MOL0     H31459   4.752   1.545   7.440 -0.8151 -3.5821  2.4126
  996MOL0     H31460   5.038   1.723   7.711  1.6205  0.4258  1.2282
  996MOL0     H31461   5.266   1.764   7.768  0.1436 -0.1347 -0.2871
  996MOL0     H31462   5.464   2.150   7.639 -0.2477 -1.4721  4.8441
  996MOL0     H31463   5.493   2.039   7.500 -0.2242  0.5605 -0.2237
  996MOL0     H31464   5.712   2.111   7.592  2.2014 -0.4856 -0.4074
  996MOL0     H31465   5.653   2.054   7.751 -0.9097  0.1408 -0.6002
  996MOL0     H31466   5.698   1.886   7.492  0.6804  3.1160 -0.2596
  996MOL0     H31467   5.659   1.817   7.659  0.8114  2.5916  2.7804
  996MOL0     H31468   5.887   1.935   7.731  0.6242 -1.5209  0.0719
  996MOL0     H31469   5.896   1.790   7.636  1.7497 -0.1135  3.5279
  996MOL0     H31470   6.028   2.106   7.366 -0.4645  1.1598 -0.0626
  996MOL0     H31471   5.264   2.079   7.476  0.9881 -1.7196 -0.7279
  996MOL0     H31472   5.039   2.073   7.468  2.2568 -2.0898 -2.8114
  997MOL0     O31473   5.991   2.409   4.521 -0.7197 -0.4236 -0.7109
  997MOL0     C31474   6.059   2.510   4.529  0.4910  0.9007  0.2115
  997MOL0     O31475   6.011   2.639   4.551  0.4008  0.1121 -0.0658
  997MOL0     C31476   5.873   2.661   4.579 -0.4320 -0.8373  1.2000
  997MOL0     C31477   5.816   2.780   4.534  0.1921 -0.0751  0.3549
  997MOL0     C31478   5.681   2.805   4.550  0.7136  0.7461 -0.4885
  997MOL0     C31479   5.592   2.702   4.594 -0.6111 -0.0038 -0.1109
  997MOL0     O31480   5.454   2.710   4.623 -0.0686 -0.5695  0.0136
  997MOL0     C31481   5.383   2.804   4.544  0.4753 -0.0025  0.9128
  997MOL0     C31482   5.229   2.779   4.553  0.2915  0.5815 -0.0312
  997MOL0     C31483   5.160   2.823   4.678 -0.2304  0.4093 -0.1744
  997MOL0     C31484   5.123   2.967   4.680  0.2549 -0.4216 -0.2160
  997MOL0     C31485   5.075   2.985   4.824  0.1790 -0.6076  0.2995
  997MOL0     C31486   5.017   3.122   4.851 -0.0988 -0.1421 -0.3013
  997MOL0     C31487   4.921   3.195   4.749  0.1333 -0.0054 -0.0443
  997MOL0     C31488   4.797   3.109   4.713 -0.3744 -0.0489  0.4772
  997MOL0     N31489   4.704   3.099   4.833 -0.1534 -0.7090  0.9493
  997MOL0     C31490   4.589   3.175   4.847 -0.0390 -0.3076  0.3894
  997MOL0     C31491   4.537   3.138   4.964 -0.1224 -1.0229 -0.7474
  997MOL0     C31492   4.404   3.193   5.009 -0.4343  0.0822  0.3546
  997MOL0     C31493   4.283   3.124   4.953  0.7092  0.7991 -0.3181
  997MOL0     C31494   4.210   3.206   4.833 -0.1621 -0.4369  0.0903
  997MOL0     C31495   4.099   3.127   4.775 -0.0299 -0.5936  0.3350
  997MOL0     O31496   4.016   3.094   4.883 -0.3952  0.6883 -0.4993
  997MOL0     C31497   3.895   3.041   4.870  0.0212 -0.1772  0.7218
  997MOL0     C31498   3.834   3.010   4.744 -0.2823 -0.2777  0.7889
  997MOL0     C31499   3.694   2.963   4.753 -0.2595  0.5367 -0.2125
  997MOL0     C31500   3.628   2.947   4.876 -0.0754  0.0368  0.7059
  997MOL0     C31501   3.495   2.892   4.873  0.3990  0.3436 -0.1150
  997MOL0     O31502   3.429   2.883   4.994  0.2373 -0.4600  0.0670
  997MOL0     C31503   3.319   2.800   5.011 -0.0093  0.2615 -0.4560
  997MOL0     C31504   3.304   2.674   4.962  0.4155  0.3005 -0.2452
  997MOL0     C31505   3.191   2.598   4.990  0.4866  0.3783 -0.0147
  997MOL0     C31506   3.088   2.657   5.067  0.1007 -0.0838 -0.0059
  997MOL0     O31507   2.952   2.614   5.082 -1.0106 -0.5429  0.0591
  997MOL0     C31508   2.937   2.473   5.083  0.0792 -0.0769  0.0492
  997MOL0     C31509   2.902   2.418   4.943  0.2036 -0.0186  0.0043
  997MOL0     C31510   2.756   2.408   4.902  0.1950 -0.3249  0.1909
  997MOL0     C31511   2.740   2.335   4.767  1.0544  0.0244 -0.5804
  997MOL0     C31512   2.621   2.379   4.684  0.4316 -0.5798 -0.0215
  997MOL0     C31513   2.648   2.529   4.632  1.1210 -0.7636  0.3234
  997MOL0     C31514   2.555   2.556   4.508  0.0563 -0.0670  0.4720
  997MOL0     C31515   2.578   2.698   4.452  0.2559 -0.1079  1.2686
  997MOL0    Cl31516   2.717   2.791   4.498  0.4408 -0.4745  0.7536
  997MOL0     C31517   3.107   2.784   5.112  0.0087  0.3097 -0.5302
  997MOL0     C31518   3.221   2.858   5.095  0.2965  0.4387  1.3632
  997MOL0     O31519   3.458   2.839   4.767 -0.3563  0.2491  1.0854
  997MOL0     C31520   3.691   2.979   4.988  0.2483 -0.4646  0.6502
  997MOL0     C31521   3.823   3.026   4.990  0.1035 -0.4151  0.7814
  997MOL0     N31522   4.624   3.045   5.028 -0.3035  0.2339  0.0667
  997MOL0     N31523   4.721   3.023   4.948 -0.4393 -0.9377  1.0605
  997MOL0     C31524   5.651   2.594   4.652 -0.0040  0.0167  0.0554
  997MOL0     C31525   5.786   2.574   4.652 -0.5324 -0.0056  0.2391
  997MOL0     C31526   6.203   2.496   4.511  0.1730  0.7621 -0.1076
  997MOL0     C31527   6.296   2.589   4.555 -0.3987 -0.0917  0.0153
  997MOL0     C31528   6.439   2.590   4.519  0.6113  0.1808  0.4868
  997MOL0     C31529   6.487   2.483   4.440  0.8067 -0.5200 -0.5760
  997MOL0     O31530   6.620   2.473   4.415  0.0229  0.0200  0.2718
  997MOL0     C31531   6.670   2.355   4.349 -0.4541 -0.1968  1.2577
  997MOL0     C31532   6.817   2.390   4.308 -0.0611  0.7728  0.6673
  997MOL0     C31533   6.813   2.462   4.170  0.6832  0.1742 -1.4770
  997MOL0     C31534   6.953   2.460   4.123 -0.0069 -0.4433  0.0620
  997MOL0     C31535   6.959   2.538   3.996 -0.1033 -0.7787  0.0804
  997MOL0     C31536   6.967   2.588   3.885 -0.1561  1.2809 -0.0585
  997MOL0     C31537   6.390   2.391   4.394  0.9301 -0.0649 -0.7713
  997MOL0     C31538   6.257   2.395   4.433 -0.6567 -0.4092  0.1729
  997MOL0     H31539   5.869   2.864   4.491  2.6157 -1.8396 -0.3601
  997MOL0     H31540   5.629   2.894   4.517 -3.5027 -1.1603  0.2907
  997MOL0     H31541   5.396   2.792   4.436 -3.8384 -3.0647  0.4635
  997MOL0     H31542   5.412   2.903   4.580  0.1043  0.1183  0.8868
  997MOL0     H31543   5.217   2.671   4.552 -2.1952  0.7944 -1.7751
  997MOL0     H31544   5.174   2.819   4.468  0.0632 -1.4212 -0.8714
  997MOL0     H31545   5.220   2.798   4.766 -1.4342 -3.6527 -0.3078
  997MOL0     H31546   5.064   2.771   4.687 -0.7867  1.4458  0.0124
  997MOL0     H31547   5.204   3.036   4.656 -0.7887  1.1232  0.5432
  997MOL0     H31548   5.043   2.990   4.609  1.1157  0.3190 -0.9645
  997MOL0     H31549   5.159   2.985   4.893  1.0638  2.7303 -0.5803
  997MOL0     H31550   5.007   2.906   4.857  0.1496 -0.0082  1.7325
  997MOL0     H31551   5.103   3.185   4.872 -1.1125  0.0731  4.3023
  997MOL0     H31552   4.963   3.117   4.946  1.9683 -0.9495  0.8865
  997MOL0     H31553   4.885   3.284   4.801  0.0420 -0.3906  0.5739
  997MOL0     H31554   4.978   3.218   4.659 -0.4239  0.7226 -0.2244
  997MOL0     H31555   4.833   3.007   4.699 -2.8094 -0.7328 -1.5638
  997MOL0     H31556   4.742   3.136   4.622  0.6806  1.1805  0.1673
  997MOL0     H31557   4.528   3.248   4.795 -0.9427 -1.3762 -0.0851
  997MOL0     H31558   4.407   3.299   4.983  0.2896  0.0401  0.2559
  997MOL0     H31559   4.399   3.183   5.118  3.2425  2.0975  0.8647
  997MOL0     H31560   4.210   3.117   5.033 -2.2811 -1.1028 -2.9496
  997MOL0     H31561   4.313   3.029   4.907  0.7178 -0.3949  2.0270
  997MOL0     H31562   4.180   3.306   4.863  0.7766 -0.3158  0.6772
  997MOL0     H31563   4.290   3.225   4.760  0.3256  1.2016  1.0010
  997MOL0     H31564   4.130   3.041   4.716 -0.3195 -1.6745  1.7231
  997MOL0     H31565   4.045   3.196   4.709 -0.0847 -2.6614 -1.9000
  997MOL0     H31566   3.879   3.032   4.647  0.7845 -0.0140  1.3266
  997MOL0     H31567   3.648   2.954   4.656  1.1469  0.6861 -0.9227
  997MOL0     H31568   3.383   2.636   4.898  1.3427 -1.6006  1.8902
  997MOL0     H31569   3.173   2.498   4.952 -2.6418  0.7090  0.3016
  997MOL0     H31570   2.855   2.466   5.155 -0.7949  0.1826 -0.8915
  997MOL0     H31571   3.029   2.430   5.123  0.9650  1.4762 -0.2290
  997MOL0     H31572   2.935   2.314   4.942 -1.9957 -0.7890  0.3141
  997MOL0     H31573   2.958   2.484   4.877 -1.4347  4.3739  2.5559
  997MOL0     H31574   2.705   2.504   4.888  0.2141 -0.4343 -0.6570
  997MOL0     H31575   2.697   2.360   4.981 -0.9968  1.0702  0.1957
  997MOL0     H31576   2.834   2.338   4.711  1.3263 -1.9309 -0.3275
  997MOL0     H31577   2.718   2.230   4.789 -4.5509  0.4982 -2.3345
  997MOL0     H31578   2.533   2.372   4.750  0.8439 -0.5178  0.5435
  997MOL0     H31579   2.612   2.306   4.603  1.8576  2.2093 -2.9051
  997MOL0     H31580   2.752   2.538   4.599  0.7914 -1.5043 -0.9784
  997MOL0     H31581   2.632   2.596   4.717 -0.8129 -0.5723 -0.1338
  997MOL0     H31582   2.586   2.481   4.434  1.7881  2.2015 -1.2413
  997MOL0     H31583   2.451   2.526   4.526 -0.0396  0.0045  0.0637
  997MOL0     H31584   2.492   2.762   4.476  0.4062  0.5794  0.0232
  997MOL0     H31585   2.571   2.693   4.343 -2.5284  1.8323  1.2401
  997MOL0     H31586   3.020   2.833   5.156 -0.6693  1.0312 -2.5305
  997MOL0     H31587   3.228   2.961   5.127  1.5684  0.5081  0.9145
  997MOL0     H31588   3.643   2.962   5.084  1.8297 -1.5604  1.2976
  997MOL0     H31589   3.870   3.047   5.085 -1.2521  1.1101  1.1598
  997MOL0     H31590   5.580   2.527   4.700  1.1187 -1.2583  0.0022
  997MOL0     H31591   5.835   2.482   4.681 -3.6872 -2.9467 -2.8059
  997MOL0     H31592   6.262   2.675   4.612 -0.9682  0.4110 -1.0631
  997MOL0     H31593   6.502   2.671   4.554  3.3043 -1.6341  0.0733
  997MOL0     H31594   6.614   2.324   4.261  1.7502  2.0837 -1.1282
  997MOL0     H31595   6.667   2.275   4.424 -0.5327 -1.6815 -0.2868
  997MOL0     H31596   6.860   2.459   4.381 -1.2659  1.7466  0.4929
  997MOL0     H31597   6.867   2.293   4.312  1.4433  1.5049  0.5506
  997MOL0     H31598   6.771   2.562   4.188  1.2602  0.5380 -2.0862
  997MOL0     H31599   6.749   2.409   4.099 -1.6368  1.1545 -0.2306
  997MOL0     H31600   7.033   2.492   4.190  0.3879 -1.1827 -0.0519
  997MOL0     H31601   6.985   2.360   4.092  1.2900  0.4010 -1.4682
  997MOL0     H31602   6.978   2.622   3.784  0.7496 -3.3727 -1.7756
  997MOL0     H31603   6.406   2.296   4.343 -1.4149 -0.5656 -0.7078
  997MOL0     H31604   6.194   2.316   4.392  0.8509 -0.8359 -1.4111
  998MOL0     O31605   2.053   7.634   6.194 -0.3337 -0.6281 -0.7278
  998MOL0     C31606   2.049   7.529   6.141 -0.3000 -0.1102  0.9614
  998MOL0     O31607   2.156   7.463   6.080  0.3397  0.2615  0.6922
  998MOL0     C31608   2.286   7.514   6.096  0.2352  0.1222  0.0902
  998MOL0     C31609   2.369   7.511   5.983  0.4835  0.0529 -0.1292
  998MOL0     C31610   2.505   7.538   5.987 -0.6377  0.0107  0.8201
  998MOL0     C31611   2.562   7.578   6.106  0.0826  0.3576 -0.2164
  998MOL0     O31612   2.695   7.606   6.106 -0.3484  0.0429  0.9679
  998MOL0     C31613   2.740   7.706   6.197 -0.0234  0.4985 -0.3865
  998MOL0     C31614   2.817   7.810   6.112  0.7947  0.1138  0.3607
  998MOL0     C31615   2.884   7.902   6.208 -0.3285 -0.2862  0.6591
  998MOL0     C31616   2.971   7.993   6.130 -0.1528 -1.4172 -0.1488
  998MOL0     C31617   3.037   8.108   6.220  0.6830 -0.9674  0.2814
  998MOL0     C31618   3.103   8.203   6.131 -0.0072  0.2620  0.0764
  998MOL0     C31619   3.185   8.306   6.220  1.1970  0.3723 -0.7884
  998MOL0     C31620   3.102   8.436   6.230 -0.2741 -0.5727 -0.3859
  998MOL0     N31621   3.146   8.548   6.152 -0.0415  0.3730  0.3379
  998MOL0     C31622   3.065   8.643   6.085 -0.8625  0.8926  0.3746
  998MOL0     C31623   3.149   8.729   6.044  0.2070  0.3475 -0.0333
  998MOL0     C31624   3.108   8.846   5.960  0.0391 -0.4224 -0.2105
  998MOL0     C31625   3.113   8.819   5.805  0.4381  0.4867 -0.2537
  998MOL0     C31626   3.027   8.935   5.730 -0.8370 -0.3835 -1.1426
  998MOL0     C31627   3.025   8.918   5.581 -0.2095 -0.2770 -0.3745
  998MOL0     O31628   2.953   8.797   5.550 -0.0405 -0.3049 -0.4209
  998MOL0     C31629   2.817   8.794   5.529  0.7986  0.7290  0.3774
  998MOL0     C31630   2.735   8.905   5.527  1.2814  0.1104  0.6214
  998MOL0     C31631   2.596   8.895   5.500 -0.4387 -0.4610  0.3252
  998MOL0     C31632   2.540   8.772   5.466 -0.4375 -0.1756  0.3642
  998MOL0     C31633   2.403   8.770   5.422  0.6845 -0.1242 -0.7155
  998MOL0     O31634   2.363   8.883   5.346  0.5849  0.6558 -0.0532
  998MOL0     C31635   2.235   8.878   5.305  0.2777  0.4864 -0.6454
  998MOL0     C31636   2.141   8.966   5.363  0.8358  0.4692  0.0969
  998MOL0     C31637   2.005   8.963   5.310  0.2813 -0.6686 -0.3044
  998MOL0     C31638   1.966   8.877   5.206 -0.7052 -0.5007 -0.3168
  998MOL0     O31639   1.834   8.875   5.160 -0.1785  0.4580 -0.3420
  998MOL0     C31640   1.747   8.975   5.213 -0.3053  0.7202 -0.0945
  998MOL0     C31641   1.598   8.942   5.174 -0.5397  0.4255  0.2976
  998MOL0     C31642   1.569   9.012   5.041  0.1525 -0.1931 -0.7812
  998MOL0     C31643   1.434   8.982   4.990  0.3520 -0.1820  0.2786
  998MOL0     C31644   1.436   9.012   4.839  0.7231 -0.2154 -0.1480
  998MOL0     C31645   1.493   9.139   4.789  0.3639 -0.5217  0.4341
  998MOL0     C31646   1.460   9.160   4.643 -0.1976  0.7399  0.1094
  998MOL0     C31647   1.499   9.303   4.607  0.2498 -0.3988  0.3864
  998MOL0    Cl31648   1.678   9.347   4.607 -0.0203  0.0043 -0.0898
  998MOL0     C31649   2.065   8.801   5.153 -0.0460 -0.2941 -0.2618
  998MOL0     C31650   2.199   8.798   5.196  0.0796  0.6597  0.2646
  998MOL0     O31651   2.332   8.671   5.438  0.1769  0.2543  0.2507
  998MOL0     C31652   2.619   8.659   5.482 -0.6664 -1.0270 -0.5056
  998MOL0     C31653   2.758   8.666   5.511 -0.4988 -0.8707  0.1440
  998MOL0     N31654   3.275   8.706   6.084 -0.7060  0.6023  0.1297
  998MOL0     N31655   3.271   8.597   6.158 -0.4242 -0.2759 -0.3872
  998MOL0     C31656   2.476   7.591   6.222 -0.3618  0.0830 -0.5702
  998MOL0     C31657   2.341   7.556   6.215 -0.0462  0.8803  0.1190
  998MOL0     C31658   1.914   7.468   6.155 -0.1912 -0.6153  0.9070
  998MOL0     C31659   1.890   7.352   6.082 -0.0438 -0.2092 -0.7232
  998MOL0     C31660   1.768   7.289   6.089  0.6038  0.6754  1.3200
  998MOL0     C31661   1.658   7.337   6.163  0.7580  0.7385  0.3684
  998MOL0     O31662   1.542   7.266   6.173 -0.2359  0.1471  0.0158
  998MOL0     C31663   1.426   7.351   6.148 -0.6779 -0.0922 -0.7743
  998MOL0     C31664   1.299   7.273   6.168 -0.1258 -0.4665 -0.3089
  998MOL0     C31665   1.279   7.233   6.313 -0.1469 -0.6372  0.5463
  998MOL0     C31666   1.144   7.164   6.321  1.3443  0.1915 -0.0078
  998MOL0     C31667   1.034   7.252   6.309  0.7661  0.7493  1.2116
  998MOL0     C31668   0.930   7.315   6.308 -0.4679  0.2648 -0.8892
  998MOL0     C31669   1.686   7.449   6.243  0.2784 -0.2394 -0.2179
  998MOL0     C31670   1.811   7.516   6.235  0.2928 -0.1147  0.3220
  998MOL0     H31671   2.329   7.468   5.891 -1.2837 -1.6432  1.3272
  998MOL0     H31672   2.576   7.527   5.906  0.0873 -0.0542  1.4557
  998MOL0     H31673   2.801   7.651   6.268 -1.2778 -2.4167 -1.3944
  998MOL0     H31674   2.658   7.762   6.245 -0.0688  1.9355 -2.0380
  998MOL0     H31675   2.745   7.863   6.050 -0.9472  0.7374  2.7626
  998MOL0     H31676   2.879   7.750   6.044 -2.2179 -3.4307  0.4410
  998MOL0     H31677   2.950   7.842   6.272 -0.4452  2.2229  3.3400
  998MOL0     H31678   2.814   7.958   6.271  0.3587  2.3603 -0.7781
  998MOL0     H31679   3.056   7.940   6.085  0.4668  0.9418 -1.9753
  998MOL0     H31680   2.908   8.026   6.047  0.1472  0.7784  0.4271
  998MOL0     H31681   3.109   8.058   6.285  0.2872 -0.3990  1.1942
  998MOL0     H31682   2.967   8.156   6.290  0.0552  1.2084 -1.7057
  998MOL0     H31683   3.034   8.259   6.067  1.7398  0.2531 -1.9052
  998MOL0     H31684   3.165   8.145   6.063 -2.4951  0.3526 -2.4390
  998MOL0     H31685   3.209   8.271   6.320 -1.2358  1.9164  0.4589
  998MOL0     H31686   3.278   8.328   6.168  0.9595 -1.6362 -2.1655
  998MOL0     H31687   3.113   8.482   6.328  3.8759  1.4067 -1.5508
  998MOL0     H31688   2.995   8.424   6.212  0.0590 -0.8419 -2.5271
  998MOL0     H31689   2.961   8.631   6.056  0.1076 -1.2961 -2.7570
  998MOL0     H31690   3.178   8.928   5.979 -2.0697  1.0135  1.9151
  998MOL0     H31691   3.010   8.876   5.999  0.0473  0.7678 -1.0451
  998MOL0     H31692   3.067   8.721   5.792  1.0286  0.0730  0.6195
  998MOL0     H31693   3.218   8.814   5.774  0.7686 -1.6210  1.0329
  998MOL0     H31694   2.926   8.923   5.769 -1.4339 -2.0547 -3.0026
  998MOL0     H31695   3.070   9.032   5.755 -1.1268 -0.5466  0.0251
  998MOL0     H31696   3.129   8.896   5.553 -0.3451  0.1874 -1.2699
  998MOL0     H31697   2.992   9.001   5.518  1.0086 -0.9809 -2.0109
  998MOL0     H31698   2.774   9.003   5.554  0.3474  1.0149 -1.1248
  998MOL0     H31699   2.534   8.984   5.502  0.4510  0.2290 -1.0493
  998MOL0     H31700   2.162   9.041   5.438  1.0849 -1.3302  1.9333
  998MOL0     H31701   1.945   9.042   5.354  2.1152 -0.0062  1.1209
  998MOL0     H31702   1.788   9.072   5.186 -2.5293  1.6573 -0.3427
  998MOL0     H31703   1.754   8.961   5.321  0.5391 -0.2821 -0.2631
  998MOL0     H31704   1.535   8.961   5.262 -1.0412 -0.3124  0.1087
  998MOL0     H31705   1.584   8.834   5.160  1.3316  0.1057  0.5918
  998MOL0     H31706   1.637   8.974   4.964  1.2239 -0.6946  0.3833
  998MOL0     H31707   1.599   9.117   5.051  0.3471 -0.4115  1.4755
  998MOL0     H31708   1.414   8.876   5.010  1.8064 -1.1673 -2.8782
  998MOL0     H31709   1.358   9.049   5.030 -0.8813 -0.5741 -1.3407
  998MOL0     H31710   1.333   9.010   4.802  0.5624  0.9914  0.1769
  998MOL0     H31711   1.490   8.929   4.794  0.3643 -1.9013  2.3300
  998MOL0     H31712   1.599   9.145   4.814  0.4936 -2.0458  0.3327
  998MOL0     H31713   1.443   9.223   4.839 -0.8849 -0.8145 -0.2712
  998MOL0     H31714   1.517   9.082   4.592 -0.5217 -0.6422  1.7519
  998MOL0     H31715   1.356   9.141   4.614 -0.3310 -0.1807  1.1287
  998MOL0     H31716   1.441   9.375   4.666 -0.1907 -0.2007 -0.2796
  998MOL0     H31717   1.464   9.324   4.506 -0.7893 -0.1160  0.7878
  998MOL0     H31718   2.036   8.723   5.083  3.5488 -2.2239  0.1285
  998MOL0     H31719   2.262   8.731   5.140  2.6533  0.7906  2.7849
  998MOL0     H31720   2.575   8.565   5.451 -1.0022 -0.7021 -1.0152
  998MOL0     H31721   2.822   8.579   5.506 -1.2373 -1.5109  1.4905
  998MOL0     H31722   2.514   7.631   6.316 -1.5627 -1.2943  0.5447
  998MOL0     H31723   2.271   7.563   6.297 -0.8141 -0.2389 -0.4188
  998MOL0     H31724   1.964   7.325   6.008 -0.8129  2.6225 -2.6744
  998MOL0     H31725   1.743   7.200   6.034 -1.2588 -0.1479  3.3491
  998MOL0     H31726   1.442   7.392   6.048 -0.4663  3.4638  0.5800
  998MOL0     H31727   1.434   7.442   6.208  0.3563 -1.3426  1.0962
  998MOL0     H31728   1.221   7.344   6.141  0.9083  0.4916 -0.8256
  998MOL0     H31729   1.303   7.184   6.104  2.6120 -0.7550  0.1447
  998MOL0     H31730   1.280   7.312   6.388 -0.0071  0.2042 -0.3247
  998MOL0     H31731   1.356   7.157   6.330  0.4506 -0.0140  0.6515
  998MOL0     H31732   1.131   7.087   6.244  0.2600 -2.3105  2.4580
  998MOL0     H31733   1.129   7.110   6.415  1.2628  1.3787  0.6718
  998MOL0     H31734   0.849   7.381   6.282  1.2375  1.5882 -3.2535
  998MOL0     H31735   1.609   7.480   6.314  1.9090  0.6372  1.2607
  998MOL0     H31736   1.812   7.608   6.293 -2.3253  1.0805 -1.3331
  999MOL0     O31737   7.317   4.162   9.810  0.4906  1.1957  0.0671
  999MOL0     C31738   7.438   4.138   9.784 -0.0868  0.7166 -0.6449
  999MOL0     O31739   7.490   4.109   9.655  0.1870  0.0862 -0.0313
  999MOL0     C31740   7.399   4.119   9.558  0.2053 -0.4766  0.5075
  999MOL0     C31741   7.424   4.196   9.449 -0.6002 -0.2237  0.8042
  999MOL0     C31742   7.334   4.200   9.339 -0.3276  0.0912  0.0063
  999MOL0     C31743   7.221   4.115   9.343 -0.1574 -0.0789  0.1573
  999MOL0     O31744   7.130   4.114   9.237  0.2685 -0.2748  0.6537
  999MOL0     C31745   7.166   4.145   9.105 -0.1568 -0.3993 -0.3640
  999MOL0     C31746   7.088   4.265   9.052 -0.6432  0.3519 -0.1632
  999MOL0     C31747   6.936   4.249   9.068  0.3687 -0.1204 -0.3847
  999MOL0     C31748   6.869   4.371   9.006  0.3187  0.1434  0.7215
  999MOL0     C31749   6.934   4.506   9.035  0.7791 -0.5523 -0.0674
  999MOL0     C31750   6.840   4.628   9.016 -0.2005 -0.7355  0.1505
  999MOL0     C31751   6.806   4.645   8.870 -0.1548  0.3508 -0.3113
  999MOL0     C31752   6.689   4.738   8.832  0.9310 -0.2958  0.2311
  999MOL0     N31753   6.551   4.701   8.887  0.5660  0.3079  0.1531
  999MOL0     C31754   6.518   4.575   8.921 -0.0878  0.8313  0.0587
  999MOL0     C31755   6.408   4.583   9.000 -0.2323 -0.2115  1.0638
  999MOL0     C31756   6.340   4.461   9.065 -0.2925 -0.3671  0.3276
  999MOL0     C31757   6.231   4.407   8.969  0.6149 -0.0017  0.2163
  999MOL0     C31758   6.104   4.494   8.986 -0.7834 -0.2845  0.1904
  999MOL0     C31759   5.986   4.412   8.927 -0.1961  0.4144 -0.5767
  999MOL0     O31760   5.957   4.300   9.009  0.0830 -0.1749 -0.0225
  999MOL0     C31761   5.853   4.310   9.097 -0.4276 -0.6430 -0.6235
  999MOL0     C31762   5.777   4.430   9.129  0.2521 -0.2397 -0.0758
  999MOL0     C31763   5.672   4.417   9.227  0.0871  0.3702  0.6332
  999MOL0     C31764   5.650   4.292   9.300 -0.3143 -0.4240  0.4328
  999MOL0     C31765   5.542   4.278   9.399  0.5391 -0.3402 -0.1934
  999MOL0     O31766   5.437   4.361   9.395  0.4344  0.4007  0.2801
  999MOL0     C31767   5.332   4.349   9.487  0.8616 -0.2082 -0.1491
  999MOL0     C31768   5.292   4.233   9.556  0.3402 -0.2324 -1.4725
  999MOL0     C31769   5.183   4.239   9.642 -0.7084  0.3969 -0.0073
  999MOL0     C31770   5.101   4.349   9.663  0.0040  0.7382 -0.4610
  999MOL0     O31771   4.994   4.323   9.748  0.0731 -0.4289  0.4847
  999MOL0     C31772   4.888   4.416   9.770  0.0924  0.6431 -0.0279
  999MOL0     C31773   4.762   4.348   9.825  0.9761  0.3989  0.5767
  999MOL0     C31774   4.772   4.335   9.981  0.0228 -0.5009  0.0524
  999MOL0     C31775   4.649   4.261  10.031 -0.7449 -0.8207  0.5255
  999MOL0     C31776   4.650   4.237  10.184 -0.0469  0.7300  0.2000
  999MOL0     C31777   4.509   4.194  10.233 -0.8907  0.0545 -0.9105
  999MOL0     C31778   4.448   4.074  10.167  0.4264  0.1843  0.3995
  999MOL0     C31779   4.337   4.011  10.253  0.0210 -0.5060  0.2587
  999MOL0    Cl31780   4.177   4.040  10.197  0.0143 -0.5607  0.2740
  999MOL0     C31781   5.149   4.462   9.603  0.0225 -0.0400  0.6730
  999MOL0     C31782   5.261   4.467   9.514 -0.0547 -0.2192  0.1062
  999MOL0     O31783   5.559   4.184   9.482 -0.2322  0.2458  0.5167
  999MOL0     C31784   5.735   4.181   9.259 -0.1863  0.2579  0.0538
  999MOL0     C31785   5.836   4.199   9.169  1.0335  0.6095  0.2470
  999MOL0     N31786   6.379   4.723   9.027 -0.3678 -0.0597  0.2157
  999MOL0     N31787   6.462   4.783   8.945  0.5422 -0.2071  0.0314
  999MOL0     C31788   7.200   4.027   9.441  0.0274  0.6938  0.2313
  999MOL0     C31789   7.286   4.033   9.549 -0.2312  1.3502 -0.1001
  999MOL0     C31790   7.535   4.145   9.899  0.1207  0.1517  0.7745
  999MOL0     C31791   7.676   4.157   9.876  0.0913  0.5355  0.4312
  999MOL0     C31792   7.768   4.176   9.981  0.7979 -0.5786 -0.9144
  999MOL0     C31793   7.722   4.166  10.114  0.0277  0.1338  0.6125
  999MOL0     O31794   7.810   4.179  10.226  0.0805 -0.5943  0.3016
  999MOL0     C31795   7.786   4.299  10.306 -0.9460 -0.0553 -0.4002
  999MOL0     C31796   7.931   4.356  10.342  0.6360 -0.4929 -0.1806
  999MOL0     C31797   8.028   4.253  10.392 -0.3248 -0.3384  0.4532
  999MOL0     C31798   8.156   4.323  10.442  0.0685  0.3656  0.1784
  999MOL0     C31799   8.251   4.345  10.337 -0.1913  1.5037 -0.3739
  999MOL0     C31800   8.331   4.357  10.248 -0.1288  0.2783 -0.6609
  999MOL0     C31801   7.585   4.152  10.132  0.5385  0.6010  0.3046
  999MOL0     C31802   7.496   4.144  10.028  0.5998 -0.5060 -0.0045
  999MOL0     H31803   7.512   4.259   9.443  0.5104 -1.7311  0.5631
  999MOL0     H31804   7.361   4.270   9.261  0.1052 -0.8077 -0.6718
  999MOL0     H31805   7.141   4.061   9.040  0.2803 -0.7885 -0.0300
  999MOL0     H31806   7.275   4.144   9.095  0.2798  0.5763  3.2143
  999MOL0     H31807   7.107   4.270   8.944 -1.4917  0.1399 -0.3241
  999MOL0     H31808   7.140   4.356   9.083  0.0160  0.3682 -1.2310
  999MOL0     H31809   6.920   4.243   9.177 -0.0768  0.0183 -0.4403
  999MOL0     H31810   6.901   4.152   9.032 -1.0199  0.4473 -0.6046
  999MOL0     H31811   6.847   4.369   8.898 -2.1116  0.8488  1.1502
  999MOL0     H31812   6.768   4.384   9.045  0.2045  1.8690 -0.0510
  999MOL0     H31813   7.019   4.516   8.967  1.4259 -2.3857  0.4019
  999MOL0     H31814   6.980   4.499   9.134  0.7743 -1.5051 -0.1268
  999MOL0     H31815   6.877   4.720   9.062 -2.1266 -0.7417  1.8325
  999MOL0     H31816   6.745   4.611   9.066  0.7990  3.6225  4.2163
  999MOL0     H31817   6.892   4.691   8.822  1.5306 -0.9375  1.3319
  999MOL0     H31818   6.789   4.550   8.820  0.8617 -0.4784  0.8704
  999MOL0     H31819   6.681   4.738   8.723  0.1902 -1.0463  0.2813
  999MOL0     H31820   6.713   4.839   8.868  1.4454  0.3927 -1.9247
  999MOL0     H31821   6.565   4.481   8.891 -0.2980  1.8968 -4.2372
  999MOL0     H31822   6.300   4.489   9.163  0.9048 -1.3093  1.1222
  999MOL0     H31823   6.409   4.380   9.092 -1.5154 -0.4145  3.7918
  999MOL0     H31824   6.205   4.314   9.021 -1.2782  1.6482  2.4317
  999MOL0     H31825   6.263   4.386   8.867  2.2410 -1.0960  0.9151
  999MOL0     H31826   6.077   4.515   9.089  0.4274 -1.3430  0.7470
  999MOL0     H31827   6.117   4.589   8.932 -2.9485  0.1330  0.3086
  999MOL0     H31828   6.022   4.370   8.833  0.9630  0.7954 -0.3161
  999MOL0     H31829   5.893   4.461   8.897 -1.2718 -2.8897 -3.3146
  999MOL0     H31830   5.789   4.525   9.077 -1.2189 -1.0338 -1.9863
  999MOL0     H31831   5.616   4.504   9.261 -2.1547 -1.7473  2.8226
  999MOL0     H31832   5.357   4.146   9.548  3.0568  1.3316  1.2804
  999MOL0     H31833   5.150   4.153   9.698 -0.8469  0.1963 -0.3895
  999MOL0     H31834   4.857   4.448   9.670 -2.2682 -0.5923  0.2337
  999MOL0     H31835   4.925   4.501   9.828  1.3559  0.0853  0.0367
  999MOL0     H31836   4.733   4.250   9.784  0.9664  0.1099  1.2556
  999MOL0     H31837   4.676   4.411   9.800  0.6617 -0.6477 -1.1198
  999MOL0     H31838   4.785   4.431  10.033 -2.4958 -1.3482  2.5451
  999MOL0     H31839   4.867   4.285  10.005 -0.9113 -1.1510  2.7589
  999MOL0     H31840   4.563   4.328  10.021  1.0887  1.4302 -1.2794
  999MOL0     H31841   4.632   4.170   9.971  0.6939 -1.1430  0.5772
  999MOL0     H31842   4.687   4.324  10.238  2.0171 -1.5717  2.7768
  999MOL0     H31843   4.719   4.157  10.212 -0.5768  0.9103  2.1835
  999MOL0     H31844   4.439   4.277  10.222 -0.2977  1.1840  2.6293
  999MOL0     H31845   4.516   4.177  10.341  2.5770 -0.6899 -1.1466
  999MOL0     H31846   4.401   4.091  10.070 -1.6396 -1.3811  1.0463
  999MOL0     H31847   4.521   3.997  10.140 -0.4814 -1.5283  2.5179
  999MOL0     H31848   4.342   4.032  10.360  0.4997 -0.3201  0.2059
  999MOL0     H31849   4.364   3.906  10.242  0.9750 -0.1749 -0.7779
  999MOL0     H31850   5.101   4.558   9.619 -1.2600 -0.9951  2.8333
  999MOL0     H31851   5.292   4.560   9.468 -1.0876 -0.8911 -2.0534
  999MOL0     H31852   5.716   4.085   9.306 -1.4209  1.5214  2.2931
  999MOL0     H31853   5.894   4.110   9.146  0.0656 -0.2047  0.9209
  999MOL0     H31854   7.123   3.951   9.447  0.5581  0.2605  3.5431
  999MOL0     H31855   7.240   3.970   9.624 -2.6069 -0.1289 -2.5749
  999MOL0     H31856   7.716   4.161   9.775 -0.0859  0.7079  0.3681
  999MOL0     H31857   7.875   4.185   9.968  0.3850  2.8897 -3.2285
  999MOL0     H31858   7.742   4.262  10.399 -1.1316 -0.9102 -0.8183
  999MOL0     H31859   7.704   4.362  10.270 -0.5901  1.3813  1.1817
  999MOL0     H31860   7.971   4.410  10.257 -1.8781  1.5306 -0.2193
  999MOL0     H31861   7.923   4.431  10.422 -0.7802 -0.6574 -0.1391
  999MOL0     H31862   8.043   4.184  10.308 -2.9117  0.1595 -0.5043
  999MOL0     H31863   7.978   4.203  10.475 -3.6565  1.9798  0.0164
  999MOL0     H31864   8.140   4.422  10.487 -1.2648  0.4478 -0.4178
  999MOL0     H31865   8.203   4.269  10.524 -1.1859  0.6146  1.0771
  999MOL0     H31866   8.400   4.366  10.166  1.1993  0.7079  0.4760
  999MOL0     H31867   7.544   4.126  10.229  0.6689  1.0987  0.4965
  999MOL0     H31868   7.388   4.135  10.041  0.5706 -0.5726 -0.2770
 1000MOL0     O31869   8.314   4.501   4.024 -0.1348  1.0845 -0.4015
 1000MOL0     C31870   8.387   4.435   3.951 -0.7529  0.2086 -0.0059
 1000MOL0     O31871   8.358   4.310   3.907  0.9529  0.3369 -0.5321
 1000MOL0     C31872   8.222   4.260   3.909 -0.6501  0.2118  0.3725
 1000MOL0     C31873   8.182   4.161   3.997 -0.3866  0.2175  0.1343
 1000MOL0     C31874   8.056   4.095   3.991  0.3910 -0.0084  0.1235
 1000MOL0     C31875   7.951   4.151   3.917  0.4275 -0.0602  0.6824
 1000MOL0     O31876   7.816   4.098   3.934 -0.3042 -0.0748 -0.0704
 1000MOL0     C31877   7.809   3.959   3.964 -0.2180  0.1971  0.2095
 1000MOL0     C31878   7.666   3.911   3.986 -0.5820 -0.4208  0.2613
 1000MOL0     C31879   7.578   3.889   3.853  0.3845  0.1259 -0.0332
 1000MOL0     C31880   7.441   3.818   3.884 -0.6705 -0.8008 -0.3311
 1000MOL0     C31881   7.341   3.922   3.936 -0.1108  0.6472 -0.3580
 1000MOL0     C31882   7.201   3.870   3.915  0.3028 -0.5914 -0.2394
 1000MOL0     C31883   7.110   3.985   3.969  0.1456 -0.4235  0.0527
 1000MOL0     C31884   6.955   3.955   3.946 -1.3869  0.9657 -0.3631
 1000MOL0     N31885   6.912   3.993   3.813 -0.2044  0.0326  0.2086
 1000MOL0     C31886   6.896   3.912   3.702  0.2902 -0.4277 -0.3190
 1000MOL0     C31887   6.852   3.995   3.602 -0.0895 -0.0619 -0.0431
 1000MOL0     C31888   6.812   3.943   3.459 -0.3833 -0.7264  0.4931
 1000MOL0     C31889   6.845   4.038   3.341 -0.0266 -0.7786 -0.1898
 1000MOL0     C31890   6.740   4.154   3.328  0.6488  0.6336  0.1941
 1000MOL0     C31891   6.789   4.272   3.251 -0.2290  0.5266  0.7830
 1000MOL0     O31892   6.781   4.249   3.106  0.5425 -0.0314 -0.3220
 1000MOL0     C31893   6.653   4.251   3.051 -0.8392 -0.9118  0.3787
 1000MOL0     C31894   6.651   4.208   2.917  0.5378 -0.6897 -0.9032
 1000MOL0     C31895   6.535   4.180   2.852  0.7679  1.2058  0.7475
 1000MOL0     C31896   6.409   4.182   2.918  0.0261  0.2468  0.4320
 1000MOL0     C31897   6.287   4.149   2.851  0.9275 -0.8374 -0.1670
 1000MOL0     O31898   6.186   4.096   2.926 -0.0060  0.4862  0.3484
 1000MOL0     C31899   6.070   4.067   2.868 -0.4319  0.5531 -0.3602
 1000MOL0     C31900   6.002   3.960   2.923  0.8724 -0.5209 -0.8184
 1000MOL0     C31901   5.875   3.917   2.880 -0.2058 -0.2969 -0.5381
 1000MOL0     C31902   5.816   3.976   2.766 -0.8258 -0.0849 -0.8952
 1000MOL0     O31903   5.692   3.949   2.716  0.0119 -0.1276 -0.1420
 1000MOL0     C31904   5.635   3.828   2.764  0.0613  0.0020  0.4680
 1000MOL0     C31905   5.500   3.789   2.698  0.4910 -0.5742 -0.4013
 1000MOL0     C31906   5.511   3.807   2.551  0.0641 -0.2330 -0.2693
 1000MOL0     C31907   5.382   3.825   2.473 -0.5498 -0.2860  0.0905
 1000MOL0     C31908   5.313   3.688   2.469  0.1824 -0.2395 -1.0958
 1000MOL0     C31909   5.185   3.689   2.371 -0.0966 -0.4606  0.9358
 1000MOL0     C31910   5.114   3.549   2.372  0.5869 -0.3600  0.0047
 1000MOL0     C31911   5.006   3.545   2.266  0.3589 -0.3765 -0.0104
 1000MOL0    Cl31912   4.973   3.372   2.216  0.3673  0.0965  0.1051
 1000MOL0     C31913   5.890   4.070   2.695 -0.0905 -0.0620 -0.0330
 1000MOL0     C31914   6.015   4.116   2.744  0.4351 -0.2054 -1.3094
 1000MOL0     O31915   6.297   4.140   2.733 -1.3668  0.0618  0.0263
 1000MOL0     C31916   6.399   4.222   3.056  0.0580 -0.1009 -0.5637
 1000MOL0     C31917   6.527   4.260   3.118 -0.0028  0.3039  0.4249
 1000MOL0     N31918   6.862   4.127   3.649  0.2551  1.2072  0.4018
 1000MOL0     N31919   6.899   4.124   3.773 -0.1725  0.4461  0.6215
 1000MOL0     C31920   7.991   4.256   3.829  0.4747 -0.3704  0.7004
 1000MOL0     C31921   8.126   4.305   3.817  0.2560 -0.5884  0.6323
 1000MOL0     C31922   8.521   4.479   3.933  0.4407 -0.9853 -0.2263
 1000MOL0     C31923   8.568   4.609   3.965 -0.1387  0.8434  1.2548
 1000MOL0     C31924   8.691   4.638   3.918  0.2958  0.2610  0.4758
 1000MOL0     C31925   8.777   4.562   3.842 -0.6713 -0.5432 -0.3048
 1000MOL0     O31926   8.899   4.616   3.804  1.0930  0.2169 -0.3998
 1000MOL0     C31927   8.911   4.663   3.670 -0.2387 -0.6077  1.6112
 1000MOL0     C31928   9.037   4.743   3.648 -0.9205  0.8977  0.2959
 1000MOL0     C31929   9.161   4.649   3.634 -0.9269 -0.7346 -0.3088
 1000MOL0     C31930   9.291   4.730   3.643 -0.2671 -0.5406 -0.4364
 1000MOL0     C31931   9.403   4.633   3.651 -0.3267  0.1543 -0.1769
 1000MOL0     C31932   9.491   4.546   3.656 -0.5892  1.1781 -0.2666
 1000MOL0     C31933   8.735   4.442   3.802 -0.1356  0.5933 -0.8796
 1000MOL0     C31934   8.607   4.399   3.848  0.7198 -1.3442  0.2951
 1000MOL0     H31935   8.257   4.119   4.063 -2.4362 -4.0484  0.1151
 1000MOL0     H31936   8.044   4.016   4.064  0.8251  0.4985  0.7554
 1000MOL0     H31937   7.858   3.930   4.058 -0.1094  0.2384  0.1659
 1000MOL0     H31938   7.860   3.901   3.887  1.1674  1.7520 -0.1061
 1000MOL0     H31939   7.622   3.978   4.061 -0.6728  1.2590 -1.2526
 1000MOL0     H31940   7.675   3.816   4.041  1.1365  1.0710  2.8104
 1000MOL0     H31941   7.643   3.833   3.785 -1.5549 -0.3780 -1.5801
 1000MOL0     H31942   7.557   3.983   3.802  0.1544  0.1271  0.0630
 1000MOL0     H31943   7.394   3.766   3.800 -0.6772 -2.8791  0.8905
 1000MOL0     H31944   7.457   3.741   3.960 -0.3983  1.3161  1.9190
 1000MOL0     H31945   7.350   4.018   3.884 -1.0218  0.3755 -1.0469
 1000MOL0     H31946   7.362   3.936   4.043 -2.2773  3.1116 -0.1476
 1000MOL0     H31947   7.183   3.772   3.960 -0.6058 -0.9767 -1.3671
 1000MOL0     H31948   7.191   3.863   3.806  2.6839 -0.0963 -0.5363
 1000MOL0     H31949   7.133   3.998   4.075  2.9082 -2.4512 -0.1717
 1000MOL0     H31950   7.134   4.085   3.931 -1.0581  0.6537  1.9708
 1000MOL0     H31951   6.905   4.021   4.017 -0.2383  1.7527 -0.2385
 1000MOL0     H31952   6.935   3.852   3.975  3.0964  0.0095 -0.0022
 1000MOL0     H31953   6.906   3.804   3.708 -0.8476 -0.4630  2.4539
 1000MOL0     H31954   6.703   3.938   3.464 -0.7494  1.9223 -1.8583
 1000MOL0     H31955   6.844   3.840   3.441 -1.2791 -0.4516 -3.8458
 1000MOL0     H31956   6.845   3.984   3.246 -0.1838 -0.8935 -0.1247
 1000MOL0     H31957   6.946   4.070   3.365 -0.4289  0.1265  0.3598
 1000MOL0     H31958   6.650   4.108   3.287  0.3942  1.8911 -0.7208
 1000MOL0     H31959   6.705   4.181   3.428  0.5778 -2.6729  1.1945
 1000MOL0     H31960   6.897   4.279   3.266  0.4406 -0.4276 -2.6537
 1000MOL0     H31961   6.740   4.368   3.271 -0.4585  0.2105  1.7855
 1000MOL0     H31962   6.748   4.203   2.868  1.6242  1.1310  0.8770
 1000MOL0     H31963   6.540   4.138   2.753  1.6692 -3.3108  2.4910
 1000MOL0     H31964   6.039   3.914   3.014  2.8581  2.5410  0.0962
 1000MOL0     H31965   5.820   3.848   2.943  0.0798  1.9130  2.3779
 1000MOL0     H31966   5.636   3.830   2.873  0.9710 -1.2252  0.5031
 1000MOL0     H31967   5.697   3.743   2.733  0.3086 -0.9168  3.2043
 1000MOL0     H31968   5.422   3.850   2.745  0.0376 -0.4190 -1.3233
 1000MOL0     H31969   5.473   3.689   2.731 -1.6467 -0.3719 -1.4061
 1000MOL0     H31970   5.577   3.730   2.511  1.0807  1.3879 -1.9124
 1000MOL0     H31971   5.559   3.901   2.519 -1.2416 -0.0230 -1.7700
 1000MOL0     H31972   5.328   3.909   2.519  0.3218  0.8852 -0.9529
 1000MOL0     H31973   5.406   3.844   2.367 -0.5562 -1.4714 -0.1336
 1000MOL0     H31974   5.286   3.657   2.570  3.4578 -0.6011 -0.1970
 1000MOL0     H31975   5.385   3.611   2.436  0.5649 -0.3954  0.0615
 1000MOL0     H31976   5.208   3.721   2.269 -0.9842  0.7662  1.0893
 1000MOL0     H31977   5.111   3.765   2.398  0.2977 -0.1798  1.2426
 1000MOL0     H31978   5.198   3.488   2.336  0.4045  0.2930 -1.6389
 1000MOL0     H31979   5.076   3.512   2.467  1.1084 -0.1896  0.2802
 1000MOL0     H31980   5.040   3.603   2.179 -1.9823  2.3727  0.7396
 1000MOL0     H31981   4.919   3.602   2.298  2.4979  1.7256  2.5333
 1000MOL0     H31982   5.847   4.120   2.609  0.4029 -0.4757 -0.5236
 1000MOL0     H31983   6.069   4.191   2.687 -2.5813  1.5124 -2.1508
 1000MOL0     H31984   6.299   4.232   3.095 -0.0963  0.1111 -1.0084
 1000MOL0     H31985   6.532   4.291   3.222  0.5455 -1.1892  0.8630
 1000MOL0     H31986   7.914   4.291   3.761  2.3007  1.5865 -0.4855
 1000MOL0     H31987   8.151   4.386   3.749  2.0708 -1.4334  0.2479
 1000MOL0     H31988   8.509   4.675   4.028  0.3097  0.6163  1.9157
 1000MOL0     H31989   8.731   4.735   3.946  3.3712 -0.9004  0.4655
 1000MOL0     H31990   8.833   4.726   3.626 -1.1679 -1.3030  2.2443
 1000MOL0     H31991   8.927   4.577   3.605  3.1558  1.5843 -0.8123
 1000MOL0     H31992   9.027   4.798   3.554 -0.9155 -0.0898 -0.2975
 1000MOL0     H31993   9.050   4.807   3.736 -1.4926 -0.0267  1.0679
 1000MOL0     H31994   9.149   4.595   3.540 -2.9777  1.7535 -1.6377
 1000MOL0     H31995   9.159   4.576   3.716  1.2143 -0.8113 -0.2796
 1000MOL0     H31996   9.312   4.776   3.546  0.7060 -0.6464 -0.2897
 1000MOL0     H31997   9.287   4.793   3.732  0.2061 -1.8658  0.5541
 1000MOL0     H31998   9.557   4.463   3.651 -1.7789  0.2723 -2.5547
 1000MOL0     H31999   8.799   4.387   3.734 -2.3605  0.3291 -2.9236
 1000MOL0     H32000   8.570   4.299   3.830 -0.6003 -1.4627  3.0457
 1001MOL0     O32001   1.893   7.466   0.494  0.0402 -0.1945 -1.3451
 1001MOL0     C32002   1.937   7.357   0.457  0.1697 -0.0118 -0.3060
 1001MOL0     O32003   1.864   7.267   0.377 -0.3790 -0.1786 -0.1722
 1001MOL0     C32004   1.748   7.316   0.315 -0.7647  0.3682  0.0483
 1001MOL0     C32005   1.750   7.368   0.183  0.3133 -1.1429  0.6511
 1001MOL0     C32006   1.631   7.412   0.125 -0.0454 -0.3045 -0.0042
 1001MOL0     C32007   1.505   7.416   0.207 -0.1303  0.5205  0.1780
 1001MOL0     O32008   1.391   7.477   0.170  0.2228  0.2976  0.3185
 1001MOL0     C32009   1.366   7.505   0.035 -0.3299  0.2154  0.1545
 1001MOL0     C32010   1.241   7.584  -0.001 -0.0477  0.3593 -0.7354
 1001MOL0     C32011   1.232   7.712   0.089 -0.3840 -0.5571 -0.3516
 1001MOL0     C32012   1.096   7.790   0.075 -0.4712 -0.3976  0.6885
 1001MOL0     C32013   1.097   7.935   0.119 -0.2364 -0.9403 -0.1717
 1001MOL0     C32014   0.956   7.997   0.105 -0.4215  0.4549 -0.3529
 1001MOL0     C32015   0.975   8.151   0.117  0.3317  0.6794 -0.0594
 1001MOL0     C32016   1.006   8.229  -0.011 -0.2729 -0.2081  0.2704
 1001MOL0     N32017   0.887   8.288  -0.078  1.0290  0.3452 -0.3936
 1001MOL0     C32018   0.833   8.412  -0.068  0.6111  0.3544  0.4444
 1001MOL0     C32019   0.730   8.423  -0.160  0.6666  0.8360 -0.8721
 1001MOL0     C32020   0.664   8.550  -0.197 -0.1124 -1.0891 -0.1787
 1001MOL0     C32021   0.519   8.545  -0.154  0.3682  0.0991 -0.0696
 1001MOL0     C32022   0.466   8.680  -0.163  0.8554  0.3140 -0.2121
 1001MOL0     C32023   0.330   8.698  -0.111  0.2584  0.2291 -0.7348
 1001MOL0     O32024   0.239   8.600  -0.153  0.2355 -0.3342  0.2512
 1001MOL0     C32025   0.109   8.625  -0.112 -0.7683  0.7158  0.1848
 1001MOL0     C32026  -0.003   8.547  -0.159 -0.1313 -0.5116 -0.6251
 1001MOL0     C32027  -0.129   8.562  -0.108  0.5407  0.1042  1.0618
 1001MOL0     C32028  -0.171   8.661  -0.019 -0.2241 -0.3463  0.1489
 1001MOL0     C32029  -0.311   8.702   0.015 -0.3134 -0.4383  0.6047
 1001MOL0     O32030  -0.403   8.605   0.007  0.3235  0.2336  0.6662
 1001MOL0     C32031  -0.540   8.636   0.005  0.0815  1.1616 -0.6651
 1001MOL0     C32032  -0.628   8.547  -0.059 -0.1343  0.2379  0.8740
 1001MOL0     C32033  -0.767   8.560  -0.068 -0.5115 -0.0941  0.1231
 1001MOL0     C32034  -0.830   8.667  -0.005  0.1587  0.2823 -0.9783
 1001MOL0     O32035  -0.963   8.696  -0.028  0.0616  0.4586 -0.0290
 1001MOL0     C32036  -1.031   8.802   0.045 -0.6829  0.1441 -1.2628
 1001MOL0     C32037  -1.171   8.828  -0.014  0.8629  0.9386  0.5412
 1001MOL0     C32038  -1.261   8.927   0.068  0.6569 -0.2875  0.2102
 1001MOL0     C32039  -1.219   9.077   0.050 -0.5664 -0.8178  0.0431
 1001MOL0     C32040  -1.291   9.186   0.126  0.5885  0.4730  0.0754
 1001MOL0     C32041  -1.425   9.212   0.066  0.5200 -0.2594 -0.3617
 1001MOL0     C32042  -1.511   9.319   0.132 -0.7047  0.2269 -0.6005
 1001MOL0     C32043  -1.629   9.354   0.037  0.5281 -0.3321 -0.6486
 1001MOL0    Cl32044  -1.733   9.215   0.039 -0.2478 -0.3761 -0.0378
 1001MOL0     C32045  -0.749   8.744   0.083 -1.1245  0.4590  0.3544
 1001MOL0     C32046  -0.610   8.735   0.086 -0.6649 -0.3388 -0.4437
 1001MOL0     O32047  -0.341   8.824   0.038  0.1990 -0.3605 -0.0632
 1001MOL0     C32048  -0.059   8.744   0.022  0.4364 -0.1231 -0.2566
 1001MOL0     C32049   0.077   8.720  -0.008  0.6909 -0.1355  0.0566
 1001MOL0     N32050   0.710   8.295  -0.208  0.1485  0.6870  0.4171
 1001MOL0     N32051   0.808   8.225  -0.168 -0.3968  0.3507 -1.0027
 1001MOL0     C32052   1.510   7.371   0.333 -0.0381 -0.0477 -0.8009
 1001MOL0     C32053   1.624   7.308   0.386  0.1992  0.5352  0.4065
 1001MOL0     C32054   2.067   7.316   0.512 -0.0986 -0.2577  0.0796
 1001MOL0     C32055   2.171   7.406   0.526 -0.6974  0.2217  0.2622
 1001MOL0     C32056   2.298   7.361   0.563 -0.1791 -0.4749  1.5078
 1001MOL0     C32057   2.324   7.225   0.572  1.0680  1.0078 -0.5840
 1001MOL0     O32058   2.449   7.189   0.593  0.1013 -0.4576  0.7873
 1001MOL0     C32059   2.478   7.117   0.713 -0.2761  0.2439  0.6942
 1001MOL0     C32060   2.630   7.141   0.748  0.2965  0.0224 -0.5859
 1001MOL0     C32061   2.728   7.134   0.634  0.9208  0.1873  0.1481
 1001MOL0     C32062   2.866   7.142   0.693 -0.4478 -0.0086  0.4934
 1001MOL0     C32063   2.891   7.280   0.735 -0.1892  0.1514 -0.1947
 1001MOL0     C32064   2.923   7.391   0.758 -0.0648 -0.4511  0.4385
 1001MOL0     C32065   2.220   7.132   0.559  1.0216  0.1415 -0.0832
 1001MOL0     C32066   2.087   7.179   0.527 -0.0738  0.6173 -1.2655
 1001MOL0     H32067   1.838   7.386   0.123 -1.0147  0.0997 -1.0173
 1001MOL0     H32068   1.630   7.441   0.020  0.3476  0.1341  0.1093
 1001MOL0     H32069   1.359   7.410  -0.019 -0.8396  0.5042 -0.2955
 1001MOL0     H32070   1.459   7.545  -0.008  0.2606 -2.9509 -1.8692
 1001MOL0     H32071   1.152   7.524   0.020  0.2703 -0.4837 -1.7615
 1001MOL0     H32072   1.232   7.613  -0.106  1.8812  1.5082 -0.6343
 1001MOL0     H32073   1.308   7.780   0.050 -0.9336  1.2563  1.5470
 1001MOL0     H32074   1.252   7.695   0.195  3.3570  2.1397 -0.4312
 1001MOL0     H32075   1.056   7.790  -0.027 -1.5133 -0.6257  1.0834
 1001MOL0     H32076   1.024   7.740   0.140  0.7845 -0.6165  1.9568
 1001MOL0     H32077   1.164   7.992   0.055 -0.2129  1.1627  1.5976
 1001MOL0     H32078   1.122   7.945   0.225 -3.8663 -1.8764  0.9277
 1001MOL0     H32079   0.896   7.954   0.186  3.7056 -0.9050  2.2663
 1001MOL0     H32080   0.918   7.969   0.007  0.8744 -1.6713 -0.2932
 1001MOL0     H32081   0.888   8.204   0.157  0.5031  0.7600  0.2068
 1001MOL0     H32082   1.059   8.174   0.182  2.1245  1.5814 -2.5408
 1001MOL0     H32083   1.057   8.168  -0.086 -0.2493  1.4212 -1.0818
 1001MOL0     H32084   1.071   8.313   0.016  0.4645 -0.3592 -0.9497
 1001MOL0     H32085   0.865   8.500  -0.013 -3.5613  1.7253  1.0112
 1001MOL0     H32086   0.659   8.549  -0.306 -3.5879 -1.5630 -0.1373
 1001MOL0     H32087   0.729   8.635  -0.175 -0.1701 -0.5971 -1.8273
 1001MOL0     H32088   0.484   8.504  -0.059 -1.6336 -1.1452 -1.2603
 1001MOL0     H32089   0.471   8.475  -0.223 -1.1271 -0.4490  1.4530
 1001MOL0     H32090   0.526   8.745  -0.099 -0.5061  0.1616  1.2972
 1001MOL0     H32091   0.475   8.720  -0.264 -0.1721  1.1505  0.0168
 1001MOL0     H32092   0.301   8.802  -0.127 -0.1104  0.3850  0.7864
 1001MOL0     H32093   0.338   8.688  -0.003 -0.1556  0.8054 -0.6429
 1001MOL0     H32094   0.021   8.466  -0.227 -1.3237 -0.3767 -1.2312
 1001MOL0     H32095  -0.201   8.491  -0.148  0.2826  0.7485  0.3689
 1001MOL0     H32096  -0.583   8.468  -0.118  1.5867  2.3566 -0.8465
 1001MOL0     H32097  -0.833   8.487  -0.113 -0.8418 -1.0216  2.0280
 1001MOL0     H32098  -0.975   8.895   0.037  0.1320 -0.1401  0.5195
 1001MOL0     H32099  -1.034   8.758   0.146  0.0741  0.5943 -1.0380
 1001MOL0     H32100  -1.223   8.733  -0.029  2.0937  0.4446 -0.8483
 1001MOL0     H32101  -1.169   8.872  -0.114 -2.0757 -0.5643 -0.2868
 1001MOL0     H32102  -1.248   8.905   0.175  0.7221 -1.7569 -0.0821
 1001MOL0     H32103  -1.364   8.915   0.034  1.3648 -3.1201 -1.2258
 1001MOL0     H32104  -1.112   9.082   0.072 -0.2014  0.9777 -1.8186
 1001MOL0     H32105  -1.219   9.105  -0.056  2.1347  0.3103  0.2632
 1001MOL0     H32106  -1.230   9.277   0.135  1.1633  0.2499 -1.3368
 1001MOL0     H32107  -1.305   9.150   0.228 -2.5427  0.2208 -0.3433
 1001MOL0     H32108  -1.485   9.121   0.075 -0.1778  0.2417  0.2103
 1001MOL0     H32109  -1.418   9.239  -0.040 -1.0778 -0.6190 -0.5897
 1001MOL0     H32110  -1.542   9.279   0.229 -0.4498 -0.6117 -0.8538
 1001MOL0     H32111  -1.438   9.396   0.156  1.7235 -1.6371 -1.5074
 1001MOL0     H32112  -1.609   9.378  -0.067 -1.1103 -1.8364 -1.3590
 1001MOL0     H32113  -1.681   9.440   0.081  2.2648 -0.3754  1.7259
 1001MOL0     H32114  -0.795   8.814   0.152 -0.4306 -1.3810  2.7825
 1001MOL0     H32115  -0.556   8.804   0.150  1.6630 -2.1283 -0.3501
 1001MOL0     H32116  -0.080   8.830   0.085  1.5367  0.2132 -0.3403
 1001MOL0     H32117   0.144   8.786   0.046  0.1745  0.6823 -0.2871
 1001MOL0     H32118   1.425   7.368   0.400  2.1088 -1.6882  2.0624
 1001MOL0     H32119   1.611   7.266   0.485  0.9035 -0.4750  0.0933
 1001MOL0     H32120   2.151   7.510   0.501 -2.2975 -0.9842 -4.6570
 1001MOL0     H32121   2.369   7.442   0.575 -1.5146  1.0901 -0.4815
 1001MOL0     H32122   2.459   7.011   0.695 -0.1433  0.3153  0.1124
 1001MOL0     H32123   2.412   7.149   0.794 -2.9845 -2.6475 -0.1753
 1001MOL0     H32124   2.633   7.239   0.798  1.1720  0.2001 -0.9650
 1001MOL0     H32125   2.660   7.065   0.820 -1.2991  2.0148  2.3911
 1001MOL0     H32126   2.726   7.218   0.565 -1.1716 -0.5628 -0.7615
 1001MOL0     H32127   2.721   7.041   0.578  3.7948 -0.7718  1.1901
 1001MOL0     H32128   2.883   7.072   0.775 -0.1972 -0.4219  0.0931
 1001MOL0     H32129   2.931   7.120   0.607 -0.8820 -1.1654  0.4555
 1001MOL0     H32130   2.950   7.492   0.777 -3.4739  0.3088  1.9491
 1001MOL0     H32131   2.236   7.025   0.566  2.3803  0.3865  1.0175
 1001MOL0     H32132   2.001   7.113   0.521  1.8338 -2.0949 -0.8413
 1002MOL0     O32133   4.398   6.875   2.743 -0.2332 -0.1294  0.3680
 1002MOL0     C32134   4.448   6.922   2.846  0.6119 -0.6508 -0.7094
 1002MOL0     O32135   4.390   6.907   2.967  0.2629  0.8170 -0.0515
 1002MOL0     C32136   4.264   6.838   2.971 -0.2394  0.8777  0.4530
 1002MOL0     C32137   4.149   6.894   2.925 -0.1801 -1.1465 -0.3771
 1002MOL0     C32138   4.024   6.828   2.934 -0.1809  0.2242 -0.5241
 1002MOL0     C32139   4.022   6.699   2.984 -0.3279  0.3714  0.3072
 1002MOL0     O32140   3.907   6.636   2.995 -0.6857 -0.0514 -0.4047
 1002MOL0     C32141   3.789   6.707   3.049 -0.4160  0.3049 -0.0478
 1002MOL0     C32142   3.694   6.594   3.104  0.0348 -0.2016  0.6397
 1002MOL0     C32143   3.746   6.517   3.225  0.4096  0.3427 -1.0700
 1002MOL0     C32144   3.641   6.420   3.284 -0.7934 -1.1203  1.5169
 1002MOL0     C32145   3.646   6.426   3.439  0.5469 -0.3169 -0.0915
 1002MOL0     C32146   3.589   6.557   3.497  0.4231  0.3976  0.5681
 1002MOL0     C32147   3.587   6.554   3.652  0.3563  0.0725  0.6254
 1002MOL0     C32148   3.548   6.695   3.696 -0.1861  0.0504  0.4376
 1002MOL0     N32149   3.405   6.707   3.690 -0.3508  0.0753  0.7506
 1002MOL0     C32150   3.306   6.718   3.789  0.3437 -0.9604  0.1465
 1002MOL0     C32151   3.195   6.744   3.721 -0.2332  0.7461 -0.5463
 1002MOL0     C32152   3.060   6.770   3.776  0.0363  1.1529  0.5759
 1002MOL0     C32153   2.962   6.655   3.735 -0.0059 -0.1830  0.4814
 1002MOL0     C32154   2.814   6.704   3.748  0.0277  0.0045 -0.1255
 1002MOL0     C32155   2.762   6.779   3.624  0.6741  0.0364 -0.1680
 1002MOL0     O32156   2.678   6.687   3.553 -0.3772 -0.0659  0.6918
 1002MOL0     C32157   2.559   6.647   3.594 -0.5303  0.2903 -0.0074
 1002MOL0     C32158   2.488   6.599   3.478 -0.2815 -0.1202 -1.0474
 1002MOL0     C32159   2.356   6.548   3.487  0.2224  0.4703 -0.6310
 1002MOL0     C32160   2.287   6.570   3.604 -0.8152  0.2543 -0.1844
 1002MOL0     C32161   2.149   6.522   3.629 -0.3020 -0.3030 -0.2855
 1002MOL0     O32162   2.077   6.474   3.525 -0.3919  0.1620  0.2017
 1002MOL0     C32163   1.954   6.422   3.549  0.0695  0.2721  0.0863
 1002MOL0     C32164   1.843   6.504   3.545  0.0934 -1.6352 -0.3490
 1002MOL0     C32165   1.719   6.459   3.572 -0.8276  0.6076  0.4707
 1002MOL0     C32166   1.693   6.320   3.606  0.8855 -0.8718 -0.2451
 1002MOL0     O32167   1.561   6.279   3.637  0.2965  0.2585  0.5700
 1002MOL0     C32168   1.543   6.139   3.678 -0.1308  0.0102 -0.0403
 1002MOL0     C32169   1.408   6.121   3.732  0.4122 -1.1421  0.0498
 1002MOL0     C32170   1.292   6.157   3.645 -0.2327  0.6251  0.3347
 1002MOL0     C32171   1.173   6.109   3.713  0.2188  1.3157 -0.3486
 1002MOL0     C32172   1.046   6.169   3.671  0.0380  0.2059 -0.5932
 1002MOL0     C32173   0.918   6.117   3.727 -0.5703  0.2543 -0.4756
 1002MOL0     C32174   0.803   6.199   3.664  1.8087 -0.3547 -0.5129
 1002MOL0     C32175   0.657   6.153   3.714  0.0494  0.0462 -0.9501
 1002MOL0    Cl32176   0.632   5.983   3.663  0.0570  0.3755 -0.6909
 1002MOL0     C32177   1.801   6.230   3.594 -0.3526 -1.0606  0.1192
 1002MOL0     C32178   1.934   6.283   3.568 -0.3089  0.4716 -0.2183
 1002MOL0     O32179   2.103   6.536   3.744 -0.1050  0.1229 -0.6171
 1002MOL0     C32180   2.352   6.646   3.707 -0.2383  0.6199  0.8512
 1002MOL0     C32181   2.487   6.680   3.709 -0.6573 -0.6589 -0.3612
 1002MOL0     N32182   3.223   6.759   3.585 -0.8363 -0.0431 -0.4318
 1002MOL0     N32183   3.346   6.736   3.574  0.5976  0.2277  1.0417
 1002MOL0     C32184   4.134   6.638   3.032 -0.1727  0.2258 -0.2795
 1002MOL0     C32185   4.259   6.706   3.034 -0.2630 -1.0844  0.0148
 1002MOL0     C32186   4.579   6.970   2.831 -0.3864 -0.3365  0.8440
 1002MOL0     C32187   4.649   7.019   2.940  0.0474  0.3713  0.0193
 1002MOL0     C32188   4.778   7.067   2.936 -0.1077  0.0777  0.4977
 1002MOL0     C32189   4.844   7.086   2.805 -0.1728  0.3069 -0.7410
 1002MOL0     O32190   4.978   7.132   2.799 -0.2394  0.2965 -0.0800
 1002MOL0     C32191   5.054   7.149   2.920  0.0813  0.0596 -1.0919
 1002MOL0     C32192   5.197   7.214   2.886  1.2106  1.0392 -0.1491
 1002MOL0     C32193   5.170   7.354   2.856  0.2267 -0.4019  0.1883
 1002MOL0     C32194   5.306   7.429   2.832 -0.3941  0.7308  0.4228
 1002MOL0     C32195   5.286   7.534   2.733  0.4188 -0.8897  0.4165
 1002MOL0     C32196   5.252   7.622   2.655 -1.0542  0.4024 -0.3529
 1002MOL0     C32197   4.780   7.038   2.696 -0.1266  0.4884 -0.1095
 1002MOL0     C32198   4.651   6.975   2.705  0.1079  0.1169 -0.0694
 1002MOL0     H32199   4.149   6.993   2.881 -0.0834  0.2805  2.6407
 1002MOL0     H32200   3.934   6.873   2.895 -0.8131  0.8638  1.5292
 1002MOL0     H32201   3.735   6.759   2.969  1.5557  4.0269  0.7755
 1002MOL0     H32202   3.816   6.783   3.124  0.5015  0.2065 -0.2750
 1002MOL0     H32203   3.666   6.526   3.023 -1.5451  0.8131  0.2889
 1002MOL0     H32204   3.605   6.643   3.144  1.2024  0.4147  2.6280
 1002MOL0     H32205   3.786   6.587   3.298 -2.1882  0.4402  0.3656
 1002MOL0     H32206   3.835   6.463   3.188  1.2422  1.1513 -0.2955
 1002MOL0     H32207   3.543   6.435   3.236  0.5515  1.8073 -0.6244
 1002MOL0     H32208   3.686   6.324   3.259 -1.3874 -0.8776 -0.6985
 1002MOL0     H32209   3.743   6.398   3.481  0.1403 -1.4096  0.1517
 1002MOL0     H32210   3.586   6.341   3.472 -0.2367  1.1156  2.4852
 1002MOL0     H32211   3.489   6.579   3.459  0.7236  1.6564  0.4487
 1002MOL0     H32212   3.647   6.643   3.463 -0.3120  0.7146  0.1034
 1002MOL0     H32213   3.516   6.476   3.681 -0.7870 -0.0865 -2.2612
 1002MOL0     H32214   3.690   6.542   3.688  1.8814 -0.4676 -3.4613
 1002MOL0     H32215   3.590   6.773   3.631  2.3665 -1.2269  0.4458
 1002MOL0     H32216   3.580   6.707   3.799  0.7235 -1.3437  0.3358
 1002MOL0     H32217   3.321   6.711   3.897 -0.0938  0.3240  0.3059
 1002MOL0     H32218   3.029   6.866   3.735 -2.4637  0.1949 -0.0269
 1002MOL0     H32219   3.063   6.783   3.884  0.4261  1.3450  0.5425
 1002MOL0     H32220   2.978   6.571   3.803 -1.7718  0.3695  1.6459
 1002MOL0     H32221   2.982   6.631   3.630 -0.2059  0.6335  0.2489
 1002MOL0     H32222   2.744   6.623   3.768 -1.3219  1.1337 -0.1071
 1002MOL0     H32223   2.825   6.771   3.833 -0.1631 -1.1450  0.8227
 1002MOL0     H32224   2.845   6.810   3.559  0.7735  3.2545  1.2788
 1002MOL0     H32225   2.703   6.864   3.661  1.7650  0.1044  1.5773
 1002MOL0     H32226   2.546   6.579   3.388  1.0046 -1.2108 -0.0154
 1002MOL0     H32227   2.306   6.497   3.405  0.9104  0.9296 -1.3580
 1002MOL0     H32228   1.872   6.607   3.526  0.8712 -1.8668 -0.4724
 1002MOL0     H32229   1.637   6.530   3.571 -2.1211 -0.8329  0.7467
 1002MOL0     H32230   1.610   6.122   3.763  2.1194 -1.1435 -1.9183
 1002MOL0     H32231   1.564   6.075   3.592 -0.3242 -0.1488  0.0310
 1002MOL0     H32232   1.399   6.182   3.822 -1.2746 -1.1151 -0.1051
 1002MOL0     H32233   1.400   6.017   3.766  1.0210 -0.3211  3.0156
 1002MOL0     H32234   1.319   6.113   3.549  2.6766 -0.0155  1.3420
 1002MOL0     H32235   1.283   6.265   3.631 -3.2365  0.7628  2.3931
 1002MOL0     H32236   1.157   6.001   3.718 -0.2337  1.3732  3.9565
 1002MOL0     H32237   1.181   6.143   3.817  0.2279  1.1094 -0.2804
 1002MOL0     H32238   1.034   6.149   3.564  0.7403 -2.6779 -0.1984
 1002MOL0     H32239   1.045   6.279   3.676  1.1618  0.2824 -1.5958
 1002MOL0     H32240   0.916   6.118   3.836  2.5778 -2.9939 -0.1860
 1002MOL0     H32241   0.906   6.011   3.702 -3.1469  0.5629 -0.9147
 1002MOL0     H32242   0.808   6.305   3.690 -2.8809  0.3154 -1.3575
 1002MOL0     H32243   0.808   6.187   3.555  1.6265 -3.3294 -0.2781
 1002MOL0     H32244   0.578   6.215   3.672 -0.6597 -1.0852 -1.3344
 1002MOL0     H32245   0.657   6.160   3.823  3.5865  0.9240 -0.8702
 1002MOL0     H32246   1.794   6.128   3.630  2.1722 -1.3004  0.1046
 1002MOL0     H32247   2.009   6.204   3.559 -2.2334 -1.1845 -4.3784
 1002MOL0     H32248   2.304   6.658   3.803  0.3586 -0.8811  1.3726
 1002MOL0     H32249   2.541   6.729   3.789  0.2716  3.4006 -3.1534
 1002MOL0     H32250   4.134   6.538   3.074  1.1201 -0.0645 -0.8946
 1002MOL0     H32251   4.354   6.662   3.065  0.4333  0.6688  0.5232
 1002MOL0     H32252   4.601   7.024   3.037 -1.1208  2.2540 -0.5994
 1002MOL0     H32253   4.830   7.095   3.027 -1.7139  0.0304  1.4614
 1002MOL0     H32254   5.051   7.053   2.974 -4.8568  1.5727  1.9795
 1002MOL0     H32255   5.011   7.217   2.994  0.9948  2.0375 -2.3157
 1002MOL0     H32256   5.266   7.211   2.971  0.5300 -0.7986  0.3774
 1002MOL0     H32257   5.245   7.165   2.801  0.6014 -2.0025  1.1276
 1002MOL0     H32258   5.110   7.407   2.931  2.5806  0.8518  1.2861
 1002MOL0     H32259   5.105   7.362   2.769 -0.0524 -0.3609  0.3976
 1002MOL0     H32260   5.340   7.467   2.929 -2.8805  1.0407  1.2492
 1002MOL0     H32261   5.376   7.353   2.797 -2.1645  0.1331 -2.1697
 1002MOL0     H32262   5.226   7.692   2.578 -2.6686 -0.8093 -0.9560
 1002MOL0     H32263   4.839   7.037   2.605  1.2019 -0.5694  0.7037
 1002MOL0     H32264   4.601   6.954   2.611 -1.6004  0.3339  0.7537
 1003MOL0     O32265   6.405   6.804   0.436  0.0012 -0.4039  0.7326
 1003MOL0     C32266   6.465   6.749   0.343  0.1888  0.4892  0.4479
 1003MOL0     O32267   6.432   6.626   0.283 -0.1768 -0.4773 -0.6252
 1003MOL0     C32268   6.324   6.561   0.329 -0.8539  1.0320  0.2676
 1003MOL0     C32269   6.208   6.535   0.252 -0.2373 -0.5546 -0.2243
 1003MOL0     C32270   6.094   6.465   0.297 -0.0823  0.8836  0.1357
 1003MOL0     C32271   6.096   6.407   0.428  0.2394 -0.3527 -0.1204
 1003MOL0     O32272   5.985   6.350   0.475  0.0677 -0.4023  0.3564
 1003MOL0     C32273   5.981   6.331   0.615 -0.0359 -0.6710  0.0381
 1003MOL0     C32274   5.849   6.258   0.647  0.1771  0.1415  0.8776
 1003MOL0     C32275   5.716   6.349   0.635  0.0592  0.4994 -0.0281
 1003MOL0     C32276   5.603   6.279   0.714 -0.8245 -0.5889  0.2638
 1003MOL0     C32277   5.475   6.370   0.719 -1.1826  0.2439  0.7011
 1003MOL0     C32278   5.363   6.302   0.799  0.0388 -0.0617  0.7548
 1003MOL0     C32279   5.400   6.282   0.946 -0.3946 -0.4142 -0.2330
 1003MOL0     C32280   5.282   6.202   1.006 -0.3378  0.3344 -0.1370
 1003MOL0     N32281   5.313   6.191   1.151  0.2504 -0.3313 -0.1678
 1003MOL0     C32282   5.243   6.260   1.252 -0.1446  0.8278 -0.4397
 1003MOL0     C32283   5.265   6.186   1.363 -0.4126 -0.1212 -0.0630
 1003MOL0     C32284   5.212   6.213   1.501 -0.3878  0.4797  0.8131
 1003MOL0     C32285   5.198   6.362   1.545  0.7327  0.4840  0.1643
 1003MOL0     C32286   5.136   6.370   1.692  0.0116  0.9564  0.0793
 1003MOL0     C32287   4.986   6.377   1.685  0.0473 -0.4013  0.6117
 1003MOL0     O32288   4.949   6.510   1.630  0.0108  0.0847 -0.3353
 1003MOL0     C32289   4.818   6.535   1.604 -0.9500 -0.5460 -0.4722
 1003MOL0     C32290   4.794   6.670   1.564 -1.2606  0.7184  0.1710
 1003MOL0     C32291   4.664   6.715   1.563  0.3772  0.1882  0.3506
 1003MOL0     C32292   4.554   6.628   1.580 -0.1626 -0.0235 -0.2127
 1003MOL0     C32293   4.410   6.677   1.570 -0.2877 -0.3215  0.7392
 1003MOL0     O32294   4.399   6.804   1.529 -0.7550  0.5195 -0.7089
 1003MOL0     C32295   4.276   6.860   1.517  0.5178  0.9622  0.0981
 1003MOL0     C32296   4.187   6.880   1.618  0.1991 -0.5474 -0.4916
 1003MOL0     C32297   4.072   6.952   1.582 -0.1495  0.8170 -0.7036
 1003MOL0     C32298   4.049   7.002   1.460 -0.3469  0.0468 -0.4972
 1003MOL0     O32299   3.926   7.069   1.431  0.2643 -0.2974 -0.1367
 1003MOL0     C32300   3.907   7.208   1.469 -0.7027 -0.3297  0.9602
 1003MOL0     C32301   3.853   7.298   1.355 -1.3577  0.0985  0.6825
 1003MOL0     C32302   3.714   7.256   1.311 -0.2584  0.2368 -0.3586
 1003MOL0     C32303   3.660   7.327   1.191  0.5372 -0.7799 -0.4960
 1003MOL0     C32304   3.524   7.274   1.151  1.1278  0.2721 -0.0743
 1003MOL0     C32305   3.400   7.352   1.210 -0.0363 -0.1707 -0.3341
 1003MOL0     C32306   3.263   7.296   1.172 -0.3774 -1.0323 -0.3142
 1003MOL0     C32307   3.161   7.394   1.243  0.1353  0.5257  0.3614
 1003MOL0    Cl32308   3.170   7.552   1.157 -0.2456 -0.1316  0.3345
 1003MOL0     C32309   4.134   6.983   1.355  0.3076 -1.5950  0.8870
 1003MOL0     C32310   4.249   6.909   1.392  0.5095  0.0764  0.9889
 1003MOL0     O32311   4.319   6.608   1.611  0.5078 -0.7396 -0.8542
 1003MOL0     C32312   4.580   6.493   1.604 -0.9978 -0.2968  0.7171
 1003MOL0     C32313   4.713   6.446   1.619  0.0286  0.3210 -0.0878
 1003MOL0     N32314   5.356   6.082   1.332  0.0215  0.1263 -0.5155
 1003MOL0     N32315   5.390   6.091   1.208 -0.0726 -0.0978  0.2129
 1003MOL0     C32316   6.218   6.427   0.503  0.1744  0.2649  0.7219
 1003MOL0     C32317   6.330   6.498   0.454 -0.5551 -0.0743  0.0002
 1003MOL0     C32318   6.598   6.798   0.293  0.7178  0.3278 -0.0105
 1003MOL0     C32319   6.678   6.731   0.198 -0.6785 -0.2269 -0.4784
 1003MOL0     C32320   6.805   6.773   0.162 -0.3640 -1.2306  0.1167
 1003MOL0     C32321   6.862   6.883   0.216 -0.3392 -0.5937  0.3451
 1003MOL0     O32322   6.992   6.935   0.196 -0.0407 -0.0632 -0.8859
 1003MOL0     C32323   7.057   6.930   0.068  0.0454 -0.9866 -0.2479
 1003MOL0     C32324   7.136   7.066   0.052 -1.3462  0.1218 -0.1342
 1003MOL0     C32325   7.289   7.060   0.093  0.2944  1.3014  0.3253
 1003MOL0     C32326   7.384   7.022  -0.014 -0.6569  0.2101 -0.0533
 1003MOL0     C32327   7.526   7.019   0.030 -0.0136  0.2133 -0.5865
 1003MOL0     C32328   7.648   7.020   0.043 -0.3453 -0.0134  0.3106
 1003MOL0     C32329   6.786   6.952   0.308 -0.0285  1.2617 -0.4166
 1003MOL0     C32330   6.659   6.914   0.349  0.5756 -0.3084  0.3020
 1003MOL0     H32331   6.202   6.576   0.152 -3.8348 -1.7294 -0.6378
 1003MOL0     H32332   6.007   6.461   0.233 -1.0998  2.2448  1.3798
 1003MOL0     H32333   5.978   6.421   0.678 -3.8449 -0.2059 -0.5781
 1003MOL0     H32334   6.067   6.274   0.649  0.4432  0.0704  0.1017
 1003MOL0     H32335   5.865   6.222   0.749 -2.7815 -0.2359  1.2801
 1003MOL0     H32336   5.840   6.173   0.578  0.2625  0.3824  0.5697
 1003MOL0     H32337   5.697   6.371   0.529  1.2949  2.6203  0.1327
 1003MOL0     H32338   5.740   6.450   0.671 -1.5322  1.6011 -1.8180
 1003MOL0     H32339   5.590   6.176   0.677 -0.5852 -1.1592  1.7064
 1003MOL0     H32340   5.635   6.254   0.815  1.1272 -1.8651 -0.5954
 1003MOL0     H32341   5.443   6.402   0.620  0.0954  1.3178  0.6126
 1003MOL0     H32342   5.508   6.461   0.769  0.9656  1.0310 -1.9602
 1003MOL0     H32343   5.326   6.209   0.754  4.2648 -3.4288  3.3634
 1003MOL0     H32344   5.272   6.361   0.787  0.3237  0.1906 -0.2573
 1003MOL0     H32345   5.495   6.229   0.958  0.5474  1.0613 -0.9285
 1003MOL0     H32346   5.411   6.380   0.993  1.7138 -0.0388 -1.3808
 1003MOL0     H32347   5.250   6.106   0.964 -1.6989 -1.5112  4.4504
 1003MOL0     H32348   5.190   6.259   0.993 -0.9833 -0.1125  2.0663
 1003MOL0     H32349   5.189   6.353   1.237 -1.8702  0.1730  1.2277
 1003MOL0     H32350   5.273   6.166   1.579 -0.5793 -2.6362 -0.7627
 1003MOL0     H32351   5.115   6.168   1.475  0.4479 -1.5189  0.9508
 1003MOL0     H32352   5.135   6.422   1.478  0.0461 -2.1003 -1.6567
 1003MOL0     H32353   5.296   6.410   1.544  0.1632  1.7487 -1.5342
 1003MOL0     H32354   5.158   6.278   1.747 -4.0218  0.0856  0.4849
 1003MOL0     H32355   5.172   6.456   1.750 -0.0191  0.0221  1.5303
 1003MOL0     H32356   4.932   6.356   1.778 -2.1230  0.1712 -0.4590
 1003MOL0     H32357   4.941   6.297   1.626 -1.3299 -0.8532  2.2202
 1003MOL0     H32358   4.878   6.735   1.539 -2.2276  2.0652  0.3012
 1003MOL0     H32359   4.642   6.820   1.552 -1.1615 -0.1153  0.3342
 1003MOL0     H32360   4.207   6.846   1.719 -2.9602  0.3681  0.5675
 1003MOL0     H32361   3.989   6.964   1.651 -0.5361 -2.8084 -0.3475
 1003MOL0     H32362   3.999   7.250   1.512  1.1705 -1.8825 -1.2361
 1003MOL0     H32363   3.833   7.199   1.549 -1.8719 -1.1029 -0.1761
 1003MOL0     H32364   3.912   7.280   1.264 -0.4176  1.0162  1.0872
 1003MOL0     H32365   3.862   7.405   1.380  0.3190  0.0961  0.2546
 1003MOL0     H32366   3.652   7.274   1.399  0.3807 -2.1510  0.6542
 1003MOL0     H32367   3.715   7.148   1.297 -1.9469  0.2586 -0.8444
 1003MOL0     H32368   3.668   7.435   1.205  2.3805 -1.1967  2.3185
 1003MOL0     H32369   3.726   7.317   1.104 -1.3941  1.2523 -2.3413
 1003MOL0     H32370   3.521   7.169   1.183  0.1563  0.3310  0.0610
 1003MOL0     H32371   3.520   7.276   1.042 -1.2472 -1.9214 -0.1150
 1003MOL0     H32372   3.420   7.453   1.173 -3.9923  0.9990  0.2358
 1003MOL0     H32373   3.405   7.346   1.319 -4.2080  0.0125  0.0364
 1003MOL0     H32374   3.231   7.290   1.067 -1.4607 -0.4957 -0.0343
 1003MOL0     H32375   3.246   7.197   1.215 -1.8226 -0.6039  0.1552
 1003MOL0     H32376   3.166   7.400   1.353  0.9810  0.8806  0.3077
 1003MOL0     H32377   3.061   7.351   1.229  0.5762 -0.1436 -0.8489
 1003MOL0     H32378   4.107   7.014   1.254 -0.9325  0.0514  1.6661
 1003MOL0     H32379   4.331   6.892   1.323 -0.0777 -0.5296  0.4258
 1003MOL0     H32380   4.509   6.412   1.619  0.6744 -1.9951 -0.0722
 1003MOL0     H32381   4.718   6.345   1.657 -0.8750  0.2715 -0.0812
 1003MOL0     H32382   6.215   6.376   0.599 -2.2893 -0.7513  0.1890
 1003MOL0     H32383   6.418   6.504   0.517 -0.4348  0.3919 -0.2024
 1003MOL0     H32384   6.645   6.631   0.173  0.0365 -0.3192 -1.1042
 1003MOL0     H32385   6.867   6.712   0.097  0.5109  1.0756 -1.3639
 1003MOL0     H32386   6.982   6.929  -0.012  0.0433 -5.4406 -0.4259
 1003MOL0     H32387   7.118   6.841   0.049 -0.0446 -0.9265 -0.8414
 1003MOL0     H32388   7.141   7.102  -0.051  4.3875  1.0296  0.0997
 1003MOL0     H32389   7.088   7.140   0.117  1.9727 -1.2173  4.3478
 1003MOL0     H32390   7.297   6.991   0.178 -1.7116 -0.8854 -1.1276
 1003MOL0     H32391   7.311   7.166   0.107 -1.1641  1.9462 -1.7192
 1003MOL0     H32392   7.366   6.922  -0.054  2.2733 -0.6416  0.4899
 1003MOL0     H32393   7.380   7.090  -0.099  0.9017  1.0907  0.5371
 1003MOL0     H32394   7.755   7.015   0.051 -0.2676  1.1247  0.1644
 1003MOL0     H32395   6.826   7.040   0.357  0.9331  0.9646 -0.6399
 1003MOL0     H32396   6.615   6.986   0.417  1.3461  1.3133 -0.8596
 1004MOL0     O32397   5.182   0.304  10.631 -0.1657 -0.5122 -0.0324
 1004MOL0     C32398   5.177   0.334  10.511 -0.2243  0.6677 -0.2497
 1004MOL0     O32399   5.062   0.340  10.429 -0.7851 -0.2581  0.4766
 1004MOL0     C32400   4.959   0.285  10.490  0.6404  0.7891 -0.8321
 1004MOL0     C32401   4.855   0.375  10.504  0.2442 -0.1031 -0.7341
 1004MOL0     C32402   4.724   0.323  10.546 -0.0365 -0.2424 -1.3610
 1004MOL0     C32403   4.708   0.188  10.571 -0.1415  0.0151 -0.9327
 1004MOL0     O32404   4.583   0.134  10.601 -0.5350  0.6457 -0.1572
 1004MOL0     C32405   4.463   0.211  10.576  0.1254 -1.6820  0.2977
 1004MOL0     C32406   4.339   0.127  10.602 -0.0712 -0.0997  0.1553
 1004MOL0     C32407   4.304   0.119  10.757  0.7633  0.1509  0.9416
 1004MOL0     C32408   4.200   0.011  10.782 -0.6652  0.0991 -0.7489
 1004MOL0     C32409   4.085   0.069  10.869 -0.1055  0.1690 -0.7082
 1004MOL0     C32410   3.992   0.177  10.808  0.6096 -0.2868 -0.9771
 1004MOL0     C32411   3.885   0.109  10.717 -0.1062  0.7102 -0.5853
 1004MOL0     C32412   3.778   0.202  10.677  0.2934  0.1481 -0.1550
 1004MOL0     N32413   3.661   0.137  10.622  0.4768 -0.3417 -0.2456
 1004MOL0     C32414   3.535   0.119  10.684 -0.0343 -0.0629  0.0386
 1004MOL0     C32415   3.460   0.058  10.589  0.1201 -0.1356 -0.4730
 1004MOL0     C32416   3.321  -0.001  10.608 -0.7792 -1.0172 -0.2493
 1004MOL0     C32417   3.216   0.075  10.528  0.2352  0.1664  0.4696
 1004MOL0     C32418   3.082  -0.004  10.525  0.1847 -0.8334 -0.2167
 1004MOL0     C32419   2.989   0.058  10.422 -0.7208  0.2611  0.0445
 1004MOL0     O32420   2.928   0.173  10.479  1.0082 -0.3658 -0.1432
 1004MOL0     C32421   2.817   0.235  10.430  0.5805 -0.1841  0.0988
 1004MOL0     C32422   2.768   0.351  10.498 -0.2728  0.7638  0.0138
 1004MOL0     C32423   2.647   0.406  10.466  0.2165 -0.8192  0.8100
 1004MOL0     C32424   2.567   0.350  10.365  0.4496  0.2800  0.2575
 1004MOL0     C32425   2.429   0.402  10.351 -0.3831  0.1771  0.3228
 1004MOL0     O32426   2.386   0.524  10.410  0.3563 -0.4236 -0.1407
 1004MOL0     C32427   2.260   0.560  10.399  0.2135 -0.3484  0.3006
 1004MOL0     C32428   2.232   0.664  10.298  0.2715  0.2170  0.0963
 1004MOL0     C32429   2.096   0.707  10.284  0.0066 -0.1752  0.2832
 1004MOL0     C32430   2.004   0.664  10.380  0.6299  0.7247 -0.6055
 1004MOL0     O32431   1.872   0.689  10.370 -0.0858 -0.7562  0.4202
 1004MOL0     C32432   1.800   0.766  10.477  0.0200  0.1071 -0.2784
 1004MOL0     C32433   1.702   0.671  10.561  0.2114 -0.8140 -0.7839
 1004MOL0     C32434   1.599   0.604  10.466 -1.2763 -0.4322 -0.5124
 1004MOL0     C32435   1.505   0.502  10.548  0.3344 -0.2079 -0.6062
 1004MOL0     C32436   1.392   0.573  10.634  0.4298  0.5578 -0.3648
 1004MOL0     C32437   1.295   0.478  10.712 -0.7744  0.0252  0.1942
 1004MOL0     C32438   1.192   0.535  10.810 -0.1134  0.4118  0.4058
 1004MOL0     C32439   1.072   0.596  10.723  0.2602 -0.4562 -0.2588
 1004MOL0    Cl32440   0.936   0.589  10.830  0.3648 -0.4011  0.0666
 1004MOL0     C32441   2.044   0.590  10.495  0.3430  0.3516 -0.8262
 1004MOL0     C32442   2.169   0.534  10.500  0.0876  0.6823 -0.1864
 1004MOL0     O32443   2.354   0.326  10.278 -0.5832 -0.2695 -1.0633
 1004MOL0     C32444   2.620   0.237  10.297  0.0885 -0.4340  0.0893
 1004MOL0     C32445   2.741   0.185  10.322  0.2344  0.3423  0.1168
 1004MOL0     N32446   3.531   0.058  10.470  0.9175 -0.4490  0.2883
 1004MOL0     N32447   3.651   0.098  10.492 -0.5233 -0.2311  0.0335
 1004MOL0     C32448   4.816   0.098  10.555 -0.0863  0.2107 -0.7090
 1004MOL0     C32449   4.946   0.148  10.524 -0.3186 -0.2236  0.4432
 1004MOL0     C32450   5.310   0.346  10.451  0.1878  0.3591  0.7684
 1004MOL0     C32451   5.327   0.428  10.348 -0.2734 -0.1724  0.9145
 1004MOL0     C32452   5.447   0.458  10.294  0.7517 -0.0552  0.2421
 1004MOL0     C32453   5.560   0.385  10.330 -0.5942  0.4682 -0.0909
 1004MOL0     O32454   5.683   0.403  10.274 -0.1626 -0.1631  0.6765
 1004MOL0     C32455   5.708   0.488  10.159 -0.2612  0.3258  0.4749
 1004MOL0     C32456   5.848   0.467  10.104  0.6121 -0.0083  0.1862
 1004MOL0     C32457   5.960   0.542  10.185 -0.1392  0.7923 -0.3066
 1004MOL0     C32458   6.028   0.461  10.300  0.7148 -0.6365  0.0865
 1004MOL0     C32459   6.158   0.521  10.342 -1.4288  0.5017 -0.0726
 1004MOL0     C32460   6.273   0.569  10.361  0.4171 -0.8616 -0.1135
 1004MOL0     C32461   5.553   0.296  10.435  0.4295 -0.2955  0.8184
 1004MOL0     C32462   5.426   0.281  10.496 -0.5887  0.0915  0.0904
 1004MOL0     H32463   4.881   0.480  10.498 -1.6243  0.5977  1.6943
 1004MOL0     H32464   4.641   0.391  10.563  2.3478  2.9462 -1.6688
 1004MOL0     H32465   4.469   0.246  10.473 -0.8163 -3.0120 -0.2411
 1004MOL0     H32466   4.447   0.302  10.635  2.4924 -0.1716 -1.2283
 1004MOL0     H32467   4.355   0.027  10.558 -0.1657 -0.6713  1.3872
 1004MOL0     H32468   4.254   0.173  10.551  1.3388  2.9692  0.3360
 1004MOL0     H32469   4.266   0.214  10.796 -1.0437 -0.5284  0.9530
 1004MOL0     H32470   4.392   0.079  10.808  0.8775 -2.7333 -1.2407
 1004MOL0     H32471   4.161  -0.031  10.688  1.2484 -0.3796 -1.3814
 1004MOL0     H32472   4.242  -0.074  10.837 -1.1486 -0.4966 -1.2721
 1004MOL0     H32473   4.133   0.115  10.955 -0.1346 -2.2353  0.6974
 1004MOL0     H32474   4.012  -0.007  10.901  1.4336 -0.0435  2.6419
 1004MOL0     H32475   4.049   0.255  10.757  0.4447  0.2008 -0.4195
 1004MOL0     H32476   3.939   0.220  10.893 -0.4633 -1.9203 -0.7611
 1004MOL0     H32477   3.921   0.071  10.621 -0.2119  2.6680 -1.4600
 1004MOL0     H32478   3.843   0.030  10.778 -1.2337 -0.2179 -2.4652
 1004MOL0     H32479   3.822   0.274  10.607  3.6414 -1.2809  0.2895
 1004MOL0     H32480   3.741   0.254  10.765  1.8733  0.0202  0.6140
 1004MOL0     H32481   3.497   0.150  10.781 -0.0345  0.0870 -0.0094
 1004MOL0     H32482   3.291  -0.001  10.713  1.3643 -3.1555  0.4373
 1004MOL0     H32483   3.329  -0.105  10.576  0.8601 -0.4433 -1.8837
 1004MOL0     H32484   3.256   0.082  10.426 -0.8713  0.1486  0.0221
 1004MOL0     H32485   3.201   0.173  10.574  0.6171  0.8184 -0.7690
 1004MOL0     H32486   3.119  -0.103  10.498 -0.8127 -1.0517 -0.8498
 1004MOL0     H32487   3.024  -0.009  10.618  0.3492 -0.8961 -0.1171
 1004MOL0     H32488   2.911  -0.013  10.392 -0.3040 -0.2340  0.1363
 1004MOL0     H32489   3.046   0.084  10.333  2.7751  0.8067  2.2662
 1004MOL0     H32490   2.817   0.386  10.588  0.5859  0.9790 -0.5285
 1004MOL0     H32491   2.614   0.487  10.530  0.2293 -0.6926  0.6559
 1004MOL0     H32492   2.306   0.695  10.225  1.2348  1.1631  1.4202
 1004MOL0     H32493   2.062   0.768  10.201 -2.1113 -2.6764 -0.8109
 1004MOL0     H32494   1.738   0.837  10.422 -1.3681 -0.8484 -0.0223
 1004MOL0     H32495   1.871   0.810  10.547  0.1940 -1.1638  0.3886
 1004MOL0     H32496   1.643   0.720  10.639 -1.4143 -1.1536 -1.7621
 1004MOL0     H32497   1.771   0.599  10.606  0.8479  1.1024  1.4826
 1004MOL0     H32498   1.664   0.563  10.389  1.9055  1.9900  0.6204
 1004MOL0     H32499   1.535   0.675  10.413 -0.3970 -0.5907 -1.8285
 1004MOL0     H32500   1.459   0.437  10.474 -3.2112  0.6588  0.6313
 1004MOL0     H32501   1.566   0.452  10.624 -0.5036  0.9892  0.9287
 1004MOL0     H32502   1.327   0.622  10.561  0.5232  1.6182  0.2435
 1004MOL0     H32503   1.427   0.657  10.694  0.8546 -0.1874  0.4644
 1004MOL0     H32504   1.359   0.406  10.764  0.6172  0.4324 -0.9005
 1004MOL0     H32505   1.237   0.425  10.636 -2.0891 -0.2747  1.3513
 1004MOL0     H32506   1.150   0.459  10.876 -1.2881  0.4657 -0.2457
 1004MOL0     H32507   1.245   0.602  10.879  1.4179  0.0427 -0.3815
 1004MOL0     H32508   1.052   0.539  10.632 -1.3901 -0.0776 -0.1516
 1004MOL0     H32509   1.104   0.697  10.696  1.3866 -0.4831  0.8763
 1004MOL0     H32510   1.969   0.559  10.567  0.6582 -1.3281 -1.1721
 1004MOL0     H32511   2.199   0.460  10.573 -2.6277 -0.9422 -0.5793
 1004MOL0     H32512   2.557   0.186  10.225  1.6107 -1.1676 -0.7602
 1004MOL0     H32513   2.772   0.098  10.265 -2.2939 -0.9697  0.6165
 1004MOL0     H32514   4.803  -0.009  10.567 -0.9217  0.2817 -0.9579
 1004MOL0     H32515   5.028   0.077  10.521  0.1025  0.2827 -1.8570
 1004MOL0     H32516   5.239   0.485  10.322 -1.2244 -0.1149  3.9365
 1004MOL0     H32517   5.461   0.535  10.219 -2.7381  2.0485  1.4850
 1004MOL0     H32518   5.690   0.595  10.172  1.9723  0.8143 -0.0612
 1004MOL0     H32519   5.647   0.450  10.077  1.5060 -1.6261 -0.0442
 1004MOL0     H32520   5.872   0.361  10.097  1.6570  0.2795 -0.9532
 1004MOL0     H32521   5.851   0.503  10.001  0.3056 -1.9640 -0.5369
 1004MOL0     H32522   5.918   0.634  10.227 -0.1574 -0.3534  2.3994
 1004MOL0     H32523   6.036   0.564  10.111 -0.2360 -0.7964 -0.9160
 1004MOL0     H32524   5.961   0.454  10.386  0.8957 -2.0628  0.1258
 1004MOL0     H32525   6.054   0.359  10.270  2.8523  0.0489 -0.5768
 1004MOL0     H32526   6.372   0.603  10.384 -1.0324  3.1953  0.9372
 1004MOL0     H32527   5.641   0.240  10.465 -0.0994 -1.0272  1.0196
 1004MOL0     H32528   5.412   0.213  10.579 -0.7667  0.9256  0.7613
 1005MOL0     O32529   6.864   2.957   0.462 -0.2427  0.2224 -0.2182
 1005MOL0     C32530   6.878   3.082   0.438  0.1449 -0.1041  0.1558
 1005MOL0     O32531   6.775   3.159   0.378 -0.3062 -0.2795 -0.2018
 1005MOL0     C32532   6.656   3.108   0.349 -0.7090  0.0829  0.4568
 1005MOL0     C32533   6.584   3.031   0.446 -0.0897 -0.3477 -0.2205
 1005MOL0     C32534   6.447   3.009   0.429 -0.2691  0.2051 -0.7932
 1005MOL0     C32535   6.386   3.037   0.305  0.1891 -0.5243  0.3774
 1005MOL0     O32536   6.252   3.024   0.296  0.4170 -0.1584  0.3460
 1005MOL0     C32537   6.202   2.969   0.171  0.6466  0.5484  0.0735
 1005MOL0     C32538   6.048   2.961   0.170 -0.7931  0.1234  0.9681
 1005MOL0     C32539   5.988   2.849   0.247  0.4141 -0.0434 -0.2042
 1005MOL0     C32540   6.003   2.714   0.167  0.0313  0.3706  0.1138
 1005MOL0     C32541   5.973   2.594   0.263 -1.0966 -0.2170 -0.0089
 1005MOL0     C32542   5.956   2.462   0.190 -0.3596  0.7424 -0.5484
 1005MOL0     C32543   5.898   2.350   0.277 -0.2508  0.2948 -0.0791
 1005MOL0     C32544   5.917   2.207   0.230  0.6748 -0.3589  0.5805
 1005MOL0     N32545   5.826   2.169   0.113 -0.0102 -0.2887 -0.1059
 1005MOL0     C32546   5.687   2.145   0.126 -0.8528 -0.1485  0.0396
 1005MOL0     C32547   5.658   2.088   0.006  0.7017  0.6454 -0.0976
 1005MOL0     C32548   5.522   2.032  -0.029  1.9275 -0.2595 -0.6869
 1005MOL0     C32549   5.472   2.030  -0.172 -0.2145  0.4853 -0.1295
 1005MOL0     C32550   5.433   2.162  -0.237  0.1189  1.1829 -0.0632
 1005MOL0     C32551   5.379   2.136  -0.379  0.2858  0.5571  0.3144
 1005MOL0     O32552   5.264   2.044  -0.375 -0.2459 -0.0295  0.7027
 1005MOL0     C32553   5.185   2.046  -0.486  0.0331  0.8572  0.6351
 1005MOL0     C32554   5.057   1.985  -0.474 -0.3204 -0.0248  0.9194
 1005MOL0     C32555   4.975   1.978  -0.588 -0.0022 -0.2886 -0.1580
 1005MOL0     C32556   5.021   2.036  -0.713  0.3294  0.0032  0.2280
 1005MOL0     C32557   4.926   2.053  -0.820  0.7350  0.1533  0.8358
 1005MOL0     O32558   4.937   2.176  -0.889  0.9009 -0.1255  0.1569
 1005MOL0     C32559   4.837   2.201  -0.975 -0.2675  0.4526  0.3215
 1005MOL0     C32560   4.860   2.229  -1.110  0.0283  0.4066  0.5024
 1005MOL0     C32561   4.755   2.260  -1.199  0.1366  1.3190 -0.6995
 1005MOL0     C32562   4.629   2.276  -1.136  0.5759 -0.5197 -0.3755
 1005MOL0     O32563   4.530   2.322  -1.211 -0.2553  0.2114 -0.1538
 1005MOL0     C32564   4.500   2.240  -1.321 -0.0668 -0.0434  0.1691
 1005MOL0     C32565   4.364   2.180  -1.309  0.2098 -0.3092 -0.1938
 1005MOL0     C32566   4.353   2.060  -1.214 -0.1808 -0.2120  0.2377
 1005MOL0     C32567   4.206   2.034  -1.183  0.6307 -0.5493 -0.4481
 1005MOL0     C32568   4.178   1.914  -1.090  0.1540  0.2280 -0.0642
 1005MOL0     C32569   4.025   1.929  -1.062 -0.2623  0.3576  0.4739
 1005MOL0     C32570   3.969   1.820  -0.972  0.6524  0.5982 -1.5068
 1005MOL0     C32571   3.829   1.861  -0.902  0.4048 -0.1179  0.0803
 1005MOL0    Cl32572   3.702   1.877  -1.035 -0.2554  0.1151  0.0759
 1005MOL0     C32573   4.607   2.263  -1.003 -0.2828  0.2900  0.8269
 1005MOL0     C32574   4.707   2.227  -0.920 -0.1121  0.7740 -0.2197
 1005MOL0     O32575   4.843   1.962  -0.840 -0.3333 -0.1644  0.1943
 1005MOL0     C32576   5.153   2.085  -0.730 -0.1473 -0.9322 -0.4931
 1005MOL0     C32577   5.224   2.095  -0.614 -0.1087  0.3160 -0.8401
 1005MOL0     N32578   5.763   2.104  -0.080  0.3403 -0.5509  1.0728
 1005MOL0     N32579   5.866   2.142  -0.012 -0.0795  0.1733  0.0345
 1005MOL0     C32580   6.463   3.098   0.205  0.6827 -0.3707  0.3437
 1005MOL0     C32581   6.605   3.128   0.219 -0.0623 -0.3425  0.1492
 1005MOL0     C32582   7.009   3.145   0.455  0.2922 -0.1780  0.3869
 1005MOL0     C32583   7.127   3.078   0.431  0.1819 -1.3550  1.0048
 1005MOL0     C32584   7.254   3.146   0.440  0.7285 -0.4962 -0.5276
 1005MOL0     C32585   7.264   3.282   0.453 -0.1356  0.3129  0.4042
 1005MOL0     O32586   7.380   3.365   0.442  0.2472 -0.4809  0.2680
 1005MOL0     C32587   7.494   3.294   0.397 -0.7080  0.0216  0.8742
 1005MOL0     C32588   7.584   3.254   0.512 -0.3197  0.7667 -0.2722
 1005MOL0     C32589   7.680   3.149   0.451  0.2886 -0.5815 -0.1939
 1005MOL0     C32590   7.788   3.128   0.557 -0.4851  0.2761  0.0995
 1005MOL0     C32591   7.889   3.030   0.515 -0.1110  0.1993  0.0521
 1005MOL0     C32592   7.982   2.974   0.467  0.0806  0.5162  0.1969
 1005MOL0     C32593   7.144   3.345   0.486 -0.8693 -0.6081 -1.1189
 1005MOL0     C32594   7.017   3.281   0.487 -0.3257  0.3765  0.7617
 1005MOL0     H32595   6.634   3.011   0.540 -1.0060 -0.6490  0.2099
 1005MOL0     H32596   6.377   2.973   0.505 -0.0759 -1.1514 -1.2270
 1005MOL0     H32597   6.234   2.865   0.169 -1.4448 -0.1876  1.0970
 1005MOL0     H32598   6.225   3.036   0.087  0.6590 -0.6494 -0.8978
 1005MOL0     H32599   6.020   2.956   0.064  3.8929 -1.4175 -0.4510
 1005MOL0     H32600   6.003   3.052   0.211 -1.7363 -0.4053  1.1386
 1005MOL0     H32601   5.883   2.874   0.265  0.3929  1.5692 -2.1287
 1005MOL0     H32602   6.048   2.846   0.338 -0.8366 -4.2474  0.7089
 1005MOL0     H32603   5.928   2.716   0.087 -1.1319  1.3150  1.1827
 1005MOL0     H32604   6.103   2.712   0.123 -0.6003 -3.3271 -1.5322
 1005MOL0     H32605   5.885   2.603   0.327  1.0022  0.3044  3.0214
 1005MOL0     H32606   6.053   2.579   0.336 -0.1670  1.0773 -0.7207
 1005MOL0     H32607   6.058   2.433   0.161  0.2077 -1.6844  3.1847
 1005MOL0     H32608   5.896   2.471   0.098  0.0261  0.1817 -0.8624
 1005MOL0     H32609   5.941   2.358   0.377 -0.7050  0.1688  0.1292
 1005MOL0     H32610   5.789   2.360   0.280 -0.3938 -0.0456 -2.2856
 1005MOL0     H32611   5.901   2.141   0.316  0.1847  1.7420  2.1924
 1005MOL0     H32612   6.019   2.199   0.191  0.8010 -0.0436  0.8382
 1005MOL0     H32613   5.631   2.144   0.219 -0.2671  1.0893  0.4283
 1005MOL0     H32614   5.453   2.086   0.036  1.2869  0.5836 -2.0230
 1005MOL0     H32615   5.521   1.927   0.003 -0.8130 -0.0921  0.0233
 1005MOL0     H32616   5.385   1.964  -0.168  0.0640  0.0425 -1.0455
 1005MOL0     H32617   5.540   1.967  -0.231  1.1860  0.2334  1.6492
 1005MOL0     H32618   5.353   2.207  -0.178 -0.8833 -0.7246  0.0907
 1005MOL0     H32619   5.520   2.228  -0.241 -0.6983  2.2633 -0.7988
 1005MOL0     H32620   5.458   2.089  -0.438 -3.1460 -3.8124 -1.2956
 1005MOL0     H32621   5.347   2.227  -0.431 -1.2784 -1.2677 -2.1171
 1005MOL0     H32622   5.017   1.952  -0.378  2.5652 -1.1910  1.8372
 1005MOL0     H32623   4.873   1.947  -0.571  0.5461 -1.7075  0.7183
 1005MOL0     H32624   4.959   2.207  -1.149  0.0082  1.6350 -0.2830
 1005MOL0     H32625   4.768   2.275  -1.306  0.3042 -1.4646 -1.1612
 1005MOL0     H32626   4.571   2.156  -1.325  1.7488  1.0939  3.7761
 1005MOL0     H32627   4.496   2.300  -1.412 -1.1026  1.1199  0.9509
 1005MOL0     H32628   4.344   2.147  -1.411  1.2626 -0.2857 -0.4168
 1005MOL0     H32629   4.291   2.256  -1.279 -0.5472 -1.4941  1.0968
 1005MOL0     H32630   4.421   2.080  -1.131  0.0306 -1.3098  0.3382
 1005MOL0     H32631   4.390   1.968  -1.261 -1.7169  0.1964 -1.9239
 1005MOL0     H32632   4.165   2.125  -1.137 -0.9251 -0.9484 -1.0141
 1005MOL0     H32633   4.149   2.027  -1.275  0.2403  2.0498 -0.4900
 1005MOL0     H32634   4.236   1.912  -0.997 -1.0706 -1.8158  0.7217
 1005MOL0     H32635   4.193   1.817  -1.137  2.6872  0.7629 -0.5206
 1005MOL0     H32636   3.969   1.930  -1.156 -2.1074 -1.4791  1.4557
 1005MOL0     H32637   4.000   2.024  -1.015 -0.4990  0.6517 -0.2359
 1005MOL0     H32638   3.946   1.724  -1.019 -0.2837  0.4735 -0.8341
 1005MOL0     H32639   4.038   1.795  -0.891 -1.1799  2.1359  0.6701
 1005MOL0     H32640   3.839   1.956  -0.849 -1.1818  0.0839  0.0726
 1005MOL0     H32641   3.805   1.787  -0.826 -1.8400  1.5964  1.1658
 1005MOL0     H32642   4.515   2.287  -0.951  0.5519  0.3296  2.3646
 1005MOL0     H32643   4.692   2.210  -0.814 -0.9330  2.3631 -0.0547
 1005MOL0     H32644   5.193   2.117  -0.825 -0.8282  0.1057 -0.4352
 1005MOL0     H32645   5.319   2.148  -0.620 -0.3366  0.6612 -1.5363
 1005MOL0     H32646   6.415   3.116   0.110 -1.4886  1.9784  1.7404
 1005MOL0     H32647   6.664   3.185   0.148 -0.3774 -1.7313 -1.2977
 1005MOL0     H32648   7.130   2.971   0.412 -0.8920 -1.6254  2.1820
 1005MOL0     H32649   7.336   3.081   0.410  0.9947  0.4536 -1.9445
 1005MOL0     H32650   7.552   3.355   0.326 -0.7209 -1.3754 -0.3821
 1005MOL0     H32651   7.467   3.209   0.333  1.8509 -0.5519  0.4302
 1005MOL0     H32652   7.628   3.344   0.557  1.5524 -0.4391  0.4308
 1005MOL0     H32653   7.528   3.202   0.590  1.3688 -1.5813 -0.5229
 1005MOL0     H32654   7.727   3.183   0.358  0.8486  0.5252  0.4793
 1005MOL0     H32655   7.627   3.056   0.428 -3.1303  1.6421 -2.1901
 1005MOL0     H32656   7.841   3.222   0.576  0.1419 -0.5752  3.0445
 1005MOL0     H32657   7.733   3.095   0.646 -0.0443 -0.7661 -0.0037
 1005MOL0     H32658   8.057   2.904   0.437 -2.0700 -0.9656 -2.1429
 1005MOL0     H32659   7.146   3.450   0.511  1.6131 -0.5412 -1.3607
 1005MOL0     H32660   6.922   3.330   0.504 -0.4061  1.1868 -1.6227
 1006MOL0     O32661   0.214   5.814   1.794  0.4154 -0.3706 -0.3666
 1006MOL0     C32662   0.175   5.699   1.758  0.6506  0.0110  0.2858
 1006MOL0     O32663   0.060   5.676   1.693 -0.6415 -1.1474  0.7677
 1006MOL0     C32664  -0.024   5.779   1.665  0.0364  1.4160  0.4321
 1006MOL0     C32665  -0.106   5.745   1.553  1.2363 -0.1958  0.3963
 1006MOL0     C32666  -0.215   5.834   1.531  0.1156  0.6986 -0.9753
 1006MOL0     C32667  -0.250   5.943   1.621 -0.8502 -0.3018 -0.0881
 1006MOL0     O32668  -0.355   6.025   1.589  1.0830 -0.2467 -0.7192
 1006MOL0     C32669  -0.411   6.094   1.700  0.1525  0.7636 -0.0433
 1006MOL0     C32670  -0.520   6.181   1.647  0.9068 -0.2162 -0.2321
 1006MOL0     C32671  -0.632   6.112   1.574  0.4529 -0.8788 -0.1456
 1006MOL0     C32672  -0.733   6.207   1.519 -0.2039  0.4220  0.1915
 1006MOL0     C32673  -0.865   6.153   1.460  0.6031  1.3617 -0.0636
 1006MOL0     C32674  -0.958   6.272   1.457 -0.3627  0.2419  0.0262
 1006MOL0     C32675  -1.098   6.237   1.391 -0.0373  0.0743 -0.3230
 1006MOL0     C32676  -1.172   6.121   1.461  0.1283  0.2132  0.6582
 1006MOL0     N32677  -1.315   6.132   1.481 -0.3193 -0.1199  0.0654
 1006MOL0     C32678  -1.415   6.145   1.388  0.2577  0.6445 -0.6268
 1006MOL0     C32679  -1.533   6.182   1.464 -1.0686 -0.2967 -0.1745
 1006MOL0     C32680  -1.672   6.199   1.406 -0.0618 -0.4478 -0.2852
 1006MOL0     C32681  -1.795   6.174   1.496  0.0596  0.4984  0.7886
 1006MOL0     C32682  -1.807   6.259   1.622 -0.4788  0.0284  0.3079
 1006MOL0     C32683  -1.933   6.232   1.704  0.2466  0.3097  0.8651
 1006MOL0     O32684  -2.039   6.271   1.621 -0.4592 -0.2539 -0.1400
 1006MOL0     C32685  -2.163   6.234   1.663 -0.0676  0.3284  0.0251
 1006MOL0     C32686  -2.275   6.265   1.579  0.2088 -0.1397  0.0351
 1006MOL0     C32687  -2.407   6.225   1.597  0.6113  0.1906 -0.1365
 1006MOL0     C32688  -2.437   6.136   1.702 -0.0644 -0.0665 -0.2062
 1006MOL0     C32689  -2.569   6.089   1.728  0.8282 -0.0765 -0.0719
 1006MOL0     O32690  -2.680   6.127   1.648  0.2106  0.1547 -0.0631
 1006MOL0     C32691  -2.810   6.079   1.663 -0.1084 -0.3057 -0.1657
 1006MOL0     C32692  -2.911   6.166   1.623 -0.4964  0.5189 -0.4706
 1006MOL0     C32693  -3.047   6.126   1.632 -0.7419  0.3959  0.5007
 1006MOL0     C32694  -3.082   5.997   1.680 -0.0158  0.3569  0.1155
 1006MOL0     O32695  -3.221   5.980   1.679  0.5815 -0.1172  0.1867
 1006MOL0     C32696  -3.276   5.854   1.673 -0.7398 -1.5859 -0.1484
 1006MOL0     C32697  -3.427   5.881   1.664 -0.0974  0.1164  0.0615
 1006MOL0     C32698  -3.515   5.754   1.676 -0.2922 -0.0649 -0.0525
 1006MOL0     C32699  -3.662   5.780   1.659 -0.3634  0.4964  0.2943
 1006MOL0     C32700  -3.732   5.841   1.791  0.1313  0.4015  0.3411
 1006MOL0     C32701  -3.874   5.880   1.759 -0.3400  0.0401  0.4992
 1006MOL0     C32702  -3.929   5.976   1.858 -0.4839  0.8175  0.7574
 1006MOL0     C32703  -4.079   5.968   1.855 -0.0666 -0.3764  1.0024
 1006MOL0    Cl32704  -4.166   6.058   1.988  0.5486 -0.1351  0.4873
 1006MOL0     C32705  -2.974   5.914   1.717  0.4164  0.1418  0.5346
 1006MOL0     C32706  -2.839   5.948   1.708  0.2678  0.2654  0.5703
 1006MOL0     O32707  -2.579   6.009   1.824 -0.2778  0.2119  0.8259
 1006MOL0     C32708  -2.336   6.107   1.790  0.1454  0.1803  0.7787
 1006MOL0     C32709  -2.202   6.156   1.775  0.2139 -0.3871  0.3796
 1006MOL0     N32710  -1.493   6.175   1.601  0.3465  0.6908  0.4465
 1006MOL0     N32711  -1.373   6.135   1.606 -0.9371  0.0332  0.2946
 1006MOL0     C32712  -0.161   5.962   1.734  1.0392  0.0147  1.1536
 1006MOL0     C32713  -0.054   5.878   1.753  0.0535 -0.2752  0.5001
 1006MOL0     C32714   0.270   5.584   1.776  0.1745 -0.5066  0.4804
 1006MOL0     C32715   0.232   5.451   1.747 -0.1846 -0.6859 -0.0954
 1006MOL0     C32716   0.311   5.346   1.776  0.4895 -0.1402 -0.3403
 1006MOL0     C32717   0.446   5.362   1.819  0.4411  0.0668 -0.1143
 1006MOL0     O32718   0.523   5.249   1.823 -0.4905  0.0623 -1.2266
 1006MOL0     C32719   0.634   5.257   1.916  0.0114  0.4896 -1.2878
 1006MOL0     C32720   0.715   5.129   1.930 -0.0018 -0.0685  0.1032
 1006MOL0     C32721   0.634   5.012   1.983 -0.4566 -1.3471 -0.6399
 1006MOL0     C32722   0.621   4.988   2.133  0.2069  0.2018 -0.5900
 1006MOL0     C32723   0.751   5.013   2.201  0.8339  0.1891 -0.4004
 1006MOL0     C32724   0.846   5.014   2.273  0.2260 -0.4850  0.2058
 1006MOL0     C32725   0.486   5.499   1.841 -0.1758  0.2553 -0.3241
 1006MOL0     C32726   0.406   5.608   1.811  0.3388  0.6285 -0.6142
 1006MOL0     H32727  -0.089   5.659   1.489 -0.5339 -1.5734  1.7009
 1006MOL0     H32728  -0.268   5.820   1.437  3.3865 -1.0980 -2.7200
 1006MOL0     H32729  -0.340   6.160   1.751  0.4798 -1.2079  2.2362
 1006MOL0     H32730  -0.436   6.027   1.782  2.6502  0.7756  0.7950
 1006MOL0     H32731  -0.479   6.252   1.574  2.5365 -0.4102  0.4619
 1006MOL0     H32732  -0.564   6.230   1.735  0.5426 -0.0520 -0.5038
 1006MOL0     H32733  -0.680   6.046   1.647 -1.7840  1.4037  0.5817
 1006MOL0     H32734  -0.599   6.045   1.493 -1.1668 -0.5386 -1.1289
 1006MOL0     H32735  -0.764   6.276   1.597  0.5889  4.9593 -3.0955
 1006MOL0     H32736  -0.686   6.269   1.442 -3.6984 -0.5656 -3.0893
 1006MOL0     H32737  -0.905   6.076   1.527  1.3880  3.8764  3.6154
 1006MOL0     H32738  -0.858   6.110   1.360 -2.8472  0.4658 -0.0325
 1006MOL0     H32739  -0.908   6.352   1.402 -0.9156 -0.5334 -1.6711
 1006MOL0     H32740  -0.973   6.316   1.556 -2.2221  0.1880 -0.1844
 1006MOL0     H32741  -1.157   6.329   1.382  0.2966  0.5026  1.4052
 1006MOL0     H32742  -1.074   6.204   1.290 -0.1426  0.2451 -0.4048
 1006MOL0     H32743  -1.131   6.120   1.562 -0.2030 -0.6156  0.7868
 1006MOL0     H32744  -1.150   6.023   1.417  2.1076  1.6758 -1.9575
 1006MOL0     H32745  -1.418   6.126   1.281 -0.8760  0.8651 -0.6404
 1006MOL0     H32746  -1.689   6.146   1.311  0.9778 -1.5216  0.1119
 1006MOL0     H32747  -1.683   6.306   1.384 -2.2616 -0.2849  1.2917
 1006MOL0     H32748  -1.781   6.069   1.523  1.2457  0.6948  1.0332
 1006MOL0     H32749  -1.885   6.187   1.437 -0.2639  0.9611  1.3688
 1006MOL0     H32750  -1.724   6.252   1.692 -1.0441  0.7323  1.0595
 1006MOL0     H32751  -1.807   6.364   1.591 -1.4653 -0.2765 -0.8504
 1006MOL0     H32752  -1.924   6.294   1.793  2.3987  1.1489  0.1416
 1006MOL0     H32753  -1.932   6.126   1.729  0.6316  0.2608  0.6463
 1006MOL0     H32754  -2.249   6.314   1.486  0.1207  1.9857  1.0761
 1006MOL0     H32755  -2.479   6.259   1.523  1.0381 -1.8057 -1.5732
 1006MOL0     H32756  -2.876   6.265   1.597  1.8967 -0.3742 -0.8778
 1006MOL0     H32757  -3.123   6.202   1.620  0.4354  1.6716  0.7403
 1006MOL0     H32758  -3.257   5.789   1.759  0.2244 -1.2515 -0.0969
 1006MOL0     H32759  -3.239   5.799   1.587 -2.0428  0.5196 -2.1709
 1006MOL0     H32760  -3.451   5.918   1.564  1.1400  2.9028  0.7110
 1006MOL0     H32761  -3.469   5.958   1.729  0.7533 -0.0708  0.8518
 1006MOL0     H32762  -3.513   5.702   1.772 -1.7641  1.0329  0.6079
 1006MOL0     H32763  -3.493   5.696   1.586  1.7009 -0.6949  0.7754
 1006MOL0     H32764  -3.677   5.844   1.571 -0.8135  0.1586  0.1167
 1006MOL0     H32765  -3.716   5.687   1.639 -1.0290  0.7073  1.0900
 1006MOL0     H32766  -3.665   5.922   1.821  2.3698 -0.6702 -1.5298
 1006MOL0     H32767  -3.736   5.768   1.873 -0.3308  0.9741  0.8445
 1006MOL0     H32768  -3.935   5.790   1.748  0.3407 -0.5623  1.5031
 1006MOL0     H32769  -3.876   5.928   1.661  3.5042  0.2684  0.3703
 1006MOL0     H32770  -3.888   5.955   1.958  3.1029 -3.0401 -1.2158
 1006MOL0     H32771  -3.900   6.076   1.825  3.4080  0.2514  1.8949
 1006MOL0     H32772  -4.104   5.863   1.873 -0.7389 -0.2049  1.0929
 1006MOL0     H32773  -4.131   5.984   1.760  0.1326 -0.4943  0.8752
 1006MOL0     H32774  -3.003   5.812   1.742 -3.0977  1.1111  1.0072
 1006MOL0     H32775  -2.759   5.884   1.742 -0.4308 -0.3417  1.0931
 1006MOL0     H32776  -2.353   6.050   1.881 -2.4736 -1.1087 -0.3985
 1006MOL0     H32777  -2.128   6.108   1.838  2.4064  0.4180 -1.4389
 1006MOL0     H32778  -0.173   6.044   1.805  0.6533  1.3142 -0.3579
 1006MOL0     H32779   0.004   5.893   1.844  0.7461  2.3228 -0.2861
 1006MOL0     H32780   0.135   5.443   1.699  1.0830  3.0764 -3.9177
 1006MOL0     H32781   0.258   5.254   1.754  0.0723 -0.6383  2.3716
 1006MOL0     H32782   0.596   5.279   2.016 -3.9512 -3.2683 -1.6970
 1006MOL0     H32783   0.702   5.338   1.886  1.6315  0.1820  1.2915
 1006MOL0     H32784   0.770   5.098   1.840  1.7549 -1.1081  1.4634
 1006MOL0     H32785   0.797   5.160   1.995 -0.7083  0.1404  0.9226
 1006MOL0     H32786   0.690   4.927   1.941 -1.1415 -2.4308  0.5659
 1006MOL0     H32787   0.541   5.003   1.925  0.9080 -0.6479 -3.0933
 1006MOL0     H32788   0.553   5.055   2.187 -0.0812 -2.1425  2.2173
 1006MOL0     H32789   0.577   4.889   2.149 -2.5791  1.1267 -1.7863
 1006MOL0     H32790   0.933   5.017   2.335 -0.9254  0.8153  1.8602
 1006MOL0     H32791   0.588   5.522   1.871  0.3807 -1.3133 -0.9072
 1006MOL0     H32792   0.449   5.706   1.826  2.3637 -0.0538 -1.5080
 1007MOL0     O32793   5.453   8.859  10.082 -0.1222  1.0356 -0.5437
 1007MOL0     C32794   5.463   8.787   9.980 -0.1700 -0.1026 -0.1515
 1007MOL0     O32795   5.547   8.820   9.867  0.9421  0.4760 -0.2246
 1007MOL0     C32796   5.670   8.887   9.896 -0.1387  0.1785  0.3893
 1007MOL0     C32797   5.729   8.950   9.786 -0.2522 -0.1524 -0.0384
 1007MOL0     C32798   5.850   9.018   9.804 -0.1300 -0.9276 -0.7686
 1007MOL0     C32799   5.910   9.018   9.927 -0.8276  0.0614 -0.3245
 1007MOL0     O32800   6.035   9.076   9.932  0.2824 -0.8040 -0.4352
 1007MOL0     C32801   6.132   9.038  10.037 -0.2108 -0.0596  0.7007
 1007MOL0     C32802   6.272   9.060   9.974 -0.0797  0.3216  0.6232
 1007MOL0     C32803   6.374   9.088  10.084  0.1700 -0.7698  0.8748
 1007MOL0     C32804   6.512   9.144  10.034 -0.2580  0.6003 -0.2449
 1007MOL0     C32805   6.611   9.194  10.145 -0.0794 -0.1843  0.5663
 1007MOL0     C32806   6.590   9.338  10.185 -0.0311  0.1056 -0.3739
 1007MOL0     C32807   6.687   9.357  10.301 -0.6497  0.0161  0.0382
 1007MOL0     C32808   6.603   9.342  10.430  0.1369 -0.2934 -1.3740
 1007MOL0     N32809   6.661   9.428  10.535  0.0424 -0.6533 -0.1213
 1007MOL0     C32810   6.783   9.392  10.584 -0.2627 -0.8340 -0.7464
 1007MOL0     C32811   6.799   9.479  10.689 -1.0310 -0.0770 -0.3920
 1007MOL0     C32812   6.909   9.482  10.786 -0.0199 -0.4338 -0.1543
 1007MOL0     C32813   6.969   9.346  10.827 -0.4275  0.3013 -0.4740
 1007MOL0     C32814   6.870   9.269  10.905 -1.3700  0.7567  0.0736
 1007MOL0     C32815   6.922   9.126  10.930  0.0933 -0.2744 -1.3444
 1007MOL0     O32816   6.836   9.025  10.946  0.2558  0.0492 -0.6871
 1007MOL0     C32817   6.760   8.979  10.841  0.5522  0.2828 -0.0138
 1007MOL0     C32818   6.647   8.910  10.878  0.5458 -1.1286 -0.3140
 1007MOL0     C32819   6.540   8.885  10.789  0.3999  0.5104 -0.5296
 1007MOL0     C32820   6.542   8.924  10.661  0.8442 -0.1032  1.0694
 1007MOL0     C32821   6.438   8.886  10.555  0.3687  0.0029 -0.0306
 1007MOL0     O32822   6.304   8.879  10.592 -0.5560  0.7865 -0.9903
 1007MOL0     C32823   6.210   8.829  10.505 -0.0613  0.3677  0.7422
 1007MOL0     C32824   6.120   8.905  10.437  0.9374  0.3731  0.8770
 1007MOL0     C32825   6.018   8.842  10.367  0.3388  0.4673  0.1394
 1007MOL0     C32826   6.012   8.706  10.348  0.3445 -0.3630 -0.1337
 1007MOL0     O32827   5.906   8.664  10.269 -0.8777 -0.7406 -0.0211
 1007MOL0     C32828   5.835   8.563  10.337 -0.0740  0.1462 -0.4157
 1007MOL0     C32829   5.691   8.584  10.280 -0.7855 -0.1052 -0.2206
 1007MOL0     C32830   5.604   8.481  10.359 -0.0407 -0.5971  0.1443
 1007MOL0     C32831   5.474   8.471  10.286  0.4825 -0.7629 -0.7256
 1007MOL0     C32832   5.369   8.393  10.368  0.8804  0.2664  0.0598
 1007MOL0     C32833   5.224   8.436  10.327  0.3499 -0.3700  0.1865
 1007MOL0     C32834   5.124   8.387  10.429  0.1709  0.2774  0.3521
 1007MOL0     C32835   4.979   8.428  10.382  0.0376  0.3344 -1.0591
 1007MOL0    Cl32836   4.921   8.326  10.253  0.0997  0.2117  0.0895
 1007MOL0     C32837   6.094   8.627  10.423 -0.3938 -0.1032 -0.8753
 1007MOL0     C32838   6.200   8.688  10.498  0.5519  0.4369  0.7830
 1007MOL0     O32839   6.478   8.881  10.442 -0.4895  0.5522  0.3250
 1007MOL0     C32840   6.659   8.987  10.619 -0.2939  0.3948  0.0722
 1007MOL0     C32841   6.767   9.014  10.705  0.3828 -0.2431 -0.7548
 1007MOL0     N32842   6.692   9.567  10.689 -0.6935 -0.1356  0.5395
 1007MOL0     N32843   6.621   9.546  10.587  0.4180 -0.1925  0.2886
 1007MOL0     C32844   5.861   8.939  10.031 -0.5242  0.6936  0.2123
 1007MOL0     C32845   5.739   8.875  10.013 -0.9405  0.4087 -0.3332
 1007MOL0     C32846   5.371   8.682   9.957 -0.7462 -0.9323 -0.5074
 1007MOL0     C32847   5.392   8.585   9.861  0.1451 -0.0208  0.1642
 1007MOL0     C32848   5.298   8.486   9.838 -0.3830 -0.3829 -0.4039
 1007MOL0     C32849   5.187   8.479   9.928  0.1689  0.4694 -0.0421
 1007MOL0     O32850   5.089   8.381   9.923 -0.1921 -0.4378  0.4142
 1007MOL0     C32851   5.104   8.288   9.819  0.3073  0.3052 -0.2557
 1007MOL0     C32852   5.002   8.177   9.843 -0.8510  0.7302  0.1338
 1007MOL0     C32853   4.858   8.220   9.838 -0.3523 -0.0282 -0.5440
 1007MOL0     C32854   4.755   8.118   9.888 -0.4360 -0.4056 -0.9608
 1007MOL0     C32855   4.621   8.152   9.844 -0.1018 -0.3750 -1.0503
 1007MOL0     C32856   4.509   8.170   9.785 -0.7551  0.2606  0.0347
 1007MOL0     C32857   5.166   8.566  10.024 -0.1113 -0.0385 -0.2060
 1007MOL0     C32858   5.254   8.680  10.039  0.0056  0.7523 -0.5485
 1007MOL0     H32859   5.682   8.933   9.690 -0.1534 -1.3312  0.0967
 1007MOL0     H32860   5.902   9.072   9.725  0.5631  1.4376  1.2048
 1007MOL0     H32861   6.115   8.935  10.067 -0.4660  0.4170  2.3142
 1007MOL0     H32862   6.114   9.108  10.119  0.3315  0.9443 -0.0104
 1007MOL0     H32863   6.268   9.147   9.908 -1.2824 -1.8921 -2.4392
 1007MOL0     H32864   6.300   8.974   9.912 -1.6107 -0.4886  0.9853
 1007MOL0     H32865   6.376   8.998  10.146 -4.0139 -1.5361  0.2084
 1007MOL0     H32866   6.336   9.167  10.150  0.2380  2.8870 -3.0438
 1007MOL0     H32867   6.568   9.069   9.977 -0.9788  0.2033 -0.4437
 1007MOL0     H32868   6.476   9.229   9.975 -3.6290 -1.0366 -0.7483
 1007MOL0     H32869   6.715   9.179  10.115  0.2379  1.9544  0.4637
 1007MOL0     H32870   6.590   9.124  10.227 -0.7994  1.8699  2.2599
 1007MOL0     H32871   6.483   9.353  10.201  0.4962  1.4859  2.3766
 1007MOL0     H32872   6.614   9.409  10.105 -1.2386 -1.8501 -2.6003
 1007MOL0     H32873   6.773   9.290  10.295  1.0389  2.0049  0.8391
 1007MOL0     H32874   6.728   9.458  10.297  2.1545 -1.0838 -0.7400
 1007MOL0     H32875   6.610   9.239  10.466  2.6075  0.7662  1.7312
 1007MOL0     H32876   6.499   9.369  10.410 -0.4217 -0.9123  0.4392
 1007MOL0     H32877   6.847   9.313  10.546 -0.4195 -1.3715  0.0794
 1007MOL0     H32878   6.873   9.523  10.881  1.4534  0.3091  0.1062
 1007MOL0     H32879   6.983   9.548  10.740 -1.0460  1.1784  0.4212
 1007MOL0     H32880   7.062   9.359  10.883 -0.1178 -1.4341 -0.5134
 1007MOL0     H32881   6.992   9.298  10.731 -3.4050  1.0855 -1.6717
 1007MOL0     H32882   6.846   9.327  10.995  2.3548  2.4193  0.1993
 1007MOL0     H32883   6.788   9.250  10.836  0.2271 -0.7299 -1.5228
 1007MOL0     H32884   6.975   9.128  11.025  0.0242 -0.5124 -1.3013
 1007MOL0     H32885   7.002   9.110  10.856  2.2206  2.1618  0.2203
 1007MOL0     H32886   6.630   8.887  10.983 -2.0335 -3.5192 -1.1321
 1007MOL0     H32887   6.448   8.840  10.825  0.1941  1.2252 -0.1363
 1007MOL0     H32888   6.127   9.013  10.444  0.5133  0.8879 -3.5957
 1007MOL0     H32889   5.927   8.895  10.339  1.7394  2.3644 -1.1351
 1007MOL0     H32890   5.825   8.583  10.444  1.1621 -3.9812  0.6417
 1007MOL0     H32891   5.877   8.463  10.324 -0.2302 -0.0156  0.2677
 1007MOL0     H32892   5.684   8.570  10.171 -0.3538  1.4870 -0.4736
 1007MOL0     H32893   5.646   8.681  10.303  0.0646 -0.2703  2.4843
 1007MOL0     H32894   5.590   8.522  10.459  0.7552  2.0020 -0.7129
 1007MOL0     H32895   5.654   8.383  10.364  0.2329 -0.4613  0.1115
 1007MOL0     H32896   5.435   8.572  10.271 -2.6952 -1.9310 -0.9864
 1007MOL0     H32897   5.500   8.412  10.198 -0.6488 -5.0418  1.5258
 1007MOL0     H32898   5.382   8.411  10.476 -1.9746 -1.3280  0.7760
 1007MOL0     H32899   5.381   8.285  10.351  1.1277  0.8410 -4.4645
 1007MOL0     H32900   5.202   8.404  10.225  2.3130  2.6360 -1.3364
 1007MOL0     H32901   5.222   8.546  10.327 -1.2473 -0.3499  1.4566
 1007MOL0     H32902   5.127   8.279  10.417 -1.2186  0.0322  1.9370
 1007MOL0     H32903   5.148   8.399  10.535 -2.0135  0.4050  0.8832
 1007MOL0     H32904   4.973   8.530  10.343 -0.1685  0.2116 -1.3600
 1007MOL0     H32905   4.912   8.421  10.468  1.9921 -0.0583  0.4909
 1007MOL0     H32906   6.090   8.518  10.428  1.5037 -0.1381  2.6395
 1007MOL0     H32907   6.261   8.622  10.560  0.6493 -1.1092 -0.8825
 1007MOL0     H32908   6.674   9.018  10.516 -0.4853  0.8556  0.1801
 1007MOL0     H32909   6.853   9.063  10.662 -0.8729  1.8582 -1.0319
 1007MOL0     H32910   5.908   8.936  10.129 -0.0861 -2.9875  0.0343
 1007MOL0     H32911   5.698   8.815  10.093  1.5734 -0.6888  0.2222
 1007MOL0     H32912   5.484   8.581   9.804  1.5243  1.7934  2.1078
 1007MOL0     H32913   5.328   8.421   9.757 -1.4487  1.1985 -2.1560
 1007MOL0     H32914   5.202   8.243   9.796 -0.7700 -2.0617 -0.5370
 1007MOL0     H32915   5.084   8.344   9.727  0.3630  0.7681  0.0133
 1007MOL0     H32916   5.018   8.100   9.766 -2.2889 -0.1373  0.6476
 1007MOL0     H32917   5.028   8.132   9.939 -0.3884  0.7742  0.0300
 1007MOL0     H32918   4.829   8.241   9.735  1.3297  1.1567 -0.8140
 1007MOL0     H32919   4.844   8.309   9.900 -0.1810 -1.5182  1.7414
 1007MOL0     H32920   4.782   8.019   9.851  0.8907 -0.5441  0.2546
 1007MOL0     H32921   4.763   8.123   9.997  2.4140  1.1289 -1.1234
 1007MOL0     H32922   4.431   8.200   9.718 -0.3704  2.9886  0.6657
 1007MOL0     H32923   5.087   8.568  10.099 -0.0518  2.6397 -0.0909
 1007MOL0     H32924   5.231   8.762  10.106  0.1614 -0.4448  1.0175
 1008MOL0     O32925   5.370  10.446   8.565  0.5096  0.0212  0.0538
 1008MOL0     C32926   5.406  10.558   8.594 -0.9321 -0.2020  1.3364
 1008MOL0     O32927   5.329  10.663   8.626 -0.4727 -0.1199  0.5444
 1008MOL0     C32928   5.191  10.666   8.635  0.5163  0.2388  0.3649
 1008MOL0     C32929   5.139  10.797   8.637 -0.9691  0.1457  0.0595
 1008MOL0     C32930   5.006  10.821   8.602 -0.4732  0.2516 -0.2150
 1008MOL0     C32931   4.921  10.709   8.576 -0.4905  0.0385 -0.0096
 1008MOL0     O32932   4.791  10.747   8.542  0.4621  0.0534 -1.0992
 1008MOL0     C32933   4.702  10.635   8.536  0.2447  0.4110  0.4940
 1008MOL0     C32934   4.573  10.698   8.474  0.1261  0.4284 -0.2952
 1008MOL0     C32935   4.474  10.596   8.400 -0.5397  0.1053  0.3678
 1008MOL0     C32936   4.341  10.671   8.369 -0.4101  0.2549 -0.0285
 1008MOL0     C32937   4.318  10.724   8.225 -0.7241 -0.0904 -0.6592
 1008MOL0     C32938   4.218  10.629   8.145 -0.6609 -0.2171  0.1369
 1008MOL0     C32939   4.192  10.665   7.997 -0.2974  0.2091 -1.2596
 1008MOL0     C32940   4.313  10.656   7.908  0.7035 -0.3612  0.4686
 1008MOL0     N32941   4.277  10.649   7.765 -0.0942 -0.4129  0.4037
 1008MOL0     C32942   4.243  10.530   7.698 -0.3431 -0.0060  0.4526
 1008MOL0     C32943   4.243  10.564   7.567  0.2194 -0.7575 -0.3099
 1008MOL0     C32944   4.227  10.452   7.462  1.0596 -0.3819 -0.6356
 1008MOL0     C32945   4.081  10.455   7.421 -0.4721 -0.1678  0.0505
 1008MOL0     C32946   4.053  10.340   7.317 -0.0553  0.0076  0.7500
 1008MOL0     C32947   3.905  10.347   7.262 -0.3473 -0.3951 -1.1442
 1008MOL0     O32948   3.827  10.369   7.376 -0.1266  0.2471  0.0392
 1008MOL0     C32949   3.703  10.420   7.368  0.3628  0.2541 -0.5555
 1008MOL0     C32950   3.651  10.456   7.244 -0.5992 -0.7015  1.2577
 1008MOL0     C32951   3.527  10.523   7.222  0.2685 -0.0794  0.3942
 1008MOL0     C32952   3.457  10.566   7.333 -0.0989 -0.7282 -0.8994
 1008MOL0     C32953   3.338  10.644   7.314  0.6350 -0.4970 -0.4031
 1008MOL0     O32954   3.262  10.630   7.201 -0.2908 -0.0059  0.4613
 1008MOL0     C32955   3.140  10.694   7.205 -0.5894  0.2228  0.9297
 1008MOL0     C32956   3.120  10.813   7.128 -0.3154  0.6562  0.7693
 1008MOL0     C32957   3.000  10.877   7.122 -0.3652 -0.4470 -0.4365
 1008MOL0     C32958   2.905  10.847   7.207  0.0152 -0.5086 -0.2405
 1008MOL0     O32959   2.777  10.907   7.207  0.4268 -0.2706  0.0882
 1008MOL0     C32960   2.764  11.050   7.187  0.8067  0.0639  0.1496
 1008MOL0     C32961   2.624  11.088   7.227 -0.0444 -0.7236  0.2642
 1008MOL0     C32962   2.600  11.241   7.247 -0.3314 -0.8837  0.0820
 1008MOL0     C32963   2.471  11.279   7.321 -0.4209  0.9278 -0.1442
 1008MOL0     C32964   2.457  11.428   7.313 -0.6048  0.5054 -0.4432
 1008MOL0     C32965   2.325  11.465   7.376  1.0920  0.3074 -0.0445
 1008MOL0     C32966   2.268  11.601   7.342  0.2954  0.0375  0.2201
 1008MOL0     C32967   2.166  11.649   7.444 -0.6114 -0.1872 -0.3832
 1008MOL0    Cl32968   2.006  11.575   7.423 -0.1118  0.2837 -0.5295
 1008MOL0     C32969   2.916  10.741   7.300 -1.0059  0.0920 -0.3841
 1008MOL0     C32970   3.041  10.659   7.285  0.7312  0.5270 -0.2684
 1008MOL0     O32971   3.313  10.723   7.405  0.4668 -0.0744  0.4083
 1008MOL0     C32972   3.505  10.533   7.467  0.0078  0.0098  1.2747
 1008MOL0     C32973   3.632  10.464   7.487  0.0638 -0.0879 -0.0582
 1008MOL0     N32974   4.257  10.710   7.560 -0.3019  0.5356  0.6382
 1008MOL0     N32975   4.290  10.751   7.677 -0.8062  0.6076  0.1661
 1008MOL0     C32976   4.975  10.578   8.592 -0.0363  0.8821 -0.2935
 1008MOL0     C32977   5.105  10.558   8.616 -0.0321 -0.3125 -0.5313
 1008MOL0     C32978   5.557  10.590   8.610  0.3188 -0.4843  0.5556
 1008MOL0     C32979   5.599  10.717   8.657 -0.4172  0.3652 -0.6380
 1008MOL0     C32980   5.732  10.743   8.674 -0.6378  0.4437 -0.4005
 1008MOL0     C32981   5.837  10.653   8.641 -0.0366  0.1433  0.5928
 1008MOL0     O32982   5.971  10.683   8.670  0.2511 -0.0781 -0.3712
 1008MOL0     C32983   6.083  10.601   8.650  0.6184  0.2927 -0.1754
 1008MOL0     C32984   6.210  10.659   8.703 -0.1593 -0.6492  0.7396
 1008MOL0     C32985   6.299  10.548   8.761 -0.3269  0.3072  0.3801
 1008MOL0     C32986   6.385  10.449   8.665  0.3577  0.1277 -0.0142
 1008MOL0     C32987   6.444  10.536   8.562  0.1634  1.6052 -0.7374
 1008MOL0     C32988   6.469  10.616   8.474  0.3376  0.1925 -0.2657
 1008MOL0     C32989   5.794  10.530   8.589 -0.0032 -0.0811 -0.4849
 1008MOL0     C32990   5.656  10.499   8.577  0.6456 -0.4616 -0.3768
 1008MOL0     H32991   5.197  10.888   8.640 -2.0188  0.8110  2.1965
 1008MOL0     H32992   4.976  10.926   8.601 -1.6075 -0.0391  0.6973
 1008MOL0     H32993   4.686  10.592   8.635 -1.5312 -1.4679 -0.5183
 1008MOL0     H32994   4.725  10.551   8.469 -2.1733  0.2057 -0.1507
 1008MOL0     H32995   4.603  10.748   8.382  0.2783 -2.4113 -1.9076
 1008MOL0     H32996   4.522  10.762   8.546  0.5208 -2.0975  2.4307
 1008MOL0     H32997   4.444  10.520   8.473 -2.4093  2.0386  1.7407
 1008MOL0     H32998   4.517  10.546   8.313  1.4814  2.4429 -0.0879
 1008MOL0     H32999   4.263  10.599   8.394 -1.0211  0.6396 -0.8062
 1008MOL0     H33000   4.343  10.753   8.442  0.1182  0.1248  0.1091
 1008MOL0     H33001   4.410  10.750   8.173  0.0572 -0.1238  0.6699
 1008MOL0     H33002   4.255  10.811   8.246 -1.0839 -0.5340  0.1673
 1008MOL0     H33003   4.117  10.627   8.187 -1.7581 -1.3162 -2.3337
 1008MOL0     H33004   4.252  10.525   8.139  0.4616  0.1453 -0.0026
 1008MOL0     H33005   4.112  10.600   7.962 -2.1094  0.9080  1.3163
 1008MOL0     H33006   4.148  10.765   7.996 -2.2074 -0.5905 -1.1214
 1008MOL0     H33007   4.360  10.564   7.944 -2.2169 -2.0588  0.2601
 1008MOL0     H33008   4.381  10.741   7.922  0.1506  0.4685 -1.5286
 1008MOL0     H33009   4.224  10.434   7.745  0.5467 -1.1058 -1.3299
 1008MOL0     H33010   4.246  10.353   7.504 -0.2279 -0.0935  0.7142
 1008MOL0     H33011   4.297  10.477   7.382  0.8666  1.0361 -0.4003
 1008MOL0     H33012   4.061  10.552   7.375 -1.6884 -1.0586 -1.4195
 1008MOL0     H33013   4.027  10.433   7.513 -0.2859 -0.7297  0.0316
 1008MOL0     H33014   4.123  10.352   7.234 -1.2672  1.1375 -0.1603
 1008MOL0     H33015   4.056  10.243   7.367  1.5337 -0.1187  0.4423
 1008MOL0     H33016   3.879  10.252   7.215  0.6473 -1.2033 -0.1039
 1008MOL0     H33017   3.906  10.424   7.184 -2.0647 -2.3447 -3.2343
 1008MOL0     H33018   3.704  10.420   7.156  1.2358  0.2448  1.9166
 1008MOL0     H33019   3.483  10.539   7.125 -0.1180 -1.4378  0.3221
 1008MOL0     H33020   3.196  10.862   7.068  0.6332 -0.1086  1.3103
 1008MOL0     H33021   2.977  10.955   7.051  0.1360  2.0379  1.9684
 1008MOL0     H33022   2.800  11.076   7.087 -0.7302  0.0167 -0.4430
 1008MOL0     H33023   2.820  11.108   7.262 -1.9318  1.1493  1.5045
 1008MOL0     H33024   2.607  11.047   7.327  2.4696 -1.6708  0.3980
 1008MOL0     H33025   2.555  11.048   7.152 -1.1560  1.2691  0.1632
 1008MOL0     H33026   2.598  11.287   7.148 -0.9257  0.5819  0.7519
 1008MOL0     H33027   2.676  11.296   7.303 -0.8541  2.5974 -2.3400
 1008MOL0     H33028   2.384  11.225   7.284 -0.2987 -0.5013  1.5159
 1008MOL0     H33029   2.481  11.249   7.426 -1.1736 -1.9328 -0.8099
 1008MOL0     H33030   2.456  11.445   7.205  2.3352  1.6081 -0.3955
 1008MOL0     H33031   2.545  11.469   7.364  0.4197 -1.3881 -0.6143
 1008MOL0     H33032   2.331  11.447   7.484  0.1728  1.3216  0.1884
 1008MOL0     H33033   2.254  11.385   7.349  0.7892  0.4432  0.3410
 1008MOL0     H33034   2.353  11.670   7.341  1.8059 -1.6609  2.2599
 1008MOL0     H33035   2.211  11.602   7.249 -2.5138 -0.1654  1.8326
 1008MOL0     H33036   2.146  11.757   7.438  0.7650  0.1654  0.8312
 1008MOL0     H33037   2.193  11.629   7.548 -2.7155 -0.7515  0.0991
 1008MOL0     H33038   2.843  10.711   7.374  0.0570  1.3385  1.2334
 1008MOL0     H33039   3.039  10.574   7.351  1.2407  0.1527 -0.7258
 1008MOL0     H33040   3.445  10.556   7.555 -2.0164  0.7528 -0.2250
 1008MOL0     H33041   3.669  10.440   7.585  2.4291 -2.3397 -1.3783
 1008MOL0     H33042   4.910  10.492   8.582 -0.3170  0.6921  2.4276
 1008MOL0     H33043   5.139  10.455   8.622  1.4859  0.2562  2.8451
 1008MOL0     H33044   5.525  10.793   8.681  0.5999  1.0373  0.4583
 1008MOL0     H33045   5.765  10.842   8.705 -1.0921  0.1893  0.9927
 1008MOL0     H33046   6.108  10.583   8.545 -0.2132  2.0030 -0.7078
 1008MOL0     H33047   6.058  10.508   8.703  1.1647  0.3661  0.2179
 1008MOL0     H33048   6.267  10.717   8.629 -1.7768  0.0660  0.0068
 1008MOL0     H33049   6.181  10.732   8.779 -3.4582 -3.3477  2.3292
 1008MOL0     H33050   6.236  10.496   8.833 -0.3216  0.8524  0.7804
 1008MOL0     H33051   6.368  10.609   8.820  1.9498 -0.9922 -0.7688
 1008MOL0     H33052   6.459  10.389   8.718  0.1647 -0.6990 -0.6578
 1008MOL0     H33053   6.312  10.377   8.627  0.5562 -2.2354  3.5801
 1008MOL0     H33054   6.503  10.684   8.398  1.1855 -0.4641 -0.4843
 1008MOL0     H33055   5.867  10.452   8.569 -0.3199 -0.0759 -1.7767
 1008MOL0     H33056   5.635  10.403   8.530 -2.4970  0.6455 -1.4220
 1009MOL0     O33057   1.500   2.391   4.452  0.2547 -0.2666 -0.1126
 1009MOL0     C33058   1.502   2.345   4.570  0.3570  0.2953  0.0475
 1009MOL0     O33059   1.404   2.289   4.648 -0.1560  0.2065  0.7298
 1009MOL0     C33060   1.277   2.256   4.592 -0.7456 -0.0249 -0.5204
 1009MOL0     C33061   1.242   2.265   4.450 -0.7465 -0.1502 -0.9879
 1009MOL0     C33062   1.118   2.230   4.401 -0.6217  0.1932  0.1143
 1009MOL0     C33063   1.023   2.175   4.487 -0.0717 -0.7729  0.4087
 1009MOL0     O33064   0.904   2.148   4.441  1.5040  0.5889  0.7652
 1009MOL0     C33065   0.810   2.061   4.514 -0.3226 -0.1027 -0.8591
 1009MOL0     C33066   0.673   2.077   4.439  0.1755 -0.2477  0.3085
 1009MOL0     C33067   0.552   2.028   4.526 -0.2842 -0.8453 -0.1987
 1009MOL0     C33068   0.432   2.043   4.441 -0.3655  0.3755 -0.3251
 1009MOL0     C33069   0.304   1.992   4.497  0.5511 -1.5732 -0.2285
 1009MOL0     C33070   0.184   2.033   4.399 -0.1782  1.0389  0.6924
 1009MOL0     C33071   0.053   1.997   4.466 -0.6280 -0.1512 -0.0618
 1009MOL0     C33072  -0.065   2.042   4.385 -0.1525 -0.9335  0.3897
 1009MOL0     N33073  -0.199   2.025   4.457 -0.7056 -0.9518  0.6788
 1009MOL0     C33074  -0.261   2.111   4.536 -0.3835 -0.3617  0.0452
 1009MOL0     C33075  -0.384   2.060   4.554  1.0257 -0.1921 -0.2297
 1009MOL0     C33076  -0.502   2.129   4.616  0.1536  0.3651 -0.2720
 1009MOL0     C33077  -0.595   2.187   4.508  0.0808 -0.5978 -0.6502
 1009MOL0     C33078  -0.670   2.084   4.426 -0.6423  0.4927 -0.1619
 1009MOL0     C33079  -0.782   2.149   4.344 -0.3001  0.1386  0.0804
 1009MOL0     O33080  -0.851   2.050   4.270  0.1681  0.2508 -0.1390
 1009MOL0     C33081  -0.983   2.068   4.269  0.5611 -0.0209 -0.2027
 1009MOL0     C33082  -1.055   2.199   4.269  0.5762  0.8817  0.2556
 1009MOL0     C33083  -1.191   2.203   4.272  0.2981  0.5664 -0.6193
 1009MOL0     C33084  -1.269   2.088   4.280  0.0960  0.1359 -1.4793
 1009MOL0     C33085  -1.417   2.087   4.289 -0.3195 -0.8800  0.5067
 1009MOL0     O33086  -1.479   1.974   4.260 -0.6670 -0.7127 -0.0635
 1009MOL0     C33087  -1.614   1.982   4.234 -0.3977 -0.0465 -0.0363
 1009MOL0     C33088  -1.667   1.863   4.257 -0.0926 -0.7548  0.4635
 1009MOL0     C33089  -1.802   1.837   4.271  0.9386  0.0735 -0.2412
 1009MOL0     C33090  -1.890   1.945   4.240  1.0116  0.2846 -0.0341
 1009MOL0     O33091  -2.025   1.922   4.263 -0.3264 -0.1610 -0.6227
 1009MOL0     C33092  -2.095   1.901   4.139  0.2036 -1.2656  1.0996
 1009MOL0     C33093  -2.239   1.860   4.176 -0.0685  0.2221  0.2148
 1009MOL0     C33094  -2.321   1.852   4.048 -0.0263 -0.0591 -0.4414
 1009MOL0     C33095  -2.459   1.816   4.086 -0.5293  0.8514  0.0614
 1009MOL0     C33096  -2.551   1.797   3.956 -0.2744 -0.3239  0.2084
 1009MOL0     C33097  -2.697   1.736   3.983 -0.0050 -0.3389  0.2252
 1009MOL0     C33098  -2.793   1.800   3.880  1.1702  0.4303 -0.0018
 1009MOL0     C33099  -2.936   1.740   3.864  0.1099  0.5534  0.1794
 1009MOL0    Cl33100  -3.038   1.818   3.744  0.1083  0.2322  0.3576
 1009MOL0     C33101  -1.836   2.071   4.203  0.8147  0.5289  0.3141
 1009MOL0     C33102  -1.699   2.085   4.188 -0.5856 -0.0784 -0.2085
 1009MOL0     O33103  -1.475   2.197   4.313 -0.8255 -0.1194  0.4719
 1009MOL0     C33104  -1.203   1.964   4.258 -0.5909 -0.0940 -1.0840
 1009MOL0     C33105  -1.062   1.959   4.246 -0.3080 -0.1125  0.3435
 1009MOL0     N33106  -0.396   1.942   4.481 -0.5380  0.2555 -0.6636
 1009MOL0     N33107  -0.281   1.927   4.426 -0.4584 -0.1464  0.5145
 1009MOL0     C33108   1.064   2.143   4.622 -0.3764  0.1365  1.0020
 1009MOL0     C33109   1.191   2.180   4.668  0.1649 -0.5861  0.5878
 1009MOL0     C33110   1.630   2.344   4.637  0.0738 -0.0779  0.1263
 1009MOL0     C33111   1.736   2.433   4.603  0.4488 -0.4303 -1.0072
 1009MOL0     C33112   1.860   2.440   4.667 -0.3776  0.9403  0.0990
 1009MOL0     C33113   1.875   2.352   4.780  0.2675  0.6182 -0.5173
 1009MOL0     O33114   1.992   2.333   4.846 -0.3054 -0.7432  0.0281
 1009MOL0     C33115   2.078   2.447   4.859 -0.6644 -0.8452  0.7942
 1009MOL0     C33116   2.008   2.557   4.937  0.3764  0.2522  1.2088
 1009MOL0     C33117   2.120   2.664   4.972  0.2853  0.6009  0.0533
 1009MOL0     C33118   2.146   2.773   4.868 -0.0757  0.0201  0.6449
 1009MOL0     C33119   2.288   2.781   4.844 -0.8826  0.6478 -1.1764
 1009MOL0     C33120   2.407   2.771   4.811  1.2510 -0.6568 -0.2107
 1009MOL0     C33121   1.773   2.256   4.807 -1.0252  1.0086 -0.1038
 1009MOL0     C33122   1.658   2.248   4.735  1.0380 -0.3080 -0.6181
 1009MOL0     H33123   1.310   2.301   4.374  1.5094  0.1299  1.0319
 1009MOL0     H33124   1.094   2.275   4.305  1.0768  1.4078  0.2274
 1009MOL0     H33125   0.807   2.113   4.610  2.3062 -0.9342 -0.2576
 1009MOL0     H33126   0.835   1.956   4.533  1.2806  0.2067 -1.1155
 1009MOL0     H33127   0.673   2.013   4.350 -1.7975 -0.8311  0.6658
 1009MOL0     H33128   0.656   2.182   4.414  0.2215  0.0824  1.6061
 1009MOL0     H33129   0.544   2.089   4.617  1.3517  2.8359 -2.2823
 1009MOL0     H33130   0.563   1.922   4.550 -0.4721 -1.0840 -1.1249
 1009MOL0     H33131   0.421   2.148   4.411  2.5985  0.8449 -0.0740
 1009MOL0     H33132   0.459   1.989   4.350  3.5802 -0.5725  1.1960
 1009MOL0     H33133   0.286   2.041   4.593  3.5485  2.2982 -1.3784
 1009MOL0     H33134   0.314   1.884   4.507 -1.9571 -2.3480 -4.1621
 1009MOL0     H33135   0.199   1.978   4.306  0.3890  2.1435  0.1160
 1009MOL0     H33136   0.186   2.141   4.379  0.0697  0.6745 -1.4532
 1009MOL0     H33137   0.030   1.891   4.481 -0.0253 -0.2236  0.3928
 1009MOL0     H33138   0.048   2.044   4.564  2.9364  3.5681 -1.4103
 1009MOL0     H33139  -0.072   1.972   4.301 -1.1043 -1.1574  0.6377
 1009MOL0     H33140  -0.063   2.144   4.346 -2.8478 -0.8183  0.3350
 1009MOL0     H33141  -0.226   2.208   4.571  2.9260 -0.7743 -1.7275
 1009MOL0     H33142  -0.463   2.213   4.674  1.6445 -0.5561  0.0961
 1009MOL0     H33143  -0.546   2.062   4.691  3.1687 -0.2912  1.0499
 1009MOL0     H33144  -0.530   2.248   4.444 -0.4133  0.0179 -0.5825
 1009MOL0     H33145  -0.672   2.239   4.566  1.0749 -3.5029  3.7322
 1009MOL0     H33146  -0.607   2.036   4.351  0.5413  0.7755  0.6230
 1009MOL0     H33147  -0.712   2.016   4.500  0.4293  1.6481  1.5856
 1009MOL0     H33148  -0.745   2.214   4.264 -0.9682  0.0219 -0.3343
 1009MOL0     H33149  -0.839   2.195   4.425  0.5326 -1.5627  1.7004
 1009MOL0     H33150  -0.997   2.291   4.259  0.6161  0.9032  0.6728
 1009MOL0     H33151  -1.239   2.300   4.284 -1.9146 -0.3534 -1.4633
 1009MOL0     H33152  -1.609   1.777   4.290  0.8539 -0.3892 -0.2133
 1009MOL0     H33153  -1.852   1.748   4.306 -0.7899  0.6138 -1.2313
 1009MOL0     H33154  -2.063   1.814   4.081 -1.0247  0.0159 -1.7194
 1009MOL0     H33155  -2.090   1.986   4.071 -0.8258 -0.8816  1.4919
 1009MOL0     H33156  -2.281   1.928   4.250  0.1566  2.9996 -2.0430
 1009MOL0     H33157  -2.245   1.759   4.217 -0.7447 -0.1722 -0.8105
 1009MOL0     H33158  -2.274   1.784   3.975 -0.8005  0.0148 -1.0281
 1009MOL0     H33159  -2.318   1.952   4.005  2.2548 -0.0847 -0.4765
 1009MOL0     H33160  -2.457   1.722   4.140  0.1362  1.6183  1.4198
 1009MOL0     H33161  -2.502   1.901   4.141 -1.9855  0.8210 -0.9821
 1009MOL0     H33162  -2.498   1.728   3.890  0.5632  2.1745 -1.9078
 1009MOL0     H33163  -2.551   1.892   3.902 -3.6547 -0.7804 -0.8180
 1009MOL0     H33164  -2.731   1.759   4.085  3.4572 -0.7412  1.6204
 1009MOL0     H33165  -2.687   1.627   3.989  0.6918 -0.2368  1.3270
 1009MOL0     H33166  -2.813   1.905   3.904 -2.2261 -0.1640  0.2077
 1009MOL0     H33167  -2.745   1.802   3.782 -0.3870  3.4253 -0.8400
 1009MOL0     H33168  -2.982   1.760   3.961  2.5195  1.2151  1.2546
 1009MOL0     H33169  -2.932   1.631   3.854 -1.0793  0.5068  0.0511
 1009MOL0     H33170  -1.903   2.154   4.182 -0.4225 -0.7309 -0.8856
 1009MOL0     H33171  -1.662   2.186   4.175 -1.1155  0.1875  0.2585
 1009MOL0     H33172  -1.260   1.872   4.251  0.0396 -0.6289  0.3461
 1009MOL0     H33173  -1.008   1.868   4.225  0.2721  0.5506 -1.2603
 1009MOL0     H33174   0.999   2.093   4.692 -2.1949  1.2440  0.1627
 1009MOL0     H33175   1.217   2.165   4.772  1.2417  1.0777  0.5892
 1009MOL0     H33176   1.730   2.503   4.520  0.4391 -1.0236 -1.5143
 1009MOL0     H33177   1.943   2.505   4.640  0.7118 -0.7776 -0.8559
 1009MOL0     H33178   2.105   2.485   4.760 -1.7067  1.6649  1.4028
 1009MOL0     H33179   2.171   2.417   4.908 -0.7376 -0.9037  0.8975
 1009MOL0     H33180   1.925   2.599   4.879  1.3193  1.4089  0.6617
 1009MOL0     H33181   1.957   2.522   5.027 -1.4644  0.8234  0.4495
 1009MOL0     H33182   2.205   2.607   5.011 -2.6759 -2.3868  2.7874
 1009MOL0     H33183   2.098   2.719   5.064  1.2085  1.6524 -0.3378
 1009MOL0     H33184   2.100   2.745   4.773  1.3671  1.3061 -0.4749
 1009MOL0     H33185   2.109   2.871   4.899  2.7473  1.6531 -0.7658
 1009MOL0     H33186   2.508   2.765   4.774  0.2906  0.7458 -3.3936
 1009MOL0     H33187   1.801   2.181   4.881 -1.3364 -0.1729 -1.1617
 1009MOL0     H33188   1.587   2.169   4.756  0.6418  0.3009  0.3968
 1010MOL0     O33189   6.634   1.007   6.359 -0.2867 -0.4482  0.3768
 1010MOL0     C33190   6.696   1.035   6.259  0.3753  0.3311  0.2258
 1010MOL0     O33191   6.651   1.113   6.167 -0.3562 -0.0344  0.1922
 1010MOL0     C33192   6.523   1.173   6.168  0.5673  0.0777  0.1064
 1010MOL0     C33193   6.407   1.132   6.241  0.5215 -0.6076  0.8424
 1010MOL0     C33194   6.286   1.201   6.229  0.3465 -0.2648  0.3196
 1010MOL0     C33195   6.270   1.293   6.139  0.5129 -0.3026 -0.6485
 1010MOL0     O33196   6.150   1.352   6.113 -0.9517  0.0129  0.6182
 1010MOL0     C33197   6.032   1.275   6.078 -0.4675  0.1532  0.0580
 1010MOL0     C33198   5.961   1.352   5.968  0.2865 -0.3559  0.5827
 1010MOL0     C33199   5.828   1.286   5.948 -0.0005  0.2994  0.4545
 1010MOL0     C33200   5.745   1.372   5.849  0.1607  0.1391  0.0245
 1010MOL0     C33201   5.620   1.297   5.798  0.2676  0.1585  0.4786
 1010MOL0     C33202   5.506   1.313   5.898  1.0157  1.2114 -0.8055
 1010MOL0     C33203   5.445   1.451   5.918  0.8007 -0.0473 -0.0230
 1010MOL0     C33204   5.323   1.456   6.013  0.5381 -0.9215 -0.1278
 1010MOL0     N33205   5.258   1.589   6.024 -0.1009 -0.2086  0.2020
 1010MOL0     C33206   5.212   1.663   5.920  0.2351  0.1974  0.0612
 1010MOL0     C33207   5.164   1.776   5.983 -0.2010 -0.6569  0.0479
 1010MOL0     C33208   5.102   1.891   5.905  0.5689 -0.2444  0.0498
 1010MOL0     C33209   5.200   1.956   5.812 -0.0810 -0.6867  0.6343
 1010MOL0     C33210   5.134   2.091   5.773  0.2385 -0.4288  0.9757
 1010MOL0     C33211   5.234   2.172   5.695  0.0411 -0.8208 -0.0268
 1010MOL0     O33212   5.290   2.118   5.582 -0.4086  0.6782  0.8180
 1010MOL0     C33213   5.420   2.139   5.566 -0.1446  1.1782  1.0563
 1010MOL0     C33214   5.511   2.039   5.620  0.0501  0.2912  0.6643
 1010MOL0     C33215   5.646   2.056   5.608 -0.8300 -0.5614  0.5356
 1010MOL0     C33216   5.701   2.171   5.536 -0.6178 -0.7107  0.7854
 1010MOL0     C33217   5.847   2.197   5.512  0.8022  0.4646  0.3306
 1010MOL0     O33218   5.871   2.281   5.403 -0.1212  1.3701  0.2022
 1010MOL0     C33219   6.000   2.311   5.355 -0.1727 -0.1930  0.0538
 1010MOL0     C33220   6.014   2.400   5.243 -0.5128 -0.0630  0.2810
 1010MOL0     C33221   6.139   2.440   5.195 -1.1783 -0.3300  0.0716
 1010MOL0     C33222   6.262   2.385   5.249  0.9411  0.0347 -0.8185
 1010MOL0     O33223   6.385   2.411   5.199  0.1130 -0.0079  0.2042
 1010MOL0     C33224   6.504   2.378   5.275  0.4734 -0.6567 -0.1250
 1010MOL0     C33225   6.621   2.466   5.216  0.3250  0.6770  0.3007
 1010MOL0     C33226   6.753   2.422   5.278 -0.7044 -0.3404 -0.2753
 1010MOL0     C33227   6.865   2.524   5.234  0.5534 -0.1328  0.4173
 1010MOL0     C33228   6.990   2.508   5.315  0.5242 -0.2165  0.3581
 1010MOL0     C33229   7.098   2.589   5.240  0.3513  1.3252  0.3377
 1010MOL0     C33230   7.229   2.557   5.308 -0.0582  0.4179  0.5032
 1010MOL0     C33231   7.341   2.594   5.207  0.1256  0.5300 -0.0929
 1010MOL0    Cl33232   7.355   2.479   5.064 -0.3073  0.2942  0.0361
 1010MOL0     C33233   6.246   2.285   5.344 -0.3333 -0.1860 -0.2519
 1010MOL0     C33234   6.117   2.241   5.385 -0.4511 -0.9120 -0.4012
 1010MOL0     O33235   5.934   2.144   5.581  0.4492  0.1630  0.8893
 1010MOL0     C33236   5.610   2.275   5.489  0.2415  0.0973  0.8432
 1010MOL0     C33237   5.475   2.252   5.502  0.3253  0.1875 -0.4447
 1010MOL0     N33238   5.166   1.762   6.118 -0.0913 -0.0081 -0.4741
 1010MOL0     N33239   5.221   1.645   6.142  0.1978 -0.2436 -0.3753
 1010MOL0     C33240   6.383   1.350   6.077  0.3622  0.7262  0.0337
 1010MOL0     C33241   6.503   1.288   6.089 -0.4771  0.1370 -0.1344
 1010MOL0     C33242   6.835   0.979   6.254  0.1707 -0.7534  0.8091
 1010MOL0     C33243   6.884   0.900   6.359 -0.7790 -0.1883  0.0431
 1010MOL0     C33244   7.022   0.867   6.363 -0.4523  0.0071 -0.6327
 1010MOL0     C33245   7.100   0.901   6.254 -1.2977  0.0250 -0.6555
 1010MOL0     O33246   7.228   0.857   6.256  0.4246 -0.2276  0.4706
 1010MOL0     C33247   7.310   0.850   6.134  0.5545  0.0287  0.5866
 1010MOL0     C33248   7.401   0.980   6.144  0.5390 -0.0840  0.5177
 1010MOL0     C33249   7.535   0.989   6.078  0.2746  0.6429  0.9510
 1010MOL0     C33250   7.582   1.137   6.086  0.0159 -0.0868 -0.0326
 1010MOL0     C33251   7.712   1.150   6.015 -0.2417  0.1492  0.2118
 1010MOL0     C33252   7.818   1.156   5.956  0.1491  0.5753  0.0333
 1010MOL0     C33253   7.049   0.981   6.149 -1.3537  0.1846  0.0917
 1010MOL0     C33254   6.918   1.027   6.154 -0.0330  0.6672  1.2224
 1010MOL0     H33255   6.408   1.044   6.304 -1.5753 -2.1038 -1.0568
 1010MOL0     H33256   6.189   1.190   6.275 -0.4861  2.3618 -0.5878
 1010MOL0     H33257   5.967   1.257   6.164 -1.3802 -0.5839 -0.7631
 1010MOL0     H33258   6.059   1.174   6.047 -2.0354 -0.0590 -0.7094
 1010MOL0     H33259   6.027   1.368   5.883 -2.4296  2.7663 -1.1903
 1010MOL0     H33260   5.934   1.454   6.000  1.6579 -0.1553  1.1724
 1010MOL0     H33261   5.779   1.269   6.045 -1.2682  0.1996 -0.1872
 1010MOL0     H33262   5.847   1.189   5.902 -0.8246 -0.2517  1.2298
 1010MOL0     H33263   5.725   1.461   5.909  0.5872 -0.2450  0.7528
 1010MOL0     H33264   5.803   1.399   5.761  1.2028 -0.7498  0.4137
 1010MOL0     H33265   5.640   1.189   5.794 -0.6039 -0.0066  0.4178
 1010MOL0     H33266   5.584   1.322   5.698  0.3142 -0.7297  0.2260
 1010MOL0     H33267   5.538   1.277   5.996  1.2290  0.1586 -1.2520
 1010MOL0     H33268   5.417   1.257   5.866  1.9424 -0.7210 -0.1534
 1010MOL0     H33269   5.519   1.525   5.947 -0.4168  0.9493  0.6646
 1010MOL0     H33270   5.405   1.483   5.821  0.0578  1.4766  0.7384
 1010MOL0     H33271   5.371   1.452   6.112 -0.6732 -1.6567  0.4575
 1010MOL0     H33272   5.257   1.372   5.991  0.1377 -0.2813 -1.4422
 1010MOL0     H33273   5.230   1.636   5.817  3.6616 -0.1699  0.6376
 1010MOL0     H33274   5.059   1.962   5.976  1.2078 -0.0366  0.2348
 1010MOL0     H33275   5.019   1.846   5.849  1.0685 -0.2841 -0.6637
 1010MOL0     H33276   5.212   1.893   5.723 -1.0870 -0.5044  0.3469
 1010MOL0     H33277   5.299   1.966   5.857  1.3934 -2.3562 -1.9652
 1010MOL0     H33278   5.042   2.071   5.717  0.7537  2.0559 -0.9826
 1010MOL0     H33279   5.117   2.146   5.866 -0.0240  0.7148  0.2774
 1010MOL0     H33280   5.309   2.201   5.769  2.4489 -3.3695 -1.2934
 1010MOL0     H33281   5.191   2.264   5.654  1.7249 -0.9585 -2.3163
 1010MOL0     H33282   5.486   1.944   5.668  2.3997 -0.4459  0.5368
 1010MOL0     H33283   5.716   1.984   5.650 -2.6517 -1.3151  2.5148
 1010MOL0     H33284   5.924   2.445   5.201 -0.3309  1.1830  1.1853
 1010MOL0     H33285   6.151   2.520   5.123  0.8630  1.7172  2.4975
 1010MOL0     H33286   6.525   2.272   5.262 -0.1276 -0.8748  0.6655
 1010MOL0     H33287   6.505   2.397   5.382  0.6864 -2.1510  0.1503
 1010MOL0     H33288   6.604   2.572   5.235  0.9853  0.6039  1.3921
 1010MOL0     H33289   6.607   2.450   5.108 -3.7336  2.2496  0.4317
 1010MOL0     H33290   6.782   2.324   5.241  0.4157 -0.2050  0.1875
 1010MOL0     H33291   6.743   2.431   5.387 -0.4519  0.3332 -0.3014
 1010MOL0     H33292   6.878   2.518   5.126  0.5594  2.2449  0.2226
 1010MOL0     H33293   6.835   2.629   5.244  0.7763 -0.2563  3.0504
 1010MOL0     H33294   7.020   2.403   5.322  3.1789  0.4017 -0.4557
 1010MOL0     H33295   6.963   2.558   5.409  2.7303 -0.0849  0.9801
 1010MOL0     H33296   7.070   2.695   5.238  0.8910  1.4711 -1.2508
 1010MOL0     H33297   7.097   2.564   5.133  1.3031  4.7262 -0.5989
 1010MOL0     H33298   7.234   2.622   5.396  0.2378 -1.1147  1.6870
 1010MOL0     H33299   7.235   2.450   5.334 -0.7570 -0.0447 -1.1025
 1010MOL0     H33300   7.441   2.590   5.250  0.2986 -0.0652 -0.5445
 1010MOL0     H33301   7.325   2.695   5.167  1.4392  0.6602 -0.3321
 1010MOL0     H33302   6.328   2.224   5.381  0.0765 -0.8609 -2.1081
 1010MOL0     H33303   6.118   2.147   5.439  0.4802 -0.2613  0.7492
 1010MOL0     H33304   5.649   2.368   5.448  1.0554  0.0528  1.5006
 1010MOL0     H33305   5.402   2.320   5.458  0.7841  1.2585  0.3991
 1010MOL0     H33306   6.368   1.431   6.006 -0.8592  1.5469  1.1948
 1010MOL0     H33307   6.583   1.315   6.021  1.2230 -0.7042  1.4570
 1010MOL0     H33308   6.806   0.861   6.424 -3.0695  0.5424 -2.1485
 1010MOL0     H33309   7.065   0.812   6.446 -3.5047 -0.1461  0.9994
 1010MOL0     H33310   7.253   0.837   6.042  0.6155 -0.4394  0.6121
 1010MOL0     H33311   7.375   0.762   6.133  0.8723  0.2546 -0.9868
 1010MOL0     H33312   7.342   1.062   6.104  3.3917  1.7598 -0.2125
 1010MOL0     H33313   7.424   1.014   6.246  0.5295 -1.5999  1.0478
 1010MOL0     H33314   7.532   0.960   5.973  1.4733  0.6489  0.8974
 1010MOL0     H33315   7.606   0.925   6.131  0.3314  0.0200  0.1420
 1010MOL0     H33316   7.513   1.201   6.029 -0.2704 -1.0748 -0.8204
 1010MOL0     H33317   7.598   1.179   6.186  1.5183  0.3488 -0.4230
 1010MOL0     H33318   7.918   1.158   5.915  0.1678  0.3320  0.0687
 1010MOL0     H33319   7.114   1.019   6.071  1.7312 -0.8467  1.9745
 1010MOL0     H33320   6.887   1.099   6.080 -1.4418  1.1849  2.2606
 1011MOL0     O33321   8.360  10.645   1.549 -0.0101  0.2092  0.1379
 1011MOL0     C33322   8.370  10.596   1.438 -0.2146  0.9259  1.0194
 1011MOL0     O33323   8.277  10.516   1.375 -0.4300  0.3534 -0.2366
 1011MOL0     C33324   8.143  10.533   1.419  0.5513 -0.1900  0.4358
 1011MOL0     C33325   8.064  10.427   1.478 -1.2512 -0.6822 -0.4584
 1011MOL0     C33326   7.933  10.449   1.522  0.3232 -0.1322  0.8303
 1011MOL0     C33327   7.869  10.568   1.500 -0.4926  0.2989  0.9704
 1011MOL0     O33328   7.741  10.593   1.541 -1.2042  0.1524  0.3818
 1011MOL0     C33329   7.651  10.503   1.606  0.3999 -0.0933  0.8788
 1011MOL0     C33330   7.516  10.579   1.627 -0.2980 -0.2917  0.2032
 1011MOL0     C33331   7.525  10.652   1.764 -0.6684 -0.4326 -1.3361
 1011MOL0     C33332   7.404  10.733   1.786  0.3301 -0.1446  0.1217
 1011MOL0     C33333   7.377  10.733   1.940  0.2627  0.1839  0.4387
 1011MOL0     C33334   7.268  10.846   1.976  0.7193  0.5054  0.5793
 1011MOL0     C33335   7.248  10.866   2.126  0.1958 -0.0139  0.5737
 1011MOL0     C33336   7.147  10.762   2.189 -1.3590  0.1450  0.8635
 1011MOL0     N33337   7.132  10.794   2.327  0.6095  0.2101  0.2976
 1011MOL0     C33338   7.038  10.876   2.371  0.7312  0.6234 -0.1106
 1011MOL0     C33339   7.056  10.869   2.502  0.2133 -0.2064  0.8289
 1011MOL0     C33340   6.972  10.966   2.581  0.5138  0.0877  0.4415
 1011MOL0     C33341   7.029  11.108   2.586 -0.7446  0.2885 -0.9878
 1011MOL0     C33342   6.931  11.199   2.661 -0.5786  0.6344  0.3495
 1011MOL0     C33343   6.888  11.158   2.802 -0.5522 -1.0594 -0.9440
 1011MOL0     O33344   6.816  11.272   2.851  0.5036 -0.0541  0.0802
 1011MOL0     C33345   6.686  11.285   2.797 -0.4907  0.0506  0.0211
 1011MOL0     C33346   6.622  11.185   2.716 -0.4396  0.6346 -0.1640
 1011MOL0     C33347   6.496  11.191   2.669  0.2315 -0.5575 -0.4658
 1011MOL0     C33348   6.417  11.303   2.699 -0.1841  0.2730 -0.3122
 1011MOL0     C33349   6.275  11.317   2.664 -0.1365 -0.0967  1.2067
 1011MOL0     O33350   6.208  11.440   2.687 -0.7423 -0.3178 -0.0834
 1011MOL0     C33351   6.081  11.476   2.642 -0.3252 -0.8654 -0.4099
 1011MOL0     C33352   6.041  11.599   2.693  0.1831 -0.9693  0.7291
 1011MOL0     C33353   5.927  11.653   2.646  0.5815  0.1559  0.0866
 1011MOL0     C33354   5.834  11.580   2.569 -0.0906  0.1973 -0.5238
 1011MOL0     O33355   5.711  11.604   2.522  0.1949  0.3601 -0.5528
 1011MOL0     C33356   5.642  11.730   2.547 -0.0994 -0.2473 -0.2360
 1011MOL0     C33357   5.495  11.706   2.509 -0.3843  0.2493 -0.3752
 1011MOL0     C33358   5.418  11.830   2.475  0.8816 -0.6285 -0.0160
 1011MOL0     C33359   5.270  11.806   2.458 -0.4416  0.4587 -0.4089
 1011MOL0     C33360   5.248  11.740   2.321  1.2794  0.7931  0.0695
 1011MOL0     C33361   5.107  11.677   2.328  0.9767 -0.6413  0.8075
 1011MOL0     C33362   5.081  11.592   2.198 -0.0690 -0.2060 -0.4878
 1011MOL0     C33363   5.155  11.463   2.189 -0.2495 -0.3504  0.2110
 1011MOL0    Cl33364   5.166  11.342   2.329  0.6592 -0.4510 -0.6035
 1011MOL0     C33365   5.876  11.453   2.529  0.2804  0.4075 -0.3840
 1011MOL0     C33366   5.994  11.396   2.569  1.0762 -0.2076  0.2788
 1011MOL0     O33367   6.234  11.237   2.584  0.0783  0.1003  0.5817
 1011MOL0     C33368   6.485  11.407   2.770  0.9261 -0.5106  0.1085
 1011MOL0     C33369   6.612  11.402   2.821 -0.8987 -0.3884 -0.6841
 1011MOL0     N33370   7.166  10.790   2.536 -0.4175  0.2551  0.3754
 1011MOL0     N33371   7.215  10.745   2.418 -0.1657  0.1272 -0.7798
 1011MOL0     C33372   7.941  10.670   1.440 -0.4666  0.2298  0.1438
 1011MOL0     C33373   8.076  10.654   1.402  0.1519 -0.4779  1.3877
 1011MOL0     C33374   8.500  10.622   1.368 -0.4239  0.0622  0.5890
 1011MOL0     C33375   8.526  10.591   1.240  0.0417 -0.0878  0.0975
 1011MOL0     C33376   8.651  10.608   1.183 -0.0588  1.1271 -0.4288
 1011MOL0     C33377   8.754  10.681   1.245 -0.3295  0.6170 -0.3667
 1011MOL0     O33378   8.880  10.707   1.197  0.5131 -0.3498  0.7458
 1011MOL0     C33379   8.929  10.647   1.068  0.6352  0.6621  0.1051
 1011MOL0     C33380   9.076  10.603   1.091 -0.1004 -0.2896  0.0537
 1011MOL0     C33381   9.163  10.726   1.112  0.1359  0.1999  0.0785
 1011MOL0     C33382   9.304  10.687   1.158 -0.4079 -0.2320 -0.2966
 1011MOL0     C33383   9.384  10.655   1.038 -0.1645 -0.2405  0.1191
 1011MOL0     C33384   9.455  10.652   0.951 -0.5669 -0.8363  0.3154
 1011MOL0     C33385   8.730  10.715   1.375 -0.0946  0.1925 -0.3338
 1011MOL0     C33386   8.607  10.688   1.436 -0.0623 -0.3657 -0.2519
 1011MOL0     H33387   8.115  10.331   1.490  1.5447  0.7088 -0.3082
 1011MOL0     H33388   7.879  10.371   1.575  2.2196 -0.5662  2.2347
 1011MOL0     H33389   7.683  10.461   1.702  1.9137  1.4524  1.1045
 1011MOL0     H33390   7.628  10.423   1.535  1.6993  0.0975  0.2197
 1011MOL0     H33391   7.427  10.517   1.645 -0.1991  0.1005  2.3269
 1011MOL0     H33392   7.513  10.649   1.543 -0.2394  4.0170  3.4339
 1011MOL0     H33393   7.611  10.720   1.763 -0.3949 -0.6213  1.1332
 1011MOL0     H33394   7.540  10.587   1.852  0.4002  0.7116 -0.6422
 1011MOL0     H33395   7.408  10.832   1.740 -0.7865 -0.0317  0.2507
 1011MOL0     H33396   7.311  10.689   1.748  0.7632  0.4469 -1.7403
 1011MOL0     H33397   7.466  10.773   1.991  0.1156  2.3100 -0.8277
 1011MOL0     H33398   7.337  10.640   1.981  1.0827 -2.2046 -3.6499
 1011MOL0     H33399   7.172  10.813   1.937  0.9699 -0.0477  0.4130
 1011MOL0     H33400   7.290  10.939   1.924 -1.4690 -0.0632 -1.4967
 1011MOL0     H33401   7.346  10.874   2.172  1.3186  1.0049 -1.8207
 1011MOL0     H33402   7.194  10.959   2.146  1.2311  0.0051  3.7582
 1011MOL0     H33403   7.195  10.664   2.182  3.5183  2.2543  0.2302
 1011MOL0     H33404   7.049  10.765   2.142 -1.0229  0.9018  0.1786
 1011MOL0     H33405   6.963  10.935   2.318  0.8413  0.1890 -0.7658
 1011MOL0     H33406   6.966  10.928   2.684 -0.8034 -0.7562  0.0805
 1011MOL0     H33407   6.867  10.968   2.549 -0.0015 -1.2925  1.8688
 1011MOL0     H33408   7.041  11.144   2.483 -2.2366 -0.4935 -1.4548
 1011MOL0     H33409   7.127  11.116   2.636 -1.5676 -1.4091  1.0329
 1011MOL0     H33410   6.978  11.297   2.661 -0.4343  0.5714  1.3092
 1011MOL0     H33411   6.848  11.221   2.594  0.1745  0.9331 -0.5191
 1011MOL0     H33412   6.972  11.151   2.871 -0.4104 -1.3905 -1.1485
 1011MOL0     H33413   6.830  11.065   2.803 -2.2900 -0.0312 -0.6899
 1011MOL0     H33414   6.656  11.085   2.691 -1.7446 -0.1451  1.0461
 1011MOL0     H33415   6.458  11.111   2.607  1.8143 -1.4981 -0.2689
 1011MOL0     H33416   6.107  11.657   2.758 -1.6021  0.7627  1.1247
 1011MOL0     H33417   5.907  11.755   2.678  0.9936 -0.4256  2.3639
 1011MOL0     H33418   5.694  11.815   2.502 -0.5465  1.2998  1.9931
 1011MOL0     H33419   5.635  11.752   2.654 -1.0365 -0.0925 -0.3201
 1011MOL0     H33420   5.459  11.648   2.595 -0.3837  2.2566  1.0445
 1011MOL0     H33421   5.503  11.634   2.427 -2.8856  0.2002 -0.6651
 1011MOL0     H33422   5.451  11.883   2.385 -0.7251  2.5935  1.1293
 1011MOL0     H33423   5.426  11.907   2.552  0.4366 -0.8804  0.2815
 1011MOL0     H33424   5.230  11.741   2.537  0.3395 -0.5670 -0.8308
 1011MOL0     H33425   5.216  11.901   2.459  0.5152  1.0131  0.7311
 1011MOL0     H33426   5.312  11.652   2.309 -0.5617 -0.8876  1.8552
 1011MOL0     H33427   5.250  11.807   2.234 -1.7800  0.5012 -0.3189
 1011MOL0     H33428   5.036  11.758   2.310  2.7634  0.6083 -1.0893
 1011MOL0     H33429   5.089  11.621   2.420  2.3264 -0.8815  0.9438
 1011MOL0     H33430   4.974  11.568   2.196 -0.8210  1.3796  4.9064
 1011MOL0     H33431   5.102  11.644   2.105  1.3961  1.7299  0.8361
 1011MOL0     H33432   5.255  11.506   2.177 -0.6081  0.8110  1.2283
 1011MOL0     H33433   5.118  11.411   2.100 -1.3689  0.8312 -0.0334
 1011MOL0     H33434   5.798  11.398   2.476  0.2183  0.8700 -0.7853
 1011MOL0     H33435   6.012  11.294   2.538 -0.3004 -0.6189  0.7591
 1011MOL0     H33436   6.428  11.488   2.815  3.5061  0.5871  1.5981
 1011MOL0     H33437   6.655  11.482   2.880 -1.9909 -0.4535  0.2189
 1011MOL0     H33438   7.894  10.768   1.432  1.8892  1.3314 -1.7458
 1011MOL0     H33439   8.132  10.735   1.358 -2.1495  1.0687  1.1261
 1011MOL0     H33440   8.452  10.536   1.182 -0.4629  0.0314  0.6126
 1011MOL0     H33441   8.658  10.574   1.080  1.0840  1.8984 -0.6313
 1011MOL0     H33442   8.926  10.712   0.980 -0.0594  1.5201  0.7497
 1011MOL0     H33443   8.867  10.559   1.048  0.2956  0.1559  2.8913
 1011MOL0     H33444   9.105  10.534   1.171  2.5946  0.1880 -0.3974
 1011MOL0     H33445   9.105  10.560   0.995  0.0998  0.2085 -0.1116
 1011MOL0     H33446   9.130  10.792   1.192 -0.8927 -0.3831  0.1545
 1011MOL0     H33447   9.166  10.780   1.017 -2.8744 -0.9404 -0.7799
 1011MOL0     H33448   9.358  10.774   1.197 -1.4260  0.1050  0.3824
 1011MOL0     H33449   9.316  10.619   1.242  3.9655  1.8247  1.0457
 1011MOL0     H33450   9.514  10.657   0.862  0.2137  0.3719  0.8792
 1011MOL0     H33451   8.810  10.764   1.430  0.9687 -0.8502 -0.9193
 1011MOL0     H33452   8.587  10.740   1.528  0.5032  0.3018 -0.4979
 1012MOL0     O33453   1.330  11.094  11.070 -0.3547  0.8082  0.1007
 1012MOL0     C33454   1.338  10.995  11.138  0.2738  0.5056  0.2194
 1012MOL0     O33455   1.236  10.935  11.212 -0.8722  0.2491  0.2014
 1012MOL0     C33456   1.114  10.987  11.182  0.3650  0.3195 -1.1287
 1012MOL0     C33457   1.091  11.122  11.209  0.5250 -0.5375 -0.0767
 1012MOL0     C33458   0.963  11.170  11.190  0.5284  0.7851 -0.2577
 1012MOL0     C33459   0.853  11.084  11.140 -0.0329 -0.6893 -0.6146
 1012MOL0     O33460   0.723  11.127  11.113 -0.2913  0.4076  0.2333
 1012MOL0     C33461   0.668  11.198  11.217  0.5930 -0.2768  0.2658
 1012MOL0     C33462   0.593  11.329  11.172  0.0342  0.6540 -0.1268
 1012MOL0     C33463   0.557  11.419  11.293 -0.2781  0.3698  0.0380
 1012MOL0     C33464   0.439  11.361  11.374  0.0345  0.2519 -0.2522
 1012MOL0     C33465   0.406  11.447  11.490  0.8658 -0.7515  0.2600
 1012MOL0     C33466   0.311  11.375  11.588  0.0246  0.3852 -0.9735
 1012MOL0     C33467   0.256  11.464  11.702  0.3810 -0.6625  0.2852
 1012MOL0     C33468   0.151  11.563  11.651 -0.3052 -0.1471  0.0615
 1012MOL0     N33469   0.096  11.622  11.775 -0.6208 -0.4539  0.6480
 1012MOL0     C33470   0.014  11.557  11.859  0.4626 -0.6058 -0.1197
 1012MOL0     C33471  -0.031  11.649  11.947 -0.0943 -0.2060 -0.3900
 1012MOL0     C33472  -0.136  11.631  12.055  0.3836 -0.0121  0.0191
 1012MOL0     C33473  -0.215  11.759  12.092 -0.5408  0.7517  0.4673
 1012MOL0     C33474  -0.269  11.747  12.234  0.6989  0.3371  0.3342
 1012MOL0     C33475  -0.318  11.885  12.277  0.5442  0.7719  0.1377
 1012MOL0     O33476  -0.427  11.913  12.197 -0.1252 -0.5024 -0.2677
 1012MOL0     C33477  -0.501  12.026  12.206 -0.4450 -1.0078  0.2757
 1012MOL0     C33478  -0.638  12.015  12.173 -0.0581 -0.1208  0.4516
 1012MOL0     C33479  -0.725  12.122  12.192  0.0750  0.0911 -0.1232
 1012MOL0     C33480  -0.686  12.237  12.254  0.3346 -0.8692  0.0879
 1012MOL0     C33481  -0.776  12.360  12.271 -0.3356 -0.1127 -0.3957
 1012MOL0     O33482  -0.906  12.359  12.234  0.6658  0.0985 -1.0796
 1012MOL0     C33483  -0.991  12.465  12.245  0.2174  1.0673 -0.2505
 1012MOL0     C33484  -1.097  12.471  12.155 -0.5174  0.5415 -0.6801
 1012MOL0     C33485  -1.198  12.564  12.155 -0.1192  0.2237  0.4289
 1012MOL0     C33486  -1.177  12.679  12.239  0.3770 -0.1774  0.2657
 1012MOL0     O33487  -1.262  12.787  12.245  0.2807 -0.3359  0.7922
 1012MOL0     C33488  -1.336  12.825  12.125 -0.8418 -0.0668  0.1649
 1012MOL0     C33489  -1.397  12.961  12.148 -0.2501  0.0023  0.4830
 1012MOL0     C33490  -1.537  12.960  12.188  0.0579  0.5442 -0.7901
 1012MOL0     C33491  -1.543  12.916  12.335  0.0941 -0.1382 -1.2362
 1012MOL0     C33492  -1.692  12.912  12.385 -0.3917 -0.2242  0.2890
 1012MOL0     C33493  -1.766  13.050  12.386  0.1975 -0.4102 -0.7518
 1012MOL0     C33494  -1.893  13.047  12.474 -0.2727  1.1605  0.4195
 1012MOL0     C33495  -1.942  13.188  12.506  0.1213  0.1001 -0.3539
 1012MOL0    Cl33496  -2.070  13.234  12.382 -0.5026  0.0047 -0.2209
 1012MOL0     C33497  -1.075  12.672  12.335  0.6631  0.3530 -0.1446
 1012MOL0     C33498  -0.985  12.562  12.348 -1.1398 -0.1260  0.1764
 1012MOL0     O33499  -0.715  12.453  12.319 -0.1000  0.6117  0.0667
 1012MOL0     C33500  -0.546  12.255  12.277  0.6308 -0.8258 -0.2099
 1012MOL0     C33501  -0.452  12.155  12.237 -0.6290  0.4004  0.3840
 1012MOL0     N33502   0.041  11.760  11.926 -0.6503 -0.5710  0.4542
 1012MOL0     N33503   0.117  11.747  11.825 -0.0075  0.0801  0.0435
 1012MOL0     C33504   0.880  10.947  11.123  0.2727  0.1311  0.0473
 1012MOL0     C33505   1.012  10.900  11.138  0.4765  0.8235 -0.4549
 1012MOL0     C33506   1.472  10.934  11.159 -0.4665 -0.6752  0.7870
 1012MOL0     C33507   1.518  10.872  11.275  0.4771 -0.1393 -0.1178
 1012MOL0     C33508   1.643  10.803  11.272 -0.1232  0.8977  1.0037
 1012MOL0     C33509   1.731  10.794  11.160  0.5359 -0.6530  0.3834
 1012MOL0     O33510   1.851  10.731  11.148 -0.2459 -0.4881 -0.4197
 1012MOL0     C33511   1.876  10.647  11.258  0.3965 -0.3682 -0.0414
 1012MOL0     C33512   1.777  10.526  11.267 -0.6725  0.9877 -0.4739
 1012MOL0     C33513   1.858  10.414  11.342 -0.5896  0.1304  0.1555
 1012MOL0     C33514   1.781  10.277  11.358  0.1733 -0.9365  0.0537
 1012MOL0     C33515   1.863  10.194  11.445  0.0359 -0.5211  0.3346
 1012MOL0     C33516   1.926  10.124  11.522  0.0160  0.1782  0.9717
 1012MOL0     C33517   1.678  10.853  11.049 -0.0648 -0.1098 -0.1387
 1012MOL0     C33518   1.548  10.914  11.040 -0.2275 -0.2704 -0.2068
 1012MOL0     H33519   1.170  11.182  11.252  1.8698 -1.1782 -1.5446
 1012MOL0     H33520   0.946  11.277  11.199  0.4769  0.8015 -0.5412
 1012MOL0     H33521   0.743  11.240  11.284  0.4026  2.6284 -1.1979
 1012MOL0     H33522   0.598  11.136  11.274  1.8954 -0.6472  1.5148
 1012MOL0     H33523   0.498  11.289  11.135  0.2448 -0.8749  0.9123
 1012MOL0     H33524   0.639  11.387  11.091  0.4304  1.0778  0.3942
 1012MOL0     H33525   0.511  11.512  11.259 -0.9871  0.0438  0.0711
 1012MOL0     H33526   0.648  11.444  11.348 -0.1867  1.0975 -0.4400
 1012MOL0     H33527   0.357  11.352  11.303 -1.3113  1.4070  1.1137
 1012MOL0     H33528   0.462  11.263  11.417 -0.5647  0.7810  1.3495
 1012MOL0     H33529   0.378  11.547  11.455  2.7621 -0.5247 -0.7569
 1012MOL0     H33530   0.495  11.476  11.548  0.9538 -2.0094  0.7747
 1012MOL0     H33531   0.363  11.293  11.638  1.8232  0.7621 -2.1231
 1012MOL0     H33532   0.224  11.330  11.540 -0.3088 -0.5371  0.4401
 1012MOL0     H33533   0.213  11.400  11.780 -1.7861  1.4324  0.8965
 1012MOL0     H33534   0.339  11.522  11.744 -0.3020 -1.1629  2.4449
 1012MOL0     H33535   0.078  11.520  11.582 -1.3325  1.3287  0.1702
 1012MOL0     H33536   0.198  11.646  11.598 -1.1316  1.1264  1.2539
 1012MOL0     H33537   0.000  11.450  11.857  1.9481 -0.8176 -0.3725
 1012MOL0     H33538  -0.083  11.577  12.134 -1.2833 -4.3641 -1.5487
 1012MOL0     H33539  -0.215  11.564  12.021 -1.0568  1.4463  0.3806
 1012MOL0     H33540  -0.295  11.776  12.020 -0.5124 -1.2930 -0.1006
 1012MOL0     H33541  -0.145  11.843  12.087 -1.5503  1.5527 -0.8402
 1012MOL0     H33542  -0.357  11.682  12.235 -0.6141  1.9557 -1.3088
 1012MOL0     H33543  -0.185  11.711  12.293  1.6508  2.6767  0.4975
 1012MOL0     H33544  -0.245  11.966  12.270 -0.2807  1.7391  2.0787
 1012MOL0     H33545  -0.341  11.873  12.383  0.7392  0.2484  0.1256
 1012MOL0     H33546  -0.676  11.918  12.143  2.4606 -1.2784  0.7089
 1012MOL0     H33547  -0.831  12.117  12.173 -0.5367 -3.1958  3.0564
 1012MOL0     H33548  -1.105  12.393  12.080 -1.0531  1.6810 -1.8303
 1012MOL0     H33549  -1.285  12.550  12.092 -0.9689 -1.0131  1.8094
 1012MOL0     H33550  -1.417  12.753  12.109 -0.4356 -0.5543  0.3062
 1012MOL0     H33551  -1.270  12.834  12.039  0.6482  0.0855  1.2918
 1012MOL0     H33552  -1.391  13.018  12.055  0.8463 -0.0891  0.4908
 1012MOL0     H33553  -1.340  13.011  12.227 -0.7457 -1.6740  1.9902
 1012MOL0     H33554  -1.596  12.884  12.136  0.3877 -0.5359  0.3784
 1012MOL0     H33555  -1.562  13.066  12.179  3.1851  1.3213 -1.5691
 1012MOL0     H33556  -1.500  12.816  12.340  3.7760  1.1771 -2.5439
 1012MOL0     H33557  -1.472  12.962  12.405  0.5279 -0.7822 -1.2442
 1012MOL0     H33558  -1.687  12.862  12.483 -0.3841 -0.5564  0.1214
 1012MOL0     H33559  -1.752  12.851  12.317 -0.2526 -0.8037  0.6719
 1012MOL0     H33560  -1.781  13.104  12.292  1.0489  2.4634  0.6653
 1012MOL0     H33561  -1.690  13.108  12.438  0.4834 -1.3550 -0.0943
 1012MOL0     H33562  -1.973  12.995  12.420  0.0629  1.1452 -0.0692
 1012MOL0     H33563  -1.856  12.995  12.563 -0.9940  0.3267  0.2483
 1012MOL0     H33564  -1.859  13.260  12.502  0.0186  0.1458 -3.3115
 1012MOL0     H33565  -1.999  13.188  12.600  0.6971 -0.9092  0.0146
 1012MOL0     H33566  -1.087  12.753  12.406  1.8346  1.2009 -0.8979
 1012MOL0     H33567  -0.911  12.565  12.428 -1.1109 -0.1006  0.1484
 1012MOL0     H33568  -0.506  12.352  12.303  1.7292 -0.8523 -1.6402
 1012MOL0     H33569  -0.345  12.172  12.243 -0.3247 -1.1499 -0.2094
 1012MOL0     H33570   0.791  10.886  11.111  1.0262 -1.2289  1.2387
 1012MOL0     H33571   1.028  10.793  11.137 -0.1485  0.7048  0.5153
 1012MOL0     H33572   1.452  10.864  11.360  2.0033 -2.1774  0.9541
 1012MOL0     H33573   1.673  10.751  11.362  1.7880 -0.4940 -0.3683
 1012MOL0     H33574   1.876  10.698  11.355  0.3294  4.4107 -2.3198
 1012MOL0     H33575   1.980  10.613  11.247  0.5858 -0.4875  1.7395
 1012MOL0     H33576   1.686  10.541  11.325  0.9780 -0.7558  2.8970
 1012MOL0     H33577   1.764  10.494  11.163 -1.4155 -2.1842  0.4811
 1012MOL0     H33578   1.881  10.441  11.445 -1.3150  0.6116  0.1967
 1012MOL0     H33579   1.949  10.391  11.285 -1.8004 -0.2293 -1.7122
 1012MOL0     H33580   1.684  10.290  11.406 -0.8039 -2.9182 -1.2403
 1012MOL0     H33581   1.766  10.227  11.262  2.8092  2.7526 -2.5421
 1012MOL0     H33582   1.980  10.084  11.606 -0.0710  0.1317  1.0049
 1012MOL0     H33583   1.730  10.848  10.954 -0.7060 -0.1148 -0.4967
 1012MOL0     H33584   1.511  10.950  10.944 -1.4780 -1.0227 -0.0327
 1013MOL0     O33585   4.953   0.259   2.954  0.0463 -0.0171 -0.1324
 1013MOL0     C33586   5.014   0.226   2.853 -0.5316  0.1671 -0.0309
 1013MOL0     O33587   4.954   0.229   2.728 -0.0280  0.0704 -0.3906
 1013MOL0     C33588   4.817   0.248   2.730 -0.0175 -0.1819 -0.2098
 1013MOL0     C33589   4.730   0.146   2.752  1.0583  0.6196  0.6274
 1013MOL0     C33590   4.590   0.166   2.765 -0.1074 -0.1764  0.1574
 1013MOL0     C33591   4.535   0.295   2.742  0.8965 -0.0868  0.1721
 1013MOL0     O33592   4.399   0.304   2.766 -0.0061 -0.3348 -0.6172
 1013MOL0     C33593   4.343   0.431   2.758  1.0124 -0.2364  0.6090
 1013MOL0     C33594   4.184   0.412   2.773  0.6870 -0.1035 -0.5783
 1013MOL0     C33595   4.140   0.390   2.925  0.7721  0.2998 -0.0244
 1013MOL0     C33596   3.982   0.380   2.950  0.1710 -0.5855 -1.4901
 1013MOL0     C33597   3.957   0.334   3.112  0.8539 -0.0933  0.0673
 1013MOL0     C33598   3.990   0.455   3.199  0.0843 -0.2373 -0.0223
 1013MOL0     C33599   3.992   0.439   3.352 -0.3025 -0.0502  0.2729
 1013MOL0     C33600   4.041   0.569   3.413 -0.1279 -0.2372  0.7584
 1013MOL0     N33601   3.966   0.690   3.363 -0.4825  0.0944  0.4088
 1013MOL0     C33602   3.828   0.721   3.373 -0.0727 -0.0087  0.4055
 1013MOL0     C33603   3.809   0.852   3.355  0.4056 -0.0745 -0.2404
 1013MOL0     C33604   3.678   0.919   3.352  0.2952 -0.8793  0.7237
 1013MOL0     C33605   3.664   1.026   3.460  1.0008  0.2146  0.1736
 1013MOL0     C33606   3.559   1.001   3.577  0.7829  0.5586 -0.0435
 1013MOL0     C33607   3.420   1.000   3.513  0.3380 -0.0415 -0.6669
 1013MOL0     O33608   3.308   1.010   3.608  0.1356  0.5887 -0.4422
 1013MOL0     C33609   3.193   0.942   3.581  0.1439  0.6078 -0.1642
 1013MOL0     C33610   3.105   0.922   3.686 -0.7358 -0.1409 -0.5928
 1013MOL0     C33611   2.974   0.875   3.672 -0.2889 -0.4430 -0.0622
 1013MOL0     C33612   2.929   0.841   3.543  1.0027 -1.0252  0.5138
 1013MOL0     C33613   2.792   0.772   3.533 -1.5066 -0.3367 -0.1072
 1013MOL0     O33614   2.740   0.717   3.639 -0.4106  0.4032  0.3677
 1013MOL0     C33615   2.601   0.693   3.645 -0.0739  0.2570 -0.6908
 1013MOL0     C33616   2.506   0.781   3.612 -0.0648  0.2405  0.8708
 1013MOL0     C33617   2.367   0.759   3.615  0.3477 -0.0332 -1.0318
 1013MOL0     C33618   2.321   0.631   3.662  0.1235 -1.5343 -0.2660
 1013MOL0     O33619   2.191   0.606   3.690 -0.1047  0.1130  0.0610
 1013MOL0     C33620   2.119   0.716   3.755  0.9278  0.5964  0.9727
 1013MOL0     C33621   1.997   0.665   3.834  0.6045 -0.1139 -0.6962
 1013MOL0     C33622   1.897   0.595   3.742 -0.5829  0.0264  0.2470
 1013MOL0     C33623   1.774   0.558   3.828 -0.1589 -0.9563 -0.0229
 1013MOL0     C33624   1.687   0.462   3.743  0.4161 -0.0443 -1.1800
 1013MOL0     C33625   1.555   0.427   3.820 -0.1725  0.7433 -0.4951
 1013MOL0     C33626   1.452   0.525   3.814 -0.2648  0.0947  0.4801
 1013MOL0     C33627   1.332   0.522   3.906 -0.4294 -0.3034 -0.7385
 1013MOL0    Cl33628   1.193   0.428   3.853  0.2285 -0.2137 -0.0211
 1013MOL0     C33629   2.419   0.538   3.706  0.6757 -0.6254  0.2832
 1013MOL0     C33630   2.553   0.565   3.681  0.0125  0.8318 -0.2528
 1013MOL0     O33631   2.755   0.759   3.417  0.4183 -0.1157  0.2201
 1013MOL0     C33632   3.012   0.872   3.435  0.4203 -0.5659  0.1206
 1013MOL0     C33633   3.143   0.911   3.454 -0.6209 -0.8796 -0.3483
 1013MOL0     N33634   3.933   0.907   3.328 -0.4998 -0.4634 -0.2627
 1013MOL0     N33635   4.019   0.809   3.324  0.8897 -0.5191 -0.2004
 1013MOL0     C33636   4.628   0.406   2.720  1.6383 -0.1734 -0.1007
 1013MOL0     C33637   4.764   0.378   2.713 -0.7818  0.3901  0.7329
 1013MOL0     C33638   5.161   0.195   2.860 -0.3674  0.8341  0.0014
 1013MOL0     C33639   5.227   0.172   2.983  0.8139 -0.3375  0.4888
 1013MOL0     C33640   5.366   0.147   2.983 -0.2902  1.5630  0.0662
 1013MOL0     C33641   5.442   0.137   2.866  0.2665 -0.7531  0.8188
 1013MOL0     O33642   5.575   0.100   2.879 -0.0964 -0.0314 -0.1431
 1013MOL0     C33643   5.646   0.047   2.771 -0.2461  0.8447 -0.2436
 1013MOL0     C33644   5.749  -0.060   2.828  0.1100 -0.2028  0.7962
 1013MOL0     C33645   5.854   0.019   2.924  0.0498 -0.0089  0.1459
 1013MOL0     C33646   5.951  -0.091   2.953  0.1281  0.3845  0.1217
 1013MOL0     C33647   6.082  -0.046   2.994 -0.0291  0.5159 -0.2618
 1013MOL0     C33648   6.193  -0.015   3.012  0.5923 -0.3031  0.1832
 1013MOL0     C33649   5.373   0.156   2.741 -0.6551 -0.5502  0.0711
 1013MOL0     C33650   5.238   0.189   2.734  0.2101  0.5430  0.4048
 1013MOL0     H33651   4.765   0.044   2.761  0.9940  0.1212 -3.1555
 1013MOL0     H33652   4.523   0.080   2.778 -0.2679 -0.1718 -0.6333
 1013MOL0     H33653   4.363   0.474   2.660 -2.3412 -1.2255 -0.6829
 1013MOL0     H33654   4.380   0.497   2.836  0.5077  1.7299 -0.7271
 1013MOL0     H33655   4.147   0.330   2.711  0.7937 -2.0514  1.7621
 1013MOL0     H33656   4.132   0.504   2.745  1.4782  0.0442 -1.6323
 1013MOL0     H33657   4.187   0.479   2.967 -2.6458  3.2824 -1.9986
 1013MOL0     H33658   4.194   0.305   2.969  1.9671  1.7958  1.5155
 1013MOL0     H33659   3.937   0.479   2.933 -0.3087 -0.0913  1.8356
 1013MOL0     H33660   3.944   0.303   2.883  0.0642 -2.1364  0.2710
 1013MOL0     H33661   4.020   0.247   3.135  1.2062 -0.8033 -3.1590
 1013MOL0     H33662   3.852   0.306   3.127  0.9897  0.0973  1.5812
 1013MOL0     H33663   3.924   0.536   3.165  0.0002 -0.1000  0.4676
 1013MOL0     H33664   4.091   0.488   3.171 -0.2880  1.4282  0.4452
 1013MOL0     H33665   3.888   0.422   3.381 -0.4205  0.6007  0.2390
 1013MOL0     H33666   4.057   0.354   3.378 -1.1192 -0.2218  1.8820
 1013MOL0     H33667   4.146   0.589   3.387  0.0611 -0.4068  1.3733
 1013MOL0     H33668   4.022   0.558   3.520 -2.1302 -0.6065  0.3968
 1013MOL0     H33669   3.740   0.662   3.394 -0.8945  1.2887  0.7423
 1013MOL0     H33670   3.606   0.839   3.374  1.7277 -1.8816  1.9781
 1013MOL0     H33671   3.663   0.969   3.256 -0.1578 -3.2861 -0.5550
 1013MOL0     H33672   3.639   1.122   3.416  1.1144  0.6569  1.0469
 1013MOL0     H33673   3.766   1.037   3.498  0.4414  0.4379  1.6826
 1013MOL0     H33674   3.579   0.908   3.629  2.4294  1.9472  1.9713
 1013MOL0     H33675   3.555   1.091   3.639  0.6250  0.1429  0.5559
 1013MOL0     H33676   3.407   0.910   3.452 -1.7278 -0.7914  0.7739
 1013MOL0     H33677   3.407   1.093   3.457 -0.8651 -1.2620 -2.5228
 1013MOL0     H33678   3.139   0.948   3.785  2.5529  1.7126 -2.0324
 1013MOL0     H33679   2.915   0.857   3.761  1.4467 -1.5878  0.9072
 1013MOL0     H33680   2.535   0.879   3.577 -0.8321  0.9776  2.2324
 1013MOL0     H33681   2.299   0.835   3.576 -0.9028  0.0127  1.0791
 1013MOL0     H33682   2.088   0.786   3.677  2.5933  0.3498  0.0418
 1013MOL0     H33683   2.176   0.778   3.824  0.4428  0.4090  1.5503
 1013MOL0     H33684   1.945   0.749   3.881  1.3885  0.2813 -0.5116
 1013MOL0     H33685   2.030   0.594   3.910  0.0489 -0.7608 -1.0481
 1013MOL0     H33686   1.941   0.502   3.704  2.6919  0.6748  2.0521
 1013MOL0     H33687   1.875   0.648   3.649 -0.0675 -0.1605  0.0136
 1013MOL0     H33688   1.803   0.506   3.919 -1.2689 -0.4359  0.6514
 1013MOL0     H33689   1.723   0.652   3.853 -0.0396 -0.6889 -0.7521
 1013MOL0     H33690   1.733   0.364   3.724  0.4134 -0.5573  1.1938
 1013MOL0     H33691   1.665   0.509   3.646  3.2253  1.3363 -1.2423
 1013MOL0     H33692   1.583   0.407   3.924 -0.5432 -0.1473 -0.5579
 1013MOL0     H33693   1.520   0.339   3.764 -2.0967  0.7399  0.6312
 1013MOL0     H33694   1.505   0.620   3.826  1.1034 -0.5511 -0.1915
 1013MOL0     H33695   1.416   0.518   3.711  0.1938  1.3404  0.2160
 1013MOL0     H33696   1.302   0.626   3.922  3.3362  1.3138 -3.0319
 1013MOL0     H33697   1.360   0.470   3.998 -2.1618 -1.8355 -1.0249
 1013MOL0     H33698   2.383   0.441   3.738 -1.5344  0.4131  1.1771
 1013MOL0     H33699   2.619   0.479   3.690 -3.1732 -2.3761 -3.9666
 1013MOL0     H33700   2.986   0.850   3.332 -1.6987 -2.6660  1.0124
 1013MOL0     H33701   3.203   0.932   3.366 -3.3140  2.2574 -1.6395
 1013MOL0     H33702   4.594   0.507   2.699 -2.7266 -0.9969  1.9428
 1013MOL0     H33703   4.841   0.454   2.704 -0.2620 -0.2032  0.1362
 1013MOL0     H33704   5.179   0.172   3.080 -2.3019  1.2679 -0.9312
 1013MOL0     H33705   5.422   0.132   3.075  1.3405 -0.0299 -1.1205
 1013MOL0     H33706   5.700   0.128   2.722  1.1781 -0.8641 -1.6807
 1013MOL0     H33707   5.579  -0.004   2.700  1.6116 -1.1582 -0.6711
 1013MOL0     H33708   5.705  -0.146   2.880  1.9718 -1.5771  0.2149
 1013MOL0     H33709   5.813  -0.098   2.748  1.1625  0.8934  1.0834
 1013MOL0     H33710   5.805   0.068   3.009 -3.1434  0.7218 -1.9333
 1013MOL0     H33711   5.901   0.100   2.866 -0.6070  1.6476  1.8237
 1013MOL0     H33712   5.907  -0.136   3.043  0.3186  0.5827  0.3136
 1013MOL0     H33713   5.968  -0.168   2.877 -3.3607 -1.5220  1.0314
 1013MOL0     H33714   6.293   0.013   3.038  1.0404  1.2256 -2.7061
 1013MOL0     H33715   5.433   0.140   2.652  0.1735 -0.3800  0.5875
 1013MOL0     H33716   5.181   0.188   2.642 -2.0606 -0.2462  1.7420
 1014MOL0     O33717  10.204   9.571   1.948  0.1888  0.1524  0.4923
 1014MOL0     C33718  10.312   9.529   1.908  0.2759  0.4888 -0.0992
 1014MOL0     O33719  10.328   9.419   1.826  0.5672  0.3926 -0.0841
 1014MOL0     C33720  10.223   9.335   1.825  0.2092 -0.1371  0.3027
 1014MOL0     C33721  10.126   9.365   1.731  0.4591  0.3668 -0.7304
 1014MOL0     C33722  10.014   9.283   1.715 -0.2611 -0.0265 -0.2032
 1014MOL0     C33723   9.998   9.172   1.789 -0.4805 -0.1129 -0.1389
 1014MOL0     O33724   9.881   9.108   1.778 -0.5815  0.1942 -0.4196
 1014MOL0     C33725   9.850   8.991   1.861 -0.0066 -0.1098  0.2858
 1014MOL0     C33726   9.725   8.921   1.794  1.0591  0.7275  0.2861
 1014MOL0     C33727   9.598   8.994   1.847 -0.4423  0.0862 -0.4125
 1014MOL0     C33728   9.473   8.914   1.813 -0.1201 -0.0070 -0.2100
 1014MOL0     C33729   9.348   8.984   1.865  0.6810 -0.0731  0.4802
 1014MOL0     C33730   9.228   8.890   1.857  0.0907 -0.4409  0.5175
 1014MOL0     C33731   9.096   8.955   1.898  0.3473  0.0967  0.1044
 1014MOL0     C33732   8.970   8.869   1.880 -0.6894  0.2195  0.3985
 1014MOL0     N33733   8.854   8.931   1.950 -0.1060  0.7428  0.0249
 1014MOL0     C33734   8.760   9.008   1.888  0.8304  0.6756 -0.1973
 1014MOL0     C33735   8.687   9.056   1.987 -0.4445 -0.5498  0.2029
 1014MOL0     C33736   8.581   9.158   1.962 -0.3433 -0.9168  0.4991
 1014MOL0     C33737   8.495   9.181   2.093 -0.0407  0.8187  0.1035
 1014MOL0     C33738   8.396   9.299   2.060 -0.2340 -0.0799 -0.1197
 1014MOL0     C33739   8.289   9.307   2.163  0.1170 -0.2183  0.0579
 1014MOL0     O33740   8.194   9.198   2.156 -0.0901  0.3151 -0.2995
 1014MOL0     C33741   8.074   9.211   2.095  0.3218 -0.1136 -0.1252
 1014MOL0     C33742   8.016   9.321   2.032 -0.8415  0.4315  0.1578
 1014MOL0     C33743   7.892   9.323   1.971 -0.0165 -0.2230 -0.1616
 1014MOL0     C33744   7.809   9.202   1.968 -0.0129 -0.3739 -0.3167
 1014MOL0     C33745   7.671   9.188   1.906  0.4580 -0.3030 -0.2968
 1014MOL0     O33746   7.637   9.285   1.817 -0.3333 -0.3499 -0.3912
 1014MOL0     C33747   7.508   9.279   1.773 -0.1403 -0.8994  0.7781
 1014MOL0     C33748   7.467   9.184   1.676 -0.8190 -0.6484 -0.8671
 1014MOL0     C33749   7.340   9.191   1.611  0.1945 -0.4174  0.0504
 1014MOL0     C33750   7.255   9.299   1.646 -0.0010  0.5293 -0.0702
 1014MOL0     O33751   7.135   9.311   1.574  0.3002  0.0109  0.2442
 1014MOL0     C33752   7.059   9.427   1.576  0.3355 -0.3366  0.2062
 1014MOL0     C33753   6.941   9.400   1.485  0.4212  0.2720 -0.3590
 1014MOL0     C33754   6.858   9.524   1.463  0.1387  0.7390  0.2740
 1014MOL0     C33755   6.734   9.495   1.387  1.0457  0.2848  0.0322
 1014MOL0     C33756   6.637   9.611   1.368  0.8150 -0.3575 -0.8492
 1014MOL0     C33757   6.522   9.597   1.259 -0.8839 -0.3438 -1.2017
 1014MOL0     C33758   6.419   9.486   1.291 -0.2192  0.8196  1.1089
 1014MOL0     C33759   6.299   9.491   1.198  0.5900 -0.5942 -0.0780
 1014MOL0    Cl33760   6.168   9.373   1.241 -0.1476  0.0696 -0.4286
 1014MOL0     C33761   7.290   9.397   1.745  0.0933  0.5422 -0.2429
 1014MOL0     C33762   7.416   9.388   1.807 -0.0253 -0.1307 -0.0205
 1014MOL0     O33763   7.598   9.086   1.928 -0.9465  0.2445 -0.0653
 1014MOL0     C33764   7.868   9.092   2.031 -0.2390  0.7455 -0.0352
 1014MOL0     C33765   7.992   9.098   2.097  0.2933  0.6261 -0.8096
 1014MOL0     N33766   8.731   9.009   2.109  1.1145 -0.1531 -0.0247
 1014MOL0     N33767   8.835   8.935   2.086  0.4909  0.2764 -0.2691
 1014MOL0     C33768  10.106   9.139   1.877  0.3517  0.1450  0.5206
 1014MOL0     C33769  10.215   9.215   1.891  0.2734 -0.3349 -0.4163
 1014MOL0     C33770  10.431   9.617   1.909 -0.6710 -0.0910 -1.8580
 1014MOL0     C33771  10.543   9.592   1.822  0.1852  0.2457 -0.3704
 1014MOL0     C33772  10.652   9.671   1.827 -0.5826  0.2958  0.2352
 1014MOL0     C33773  10.659   9.780   1.912 -0.3731 -0.4037 -0.0370
 1014MOL0     O33774  10.764   9.865   1.930 -0.7634 -0.0375  0.2796
 1014MOL0     C33775  10.897   9.832   1.908 -0.9850 -0.1972  0.0185
 1014MOL0     C33776  11.001   9.946   1.892 -0.5475  1.0666 -0.1470
 1014MOL0     C33777  11.151   9.905   1.856 -0.2568 -0.6043 -0.5965
 1014MOL0     C33778  11.188   9.916   1.709  0.4381  0.3168 -0.7905
 1014MOL0     C33779  11.328   9.896   1.700 -0.8594  0.0563  0.7157
 1014MOL0     C33780  11.446   9.885   1.694  0.0087  0.8990 -0.9350
 1014MOL0     C33781  10.544   9.812   1.985 -0.6052  0.2432  0.5291
 1014MOL0     C33782  10.437   9.732   1.992  0.2214 -1.0821  1.2148
 1014MOL0     H33783  10.139   9.454   1.671 -0.4881  0.3694 -0.9353
 1014MOL0     H33784   9.935   9.317   1.649 -0.3437  1.2066  0.4921
 1014MOL0     H33785   9.840   9.010   1.968 -2.8041  0.7523 -0.0449
 1014MOL0     H33786   9.926   8.914   1.845 -0.7789 -0.7657 -0.2805
 1014MOL0     H33787   9.723   8.814   1.818  0.9280  0.1336 -2.1154
 1014MOL0     H33788   9.722   8.930   1.685 -0.9053 -0.8818  0.1482
 1014MOL0     H33789   9.597   9.083   1.783  1.5521 -0.7122 -1.6685
 1014MOL0     H33790   9.611   9.017   1.953  0.0897 -0.0240 -0.4520
 1014MOL0     H33791   9.466   8.893   1.706 -2.8546 -0.3288 -0.0465
 1014MOL0     H33792   9.481   8.824   1.875  1.6646 -0.2058 -0.6915
 1014MOL0     H33793   9.324   9.075   1.810 -1.4049 -0.4962  0.5970
 1014MOL0     H33794   9.356   9.009   1.971 -1.3224  0.7217  0.4928
 1014MOL0     H33795   9.249   8.798   1.912  0.7645  0.0235  1.0657
 1014MOL0     H33796   9.224   8.861   1.752 -1.0747 -0.3158  0.5177
 1014MOL0     H33797   9.098   8.987   2.003 -1.0034  0.8377 -0.0602
 1014MOL0     H33798   9.089   9.043   1.833  3.1437  1.4101  1.4208
 1014MOL0     H33799   8.998   8.769   1.915 -0.7856 -0.3225 -1.0198
 1014MOL0     H33800   8.937   8.847   1.778  1.5102 -1.8191  0.0434
 1014MOL0     H33801   8.752   9.026   1.781  2.5353  1.4425 -0.2348
 1014MOL0     H33802   8.512   9.124   1.885 -1.6345  1.1673  0.6478
 1014MOL0     H33803   8.620   9.252   1.920 -3.1434  0.0313 -0.2071
 1014MOL0     H33804   8.569   9.217   2.165 -0.1832  0.6833  0.3176
 1014MOL0     H33805   8.446   9.089   2.125  0.6684  0.0736 -0.8730
 1014MOL0     H33806   8.453   9.393   2.065 -2.0247  0.9952  4.5147
 1014MOL0     H33807   8.342   9.306   1.964 -1.3577  2.2383  0.6023
 1014MOL0     H33808   8.239   9.404   2.158 -1.5156 -1.0282  0.1347
 1014MOL0     H33809   8.336   9.307   2.262 -0.2301 -0.2442  0.2229
 1014MOL0     H33810   8.070   9.415   2.037 -0.7456  0.3316  1.4162
 1014MOL0     H33811   7.846   9.413   1.931  0.1471 -0.4342 -0.8328
 1014MOL0     H33812   7.537   9.106   1.651  0.5723  0.7773 -1.6041
 1014MOL0     H33813   7.304   9.114   1.544  2.0238 -2.1058  0.9234
 1014MOL0     H33814   7.115   9.509   1.530 -0.6429  0.5024  0.4760
 1014MOL0     H33815   7.035   9.463   1.676  3.6421  2.2664  0.2691
 1014MOL0     H33816   6.884   9.315   1.523 -0.7501  0.3356 -1.8953
 1014MOL0     H33817   6.984   9.379   1.387 -2.7336  1.1511 -2.0401
 1014MOL0     H33818   6.917   9.601   1.412  2.2678 -1.1381 -0.2593
 1014MOL0     H33819   6.840   9.567   1.562 -1.3708  0.1998  0.2580
 1014MOL0     H33820   6.766   9.457   1.289  2.7576  0.8692  0.3200
 1014MOL0     H33821   6.679   9.414   1.434  0.4951  1.6589  1.8930
 1014MOL0     H33822   6.687   9.704   1.339 -2.6343  1.4153 -1.6568
 1014MOL0     H33823   6.599   9.644   1.465  1.2103  3.9687 -1.9203
 1014MOL0     H33824   6.573   9.578   1.164  1.9119 -3.1505  0.6662
 1014MOL0     H33825   6.474   9.695   1.262  2.8328  1.6164  0.7721
 1014MOL0     H33826   6.463   9.386   1.290  1.1094  1.3712  1.5281
 1014MOL0     H33827   6.380   9.494   1.393 -1.1394 -1.7323  1.0257
 1014MOL0     H33828   6.318   9.451   1.098 -1.7240 -0.8074 -0.4863
 1014MOL0     H33829   6.244   9.585   1.200 -1.2957 -1.6368 -0.4152
 1014MOL0     H33830   7.214   9.471   1.768  0.4261  0.5440  0.9589
 1014MOL0     H33831   7.449   9.463   1.877 -0.1270 -0.6131  0.5561
 1014MOL0     H33832   7.816   9.001   2.059 -3.6935  2.2204 -1.0560
 1014MOL0     H33833   8.029   9.012   2.153 -1.3757  1.2102  1.3239
 1014MOL0     H33834  10.091   9.051   1.939 -3.1299  1.2392  1.4666
 1014MOL0     H33835  10.293   9.186   1.962  0.1309 -0.0459 -0.1365
 1014MOL0     H33836  10.544   9.517   1.743 -3.9074  0.3136 -0.7405
 1014MOL0     H33837  10.729   9.643   1.756 -1.3012  1.7429 -1.1715
 1014MOL0     H33838  10.902   9.780   1.812  2.9863  1.8555 -1.1115
 1014MOL0     H33839  10.935   9.764   1.984 -1.1474  0.4683  0.7112
 1014MOL0     H33840  10.970  10.019   1.818  0.4962  1.1721 -0.5016
 1014MOL0     H33841  10.993  10.003   1.985 -2.8318 -0.5686  0.7413
 1014MOL0     H33842  11.162   9.804   1.897  0.1804 -0.0802  0.6311
 1014MOL0     H33843  11.215   9.965   1.921 -2.0476  0.5000  0.2221
 1014MOL0     H33844  11.135   9.835   1.658 -1.4966  1.9534 -1.5270
 1014MOL0     H33845  11.161  10.016   1.673  0.8630  1.3065  1.4451
 1014MOL0     H33846  11.551   9.894   1.675  0.4656 -1.7686 -0.0674
 1014MOL0     H33847  10.542   9.879   2.070 -3.8055 -1.4398  1.9548
 1014MOL0     H33848  10.359   9.748   2.065 -0.3852  1.7790  0.0564
 1015MOL0     O33849   5.051   7.113   9.223 -0.2251 -0.2076 -0.2960
 1015MOL0     C33850   5.079   7.030   9.308  0.6433  0.1657  0.4179
 1015MOL0     O33851   4.987   6.979   9.404  0.4813 -0.2806 -0.2343
 1015MOL0     C33852   4.881   7.053   9.443  0.4147  0.4727 -0.2943
 1015MOL0     C33853   4.767   6.981   9.463  0.2349 -0.1687 -0.9980
 1015MOL0     C33854   4.651   7.041   9.502  0.2505  0.3649 -0.8929
 1015MOL0     C33855   4.650   7.180   9.530  0.4604  0.7304  0.0663
 1015MOL0     O33856   4.534   7.229   9.581  0.2502 -0.3518 -0.8232
 1015MOL0     C33857   4.503   7.368   9.580  0.1476  0.0331 -0.0993
 1015MOL0     C33858   4.357   7.376   9.631 -0.8533  0.5109 -0.4705
 1015MOL0     C33859   4.260   7.310   9.546  0.9045 -0.2211 -0.0239
 1015MOL0     C33860   4.224   7.173   9.586 -0.0139  0.0642 -0.0961
 1015MOL0     C33861   4.114   7.123   9.475 -0.1713 -0.3288  0.9303
 1015MOL0     C33862   4.047   6.994   9.508  0.7046  0.6139  0.5334
 1015MOL0     C33863   4.137   6.875   9.528  0.0445  0.3980  0.0870
 1015MOL0     C33864   4.241   6.864   9.416 -0.0607 -0.5373  0.6463
 1015MOL0     N33865   4.297   6.726   9.419  0.4197  0.7961  1.0840
 1015MOL0     C33866   4.259   6.629   9.331 -0.8041  0.4393  0.6230
 1015MOL0     C33867   4.355   6.534   9.346  0.0881  0.1208 -0.5083
 1015MOL0     C33868   4.365   6.393   9.282  0.7429  0.0418 -0.3025
 1015MOL0     C33869   4.511   6.343   9.250 -0.0821  0.4155  0.2589
 1015MOL0     C33870   4.516   6.203   9.210  0.5766  0.6368  0.2636
 1015MOL0     C33871   4.649   6.187   9.145  0.2068 -0.6223 -0.7124
 1015MOL0     O33872   4.753   6.217   9.233 -0.2175 -0.6595  0.1942
 1015MOL0     C33873   4.885   6.191   9.207 -0.6031 -0.3676  0.3804
 1015MOL0     C33874   4.992   6.194   9.302 -0.0871  1.3571  0.8383
 1015MOL0     C33875   5.124   6.151   9.279 -0.0653  0.2418  0.4445
 1015MOL0     C33876   5.157   6.099   9.146 -0.8238 -0.6668 -0.4424
 1015MOL0     C33877   5.295   6.053   9.103 -0.0606 -0.5777 -0.4674
 1015MOL0     O33878   5.319   6.015   8.971 -0.7860  0.2097  0.0389
 1015MOL0     C33879   5.444   6.006   8.920 -0.1006  0.0196  0.2662
 1015MOL0     C33880   5.490   6.091   8.824 -0.1792 -0.8605 -0.7717
 1015MOL0     C33881   5.616   6.076   8.773 -0.2106  0.0192  0.0213
 1015MOL0     C33882   5.700   5.968   8.813  1.1437 -0.4837 -0.1510
 1015MOL0     O33883   5.817   5.942   8.752 -0.0060  0.8204 -0.5382
 1015MOL0     C33884   5.893   6.026   8.675 -0.1340 -0.0868 -0.4811
 1015MOL0     C33885   5.944   5.954   8.557  0.8020 -0.4334 -0.4447
 1015MOL0     C33886   6.038   6.023   8.459 -0.6367 -0.6073 -0.7296
 1015MOL0     C33887   6.141   5.921   8.419  0.0429  0.0467 -0.9415
 1015MOL0     C33888   6.257   5.994   8.351 -0.5503 -0.5186  0.4827
 1015MOL0     C33889   6.384   5.907   8.380 -0.4797  0.6779 -0.0198
 1015MOL0     C33890   6.516   5.989   8.378  0.8388  0.4787 -0.2970
 1015MOL0     C33891   6.543   6.065   8.249 -0.1514  0.1321  0.4014
 1015MOL0    Cl33892   6.709   6.137   8.281 -0.5378 -0.1412 -0.0294
 1015MOL0     C33893   5.649   5.874   8.911  0.3614 -0.2184  0.5912
 1015MOL0     C33894   5.522   5.894   8.959 -0.0161 -0.8946 -1.0655
 1015MOL0     O33895   5.383   6.059   9.185 -0.3592 -0.1673  0.0726
 1015MOL0     C33896   5.057   6.105   9.056 -0.0604 -0.0775 -0.3240
 1015MOL0     C33897   4.929   6.152   9.080 -0.2475 -0.0146 -0.2362
 1015MOL0     N33898   4.431   6.573   9.457 -0.4911  0.1852  0.7351
 1015MOL0     N33899   4.401   6.689   9.487  0.6359  0.1145  0.4075
 1015MOL0     C33900   4.767   7.259   9.507  0.3206  1.1943 -0.3920
 1015MOL0     C33901   4.876   7.194   9.461 -0.2464 -0.6093  0.5881
 1015MOL0     C33902   5.214   6.971   9.302 -0.5267 -0.0456 -0.0628
 1015MOL0     C33903   5.267   6.885   9.407  0.0861  0.5537 -0.4123
 1015MOL0     C33904   5.398   6.827   9.396  0.0686 -0.0073 -0.1607
 1015MOL0     C33905   5.478   6.845   9.285  0.0379  0.5256 -0.3128
 1015MOL0     O33906   5.596   6.783   9.285 -0.4817 -0.0199  0.6476
 1015MOL0     C33907   5.712   6.870   9.294 -0.3249  0.0249  0.4205
 1015MOL0     C33908   5.801   6.840   9.170  0.8470  0.6896 -0.2907
 1015MOL0     C33909   5.932   6.916   9.180  0.4210 -0.2319  1.0393
 1015MOL0     C33910   5.927   7.037   9.087 -0.2574 -1.2062 -0.3278
 1015MOL0     C33911   6.060   7.080   9.060  0.1243  0.0657  0.3520
 1015MOL0     C33912   6.169   7.116   9.016 -0.2995  0.0285 -0.8309
 1015MOL0     C33913   5.434   6.925   9.183 -0.3992  0.0220  0.0636
 1015MOL0     C33914   5.301   6.982   9.196 -0.2393  0.6038  0.0044
 1015MOL0     H33915   4.764   6.875   9.440  1.8310 -0.5896  0.5540
 1015MOL0     H33916   4.563   6.978   9.514  1.1891 -1.3229 -2.3739
 1015MOL0     H33917   4.503   7.411   9.479  0.4941 -0.2278 -0.2112
 1015MOL0     H33918   4.559   7.441   9.639  1.6339 -3.2033  2.8724
 1015MOL0     H33919   4.330   7.481   9.644  1.4651  1.2347 -0.9480
 1015MOL0     H33920   4.352   7.331   9.730 -2.5516 -0.1221 -0.8101
 1015MOL0     H33921   4.297   7.317   9.444  2.2918  1.3168  0.5466
 1015MOL0     H33922   4.166   7.366   9.541 -1.4739 -3.5619  2.5252
 1015MOL0     H33923   4.310   7.106   9.590 -2.9606 -4.0425  2.2307
 1015MOL0     H33924   4.180   7.169   9.686 -2.7090 -0.2630 -1.1852
 1015MOL0     H33925   4.164   7.114   9.378 -0.8564  2.3131  0.2481
 1015MOL0     H33926   4.026   7.186   9.460  0.3557  0.4462  1.0610
 1015MOL0     H33927   3.979   6.971   9.426  2.0380 -1.3604 -0.0967
 1015MOL0     H33928   3.976   7.009   9.590 -1.4474 -0.0866 -1.1125
 1015MOL0     H33929   4.194   6.882   9.621  1.3706 -0.2945 -0.6515
 1015MOL0     H33930   4.074   6.786   9.533  0.5293  0.0562  0.0963
 1015MOL0     H33931   4.320   6.938   9.429  1.0880 -1.8090  1.1743
 1015MOL0     H33932   4.194   6.881   9.318  0.9531  1.2068  0.4210
 1015MOL0     H33933   4.176   6.625   9.261  0.8871  1.1872 -1.5730
 1015MOL0     H33934   4.303   6.394   9.192 -0.9361 -1.3410  0.7623
 1015MOL0     H33935   4.316   6.324   9.352  2.3662 -0.5954  0.2371
 1015MOL0     H33936   4.571   6.352   9.341 -0.7129  1.1158  0.6129
 1015MOL0     H33937   4.561   6.415   9.185  0.5558 -0.3143 -0.0904
 1015MOL0     H33938   4.501   6.143   9.300 -1.0227  3.6885  2.2313
 1015MOL0     H33939   4.449   6.178   9.128  0.0364 -0.3885  1.0030
 1015MOL0     H33940   4.659   6.258   9.062 -2.8374  0.6363 -0.1472
 1015MOL0     H33941   4.658   6.083   9.111  1.0582 -0.9924  0.6061
 1015MOL0     H33942   4.974   6.248   9.395 -0.6506  2.2627  0.2232
 1015MOL0     H33943   5.199   6.158   9.357 -1.4476  1.6408  1.7182
 1015MOL0     H33944   5.421   6.169   8.797  0.0208 -0.1861  0.5638
 1015MOL0     H33945   5.642   6.146   8.694  2.7079 -1.3351 -0.3509
 1015MOL0     H33946   5.981   6.061   8.730  0.5874 -0.6145 -1.2721
 1015MOL0     H33947   5.838   6.115   8.643 -0.2728 -0.4422 -1.2649
 1015MOL0     H33948   5.859   5.919   8.498 -0.0115 -1.3948  1.2210
 1015MOL0     H33949   5.989   5.859   8.588  1.2254 -0.2104 -0.3610
 1015MOL0     H33950   6.082   6.111   8.505  0.9937 -1.4439 -0.5910
 1015MOL0     H33951   5.987   6.053   8.366  0.6329  2.9021 -0.4365
 1015MOL0     H33952   6.182   5.864   8.503  0.4996  0.1264 -1.1067
 1015MOL0     H33953   6.101   5.847   8.349  0.3979 -1.0257 -0.0462
 1015MOL0     H33954   6.271   6.100   8.377 -1.7534  0.4589 -2.4904
 1015MOL0     H33955   6.237   5.996   8.244 -1.1931 -2.8672  0.5173
 1015MOL0     H33956   6.394   5.825   8.309 -1.3935 -1.1719  1.8565
 1015MOL0     H33957   6.380   5.855   8.477  0.8579  0.8759  0.1628
 1015MOL0     H33958   6.524   6.066   8.455  0.6022  0.2619 -0.0542
 1015MOL0     H33959   6.601   5.925   8.403 -0.9620 -1.9598 -0.0983
 1015MOL0     H33960   6.465   6.133   8.212 -1.0767 -1.3913 -0.5481
 1015MOL0     H33961   6.549   5.996   8.164  1.4950 -1.4261  1.7086
 1015MOL0     H33962   5.704   5.787   8.942 -1.0818 -0.7778  1.7165
 1015MOL0     H33963   5.490   5.822   9.033  0.5244  1.1834  1.3394
 1015MOL0     H33964   5.084   6.057   8.962 -0.2649 -0.3361 -0.2517
 1015MOL0     H33965   4.866   6.142   8.991  2.0031  0.7424 -2.0243
 1015MOL0     H33966   4.765   7.368   9.514  0.1244  1.1095  3.4477
 1015MOL0     H33967   4.960   7.258   9.436 -1.6928  1.3379  0.4591
 1015MOL0     H33968   5.207   6.852   9.491  1.2401 -1.0991 -0.1962
 1015MOL0     H33969   5.436   6.749   9.461  2.5107  1.0730 -0.1951
 1015MOL0     H33970   5.764   6.841   9.386 -2.6913  0.2398  1.9321
 1015MOL0     H33971   5.694   6.977   9.302 -0.7023 -0.1606  2.9998
 1015MOL0     H33972   5.829   6.735   9.175 -2.8189 -0.4686 -1.2143
 1015MOL0     H33973   5.750   6.843   9.074  0.2280  0.1420  0.0177
 1015MOL0     H33974   6.015   6.853   9.148 -0.1997  0.1583 -1.5539
 1015MOL0     H33975   5.941   6.964   9.277 -0.1930  2.3883 -0.1256
 1015MOL0     H33976   5.869   7.016   8.997 -0.7788 -0.7693 -0.0991
 1015MOL0     H33977   5.870   7.116   9.136 -1.6200 -3.0942  1.3102
 1015MOL0     H33978   6.264   7.161   8.994 -0.7700  4.3789  3.9957
 1015MOL0     H33979   5.494   6.938   9.094 -0.5002  0.7386  0.0918
 1015MOL0     H33980   5.266   7.040   9.112 -0.9832  0.4821  0.2223
 1016MOL0     O33981   6.361   0.589  10.890  1.0369 -0.1762  0.5387
 1016MOL0     C33982   6.304   0.693  10.932  0.9272 -0.7225 -0.1042
 1016MOL0     O33983   6.256   0.710  11.060 -0.6278  0.0362 -0.0216
 1016MOL0     C33984   6.124   0.688  11.085 -0.5610  0.3772  0.3891
 1016MOL0     C33985   6.027   0.641  10.993 -0.1323 -0.1409  0.2353
 1016MOL0     C33986   5.902   0.610  11.039  0.6103 -0.7977  0.2872
 1016MOL0     C33987   5.859   0.641  11.166 -0.2057  0.1803  0.0118
 1016MOL0     O33988   5.741   0.592  11.225 -0.1459 -0.3774  0.2479
 1016MOL0     C33989   5.694   0.470  11.170  0.0132 -0.1837  0.2343
 1016MOL0     C33990   5.588   0.417  11.265  0.8532 -0.0819 -0.2062
 1016MOL0     C33991   5.473   0.516  11.299 -0.1354  0.6204  0.6160
 1016MOL0     C33992   5.364   0.468  11.406 -1.0671  0.2208  0.8919
 1016MOL0     C33993   5.239   0.557  11.392 -0.0629  0.3723 -0.8540
 1016MOL0     C33994   5.122   0.484  11.463  0.2378 -0.2409 -0.5366
 1016MOL0     C33995   4.987   0.539  11.417  0.2582 -1.4420  0.2819
 1016MOL0     C33996   4.883   0.518  11.528 -0.2316  0.3403  0.0020
 1016MOL0     N33997   4.749   0.527  11.479 -0.1111  1.1570 -0.5123
 1016MOL0     C33998   4.649   0.503  11.565  0.9281  0.2852  0.2329
 1016MOL0     C33999   4.536   0.488  11.485 -0.6000 -0.6028 -0.3668
 1016MOL0     C34000   4.394   0.455  11.530  1.2102  0.1837 -0.8719
 1016MOL0     C34001   4.324   0.579  11.584  0.2592 -0.4218 -0.1246
 1016MOL0     C34002   4.187   0.555  11.650  0.1120 -0.7688 -0.3548
 1016MOL0     C34003   4.092   0.452  11.587  0.5965  0.1988 -0.0265
 1016MOL0     O34004   4.035   0.357  11.679  0.0114  0.0805  0.4440
 1016MOL0     C34005   3.900   0.329  11.689  0.2199  0.5270 -0.2710
 1016MOL0     C34006   3.797   0.418  11.646 -0.3895 -0.3988 -0.1615
 1016MOL0     C34007   3.659   0.372  11.669 -0.5017 -0.6486 -0.6920
 1016MOL0     C34008   3.626   0.246  11.740  0.4200 -0.7607  0.4573
 1016MOL0     C34009   3.484   0.215  11.774 -0.2236 -0.1264  0.0297
 1016MOL0     O34010   3.401   0.324  11.755  0.6339 -0.1616 -0.9861
 1016MOL0     C34011   3.270   0.316  11.796  0.0537 -0.0141 -0.0471
 1016MOL0     C34012   3.244   0.411  11.890  0.5455  0.3177 -0.1835
 1016MOL0     C34013   3.113   0.409  11.945  0.3663  0.6343  0.5814
 1016MOL0     C34014   3.017   0.320  11.907 -0.4369  0.5228  0.4631
 1016MOL0     O34015   2.888   0.328  11.960 -0.0436  0.1475 -0.1074
 1016MOL0     C34016   2.832   0.454  11.979 -0.6825 -0.1892  0.1716
 1016MOL0     C34017   2.683   0.457  12.008  0.8682  0.0367  0.5634
 1016MOL0     C34018   2.602   0.384  11.904  1.0244  0.1089  0.3216
 1016MOL0     C34019   2.449   0.404  11.931  0.3536  0.1400 -0.3091
 1016MOL0     C34020   2.376   0.327  11.813 -0.6052  0.6718 -0.7863
 1016MOL0     C34021   2.231   0.355  11.810  0.3129  0.3635 -0.5917
 1016MOL0     C34022   2.143   0.266  11.728  0.0084  0.4221 -0.3397
 1016MOL0     C34023   2.036   0.331  11.649 -0.0167  0.3205 -0.6118
 1016MOL0    Cl34024   2.105   0.434  11.522 -0.6114  0.2319 -0.1703
 1016MOL0     C34025   3.056   0.213  11.823  0.1683 -0.2581  0.5578
 1016MOL0     C34026   3.182   0.212  11.765  0.2461  0.7705 -0.2985
 1016MOL0     O34027   3.451   0.107  11.820 -0.2926  0.2986  0.1658
 1016MOL0     C34028   3.735   0.170  11.776  1.3365  0.0431 -0.1693
 1016MOL0     C34029   3.862   0.210  11.753 -0.0532  0.1698  0.1149
 1016MOL0     N34030   4.570   0.509  11.353 -0.9351  0.3571 -0.0352
 1016MOL0     N34031   4.699   0.517  11.350 -0.5699  0.3113 -0.7912
 1016MOL0     C34032   5.941   0.715  11.245  0.3408  0.5325 -0.0743
 1016MOL0     C34033   6.077   0.733  11.209  0.1495  0.1687 -0.1180
 1016MOL0     C34034   6.283   0.807  10.841  1.1534 -0.0399 -0.3676
 1016MOL0     C34035   6.293   0.932  10.883  1.0308 -0.6415 -0.4288
 1016MOL0     C34036   6.277   1.043  10.789  0.4835  0.3310 -1.1371
 1016MOL0     C34037   6.261   1.020  10.651 -0.7615  0.3610 -0.0442
 1016MOL0     O34038   6.249   1.116  10.560  0.4843  0.2152  0.2665
 1016MOL0     C34039   6.116   1.125  10.498  0.3561  0.1301  1.1761
 1016MOL0     C34040   6.123   1.246  10.420 -0.3283 -0.3962  0.4257
 1016MOL0     C34041   6.159   1.228  10.268  0.2054  1.0275 -0.2806
 1016MOL0     C34042   6.298   1.170  10.249 -0.2465  0.4255  0.0302
 1016MOL0     C34043   6.407   1.255  10.293 -0.2425  0.9729 -1.0811
 1016MOL0     C34044   6.489   1.335  10.320 -0.6415 -0.0951  0.0296
 1016MOL0     C34045   6.247   0.878  10.615  0.4224 -0.6297  0.5068
 1016MOL0     C34046   6.265   0.783  10.707 -0.3554  0.5580  1.3104
 1016MOL0     H34047   6.052   0.612  10.891 -0.6397  0.2455 -0.0005
 1016MOL0     H34048   5.835   0.566  10.965 -0.3707  1.3624 -0.1825
 1016MOL0     H34049   5.779   0.403  11.155  1.2464  1.2349  0.5404
 1016MOL0     H34050   5.655   0.497  11.071  1.0913  3.5927  0.6663
 1016MOL0     H34051   5.645   0.399  11.356 -0.1454  2.8337  1.1255
 1016MOL0     H34052   5.547   0.326  11.220  0.8003 -0.3183  0.3207
 1016MOL0     H34053   5.427   0.546  11.205  0.4174  0.2803  0.2308
 1016MOL0     H34054   5.520   0.606  11.338 -0.2680  0.6324  0.7496
 1016MOL0     H34055   5.331   0.366  11.387 -1.5889 -0.1558  3.4217
 1016MOL0     H34056   5.409   0.472  11.506 -2.5500 -4.5878  2.0246
 1016MOL0     H34057   5.212   0.577  11.288  2.6770  0.0510 -1.7065
 1016MOL0     H34058   5.259   0.651  11.444  0.9464 -1.7053  2.9116
 1016MOL0     H34059   5.129   0.495  11.571  0.3886 -1.6302 -0.3883
 1016MOL0     H34060   5.121   0.377  11.440 -2.4504 -0.7066  1.3009
 1016MOL0     H34061   4.995   0.645  11.392  0.3680 -0.2591  4.5243
 1016MOL0     H34062   4.950   0.472  11.338  3.2410 -0.5065 -2.0992
 1016MOL0     H34063   4.894   0.598  11.602 -0.1467 -1.5761  2.1592
 1016MOL0     H34064   4.906   0.427  11.583  2.6547  1.9250  1.7020
 1016MOL0     H34065   4.655   0.489  11.673 -0.7763 -1.0250  0.1973
 1016MOL0     H34066   4.413   0.388  11.614 -0.2905  2.5485  1.5117
 1016MOL0     H34067   4.345   0.415  11.440 -0.4268  0.1965 -0.0242
 1016MOL0     H34068   4.308   0.653  11.505 -0.1225  0.8699  1.1332
 1016MOL0     H34069   4.392   0.622  11.657  0.3929  1.3213 -1.2159
 1016MOL0     H34070   4.216   0.526  11.751  4.4582 -1.2582 -1.5069
 1016MOL0     H34071   4.125   0.645  11.648 -0.0113 -0.8245  0.6202
 1016MOL0     H34072   4.140   0.378  11.523 -0.7993 -2.1706  1.5073
 1016MOL0     H34073   4.012   0.513  11.543  1.2423  2.2527  1.4706
 1016MOL0     H34074   3.824   0.514  11.602 -0.8187  0.4142  1.2632
 1016MOL0     H34075   3.574   0.428  11.630 -0.9032 -0.8675 -0.1388
 1016MOL0     H34076   3.316   0.489  11.912  1.2877  0.2262 -2.1117
 1016MOL0     H34077   3.095   0.491  12.015 -3.1564  1.3635 -0.9052
 1016MOL0     H34078   2.840   0.501  11.881 -0.9518 -1.0622 -0.2874
 1016MOL0     H34079   2.882   0.493  12.067 -0.7420 -1.9429  1.0239
 1016MOL0     H34080   2.650   0.561  12.010  2.3392  0.5817 -1.0084
 1016MOL0     H34081   2.671   0.419  12.109 -0.1128  1.2251  0.9110
 1016MOL0     H34082   2.629   0.280  11.926  1.4725 -0.0186 -0.7906
 1016MOL0     H34083   2.636   0.416  11.806  0.3145 -2.4884 -0.8782
 1016MOL0     H34084   2.424   0.369  12.032  0.6511 -4.7099 -1.6868
 1016MOL0     H34085   2.430   0.512  11.925 -0.6095 -0.1259 -3.0464
 1016MOL0     H34086   2.390   0.221  11.834 -1.8618  0.7634  0.7598
 1016MOL0     H34087   2.420   0.349  11.715  1.7399 -1.1359 -0.2359
 1016MOL0     H34088   2.211   0.457  11.775 -1.8656 -0.3072 -1.5112
 1016MOL0     H34089   2.197   0.337  11.912  0.4801  1.3996 -0.3495
 1016MOL0     H34090   2.205   0.206  11.661 -0.8780 -1.7049  0.6700
 1016MOL0     H34091   2.104   0.195  11.802  3.4405  0.2974  1.5614
 1016MOL0     H34092   1.964   0.385  11.711  0.3320  3.2673 -2.5960
 1016MOL0     H34093   1.980   0.252  11.598 -2.7514  3.4135 -2.8108
 1016MOL0     H34094   2.981   0.137  11.804 -1.1157  0.9144  0.7872
 1016MOL0     H34095   3.215   0.131  11.701 -0.0110  0.3459  0.0966
 1016MOL0     H34096   3.722   0.069  11.815 -4.1166  0.6665  0.3698
 1016MOL0     H34097   3.940   0.144  11.788  1.5310  2.6716  1.6035
 1016MOL0     H34098   5.912   0.740  11.346  1.1030  2.9607 -0.3962
 1016MOL0     H34099   6.143   0.785  11.278  1.5157 -1.7250  0.0627
 1016MOL0     H34100   6.310   0.970  10.983  1.3228 -0.3286 -0.5921
 1016MOL0     H34101   6.281   1.141  10.835  1.2513 -1.1585  2.1955
 1016MOL0     H34102   6.047   1.130  10.582  0.7258  2.9512  1.4105
 1016MOL0     H34103   6.096   1.038  10.435 -3.0675  1.1724  0.6343
 1016MOL0     H34104   6.032   1.304  10.435 -0.1537 -0.0324  0.1033
 1016MOL0     H34105   6.192   1.315  10.469 -0.3541 -0.1271  0.0910
 1016MOL0     H34106   6.149   1.320  10.210 -0.5879  1.9131  1.2117
 1016MOL0     H34107   6.086   1.161  10.222 -1.4158  1.1633  1.9335
 1016MOL0     H34108   6.310   1.071  10.295  1.6873 -0.7129 -2.6885
 1016MOL0     H34109   6.306   1.142  10.144  1.8232  1.2428 -0.0768
 1016MOL0     H34110   6.570   1.403  10.336  0.8377 -1.9954  0.9815
 1016MOL0     H34111   6.218   0.855  10.513 -1.5549 -0.3140  0.9620
 1016MOL0     H34112   6.250   0.683  10.668 -0.2233  0.2672  1.9910
 1017MOL0     O34113   2.897   7.167   7.156  0.0870  0.0246 -0.9105
 1017MOL0     C34114   2.904   7.248   7.246 -0.0026 -0.3894 -0.7459
 1017MOL0     O34115   2.820   7.252   7.354  0.2307  0.3479  0.7926
 1017MOL0     C34116   2.696   7.191   7.349 -0.5626  0.2794  0.8987
 1017MOL0     C34117   2.678   7.051   7.337  0.6104 -1.2212 -0.4517
 1017MOL0     C34118   2.552   6.987   7.326  0.3903  1.0106 -0.3519
 1017MOL0     C34119   2.442   7.071   7.321 -0.4043  0.0771 -0.0195
 1017MOL0     O34120   2.322   7.001   7.318  0.0014 -0.0730 -0.0368
 1017MOL0     C34121   2.223   7.063   7.247 -1.0408  0.1833 -0.1505
 1017MOL0     C34122   2.117   7.116   7.363 -0.3734 -0.2894  0.4611
 1017MOL0     C34123   1.981   7.150   7.296  0.2966 -0.0746 -0.5452
 1017MOL0     C34124   1.906   7.025   7.269 -0.3062 -0.3032  0.0012
 1017MOL0     C34125   1.772   7.052   7.211 -0.2339  0.4643  0.5688
 1017MOL0     C34126   1.672   6.935   7.225 -0.2384 -0.1659  0.6647
 1017MOL0     C34127   1.536   6.951   7.148 -0.8754 -0.1447  0.3782
 1017MOL0     C34128   1.544   7.047   7.030  0.9761 -0.6971  0.2801
 1017MOL0     N34129   1.411   7.048   6.961 -0.2185  0.4915  0.8436
 1017MOL0     C34130   1.373   6.934   6.887  0.0258 -0.4729 -0.4276
 1017MOL0     C34131   1.246   6.957   6.846  0.1351 -0.2823  0.0428
 1017MOL0     C34132   1.162   6.866   6.753 -0.2857 -0.0356  0.0567
 1017MOL0     C34133   1.004   6.900   6.765 -0.9931  0.0235  0.3699
 1017MOL0     C34134   0.953   6.889   6.914  0.2044  0.0601  0.5818
 1017MOL0     C34135   0.965   6.753   6.977 -0.3531 -0.8898 -0.1974
 1017MOL0     O34136   0.931   6.752   7.120 -0.7825  0.4992 -0.1392
 1017MOL0     C34137   0.811   6.690   7.160  0.2896 -0.0595  0.2620
 1017MOL0     C34138   0.691   6.718   7.094  0.9862 -0.5008 -0.4129
 1017MOL0     C34139   0.573   6.650   7.126  0.6429  0.3845 -0.6476
 1017MOL0     C34140   0.578   6.538   7.217  0.0619  0.0903 -0.5700
 1017MOL0     C34141   0.458   6.462   7.255  0.0557  0.0631 -0.5990
 1017MOL0     O34142   0.466   6.382   7.368 -0.0970 -0.4468 -0.1043
 1017MOL0     C34143   0.362   6.314   7.424 -0.3352  0.4149 -0.0474
 1017MOL0     C34144   0.388   6.250   7.551  0.2429  0.6455  0.5394
 1017MOL0     C34145   0.295   6.165   7.609 -1.0914 -0.4517 -0.0066
 1017MOL0     C34146   0.170   6.147   7.549  0.2601 -0.9002  0.0139
 1017MOL0     O34147   0.068   6.072   7.608  0.0726 -0.6165 -0.2059
 1017MOL0     C34148   0.050   6.076   7.752 -0.2953  0.3435  0.3666
 1017MOL0     C34149   0.004   6.214   7.816 -0.2935  0.6977  0.9161
 1017MOL0     C34150  -0.053   6.188   7.952  0.0153  0.0819 -0.5346
 1017MOL0     C34151   0.049   6.123   8.050  0.7703  1.3676 -0.3365
 1017MOL0     C34152   0.176   6.194   8.077 -0.1656 -0.0056  0.1206
 1017MOL0     C34153   0.274   6.120   8.172  0.0100 -0.4794 -0.4305
 1017MOL0     C34154   0.292   5.963   8.130  0.2702 -0.1199 -0.0800
 1017MOL0     C34155   0.423   5.892   8.160 -0.7926 -0.5462  0.2050
 1017MOL0    Cl34156   0.565   6.002   8.100 -0.1907  0.0340 -0.3421
 1017MOL0     C34157   0.135   6.219   7.429 -0.4493  0.1163 -0.6533
 1017MOL0     C34158   0.229   6.305   7.370  0.3235 -0.2998  0.3678
 1017MOL0     O34159   0.361   6.474   7.180 -0.1014  0.1798 -0.2255
 1017MOL0     C34160   0.702   6.505   7.273 -0.9240 -0.5387  0.0117
 1017MOL0     C34161   0.820   6.581   7.241  0.0604  0.1648 -0.2694
 1017MOL0     N34162   1.212   7.085   6.896 -0.7145 -0.2580  0.2027
 1017MOL0     N34163   1.309   7.132   6.968  0.0307 -0.1156  0.2617
 1017MOL0     C34164   2.448   7.207   7.331  0.4772 -0.8340  0.1810
 1017MOL0     C34165   2.577   7.259   7.340  0.2429 -0.5157  0.3357
 1017MOL0     C34166   3.013   7.339   7.255 -0.4497  0.6317  0.2450
 1017MOL0     C34167   3.144   7.300   7.205  0.7152 -0.4585 -0.0159
 1017MOL0     C34168   3.250   7.385   7.240 -0.5672  0.5166 -0.8224
 1017MOL0     C34169   3.240   7.499   7.312  0.0562 -0.6604  0.0451
 1017MOL0     O34170   3.343   7.584   7.351 -0.0085  0.6368 -0.3614
 1017MOL0     C34171   3.481   7.533   7.371  0.6371  0.5280 -0.0450
 1017MOL0     C34172   3.503   7.515   7.519 -1.3684  0.5792  0.1393
 1017MOL0     C34173   3.479   7.648   7.594  0.4376 -0.1294 -0.0301
 1017MOL0     C34174   3.541   7.650   7.731  0.2968 -0.6186 -0.3457
 1017MOL0     C34175   3.689   7.639   7.726  0.8939  0.3697 -0.8463
 1017MOL0     C34176   3.808   7.618   7.715 -0.2075 -1.3916 -0.0026
 1017MOL0     C34177   3.104   7.535   7.350  0.6179 -0.4105 -0.0200
 1017MOL0     C34178   2.993   7.457   7.319 -0.0382  0.1691 -0.1426
 1017MOL0     H34179   2.765   6.986   7.341  2.1900  0.6717 -1.8032
 1017MOL0     H34180   2.542   6.879   7.323  2.1097  0.7794  0.7235
 1017MOL0     H34181   2.177   6.978   7.196 -2.6980  0.6004  0.6076
 1017MOL0     H34182   2.262   7.140   7.179 -0.0851 -0.1667 -0.0252
 1017MOL0     H34183   2.168   7.200   7.410  0.1060 -0.9448  1.1469
 1017MOL0     H34184   2.111   7.044   7.446 -2.1283 -2.0004 -1.0587
 1017MOL0     H34185   2.002   7.207   7.205  1.0543 -1.4855 -1.2773
 1017MOL0     H34186   1.917   7.214   7.357  0.8141 -0.3174  0.2741
 1017MOL0     H34187   1.965   6.964   7.201  0.7146 -2.3127  2.5503
 1017MOL0     H34188   1.909   6.982   7.369  2.0167  0.1793  0.2008
 1017MOL0     H34189   1.790   7.078   7.106  0.0603 -1.2036  0.1721
 1017MOL0     H34190   1.726   7.135   7.265 -1.3622  0.2756 -0.0700
 1017MOL0     H34191   1.654   6.913   7.330  0.6908 -1.8478  0.5010
 1017MOL0     H34192   1.719   6.841   7.195  0.4021  0.8514 -1.7601
 1017MOL0     H34193   1.494   6.855   7.118 -4.7131  0.7342  2.2478
 1017MOL0     H34194   1.474   6.998   7.225  0.7673  0.2987  1.4668
 1017MOL0     H34195   1.631   7.020   6.970  0.5967  1.2224 -1.2595
 1017MOL0     H34196   1.568   7.153   7.047 -0.2719  0.2092 -2.8585
 1017MOL0     H34197   1.431   6.849   6.853  0.0445 -1.2733  1.4720
 1017MOL0     H34198   1.178   6.760   6.774  0.4970  0.1390  0.3663
 1017MOL0     H34199   1.190   6.884   6.648 -2.9946 -2.0785 -1.1362
 1017MOL0     H34200   0.956   6.827   6.698  2.3340  0.6273 -3.0147
 1017MOL0     H34201   0.998   7.000   6.722 -2.3219 -0.0164  0.4229
 1017MOL0     H34202   1.007   6.960   6.978  2.2160 -0.2034 -0.7342
 1017MOL0     H34203   0.846   6.912   6.911  1.0081  4.8873 -0.3214
 1017MOL0     H34204   1.066   6.709   6.970  0.3152  0.6659 -0.7522
 1017MOL0     H34205   0.897   6.683   6.927 -2.5432 -0.8910  2.5366
 1017MOL0     H34206   0.699   6.795   7.018  2.3197  0.5931  0.7640
 1017MOL0     H34207   0.484   6.677   7.071  1.4235  0.0564 -2.1294
 1017MOL0     H34208   0.484   6.286   7.587  2.2483 -1.3562 -2.3369
 1017MOL0     H34209   0.312   6.125   7.708 -1.3355  3.6190  1.8968
 1017MOL0     H34210   0.138   6.035   7.800  1.5900 -0.2428 -3.2409
 1017MOL0     H34211  -0.034   6.006   7.763 -0.9589  0.6937 -1.8340
 1017MOL0     H34212  -0.073   6.268   7.761 -0.9250  0.0945  1.1864
 1017MOL0     H34213   0.089   6.282   7.807  2.4000 -2.6110 -0.7605
 1017MOL0     H34214  -0.140   6.122   7.956  0.2486 -0.2406 -0.7858
 1017MOL0     H34215  -0.074   6.287   7.994 -0.4723  0.1336 -0.8908
 1017MOL0     H34216   0.007   6.103   8.148  0.3343 -1.7126 -1.0688
 1017MOL0     H34217   0.067   6.031   7.993  0.8003  1.7321 -0.9289
 1017MOL0     H34218   0.151   6.289   8.126  4.0109  0.2273  2.2866
 1017MOL0     H34219   0.232   6.227   7.989 -0.2864  2.6606  0.9625
 1017MOL0     H34220   0.232   6.139   8.272 -1.4705 -1.1645 -0.8877
 1017MOL0     H34221   0.374   6.163   8.169  0.7411 -2.1083 -0.7806
 1017MOL0     H34222   0.207   5.912   8.176 -1.7125  2.8717 -0.1820
 1017MOL0     H34223   0.283   5.961   8.021  0.4252 -1.4186 -0.0937
 1017MOL0     H34224   0.423   5.787   8.130 -0.0552  0.0353 -1.9605
 1017MOL0     H34225   0.429   5.895   8.270  3.3435 -2.6017  0.2145
 1017MOL0     H34226   0.041   6.197   7.380 -0.4693  0.8999 -0.9757
 1017MOL0     H34227   0.207   6.341   7.270  1.3617 -0.5049  0.0565
 1017MOL0     H34228   0.707   6.411   7.327  0.0518 -0.7366 -0.3989
 1017MOL0     H34229   0.920   6.562   7.281 -0.0570 -0.9119 -0.4781
 1017MOL0     H34230   2.360   7.270   7.324  1.2633  0.1913 -0.6259
 1017MOL0     H34231   2.585   7.367   7.349 -0.6514 -0.4470  0.4337
 1017MOL0     H34232   3.163   7.212   7.145 -0.8872  0.4487 -1.9861
 1017MOL0     H34233   3.348   7.346   7.212 -1.0333 -1.7339  0.4337
 1017MOL0     H34234   3.547   7.616   7.345 -0.1308  1.9044  2.1210
 1017MOL0     H34235   3.511   7.447   7.309  1.1850  1.4376 -1.0789
 1017MOL0     H34236   3.441   7.440   7.569  2.2563 -2.5106  0.4138
 1017MOL0     H34237   3.606   7.478   7.526 -1.7762 -0.4453  0.9281
 1017MOL0     H34238   3.372   7.668   7.608  0.6506  0.3309  1.0268
 1017MOL0     H34239   3.521   7.733   7.540 -1.0543  1.2229  0.8330
 1017MOL0     H34240   3.519   7.745   7.780  0.3536 -1.7521  2.0342
 1017MOL0     H34241   3.504   7.566   7.790  2.1680 -0.1261  1.6542
 1017MOL0     H34242   3.909   7.584   7.724 -0.1503 -1.6400 -1.4230
 1017MOL0     H34243   3.096   7.634   7.395 -2.3478  0.3542 -1.9210
 1017MOL0     H34244   2.895   7.490   7.351  0.2230 -1.8480  3.2834
 1018MOL0     O34245   8.113   2.864   2.454  0.4471 -0.5841 -0.7337
 1018MOL0     C34246   8.179   2.879   2.552  0.0414 -0.5275 -0.2799
 1018MOL0     O34247   8.130   2.914   2.681  0.8707 -0.7269  0.8709
 1018MOL0     C34248   7.988   2.936   2.707 -0.2372  0.3250 -0.3168
 1018MOL0     C34249   7.952   2.929   2.845  0.4101 -0.1077  0.4405
 1018MOL0     C34250   7.810   2.944   2.874 -0.6206  0.3214  0.2238
 1018MOL0     C34251   7.713   2.980   2.776 -0.2434  1.3220  0.3700
 1018MOL0     O34252   7.590   2.977   2.825 -0.5392 -0.5906  0.9357
 1018MOL0     C34253   7.485   2.943   2.737  0.0282 -0.2229  0.6692
 1018MOL0     C34254   7.375   2.858   2.793  0.3241 -0.6267 -0.6094
 1018MOL0     C34255   7.296   2.932   2.901  0.8588 -0.0670 -0.0589
 1018MOL0     C34256   7.160   2.877   2.941 -0.2353  0.0113  0.0060
 1018MOL0     C34257   7.113   2.936   3.072  0.2887 -0.0020 -0.0572
 1018MOL0     C34258   6.962   2.950   3.068  0.0999  0.2844 -0.7926
 1018MOL0     C34259   6.907   3.009   3.193  0.9506 -0.3472 -0.6955
 1018MOL0     C34260   6.757   3.028   3.173  0.6865  0.4205  0.8964
 1018MOL0     N34261   6.689   3.053   3.306 -0.7274  0.5431  0.4231
 1018MOL0     C34262   6.693   3.165   3.373  0.0489 -1.2180 -0.1979
 1018MOL0     C34263   6.634   3.149   3.495  0.3396  0.4075  0.3262
 1018MOL0     C34264   6.610   3.252   3.602  0.4746 -0.1275 -0.1800
 1018MOL0     C34265   6.484   3.335   3.592  0.4085 -0.6594  0.9566
 1018MOL0     C34266   6.364   3.256   3.632  0.4208 -0.6512  0.3043
 1018MOL0     C34267   6.222   3.320   3.606  0.1754  0.4191  1.2080
 1018MOL0     O34268   6.116   3.261   3.688 -0.3342 -0.1066  0.0246
 1018MOL0     C34269   5.987   3.311   3.682  0.3142 -0.0239 -0.4463
 1018MOL0     C34270   5.936   3.428   3.615  0.3281  0.0383 -0.1782
 1018MOL0     C34271   5.806   3.471   3.636 -0.4195  0.6285 -0.1678
 1018MOL0     C34272   5.709   3.383   3.689  0.0206  0.2529  0.4600
 1018MOL0     C34273   5.568   3.432   3.702  0.3621  0.8808 -0.6065
 1018MOL0     O34274   5.481   3.347   3.759 -0.0458 -0.6879 -1.0773
 1018MOL0     C34275   5.344   3.363   3.773 -0.9094  0.2057  0.1475
 1018MOL0     C34276   5.267   3.276   3.854  0.3327 -0.0941 -0.8677
 1018MOL0     C34277   5.124   3.297   3.876  0.1695 -0.1301  0.3252
 1018MOL0     C34278   5.056   3.399   3.825 -0.4778  0.3785  0.7699
 1018MOL0     O34279   4.917   3.394   3.840 -0.3196  0.3010  0.8593
 1018MOL0     C34280   4.841   3.474   3.747  0.5321 -0.0607 -0.4489
 1018MOL0     C34281   4.700   3.423   3.759  0.2688  0.2064  0.0575
 1018MOL0     C34282   4.677   3.273   3.730 -0.1971  0.6801  0.1277
 1018MOL0     C34283   4.529   3.261   3.702  0.3306 -0.4757 -0.1231
 1018MOL0     C34284   4.493   3.114   3.661 -0.4758 -0.2677 -0.5018
 1018MOL0     C34285   4.378   3.061   3.745 -0.6030 -0.0697  0.3369
 1018MOL0     C34286   4.414   3.030   3.888 -0.7637 -0.6843  1.2370
 1018MOL0     C34287   4.304   2.979   3.971  0.4209 -0.2047  0.5426
 1018MOL0    Cl34288   4.249   2.815   3.931  0.4478 -0.0540 -0.5820
 1018MOL0     C34289   5.134   3.488   3.746 -0.1983  0.9999 -0.0174
 1018MOL0     C34290   5.270   3.467   3.712 -0.5063 -0.6939  0.7649
 1018MOL0     O34291   5.543   3.547   3.662 -0.0729  0.4855 -0.1035
 1018MOL0     C34292   5.757   3.267   3.748 -0.2114 -0.6856 -0.1927
 1018MOL0     C34293   5.893   3.241   3.745  0.1912  0.6654 -0.6266
 1018MOL0     N34294   6.590   3.012   3.496 -0.3713 -0.2572  0.1487
 1018MOL0     N34295   6.638   2.957   3.389  0.2765 -0.0220  0.1396
 1018MOL0     C34296   7.755   3.009   2.644 -0.1467 -0.0516  0.2641
 1018MOL0     C34297   7.892   2.983   2.610  0.8861 -0.3896  0.2910
 1018MOL0     C34298   8.327   2.857   2.542 -0.4776  0.4813 -0.5325
 1018MOL0     C34299   8.418   2.871   2.655 -0.4211 -0.7640  1.0510
 1018MOL0     C34300   8.556   2.863   2.644  0.2620  0.1419  1.0560
 1018MOL0     C34301   8.609   2.830   2.516 -0.0276  0.3640  0.1803
 1018MOL0     O34302   8.743   2.839   2.502  0.4531  0.1061 -0.6653
 1018MOL0     C34303   8.817   2.719   2.462 -0.4353 -0.0394 -0.1015
 1018MOL0     C34304   8.968   2.745   2.465 -0.1431 -0.2668 -0.3421
 1018MOL0     C34305   9.050   2.640   2.393 -0.5330  0.5092 -0.2294
 1018MOL0     C34306   9.078   2.664   2.238  0.2448  0.2990 -0.7759
 1018MOL0     C34307   8.967   2.642   2.146 -0.2703 -0.3518  0.6452
 1018MOL0     C34308   8.897   2.621   2.047  0.1356  0.4613 -0.3006
 1018MOL0     C34309   8.528   2.796   2.409  0.8199 -0.9751 -0.2967
 1018MOL0     C34310   8.389   2.808   2.427 -0.0425 -0.0337  0.3208
 1018MOL0     H34311   8.026   2.912   2.923  0.0601  2.5063  1.4396
 1018MOL0     H34312   7.779   2.939   2.978  0.3170  0.0325  0.4979
 1018MOL0     H34313   7.533   2.897   2.650 -2.7678  0.4645 -1.3645
 1018MOL0     H34314   7.432   3.033   2.704  1.0507  0.4038  0.6686
 1018MOL0     H34315   7.414   2.771   2.847 -1.7588 -0.1591  1.8841
 1018MOL0     H34316   7.310   2.816   2.716  1.1434 -0.9602 -1.1354
 1018MOL0     H34317   7.278   3.038   2.882 -1.0993 -0.4559 -0.5770
 1018MOL0     H34318   7.356   2.924   2.993 -1.1557  3.8903  1.8359
 1018MOL0     H34319   7.083   2.884   2.864 -1.2443  2.1112  1.1356
 1018MOL0     H34320   7.186   2.772   2.961  1.0247  0.3358  0.1897
 1018MOL0     H34321   7.145   3.040   3.082 -1.9509  0.5783  1.5586
 1018MOL0     H34322   7.140   2.869   3.154  0.5347  1.9975  1.5662
 1018MOL0     H34323   6.922   2.848   3.068 -0.9007  0.6712 -0.3450
 1018MOL0     H34324   6.924   2.995   2.976  0.0922 -2.6781 -2.3455
 1018MOL0     H34325   6.925   2.937   3.274 -0.0193 -2.5075 -2.3098
 1018MOL0     H34326   6.942   3.108   3.224 -0.1979 -0.0067 -0.4439
 1018MOL0     H34327   6.712   2.937   3.134  2.3972  0.3062 -1.0208
 1018MOL0     H34328   6.751   3.111   3.102  3.5586 -0.6008 -0.6996
 1018MOL0     H34329   6.746   3.252   3.336 -1.3878  0.0687  0.6528
 1018MOL0     H34330   6.694   3.322   3.593  2.2625 -1.9477  1.2543
 1018MOL0     H34331   6.612   3.206   3.701  1.0039  1.6335  0.6796
 1018MOL0     H34332   6.473   3.377   3.491  1.6897 -0.4596  0.8816
 1018MOL0     H34333   6.496   3.419   3.661 -2.5994  0.7146 -0.0154
 1018MOL0     H34334   6.360   3.172   3.562 -0.7716  0.8343 -1.4910
 1018MOL0     H34335   6.367   3.223   3.737 -1.6776 -1.8433  0.0351
 1018MOL0     H34336   6.207   3.294   3.501  1.6316 -0.7015  1.2538
 1018MOL0     H34337   6.217   3.429   3.616  0.0103  0.8601 -2.4858
 1018MOL0     H34338   6.002   3.480   3.545 -0.0457 -0.3752 -0.8420
 1018MOL0     H34339   5.779   3.566   3.592 -1.5346 -1.0155 -3.3939
 1018MOL0     H34340   5.327   3.205   3.910 -2.3789  0.3555  3.0095
 1018MOL0     H34341   5.071   3.218   3.928 -0.6668  0.5057  0.4493
 1018MOL0     H34342   4.871   3.458   3.643 -0.8418  2.0604 -1.2189
 1018MOL0     H34343   4.848   3.579   3.777  2.5344  0.0247 -1.0872
 1018MOL0     H34344   4.642   3.487   3.691  0.2578 -1.2955 -1.4097
 1018MOL0     H34345   4.663   3.450   3.858 -0.8440  0.1173 -0.3268
 1018MOL0     H34346   4.697   3.212   3.818 -4.3745  1.1826  1.6418
 1018MOL0     H34347   4.739   3.251   3.642 -2.0195  3.0063 -1.8817
 1018MOL0     H34348   4.471   3.296   3.788  1.3134 -0.4431  0.5405
 1018MOL0     H34349   4.511   3.334   3.623  1.3065  0.5065  0.5308
 1018MOL0     H34350   4.583   3.052   3.669 -1.0038 -0.8295  2.4194
 1018MOL0     H34351   4.459   3.115   3.557 -2.3151 -0.1350  0.0595
 1018MOL0     H34352   4.348   2.967   3.697 -0.0247 -0.4488  0.6890
 1018MOL0     H34353   4.295   3.131   3.741 -1.6404 -1.2613  0.4571
 1018MOL0     H34354   4.492   2.954   3.878 -1.4195 -1.1672 -0.6924
 1018MOL0     H34355   4.458   3.119   3.934 -0.6678 -0.3200  0.4681
 1018MOL0     H34356   4.218   3.046   3.962 -0.8244 -1.7600  0.2926
 1018MOL0     H34357   4.332   2.977   4.076  1.6118 -0.2899  0.2415
 1018MOL0     H34358   5.092   3.580   3.706 -0.2397 -0.3587 -3.4632
 1018MOL0     H34359   5.316   3.544   3.651 -0.5005 -0.4006  1.1366
 1018MOL0     H34360   5.679   3.210   3.799 -0.7491  0.1325 -0.0789
 1018MOL0     H34361   5.928   3.156   3.802 -0.0621  0.7991 -0.2695
 1018MOL0     H34362   7.681   3.048   2.575 -0.3628  1.3458  1.2384
 1018MOL0     H34363   7.925   3.002   2.508 -1.3181 -3.1456 -1.0792
 1018MOL0     H34364   8.369   2.903   2.747 -0.4586  0.8053  0.5117
 1018MOL0     H34365   8.625   2.893   2.722  0.2653 -0.0010  1.1078
 1018MOL0     H34366   8.798   2.686   2.359  3.1424  2.0582 -1.6005
 1018MOL0     H34367   8.786   2.643   2.535 -0.8234 -1.1049 -1.3348
 1018MOL0     H34368   8.987   2.834   2.405 -0.1812 -2.8739 -4.5931
 1018MOL0     H34369   9.005   2.758   2.567 -0.1174 -1.5513 -0.1722
 1018MOL0     H34370   8.996   2.547   2.412 -0.7767  0.9956  1.7468
 1018MOL0     H34371   9.151   2.629   2.436  0.0354  0.4983 -1.5231
 1018MOL0     H34372   9.130   2.759   2.226 -0.1564  0.3220 -2.5319
 1018MOL0     H34373   9.148   2.591   2.196 -1.0372 -1.1611 -0.4709
 1018MOL0     H34374   8.829   2.610   1.965  2.5618  0.0271 -2.3569
 1018MOL0     H34375   8.559   2.777   2.307 -1.9076  1.8156 -1.8367
 1018MOL0     H34376   8.334   2.782   2.337 -1.6365  2.2293  0.5523
 1019MOL0     O34377   3.034   8.068   0.581 -0.9224  0.0203  0.1838
 1019MOL0     C34378   3.101   7.967   0.572  0.6967  0.3976 -0.3703
 1019MOL0     O34379   3.059   7.853   0.507  0.0255  0.1569 -0.3781
 1019MOL0     C34380   2.924   7.822   0.469 -0.4724  0.6099 -0.5206
 1019MOL0     C34381   2.908   7.705   0.400 -1.2938  0.6755 -0.0751
 1019MOL0     C34382   2.786   7.675   0.347  0.3705 -0.2771  0.3471
 1019MOL0     C34383   2.670   7.738   0.391 -0.9002 -0.8382 -1.0154
 1019MOL0     O34384   2.557   7.691   0.343  0.3146 -0.0163 -0.0262
 1019MOL0     C34385   2.432   7.761   0.345  0.7836  1.0816 -0.1731
 1019MOL0     C34386   2.327   7.674   0.272  1.0867 -0.0762 -0.0577
 1019MOL0     C34387   2.201   7.755   0.258  1.2603 -1.0385  0.7596
 1019MOL0     C34388   2.098   7.684   0.166  0.6746  0.1089 -0.0253
 1019MOL0     C34389   1.982   7.775   0.133  0.2735 -0.3534  0.5737
 1019MOL0     C34390   1.878   7.789   0.246  0.0307 -0.3211 -0.9053
 1019MOL0     C34391   1.753   7.855   0.203 -0.2566  0.1937  0.7014
 1019MOL0     C34392   1.642   7.870   0.310  0.3984 -0.4138 -0.2956
 1019MOL0     N34393   1.551   7.981   0.282 -0.0205  0.2499  0.7274
 1019MOL0     C34394   1.583   8.103   0.325  0.0918  0.7774 -0.0283
 1019MOL0     C34395   1.495   8.176   0.265  0.4832 -1.0106 -0.0696
 1019MOL0     C34396   1.478   8.323   0.294  0.3955 -0.9666  0.5302
 1019MOL0     C34397   1.343   8.372   0.228 -0.2021  0.7688 -0.5723
 1019MOL0     C34398   1.315   8.518   0.271  0.6993  0.5492  0.1534
 1019MOL0     C34399   1.197   8.572   0.199  0.3376 -0.1883  0.3451
 1019MOL0     O34400   1.089   8.496   0.250 -0.6081 -0.6472  0.0788
 1019MOL0     C34401   0.956   8.542   0.242  0.3276  0.0115 -0.4078
 1019MOL0     C34402   0.918   8.672   0.194  0.1662  0.1415 -0.0937
 1019MOL0     C34403   0.780   8.711   0.195  0.9051  1.0313  0.2351
 1019MOL0     C34404   0.688   8.617   0.256  0.5428  0.1739  0.1449
 1019MOL0     C34405   0.540   8.656   0.266  0.5822  0.5812 -1.5393
 1019MOL0     O34406   0.466   8.605   0.381  0.2372 -0.4317 -0.6233
 1019MOL0     C34407   0.327   8.623   0.378  0.2027 -0.4146  0.4524
 1019MOL0     C34408   0.254   8.699   0.472  0.7019  0.0533  0.0775
 1019MOL0     C34409   0.114   8.697   0.471 -0.1420  0.7807  0.2773
 1019MOL0     C34410   0.048   8.639   0.363  1.1254  0.2847 -0.0156
 1019MOL0     O34411  -0.086   8.653   0.340 -0.4170 -0.6256 -0.0046
 1019MOL0     C34412  -0.170   8.607   0.447 -0.3171 -0.0130 -0.4192
 1019MOL0     C34413  -0.305   8.670   0.420  0.2517 -0.2114 -0.8247
 1019MOL0     C34414  -0.308   8.815   0.464 -0.3049  0.1459  0.9128
 1019MOL0     C34415  -0.424   8.895   0.423 -0.4212  0.0632  0.0567
 1019MOL0     C34416  -0.420   9.031   0.481 -0.2438  0.1053  0.1858
 1019MOL0     C34417  -0.317   9.119   0.405  0.5944  0.5984  0.2138
 1019MOL0     C34418  -0.350   9.263   0.428 -0.3198  0.3289  0.3768
 1019MOL0     C34419  -0.230   9.353   0.385  0.1478  0.4634 -0.0816
 1019MOL0    Cl34420  -0.119   9.330   0.518 -0.1288 -0.2524 -0.2486
 1019MOL0     C34421   0.122   8.561   0.272  0.6563 -0.1388 -0.3180
 1019MOL0     C34422   0.256   8.543   0.285 -0.5412 -1.0421 -0.1692
 1019MOL0     O34423   0.492   8.722   0.178  0.3955  0.3961 -0.5681
 1019MOL0     C34424   0.731   8.498   0.308 -0.0426 -0.9525  0.3989
 1019MOL0     C34425   0.858   8.462   0.302 -0.7776  0.8863 -0.3734
 1019MOL0     N34426   1.402   8.094   0.186 -0.4597  0.3978 -0.0408
 1019MOL0     N34427   1.441   7.979   0.200 -0.3356 -0.1117  0.2105
 1019MOL0     C34428   2.677   7.845   0.487  0.0644  0.0996  0.7405
 1019MOL0     C34429   2.806   7.881   0.519  0.2056 -0.8148 -0.2328
 1019MOL0     C34430   3.239   7.966   0.629  0.4989  0.3397  0.7949
 1019MOL0     C34431   3.307   8.085   0.653  0.2795 -0.5948 -0.3554
 1019MOL0     C34432   3.435   8.083   0.716 -0.8259 -0.0156 -0.1330
 1019MOL0     C34433   3.506   7.965   0.740  0.1236 -0.4781 -0.3826
 1019MOL0     O34434   3.626   7.973   0.805  0.1324  0.4588  1.5977
 1019MOL0     C34435   3.721   7.870   0.767  0.0681 -0.6814 -0.1523
 1019MOL0     C34436   3.854   7.911   0.818  0.1150  0.2364 -0.3358
 1019MOL0     C34437   3.911   8.040   0.760  0.0807 -0.1196 -0.1516
 1019MOL0     C34438   4.051   8.069   0.808 -0.0399  0.1190 -0.1979
 1019MOL0     C34439   4.150   7.967   0.763 -0.1517 -0.8112  0.5238
 1019MOL0     C34440   4.230   7.889   0.721 -0.5634 -0.1393 -0.0858
 1019MOL0     C34441   3.439   7.844   0.710  0.5415 -0.5317 -0.1478
 1019MOL0     C34442   3.310   7.852   0.653  0.1406  0.0077  0.2522
 1019MOL0     H34443   3.000   7.660   0.367 -1.7416 -0.8430  0.6533
 1019MOL0     H34444   2.779   7.592   0.278  3.1261  0.2046 -0.6711
 1019MOL0     H34445   2.437   7.851   0.283  0.1831 -0.0701 -1.9762
 1019MOL0     H34446   2.403   7.775   0.450 -0.6391 -1.5621 -0.1235
 1019MOL0     H34447   2.294   7.582   0.322 -2.5411 -0.0498 -2.0746
 1019MOL0     H34448   2.365   7.650   0.171  0.8500  2.9889 -0.9630
 1019MOL0     H34449   2.240   7.841   0.203  3.4124 -1.5294  1.4176
 1019MOL0     H34450   2.153   7.783   0.352 -1.1838 -0.5523 -0.5463
 1019MOL0     H34451   2.157   7.670   0.075  2.0448  2.8902  0.3318
 1019MOL0     H34452   2.060   7.588   0.201  0.8726  0.0836  0.1178
 1019MOL0     H34453   1.929   7.741   0.044 -1.3029  0.7916  1.0290
 1019MOL0     H34454   2.024   7.873   0.109 -1.2073 -0.1841 -1.6487
 1019MOL0     H34455   1.912   7.830   0.341 -0.7907 -1.6082 -0.0268
 1019MOL0     H34456   1.846   7.688   0.274 -0.7773  0.2438  0.2866
 1019MOL0     H34457   1.770   7.951   0.153 -1.7941  2.1521  3.6531
 1019MOL0     H34458   1.710   7.798   0.120 -1.4479  2.0617 -0.0474
 1019MOL0     H34459   1.682   7.892   0.409  0.7946 -1.9646 -0.0828
 1019MOL0     H34460   1.589   7.774   0.319  0.4116 -0.6338 -2.1947
 1019MOL0     H34461   1.646   8.144   0.403 -1.2717  0.1751  1.4424
 1019MOL0     H34462   1.556   8.384   0.248 -3.3304  2.7974 -1.4584
 1019MOL0     H34463   1.471   8.342   0.401  1.6394  0.7995  0.3353
 1019MOL0     H34464   1.262   8.314   0.274  0.4925 -0.0878 -0.3848
 1019MOL0     H34465   1.351   8.347   0.122  0.0223 -1.5641 -0.0736
 1019MOL0     H34466   1.304   8.537   0.378  0.4894  2.8855 -0.2406
 1019MOL0     H34467   1.408   8.571   0.247  2.0142 -1.5284  0.3607
 1019MOL0     H34468   1.198   8.568   0.089 -1.9638 -2.0546  0.2970
 1019MOL0     H34469   1.190   8.678   0.225  0.8038 -0.2932  0.9259
 1019MOL0     H34470   0.983   8.753   0.164 -0.8533  0.5393 -1.3009
 1019MOL0     H34471   0.742   8.794   0.137  1.8005  0.2972 -1.4816
 1019MOL0     H34472   0.299   8.759   0.551  0.6007  0.1402  0.0699
 1019MOL0     H34473   0.063   8.753   0.549  2.4914  0.3286  2.4924
 1019MOL0     H34474  -0.135   8.629   0.548 -1.4671  0.2522 -0.0524
 1019MOL0     H34475  -0.182   8.498   0.446 -2.3553  0.1641 -1.4524
 1019MOL0     H34476  -0.384   8.611   0.468 -0.5672 -0.5892 -2.5716
 1019MOL0     H34477  -0.317   8.647   0.314  3.4790  0.8967 -1.5210
 1019MOL0     H34478  -0.231   8.871   0.409 -0.7283 -0.0307  0.1325
 1019MOL0     H34479  -0.287   8.827   0.571 -0.3280 -1.9286  1.1796
 1019MOL0     H34480  -0.437   8.910   0.315 -2.9344  3.5010  0.6372
 1019MOL0     H34481  -0.513   8.838   0.452 -0.9149  0.2205 -1.0701
 1019MOL0     H34482  -0.376   9.036   0.581  1.0598 -3.2038 -0.0953
 1019MOL0     H34483  -0.520   9.075   0.474 -0.1806 -0.0031 -2.0697
 1019MOL0     H34484  -0.332   9.091   0.300  2.7091  0.4280 -0.0805
 1019MOL0     H34485  -0.217   9.088   0.438 -0.1794 -1.8708  0.4481
 1019MOL0     H34486  -0.442   9.285   0.374 -0.8513  0.3852  1.2851
 1019MOL0     H34487  -0.370   9.272   0.535  1.3304  1.2244  0.6479
 1019MOL0     H34488  -0.258   9.456   0.362 -0.6376 -0.0795 -1.6712
 1019MOL0     H34489  -0.183   9.315   0.294  1.5524  1.0195  0.3706
 1019MOL0     H34490   0.060   8.507   0.202  0.8089  1.8008 -2.0447
 1019MOL0     H34491   0.309   8.480   0.214 -3.2540 -0.3208 -3.0111
 1019MOL0     H34492   0.668   8.422   0.354  0.2698 -0.2473  2.0772
 1019MOL0     H34493   0.889   8.365   0.339  1.8844  1.0846 -1.8183
 1019MOL0     H34494   2.594   7.899   0.531  0.0516  1.6132 -1.0410
 1019MOL0     H34495   2.809   7.964   0.589 -2.1219 -0.5493 -0.3497
 1019MOL0     H34496   3.252   8.176   0.632 -1.1574 -0.5147  3.0318
 1019MOL0     H34497   3.491   8.168   0.754  0.5364 -1.8569  2.3012
 1019MOL0     H34498   3.731   7.859   0.658  2.3382 -0.2735 -0.0289
 1019MOL0     H34499   3.686   7.779   0.815 -0.9341  0.2052  0.8340
 1019MOL0     H34500   3.835   7.908   0.926 -0.1275  1.2300 -0.3460
 1019MOL0     H34501   3.913   7.821   0.798  2.2800  1.6233 -0.4919
 1019MOL0     H34502   3.846   8.127   0.770  1.1441  0.9913 -2.3432
 1019MOL0     H34503   3.916   8.023   0.653 -4.1069  0.8531 -0.6724
 1019MOL0     H34504   4.089   8.167   0.776 -0.9428  1.3202  2.1362
 1019MOL0     H34505   4.049   8.066   0.917  4.5010  0.9993  0.1330
 1019MOL0     H34506   4.303   7.820   0.684  2.0766  2.4763 -0.0446
 1019MOL0     H34507   3.493   7.751   0.727  1.0362 -0.9006 -3.1058
 1019MOL0     H34508   3.269   7.758   0.616  2.1263 -0.2761 -1.4319
 1020MOL0     O34509   5.800   2.031   9.643  0.4295 -0.2916 -0.3785
 1020MOL0     C34510   5.907   2.073   9.686  0.0334 -0.1906  0.3125
 1020MOL0     O34511   5.945   2.203   9.693 -0.6574 -0.5083  0.3380
 1020MOL0     C34512   5.869   2.307   9.649 -0.5232  0.2924  0.2575
 1020MOL0     C34513   5.900   2.384   9.535  0.5218  0.1917  0.1353
 1020MOL0     C34514   5.805   2.469   9.475  0.4600 -0.5552 -0.5003
 1020MOL0     C34515   5.686   2.503   9.543 -0.9004  0.4687 -0.2003
 1020MOL0     O34516   5.599   2.603   9.507  0.1407 -0.3126 -0.2973
 1020MOL0     C34517   5.620   2.676   9.384  0.6356 -0.3430 -0.5040
 1020MOL0     C34518   5.511   2.778   9.357  0.1940 -0.0737 -0.6490
 1020MOL0     C34519   5.381   2.706   9.331  0.3881 -0.2187  0.0211
 1020MOL0     C34520   5.278   2.804   9.263  0.4696  0.2654  0.2941
 1020MOL0     C34521   5.169   2.716   9.200 -0.0848 -0.1867 -0.6080
 1020MOL0     C34522   5.097   2.638   9.310 -0.0797  0.7231  0.2097
 1020MOL0     C34523   4.976   2.576   9.250 -1.0565 -0.5837  0.4380
 1020MOL0     C34524   4.891   2.500   9.346  0.0177  0.0172 -0.4445
 1020MOL0     N34525   4.781   2.421   9.283  0.2546  0.0654 -0.0462
 1020MOL0     C34526   4.663   2.473   9.233  0.0052  0.3771  0.4549
 1020MOL0     C34527   4.616   2.378   9.154  0.1767  0.2780  0.3903
 1020MOL0     C34528   4.499   2.378   9.058  0.3778 -0.1292  0.2008
 1020MOL0     C34529   4.375   2.318   9.126 -0.3344  0.5093 -0.8005
 1020MOL0     C34530   4.309   2.418   9.234  0.5537 -0.2193  0.1038
 1020MOL0     C34531   4.230   2.539   9.172 -1.2219  0.5399  0.5390
 1020MOL0     O34532   4.160   2.593   9.284 -0.2855 -0.1062  0.6597
 1020MOL0     C34533   4.038   2.544   9.328 -0.0606 -0.4251 -0.7462
 1020MOL0     C34534   3.982   2.439   9.265 -0.0626  0.1931 -0.2397
 1020MOL0     C34535   3.855   2.397   9.302  0.0796  0.0761  0.6703
 1020MOL0     C34536   3.788   2.457   9.404  0.3248  0.2026 -0.6033
 1020MOL0     C34537   3.642   2.428   9.442 -1.1294  0.4590 -0.2054
 1020MOL0     O34538   3.576   2.337   9.367  0.5722 -0.5488  0.0553
 1020MOL0     C34539   3.463   2.271   9.408 -0.4930  0.1141  1.2081
 1020MOL0     C34540   3.443   2.233   9.541 -0.1376  0.2568  0.1772
 1020MOL0     C34541   3.329   2.157   9.576 -0.6273 -0.5940  0.5531
 1020MOL0     C34542   3.240   2.112   9.483 -0.0445 -0.6491 -0.6102
 1020MOL0     O34543   3.129   2.035   9.502  0.3624  0.3125  0.1283
 1020MOL0     C34544   3.093   1.996   9.628  0.6158 -0.6165 -0.1645
 1020MOL0     C34545   2.981   1.890   9.625 -0.1579  0.3664 -0.0687
 1020MOL0     C34546   2.876   1.922   9.520 -0.2128 -0.2639 -0.2716
 1020MOL0     C34547   2.792   2.040   9.562  0.3774 -0.9002  0.5445
 1020MOL0     C34548   2.659   2.054   9.486 -0.7139 -0.3455 -0.1557
 1020MOL0     C34549   2.668   2.151   9.367  0.3517 -0.0873  0.6842
 1020MOL0     C34550   2.743   2.094   9.253  0.8858 -0.2009 -0.1769
 1020MOL0     C34551   2.722   2.169   9.125 -0.6501  0.2427 -1.0581
 1020MOL0    Cl34552   2.788   2.333   9.160 -0.4789  0.3460 -0.0298
 1020MOL0     C34553   3.272   2.137   9.347 -0.2607  0.2924  0.0234
 1020MOL0     C34554   3.382   2.219   9.308  0.8442 -0.3730  0.2421
 1020MOL0     O34555   3.601   2.472   9.546  0.0374  0.7814  0.1757
 1020MOL0     C34556   3.860   2.554   9.484  1.1333  0.5835  0.2442
 1020MOL0     C34557   3.979   2.598   9.440  0.0746 -1.6333 -0.6833
 1020MOL0     N34558   4.707   2.277   9.157  0.1079 -0.6004  0.1601
 1020MOL0     N34559   4.806   2.302   9.235 -0.1951  1.0680  0.4613
 1020MOL0     C34560   5.653   2.424   9.654  0.8182 -0.1295 -0.3938
 1020MOL0     C34561   5.747   2.328   9.710  0.3124 -0.6555  1.0770
 1020MOL0     C34562   6.003   1.984   9.745 -0.6902  0.5972 -0.8107
 1020MOL0     C34563   5.969   1.858   9.782 -0.5568 -0.6651 -0.2552
 1020MOL0     C34564   6.056   1.754   9.805 -0.2141  1.1730  0.4990
 1020MOL0     C34565   6.196   1.793   9.816 -0.1742 -0.5616  0.0994
 1020MOL0     O34566   6.299   1.720   9.865 -0.1448 -0.3058  0.1987
 1020MOL0     C34567   6.279   1.588   9.915  0.8246  0.4280 -0.3183
 1020MOL0     C34568   6.409   1.525   9.956 -0.4104 -0.0974  0.5140
 1020MOL0     C34569   6.474   1.581  10.079 -0.7983 -0.5305  0.0632
 1020MOL0     C34570   6.473   1.732  10.117  0.0584  0.1309  0.6089
 1020MOL0     C34571   6.547   1.764  10.247  1.4504  0.1559  1.2548
 1020MOL0     C34572   6.607   1.799  10.341 -0.3346  0.0506 -0.7864
 1020MOL0     C34573   6.233   1.925   9.794 -0.5571  0.2991 -0.2426
 1020MOL0     C34574   6.143   2.020   9.757 -0.2586 -0.6503 -0.1238
 1020MOL0     H34575   5.988   2.363   9.475  0.7094  2.4458 -0.4832
 1020MOL0     H34576   5.841   2.519   9.385 -0.7247  2.5600  0.6211
 1020MOL0     H34577   5.639   2.612   9.297 -0.6507 -0.9513 -0.3570
 1020MOL0     H34578   5.706   2.742   9.397  0.3770  0.1016 -1.0255
 1020MOL0     H34579   5.550   2.841   9.277  1.4426 -0.5071 -0.4024
 1020MOL0     H34580   5.498   2.844   9.443  0.1599 -1.6922  0.6564
 1020MOL0     H34581   5.345   2.673   9.429 -2.2178  0.3098 -0.6769
 1020MOL0     H34582   5.406   2.616   9.274  3.6925  0.6677 -0.1148
 1020MOL0     H34583   5.237   2.875   9.336  1.4729 -1.2784  2.4703
 1020MOL0     H34584   5.324   2.859   9.180 -0.9576  2.0157  0.6006
 1020MOL0     H34585   5.211   2.639   9.134 -3.2743 -0.9092 -2.0268
 1020MOL0     H34586   5.099   2.774   9.140 -0.5446 -1.1538 -1.0436
 1020MOL0     H34587   5.063   2.709   9.386  0.0439  2.6067 -1.3964
 1020MOL0     H34588   5.163   2.565   9.356  0.6960  0.6646 -0.9597
 1020MOL0     H34589   4.925   2.655   9.194  0.0981 -0.2793 -0.2233
 1020MOL0     H34590   5.009   2.506   9.173 -2.2554 -0.5281 -0.1415
 1020MOL0     H34591   4.844   2.570   9.416 -0.9719 -2.5299  1.5966
 1020MOL0     H34592   4.953   2.431   9.404 -1.4556 -1.3238 -0.4071
 1020MOL0     H34593   4.628   2.573   9.255 -0.2910  0.2999  0.3326
 1020MOL0     H34594   4.520   2.334   8.960  1.3804 -0.4145  0.5349
 1020MOL0     H34595   4.471   2.482   9.039 -2.2370 -0.3281  2.2677
 1020MOL0     H34596   4.415   2.231   9.178 -0.6374  0.4784 -0.6221
 1020MOL0     H34597   4.300   2.276   9.058 -1.1163 -1.8518  1.3720
 1020MOL0     H34598   4.246   2.356   9.299  2.8230 -1.5809  1.1498
 1020MOL0     H34599   4.387   2.457   9.301  1.2562 -0.3281 -0.6393
 1020MOL0     H34600   4.167   2.516   9.086 -1.7827  3.9624 -0.0942
 1020MOL0     H34601   4.299   2.620   9.146 -3.0492  2.3732  1.1552
 1020MOL0     H34602   4.020   2.396   9.173  2.5800  0.4252  0.6643
 1020MOL0     H34603   3.815   2.319   9.237  0.3292  1.6004 -1.4303
 1020MOL0     H34604   3.502   2.261   9.627  0.4189 -1.3837  0.3558
 1020MOL0     H34605   3.308   2.132   9.680  0.1713 -2.1923  0.3619
 1020MOL0     H34606   3.056   2.085   9.680 -2.3721 -2.0774  0.3996
 1020MOL0     H34607   3.170   1.953   9.693 -0.3593 -1.5660  0.3916
 1020MOL0     H34608   2.934   1.883   9.723  1.3260  0.2156  0.6576
 1020MOL0     H34609   3.024   1.792   9.601 -2.1571 -0.1749 -1.8041
 1020MOL0     H34610   2.808   1.837   9.529  0.0728 -0.4353  0.3434
 1020MOL0     H34611   2.913   1.931   9.418 -1.6545  0.5041 -0.7548
 1020MOL0     H34612   2.775   2.025   9.670 -0.5603  1.3175  0.7626
 1020MOL0     H34613   2.853   2.129   9.550 -1.8162  0.5815 -0.2473
 1020MOL0     H34614   2.577   2.079   9.554 -0.3743 -0.3527  0.2569
 1020MOL0     H34615   2.626   1.954   9.455  0.9886 -1.5011  1.5712
 1020MOL0     H34616   2.706   2.248   9.397 -0.8418 -0.2320  2.8729
 1020MOL0     H34617   2.569   2.163   9.323  1.2063  1.7170 -0.9144
 1020MOL0     H34618   2.850   2.094   9.277  0.5315  3.0152  2.0046
 1020MOL0     H34619   2.703   1.993   9.238 -0.7755  0.5388 -1.0422
 1020MOL0     H34620   2.618   2.178   9.092  0.0804  2.6895 -2.9356
 1020MOL0     H34621   2.767   2.120   9.038 -2.0368 -0.9500 -1.1491
 1020MOL0     H34622   3.210   2.094   9.269 -0.8424 -0.7188  1.0164
 1020MOL0     H34623   3.396   2.240   9.202 -1.4088  2.8381  0.4406
 1020MOL0     H34624   3.817   2.584   9.579  2.4419  2.3562  0.3393
 1020MOL0     H34625   4.044   2.675   9.479 -1.3321 -0.1373 -1.1671
 1020MOL0     H34626   5.551   2.443   9.685  0.0961  1.4788 -3.3466
 1020MOL0     H34627   5.717   2.268   9.796 -3.6910 -0.4568  0.0303
 1020MOL0     H34628   5.861   1.844   9.785 -0.5498 -0.7017 -0.1283
 1020MOL0     H34629   6.027   1.650   9.815 -1.1578  1.3242 -0.4880
 1020MOL0     H34630   6.225   1.508   9.864  1.7964 -1.9815  2.1414
 1020MOL0     H34631   6.218   1.598  10.006  1.3750 -0.1608  0.1263
 1020MOL0     H34632   6.400   1.416   9.968 -0.4396 -0.1135  0.3479
 1020MOL0     H34633   6.475   1.545   9.871  0.0591 -1.0897  0.6370
 1020MOL0     H34634   6.576   1.548  10.058  0.1598  1.8765  0.6229
 1020MOL0     H34635   6.439   1.527  10.168 -1.8494 -0.8412 -0.5231
 1020MOL0     H34636   6.520   1.781  10.031 -0.8710 -0.1352 -0.0538
 1020MOL0     H34637   6.374   1.777  10.125 -0.5702 -1.1447  0.2138
 1020MOL0     H34638   6.665   1.847  10.418 -3.3344  2.2913  0.3032
 1020MOL0     H34639   6.339   1.952   9.795 -0.4313  0.0234 -2.1065
 1020MOL0     H34640   6.171   2.124   9.751  0.0401 -0.7629 -0.7975
 1021MOL0     O34641   6.946   1.936   1.127 -0.0265 -0.4426 -0.2550
 1021MOL0     C34642   7.024   2.034   1.130  0.7076  0.2912  0.6812
 1021MOL0     O34643   6.997   2.154   1.179  0.2888 -0.0861 -0.3337
 1021MOL0     C34644   6.866   2.182   1.211  0.1979 -1.1465 -0.1192
 1021MOL0     C34645   6.829   2.216   1.343 -0.5192 -0.7702 -0.8365
 1021MOL0     C34646   6.696   2.232   1.374 -0.5865 -0.0953  0.2368
 1021MOL0     C34647   6.598   2.227   1.269 -0.4354  0.0463  0.0819
 1021MOL0     O34648   6.462   2.230   1.300 -0.5012  0.2740  0.6607
 1021MOL0     C34649   6.388   2.108   1.263 -0.0158 -0.4985  0.8483
 1021MOL0     C34650   6.300   2.070   1.375  0.3978  0.2881 -0.4553
 1021MOL0     C34651   6.203   2.193   1.418 -0.1664 -0.4836  0.3834
 1021MOL0     C34652   6.092   2.140   1.509  0.0185 -0.6446 -0.0878
 1021MOL0     C34653   5.988   2.255   1.538 -0.0383 -0.7501  0.9256
 1021MOL0     C34654   5.879   2.208   1.623 -0.1391 -0.3028  0.3865
 1021MOL0     C34655   5.775   2.327   1.644  1.4770 -0.3796 -0.5478
 1021MOL0     C34656   5.685   2.348   1.520 -0.0488  1.0496  0.2172
 1021MOL0     N34657   5.564   2.433   1.562 -0.2373  1.1432 -0.1917
 1021MOL0     C34658   5.429   2.403   1.548 -0.5177 -0.3718 -0.3868
 1021MOL0     C34659   5.364   2.519   1.562 -0.5710  0.1735  0.7217
 1021MOL0     C34660   5.222   2.554   1.551 -0.0770 -0.8856 -0.3323
 1021MOL0     C34661   5.146   2.427   1.575 -0.2751 -0.2555  0.5869
 1021MOL0     C34662   5.000   2.460   1.542  0.0338 -0.7739 -0.6001
 1021MOL0     C34663   4.919   2.334   1.529  0.5378  0.5434  0.4776
 1021MOL0     O34664   4.800   2.389   1.471 -0.1521  0.0495 -0.1866
 1021MOL0     C34665   4.677   2.327   1.491  0.1415  0.1182  0.3551
 1021MOL0     C34666   4.662   2.195   1.516  0.1388  0.0897  1.0109
 1021MOL0     C34667   4.538   2.129   1.522 -0.3365  0.8287 -0.2345
 1021MOL0     C34668   4.418   2.207   1.515  0.0237 -0.4931  0.2395
 1021MOL0     C34669   4.285   2.149   1.531 -0.1671 -0.1873 -0.8358
 1021MOL0     O34670   4.172   2.234   1.517  0.5104 -0.1006  0.1032
 1021MOL0     C34671   4.040   2.193   1.503 -0.1683 -0.4592 -1.2454
 1021MOL0     C34672   3.994   2.071   1.562  0.4784 -0.5754  0.0609
 1021MOL0     C34673   3.854   2.047   1.541 -0.0183 -1.0021  0.1569
 1021MOL0     C34674   3.763   2.135   1.472 -0.5987  0.3669 -0.3937
 1021MOL0     O34675   3.629   2.115   1.455  0.3666 -0.1073 -0.3550
 1021MOL0     C34676   3.598   1.981   1.410  0.0819 -0.9299  0.1123
 1021MOL0     C34677   3.453   1.962   1.444 -0.0693 -0.3227  0.1025
 1021MOL0     C34678   3.364   2.078   1.392  0.2857  0.5482  0.1430
 1021MOL0     C34679   3.225   2.064   1.452 -0.3229  0.3807  0.2294
 1021MOL0     C34680   3.139   1.969   1.383 -0.7946  0.1820  0.0530
 1021MOL0     C34681   2.989   2.008   1.413  0.4275  0.0344  0.3836
 1021MOL0     C34682   2.959   2.024   1.556 -0.2521  0.0419  0.6575
 1021MOL0     C34683   2.809   2.043   1.576  0.0209 -0.0029 -0.3774
 1021MOL0    Cl34684   2.718   1.901   1.586  0.2109 -0.2224  0.2717
 1021MOL0     C34685   3.820   2.255   1.430  0.4192  0.9399  1.0299
 1021MOL0     C34686   3.954   2.284   1.440 -0.3030 -0.5083  0.2797
 1021MOL0     O34687   4.286   2.025   1.532 -0.2288  0.4558 -0.1605
 1021MOL0     C34688   4.435   2.344   1.478  0.1642  0.8865  0.1978
 1021MOL0     C34689   4.564   2.397   1.473  0.0832 -0.8300 -0.5379
 1021MOL0     N34690   5.455   2.621   1.580 -0.2814  0.5891  0.4341
 1021MOL0     N34691   5.573   2.567   1.583 -0.7844  0.2628 -0.8619
 1021MOL0     C34692   6.632   2.205   1.142  0.3273 -0.0440 -1.2499
 1021MOL0     C34693   6.764   2.172   1.113 -0.4107  0.0988 -0.4262
 1021MOL0     C34694   7.159   2.021   1.071  0.3707 -1.2216 -0.0788
 1021MOL0     C34695   7.225   2.140   1.011  0.2497  0.5329 -0.2578
 1021MOL0     C34696   7.349   2.131   0.946 -0.4874  0.2119 -0.1961
 1021MOL0     C34697   7.419   2.003   0.941  0.0628 -1.1851  0.2888
 1021MOL0     O34698   7.540   1.978   0.878  0.0865  0.9289 -0.1402
 1021MOL0     C34699   7.617   2.077   0.806  0.2789 -0.1063 -0.1408
 1021MOL0     C34700   7.650   2.027   0.670 -0.4660 -0.6206  0.0339
 1021MOL0     C34701   7.536   1.971   0.585 -0.1810 -0.4206  0.0904
 1021MOL0     C34702   7.564   1.940   0.441  0.1439 -0.5200  0.0940
 1021MOL0     C34703   7.521   2.052   0.362 -0.5224 -0.4835 -0.4029
 1021MOL0     C34704   7.491   2.135   0.282 -1.3022  0.6391  0.3419
 1021MOL0     C34705   7.355   1.891   0.996  0.6865 -0.3475  0.2217
 1021MOL0     C34706   7.231   1.895   1.055 -0.0966  0.0377 -0.1200
 1021MOL0     H34707   6.902   2.229   1.422 -1.4982 -1.1405  0.1543
 1021MOL0     H34708   6.670   2.258   1.476 -1.5985 -3.6381  1.0386
 1021MOL0     H34709   6.457   2.025   1.244  1.3650  0.7124  0.3315
 1021MOL0     H34710   6.336   2.124   1.168  0.9274  3.4100  0.8260
 1021MOL0     H34711   6.358   2.048   1.465 -1.2373  2.0035  1.1311
 1021MOL0     H34712   6.238   1.986   1.344 -1.6115  1.5868 -0.1832
 1021MOL0     H34713   6.152   2.234   1.331 -2.3552 -2.9215  0.4123
 1021MOL0     H34714   6.266   2.267   1.469 -0.9196  0.6877 -0.3408
 1021MOL0     H34715   6.036   2.069   1.448  0.6212  0.7454 -2.4083
 1021MOL0     H34716   6.134   2.092   1.597  2.6397 -1.7809 -1.8440
 1021MOL0     H34717   5.943   2.291   1.445  2.3807  0.2192  0.0641
 1021MOL0     H34718   6.040   2.344   1.574 -1.5481  0.9969 -0.9565
 1021MOL0     H34719   5.926   2.182   1.719  1.5922  0.6464 -0.1709
 1021MOL0     H34720   5.822   2.122   1.587 -1.3390  1.1288 -1.2856
 1021MOL0     H34721   5.713   2.295   1.728 -0.6589  2.1162 -1.0435
 1021MOL0     H34722   5.813   2.427   1.666 -0.2762  0.2551 -0.2483
 1021MOL0     H34723   5.647   2.255   1.477 -0.3710  1.0481  0.4956
 1021MOL0     H34724   5.746   2.397   1.443 -0.6316  3.0079  0.9377
 1021MOL0     H34725   5.386   2.305   1.527  0.2242 -0.5207 -1.3274
 1021MOL0     H34726   5.202   2.605   1.457  0.4812 -0.7622 -0.3817
 1021MOL0     H34727   5.190   2.620   1.633  1.9660 -0.0464 -0.1473
 1021MOL0     H34728   5.168   2.395   1.677  0.5865 -0.7703  0.2515
 1021MOL0     H34729   5.177   2.348   1.506  0.9763 -0.9925  1.9366
 1021MOL0     H34730   4.967   2.518   1.629  2.2388  1.2863 -1.0188
 1021MOL0     H34731   4.995   2.525   1.453  1.2959 -1.3396 -1.1128
 1021MOL0     H34732   4.908   2.296   1.631  0.0421 -0.1287  0.1814
 1021MOL0     H34733   4.969   2.273   1.453  2.6638  4.2613 -1.4088
 1021MOL0     H34734   4.753   2.136   1.508  1.4960  2.2934 -1.5284
 1021MOL0     H34735   4.533   2.021   1.529  0.1422  0.9061  2.7562
 1021MOL0     H34736   4.043   2.005   1.633 -1.1010 -1.2243  0.5975
 1021MOL0     H34737   3.827   1.950   1.580  0.7312 -2.1027 -1.9421
 1021MOL0     H34738   3.676   1.908   1.434  0.0186 -1.0388 -0.0138
 1021MOL0     H34739   3.605   1.984   1.301  1.9167  1.5578  0.2044
 1021MOL0     H34740   3.445   1.951   1.552 -1.0092 -0.4252  0.0309
 1021MOL0     H34741   3.412   1.869   1.402 -1.3025  1.1830 -2.2597
 1021MOL0     H34742   3.361   2.082   1.282 -1.2899 -2.3857 -0.0246
 1021MOL0     H34743   3.400   2.179   1.415 -0.2823  1.4581 -2.5770
 1021MOL0     H34744   3.239   2.041   1.558 -0.1813  1.7980  0.5390
 1021MOL0     H34745   3.173   2.160   1.447 -0.8803  0.2289  2.3123
 1021MOL0     H34746   3.158   1.865   1.411  1.0952 -0.8612 -4.2940
 1021MOL0     H34747   3.150   1.968   1.274 -0.1122  1.0632  0.1009
 1021MOL0     H34748   2.938   1.924   1.364  0.6923 -1.2019  2.1397
 1021MOL0     H34749   2.954   2.103   1.371 -0.5661 -0.3742  0.2451
 1021MOL0     H34750   3.006   1.941   1.608  1.3756 -1.2960 -2.6317
 1021MOL0     H34751   3.004   2.116   1.593 -0.6598 -0.7303  3.2552
 1021MOL0     H34752   2.766   2.104   1.497 -0.3504  1.7804  1.1337
 1021MOL0     H34753   2.786   2.100   1.666 -2.9500 -2.5011  0.6245
 1021MOL0     H34754   3.756   2.322   1.372  0.5320 -0.7458 -1.1743
 1021MOL0     H34755   3.983   2.383   1.407  1.1085 -0.2791  2.0703
 1021MOL0     H34756   4.347   2.404   1.458 -0.2143  1.0495  2.0828
 1021MOL0     H34757   4.566   2.506   1.464  1.3604 -0.7536  0.3473
 1021MOL0     H34758   6.548   2.209   1.075  0.4312  2.3560 -1.3016
 1021MOL0     H34759   6.783   2.149   1.009 -1.2742  1.4547 -0.9026
 1021MOL0     H34760   7.177   2.238   1.007 -0.9792 -0.0104  0.4271
 1021MOL0     H34761   7.391   2.217   0.895 -0.2837  0.4654  0.3983
 1021MOL0     H34762   7.712   2.082   0.860  1.8146  1.0699 -2.7635
 1021MOL0     H34763   7.583   2.181   0.806  3.6233  1.1237  0.5133
 1021MOL0     H34764   7.701   2.109   0.618  0.5521 -2.5163 -2.1511
 1021MOL0     H34765   7.735   1.958   0.674 -0.7776 -1.1506 -1.8060
 1021MOL0     H34766   7.460   2.050   0.585 -0.5152 -0.7332  1.0148
 1021MOL0     H34767   7.484   1.887   0.631 -1.0396 -0.7635 -1.4124
 1021MOL0     H34768   7.670   1.934   0.416  0.3837  2.0348  0.2640
 1021MOL0     H34769   7.526   1.841   0.414  1.4751 -1.0870  0.2135
 1021MOL0     H34770   7.472   2.203   0.202  2.2677 -0.5984 -1.8455
 1021MOL0     H34771   7.409   1.799   0.973  1.0609 -0.4077  1.2602
 1021MOL0     H34772   7.198   1.794   1.079  0.7093 -0.4235 -0.8740
 1022MOL0     O34773   8.744  10.745   0.714  0.3213  0.2897  0.4525
 1022MOL0     C34774   8.773  10.649   0.645 -0.1201  1.0238 -0.2933
 1022MOL0     O34775   8.676  10.556   0.595 -0.0072  0.4730  0.5002
 1022MOL0     C34776   8.552  10.525   0.638 -0.2290  0.3477  0.5538
 1022MOL0     C34777   8.506  10.559   0.760 -0.3377  0.4621 -0.1254
 1022MOL0     C34778   8.381  10.504   0.805 -0.2005 -0.3015  0.5785
 1022MOL0     C34779   8.300  10.433   0.721  0.9640 -0.4789  0.5699
 1022MOL0     O34780   8.168  10.412   0.766 -0.6574  0.1696 -0.8493
 1022MOL0     C34781   8.073  10.363   0.674 -0.4666  0.0632  0.0789
 1022MOL0     C34782   7.946  10.355   0.752  0.3365 -0.5045  0.2793
 1022MOL0     C34783   7.836  10.271   0.681 -0.3385 -0.1603  0.0146
 1022MOL0     C34784   7.690  10.277   0.742  0.1142 -0.7266  0.9544
 1022MOL0     C34785   7.626  10.159   0.697 -0.1264  0.4032  0.6101
 1022MOL0     C34786   7.500  10.124   0.770 -0.3129 -0.9692 -0.5265
 1022MOL0     C34787   7.452   9.986   0.707 -0.3367  0.0626 -0.6156
 1022MOL0     C34788   7.324   9.935   0.773  0.4088 -0.7381  0.8246
 1022MOL0     N34789   7.277   9.805   0.719 -0.3520  0.1652 -0.1714
 1022MOL0     C34790   7.316   9.683   0.764 -0.0784 -0.2696 -0.1032
 1022MOL0     C34791   7.238   9.596   0.696  0.1846 -0.4446  0.7749
 1022MOL0     C34792   7.243   9.445   0.695 -0.4127  0.2048 -0.2465
 1022MOL0     C34793   7.373   9.384   0.648 -0.4323 -0.4758 -0.0158
 1022MOL0     C34794   7.367   9.232   0.646  0.5189  0.6215  0.2476
 1022MOL0     C34795   7.477   9.165   0.571 -0.3407  0.2786 -0.0724
 1022MOL0     O34796   7.520   9.041   0.637 -0.1013  0.5428  0.8573
 1022MOL0     C34797   7.428   8.942   0.669 -0.2772 -0.0168 -0.0335
 1022MOL0     C34798   7.459   8.862   0.783 -0.4438 -0.8205 -0.3645
 1022MOL0     C34799   7.379   8.759   0.823  0.3785 -0.2675 -0.2901
 1022MOL0     C34800   7.255   8.734   0.764 -0.4711 -0.4116  0.2908
 1022MOL0     C34801   7.162   8.632   0.810 -0.2725 -0.6220  0.5809
 1022MOL0     O34802   7.196   8.573   0.933 -0.5613  0.9491 -1.0725
 1022MOL0     C34803   7.116   8.483   1.005 -0.8975  0.8619 -0.6024
 1022MOL0     C34804   7.027   8.398   0.959  0.2724 -0.0443 -0.2272
 1022MOL0     C34805   6.967   8.297   1.038 -0.5262  0.5753 -0.3006
 1022MOL0     C34806   7.005   8.276   1.175 -0.1098  0.0014 -0.0321
 1022MOL0     O34807   6.939   8.199   1.274 -0.1948 -0.0740 -0.5903
 1022MOL0     C34808   6.810   8.161   1.247  1.0785 -0.5237 -0.7066
 1022MOL0     C34809   6.737   8.075   1.353 -0.6802 -0.0563  0.0810
 1022MOL0     C34810   6.824   7.960   1.417 -0.0399  0.2966 -0.0144
 1022MOL0     C34811   6.751   7.834   1.461  0.3742 -0.1944  0.2447
 1022MOL0     C34812   6.769   7.787   1.605 -0.1392 -0.0600 -0.0838
 1022MOL0     C34813   6.716   7.646   1.620  1.1118 -0.5886  0.0923
 1022MOL0     C34814   6.781   7.584   1.745  0.7376  0.6720  0.4449
 1022MOL0     C34815   6.813   7.439   1.708  0.3322  0.4044 -0.2834
 1022MOL0    Cl34816   6.667   7.346   1.674 -0.3258  0.2721  0.2266
 1022MOL0     C34817   7.094   8.368   1.232 -0.6610 -0.3358 -0.5720
 1022MOL0     C34818   7.153   8.469   1.147  0.2802 -0.0342 -0.0211
 1022MOL0     O34819   7.055   8.618   0.752 -0.0868  0.3898 -0.7614
 1022MOL0     C34820   7.221   8.821   0.660 -1.2679  0.0787  1.6056
 1022MOL0     C34821   7.311   8.918   0.605 -0.0514 -0.6010 -0.6703
 1022MOL0     N34822   7.155   9.673   0.615  1.0710 -0.6411 -0.2730
 1022MOL0     N34823   7.183   9.801   0.625  0.3348  0.2774  0.2150
 1022MOL0     C34824   8.341  10.411   0.590  0.3006  0.9368  0.1741
 1022MOL0     C34825   8.470  10.445   0.552 -0.2394  0.3263 -0.7687
 1022MOL0     C34826   8.918  10.626   0.618  0.2667 -1.0235  0.1787
 1022MOL0     C34827   8.956  10.523   0.531  0.4098 -0.0667 -0.4323
 1022MOL0     C34828   9.094  10.498   0.511  0.0858  0.1198 -0.2766
 1022MOL0     C34829   9.195  10.587   0.553  0.0163 -0.4621  0.4544
 1022MOL0     O34830   9.323  10.548   0.527  0.3319 -0.8078  0.6926
 1022MOL0     C34831   9.362  10.587   0.395 -0.1431 -0.1417 -0.4199
 1022MOL0     C34832   9.507  10.530   0.375 -0.6902 -0.3737  0.8341
 1022MOL0     C34833   9.594  10.645   0.422 -0.4147  0.1672  0.1835
 1022MOL0     C34834   9.746  10.597   0.441 -0.2180 -0.0519  0.8526
 1022MOL0     C34835   9.819  10.683   0.537 -1.0471 -0.0441 -0.2610
 1022MOL0     C34836   9.897  10.737   0.622  0.3047  0.3397  0.2462
 1022MOL0     C34837   9.154  10.690   0.632  0.0861 -0.0575 -0.3832
 1022MOL0     C34838   9.012  10.711   0.668 -1.0664  0.1428 -0.3560
 1022MOL0     H34839   8.568  10.609   0.834 -0.6258  1.9657 -0.8656
 1022MOL0     H34840   8.349  10.534   0.905  1.6005  0.1797  1.0462
 1022MOL0     H34841   8.113  10.268   0.638  1.6442  1.9615 -2.9794
 1022MOL0     H34842   8.065  10.422   0.583  0.3848  0.1840  0.0750
 1022MOL0     H34843   7.903  10.455   0.761  1.7607  0.3201 -1.3538
 1022MOL0     H34844   7.966  10.318   0.853  0.2467  0.1734  0.5451
 1022MOL0     H34845   7.869  10.169   0.661 -0.8338 -0.6367  1.4902
 1022MOL0     H34846   7.823  10.308   0.579  0.1613 -1.1235 -0.4114
 1022MOL0     H34847   7.701  10.287   0.851 -0.4455  4.8771  0.7617
 1022MOL0     H34848   7.637  10.368   0.714  0.0076 -1.0306  0.1530
 1022MOL0     H34849   7.691  10.072   0.708 -1.0519 -0.2874  0.7879
 1022MOL0     H34850   7.604  10.161   0.590  1.3131  1.2684  0.2982
 1022MOL0     H34851   7.426  10.203   0.765  0.6040  0.1447  1.8670
 1022MOL0     H34852   7.527  10.101   0.874  1.3851  0.5582 -0.5720
 1022MOL0     H34853   7.428  10.001   0.601 -1.0908 -4.5328 -1.3272
 1022MOL0     H34854   7.534   9.913   0.707 -0.3694 -0.0388  1.4026
 1022MOL0     H34855   7.257  10.017   0.745  3.0399  1.5333  0.6723
 1022MOL0     H34856   7.310   9.943   0.881 -1.2585  1.9971  0.5107
 1022MOL0     H34857   7.393   9.652   0.833  0.0320  2.2497  1.0301
 1022MOL0     H34858   7.164   9.402   0.633  0.2556 -1.4062 -0.0232
 1022MOL0     H34859   7.219   9.404   0.794 -1.1860  0.9605 -0.1080
 1022MOL0     H34860   7.460   9.417   0.705 -0.9480  1.2867 -0.1689
 1022MOL0     H34861   7.396   9.430   0.552  1.3201  5.1014  2.6389
 1022MOL0     H34862   7.376   9.204   0.751  4.1714  0.5290  0.0683
 1022MOL0     H34863   7.274   9.190   0.606  1.2392 -3.0555  1.9992
 1022MOL0     H34864   7.561   9.236   0.568  0.6305 -0.5756  3.0504
 1022MOL0     H34865   7.444   9.127   0.474  0.5058 -3.8458  1.0587
 1022MOL0     H34866   7.548   8.893   0.839 -1.4395  1.8419 -0.0896
 1022MOL0     H34867   7.409   8.702   0.910  0.4679  0.7346  0.3458
 1022MOL0     H34868   7.000   8.397   0.854  2.8068  1.7783 -0.9834
 1022MOL0     H34869   6.888   8.241   0.989  0.3525 -0.2379 -0.8430
 1022MOL0     H34870   6.799   8.106   1.153 -1.2321  1.0107 -1.4407
 1022MOL0     H34871   6.747   8.251   1.239  2.1421  0.1194 -2.5189
 1022MOL0     H34872   6.654   8.034   1.296  1.3756 -2.3173 -1.4738
 1022MOL0     H34873   6.697   8.139   1.432 -0.2108 -0.3085  0.5338
 1022MOL0     H34874   6.881   7.997   1.503  2.4888 -2.6116 -0.2560
 1022MOL0     H34875   6.896   7.931   1.340  1.1224  5.0475 -1.0488
 1022MOL0     H34876   6.643   7.851   1.455 -0.2573 -2.7484  2.3199
 1022MOL0     H34877   6.790   7.757   1.395  1.6394  0.3894  0.2779
 1022MOL0     H34878   6.716   7.851   1.676  0.1722 -0.7152  0.7583
 1022MOL0     H34879   6.873   7.808   1.632 -0.4340  2.3028 -0.5152
 1022MOL0     H34880   6.762   7.597   1.533  2.0200  0.2196  0.1059
 1022MOL0     H34881   6.607   7.631   1.616  1.0040  0.3214 -1.5905
 1022MOL0     H34882   6.873   7.635   1.773  1.3615 -0.8412  1.3093
 1022MOL0     H34883   6.713   7.595   1.830 -2.3055 -0.2726 -1.7033
 1022MOL0     H34884   6.861   7.388   1.792 -1.4040 -1.2631 -0.2516
 1022MOL0     H34885   6.882   7.432   1.623  0.5995 -1.6280  0.0541
 1022MOL0     H34886   7.096   8.375   1.340  0.1674 -0.1150 -0.5881
 1022MOL0     H34887   7.231   8.537   1.179  0.8302 -0.3576 -0.6481
 1022MOL0     H34888   7.125   8.800   0.615 -0.2129  0.2961 -0.9254
 1022MOL0     H34889   7.282   8.980   0.520 -0.9882 -2.6298 -1.8977
 1022MOL0     H34890   8.274  10.350   0.530 -0.1800 -1.1077  2.5880
 1022MOL0     H34891   8.501  10.399   0.459  0.1067 -1.0152 -0.0352
 1022MOL0     H34892   8.882  10.456   0.489 -0.5485  1.2874 -0.9701
 1022MOL0     H34893   9.110  10.406   0.456 -0.4925 -0.7097  0.9178
 1022MOL0     H34894   9.346  10.694   0.384  1.8217  0.2885  0.4311
 1022MOL0     H34895   9.301  10.538   0.318 -0.4932 -1.0037  0.3807
 1022MOL0     H34896   9.525  10.434   0.423 -2.1018 -0.5288  1.0823
 1022MOL0     H34897   9.543  10.512   0.273  0.9010  2.9918  0.6663
 1022MOL0     H34898   9.561  10.679   0.521  3.0762  0.5368  1.3637
 1022MOL0     H34899   9.592  10.732   0.356  3.7918 -1.0524 -1.8928
 1022MOL0     H34900   9.755  10.491   0.465 -0.0109  0.3653  2.7614
 1022MOL0     H34901   9.788  10.612   0.341  1.1105 -1.6619  1.1386
 1022MOL0     H34902   9.949  10.780   0.705  1.8596 -0.7558 -0.1144
 1022MOL0     H34903   9.230  10.756   0.672 -0.4634  1.2239 -1.3812
 1022MOL0     H34904   8.983  10.786   0.741  1.4112  0.8877 -0.0428
 1023MOL0     O34905   2.841   9.146   5.873 -0.5726 -0.0188 -0.0839
 1023MOL0     C34906   2.824   9.122   5.989 -0.0642  0.3782 -0.0738
 1023MOL0     O34907   2.715   9.061   6.053  0.6259 -0.1926 -0.1303
 1023MOL0     C34908   2.600   9.043   5.993  0.0653 -0.5306 -0.3756
 1023MOL0     C34909   2.494   9.136   6.006  0.0526 -0.4352  0.4926
 1023MOL0     C34910   2.369   9.114   5.952 -0.2162  1.1212  0.3427
 1023MOL0     C34911   2.353   8.993   5.885  1.0506 -0.1046  0.4114
 1023MOL0     O34912   2.223   8.963   5.843  0.3692  0.6054  0.0137
 1023MOL0     C34913   2.205   8.858   5.745 -1.0807 -0.4613  0.0225
 1023MOL0     C34914   2.064   8.879   5.683  0.1127 -0.9657 -0.6861
 1023MOL0     C34915   1.951   8.830   5.783 -0.2428  0.3606 -0.1725
 1023MOL0     C34916   1.816   8.859   5.722  0.9227 -0.5766  0.3461
 1023MOL0     C34917   1.708   8.780   5.795  1.3028  0.4832 -0.1288
 1023MOL0     C34918   1.566   8.800   5.735  0.7193 -0.0618 -0.5454
 1023MOL0     C34919   1.456   8.706   5.790  0.0978  0.0862  0.6268
 1023MOL0     C34920   1.471   8.558   5.738  0.0264 -0.1161 -0.1531
 1023MOL0     N34921   1.347   8.486   5.732 -0.5800  0.0809  0.7014
 1023MOL0     C34922   1.346   8.354   5.686  0.6206  0.1799 -0.0668
 1023MOL0     C34923   1.211   8.313   5.705 -0.3991 -0.8055  0.2657
 1023MOL0     C34924   1.148   8.174   5.671 -0.6589 -0.4821 -0.7579
 1023MOL0     C34925   1.065   8.116   5.789  0.0782 -0.1946  0.3913
 1023MOL0     C34926   0.997   7.981   5.758  0.1157  0.9646  0.4736
 1023MOL0     C34927   0.879   7.983   5.668 -0.9937 -0.1144 -0.3609
 1023MOL0     O34928   0.814   7.860   5.662 -0.2890 -0.2883  1.1606
 1023MOL0     C34929   0.691   7.847   5.607 -0.1475 -0.0083  0.6776
 1023MOL0     C34930   0.642   7.718   5.604  0.1932  0.0654  0.6352
 1023MOL0     C34931   0.512   7.697   5.554  0.0947 -0.2260 -0.3307
 1023MOL0     C34932   0.424   7.804   5.532  0.4853 -0.1313 -0.2399
 1023MOL0     C34933   0.278   7.775   5.500 -0.2308 -0.3515  0.0284
 1023MOL0     O34934   0.198   7.875   5.457 -0.0999  0.4478  0.7058
 1023MOL0     C34935   0.071   7.852   5.414  0.1183 -0.7616 -0.1137
 1023MOL0     C34936   0.043   7.768   5.314  0.0050  0.3427 -0.1753
 1023MOL0     C34937  -0.091   7.731   5.288 -0.1139 -0.5061 -0.2155
 1023MOL0     C34938  -0.200   7.789   5.351  0.5076  0.3896 -0.3322
 1023MOL0     O34939  -0.331   7.759   5.330  0.8156 -0.2202  0.1247
 1023MOL0     C34940  -0.350   7.652   5.238 -0.0447  1.3633  0.2085
 1023MOL0     C34941  -0.504   7.650   5.216 -0.1764 -0.8818 -0.3526
 1023MOL0     C34942  -0.555   7.766   5.123 -0.1208  0.1300 -0.1170
 1023MOL0     C34943  -0.701   7.742   5.086  0.5604  0.6438 -0.2327
 1023MOL0     C34944  -0.752   7.803   4.951 -0.3085 -0.2557  0.2097
 1023MOL0     C34945  -0.768   7.960   4.958 -0.0030 -0.5629  0.1994
 1023MOL0     C34946  -0.884   8.010   5.046 -0.0426  0.0952 -0.8398
 1023MOL0     C34947  -1.012   8.040   4.966  0.6691  0.0792  0.8724
 1023MOL0    Cl34948  -1.060   7.877   4.895 -0.1769  0.2901  0.2664
 1023MOL0     C34949  -0.170   7.870   5.463  0.2472 -0.1588  0.6575
 1023MOL0     C34950  -0.034   7.904   5.492  0.2554  0.2487  0.3855
 1023MOL0     O34951   0.252   7.658   5.490  0.9434 -0.4352 -0.0731
 1023MOL0     C34952   0.475   7.937   5.550  0.3640  1.0854 -0.5639
 1023MOL0     C34953   0.605   7.955   5.576 -1.6858 -0.4302  0.5466
 1023MOL0     N34954   1.140   8.419   5.751 -0.3712  0.0096  0.0033
 1023MOL0     N34955   1.221   8.524   5.758  0.8752 -0.0920  0.8931
 1023MOL0     C34956   2.455   8.900   5.871  0.1517 -0.0250 -0.0882
 1023MOL0     C34957   2.580   8.924   5.914 -0.2139 -0.3027 -0.8863
 1023MOL0     C34958   2.945   9.131   6.071 -1.3615 -0.5301 -1.1931
 1023MOL0     C34959   3.070   9.186   6.012  0.5502 -0.4151  0.3143
 1023MOL0     C34960   3.183   9.188   6.101 -0.0680 -0.4034 -0.6180
 1023MOL0     C34961   3.179   9.134   6.224  0.4780 -0.2189 -0.1006
 1023MOL0     O34962   3.292   9.137   6.295 -0.0629  0.6133  0.3356
 1023MOL0     C34963   3.347   9.007   6.337  0.4874 -0.8591 -0.0680
 1023MOL0     C34964   3.463   8.974   6.256  0.1639 -0.0890  0.4655
 1023MOL0     C34965   3.547   8.863   6.320  0.1326  0.4423 -0.5878
 1023MOL0     C34966   3.649   8.906   6.423  0.2164 -0.1122 -0.1699
 1023MOL0     C34967   3.745   9.004   6.371  0.4382 -0.2788  0.8715
 1023MOL0     C34968   3.810   9.081   6.310 -0.1442 -0.1257 -0.5400
 1023MOL0     C34969   3.057   9.098   6.277 -0.0394 -0.2658 -0.6844
 1023MOL0     C34970   2.945   9.083   6.205 -0.1830  0.8205 -0.1622
 1023MOL0     H34971   2.517   9.230   6.055 -2.2357 -0.2696  1.3756
 1023MOL0     H34972   2.285   9.181   5.961  0.0125  1.8632 -2.2522
 1023MOL0     H34973   2.203   8.761   5.796 -4.2244  0.3651  1.8117
 1023MOL0     H34974   2.269   8.869   5.658  0.0327  4.9310  1.1796
 1023MOL0     H34975   2.054   8.821   5.591 -0.1433 -0.3901 -1.0247
 1023MOL0     H34976   2.059   8.988   5.671  3.8326 -0.3128  1.9774
 1023MOL0     H34977   1.964   8.882   5.878 -0.8775 -0.7677  0.5555
 1023MOL0     H34978   1.962   8.722   5.796 -0.0614  0.3855 -0.1087
 1023MOL0     H34979   1.800   8.968   5.719 -1.6890 -0.8926 -0.1480
 1023MOL0     H34980   1.824   8.821   5.620 -0.2944  0.8382 -0.3308
 1023MOL0     H34981   1.700   8.818   5.897 -1.2142  0.5702 -0.2929
 1023MOL0     H34982   1.729   8.673   5.790 -2.4693 -0.5867  2.3746
 1023MOL0     H34983   1.564   8.788   5.627  2.0256 -2.0233 -0.3948
 1023MOL0     H34984   1.543   8.905   5.758 -1.0621 -0.6866  0.7287
 1023MOL0     H34985   1.464   8.698   5.899  0.5573 -2.7026  0.4658
 1023MOL0     H34986   1.359   8.742   5.755  1.0394  0.2923 -2.0491
 1023MOL0     H34987   1.542   8.503   5.801  0.3509  0.3917 -0.0649
 1023MOL0     H34988   1.524   8.555   5.642  0.0328  3.1333 -0.3700
 1023MOL0     H34989   1.419   8.285   5.647  1.0077 -0.1482  1.1870
 1023MOL0     H34990   1.229   8.104   5.652 -2.0556 -2.5931  0.6620
 1023MOL0     H34991   1.089   8.191   5.580 -1.0626 -2.1396 -0.8259
 1023MOL0     H34992   0.983   8.187   5.803 -2.7255 -2.7555 -1.5622
 1023MOL0     H34993   1.122   8.110   5.882  0.4508  2.4833  0.4134
 1023MOL0     H34994   1.064   7.898   5.734 -2.0972 -0.6517 -0.4037
 1023MOL0     H34995   0.948   7.956   5.852 -2.1301  3.6432  0.1348
 1023MOL0     H34996   0.922   8.020   5.574  1.4040 -0.0405  0.6862
 1023MOL0     H34997   0.818   8.068   5.700 -2.6978 -1.7036  0.7830
 1023MOL0     H34998   0.725   7.649   5.617  4.4952  4.5230 -0.1353
 1023MOL0     H34999   0.482   7.594   5.536 -1.9570 -0.0185  1.4840
 1023MOL0     H35000   0.130   7.725   5.264  0.1856  0.3353  0.1414
 1023MOL0     H35001  -0.106   7.664   5.204 -1.1562 -0.1284 -0.3355
 1023MOL0     H35002  -0.335   7.556   5.287 -2.4108  0.4645 -0.6514
 1023MOL0     H35003  -0.304   7.662   5.139 -0.1093  1.0137  0.1408
 1023MOL0     H35004  -0.555   7.663   5.312 -0.3989 -0.6920 -0.4921
 1023MOL0     H35005  -0.523   7.553   5.171  0.2023 -1.3142  0.4074
 1023MOL0     H35006  -0.485   7.762   5.039 -1.1037  1.7120 -1.0576
 1023MOL0     H35007  -0.537   7.865   5.165  1.2243  0.9130 -2.3921
 1023MOL0     H35008  -0.719   7.634   5.073 -0.3440  0.5960  1.1642
 1023MOL0     H35009  -0.777   7.770   5.160  1.1377  2.6889 -0.3588
 1023MOL0     H35010  -0.850   7.764   4.921 -2.8875  3.2905  2.9918
 1023MOL0     H35011  -0.690   7.778   4.865 -1.6446  0.8815 -1.1512
 1023MOL0     H35012  -0.773   7.994   4.854  3.3154  2.3095  0.7974
 1023MOL0     H35013  -0.675   8.011   4.984 -1.1126  1.8267 -0.2252
 1023MOL0     H35014  -0.919   7.936   5.117  0.1896 -0.0559 -0.8801
 1023MOL0     H35015  -0.850   8.097   5.103  0.3857  0.1769 -1.2105
 1023MOL0     H35016  -0.981   8.104   4.882  1.5512 -0.6759  0.5986
 1023MOL0     H35017  -1.089   8.086   5.029  0.9167 -1.7822  2.6301
 1023MOL0     H35018  -0.253   7.905   5.524 -0.6293 -2.4730  0.8609
 1023MOL0     H35019   0.007   7.951   5.581  4.5909 -0.9922 -0.7215
 1023MOL0     H35020   0.411   8.025   5.540 -0.1950  0.7688  0.1376
 1023MOL0     H35021   0.637   8.059   5.573 -0.3095 -0.8409 -0.3473
 1023MOL0     H35022   2.447   8.804   5.821  1.0927 -1.0440  1.5695
 1023MOL0     H35023   2.659   8.849   5.919 -0.4110 -0.6228 -2.1840
 1023MOL0     H35024   3.086   9.205   5.906  2.3338  0.7549  0.7560
 1023MOL0     H35025   3.284   9.219   6.076  0.0511 -0.7191 -0.5341
 1023MOL0     H35026   3.278   8.924   6.325  0.0044 -0.4470 -0.1604
 1023MOL0     H35027   3.374   9.002   6.443  1.3152 -1.0522 -0.2748
 1023MOL0     H35028   3.415   8.949   6.161 -0.8587  1.1751  0.6169
 1023MOL0     H35029   3.529   9.060   6.240 -1.3514  0.7484 -1.8180
 1023MOL0     H35030   3.587   8.819   6.229  0.6150 -0.9635  0.2731
 1023MOL0     H35031   3.477   8.794   6.368 -1.8864  1.5419 -1.8051
 1023MOL0     H35032   3.599   8.942   6.514 -1.4273 -1.2398 -0.5748
 1023MOL0     H35033   3.697   8.816   6.460  0.4446  0.8687  2.0923
 1023MOL0     H35034   3.882   9.125   6.244  0.7701 -0.7325  0.0366
 1023MOL0     H35035   3.042   9.066   6.380 -1.0535  0.7351 -0.4983
 1023MOL0     H35036   2.858   9.036   6.251  0.2857 -0.4078 -0.4891
 1024MOL0     O35037   5.742   0.934   0.360 -0.4948  0.0682  0.5467
 1024MOL0     C35038   5.824   0.973   0.273 -0.1696 -0.3560 -0.7464
 1024MOL0     O35039   5.796   1.023   0.157  0.2452 -0.6391 -0.1151
 1024MOL0     C35040   5.658   1.032   0.121 -0.2686 -1.2454 -0.1198
 1024MOL0     C35041   5.593   1.153   0.129 -1.2660  0.2940 -0.7105
 1024MOL0     C35042   5.457   1.167   0.099  0.6642  0.3424 -0.0111
 1024MOL0     C35043   5.382   1.057   0.061 -0.0520 -0.0497  0.3339
 1024MOL0     O35044   5.249   1.074   0.034 -0.2036 -0.0140 -0.0197
 1024MOL0     C35045   5.155   0.965   0.026 -1.0588  0.7731 -0.1167
 1024MOL0     C35046   5.019   1.028   0.032  0.8930 -0.2363 -0.5056
 1024MOL0     C35047   4.912   0.924   0.050  0.5930 -0.1415  0.3305
 1024MOL0     C35048   4.772   0.989   0.031  1.0167 -1.3227 -0.1316
 1024MOL0     C35049   4.652   0.900   0.090  0.3111 -0.5963 -0.7267
 1024MOL0     C35050   4.518   0.969   0.099  0.0023 -0.4423  0.0101
 1024MOL0     C35051   4.404   0.863   0.112 -0.3399 -0.2800 -0.2778
 1024MOL0     C35052   4.281   0.935   0.184  0.8715 -0.1267  0.4248
 1024MOL0     N35053   4.152   0.870   0.136 -0.4443 -0.0461 -0.7597
 1024MOL0     C35054   4.092   0.895   0.017  0.2654  0.2590 -0.6305
 1024MOL0     C35055   3.984   0.806   0.015  1.4594  0.5159  0.0074
 1024MOL0     C35056   3.862   0.825  -0.085 -0.2179 -0.9210  0.7205
 1024MOL0     C35057   3.834   0.680  -0.129  0.2485 -0.6688 -0.4161
 1024MOL0     C35058   3.745   0.668  -0.256 -0.5276  0.4193 -0.4908
 1024MOL0     C35059   3.731   0.514  -0.287  0.2260 -0.1340  0.0314
 1024MOL0     O35060   3.650   0.493  -0.402  0.1253 -0.5591  0.6685
 1024MOL0     C35061   3.520   0.468  -0.393  1.2691  0.4984 -0.6171
 1024MOL0     C35062   3.449   0.442  -0.516 -1.3249 -0.4267 -0.1263
 1024MOL0     C35063   3.305   0.434  -0.513 -0.0499 -0.0236 -0.5927
 1024MOL0     C35064   3.237   0.431  -0.391 -0.0098  0.3617  0.4703
 1024MOL0     C35065   3.088   0.426  -0.382  0.3660 -0.6758  0.7659
 1024MOL0     O35066   3.035   0.387  -0.265  0.3718  0.3723 -0.7606
 1024MOL0     C35067   2.909   0.423  -0.220  0.0190 -0.0779  0.5842
 1024MOL0     C35068   2.845   0.540  -0.254  0.6679 -0.0692 -0.4453
 1024MOL0     C35069   2.713   0.571  -0.204  0.0890 -0.3053 -0.0728
 1024MOL0     C35070   2.653   0.490  -0.106 -0.5009 -0.1122 -0.6906
 1024MOL0     O35071   2.527   0.509  -0.061 -0.2310  0.3023  0.3569
 1024MOL0     C35072   2.473   0.643  -0.065 -0.0467 -0.0663 -0.4941
 1024MOL0     C35073   2.331   0.642  -0.014  0.2890 -0.3024  0.4932
 1024MOL0     C35074   2.259   0.780  -0.017  1.0132  0.2116  0.4953
 1024MOL0     C35075   2.121   0.767   0.042 -0.3861 -0.3026 -0.5161
 1024MOL0     C35076   2.027   0.878  -0.011 -0.8920  0.2361 -0.3095
 1024MOL0     C35077   2.001   0.863  -0.157  0.8785  0.1753  0.1301
 1024MOL0     C35078   1.864   0.902  -0.207  0.1292 -0.7844  0.4231
 1024MOL0     C35079   1.835   0.894  -0.362 -0.5526 -0.2430 -0.3438
 1024MOL0    Cl35080   1.912   1.031  -0.447 -0.1778 -0.4460 -0.2411
 1024MOL0     C35081   2.725   0.382  -0.067 -0.2736 -0.7100 -0.5073
 1024MOL0     C35082   2.844   0.338  -0.129 -0.7426 -0.2533  0.4046
 1024MOL0     O35083   3.029   0.464  -0.486 -0.5784  0.3058  0.2934
 1024MOL0     C35084   3.311   0.438  -0.274 -0.5403 -0.2920  0.4903
 1024MOL0     C35085   3.445   0.467  -0.271  0.4145 -0.4773 -0.4888
 1024MOL0     N35086   3.986   0.741   0.131 -0.2222  0.3378 -0.5024
 1024MOL0     N35087   4.093   0.761   0.193  0.1543 -0.6630 -0.4081
 1024MOL0     C35088   5.450   0.928   0.055  0.2431 -0.0620  0.1491
 1024MOL0     C35089   5.589   0.924   0.078 -0.2536  0.1050 -0.0950
 1024MOL0     C35090   5.967   0.959   0.306 -0.3846  0.0611  0.1605
 1024MOL0     C35091   6.064   0.983   0.202 -0.0528  0.1465 -0.5808
 1024MOL0     C35092   6.204   0.954   0.227 -0.1118  0.1006 -0.3397
 1024MOL0     C35093   6.245   0.902   0.356  0.0313  0.0498  1.0836
 1024MOL0     O35094   6.374   0.871   0.389  0.1292 -0.5488  0.1752
 1024MOL0     C35095   6.483   0.935   0.306  0.1779  0.0364 -0.6433
 1024MOL0     C35096   6.518   1.073   0.347  0.1884  0.0807  0.9289
 1024MOL0     C35097   6.597   1.139   0.229  0.1016 -0.5881 -0.3536
 1024MOL0     C35098   6.618   1.288   0.262  0.3314 -0.3079 -0.0507
 1024MOL0     C35099   6.493   1.358   0.270  0.7848  0.1385  0.0069
 1024MOL0     C35100   6.374   1.390   0.264  0.2905 -0.8061  0.2390
 1024MOL0     C35101   6.144   0.871   0.442  0.5942  0.8575 -0.3208
 1024MOL0     C35102   6.015   0.897   0.418 -0.0989 -0.0891 -1.4430
 1024MOL0     H35103   5.652   1.241   0.152  1.6559 -1.4631 -1.0333
 1024MOL0     H35104   5.411   1.265   0.098 -0.2848  0.1551 -5.3583
 1024MOL0     H35105   5.166   0.898   0.111 -0.3460 -0.5090 -1.1831
 1024MOL0     H35106   5.166   0.909  -0.067  1.9604  0.3441  0.3808
 1024MOL0     H35107   4.998   1.094  -0.053 -3.5908  0.7293  1.0301
 1024MOL0     H35108   5.028   1.090   0.122  2.9035  0.6906 -1.2919
 1024MOL0     H35109   4.919   0.877   0.148 -0.7299  0.8089  0.9113
 1024MOL0     H35110   4.919   0.851  -0.031 -2.3510  0.2308 -0.3653
 1024MOL0     H35111   4.777   1.081   0.090  3.2135 -0.8314 -0.9787
 1024MOL0     H35112   4.754   1.019  -0.072 -0.3595  2.0358  0.9456
 1024MOL0     H35113   4.678   0.881   0.195 -1.4892 -2.7937 -0.5867
 1024MOL0     H35114   4.635   0.814   0.024 -2.0331  1.3572 -2.8274
 1024MOL0     H35115   4.506   1.015   0.001  2.0583 -0.7180 -0.4192
 1024MOL0     H35116   4.517   1.045   0.179 -0.0494 -1.0545  0.6027
 1024MOL0     H35117   4.373   0.812   0.021  2.0115 -0.7496 -0.8694
 1024MOL0     H35118   4.438   0.784   0.180  0.3373  1.4517  1.5002
 1024MOL0     H35119   4.290   1.040   0.157 -2.8250 -0.4409 -2.8472
 1024MOL0     H35120   4.290   0.913   0.291  0.2820  2.9632  1.2078
 1024MOL0     H35121   4.128   0.977  -0.044 -0.3739  0.0797 -1.2667
 1024MOL0     H35122   3.884   0.883  -0.175 -1.6498 -1.9919 -0.3844
 1024MOL0     H35123   3.766   0.867  -0.052  0.5410  1.0962  0.4887
 1024MOL0     H35124   3.796   0.612  -0.052 -0.4523  0.4560  0.2617
 1024MOL0     H35125   3.934   0.652  -0.165 -0.0681 -0.5433 -1.4243
 1024MOL0     H35126   3.649   0.705  -0.221 -0.2506  1.5028 -0.8339
 1024MOL0     H35127   3.785   0.728  -0.338 -0.7679 -0.9510 -1.6540
 1024MOL0     H35128   3.699   0.456  -0.199 -1.0218 -1.1210 -1.0368
 1024MOL0     H35129   3.831   0.483  -0.317  0.0548  1.5628 -2.6069
 1024MOL0     H35130   3.491   0.434  -0.615  0.1853 -1.1480  0.5384
 1024MOL0     H35131   3.261   0.433  -0.613  0.9189 -1.8662 -1.0494
 1024MOL0     H35132   2.897   0.605  -0.323  1.3379  2.0373  1.8890
 1024MOL0     H35133   2.666   0.655  -0.253  1.9975  1.2333  0.5834
 1024MOL0     H35134   2.484   0.690  -0.164 -2.0233  1.1632 -0.1854
 1024MOL0     H35135   2.537   0.697   0.005 -0.2221 -1.5783  0.8924
 1024MOL0     H35136   2.321   0.593   0.083  0.3859 -0.0444  0.6347
 1024MOL0     H35137   2.278   0.579  -0.086 -0.7087  2.3073 -1.2167
 1024MOL0     H35138   2.258   0.814  -0.121 -0.5461  0.9674  0.7277
 1024MOL0     H35139   2.317   0.857   0.034  0.9663  1.5292 -1.3514
 1024MOL0     H35140   2.074   0.669   0.030 -1.4063  0.0385  0.5150
 1024MOL0     H35141   2.135   0.772   0.151  0.8340  1.5854 -0.6972
 1024MOL0     H35142   2.064   0.978   0.016  0.7841 -0.6146  0.7148
 1024MOL0     H35143   1.927   0.872   0.031 -1.2792 -0.0183 -1.2339
 1024MOL0     H35144   2.019   0.761  -0.192 -1.4361 -0.8320  1.6153
 1024MOL0     H35145   2.068   0.932  -0.210 -0.7089 -1.1888 -4.0570
 1024MOL0     H35146   1.788   0.844  -0.153 -2.7079  1.8239 -0.4881
 1024MOL0     H35147   1.827   0.993  -0.159  1.6728 -0.6350  1.3679
 1024MOL0     H35148   1.727   0.895  -0.380 -0.5045  0.9973 -0.6373
 1024MOL0     H35149   1.884   0.802  -0.395  0.4081 -0.3608  1.2887
 1024MOL0     H35150   2.683   0.321   0.012 -4.3493 -0.5026 -2.2530
 1024MOL0     H35151   2.893   0.250  -0.089  0.7287 -0.1141 -0.9979
 1024MOL0     H35152   3.261   0.423  -0.178 -0.3227 -0.0752  0.6379
 1024MOL0     H35153   3.500   0.480  -0.178  1.0690  1.8923 -1.1266
 1024MOL0     H35154   5.400   0.840   0.015 -2.1164  1.9016 -1.5779
 1024MOL0     H35155   5.640   0.829   0.063  0.3486  0.5547 -0.9939
 1024MOL0     H35156   6.031   1.012   0.103 -1.2747  0.4906 -0.0967
 1024MOL0     H35157   6.273   0.987   0.150  0.1971  0.5181  0.1133
 1024MOL0     H35158   6.461   0.938   0.199  1.3398 -0.2152 -0.9054
 1024MOL0     H35159   6.572   0.871   0.304 -0.9435 -1.6124 -2.9716
 1024MOL0     H35160   6.423   1.115   0.379  0.1474  0.3975  0.4114
 1024MOL0     H35161   6.584   1.064   0.433  0.0770 -1.9326  0.8521
 1024MOL0     H35162   6.551   1.128   0.131  1.2858 -2.1154 -0.7794
 1024MOL0     H35163   6.689   1.080   0.220 -0.0349 -0.6967 -1.0958
 1024MOL0     H35164   6.672   1.300   0.356 -0.2577 -3.2109  0.7495
 1024MOL0     H35165   6.680   1.322   0.178  2.2067 -0.5763  1.1848
 1024MOL0     H35166   6.271   1.417   0.249 -0.3928 -2.2970  1.8899
 1024MOL0     H35167   6.184   0.821   0.530 -1.1067 -2.7839 -1.4584
 1024MOL0     H35168   5.935   0.882   0.490  1.0942  0.1646 -0.0003
  11.25206  11.25206  11.25206
